Title
82279
    1SAPS     N    1   4.448   3.040  10.901  0.0356  0.5058  0.3201
    1SAPS   HN1    2   4.424   3.078  10.808 -0.7303  0.0450  0.3279
    1SAPS   HN2    3   4.461   3.123  10.963  3.1589 -0.1966  0.7790
    1SAPS   HN3    4   4.541   2.995  10.885 -1.6084 -4.1139  2.0641
    1SAPS   C12    5   4.363   2.926  10.950 -0.0251 -0.5995 -0.3281
    1SAPS  H12A    6   4.367   2.841  10.883  2.1611 -0.7552 -0.0765
    1SAPS   C13    7   4.434   2.879  11.083  0.1730  0.2218 -0.4519
    1SAPS  O13A    8   4.553   2.903  11.115 -0.1317  0.0379  0.1491
    1SAPS  O13B    9   4.363   2.791  11.151 -0.3215  0.6993  0.3100
    1SAPS   C11   10   4.213   2.977  10.981 -0.1487  0.0022  0.6297
    1SAPS  H11A   11   4.216   3.069  11.042 -0.7212 -0.7645  1.8460
    1SAPS  H11B   12   4.164   2.903  11.048 -1.2919  0.0150 -0.1573
    1SAPS     P   13   4.072   2.893  10.777 -0.1788 -0.2123  0.3098
    1SAPS   O13   14   4.089   2.764  10.838  0.1472  0.5256  0.0374
    1SAPS   O14   15   3.937   2.943  10.734 -0.5436  0.4504 -0.1016
    1SAPS   O12   16   4.137   2.999  10.864 -0.1712 -0.2506  0.4305
    1SAPS   O11   17   4.166   2.896  10.653  0.4339 -0.5561 -0.1481
    1SAPS    C1   18   4.253   3.001  10.616 -0.1438  0.6642  0.3263
    1SAPS    HA   19   4.224   3.097  10.662  0.5860  1.1849 -0.2813
    1SAPS    HB   20   4.359   2.978  10.640 -0.4277 -2.2526 -0.7827
    1SAPS    C2   21   4.254   3.020  10.457 -0.8375 -0.1169  0.3694
    1SAPS    HS   22   4.155   3.053  10.420 -0.9107 -0.0457  0.6294
    1SAPS   O21   23   4.295   2.896  10.397 -0.7280  1.0774  0.0115
    1SAPS   C21   24   4.210   2.836  10.325 -0.4444  0.2844 -0.1414
    1SAPS   O22   25   4.096   2.876  10.296  0.1849 -0.5645 -0.2642
    1SAPS   C22   26   4.266   2.702  10.285  0.2710  0.1294  0.1240
    1SAPS   H2R   27   4.365   2.719  10.237 -0.2483 -1.2602 -1.5484
    1SAPS   H2S   28   4.283   2.640  10.376 -1.3552  1.7885  1.6229
    1SAPS    C3   29   4.342   3.141  10.419  0.0581 -0.5167 -0.7283
    1SAPS    HX   30   4.447   3.110  10.436 -0.1608 -1.4631 -1.0346
    1SAPS    HY   31   4.324   3.230  10.483 -0.2727 -0.9275 -0.2373
    1SAPS   O31   32   4.334   3.186  10.282  0.4993  0.6499 -0.3123
    1SAPS   C31   33   4.420   3.117  10.200  0.5888 -0.4690 -0.0731
    1SAPS   O32   34   4.471   3.012  10.218 -0.5249  0.4457 -0.2416
    1SAPS   C32   35   4.445   3.211  10.080  0.1094 -0.3965 -0.0042
    1SAPS   H2X   36   4.474   3.313  10.114  1.3409 -0.2741 -1.2919
    1SAPS   H2Y   37   4.346   3.234  10.034  0.6852  2.1164 -0.1418
    1SAPS   C23   38   4.171   2.619  10.191  0.7356  0.3517  0.4484
    1SAPS   H3R   39   4.070   2.622  10.238  0.6807  1.8182  0.2873
    1SAPS   H3S   40   4.205   2.514  10.186 -2.7775 -0.9072 -0.2907
    1SAPS   C24   41   4.152   2.675  10.047 -0.0854  0.4707  0.0178
    1SAPS   H4R   42   4.154   2.786  10.053  2.2318  0.3950  1.7740
    1SAPS   H4S   43   4.050   2.661  10.003 -0.2523  1.6414  0.0049
    1SAPS   C25   44   4.249   2.619   9.950  0.0325 -0.4414 -0.4228
    1SAPS   H5R   45   4.349   2.615   9.995  0.2966 -0.7908 -1.0229
    1SAPS   C26   46   4.240   2.577   9.825  0.4179 -0.9214  0.2647
    1SAPS   H6R   47   4.328   2.534   9.775  1.3890 -0.0392  1.1978
    1SAPS   C27   48   4.120   2.578   9.728 -0.2577 -0.8259  0.0786
    1SAPS   H7R   49   4.042   2.654   9.750  0.1364 -0.3469 -0.1658
    1SAPS   H7S   50   4.066   2.481   9.741 -0.7290 -0.6576 -0.5947
    1SAPS   C28   51   4.149   2.588   9.582 -0.0051 -1.0170  0.1355
    1SAPS   H8R   52   4.242   2.546   9.540  0.3151  1.4624 -1.9493
    1SAPS   C29   53   4.075   2.657   9.499  0.1348 -0.2170  0.5726
    1SAPS   H9R   54   4.094   2.648   9.391 -1.9819 -0.4962  0.1831
    1SAPS  C210   55   3.955   2.735   9.536 -0.2066 -0.2848  0.1215
    1SAPS  H10R   56   3.985   2.833   9.579 -2.1937  0.8935 -1.0326
    1SAPS  H10S   57   3.889   2.688   9.612 -2.2447  2.1960  0.0378
    1SAPS  C211   58   3.883   2.760   9.409 -0.2094 -0.0049 -0.3004
    1SAPS  H11R   59   3.803   2.687   9.396  0.0006  0.0140 -2.0049
    1SAPS  C212   60   3.906   2.861   9.325  0.1021 -0.0041 -0.0553
    1SAPS  H12R   61   3.867   2.867   9.222 -0.1754  0.6873  0.0832
    1SAPS  C213   62   4.009   2.967   9.350  0.0065  0.5547 -0.2068
    1SAPS  H13R   63   4.069   2.960   9.257  1.3568 -1.3984  0.7327
    1SAPS  H13S   64   4.081   2.937   9.429  2.0365  1.3319 -1.6711
    1SAPS  C214   65   3.948   3.100   9.371  1.0816  0.2047  0.7915
    1SAPS  H14R   66   3.853   3.104   9.425  0.0020  1.5440 -1.0718
    1SAPS  C215   67   3.995   3.220   9.323 -0.3091  0.5819  0.1962
    1SAPS  H15R   68   3.939   3.311   9.349 -0.4619  0.6168 -0.2565
    1SAPS  C216   69   4.117   3.257   9.240  0.0421 -0.6249  0.1140
    1SAPS  H16R   70   4.170   3.161   9.221  1.9215 -0.3842  3.3662
    1SAPS  H16S   71   4.183   3.321   9.302 -0.9415 -1.4054  2.0553
    1SAPS  C217   72   4.083   3.321   9.099  0.1745  0.2607  0.2150
    1SAPS  H17R   73   4.021   3.411   9.117  0.1201  0.2239  0.2098
    1SAPS  H17S   74   4.037   3.251   9.026 -1.3146  1.3967  0.0090
    1SAPS  C218   75   4.211   3.367   9.034 -0.3184  0.1204  0.0052
    1SAPS  H18R   76   4.266   3.279   8.995  1.5092  1.9844 -1.8543
    1SAPS  H18S   77   4.283   3.426   9.094 -1.7071  2.5050 -0.5393
    1SAPS  C219   78   4.192   3.456   8.909  0.3131 -0.3540 -0.3815
    1SAPS  H19R   79   4.112   3.532   8.919  0.8682  0.1053  0.8511
    1SAPS  H19S   80   4.144   3.392   8.833  1.2242  0.6694 -1.8674
    1SAPS  C220   81   4.322   3.531   8.860  0.1502  0.0192  0.2549
    1SAPS  H20R   82   4.401   3.458   8.831  1.5896  1.8083 -0.4772
    1SAPS  H20S   83   4.364   3.591   8.943 -0.1973 -0.2114  0.5998
    1SAPS  H20T   84   4.302   3.595   8.772  1.1321  1.3769  0.9889
    1SAPS   C33   85   4.547   3.155   9.969  0.1511 -0.4124 -0.5047
    1SAPS   H3X   86   4.583   3.057  10.007 -2.8935 -1.2261  0.5413
    1SAPS   H3Y   87   4.640   3.216   9.960  0.7469 -1.2806 -0.4023
    1SAPS   C34   88   4.492   3.118   9.829 -0.5235 -0.4040  0.2522
    1SAPS   H4X   89   4.581   3.130   9.763 -1.0420 -0.5784 -0.4839
    1SAPS   H4Y   90   4.413   3.191   9.801  0.4639 -0.0095 -1.6498
    1SAPS   C35   91   4.446   2.969   9.832 -0.6277 -0.5525  0.4880
    1SAPS   H5X   92   4.375   2.960   9.916 -0.3611 -1.6784  0.6036
    1SAPS   H5Y   93   4.540   2.912   9.850  0.8200  0.8877 -1.8920
    1SAPS   C36   94   4.370   2.917   9.711  0.2447  0.3490 -0.1855
    1SAPS   H6X   95   4.292   2.995   9.694  1.3346  1.3092 -0.9043
    1SAPS   H6Y   96   4.328   2.823   9.751 -1.5555  1.3537  0.4263
    1SAPS   C37   97   4.475   2.900   9.600 -0.7122 -0.2930  0.7694
    1SAPS   H7X   98   4.566   2.848   9.636 -0.9019 -0.3385  1.1835
    1SAPS   H7Y   99   4.505   3.004   9.573  1.6788 -1.2753 -0.6186
    1SAPS   C38  100   4.433   2.819   9.482 -0.0902 -0.1126 -0.0597
    1SAPS   H8X  101   4.333   2.858   9.453 -0.5081 -1.9883 -1.3639
    1SAPS   H8Y  102   4.432   2.712   9.511  2.6470 -0.2471 -0.1689
    1SAPS   C39  103   4.528   2.841   9.355  0.4366 -0.3668  0.1928
    1SAPS   H9X  104   4.626   2.799   9.386  0.7849 -0.0572 -0.4898
    1SAPS   H9Y  105   4.552   2.947   9.333  0.1387 -0.5695 -1.2109
    1SAPS  C310  106   4.468   2.788   9.230 -0.7495 -0.2304  0.6967
    1SAPS  H10X  107   4.428   2.685   9.245 -0.0050 -0.7583 -0.6749
    1SAPS  H10Y  108   4.536   2.774   9.143 -0.4645 -0.4367  0.9509
    1SAPS  C311  109   4.347   2.857   9.173  0.1685  0.2416  0.2692
    1SAPS  H11X  110   4.274   2.865   9.256  0.5711 -2.2186  0.9162
    1SAPS  H11Y  111   4.313   2.788   9.093  0.0717 -0.6948  1.1037
    1SAPS  C312  112   4.379   3.004   9.119 -0.0988 -1.1968 -1.4909
    1SAPS  H12X  113   4.389   3.075   9.204  0.4596  1.0316 -3.3274
    1SAPS  H12Y  114   4.283   3.037   9.073 -0.9970  0.6995  1.4101
    1SAPS  C313  115   4.508   3.027   9.034  0.0570 -0.0634 -0.3701
    1SAPS  H13X  116   4.594   3.003   9.101  1.1345 -0.9614 -2.0032
    1SAPS  H13Y  117   4.511   3.136   9.012  1.4405 -0.2161 -1.0298
    1SAPS  C314  118   4.512   2.938   8.907 -0.4426  0.7364 -0.1057
    1SAPS  H14X  119   4.522   2.832   8.938  0.6838  1.3086  1.6571
    1SAPS  H14Y  120   4.605   2.960   8.850  0.9607 -1.8244  1.0372
    1SAPS  C315  121   4.402   2.961   8.799  0.3546 -0.2011  0.8487
    1SAPS  H15X  122   4.398   3.066   8.763 -1.3609 -0.8241 -0.9629
    1SAPS  H15Y  123   4.308   2.928   8.847  0.9589  0.4247  2.5144
    1SAPS  C316  124   4.441   2.871   8.690 -0.1236  0.4956  0.6861
    1SAPS  H16X  125   4.475   2.768   8.710 -0.2582  0.3989  0.4148
    1SAPS  H16Y  126   4.529   2.907   8.633  0.0430 -0.5420  0.2682
    1SAPS  C317  127   4.323   2.852   8.594 -0.3380 -0.3014  0.2717
    1SAPS  H17X  128   4.290   2.944   8.540 -0.8405 -1.2409 -1.0773
    1SAPS  H17Y  129   4.232   2.815   8.646 -1.0469 -1.1810 -1.5236
    1SAPS  C318  130   4.335   2.761   8.475 -0.3561 -0.1231  0.1538
    1SAPS  H18X  131   4.246   2.729   8.417 -0.8998 -1.1369  1.5003
    1SAPS  H18Y  132   4.365   2.661   8.514 -2.2021 -1.3963 -1.4305
    1SAPS  H18Z  133   4.408   2.810   8.406 -0.1806 -1.1694 -0.4289
    2SAPS     N  134   1.767   4.725  10.782 -0.3845 -0.3534  0.6209
    2SAPS   HN1  135   1.807   4.653  10.846 -0.1289 -1.1862 -0.4543
    2SAPS   HN2  136   1.685   4.770  10.828 -0.3121 -1.8435  2.3458
    2SAPS   HN3  137   1.727   4.672  10.702 -0.2679 -0.4111  0.5999
    2SAPS   C12  138   1.869   4.825  10.726  0.1276  0.3907 -0.1910
    2SAPS  H12A  139   1.892   4.894  10.806  1.6505  0.4118 -0.6269
    2SAPS   C13  140   2.005   4.764  10.668  0.2539  0.5317  0.3979
    2SAPS  O13A  141   2.030   4.642  10.684  0.0213 -0.0092 -0.8810
    2SAPS  O13B  142   2.095   4.846  10.648  0.3073  0.2466  0.1748
    2SAPS   C11  143   1.796   4.908  10.611 -0.0734  0.6372 -0.6637
    2SAPS  H11A  144   1.777   4.831  10.534  1.0866  0.1711 -0.5022
    2SAPS  H11B  145   1.861   4.975  10.550 -1.1885  0.8327 -1.6656
    2SAPS     P  146   1.690   5.135  10.694  0.0279 -0.0241 -0.0410
    2SAPS   O13  147   1.560   5.160  10.756  0.2682 -0.1347 -0.0202
    2SAPS   O14  148   1.806   5.164  10.777  0.2288 -0.0935 -0.5253
    2SAPS   O12  149   1.685   4.976  10.666  0.1338 -0.2077  0.2572
    2SAPS   O11  150   1.696   5.200  10.546 -0.4210 -0.3715  0.6924
    2SAPS    C1  151   1.574   5.189  10.466  0.0085 -0.5194 -0.3896
    2SAPS    HA  152   1.526   5.089  10.478 -1.3159  0.2825  1.5379
    2SAPS    HB  153   1.494   5.256  10.503  0.4336 -0.1521 -0.1246
    2SAPS    C2  154   1.602   5.213  10.319 -1.2782  0.1276  0.0227
    2SAPS    HS  155   1.679   5.137  10.294 -0.4912  1.1528 -0.8169
    2SAPS   O21  156   1.657   5.350  10.308  0.0759  0.4764 -0.5035
    2SAPS   C21  157   1.742   5.366  10.214 -0.7948 -0.3535 -0.2499
    2SAPS   O22  158   1.783   5.272  10.144 -0.7716  0.0238 -1.4217
    2SAPS   C22  159   1.784   5.518  10.201 -0.0110  0.5204  0.1745
    2SAPS   H2R  160   1.688   5.573  10.186 -0.5964 -0.5010  0.1280
    2SAPS   H2S  161   1.830   5.552  10.296 -2.1349  2.3965  0.6380
    2SAPS    C3  162   1.484   5.207  10.232 -0.1437  0.6906  0.4259
    2SAPS    HX  163   1.434   5.301  10.264 -2.6400 -1.3571  3.0203
    2SAPS    HY  164   1.407   5.137  10.270 -0.2330  0.6648  0.2039
    2SAPS   O31  165   1.520   5.184  10.093  0.6371  0.4285 -0.2869
    2SAPS   C31  166   1.520   5.053  10.052  0.5629  0.7601  0.9648
    2SAPS   O32  167   1.482   4.960  10.119  0.1518  0.1356 -0.6299
    2SAPS   C32  168   1.549   5.047   9.903 -0.6828 -0.7786 -0.6005
    2SAPS   H2X  169   1.640   5.108   9.885 -0.8522 -0.3668 -0.0623
    2SAPS   H2Y  170   1.472   5.102   9.845 -1.0492 -1.0415 -0.3685
    2SAPS   C23  171   1.878   5.551  10.085 -0.9503  1.0847 -0.3012
    2SAPS   H3R  172   1.865   5.656  10.051 -1.2215  0.5702 -1.8311
    2SAPS   H3S  173   1.847   5.483  10.003  0.8610  0.7885 -0.7960
    2SAPS   C24  174   2.022   5.517  10.117  0.4221 -0.3403  0.2187
    2SAPS   H4R  175   2.078   5.500  10.022  0.8355 -2.3397  0.7699
    2SAPS   H4S  176   2.041   5.424  10.175 -0.2071 -0.3103  0.4784
    2SAPS   C25  177   2.085   5.629  10.191 -0.0218 -0.2055  0.0748
    2SAPS   H5R  178   2.073   5.630  10.300  1.2890  0.7597  0.2374
    2SAPS   C26  179   2.141   5.746  10.136  1.7674 -0.6064 -0.7455
    2SAPS   H6R  180   2.190   5.819  10.202  1.4264 -0.3198 -0.8083
    2SAPS   C27  181   2.141   5.784   9.993 -0.8243 -0.0241  0.5128
    2SAPS   H7R  182   2.043   5.757   9.946 -0.6680  1.0705 -0.4990
    2SAPS   H7S  183   2.216   5.724   9.936 -0.3151  0.5730  0.5462
    2SAPS   C28  184   2.171   5.932   9.969 -0.3687 -0.1643 -0.5118
    2SAPS   H8R  185   2.190   5.993  10.058  0.0032 -1.6028  0.4264
    2SAPS   C29  186   2.174   5.985   9.844 -0.3190 -0.3138 -0.3973
    2SAPS   H9R  187   2.194   6.093   9.832 -1.9966 -0.0979 -1.7051
    2SAPS  C210  188   2.163   5.923   9.708 -0.7547 -0.5241 -0.4215
    2SAPS  H10R  189   2.238   5.842   9.694 -0.6782 -0.2070 -2.0993
    2SAPS  H10S  190   2.199   5.994   9.630  1.7510 -1.1707  0.0622
    2SAPS  C211  191   2.032   5.856   9.665 -0.1502  0.2894  0.1023
    2SAPS  H11R  192   2.011   5.766   9.724  0.6353 -0.7924 -1.2316
    2SAPS  C212  193   1.959   5.885   9.555  0.5279 -0.2975 -0.7614
    2SAPS  H12R  194   1.869   5.824   9.537  0.5628 -0.0217 -1.9083
    2SAPS  C213  195   1.984   5.991   9.451  0.0327 -0.3653 -0.4960
    2SAPS  H13R  196   2.077   6.050   9.465 -1.9886  2.8961  0.2512
    2SAPS  H13S  197   1.902   6.064   9.468 -0.0208 -0.2206 -1.3282
    2SAPS  C214  198   1.972   5.915   9.317  0.2472 -0.5237  0.2255
    2SAPS  H14R  199   1.993   5.807   9.319  0.8517 -0.4869 -1.6913
    2SAPS  C215  200   1.935   5.971   9.199  0.8193  0.6131  0.5263
    2SAPS  H15R  201   1.921   5.907   9.111  3.0118 -0.5272  0.9117
    2SAPS  C216  202   1.910   6.111   9.177  0.9127 -0.4018  0.4549
    2SAPS  H16R  203   1.973   6.131   9.088 -1.0826 -0.7045 -1.1061
    2SAPS  H16S  204   1.945   6.173   9.261  0.1677 -2.6181  2.5281
    2SAPS  C217  205   1.758   6.141   9.162  0.6434 -0.5542 -0.3858
    2SAPS  H17R  206   1.740   6.250   9.156  0.4227 -0.6360 -1.2937
    2SAPS  H17S  207   1.709   6.107   9.257  0.6634 -0.8668 -0.4850
    2SAPS  C218  208   1.689   6.071   9.040  0.6691  0.2735 -0.2487
    2SAPS  H18R  209   1.583   6.100   9.054  0.4085 -0.5640 -0.4866
    2SAPS  H18S  210   1.693   5.961   9.027 -2.4558  0.1700 -0.9232
    2SAPS  C219  211   1.749   6.136   8.915  0.7245  0.1835  0.2118
    2SAPS  H19R  212   1.856   6.111   8.925  1.0743  0.7111 -1.7087
    2SAPS  H19S  213   1.739   6.247   8.915 -0.6364  0.0861 -0.4566
    2SAPS  C220  214   1.704   6.085   8.785 -0.2170  0.4472  0.5678
    2SAPS  H20R  215   1.598   6.052   8.790 -0.2511  0.5434  0.4832
    2SAPS  H20S  216   1.767   5.998   8.756 -2.3149 -1.1879  0.6500
    2SAPS  H20T  217   1.717   6.157   8.701 -1.8176  1.2189  0.9539
    2SAPS   C33  218   1.579   4.895   9.866 -0.7363  0.2080 -0.1083
    2SAPS   H3X  219   1.488   4.832   9.859  0.2695 -1.1410 -3.1144
    2SAPS   H3Y  220   1.639   4.840   9.942 -0.9957 -0.6682 -0.5135
    2SAPS   C34  221   1.632   4.861   9.725 -0.2498 -0.7464  0.2393
    2SAPS   H4X  222   1.604   4.755   9.704  2.0054 -1.2650 -0.5230
    2SAPS   H4Y  223   1.743   4.873   9.731 -0.4106  1.0231  0.1322
    2SAPS   C35  224   1.568   4.945   9.611  0.3012  0.0185 -1.1293
    2SAPS   H5X  225   1.578   5.052   9.639 -1.3721 -0.0693 -0.0163
    2SAPS   H5Y  226   1.459   4.925   9.611  0.5431 -1.5285  0.8755
    2SAPS   C36  227   1.622   4.925   9.474 -0.2621 -0.2926 -0.5989
    2SAPS   H6X  228   1.601   4.823   9.434 -0.4371 -1.1406  1.5015
    2SAPS   H6Y  229   1.732   4.942   9.470 -0.3836  0.4209 -1.1343
    2SAPS   C37  230   1.548   5.023   9.381 -0.3666  0.1295 -0.3567
    2SAPS   H7X  231   1.578   5.122   9.420  0.9506 -0.2013 -0.4693
    2SAPS   H7Y  232   1.439   5.007   9.371 -0.1569 -0.1467 -2.7285
    2SAPS   C38  233   1.587   5.007   9.231  0.2558  0.3440 -0.0920
    2SAPS   H8X  234   1.518   5.078   9.182 -0.8102 -0.8649 -0.4052
    2SAPS   H8Y  235   1.559   4.904   9.199 -0.2581  0.4100  0.1254
    2SAPS   C39  236   1.738   5.020   9.210  0.1240  1.1195  0.1457
    2SAPS   H9X  237   1.791   4.930   9.248 -0.2033  0.8922  0.0597
    2SAPS   H9Y  238   1.775   5.109   9.266  2.3234  0.0193  0.5795
    2SAPS  C310  239   1.781   5.047   9.064  0.6942  0.3828  0.7542
    2SAPS  H10X  240   1.743   5.147   9.034  1.7023  0.6216  0.2578
    2SAPS  H10Y  241   1.724   4.972   9.006 -1.3625  2.2867  0.1310
    2SAPS  C311  242   1.931   5.059   9.041 -0.4356 -0.1937  0.0619
    2SAPS  H11X  243   1.986   4.976   9.089  0.0103 -0.6791 -1.2696
    2SAPS  H11Y  244   1.975   5.146   9.094  0.3945 -1.2397  1.1464
    2SAPS  C312  245   1.975   5.068   8.891 -0.1299 -1.2078 -0.1180
    2SAPS  H12X  246   2.080   5.031   8.885 -0.8341 -3.1657 -2.2261
    2SAPS  H12Y  247   1.965   5.173   8.858 -0.3082  0.0445  3.5449
    2SAPS  C313  248   1.904   4.970   8.795 -0.5691  0.6834  0.4865
    2SAPS  H13X  249   1.796   4.992   8.782 -0.6654  0.4201  0.8576
    2SAPS  H13Y  250   1.929   4.868   8.831  1.2086 -0.1468 -2.7147
    2SAPS  C314  251   1.965   4.992   8.654  0.3609  0.1331  0.2588
    2SAPS  H14X  252   2.076   4.991   8.658  0.3384  0.6219  1.1463
    2SAPS  H14Y  253   1.937   5.092   8.613  0.1932  0.6782  1.6485
    2SAPS  C315  254   1.901   4.879   8.562  0.4065  0.0145 -0.0385
    2SAPS  H15X  255   1.918   4.918   8.459  0.4873  0.5729  0.1854
    2SAPS  H15Y  256   1.795   4.870   8.593  0.7516 -1.4588  0.8380
    2SAPS  C316  257   1.970   4.745   8.579  0.3847  1.2109 -0.0437
    2SAPS  H16X  258   1.903   4.666   8.539 -0.1299  0.6444  1.8641
    2SAPS  H16Y  259   1.994   4.718   8.684  1.3890  2.7535  0.1597
    2SAPS  C317  260   2.101   4.738   8.507 -0.2367 -0.7596 -0.1235
    2SAPS  H17X  261   2.177   4.806   8.553 -0.3695  0.0193 -1.0335
    2SAPS  H17Y  262   2.093   4.780   8.405 -0.4529  1.4718  0.7379
    2SAPS  C318  263   2.178   4.604   8.510  0.9240  0.2235 -0.2404
    2SAPS  H18X  264   2.120   4.537   8.443  0.6280 -0.1380  0.3728
    2SAPS  H18Y  265   2.209   4.570   8.611  2.3722  0.8059 -0.4561
    2SAPS  H18Z  266   2.273   4.618   8.455  0.2582  3.1096 -0.8003
    3SAPS     N  267   2.434   0.328  11.102  0.4850 -0.0486  0.0043
    3SAPS   HN1  268   2.364   0.367  11.036  1.1356 -0.3004 -0.8624
    3SAPS   HN2  269   2.473   0.235  11.075  0.9002  0.0284  0.3269
    3SAPS   HN3  270   2.387   0.320  11.194 -0.6778  0.2021 -0.5533
    3SAPS   C12  271   2.551   0.418  11.112  0.5557  0.2340 -0.0360
    3SAPS  H12A  272   2.516   0.507  11.162  0.5986  0.0893  0.2544
    3SAPS   C13  273   2.668   0.367  11.189  0.0102  0.3135  0.5178
    3SAPS  O13A  274   2.659   0.258  11.250 -0.0841  0.3360  0.0509
    3SAPS  O13B  275   2.764   0.444  11.216 -0.0308 -0.2635  0.0027
    3SAPS   C11  276   2.586   0.453  10.965 -0.4316  0.0547 -0.5040
    3SAPS  H11A  277   2.610   0.361  10.907  1.6806  0.3092 -0.0981
    3SAPS  H11B  278   2.679   0.513  10.969 -0.0763 -0.5489  1.0086
    3SAPS     P  279   2.456   0.682  10.910 -0.3660  0.2601  0.0946
    3SAPS   O13  280   2.343   0.709  10.993  0.6355  0.0437 -0.7326
    3SAPS   O14  281   2.587   0.746  10.946  0.1729 -0.1937  0.3065
    3SAPS   O12  282   2.478   0.525  10.901 -0.0307  0.8074  0.6877
    3SAPS   O11  283   2.407   0.720  10.762  0.7450 -0.1975 -0.2045
    3SAPS    C1  284   2.340   0.616  10.689  0.3733  0.4944 -0.3253
    3SAPS    HA  285   2.405   0.527  10.678  0.2549  0.3212  0.3219
    3SAPS    HB  286   2.249   0.573  10.736  0.4715 -0.2098 -0.7609
    3SAPS    C2  287   2.287   0.665  10.550  0.2464  0.3722 -0.2253
    3SAPS    HS  288   2.385   0.673  10.499 -0.6019  1.0775 -1.8216
    3SAPS   O21  289   2.205   0.780  10.572 -0.6554  0.0509  0.8011
    3SAPS   C21  290   2.218   0.864  10.469 -0.3567  0.1268  0.5437
    3SAPS   O22  291   2.298   0.844  10.372  0.8157  0.1449 -0.3679
    3SAPS   C22  292   2.117   0.984  10.478  0.0690 -0.2042 -0.6285
    3SAPS   H2R  293   2.024   0.948  10.529 -0.3712  1.6475 -0.0225
    3SAPS   H2S  294   2.156   1.067  10.540  0.0348 -0.7848  0.1927
    3SAPS    C3  295   2.190   0.554  10.490 -0.1718 -0.0177 -0.1353
    3SAPS    HX  296   2.114   0.542  10.570 -1.2698  2.2228 -0.7753
    3SAPS    HY  297   2.242   0.456  10.486  0.3957  0.2372  0.6382
    3SAPS   O31  298   2.115   0.598  10.379  0.1574  0.0130  0.4908
    3SAPS   C31  299   2.186   0.561  10.269 -0.4054  0.6551 -0.3461
    3SAPS   O32  300   2.285   0.493  10.270 -0.3739  0.9732 -0.1704
    3SAPS   C32  301   2.111   0.594  10.143 -0.6624  0.6041  0.1756
    3SAPS   H2X  302   2.114   0.703  10.123  0.9798  0.4071 -0.8400
    3SAPS   H2Y  303   2.005   0.559  10.149 -1.1612  1.8118 -1.1317
    3SAPS   C23  304   2.086   1.046  10.342  0.1322  0.3885 -0.1462
    3SAPS   H3R  305   2.060   0.956  10.282 -0.7162 -2.0180  3.4768
    3SAPS   H3S  306   2.180   1.091  10.305 -0.2726 -0.8170 -2.8787
    3SAPS   C24  307   1.967   1.140  10.337  0.0195 -0.2828 -0.6608
    3SAPS   H4R  308   1.885   1.081  10.384  1.0892 -1.2864 -0.0019
    3SAPS   H4S  309   1.930   1.162  10.235 -2.5242  3.0426  0.7904
    3SAPS   C25  310   1.994   1.274  10.405 -0.0246 -0.4387  0.2309
    3SAPS   H5R  311   1.985   1.272  10.515 -0.6793  2.0027  0.2783
    3SAPS   C26  312   2.025   1.394  10.357 -0.4752 -0.2365  0.0840
    3SAPS   H6R  313   2.056   1.477  10.423 -1.1407 -0.5726  0.8382
    3SAPS   C27  314   2.045   1.433  10.212 -0.3182  0.3792 -0.6836
    3SAPS   H7R  315   2.056   1.341  10.150 -1.1040  0.4566 -0.9444
    3SAPS   H7S  316   2.142   1.486  10.201  0.1975 -0.2399  0.7182
    3SAPS   C28  317   1.934   1.512  10.152 -0.7640 -0.0778 -1.0670
    3SAPS   H8R  318   1.851   1.547  10.215 -0.1597  1.2063 -0.9551
    3SAPS   C29  319   1.929   1.515  10.016  0.8086  0.0429 -1.0859
    3SAPS   H9R  320   1.852   1.571   9.962  0.6608 -1.3078 -2.3411
    3SAPS  C210  321   2.025   1.460   9.921 -0.4430  0.7748 -0.1559
    3SAPS  H10R  322   2.127   1.467   9.967 -0.5626  1.2688  0.0440
    3SAPS  H10S  323   2.038   1.531   9.837  0.1928  1.5590  0.5761
    3SAPS  C211  324   1.984   1.321   9.870  0.4952  0.2943  0.0068
    3SAPS  H11R  325   1.964   1.267   9.964  1.5319  0.5283  0.3775
    3SAPS  C212  326   1.982   1.273   9.745 -0.5235  0.1648 -0.1234
    3SAPS  H12R  327   1.950   1.169   9.733  1.9759 -0.6604 -0.1307
    3SAPS  C213  328   2.033   1.343   9.622 -0.3192  0.2573 -0.3437
    3SAPS  H13R  329   2.137   1.305   9.607 -0.0504 -0.1589  2.0582
    3SAPS  H13S  330   2.052   1.452   9.636 -0.1634  0.1842  0.0340
    3SAPS  C214  331   1.950   1.326   9.500  0.0341 -0.0806  0.2209
    3SAPS  H14R  332   1.842   1.325   9.520 -0.0644 -1.7775 -0.2392
    3SAPS  C215  333   1.992   1.304   9.373 -0.1076  0.2625 -0.9968
    3SAPS  H15R  334   1.921   1.321   9.292 -1.1549 -1.4694 -0.4771
    3SAPS  C216  335   2.138   1.291   9.324  0.1574 -0.0409 -0.1296
    3SAPS  H16R  336   2.176   1.188   9.342 -0.9742 -0.4538 -0.0692
    3SAPS  H16S  337   2.199   1.363   9.384  0.1707 -1.4590  1.6553
    3SAPS  C217  338   2.155   1.299   9.169  0.0004  0.2194 -0.4014
    3SAPS  H17R  339   2.261   1.313   9.140  0.0778 -0.3492 -0.4091
    3SAPS  H17S  340   2.107   1.379   9.108 -0.5327  1.3141  1.3667
    3SAPS  C218  341   2.101   1.167   9.107 -0.4650 -0.1138  0.3744
    3SAPS  H18R  342   1.997   1.147   9.140 -0.5079  0.8678  0.8875
    3SAPS  H18S  343   2.158   1.077   9.138  0.7706  0.3857 -0.3373
    3SAPS  C219  344   2.116   1.162   8.952  0.1028  0.3188  0.0434
    3SAPS  H19R  345   2.202   1.226   8.922  1.1610 -1.8361 -1.8347
    3SAPS  H19S  346   2.019   1.200   8.913 -0.1718  0.9298  1.2687
    3SAPS  C220  347   2.120   1.023   8.890  0.3734  0.0173 -0.7381
    3SAPS  H20R  348   2.141   1.033   8.781  1.0929  3.8561 -0.3759
    3SAPS  H20S  349   2.046   0.951   8.930  0.2762  1.0736  1.0702
    3SAPS  H20T  350   2.216   0.973   8.918  0.2059  0.0826 -0.0474
    3SAPS   C33  351   2.160   0.504  10.027 -0.4724 -0.1196 -0.0318
    3SAPS   H3X  352   2.134   0.397  10.047 -0.6529 -0.0585  0.0597
    3SAPS   H3Y  353   2.270   0.496  10.020 -0.6775 -1.9948 -2.2028
    3SAPS   C34  354   2.106   0.551   9.887  0.0235 -0.1617  0.4851
    3SAPS   H4X  355   1.998   0.565   9.905 -0.1329 -0.0470 -0.5109
    3SAPS   H4Y  356   2.118   0.470   9.811  0.2841  0.5555 -0.2500
    3SAPS   C35  357   2.184   0.673   9.837  0.2400  0.6079 -0.7368
    3SAPS   H5X  358   2.293   0.652   9.839  0.2516  0.6130 -1.1519
    3SAPS   H5Y  359   2.161   0.756   9.907 -2.5137 -2.5695  2.5280
    3SAPS   C36  360   2.150   0.725   9.696 -0.0786 -0.0676 -0.3524
    3SAPS   H6X  361   2.212   0.816   9.687 -0.6864  0.6471  1.9450
    3SAPS   H6Y  362   2.044   0.758   9.705 -0.9466 -2.4777 -0.9246
    3SAPS   C37  363   2.155   0.633   9.582 -0.3463  0.4179  0.0197
    3SAPS   H7X  364   2.074   0.556   9.580 -0.5066  0.5979 -1.5041
    3SAPS   H7Y  365   2.253   0.582   9.568 -0.8642 -0.1308 -2.0086
    3SAPS   C38  366   2.115   0.689   9.451  0.5558  0.4934 -0.0566
    3SAPS   H8X  367   2.189   0.769   9.428  2.8406 -1.9589 -1.7759
    3SAPS   H8Y  368   2.019   0.743   9.470  0.1947 -0.2013  0.1040
    3SAPS   C39  369   2.123   0.596   9.335 -0.0114  0.2183  0.0389
    3SAPS   H9X  370   2.033   0.533   9.349 -1.3508  2.5697  2.9024
    3SAPS   H9Y  371   2.213   0.530   9.347  0.3002  1.0273  2.7404
    3SAPS  C310  372   2.124   0.662   9.189  0.0919  0.5397  0.3060
    3SAPS  H10X  373   2.226   0.707   9.182 -0.4576  1.8228  0.3855
    3SAPS  H10Y  374   2.047   0.734   9.155  0.3261  0.9957  0.7218
    3SAPS  C311  375   2.116   0.554   9.080 -0.4227 -0.2801  0.1218
    3SAPS  H11X  376   2.012   0.516   9.087 -0.2635 -0.5182  1.4903
    3SAPS  H11Y  377   2.189   0.472   9.097  0.4205  0.5153  0.4202
    3SAPS  C312  378   2.144   0.609   8.935 -0.1984 -0.3127  0.2405
    3SAPS  H12X  379   2.238   0.668   8.931  0.3995 -1.2960 -0.6103
    3SAPS  H12Y  380   2.064   0.683   8.913 -2.0506 -2.5722 -1.0815
    3SAPS  C313  381   2.163   0.491   8.842  0.4338  0.0152 -0.3731
    3SAPS  H13X  382   2.073   0.427   8.852  0.7302 -0.5615 -1.2378
    3SAPS  H13Y  383   2.251   0.440   8.885  1.0740  0.4417 -1.1394
    3SAPS  C314  384   2.169   0.518   8.684  0.9384  0.2950 -0.1280
    3SAPS  H14X  385   2.159   0.414   8.647 -1.9121 -0.3303  1.9702
    3SAPS  H14Y  386   2.268   0.558   8.655 -0.6397  2.7312 -2.5749
    3SAPS  C315  387   2.053   0.594   8.622 -0.1990 -0.1944  0.0884
    3SAPS  H15X  388   2.026   0.690   8.671 -0.1483 -0.5892  0.9079
    3SAPS  H15Y  389   1.959   0.536   8.628  0.9265 -1.9352  3.3011
    3SAPS  C316  390   2.078   0.618   8.472  0.5249  0.3166  0.5643
    3SAPS  H16X  391   2.176   0.668   8.459  1.0702 -1.3469 -2.8815
    3SAPS  H16Y  392   2.000   0.690   8.438  2.1306  1.2479 -1.2982
    3SAPS  C317  393   2.101   0.490   8.391  0.1765 -0.2458 -0.0197
    3SAPS  H17X  394   2.013   0.428   8.419 -0.5401  1.7665  2.5316
    3SAPS  H17Y  395   2.183   0.435   8.442  0.0347  0.7462  1.3203
    3SAPS  C318  396   2.119   0.504   8.240 -0.7566 -0.5418 -0.4375
    3SAPS  H18X  397   2.040   0.565   8.192  0.0127  0.2171 -0.7693
    3SAPS  H18Y  398   2.128   0.404   8.193 -0.0048 -0.3693 -0.6665
    3SAPS  H18Z  399   2.220   0.549   8.237  0.7370 -3.6383 -2.9800
    4SAPS     N  400   4.958   6.454  11.263  0.9025 -0.5923  0.5098
    4SAPS   HN1  401   5.051   6.497  11.244  1.2169 -1.4307  0.0923
    4SAPS   HN2  402   4.958   6.435  11.365  0.4659  2.0204  1.0559
    4SAPS   HN3  403   4.974   6.360  11.222  0.3445 -0.4832  0.0326
    4SAPS   C12  404   4.851   6.537  11.212 -0.1650  0.1789 -0.4263
    4SAPS  H12A  405   4.756   6.486  11.215  0.8724 -1.8457 -0.3603
    4SAPS   C13  406   4.840   6.664  11.292  0.3354 -0.5927 -0.5655
    4SAPS  O13A  407   4.921   6.693  11.387 -0.4469  0.4819  0.2336
    4SAPS  O13B  408   4.747   6.744  11.259  0.4075  0.1655 -0.0072
    4SAPS   C11  409   4.879   6.567  11.063  0.2431 -0.1176  0.0329
    4SAPS  H11A  410   4.979   6.614  11.051  0.3935 -0.2891  0.5582
    4SAPS  H11B  411   4.797   6.626  11.017 -0.2306 -1.4944 -0.9320
    4SAPS     P  412   4.750   6.390  10.912  0.4522  0.3762 -0.2287
    4SAPS   O13  413   4.751   6.246  10.888  0.3644  0.3801 -0.2185
    4SAPS   O14  414   4.628   6.437  10.980 -0.0114 -0.4609 -0.0473
    4SAPS   O12  415   4.880   6.447  10.985 -0.4524  0.2703  0.6121
    4SAPS   O11  416   4.744   6.458  10.767  0.4751  0.1256 -0.0763
    4SAPS    C1  417   4.854   6.494  10.693 -0.0992 -0.3819  0.1314
    4SAPS    HA  418   4.846   6.602  10.670  0.5795 -0.7293 -2.0430
    4SAPS    HB  419   4.946   6.480  10.754  0.0565  1.0545  0.2570
    4SAPS    C2  420   4.877   6.410  10.563 -0.6232  0.0044  1.4644
    4SAPS    HS  421   4.949   6.334  10.599 -0.1540  0.1072  0.7589
    4SAPS   O21  422   4.922   6.499  10.454 -0.1022  0.3347 -0.4006
    4SAPS   C21  423   5.020   6.453  10.379 -0.1312  1.0026  0.6998
    4SAPS   O22  424   5.071   6.340  10.384  0.5257 -0.1741 -0.1100
    4SAPS   C22  425   5.067   6.560  10.278  0.5318 -0.4362  0.9085
    4SAPS   H2R  426   5.008   6.652  10.297 -0.4996 -0.5643 -1.3116
    4SAPS   H2S  427   5.172   6.581  10.306  0.6741  0.1181  0.0272
    4SAPS    C3  428   4.750   6.343  10.517 -0.9403 -0.0361 -0.2189
    4SAPS    HX  429   4.660   6.406  10.504 -0.5088  0.4163 -1.1028
    4SAPS    HY  430   4.721   6.274  10.600 -0.5344 -0.4814 -0.4369
    4SAPS   O31  431   4.773   6.282  10.389  0.5157 -0.1249 -0.4422
    4SAPS   C31  432   4.738   6.151  10.381 -0.7798 -0.1542 -0.1705
    4SAPS   O32  433   4.672   6.091  10.465  0.4266 -0.0294 -0.2884
    4SAPS   C32  434   4.801   6.090  10.262 -0.4932  0.3197  0.7843
    4SAPS   H2X  435   4.900   6.057  10.298 -0.7000 -0.7178  0.4398
    4SAPS   H2Y  436   4.824   6.171  10.189 -0.6269 -0.1913  0.1679
    4SAPS   C23  437   5.045   6.511  10.131  0.0311  0.0303 -0.7853
    4SAPS   H3R  438   5.091   6.411  10.112 -0.5570 -0.0710 -1.7056
    4SAPS   H3S  439   5.106   6.580  10.069  0.6649  0.6763  0.5180
    4SAPS   C24  440   4.901   6.513  10.083 -0.0288 -0.1409  0.2038
    4SAPS   H4R  441   4.838   6.491  10.171 -0.9198  1.3181 -0.0180
    4SAPS   H4S  442   4.860   6.442  10.008 -1.0188 -0.6763  1.2349
    4SAPS   C25  443   4.854   6.656  10.052  0.4338  0.9136  0.2139
    4SAPS   H5R  444   4.844   6.728  10.135  1.4325  0.3057  0.8834
    4SAPS   C26  445   4.817   6.706   9.928  0.8898  0.2099 -0.3782
    4SAPS   H6R  446   4.768   6.804   9.921 -2.8876 -1.3318  1.7102
    4SAPS   C27  447   4.815   6.628   9.799  0.1896  0.2376  0.2255
    4SAPS   H7R  448   4.836   6.520   9.817 -0.3334 -0.7873 -4.1217
    4SAPS   H7S  449   4.898   6.653   9.729  0.3070 -3.4295 -1.1723
    4SAPS   C28  450   4.674   6.632   9.744  0.6341 -0.1273 -0.6183
    4SAPS   H8R  451   4.592   6.631   9.817  1.3532  0.1231  0.2150
    4SAPS   C29  452   4.633   6.616   9.614 -0.6335 -0.2777 -0.9912
    4SAPS   H9R  453   4.525   6.633   9.597 -1.2745  0.2116  2.6365
    4SAPS  C210  454   4.729   6.597   9.500  0.1921  0.1568  0.6824
    4SAPS  H10R  455   4.810   6.522   9.518  0.1314 -0.0292  0.1960
    4SAPS  H10S  456   4.781   6.692   9.479  1.6071 -0.7615 -0.1616
    4SAPS  C211  457   4.658   6.558   9.370  0.0969 -0.5674 -0.1388
    4SAPS  H11R  458   4.549   6.552   9.365  0.1329 -2.6913  0.6249
    4SAPS  C212  459   4.731   6.534   9.260  0.5274  0.3104  0.2503
    4SAPS  H12R  460   4.678   6.503   9.168  2.2352  1.0785 -1.0668
    4SAPS  C213  461   4.883   6.545   9.250 -0.3159 -0.5663  0.2016
    4SAPS  H13R  462   4.927   6.442   9.252  1.7178  0.2599  0.4877
    4SAPS  H13S  463   4.927   6.598   9.337  1.5205  0.3727 -1.2150
    4SAPS  C214  464   4.925   6.613   9.122  0.0995  0.3002 -0.0132
    4SAPS  H14R  465   4.903   6.721   9.111 -0.9381  0.2973  1.6790
    4SAPS  C215  466   4.984   6.554   9.009  0.6877 -0.2996  0.7090
    4SAPS  H15R  467   5.004   6.622   8.925 -2.0576 -0.4381 -0.1363
    4SAPS  C216  468   5.039   6.418   8.990  0.3770  0.4223 -0.8295
    4SAPS  H16R  469   5.028   6.351   9.078 -2.0430  0.6567 -0.8833
    4SAPS  H16S  470   5.146   6.430   8.962  0.1813  0.4979 -1.5573
    4SAPS  C217  471   4.963   6.341   8.878 -0.2636  0.2566  0.1760
    4SAPS  H17R  472   4.865   6.385   8.847 -0.1621 -1.4243 -2.9564
    4SAPS  H17S  473   4.939   6.244   8.925 -0.5663 -0.6285 -1.7030
    4SAPS  C218  474   5.047   6.304   8.762  0.0055  0.2505 -0.0769
    4SAPS  H18R  475   4.999   6.231   8.692  1.8186 -0.6130 -0.4729
    4SAPS  H18S  476   5.134   6.251   8.807  0.9444  0.8677 -1.1081
    4SAPS  C219  477   5.080   6.431   8.676  0.1103  0.3321 -0.3774
    4SAPS  H19R  478   5.127   6.500   8.749  0.8148 -0.0367 -0.4791
    4SAPS  H19S  479   4.984   6.463   8.629  0.1033 -0.2152 -0.7537
    4SAPS  C220  480   5.173   6.407   8.560 -0.3214 -0.0839 -0.6913
    4SAPS  H20R  481   5.116   6.352   8.482 -2.0548 -0.0385  0.4716
    4SAPS  H20S  482   5.266   6.352   8.585  1.6650  2.5430 -1.9061
    4SAPS  H20T  483   5.202   6.498   8.504  3.0282 -1.9866 -2.4075
    4SAPS   C33  484   4.718   5.981  10.191  0.2778 -0.3772 -0.5532
    4SAPS   H3X  485   4.622   6.017  10.148  0.4904 -0.0777 -0.7849
    4SAPS   H3Y  486   4.697   5.902  10.266  0.0235  1.2157  1.1256
    4SAPS   C34  487   4.782   5.908  10.070 -0.5163  0.4755 -0.3822
    4SAPS   H4X  488   4.840   5.825  10.114 -0.8600  0.7131  0.5294
    4SAPS   H4Y  489   4.850   5.970  10.007 -2.3497  0.0912 -2.9336
    4SAPS   C35  490   4.687   5.851   9.966 -0.8277  0.2035  0.9545
    4SAPS   H5X  491   4.658   5.938   9.903 -0.8651  0.9942  2.0210
    4SAPS   H5Y  492   4.600   5.805  10.019 -1.6622 -0.9847 -1.3269
    4SAPS   C36  493   4.770   5.758   9.877  0.1139 -0.0363  0.2456
    4SAPS   H6X  494   4.806   5.677   9.944 -0.2242 -0.4604 -0.0774
    4SAPS   H6Y  495   4.851   5.820   9.835  0.0367 -0.6609 -0.8522
    4SAPS   C37  496   4.667   5.692   9.779 -0.3234 -0.5083 -0.4561
    4SAPS   H7X  497   4.607   5.776   9.738  1.0572  1.6146  1.5954
    4SAPS   H7Y  498   4.604   5.610   9.822 -0.9329 -1.0304 -2.2743
    4SAPS   C38  499   4.742   5.634   9.667  0.0125  0.4488 -0.5578
    4SAPS   H8X  500   4.758   5.527   9.693  0.3397 -0.1295 -2.8701
    4SAPS   H8Y  501   4.836   5.691   9.655  1.3238 -1.2243  1.2108
    4SAPS   C39  502   4.659   5.623   9.531  0.8018 -0.2129 -0.1609
    4SAPS   H9X  503   4.638   5.724   9.488 -1.4451 -1.2027 -1.6112
    4SAPS   H9Y  504   4.573   5.557   9.555  0.1427  0.3165 -0.9746
    4SAPS  C310  505   4.745   5.549   9.432  0.0337  0.9228  0.5737
    4SAPS  H10X  506   4.750   5.441   9.455  1.2685  0.8299 -0.0581
    4SAPS  H10Y  507   4.849   5.586   9.430  1.1761 -1.8944  2.5997
    4SAPS  C311  508   4.695   5.557   9.285 -0.1016  0.4444  0.5142
    4SAPS  H11X  509   4.683   5.663   9.253  2.5415  0.6998  0.0979
    4SAPS  H11Y  510   4.610   5.490   9.258 -0.4757  1.2741 -0.4693
    4SAPS  C312  511   4.807   5.509   9.182  0.2277 -0.0608 -0.5741
    4SAPS  H12X  512   4.847   5.407   9.201 -0.4678 -0.1919  0.2004
    4SAPS  H12Y  513   4.892   5.578   9.199  0.3692 -0.8702  2.5496
    4SAPS  C313  514   4.762   5.523   9.033  0.1292  0.0588 -0.2523
    4SAPS  H13X  515   4.710   5.621   9.018 -0.7267  0.2258  3.0671
    4SAPS  H13Y  516   4.688   5.442   9.015  0.3025 -0.2002  0.2076
    4SAPS  C314  517   4.864   5.495   8.926 -0.6515  0.8179  0.1634
    4SAPS  H14X  518   4.899   5.392   8.948  0.5978  1.3056  0.5507
    4SAPS  H14Y  519   4.957   5.548   8.958 -1.1152  0.8012  1.5940
    4SAPS  C315  520   4.831   5.527   8.781  0.1665 -0.7911  0.2216
    4SAPS  H15X  521   4.922   5.519   8.718 -0.1055 -1.1216 -0.1302
    4SAPS  H15Y  522   4.797   5.631   8.763  0.1563 -1.1632 -2.2534
    4SAPS  C316  523   4.718   5.443   8.716 -0.9780 -0.5953 -0.1378
    4SAPS  H16X  524   4.621   5.482   8.753 -1.2454 -0.2518 -1.1812
    4SAPS  H16Y  525   4.723   5.342   8.763 -2.0771 -0.7669 -0.3845
    4SAPS  C317  526   4.726   5.429   8.570  0.2376 -0.1346  0.2068
    4SAPS  H17X  527   4.808   5.361   8.539  0.1936 -0.5456  0.9736
    4SAPS  H17Y  528   4.740   5.524   8.513  0.0314 -0.4840 -0.4414
    4SAPS  C318  529   4.591   5.382   8.509  0.1193 -0.6311 -0.4750
    4SAPS  H18X  530   4.594   5.379   8.398  0.7484  0.8780 -0.5243
    4SAPS  H18Y  531   4.518   5.461   8.537  0.2392 -0.0880 -1.6473
    4SAPS  H18Z  532   4.558   5.291   8.564  0.0478  0.1456  0.7900
    5SAPS     N  533   4.814   0.247  10.889 -0.7065 -0.2995  0.1776
    5SAPS   HN1  534   4.849   0.177  10.820 -2.0172 -0.4810 -0.3180
    5SAPS   HN2  535   4.759   0.183  10.950 -0.8343 -0.5103 -0.1570
    5SAPS   HN3  536   4.755   0.312  10.834  1.3189 -0.0238 -1.8332
    5SAPS   C12  537   4.923   0.306  10.973 -0.3023  0.6396  0.3065
    5SAPS  H12A  538   4.977   0.377  10.912  0.0248 -0.4645 -0.7236
    5SAPS   C13  539   4.885   0.372  11.107  0.4301  0.2216  0.2480
    5SAPS  O13A  540   4.759   0.385  11.134 -0.9414 -0.1386 -0.3648
    5SAPS  O13B  541   4.972   0.427  11.185  0.7000  0.6578 -0.4664
    5SAPS   C11  542   5.022   0.188  11.009 -0.2086  0.1986 -0.1246
    5SAPS  H11A  543   4.975   0.116  11.079  0.5627  0.8469  1.0836
    5SAPS  H11B  544   5.094   0.244  11.073 -0.1022  0.7691 -0.7282
    5SAPS     P  545   5.226   0.055  10.908 -0.1858  0.1443 -0.1382
    5SAPS   O13  546   5.339   0.149  10.889  0.2353  0.5982  0.5544
    5SAPS   O14  547   5.220  -0.023  11.038 -0.0538  0.4772  0.4679
    5SAPS   O12  548   5.092   0.129  10.901  0.2318  0.0892 -0.3881
    5SAPS   O11  549   5.213  -0.041  10.793 -0.2741  0.3466  0.7589
    5SAPS    C1  550   5.099  -0.045  10.709  0.2862  0.1486  0.0999
    5SAPS    HA  551   5.100  -0.132  10.640 -0.0699  0.6271 -0.5129
    5SAPS    HB  552   5.007  -0.051  10.770  1.2059 -1.1320  1.4607
    5SAPS    C2  553   5.101   0.066  10.606  0.0810 -0.4384 -0.1643
    5SAPS    HS  554   5.080   0.162  10.659 -3.7829  0.8185 -3.4323
    5SAPS   O21  555   4.993   0.038  10.515 -0.0379 -0.7148  0.4133
    5SAPS   C21  556   4.868   0.058  10.551 -0.7233 -0.5312 -0.0552
    5SAPS   O22  557   4.831   0.089  10.666 -0.0725  0.0747 -0.0069
    5SAPS   C22  558   4.784   0.019  10.429 -0.4172  0.0777  0.2141
    5SAPS   H2R  559   4.813   0.092  10.350 -2.2428 -0.2208 -0.8137
    5SAPS   H2S  560   4.803  -0.081  10.384  0.0153  1.5786 -3.3233
    5SAPS    C3  561   5.230   0.072  10.524 -0.2249  0.4699 -0.5162
    5SAPS    HX  562   5.247  -0.025  10.472  3.6909  0.0427  1.2392
    5SAPS    HY  563   5.305   0.068  10.606 -1.6474 -1.6698  0.7603
    5SAPS   O31  564   5.251   0.176  10.434  0.1715 -0.1606 -0.1870
    5SAPS   C31  565   5.354   0.258  10.452  0.9942 -0.4422 -1.0194
    5SAPS   O32  566   5.436   0.255  10.538 -0.6630  0.5137 -0.3531
    5SAPS   C32  567   5.358   0.368  10.350 -0.0574 -0.7066  0.1567
    5SAPS   H2X  568   5.298   0.456  10.381  0.6128  0.3136 -1.2936
    5SAPS   H2Y  569   5.315   0.325  10.257  1.7925  1.8992 -2.0775
    5SAPS   C23  570   4.632   0.030  10.442  0.7869 -0.4284 -0.6918
    5SAPS   H3R  571   4.622   0.085  10.538  2.5425  0.3051 -0.8928
    5SAPS   H3S  572   4.596  -0.073  10.460  3.3830 -1.3001 -0.0999
    5SAPS   C24  573   4.549   0.100  10.336  0.5315  0.3291  0.5828
    5SAPS   H4R  574   4.575   0.207  10.326 -1.8586  0.7458 -3.5555
    5SAPS   H4S  575   4.447   0.113  10.378  0.2903  4.7677 -0.8914
    5SAPS   C25  576   4.549   0.030  10.196 -0.2704  0.9431 -0.6494
    5SAPS   H5R  577   4.572  -0.078  10.203 -0.3158  1.0298  1.3481
    5SAPS   C26  578   4.524   0.082  10.077  0.2032 -0.1116  0.4233
    5SAPS   H6R  579   4.529   0.006   9.997  1.9006 -0.7184  1.0578
    5SAPS   C27  580   4.489   0.218  10.025 -0.7326 -0.2028 -0.7453
    5SAPS   H7R  581   4.505   0.285  10.112  2.7566 -1.3232 -0.3823
    5SAPS   H7S  582   4.387   0.228   9.981 -0.7699 -2.2856 -1.2129
    5SAPS   C28  583   4.593   0.262   9.929  0.7676  0.4278 -0.0301
    5SAPS   H8R  584   4.669   0.334   9.965  0.8330 -0.1476  1.0205
    5SAPS   C29  585   4.594   0.239   9.793 -0.3145 -0.3543  0.2990
    5SAPS   H9R  586   4.680   0.282   9.740  0.8603 -1.5401  1.1525
    5SAPS  C210  587   4.494   0.166   9.708 -0.5279 -0.3464  0.5881
    5SAPS  H10R  588   4.409   0.137   9.774  0.0366 -3.1586  0.2061
    5SAPS  H10S  589   4.544   0.074   9.671  1.1566  1.2296 -1.2865
    5SAPS  C211  590   4.453   0.257   9.597  0.8220  0.3806  0.0794
    5SAPS  H11R  591   4.413   0.355   9.629  0.1321 -0.4296  1.7831
    5SAPS  C212  592   4.449   0.223   9.467 -0.2275  0.0801  0.0477
    5SAPS  H12R  593   4.421   0.303   9.398 -1.7794  1.2267  1.8999
    5SAPS  C213  594   4.476   0.094   9.396 -0.3927 -0.0200 -0.2674
    5SAPS  H13R  595   4.397   0.076   9.320  0.6954  0.5528 -1.5567
    5SAPS  H13S  596   4.461   0.014   9.473  2.0033 -0.0424  0.2486
    5SAPS  C214  597   4.608   0.102   9.332 -0.1211 -0.4731  0.2580
    5SAPS  H14R  598   4.687   0.081   9.406  0.4468  2.2712  0.5685
    5SAPS  C215  599   4.627   0.130   9.201  0.3193  0.7742 -0.5866
    5SAPS  H15R  600   4.733   0.135   9.170  0.6434 -0.3753  0.2534
    5SAPS  C216  601   4.528   0.150   9.092 -0.4370 -0.3054  0.2160
    5SAPS  H16R  602   4.432   0.184   9.136 -0.1528  0.1874  0.4676
    5SAPS  H16S  603   4.511   0.063   9.025 -1.8931 -2.7327  3.4639
    5SAPS  C217  604   4.595   0.265   9.003  0.0246 -0.4495 -0.3212
    5SAPS  H17R  605   4.684   0.216   8.959  0.6941 -0.5257  1.0664
    5SAPS  H17S  606   4.642   0.349   9.057  0.3622 -0.5824 -0.4050
    5SAPS  C218  607   4.496   0.317   8.899 -0.6596 -0.5143 -0.6407
    5SAPS  H18R  608   4.442   0.239   8.840 -1.5956  0.5349 -1.2101
    5SAPS  H18S  609   4.427   0.395   8.938 -0.3065 -1.4965  2.1822
    5SAPS  C219  610   4.574   0.420   8.809  0.2482 -0.7699 -0.5822
    5SAPS  H19R  611   4.676   0.383   8.786  1.0247  1.7558 -1.5277
    5SAPS  H19S  612   4.601   0.506   8.874  1.3232 -1.2461 -0.3751
    5SAPS  C220  613   4.503   0.458   8.679 -0.2923  0.3757 -0.5526
    5SAPS  H20R  614   4.517   0.373   8.608 -0.1727 -1.0150  1.0843
    5SAPS  H20S  615   4.542   0.556   8.644 -0.5082 -0.1701 -2.4550
    5SAPS  H20T  616   4.397   0.474   8.711 -0.2747  0.5181 -0.5643
    5SAPS   C33  617   5.501   0.414  10.315 -0.0921  0.0637  0.4394
    5SAPS   H3X  618   5.550   0.444  10.410 -1.0947 -0.8463  1.2533
    5SAPS   H3Y  619   5.490   0.503  10.249  1.2334  0.5913  0.8992
    5SAPS   C34  620   5.603   0.326  10.236 -0.4114  0.2506  0.6484
    5SAPS   H4X  621   5.617   0.235  10.298 -2.9957 -0.8079 -0.1692
    5SAPS   H4Y  622   5.697   0.383  10.222 -0.3722 -0.4786 -3.1758
    5SAPS   C35  623   5.559   0.285  10.094 -0.1480 -0.7216  0.1052
    5SAPS   H5X  624   5.465   0.225  10.094 -0.2005 -0.6480 -0.4982
    5SAPS   H5Y  625   5.633   0.224  10.038 -2.3517 -2.1528 -1.4334
    5SAPS   C36  626   5.528   0.403  10.001  0.0629 -0.9953  0.0282
    5SAPS   H6X  627   5.603   0.484  10.011 -1.7638  0.7393  0.0813
    5SAPS   H6Y  628   5.427   0.441  10.027  1.1580  1.9393  0.3006
    5SAPS   C37  629   5.534   0.370   9.850  0.0763  0.3849 -0.0772
    5SAPS   H7X  630   5.498   0.462   9.799 -0.9732  0.3019  0.4759
    5SAPS   H7Y  631   5.445   0.304   9.837 -0.8943  1.0832  2.4173
    5SAPS   C38  632   5.666   0.310   9.806  0.1311  0.1058  0.3543
    5SAPS   H8X  633   5.672   0.206   9.844 -0.5270  0.5379  1.7107
    5SAPS   H8Y  634   5.744   0.370   9.858  0.3767  0.9694 -0.9617
    5SAPS   C39  635   5.692   0.313   9.654 -0.4641  0.4295 -0.5714
    5SAPS   H9X  636   5.797   0.289   9.628 -0.8967 -0.8855 -1.1859
    5SAPS   H9Y  637   5.674   0.416   9.617 -0.7932  1.0733  1.2697
    5SAPS  C310  638   5.583   0.229   9.579 -0.2054 -0.2116 -0.2566
    5SAPS  H10X  639   5.487   0.249   9.632 -0.0685 -0.0941 -0.0484
    5SAPS  H10Y  640   5.598   0.119   9.589 -0.8118 -0.4289 -1.4785
    5SAPS  C311  641   5.552   0.251   9.431 -0.3311 -0.4196  1.8015
    5SAPS  H11X  642   5.649   0.238   9.379 -1.4422 -0.6870 -0.3274
    5SAPS  H11Y  643   5.502   0.346   9.401 -0.7480 -1.0591  0.4103
    5SAPS  C312  644   5.467   0.127   9.371  0.0944 -0.0535 -0.1895
    5SAPS  H12X  645   5.365   0.141   9.412  0.3950  0.8863  0.2541
    5SAPS  H12Y  646   5.521   0.037   9.407  0.4149 -0.0683 -0.6846
    5SAPS  C313  647   5.481   0.135   9.222  0.0522 -0.3345  0.5238
    5SAPS  H13X  648   5.588   0.133   9.192  0.1855  0.1769  0.9359
    5SAPS  H13Y  649   5.444   0.232   9.182  2.8478 -0.0087 -1.5269
    5SAPS  C314  650   5.400   0.030   9.153  0.3010 -0.1062 -0.0469
    5SAPS  H14X  651   5.294   0.039   9.186  1.2178 -0.0878  3.3277
    5SAPS  H14Y  652   5.420  -0.075   9.184 -0.0118  0.2765  1.5730
    5SAPS  C315  653   5.399   0.031   8.994 -0.0722  0.1748  0.3754
    5SAPS  H15X  654   5.409   0.136   8.960 -0.1950 -0.1298 -0.6501
    5SAPS  H15Y  655   5.295   0.001   8.971 -2.1113  1.9675  5.9163
    5SAPS  C316  656   5.509  -0.048   8.916  0.2671  0.2106  0.5226
    5SAPS  H16X  657   5.488  -0.155   8.937  1.7779 -0.1296  0.4155
    5SAPS  H16Y  658   5.611  -0.006   8.930 -0.3496  2.4240 -1.0543
    5SAPS  C317  659   5.485  -0.051   8.765 -0.6531  0.7657 -0.0788
    5SAPS  H17X  660   5.504   0.053   8.729 -0.9614  1.3572  1.3784
    5SAPS  H17Y  661   5.384  -0.087   8.735  0.0585 -0.7465 -0.7066
    5SAPS  C318  662   5.583  -0.157   8.689  0.0029  0.3774 -0.1554
    5SAPS  H18X  663   5.585  -0.257   8.737  1.6540 -0.1443 -1.2191
    5SAPS  H18Y  664   5.685  -0.116   8.705  0.1943 -0.3597  0.5640
    5SAPS  H18Z  665   5.558  -0.155   8.581  1.9341  2.6566 -0.6633
    6SAPS     N  666   0.913   5.650  11.075 -0.2385 -0.0924  0.0365
    6SAPS   HN1  667   0.843   5.720  11.109 -0.2899 -0.0694 -0.1179
    6SAPS   HN2  668   1.002   5.701  11.059 -1.0752  1.0175 -1.2952
    6SAPS   HN3  669   0.875   5.626  10.982 -0.5185  0.2287  0.0621
    6SAPS   C12  670   0.926   5.526  11.150  0.2392 -0.3815  0.1290
    6SAPS  H12A  671   1.015   5.548  11.208  0.7925  3.1148 -1.7947
    6SAPS   C13  672   0.807   5.488  11.239 -0.1933 -0.2442  0.3720
    6SAPS  O13A  673   0.715   5.574  11.261 -0.6163  0.3353  0.2833
    6SAPS  O13B  674   0.825   5.394  11.319 -0.1699  0.9750 -0.2148
    6SAPS   C11  675   0.957   5.409  11.052 -0.1694 -0.5676 -0.0591
    6SAPS  H11A  676   0.858   5.376  11.012  0.2425  1.0723 -2.7129
    6SAPS  H11B  677   0.995   5.330  11.119  0.2473  0.7315  1.2894
    6SAPS     P  678   1.065   5.324  10.841  0.0884 -0.0524 -0.4971
    6SAPS   O13  679   1.161   5.218  10.887  1.3411  0.1395  0.4843
    6SAPS   O14  680   0.930   5.269  10.817  1.0241 -0.0107 -0.0394
    6SAPS   O12  681   1.048   5.444  10.941  0.2345 -0.2537  0.4971
    6SAPS   O11  682   1.118   5.397  10.713  0.4967 -0.0008  0.3101
    6SAPS    C1  683   1.062   5.515  10.659 -0.0415 -0.0840 -0.0431
    6SAPS    HA  684   1.040   5.578  10.748 -1.5258 -0.6574  0.0225
    6SAPS    HB  685   1.142   5.569  10.605  1.6501 -1.8264  0.6234
    6SAPS    C2  686   0.943   5.491  10.558 -0.4563 -0.1004 -0.2690
    6SAPS    HS  687   0.842   5.479  10.603  0.3480 -0.4163  1.5166
    6SAPS   O21  688   0.974   5.377  10.482 -0.7537  0.4059  0.3605
    6SAPS   C21  689   0.875   5.329  10.412  0.3229  0.2029  0.7026
    6SAPS   O22  690   0.759   5.367  10.428 -0.1542 -0.0528 -0.2088
    6SAPS   C22  691   0.910   5.226  10.309  0.2614  0.8706 -0.2754
    6SAPS   H2R  692   1.000   5.170  10.342 -1.0647 -1.3751 -0.3167
    6SAPS   H2S  693   0.817   5.167  10.306 -0.0938  1.2203  2.1216
    6SAPS    C3  694   0.924   5.619  10.473 -0.5294  0.8441  0.1016
    6SAPS    HX  695   0.896   5.696  10.547 -2.0981 -1.1675  1.6993
    6SAPS    HY  696   0.841   5.604  10.401  1.7284 -1.5653 -2.2284
    6SAPS   O31  697   1.055   5.662  10.411 -0.2705 -0.0619 -0.3170
    6SAPS   C31  698   1.073   5.623  10.288 -0.1462 -0.1055 -0.0245
    6SAPS   O32  699   0.989   5.576  10.215 -0.0144 -0.4253  0.3122
    6SAPS   C32  700   1.219   5.640  10.241  1.1305  0.0917 -0.7795
    6SAPS   H2X  701   1.288   5.593  10.315 -0.7371 -0.9017  0.4131
    6SAPS   H2Y  702   1.237   5.749  10.239 -2.0411  0.7051 -1.3712
    6SAPS   C23  703   0.925   5.289  10.173  0.5707 -0.4596  0.2693
    6SAPS   H3R  704   1.026   5.334  10.180 -0.1522  1.0239  2.6172
    6SAPS   H3S  705   0.845   5.366  10.164 -2.8675 -3.7346  0.5405
    6SAPS   C24  706   0.927   5.188  10.054  0.8468 -0.4126  0.0001
    6SAPS   H4R  707   0.937   5.251   9.963 -0.4680 -0.0095  0.1161
    6SAPS   H4S  708   0.824   5.148  10.043  1.1750 -1.1626 -0.4500
    6SAPS   C25  709   1.033   5.078  10.062  0.6193  0.0252 -0.3819
    6SAPS   H5R  710   1.025   5.012  10.149 -1.3503  0.0536 -0.4847
    6SAPS   C26  711   1.144   5.068   9.987 -0.3534 -0.1807  0.3273
    6SAPS   H6R  712   1.211   4.981   9.994  2.0924  1.5711  0.2852
    6SAPS   C27  713   1.181   5.170   9.878  0.4456  0.5893 -0.4088
    6SAPS   H7R  714   1.289   5.197   9.879  0.8336 -0.8363  0.6493
    6SAPS   H7S  715   1.137   5.269   9.899 -3.2197 -0.8791 -0.4191
    6SAPS   C28  716   1.146   5.119   9.739  0.1176  0.0368  0.5083
    6SAPS   H8R  717   1.082   5.031   9.722 -0.4336  0.5494 -0.1827
    6SAPS   C29  718   1.183   5.182   9.623 -0.2660 -0.5013  0.1886
    6SAPS   H9R  719   1.155   5.133   9.529 -4.3243 -1.2657  1.5665
    6SAPS  C210  720   1.264   5.307   9.612 -0.1401 -0.0473  0.5271
    6SAPS  H10R  721   1.371   5.286   9.588  0.3058  1.1353  1.3339
    6SAPS  H10S  722   1.267   5.368   9.705 -1.2947  1.2087 -0.2283
    6SAPS  C211  723   1.209   5.406   9.510  0.2082  0.1999  0.4839
    6SAPS  H11R  724   1.148   5.488   9.551 -0.5108  0.1543 -0.4671
    6SAPS  C212  725   1.220   5.397   9.376 -0.4319  0.0493 -0.9840
    6SAPS  H12R  726   1.179   5.479   9.315 -0.2842  0.7129 -0.1970
    6SAPS  C213  727   1.295   5.287   9.299 -0.5348 -0.6866  0.0920
    6SAPS  H13R  728   1.222   5.210   9.268  0.7388 -1.3115 -1.5039
    6SAPS  H13S  729   1.379   5.236   9.350 -0.5546  0.4901  1.3580
    6SAPS  C214  730   1.372   5.363   9.191 -0.4554  0.7290  0.4360
    6SAPS  H14R  731   1.445   5.431   9.236 -0.1095  0.1979  0.6914
    6SAPS  C215  732   1.369   5.347   9.054 -0.2615 -0.6986 -0.3850
    6SAPS  H15R  733   1.431   5.413   8.992  0.2362 -0.3809  0.4318
    6SAPS  C216  734   1.280   5.252   8.981 -0.8672  0.3177  0.0768
    6SAPS  H16R  735   1.230   5.308   8.899 -1.2394  0.6644  0.5358
    6SAPS  H16S  736   1.197   5.207   9.039 -0.3539 -1.5381 -0.5744
    6SAPS  C217  737   1.373   5.141   8.914  0.1854  0.2479 -0.2762
    6SAPS  H17R  738   1.396   5.065   8.992 -1.0978  0.5270  0.4076
    6SAPS  H17S  739   1.471   5.188   8.891  0.1128  0.5401  0.0001
    6SAPS  C218  740   1.308   5.083   8.789 -0.3922 -0.0543  0.3482
    6SAPS  H18R  741   1.277   5.167   8.724 -3.1313 -1.1708  0.0935
    6SAPS  H18S  742   1.217   5.032   8.827 -1.0875  0.0439 -1.1349
    6SAPS  C219  743   1.393   4.977   8.711  0.6602 -0.9872  1.0620
    6SAPS  H19R  744   1.474   5.034   8.660 -0.3278 -0.2587  0.2542
    6SAPS  H19S  745   1.320   4.925   8.646 -0.4407 -1.4337  2.5951
    6SAPS  C220  746   1.459   4.877   8.801 -0.8880  0.2079 -0.2101
    6SAPS  H20R  747   1.399   4.838   8.885 -2.4573 -0.4839 -1.6065
    6SAPS  H20S  748   1.549   4.926   8.845 -1.3656  0.2003  0.7901
    6SAPS  H20T  749   1.504   4.798   8.737  0.5060 -0.5835  1.6650
    6SAPS   C33  750   1.243   5.589  10.096 -0.5488 -0.4907 -0.2041
    6SAPS   H3X  751   1.184   5.643  10.020  0.2280 -0.0791 -0.5175
    6SAPS   H3Y  752   1.222   5.482  10.074 -2.2119  0.2117 -2.3170
    6SAPS   C34  753   1.387   5.630  10.055  0.2535 -0.1822 -0.5131
    6SAPS   H4X  754   1.461   5.583  10.123  0.0336 -0.6640 -0.6042
    6SAPS   H4Y  755   1.399   5.740  10.066 -1.6996 -0.0796  1.1005
    6SAPS   C35  756   1.428   5.592   9.914 -0.0367 -0.6458 -0.1587
    6SAPS   H5X  757   1.403   5.667   9.836 -4.6676  0.4880  2.0647
    6SAPS   H5Y  758   1.361   5.516   9.868  0.9555  0.1052 -3.1340
    6SAPS   C36  759   1.565   5.529   9.900 -0.2177 -0.0522 -0.0719
    6SAPS   H6X  760   1.574   5.457   9.985  0.0910 -0.7311 -0.6739
    6SAPS   H6Y  761   1.632   5.614   9.925  0.1342 -0.4984  0.5638
    6SAPS   C37  762   1.597   5.467   9.761 -0.0536 -0.0408 -0.4783
    6SAPS   H7X  763   1.556   5.540   9.689 -0.6911  1.3480  1.2265
    6SAPS   H7Y  764   1.526   5.383   9.750 -0.9954  0.5852  0.6064
    6SAPS   C38  765   1.739   5.435   9.740 -0.9150  0.5094 -0.4526
    6SAPS   H8X  766   1.765   5.363   9.821 -3.7107  0.2074  0.2535
    6SAPS   H8Y  767   1.814   5.516   9.749 -2.2235  1.7357 -0.3112
    6SAPS   C39  768   1.762   5.358   9.613  0.8250 -0.3160  0.1133
    6SAPS   H9X  769   1.691   5.273   9.601  1.4784 -0.6781 -1.3380
    6SAPS   H9Y  770   1.864   5.315   9.606  0.1922 -1.8688  0.0721
    6SAPS  C310  771   1.751   5.456   9.495 -0.2796 -0.7613 -0.0856
    6SAPS  H10X  772   1.815   5.545   9.513 -0.5318 -0.8721  1.4387
    6SAPS  H10Y  773   1.649   5.500   9.485 -0.2937 -1.1479 -2.2970
    6SAPS  C311  774   1.801   5.406   9.359 -0.2582  0.2080  0.2938
    6SAPS  H11X  775   1.736   5.321   9.330 -0.9724  0.8653 -0.0549
    6SAPS  H11Y  776   1.907   5.376   9.369 -0.0998  0.4848 -0.5093
    6SAPS  C312  777   1.774   5.513   9.248 -0.2712 -0.6528  0.8192
    6SAPS  H12X  778   1.852   5.591   9.262  1.4935 -2.1342 -0.2823
    6SAPS  H12Y  779   1.670   5.550   9.262 -0.3129 -0.4473  0.0384
    6SAPS  C313  780   1.794   5.452   9.106  0.3873 -0.2530 -0.5462
    6SAPS  H13X  781   1.731   5.361   9.095 -1.4075  0.6534  1.6339
    6SAPS  H13Y  782   1.901   5.422   9.102  0.2535 -0.7393 -0.5464
    6SAPS  C314  783   1.768   5.558   8.995 -0.6882  0.1890  0.7175
    6SAPS  H14X  784   1.839   5.644   9.001 -2.7940  2.0142  0.6185
    6SAPS  H14Y  785   1.666   5.600   9.000 -1.3796 -1.2694 -0.3967
    6SAPS  C315  786   1.785   5.495   8.852  0.0827 -0.3249 -0.3408
    6SAPS  H15X  787   1.885   5.453   8.834  0.3247 -0.6044  1.4219
    6SAPS  H15Y  788   1.787   5.577   8.777 -0.4183 -0.8639 -0.9494
    6SAPS  C316  789   1.673   5.394   8.823 -0.6102  0.3511  0.0822
    6SAPS  H16X  790   1.567   5.421   8.842 -0.2639  2.0512 -0.2817
    6SAPS  H16Y  791   1.682   5.297   8.877  1.9493 -0.4700 -1.6107
    6SAPS  C317  792   1.695   5.350   8.675 -0.7624  0.1407 -0.1459
    6SAPS  H17X  793   1.651   5.248   8.673 -1.7032  0.5086  0.5304
    6SAPS  H17Y  794   1.804   5.345   8.656 -1.1462 -2.5308 -2.1512
    6SAPS  C318  795   1.641   5.438   8.564  0.1596 -0.1335 -0.0230
    6SAPS  H18X  796   1.705   5.528   8.553 -0.0404  0.6651  3.8088
    6SAPS  H18Y  797   1.538   5.471   8.586  1.0206  2.7664  0.0216
    6SAPS  H18Z  798   1.634   5.378   8.471 -0.7638  1.5190 -1.0465
    7SAPS     N  799   4.403   6.303  11.001 -0.8252 -0.4405 -0.5941
    7SAPS   HN1  800   4.494   6.352  11.010 -1.1822  0.0788  0.3452
    7SAPS   HN2  801   4.324   6.368  10.983  0.4702  1.1117 -0.8528
    7SAPS   HN3  802   4.390   6.245  11.086  2.0261 -0.9566 -0.4190
    7SAPS   C12  803   4.423   6.212  10.882 -0.1684 -0.1988 -0.1902
    7SAPS  H12A  804   4.525   6.175  10.876  0.2240  0.5490  1.3361
    7SAPS   C13  805   4.327   6.092  10.867 -0.2999 -0.3047 -0.7656
    7SAPS  O13A  806   4.229   6.078  10.947  0.8308  0.0360 -0.3708
    7SAPS  O13B  807   4.353   5.999  10.789 -0.2195  0.5629  0.4679
    7SAPS   C11  808   4.413   6.289  10.748  0.5549 -0.1976  0.5210
    7SAPS  H11A  809   4.416   6.222  10.659 -1.7047  1.0327 -0.5752
    7SAPS  H11B  810   4.493   6.365  10.742  2.9143 -2.6099 -0.3167
    7SAPS     P  811   4.261   6.508  10.759 -0.1436 -0.0632 -0.3293
    7SAPS   O13  812   4.261   6.518  10.906  0.2801  0.2083 -0.3441
    7SAPS   O14  813   4.370   6.578  10.686  0.4777 -0.5189 -0.0995
    7SAPS   O12  814   4.279   6.353  10.737 -0.1181  0.4129  0.1373
    7SAPS   O11  815   4.121   6.535  10.694  0.1133  0.6859  0.5053
    7SAPS    C1  816   4.065   6.475  10.579  0.7524 -0.4423  0.3770
    7SAPS    HA  817   4.108   6.374  10.560  1.1211  0.0288 -1.4971
    7SAPS    HB  818   3.957   6.464  10.606 -0.2891  0.9530 -2.7521
    7SAPS    C2  819   4.072   6.564  10.455 -0.1365 -0.7982 -0.4216
    7SAPS    HS  820   4.022   6.509  10.372 -3.9181 -0.7607  1.5889
    7SAPS   O21  821   4.210   6.585  10.433  0.2151  0.0275  0.3619
    7SAPS   C21  822   4.278   6.486  10.370  0.1869  0.0825 -0.3113
    7SAPS   O22  823   4.224   6.378  10.347  0.2550  0.1565 -0.3094
    7SAPS   C22  824   4.435   6.521  10.346  0.9931  0.6726  0.1994
    7SAPS   H2R  825   4.434   6.625  10.307 -0.3669  1.3543  1.8990
    7SAPS   H2S  826   4.472   6.527  10.450  0.6817  2.0230  0.2466
    7SAPS    C3  827   3.993   6.693  10.477 -0.5188  0.0255  0.2639
    7SAPS    HX  828   4.048   6.741  10.560  1.2278  0.3852 -1.0263
    7SAPS    HY  829   3.887   6.681  10.508 -1.1867  3.7504 -0.1228
    7SAPS   O31  830   3.980   6.769  10.352 -0.1165  0.3403 -0.8057
    7SAPS   C31  831   4.079   6.842  10.320 -0.6425  0.8835  0.5481
    7SAPS   O32  832   4.168   6.884  10.396  0.2375 -0.1153 -0.1124
    7SAPS   C32  833   4.069   6.875  10.172  0.1393  0.8471 -0.2048
    7SAPS   H2X  834   4.094   6.982  10.157 -0.4003  0.9976 -0.0575
    7SAPS   H2Y  835   3.963   6.864  10.138  0.0306  0.3240  0.2809
    7SAPS   C23  836   4.518   6.414  10.268  0.5028  0.1238  0.2558
    7SAPS   H3R  837   4.529   6.314  10.315  0.0242  0.4687  1.1232
    7SAPS   H3S  838   4.621   6.455  10.255 -0.1641  1.1502 -2.4982
    7SAPS   C24  839   4.479   6.398  10.114  0.0639  0.0013  0.4309
    7SAPS   H4R  840   4.489   6.493  10.058  0.7427  0.4692  1.3244
    7SAPS   H4S  841   4.378   6.352  10.112  1.1585 -2.9048  3.2616
    7SAPS   C25  842   4.564   6.287  10.056  0.4796 -0.1402 -0.2525
    7SAPS   H5R  843   4.658   6.266  10.109 -1.2279 -2.5786  2.0778
    7SAPS   C26  844   4.550   6.221   9.939  0.6691 -0.3023 -0.0034
    7SAPS   H6R  845   4.622   6.146   9.902 -0.0059 -1.3967  0.8351
    7SAPS   C27  846   4.444   6.252   9.836  0.3970 -0.0387 -0.1927
    7SAPS   H7R  847   4.387   6.342   9.865 -0.1039 -0.7022  0.9529
    7SAPS   H7S  848   4.356   6.186   9.853 -0.8661  1.3984 -0.9584
    7SAPS   C28  849   4.492   6.263   9.692 -0.1384 -0.5604 -0.2081
    7SAPS   H8R  850   4.594   6.298   9.673 -0.6905  1.1644 -0.1178
    7SAPS   C29  851   4.409   6.235   9.588 -0.1375  0.1432  0.0154
    7SAPS   H9R  852   4.438   6.258   9.485 -1.4749  0.5314 -0.2897
    7SAPS  C210  853   4.271   6.187   9.603  0.3461  0.6579  0.4173
    7SAPS  H10R  854   4.202   6.251   9.544 -0.1427  0.2708  0.5641
    7SAPS  H10S  855   4.237   6.212   9.706 -1.7247  1.2151 -0.3459
    7SAPS  C211  856   4.236   6.045   9.587 -0.4717 -0.5087 -0.1086
    7SAPS  H11R  857   4.222   5.984   9.678 -2.0588 -0.4224 -0.2764
    7SAPS  C212  858   4.223   5.986   9.466  0.6067  0.0392  0.2757
    7SAPS  H12R  859   4.182   5.885   9.477  1.9955 -0.4901  0.6862
    7SAPS  C213  860   4.243   6.042   9.333  0.3020 -0.2894  0.0327
    7SAPS  H13R  861   4.347   6.031   9.296 -0.6065  0.6998 -3.1900
    7SAPS  H13S  862   4.221   6.150   9.344 -1.6869 -0.6872  0.3781
    7SAPS  C214  863   4.149   5.988   9.229  0.1250  0.3510  0.7900
    7SAPS  H14R  864   4.082   5.906   9.259 -0.3542  0.2809 -0.4489
    7SAPS  C215  865   4.150   6.019   9.098  0.2822 -0.2551 -0.2947
    7SAPS  H15R  866   4.084   5.967   9.027  1.5410 -0.1197 -1.6133
    7SAPS  C216  867   4.241   6.123   9.034 -0.0482  0.9058  0.4865
    7SAPS  H16R  868   4.281   6.073   8.943  1.5349 -0.1083  1.6915
    7SAPS  H16S  869   4.329   6.146   9.097  2.5685  0.9958 -2.8978
    7SAPS  C217  870   4.174   6.256   8.985  0.0335  0.3402 -0.1422
    7SAPS  H17R  871   4.264   6.316   8.960  0.5219  0.0472  0.8703
    7SAPS  H17S  872   4.110   6.300   9.065 -0.6638 -0.7995 -0.0495
    7SAPS  C218  873   4.076   6.245   8.865 -0.0471 -0.5121  0.4168
    7SAPS  H18R  874   3.977   6.206   8.895 -0.9473  0.5089 -1.0997
    7SAPS  H18S  875   4.116   6.177   8.786 -1.8570 -0.0288 -0.9795
    7SAPS  C219  876   4.044   6.378   8.788  0.1196 -0.0941  0.2616
    7SAPS  H19R  877   4.132   6.415   8.730  1.6259 -2.1122  1.1559
    7SAPS  H19S  878   4.019   6.452   8.867 -2.5905 -0.4174 -0.1884
    7SAPS  C220  879   3.923   6.357   8.695 -0.8116 -0.2389  0.2250
    7SAPS  H20R  880   3.839   6.333   8.764  1.0924  3.4974  4.2850
    7SAPS  H20S  881   3.951   6.281   8.619 -0.6660  0.8328 -0.8070
    7SAPS  H20T  882   3.885   6.450   8.649  0.1505  0.1615  0.2264
    7SAPS   C33  883   4.167   6.797  10.078 -0.0071 -0.0658  0.4253
    7SAPS   H3X  884   4.270   6.790  10.119  0.1900 -0.9940 -0.1892
    7SAPS   H3Y  885   4.169   6.862   9.988 -0.3750 -2.7447 -1.6535
    7SAPS   C34  886   4.111   6.654  10.053  0.3893  0.0472  0.2193
    7SAPS   H4X  887   4.005   6.667  10.022 -0.1889 -0.9933  1.6176
    7SAPS   H4Y  888   4.112   6.588  10.142  4.4278 -1.8389 -0.9645
    7SAPS   C35  889   4.188   6.581   9.942 -0.2578 -0.0143 -0.6260
    7SAPS   H5X  890   4.141   6.481   9.946 -1.3602  0.5153  0.5325
    7SAPS   H5Y  891   4.298   6.585   9.957 -0.2842  1.3800 -0.6632
    7SAPS   C36  892   4.171   6.650   9.807  0.3772  0.1822  0.0820
    7SAPS   H6X  893   4.188   6.760   9.815  1.3217  0.0804 -0.4141
    7SAPS   H6Y  894   4.065   6.633   9.777 -0.2366  0.3566  1.9777
    7SAPS   C37  895   4.267   6.597   9.708 -0.8998 -0.7991  0.2917
    7SAPS   H7X  896   4.259   6.486   9.708  2.2860 -1.1316  1.7856
    7SAPS   H7Y  897   4.372   6.624   9.729 -1.5530  1.6212  0.7504
    7SAPS   C38  898   4.232   6.645   9.566  0.4210 -0.1372  0.1485
    7SAPS   H8X  899   4.258   6.750   9.541 -0.3863  0.2739  0.9435
    7SAPS   H8Y  900   4.121   6.641   9.562  0.4577 -0.5482 -0.5830
    7SAPS   C39  901   4.279   6.541   9.466  0.4519  0.2693 -0.5875
    7SAPS   H9X  902   4.205   6.458   9.466  0.4569  0.1594 -3.3853
    7SAPS   H9Y  903   4.382   6.512   9.494 -0.0231 -0.8872  0.0313
    7SAPS  C310  904   4.294   6.590   9.322 -0.1703 -0.2107 -0.3516
    7SAPS  H10X  905   4.367   6.523   9.273 -1.0457 -2.3667  1.1619
    7SAPS  H10Y  906   4.335   6.692   9.340  1.0265 -1.0342  1.9374
    7SAPS  C311  907   4.164   6.591   9.236 -0.1927  0.3283 -0.3679
    7SAPS  H11X  908   4.101   6.671   9.280  1.0499  1.2199 -0.1324
    7SAPS  H11Y  909   4.121   6.491   9.253 -1.8299  0.8918 -1.0129
    7SAPS  C312  910   4.188   6.617   9.087  0.4419  0.0836 -0.4959
    7SAPS  H12X  911   4.089   6.610   9.037  0.1794 -0.6182  0.1070
    7SAPS  H12Y  912   4.267   6.551   9.047 -0.8080 -0.6192 -1.9248
    7SAPS  C313  913   4.236   6.764   9.052 -0.4110  0.6325  0.1022
    7SAPS  H13X  914   4.331   6.780   9.107  0.9044  1.2127 -2.1895
    7SAPS  H13Y  915   4.158   6.833   9.091 -0.4292  0.9847 -0.5433
    7SAPS  C314  916   4.248   6.794   8.907 -0.2178 -0.1030  0.3456
    7SAPS  H14X  917   4.273   6.901   8.892  0.8468 -0.5383 -1.2976
    7SAPS  H14Y  918   4.160   6.758   8.849  0.6379 -2.6486  0.4808
    7SAPS  C315  919   4.365   6.710   8.850 -0.4207  0.3227 -0.2791
    7SAPS  H15X  920   4.337   6.603   8.843  1.7998 -0.2907 -0.3020
    7SAPS  H15Y  921   4.452   6.708   8.919 -1.1616  1.4314  0.7618
    7SAPS  C316  922   4.408   6.754   8.715  0.1147 -0.3164  0.3194
    7SAPS  H16X  923   4.444   6.859   8.725 -0.3087 -0.0695 -0.5839
    7SAPS  H16Y  924   4.318   6.744   8.651  0.1177 -2.3194  0.5780
    7SAPS  C317  925   4.520   6.667   8.661  0.5876  0.1134  0.8355
    7SAPS  H17X  926   4.533   6.667   8.551 -1.0208  0.8310  0.6069
    7SAPS  H17Y  927   4.502   6.560   8.683  2.6168 -0.3435  0.4814
    7SAPS  C318  928   4.657   6.690   8.732  0.5815 -0.5578  0.2537
    7SAPS  H18X  929   4.735   6.656   8.660  1.8971 -0.2001  1.4625
    7SAPS  H18Y  930   4.664   6.631   8.825 -0.3383 -0.2046  0.5623
    7SAPS  H18Z  931   4.669   6.798   8.752 -1.3849 -0.3286  0.3823
    8SAPS     N  932   0.341   1.750  10.999  0.4589 -0.0517 -0.2429
    8SAPS   HN1  933   0.334   1.649  11.023  0.9498  0.4183  2.1949
    8SAPS   HN2  934   0.376   1.759  10.901 -1.1909 -1.0483 -0.9577
    8SAPS   HN3  935   0.422   1.785  11.054  1.3637  0.6370 -1.9388
    8SAPS   C12  936   0.214   1.825  11.028 -0.4445 -0.6139  0.2547
    8SAPS  H12A  937   0.151   1.819  10.941 -0.8902 -2.1304  0.6493
    8SAPS   C13  938   0.138   1.769  11.147  0.4222  0.0696  0.0187
    8SAPS  O13A  939   0.201   1.693  11.229  0.5097 -0.3024  0.6222
    8SAPS  O13B  940   0.019   1.797  11.168 -0.1266  0.6185  0.3772
    8SAPS   C11  941   0.236   1.975  11.054 -0.4917 -0.4218 -0.1511
    8SAPS  H11A  942   0.298   1.983  11.146  0.5953 -0.8979 -0.8234
    8SAPS  H11B  943   0.142   2.034  11.065  0.7525  1.6271  0.1237
    8SAPS     P  944   0.287   2.167  10.871  0.2385  0.4034  0.2628
    8SAPS   O13  945   0.212   2.263  10.954 -0.4827 -0.5923 -0.3414
    8SAPS   O14  946   0.419   2.209  10.812  0.4617  0.0305 -0.6532
    8SAPS   O12  947   0.325   2.039  10.959 -0.1619 -0.5414 -0.5781
    8SAPS   O11  948   0.193   2.105  10.763 -0.0481 -0.0889 -0.3013
    8SAPS    C1  949   0.235   2.012  10.663  1.3708  0.4102 -0.4998
    8SAPS    HA  950   0.332   1.960  10.677 -0.1237 -2.7239 -0.8891
    8SAPS    HB  951   0.151   1.940  10.651  0.0991  1.6513  0.6968
    8SAPS    C2  952   0.239   2.078  10.520 -0.1456 -0.3400 -0.4336
    8SAPS    HS  953   0.307   2.165  10.534 -1.2187  0.6864 -1.4119
    8SAPS   O21  954   0.113   2.133  10.483  0.3933 -0.1331 -0.5046
    8SAPS   C21  955   0.114   2.230  10.394  0.4959  0.3913 -0.8031
    8SAPS   O22  956   0.212   2.285  10.354  0.5698 -0.3583 -0.2048
    8SAPS   C22  957  -0.033   2.257  10.338 -0.2208 -0.1287 -0.1637
    8SAPS   H2R  958  -0.103   2.196  10.399 -0.2600  1.3204  1.2963
    8SAPS   H2S  959  -0.069   2.359  10.363 -3.5947 -1.8195  2.6119
    8SAPS    C3  960   0.302   1.987  10.404 -0.3285 -0.2699 -0.4459
    8SAPS    HX  961   0.223   1.916  10.374  0.6501 -0.7286 -2.0568
    8SAPS    HY  962   0.385   1.930  10.451  0.1575 -1.1085 -2.2575
    8SAPS   O31  963   0.343   2.051  10.288  0.1769 -0.0116  0.4608
    8SAPS   C31  964   0.448   2.136  10.289  0.5950 -0.4183  0.1337
    8SAPS   O32  965   0.508   2.161  10.392  0.5475 -0.3194  0.0284
    8SAPS   C32  966   0.476   2.190  10.150 -0.1256 -0.3066 -0.2246
    8SAPS   H2X  967   0.391   2.235  10.095  1.0191 -0.8372 -2.5270
    8SAPS   H2Y  968   0.510   2.108  10.083  0.1161  1.7972 -2.8568
    8SAPS   C23  969  -0.052   2.237  10.188 -0.4919 -0.1535 -0.2032
    8SAPS   H3R  970   0.003   2.314  10.130  1.9345 -1.9612 -0.4714
    8SAPS   H3S  971  -0.161   2.244  10.169 -0.5641  0.4847  0.4173
    8SAPS   C24  972  -0.025   2.091  10.142  0.1498  0.3700 -0.4994
    8SAPS   H4R  973  -0.085   2.023  10.207  0.4307  0.6727  0.0818
    8SAPS   H4S  974   0.080   2.058  10.154 -0.7405 -2.6922 -0.1682
    8SAPS   C25  975  -0.065   2.063   9.997 -0.1707 -0.8610  0.8371
    8SAPS   H5R  976  -0.159   2.007   9.990 -1.2230  0.9058  0.4418
    8SAPS   C26  977   0.000   2.112   9.888  0.5091 -0.2702  0.4226
    8SAPS   H6R  978  -0.032   2.081   9.787  0.9635 -0.3154  0.2888
    8SAPS   C27  979   0.130   2.191   9.890 -0.2139 -0.3480  0.1904
    8SAPS   H7R  980   0.152   2.256   9.977  0.2918  0.2620 -0.3860
    8SAPS   H7S  981   0.107   2.247   9.797 -1.8931 -0.0804  0.7199
    8SAPS   C28  982   0.257   2.121   9.871  1.0351  1.0390  0.3758
    8SAPS   H8R  983   0.274   2.037   9.940  1.7231 -0.0716 -1.0842
    8SAPS   C29  984   0.340   2.139   9.770 -0.2884 -0.7119  0.0047
    8SAPS   H9R  985   0.429   2.074   9.767  0.2903  0.0422  0.6112
    8SAPS  C210  986   0.340   2.249   9.669  0.3729 -0.2090  0.7266
    8SAPS  H10R  987   0.384   2.334   9.725  0.6137  0.5672 -0.6004
    8SAPS  H10S  988   0.241   2.282   9.630  0.2455 -0.0279  1.1933
    8SAPS  C211  989   0.426   2.224   9.544 -0.0315  0.0040  0.3900
    8SAPS  H11R  990   0.536   2.219   9.557  0.0389 -3.4261 -0.5057
    8SAPS  C212  991   0.394   2.215   9.414  0.1824  0.2700 -0.9311
    8SAPS  H12R  992   0.474   2.207   9.338 -0.0337 -0.4133 -1.0931
    8SAPS  C213  993   0.257   2.214   9.364 -0.0106 -0.2353  0.1872
    8SAPS  H13R  994   0.262   2.264   9.266  2.1483 -0.0765  0.3288
    8SAPS  H13S  995   0.194   2.284   9.423 -1.1381  0.1473 -1.4161
    8SAPS  C214  996   0.199   2.082   9.336  0.0893 -0.1982  0.2185
    8SAPS  H14R  997   0.187   2.018   9.425 -3.1588 -1.2311 -0.8186
    8SAPS  C215  998   0.162   2.032   9.218 -0.2945 -0.4676 -0.1935
    8SAPS  H15R  999   0.105   1.938   9.216 -3.1624  1.0670  1.6443
    8SAPS  C216 1000   0.168   2.099   9.078  0.1068 -0.3094 -0.3246
    8SAPS  H16R 1001   0.167   2.019   9.002 -1.0979 -0.2464 -0.4021
    8SAPS  H16S 1002   0.268   2.142   9.058  0.4203 -1.3081 -0.9664
    8SAPS  C217 1003   0.057   2.205   9.049  1.0913  0.8781  0.5369
    8SAPS  H17R 1004   0.033   2.256   9.145  1.4324  1.9271  0.0858
    8SAPS  H17S 1005  -0.040   2.156   9.028  0.6219  1.5641  1.0184
    8SAPS  C218 1006   0.085   2.310   8.945 -0.5344 -0.6716  0.2505
    8SAPS  H18R 1007   0.184   2.345   8.981 -0.1690 -0.9712 -0.4591
    8SAPS  H18S 1008   0.007   2.389   8.943 -0.9245 -1.0226  1.0786
    8SAPS  C219 1009   0.101   2.267   8.805  0.3240  0.6013 -0.1054
    8SAPS  H19R 1010   0.002   2.227   8.776  0.2751 -0.8741  1.9248
    8SAPS  H19S 1011   0.174   2.184   8.799  0.4160  0.7462 -1.3486
    8SAPS  C220 1012   0.166   2.374   8.715  0.2764  0.3600  0.6945
    8SAPS  H20R 1013   0.088   2.452   8.700  0.6146  0.3330 -1.5499
    8SAPS  H20S 1014   0.179   2.335   8.612 -3.4699 -2.2792  1.0095
    8SAPS  H20T 1015   0.253   2.425   8.760  1.6974  1.1261 -2.6319
    8SAPS   C33 1016   0.591   2.296  10.160  0.0071 -0.1076  1.1468
    8SAPS   H3X 1017   0.676   2.263  10.224  0.3340 -0.0905  0.7303
    8SAPS   H3Y 1018   0.559   2.388  10.213  2.0347  0.1083  2.1111
    8SAPS   C34 1019   0.625   2.358  10.017 -0.7962 -0.0062 -0.1124
    8SAPS   H4X 1020   0.692   2.444  10.038  0.1944 -0.5768 -0.8259
    8SAPS   H4Y 1021   0.534   2.384   9.958  0.4240  0.2833 -1.9344
    8SAPS   C35 1022   0.692   2.257   9.914 -0.3051 -0.0789  0.1208
    8SAPS   H5X 1023   0.633   2.163   9.909  0.0819 -0.2551 -1.5658
    8SAPS   H5Y 1024   0.791   2.233   9.959  0.6246  0.8801 -1.3427
    8SAPS   C36 1025   0.711   2.315   9.778 -0.1832  0.1655  0.5239
    8SAPS   H6X 1026   0.617   2.319   9.720 -0.1560  1.3074  0.5382
    8SAPS   H6Y 1027   0.771   2.244   9.717 -2.1343  0.2067 -1.5684
    8SAPS   C37 1028   0.779   2.454   9.773  0.2453 -0.8591 -0.0677
    8SAPS   H7X 1029   0.865   2.470   9.842 -0.2441  1.4239  0.1060
    8SAPS   H7Y 1030   0.697   2.521   9.807  0.3934 -1.2329  1.0737
    8SAPS   C38 1031   0.827   2.504   9.639 -0.4908 -0.5543  0.1757
    8SAPS   H8X 1032   0.919   2.447   9.612  0.2565 -0.0718  1.6389
    8SAPS   H8Y 1033   0.858   2.610   9.636 -2.3412  0.0370 -3.1578
    8SAPS   C39 1034   0.710   2.506   9.532  0.0574 -0.1246  0.2798
    8SAPS   H9X 1035   0.635   2.586   9.551  0.7429  0.5400  0.2556
    8SAPS   H9Y 1036   0.665   2.407   9.511 -0.8969  0.5543 -0.9572
    8SAPS  C310 1037   0.768   2.544   9.395 -0.1408 -0.6507  0.4322
    8SAPS  H10X 1038   0.839   2.466   9.361  0.6917  0.5952 -0.7777
    8SAPS  H10Y 1039   0.822   2.639   9.416 -1.2123  0.3501 -1.0870
    8SAPS  C311 1040   0.653   2.570   9.296 -0.3574 -0.0863 -0.2869
    8SAPS  H11X 1041   0.580   2.630   9.355 -1.6760 -0.8469 -1.1190
    8SAPS  H11Y 1042   0.587   2.485   9.269 -0.6228 -0.2689  0.8599
    8SAPS  C312 1043   0.695   2.648   9.174 -0.0673 -0.1934  0.8682
    8SAPS  H12X 1044   0.737   2.742   9.214 -0.0054 -0.2023  0.8252
    8SAPS  H12Y 1045   0.604   2.670   9.115  0.3033 -3.2735 -1.0888
    8SAPS  C313 1046   0.802   2.574   9.088 -0.3208  0.1737  0.5139
    8SAPS  H13X 1047   0.755   2.480   9.049  1.8732 -0.9153  0.3506
    8SAPS  H13Y 1048   0.879   2.537   9.159  0.3862 -0.0086 -0.3315
    8SAPS  C314 1049   0.873   2.641   8.973 -0.0176  0.5477 -0.0407
    8SAPS  H14X 1050   0.958   2.581   8.933  0.6319  1.9351 -0.8432
    8SAPS  H14Y 1051   0.927   2.727   9.017  2.0643 -0.5037 -0.4226
    8SAPS  C315 1052   0.787   2.708   8.852 -0.1077 -0.3828 -0.1563
    8SAPS  H15X 1053   0.729   2.783   8.908  1.1727 -1.1730  2.3861
    8SAPS  H15Y 1054   0.719   2.625   8.821 -0.1210 -0.9617  1.3591
    8SAPS  C316 1055   0.862   2.756   8.726 -0.2687  0.6334 -0.2753
    8SAPS  H16X 1056   0.922   2.673   8.683  1.4848  1.9209 -0.4140
    8SAPS  H16Y 1057   0.942   2.830   8.743 -0.1486  0.9562 -2.0015
    8SAPS  C317 1058   0.767   2.814   8.624  0.1413  0.5189  0.1002
    8SAPS  H17X 1059   0.714   2.902   8.666 -0.0382  0.7545 -0.6063
    8SAPS  H17Y 1060   0.696   2.729   8.617  1.3721 -0.3950 -2.7898
    8SAPS  C318 1061   0.848   2.843   8.504 -0.2081 -0.7010  0.5234
    8SAPS  H18X 1062   0.917   2.760   8.479 -0.0024  0.0228 -1.4946
    8SAPS  H18Y 1063   0.909   2.935   8.520 -2.1512  0.5501  1.1502
    8SAPS  H18Z 1064   0.786   2.856   8.413  1.2756 -0.6587 -0.5107
    9SAPS     N 1065   4.682   4.749   6.023 -0.5580  0.4021  0.0329
    9SAPS   HN1 1066   4.587   4.711   6.006  0.1630 -1.6984  0.3765
    9SAPS   HN2 1067   4.664   4.800   6.112  1.0262  0.3282  0.4285
    9SAPS   HN3 1068   4.715   4.817   5.953 -0.1593  0.1261 -0.0527
    9SAPS   C12 1069   4.793   4.645   6.047 -0.0241 -0.2454 -0.2246
    9SAPS  H12A 1070   4.779   4.565   5.975  0.6814 -1.1960  0.6603
    9SAPS   C13 1071   4.933   4.702   6.023 -0.2351  0.2081  0.6618
    9SAPS  O13A 1072   4.950   4.825   6.004  0.1358 -0.5224  0.1744
    9SAPS  O13B 1073   5.039   4.632   6.033  0.2764  0.4943 -0.6032
    9SAPS   C11 1074   4.768   4.586   6.192  0.6465  0.1834  0.1991
    9SAPS  H11A 1075   4.750   4.671   6.261 -2.3461  0.7061 -1.0598
    9SAPS  H11B 1076   4.854   4.524   6.226  0.5435  1.4092  3.0335
    9SAPS     P 1077   4.657   4.352   6.194  0.5797 -0.2265  0.2438
    9SAPS   O13 1078   4.520   4.310   6.230 -0.4072  0.2253  0.4424
    9SAPS   O14 1079   4.719   4.306   6.067 -0.1306 -0.3736 -0.1761
    9SAPS   O12 1080   4.648   4.512   6.189  0.2949  0.1498 -0.3844
    9SAPS   O11 1081   4.764   4.315   6.302 -0.1653  0.4995 -0.3942
    9SAPS    C1 1082   4.737   4.348   6.437  0.2465  0.3527 -0.2504
    9SAPS    HA 1083   4.826   4.352   6.503 -1.4258 -2.0206  2.3416
    9SAPS    HB 1084   4.694   4.451   6.438  0.3677  0.4101 -0.5541
    9SAPS    C2 1085   4.636   4.249   6.510  0.0474  0.1964  0.1901
    9SAPS    HS 1086   4.545   4.229   6.450 -0.5055  0.0508  1.0681
    9SAPS   O21 1087   4.601   4.302   6.642  0.2833  0.9233 -0.1197
    9SAPS   C21 1088   4.538   4.416   6.635  0.3291  0.0022  0.7049
    9SAPS   O22 1089   4.491   4.462   6.528  0.0643  0.3920 -0.0835
    9SAPS   C22 1090   4.537   4.486   6.762  0.1360 -0.0702 -0.1897
    9SAPS   H2R 1091   4.547   4.596   6.749  2.2696 -0.4049 -2.1820
    9SAPS   H2S 1092   4.445   4.464   6.820  0.6393 -0.7588  0.3671
    9SAPS    C3 1093   4.703   4.109   6.530  0.7142  0.3801 -0.6978
    9SAPS    HX 1094   4.797   4.133   6.584 -1.8275  3.0665  3.0221
    9SAPS    HY 1095   4.723   4.057   6.434 -0.0701 -0.5928 -0.3508
    9SAPS   O31 1096   4.621   4.022   6.616 -0.5578 -0.5955  0.5641
    9SAPS   C31 1097   4.519   3.963   6.559 -0.7445 -0.5624 -0.0344
    9SAPS   O32 1098   4.476   3.991   6.450  0.2179 -0.2949 -0.4516
    9SAPS   C32 1099   4.465   3.846   6.642 -0.2857  0.0830  0.1110
    9SAPS   H2X 1100   4.549   3.776   6.658 -0.8004 -0.4350  0.6328
    9SAPS   H2Y 1101   4.402   3.785   6.574  0.0676  0.7783 -0.8602
    9SAPS   C23 1102   4.656   4.437   6.859  0.5720  0.0997  1.3260
    9SAPS   H3R 1103   4.751   4.469   6.811 -0.4227 -0.8336 -1.5019
    9SAPS   H3S 1104   4.652   4.327   6.873  0.3959 -0.1109 -0.1658
    9SAPS   C24 1105   4.644   4.529   6.981 -0.3684  0.8770 -0.5363
    9SAPS   H4R 1106   4.542   4.528   7.025 -0.7890  1.6309 -1.4591
    9SAPS   H4S 1107   4.655   4.636   6.952  0.3450  1.5248  1.8713
    9SAPS   C25 1108   4.760   4.497   7.075  0.4194 -0.6090  0.1915
    9SAPS   H5R 1109   4.760   4.391   7.106 -2.1849 -0.5382  0.6990
    9SAPS   C26 1110   4.847   4.582   7.138  0.4965  0.1562  0.1337
    9SAPS   H6R 1111   4.917   4.534   7.208  0.7146  1.7174  1.0356
    9SAPS   C27 1112   4.846   4.732   7.115 -0.6584 -0.8003 -0.1713
    9SAPS   H7R 1113   4.810   4.791   7.202  0.9676  0.2558 -0.1596
    9SAPS   H7S 1114   4.783   4.759   7.028  0.1806 -0.6862 -0.7530
    9SAPS   C28 1115   4.987   4.777   7.084 -0.7866 -0.0288  0.8302
    9SAPS   H8R 1116   5.066   4.714   7.128  0.1052 -1.1104 -2.0790
    9SAPS   C29 1117   5.021   4.880   7.007  0.5474  0.0797  0.4498
    9SAPS   H9R 1118   5.125   4.916   7.004  0.0567  1.7969  2.0151
    9SAPS  C210 1119   4.909   4.963   6.944  0.1641 -0.2033  0.3414
    9SAPS  H10R 1120   4.837   4.986   7.025  0.4532  2.6501 -0.1154
    9SAPS  H10S 1121   4.852   4.912   6.863 -0.3830 -0.5666  0.9395
    9SAPS  C211 1122   4.971   5.094   6.896  0.2557  0.2438  0.6118
    9SAPS  H11R 1123   5.038   5.081   6.809 -0.6750 -0.0099 -0.0832
    9SAPS  C212 1124   4.944   5.215   6.939 -0.3905  0.3058  0.3640
    9SAPS  H12R 1125   4.986   5.303   6.889  0.9556  0.7232  2.1367
    9SAPS  C213 1126   4.849   5.255   7.050  0.7270 -0.2283 -0.1895
    9SAPS  H13R 1127   4.754   5.200   7.033  0.1062 -0.6612  3.7374
    9SAPS  H13S 1128   4.821   5.363   7.048  2.6925  0.3256 -0.2085
    9SAPS  C214 1129   4.895   5.225   7.194 -0.2702 -0.0345 -0.1935
    9SAPS  H14R 1130   5.003   5.207   7.189  0.0036  1.2070  0.6973
    9SAPS  C215 1131   4.832   5.218   7.312  0.5958  0.2231 -0.0832
    9SAPS  H15R 1132   4.883   5.204   7.408  0.1343 -2.6920 -0.1782
    9SAPS  C216 1133   4.683   5.238   7.331 -1.2420  0.0018  0.3528
    9SAPS  H16R 1134   4.645   5.208   7.432  2.8847 -1.0240  1.8174
    9SAPS  H16S 1135   4.626   5.186   7.251  2.6819 -1.0298 -2.0237
    9SAPS  C217 1136   4.664   5.393   7.317  0.4489 -0.1499 -0.1403
    9SAPS  H17R 1137   4.672   5.431   7.213  2.0584  0.1946  0.0803
    9SAPS  H17S 1138   4.742   5.451   7.371  0.4172  1.1466 -1.4436
    9SAPS  C218 1139   4.524   5.426   7.372 -0.0769 -0.2306  0.6076
    9SAPS  H18R 1140   4.537   5.408   7.481  2.0046 -0.1378  0.4074
    9SAPS  H18S 1141   4.448   5.353   7.335  0.7968 -0.2182 -1.3221
    9SAPS  C219 1142   4.474   5.571   7.346 -0.3273 -0.0907  0.0807
    9SAPS  H19R 1143   4.499   5.602   7.243 -1.2698  0.5717  0.0430
    9SAPS  H19S 1144   4.529   5.637   7.417 -1.0725  1.7944 -1.0428
    9SAPS  C220 1145   4.322   5.591   7.367 -0.4387  1.0754 -0.2740
    9SAPS  H20R 1146   4.283   5.554   7.464  1.2429  0.7159  0.2817
    9SAPS  H20S 1147   4.277   5.530   7.285 -2.3574  1.9892  0.0348
    9SAPS  H20T 1148   4.291   5.698   7.354 -0.3391  1.2011  0.5187
    9SAPS   C33 1149   4.398   3.887   6.767 -0.2772 -0.0264  0.2761
    9SAPS   H3X 1150   4.335   3.811   6.817 -0.7195  1.0678  1.4628
    9SAPS   H3Y 1151   4.329   3.971   6.742  0.3019 -0.2878 -2.5023
    9SAPS   C34 1152   4.488   3.928   6.886 -0.5566 -0.3191 -0.0972
    9SAPS   H4X 1153   4.585   3.965   6.847 -0.2688 -0.6537  0.2786
    9SAPS   H4Y 1154   4.509   3.838   6.948 -2.1429  0.6844  2.0471
    9SAPS   C35 1155   4.432   4.049   6.958  0.1413  0.5495  0.0855
    9SAPS   H5X 1156   4.323   4.043   6.981 -0.2069  1.6806 -1.1312
    9SAPS   H5Y 1157   4.444   4.139   6.895  1.4906  1.6127  1.7672
    9SAPS   C36 1158   4.505   4.083   7.086  0.6640 -0.0595 -0.0559
    9SAPS   H6X 1159   4.612   4.092   7.058  0.9353 -0.0067  0.9788
    9SAPS   H6Y 1160   4.493   4.004   7.163 -0.5007 -1.0139 -1.1619
    9SAPS   C37 1161   4.462   4.212   7.151  0.5697  0.2056 -0.3228
    9SAPS   H7X 1162   4.356   4.230   7.124  0.8286  0.4016 -1.2885
    9SAPS   H7Y 1163   4.525   4.300   7.123 -1.3693  2.7263  2.6124
    9SAPS   C38 1164   4.464   4.220   7.301  0.7525  0.5067 -0.6389
    9SAPS   H8X 1165   4.566   4.197   7.338  0.0422 -0.3840  0.8301
    9SAPS   H8Y 1166   4.414   4.131   7.345  0.8852 -0.2324 -1.9241
    9SAPS   C39 1167   4.411   4.353   7.366 -0.0820  0.1947 -0.3578
    9SAPS   H9X 1168   4.305   4.372   7.339 -1.2636 -1.5629  2.5870
    9SAPS   H9Y 1169   4.470   4.442   7.334 -0.7311 -0.1311 -2.6789
    9SAPS  C310 1170   4.408   4.341   7.519  0.4349 -0.7173 -0.0330
    9SAPS  H10X 1171   4.345   4.252   7.543  0.9471 -0.7906  1.1026
    9SAPS  H10Y 1172   4.350   4.429   7.554 -3.0969 -1.8646 -2.3699
    9SAPS  C311 1173   4.548   4.332   7.584 -0.2272  0.0536 -0.2127
    9SAPS  H11X 1174   4.622   4.406   7.548 -1.3355  2.7585  2.6166
    9SAPS  H11Y 1175   4.590   4.237   7.545 -1.4896  0.1424 -1.9052
    9SAPS  C312 1176   4.541   4.339   7.734  0.3752  0.3972  0.2903
    9SAPS  H12X 1177   4.495   4.243   7.766 -0.3980  0.1214 -1.5371
    9SAPS  H12Y 1178   4.471   4.418   7.767  0.3545  0.8945 -0.9265
    9SAPS  C313 1179   4.677   4.358   7.799 -0.5219 -0.1107 -0.0441
    9SAPS  H13X 1180   4.729   4.440   7.746 -0.0204 -0.7730 -0.5885
    9SAPS  H13Y 1181   4.744   4.270   7.795 -2.4066 -1.8094  2.2001
    9SAPS  C314 1182   4.654   4.408   7.947  0.5453  0.1997 -0.5556
    9SAPS  H14X 1183   4.594   4.327   7.994  0.4861  0.5972  0.0631
    9SAPS  H14Y 1184   4.586   4.494   7.963 -0.4364 -0.8033  0.9912
    9SAPS  C315 1185   4.790   4.440   8.013  0.0656 -0.5247 -0.7468
    9SAPS  H15X 1186   4.844   4.516   7.953 -0.5318 -1.1280 -2.0793
    9SAPS  H15Y 1187   4.848   4.344   8.016 -0.7072 -1.0082 -1.0093
    9SAPS  C316 1188   4.803   4.499   8.153  0.3423  0.8168 -0.3426
    9SAPS  H16X 1189   4.758   4.441   8.235  0.1037  0.6805 -0.5712
    9SAPS  H16Y 1190   4.748   4.595   8.161  0.0166  0.5077  1.4307
    9SAPS  C317 1191   4.945   4.515   8.208 -0.2642  0.2981 -0.0141
    9SAPS  H17X 1192   4.992   4.603   8.158 -2.5588  2.4982  1.4751
    9SAPS  H17Y 1193   5.009   4.426   8.188  0.2159  0.5046  0.5971
    9SAPS  C318 1194   4.964   4.546   8.358  0.1915 -0.8069  0.0066
    9SAPS  H18X 1195   4.904   4.632   8.395  1.0022 -0.7095  1.1372
    9SAPS  H18Y 1196   5.073   4.562   8.372 -0.0512 -0.8372  2.2749
    9SAPS  H18Z 1197   4.942   4.461   8.426  0.1581  1.3575  2.8680
   10SAPS     N 1198   2.736   3.853   6.199 -0.9852  0.3781  0.2572
   10SAPS   HN1 1199   2.781   3.865   6.293  1.0673  0.5221 -0.6844
   10SAPS   HN2 1200   2.709   3.946   6.160  1.3049  0.9781 -0.0630
   10SAPS   HN3 1201   2.660   3.783   6.192 -1.2674  0.5239  1.6002
   10SAPS   C12 1202   2.857   3.811   6.122 -1.1325 -0.7861 -0.1042
   10SAPS  H12A 1203   2.865   3.704   6.133 -3.5984 -0.8210  2.7908
   10SAPS   C13 1204   2.858   3.845   5.972  0.2931  0.3392  0.1887
   10SAPS  O13A 1205   2.764   3.911   5.921  0.3890 -0.4184  0.3634
   10SAPS  O13B 1206   2.969   3.830   5.910 -0.4264 -0.1332  0.4447
   10SAPS   C11 1207   2.984   3.878   6.191  0.2789  0.3006 -0.1533
   10SAPS  H11A 1208   2.970   3.987   6.176 -3.9685 -0.0486 -0.0013
   10SAPS  H11B 1209   3.079   3.857   6.137  0.6364 -0.9064  0.8701
   10SAPS     P 1210   3.067   3.732   6.386 -0.0538  0.0714  0.1033
   10SAPS   O13 1211   2.989   3.607   6.387 -0.2694 -0.5306  0.0562
   10SAPS   O14 1212   3.200   3.732   6.332  0.2051  0.1402  0.9074
   10SAPS   O12 1213   2.979   3.857   6.332 -0.3413  0.1500  0.0464
   10SAPS   O11 1214   3.088   3.771   6.532 -0.1884 -0.6906 -0.3441
   10SAPS    C1 1215   2.991   3.860   6.603  0.1299  0.1590  1.0022
   10SAPS    HA 1216   2.991   3.962   6.560  1.4368 -0.1111  0.2806
   10SAPS    HB 1217   2.889   3.822   6.583  0.4346 -0.0275 -0.2950
   10SAPS    C2 1218   3.017   3.857   6.757 -0.0364  0.0487  0.5803
   10SAPS    HS 1219   2.941   3.928   6.795  0.3867  1.8136 -1.6653
   10SAPS   O21 1220   3.149   3.894   6.793  0.1361 -0.0276 -0.1724
   10SAPS   C21 1221   3.197   4.013   6.765 -0.6231  0.2263  0.4613
   10SAPS   O22 1222   3.142   4.091   6.691  0.4642  0.0978  0.3277
   10SAPS   C22 1223   3.328   4.029   6.843  0.3881 -0.3363  0.2775
   10SAPS   H2R 1224   3.399   3.960   6.793 -1.5712 -4.0935  2.1887
   10SAPS   H2S 1225   3.358   4.133   6.820  1.3025 -0.8298 -0.8572
   10SAPS    C3 1226   2.979   3.720   6.821 -0.5159 -0.0890  0.2134
   10SAPS    HX 1227   3.063   3.648   6.809 -0.0075  0.2027  1.7627
   10SAPS    HY 1228   2.894   3.674   6.766  0.9620 -2.3786 -0.3281
   10SAPS   O31 1229   2.955   3.716   6.968 -0.5606  0.3474 -0.6296
   10SAPS   C31 1230   2.843   3.779   7.000  0.1828 -0.1410  0.3211
   10SAPS   O32 1231   2.754   3.808   6.918  0.5662 -0.0696 -0.2620
   10SAPS   C32 1232   2.825   3.786   7.141 -0.3116  0.8866 -0.9459
   10SAPS   H2X 1233   2.715   3.794   7.152 -0.4766 -2.0184  0.5358
   10SAPS   H2Y 1234   2.868   3.879   7.186 -1.4291 -0.5650  3.6386
   10SAPS   C23 1235   3.311   4.018   6.996 -0.3195  0.2137 -0.2479
   10SAPS   H3R 1236   3.415   4.019   7.036 -1.0334  0.4497  1.7099
   10SAPS   H3S 1237   3.259   3.921   7.004  0.9351 -0.5086 -0.6228
   10SAPS   C24 1238   3.239   4.135   7.061 -0.3181 -1.3008 -0.7917
   10SAPS   H4R 1239   3.194   4.105   7.158 -1.5497 -3.1600 -1.8669
   10SAPS   H4S 1240   3.148   4.147   6.999 -0.1842 -1.0057 -0.9310
   10SAPS   C25 1241   3.318   4.266   7.067  0.5073  0.4133  0.1240
   10SAPS   H5R 1242   3.332   4.326   6.976 -3.2038 -1.3146 -1.7719
   10SAPS   C26 1243   3.382   4.303   7.183 -0.2306 -0.0572  0.4502
   10SAPS   H6R 1244   3.428   4.403   7.178  0.2059 -0.2741  0.0497
   10SAPS   C27 1245   3.399   4.224   7.312  0.1606  0.3107 -0.5343
   10SAPS   H7R 1246   3.479   4.149   7.295 -0.5359 -0.3014 -1.2054
   10SAPS   H7S 1247   3.300   4.177   7.331  0.1359  0.2523 -0.8120
   10SAPS   C28 1248   3.436   4.312   7.432 -0.3552  0.1917 -0.0663
   10SAPS   H8R 1249   3.357   4.314   7.508 -1.3752 -1.0192 -1.0559
   10SAPS   C29 1250   3.535   4.405   7.449 -0.3298  0.2994  0.0556
   10SAPS   H9R 1251   3.543   4.458   7.545  1.9892  3.7992 -1.8488
   10SAPS  C210 1252   3.655   4.434   7.354 -0.4343 -0.6481 -0.2607
   10SAPS  H10R 1253   3.736   4.480   7.414 -0.5356  0.2249 -0.7753
   10SAPS  H10S 1254   3.612   4.505   7.280  0.1723 -0.8493 -0.8254
   10SAPS  C211 1255   3.709   4.307   7.282 -0.3791 -0.0589 -0.0166
   10SAPS  H11R 1256   3.680   4.287   7.178 -0.5178 -1.4427  0.2705
   10SAPS  C212 1257   3.803   4.221   7.327 -0.0170 -0.2229  0.6010
   10SAPS  H12R 1258   3.829   4.145   7.252 -0.3824  0.9135 -0.7322
   10SAPS  C213 1259   3.876   4.236   7.456  0.2773  0.2047 -0.0723
   10SAPS  H13R 1260   3.928   4.144   7.491  1.3302  1.1462  0.8946
   10SAPS  H13S 1261   3.811   4.268   7.540  0.9694  2.9569 -0.5030
   10SAPS  C214 1262   3.986   4.341   7.437  0.0409 -0.2044  0.0418
   10SAPS  H14R 1263   4.004   4.376   7.335 -0.4171 -3.3518 -1.2552
   10SAPS  C215 1264   4.056   4.399   7.540  0.4490  0.6203  0.7816
   10SAPS  H15R 1265   4.132   4.475   7.518  2.5595 -0.1853  4.4841
   10SAPS  C216 1266   4.039   4.359   7.686 -0.3770  0.2665  0.2321
   10SAPS  H16R 1267   3.972   4.270   7.696  0.5513 -0.2559  2.1820
   10SAPS  H16S 1268   3.986   4.434   7.748  0.3054  0.0081  1.1556
   10SAPS  C217 1269   4.164   4.304   7.771 -0.4482 -0.4544  0.8163
   10SAPS  H17R 1270   4.228   4.389   7.801 -0.8582 -0.1756  0.9153
   10SAPS  H17S 1271   4.227   4.239   7.707 -0.9883 -0.2694  0.0848
   10SAPS  C218 1272   4.107   4.231   7.888  0.4127 -0.0224 -0.1606
   10SAPS  H18R 1273   4.179   4.152   7.917 -0.1243  0.0128  1.3419
   10SAPS  H18S 1274   4.014   4.173   7.872  0.4978 -1.1224  2.8074
   10SAPS  C219 1275   4.090   4.318   8.011  0.1424 -0.4106 -0.1283
   10SAPS  H19R 1276   4.013   4.398   8.003 -0.0852 -0.2826  2.5404
   10SAPS  H19S 1277   4.182   4.372   8.042  1.1399 -0.7264 -2.3732
   10SAPS  C220 1278   4.054   4.232   8.138 -0.2559 -0.1918  0.2682
   10SAPS  H20R 1279   4.127   4.151   8.122 -1.5895 -1.1564 -1.2984
   10SAPS  H20S 1280   3.954   4.184   8.142 -0.2299 -0.3936 -0.9669
   10SAPS  H20T 1281   4.073   4.279   8.237 -0.1837 -0.3858  0.3459
   10SAPS   C33 1282   2.876   3.670   7.229 -0.5557  0.1351 -0.3044
   10SAPS   H3X 1283   2.977   3.692   7.269 -0.3325  0.9213 -1.2493
   10SAPS   H3Y 1284   2.889   3.576   7.171  3.5343  1.8141 -2.6066
   10SAPS   C34 1285   2.784   3.645   7.349 -0.3501  0.3198 -0.4817
   10SAPS   H4X 1286   2.825   3.557   7.402  0.3906  0.1367 -1.3277
   10SAPS   H4Y 1287   2.678   3.619   7.327 -0.2800  0.8300 -1.4862
   10SAPS   C35 1288   2.794   3.760   7.452  0.2895 -0.0689 -0.1189
   10SAPS   H5X 1289   2.736   3.844   7.408 -0.4728  0.5035  1.8445
   10SAPS   H5Y 1290   2.899   3.784   7.479 -0.3928  0.5902  2.1733
   10SAPS   C36 1291   2.727   3.730   7.589  0.0144 -0.0289 -0.3195
   10SAPS   H6X 1292   2.630   3.684   7.560  0.2568 -0.9716  0.3215
   10SAPS   H6Y 1293   2.708   3.833   7.628 -0.8445  0.5907 -2.2450
   10SAPS   C37 1294   2.803   3.644   7.687  0.5784  0.0589  0.4702
   10SAPS   H7X 1295   2.899   3.690   7.716  0.0769  1.1091  0.5006
   10SAPS   H7Y 1296   2.813   3.539   7.650 -1.8130  0.3932 -1.4227
   10SAPS   C38 1297   2.720   3.639   7.807 -0.1865  0.7218  0.1927
   10SAPS   H8X 1298   2.615   3.605   7.792  0.4337 -1.0901 -0.3670
   10SAPS   H8Y 1299   2.716   3.745   7.840  0.1869  0.9340 -0.4114
   10SAPS   C39 1300   2.769   3.566   7.933 -1.1319 -0.5438 -0.9340
   10SAPS   H9X 1301   2.872   3.601   7.958 -2.2293  2.2221  0.0903
   10SAPS   H9Y 1302   2.778   3.457   7.911 -0.1636 -0.1922 -2.4382
   10SAPS  C310 1303   2.687   3.591   8.062  0.7019 -0.1344 -0.1908
   10SAPS  H10X 1304   2.583   3.553   8.051  0.6712  0.4132 -2.0163
   10SAPS  H10Y 1305   2.680   3.700   8.083 -0.4934 -0.1482 -0.4464
   10SAPS  C311 1306   2.731   3.520   8.198 -1.0239  0.1671  1.1033
   10SAPS  H11X 1307   2.659   3.548   8.278 -0.4984 -0.4230  1.7927
   10SAPS  H11Y 1308   2.834   3.560   8.210 -0.9849  0.2337  0.5951
   10SAPS  C312 1309   2.733   3.370   8.188 -0.5751 -0.2390 -0.1082
   10SAPS  H12X 1310   2.788   3.335   8.098 -0.3121 -1.1088  0.3821
   10SAPS  H12Y 1311   2.631   3.326   8.175 -1.0972  0.4950  1.3167
   10SAPS  C313 1312   2.794   3.311   8.318 -0.1357  0.9003 -0.0472
   10SAPS  H13X 1313   2.885   3.363   8.353 -0.0576  0.1598  0.8910
   10SAPS  H13Y 1314   2.807   3.203   8.295 -0.5410  0.6980  0.6316
   10SAPS  C314 1315   2.701   3.309   8.443  0.3126  0.3357  0.8297
   10SAPS  H14X 1316   2.610   3.251   8.415  1.0845 -0.3092 -0.4325
   10SAPS  H14Y 1317   2.662   3.406   8.480  1.3097  0.5167  1.4292
   10SAPS  C315 1318   2.754   3.251   8.577  0.0230 -0.4187  0.0891
   10SAPS  H15X 1319   2.708   3.302   8.664  1.7277  2.0658 -0.3692
   10SAPS  H15Y 1320   2.861   3.278   8.579 -0.1708  0.3640  0.2260
   10SAPS  C316 1321   2.740   3.099   8.589 -0.6143  0.4175 -0.2619
   10SAPS  H16X 1322   2.783   3.043   8.504 -1.7487  1.0904 -1.3218
   10SAPS  H16Y 1323   2.630   3.083   8.596 -0.2563 -3.7568 -1.6114
   10SAPS  C317 1324   2.791   3.061   8.725  0.1119 -0.0187  0.2310
   10SAPS  H17X 1325   2.743   3.115   8.810 -0.7410  0.4077 -0.5103
   10SAPS  H17Y 1326   2.900   3.079   8.735  0.7272 -3.2122  0.3775
   10SAPS  C318 1327   2.769   2.908   8.745 -0.4093  0.2025  0.0478
   10SAPS  H18X 1328   2.809   2.882   8.845 -0.6866  0.6966  0.2942
   10SAPS  H18Y 1329   2.832   2.854   8.671 -2.9383  0.6170 -2.5928
   10SAPS  H18Z 1330   2.665   2.872   8.726 -1.0876  1.2220  1.5970
   11SAPS     N 1331   5.318   5.605   6.011  0.1644  0.7805 -0.3341
   11SAPS   HN1 1332   5.279   5.531   6.073 -0.9192 -0.6016 -2.5447
   11SAPS   HN2 1333   5.374   5.670   6.070  0.6216  1.8830 -1.9089
   11SAPS   HN3 1334   5.242   5.657   5.962 -2.1131 -0.7948  1.3087
   11SAPS   C12 1335   5.414   5.546   5.906 -0.4332 -0.6290 -0.4169
   11SAPS  H12A 1336   5.492   5.502   5.965  1.7324  2.5477 -0.6737
   11SAPS   C13 1337   5.355   5.456   5.792 -0.6564 -0.5170 -0.9022
   11SAPS  O13A 1338   5.231   5.436   5.793 -0.0436  0.1507 -0.6105
   11SAPS  O13B 1339   5.432   5.399   5.714 -0.5155  0.3082  0.6109
   11SAPS   C11 1340   5.484   5.674   5.848  0.0247 -0.7781  0.0178
   11SAPS  H11A 1341   5.404   5.737   5.806 -0.6873 -2.2023 -0.8435
   11SAPS  H11B 1342   5.562   5.641   5.776 -0.3451 -0.7298 -0.4037
   11SAPS     P 1343   5.533   5.901   5.972 -0.4075 -0.1980 -0.0109
   11SAPS   O13 1344   5.634   5.974   5.892  0.4286 -0.0378 -0.2013
   11SAPS   O14 1345   5.390   5.938   5.954 -0.7412  0.3532 -0.3430
   11SAPS   O12 1346   5.551   5.744   5.953  0.0816 -0.7211 -0.5524
   11SAPS   O11 1347   5.566   5.922   6.128 -0.1125 -0.4367  0.2681
   11SAPS    C1 1348   5.696   5.871   6.176  0.9874 -0.5455  0.1917
   11SAPS    HA 1349   5.777   5.860   6.100 -1.5364 -2.3124 -2.4491
   11SAPS    HB 1350   5.727   5.954   6.243  0.1366  0.5362 -0.7254
   11SAPS    C2 1351   5.691   5.744   6.265 -0.2672 -0.0192 -0.1712
   11SAPS    HS 1352   5.648   5.663   6.202 -1.3171  1.5022 -1.4893
   11SAPS   O21 1353   5.599   5.776   6.372 -0.4437  0.3829  0.0837
   11SAPS   C21 1354   5.465   5.744   6.346  0.2016  0.1853  1.1028
   11SAPS   O22 1355   5.421   5.684   6.249 -0.2907  0.2888  0.8414
   11SAPS   C22 1356   5.375   5.786   6.461 -0.0287 -0.1949  0.5139
   11SAPS   H2R 1357   5.371   5.897   6.461  0.0469 -0.1908  0.1462
   11SAPS   H2S 1358   5.274   5.755   6.424  1.2685 -0.3956 -3.2912
   11SAPS    C3 1359   5.836   5.708   6.309 -0.6519 -0.6573  0.7126
   11SAPS    HX 1360   5.896   5.796   6.337  0.5717 -0.6514 -1.7001
   11SAPS    HY 1361   5.883   5.667   6.217  1.7150  1.0914  1.0492
   11SAPS   O31 1362   5.839   5.601   6.405 -0.1691 -0.3974  0.7800
   11SAPS   C31 1363   5.846   5.656   6.529 -0.3263 -0.0603  0.9007
   11SAPS   O32 1364   5.858   5.777   6.553  0.1543  0.2841  0.2211
   11SAPS   C32 1365   5.833   5.548   6.636 -0.1463  0.0307  0.4548
   11SAPS   H2X 1366   5.925   5.485   6.625  0.1026  0.6506 -1.2388
   11SAPS   H2Y 1367   5.749   5.484   6.603  0.1755  0.1239 -0.5632
   11SAPS   C23 1368   5.419   5.726   6.590  0.3888  0.1326 -0.4902
   11SAPS   H3R 1369   5.356   5.765   6.673  1.1159 -1.1400  0.7211
   11SAPS   H3S 1370   5.528   5.736   6.607  0.5776 -1.7822 -0.2972
   11SAPS   C24 1371   5.403   5.575   6.600  0.5115 -0.2635  0.3934
   11SAPS   H4R 1372   5.462   5.541   6.688 -0.1180 -1.6145  0.3232
   11SAPS   H4S 1373   5.458   5.529   6.516  2.3221 -0.8355  1.8139
   11SAPS   C25 1374   5.260   5.525   6.604 -0.6264  0.7534  0.0400
   11SAPS   H5R 1375   5.193   5.562   6.525  1.7605  0.8700 -2.0459
   11SAPS   C26 1376   5.216   5.436   6.695  0.3293 -0.1968 -0.2204
   11SAPS   H6R 1377   5.109   5.407   6.690 -0.1495  1.5863 -1.1217
   11SAPS   C27 1378   5.289   5.370   6.804 -0.1754 -0.3092 -0.0753
   11SAPS   H7R 1379   5.238   5.375   6.903  0.9341  0.3260  0.4939
   11SAPS   H7S 1380   5.389   5.418   6.813  0.2200 -1.2090  0.5153
   11SAPS   C28 1381   5.307   5.224   6.764 -0.3030 -0.1800 -0.7702
   11SAPS   H8R 1382   5.304   5.197   6.657  2.1075  1.3977 -1.3174
   11SAPS   C29 1383   5.330   5.126   6.853  0.3327 -0.1413 -0.5263
   11SAPS   H9R 1384   5.355   5.028   6.809 -1.2921 -1.1804  0.7479
   11SAPS  C210 1385   5.323   5.141   6.998  0.2279  0.7269  0.2537
   11SAPS  H10R 1386   5.215   5.146   7.021 -0.0365 -1.1217 -0.4908
   11SAPS  H10S 1387   5.376   5.237   7.019  0.7711  0.6355 -0.6410
   11SAPS  C211 1388   5.387   5.024   7.064 -0.4575 -0.0294  0.2534
   11SAPS  H11R 1389   5.440   4.959   6.992 -1.2680  2.1333 -2.4654
   11SAPS  C212 1390   5.376   4.992   7.193  0.4417 -0.7010 -0.2678
   11SAPS  H12R 1391   5.422   4.897   7.224 -0.5932 -1.3384 -0.6121
   11SAPS  C213 1392   5.290   5.055   7.301  0.3812  0.5827 -0.7379
   11SAPS  H13R 1393   5.238   5.139   7.250 -1.3142 -0.4497 -0.7977
   11SAPS  H13S 1394   5.346   5.119   7.373 -1.3150  0.1684  1.0415
   11SAPS  C214 1395   5.190   4.961   7.362 -0.7432 -0.3755  0.2901
   11SAPS  H14R 1396   5.125   4.908   7.291 -2.6777 -0.1044  1.7732
   11SAPS  C215 1397   5.164   4.946   7.492 -0.5540 -0.3536 -0.0795
   11SAPS  H15R 1398   5.075   4.891   7.526  0.2577 -0.2337  2.5292
   11SAPS  C216 1399   5.236   5.021   7.595  0.0247 -0.0062  0.6276
   11SAPS  H16R 1400   5.235   5.127   7.560 -0.3003 -0.7187 -1.6702
   11SAPS  H16S 1401   5.342   4.990   7.601  0.8167  1.7988 -2.0029
   11SAPS  C217 1402   5.177   5.030   7.738 -0.0970  0.4242  0.2375
   11SAPS  H17R 1403   5.250   5.085   7.801  1.1790 -0.2748 -0.5839
   11SAPS  H17S 1404   5.158   4.931   7.785 -2.2882  1.2001  1.1270
   11SAPS  C218 1405   5.049   5.113   7.742  0.1801 -0.0937 -0.0663
   11SAPS  H18R 1406   4.974   5.057   7.682 -1.2163 -1.1712  2.5252
   11SAPS  H18S 1407   5.071   5.219   7.717  0.0594  0.1574  0.8652
   11SAPS  C219 1408   5.003   5.114   7.889  0.0444 -0.0171 -0.6125
   11SAPS  H19R 1409   5.078   5.168   7.951 -1.0488  0.5900  0.2296
   11SAPS  H19S 1410   4.990   5.008   7.919  1.4610 -0.3951 -1.2874
   11SAPS  C220 1411   4.868   5.174   7.915 -0.2799 -0.4388  0.0078
   11SAPS  H20R 1412   4.815   5.167   8.013 -2.0803  1.8042 -0.7057
   11SAPS  H20S 1413   4.800   5.129   7.840 -1.1090 -0.4953  0.7640
   11SAPS  H20T 1414   4.865   5.283   7.893 -1.1123 -0.5349 -0.3990
   11SAPS   C33 1415   5.796   5.592   6.775  0.1008 -0.0360  0.1070
   11SAPS   H3X 1416   5.753   5.509   6.835 -1.3509  1.1755  0.8257
   11SAPS   H3Y 1417   5.723   5.676   6.767 -0.4793 -0.5992 -0.7078
   11SAPS   C34 1418   5.929   5.644   6.843  0.2838  0.4793  0.0141
   11SAPS   H4X 1419   5.975   5.717   6.773  1.0118  1.0414  1.0616
   11SAPS   H4Y 1420   6.002   5.560   6.851 -0.4732 -0.4706 -2.0984
   11SAPS   C35 1421   5.900   5.695   6.977 -0.5495  0.4643  0.2726
   11SAPS   H5X 1422   5.871   5.606   7.037 -0.6827  0.8958  0.8563
   11SAPS   H5Y 1423   5.824   5.776   6.976 -1.0673 -0.0085 -0.9290
   11SAPS   C36 1424   6.021   5.751   7.055 -0.6957 -0.3903 -0.3092
   11SAPS   H6X 1425   6.063   5.842   7.008  0.3535 -0.7511 -0.0911
   11SAPS   H6Y 1426   6.103   5.678   7.068  0.5042  0.8681 -0.5600
   11SAPS   C37 1427   5.991   5.793   7.200  1.0469 -0.2778  0.4269
   11SAPS   H7X 1428   5.926   5.883   7.200 -0.7859 -1.5588 -0.6501
   11SAPS   H7Y 1429   6.085   5.827   7.248  0.7218 -0.2172  1.0314
   11SAPS   C38 1430   5.923   5.680   7.276  0.3999  0.8116  0.3292
   11SAPS   H8X 1431   5.988   5.592   7.262 -1.4904 -0.6773  0.5238
   11SAPS   H8Y 1432   5.836   5.647   7.215  1.9854 -0.9384 -1.1081
   11SAPS   C39 1433   5.881   5.715   7.418 -0.7035 -0.0105  0.0329
   11SAPS   H9X 1434   5.787   5.660   7.441  0.2681 -1.3445  0.9943
   11SAPS   H9Y 1435   5.864   5.825   7.422 -1.3106 -0.1204  2.2147
   11SAPS  C310 1436   5.986   5.668   7.516  1.0020 -0.4043 -0.0726
   11SAPS  H10X 1437   6.070   5.740   7.510 -0.1749  1.0474  0.2947
   11SAPS  H10Y 1438   6.020   5.563   7.502  1.4963 -0.1492 -0.8488
   11SAPS  C311 1439   5.936   5.673   7.662  0.2843  0.4672 -0.5354
   11SAPS  H11X 1440   5.841   5.617   7.664  1.8228 -2.3611  2.3455
   11SAPS  H11Y 1441   5.912   5.779   7.687 -0.2757  1.0598 -3.2268
   11SAPS  C312 1442   6.034   5.613   7.754  0.0090  0.0422 -0.0173
   11SAPS  H12X 1443   6.116   5.686   7.775  0.9530 -1.3732  1.4556
   11SAPS  H12Y 1444   6.082   5.526   7.703 -4.1597 -1.8112 -1.1615
   11SAPS  C313 1445   5.970   5.576   7.893 -0.0125 -0.3045  0.0721
   11SAPS  H13X 1446   5.930   5.472   7.899  0.4033 -0.3954  1.6925
   11SAPS  H13Y 1447   5.898   5.658   7.916  0.6006  0.7113 -1.4366
   11SAPS  C314 1448   6.077   5.576   8.003 -0.6187 -0.1817 -0.2761
   11SAPS  H14X 1449   6.127   5.675   7.998  1.7921 -1.1529  1.9050
   11SAPS  H14Y 1450   6.155   5.498   7.991  1.1806  1.7353 -1.6804
   11SAPS  C315 1451   6.015   5.588   8.147 -0.5358 -0.1622 -0.0957
   11SAPS  H15X 1452   5.953   5.681   8.153  1.2512  1.0290  0.9474
   11SAPS  H15Y 1453   6.091   5.603   8.226 -0.2548  1.2756 -0.6100
   11SAPS  C316 1454   5.932   5.464   8.187 -0.2404 -0.4128  0.1239
   11SAPS  H16X 1455   5.995   5.373   8.196  0.6640  0.1437 -0.4593
   11SAPS  H16Y 1456   5.849   5.454   8.115  1.6229 -0.0628 -2.2089
   11SAPS  C317 1457   5.869   5.467   8.334 -0.1822 -0.4902  0.4600
   11SAPS  H17X 1458   5.823   5.567   8.348 -0.1044 -0.1490 -1.4624
   11SAPS  H17Y 1459   5.959   5.467   8.399  2.5113 -1.6362 -2.9213
   11SAPS  C318 1460   5.766   5.350   8.353 -0.5216 -0.3618  0.0871
   11SAPS  H18X 1461   5.801   5.246   8.335 -0.8085 -0.4607  0.1038
   11SAPS  H18Y 1462   5.677   5.369   8.289 -1.1398 -1.6251  0.5444
   11SAPS  H18Z 1463   5.748   5.347   8.463  0.3481  1.5930  0.3326
   12SAPS     N 1464   0.063   0.292   5.931 -0.7178  0.2068  0.2072
   12SAPS   HN1 1465   0.007   0.329   6.010  0.5143  2.3101  0.1604
   12SAPS   HN2 1466   0.064   0.192   5.958  0.3424 -0.9141 -3.4389
   12SAPS   HN3 1467   0.156   0.336   5.922 -1.3940  1.5122 -0.8996
   12SAPS   C12 1468  -0.026   0.328   5.816  0.1656 -0.4090 -0.0750
   12SAPS  H12A 1469  -0.028   0.435   5.800 -2.4501 -0.2371  0.9656
   12SAPS   C13 1470   0.027   0.267   5.690 -0.3062 -0.1936  0.5743
   12SAPS  O13A 1471   0.127   0.190   5.690 -0.9057 -0.2800 -0.6407
   12SAPS  O13B 1472  -0.019   0.299   5.578  0.2204 -0.1736  0.2429
   12SAPS   C11 1473  -0.162   0.277   5.850  0.5917 -0.3847  0.0482
   12SAPS  H11A 1474  -0.161   0.166   5.858 -0.0973 -0.4596 -0.7930
   12SAPS  H11B 1475  -0.246   0.291   5.779  1.6067 -1.8537 -1.5305
   12SAPS     P 1476  -0.293   0.441   6.008  0.3229 -0.0440  0.1292
   12SAPS   O13 1477  -0.228   0.564   5.967 -0.7112 -0.6075  0.1831
   12SAPS   O14 1478  -0.428   0.414   5.956  0.1872  0.0889  0.4407
   12SAPS   O12 1479  -0.200   0.319   5.982  0.3540  0.5134 -0.1634
   12SAPS   O11 1480  -0.298   0.453   6.164 -0.6658  0.6236 -0.7959
   12SAPS    C1 1481  -0.295   0.345   6.263 -0.2830 -0.9213  0.4080
   12SAPS    HA 1482  -0.333   0.255   6.210  1.6297 -0.7746 -1.3512
   12SAPS    HB 1483  -0.195   0.335   6.310  0.0950  3.0343  0.7969
   12SAPS    C2 1484  -0.392   0.378   6.374  0.5236  0.6733  0.1254
   12SAPS    HS 1485  -0.492   0.383   6.325 -0.2193 -0.2292  1.4702
   12SAPS   O21 1486  -0.352   0.500   6.430  0.1765 -0.5666  0.1466
   12SAPS   C21 1487  -0.423   0.534   6.539 -0.0109 -0.2001 -0.4041
   12SAPS   O22 1488  -0.533   0.495   6.565 -0.3768  0.0410 -0.6944
   12SAPS   C22 1489  -0.341   0.640   6.615  0.1030 -1.1148 -0.6053
   12SAPS   H2R 1490  -0.258   0.584   6.662  1.2948  0.3876 -0.8489
   12SAPS   H2S 1491  -0.312   0.729   6.556 -1.0833 -0.5649 -0.3917
   12SAPS    C3 1492  -0.394   0.257   6.479  0.0605 -0.4580  0.4176
   12SAPS    HX 1493  -0.373   0.166   6.419  0.6782  1.0901 -1.8265
   12SAPS    HY 1494  -0.500   0.249   6.512  0.3014 -1.1967  1.0666
   12SAPS   O31 1495  -0.296   0.262   6.588  0.2182 -0.7635  0.1894
   12SAPS   C31 1496  -0.310   0.167   6.679 -0.0074 -1.3453  0.6075
   12SAPS   O32 1497  -0.387   0.077   6.675  0.0993 -0.6266 -0.0341
   12SAPS   C32 1498  -0.223   0.199   6.795 -0.7753  0.1990 -0.0936
   12SAPS   H2X 1499  -0.141   0.267   6.763  0.1630 -0.7234  0.3053
   12SAPS   H2Y 1500  -0.182   0.105   6.836 -2.2343 -0.1139  0.7078
   12SAPS   C23 1501  -0.419   0.715   6.737 -0.2240  0.2364 -0.2538
   12SAPS   H3R 1502  -0.476   0.649   6.806  0.9540 -0.2260  0.3146
   12SAPS   H3S 1503  -0.489   0.780   6.682 -0.4822  0.6836  0.5845
   12SAPS   C24 1504  -0.329   0.800   6.828  0.3002 -0.1206 -0.1864
   12SAPS   H4R 1505  -0.305   0.890   6.768  0.2174  2.1388  2.8772
   12SAPS   H4S 1506  -0.238   0.746   6.862  0.5021 -0.0053 -0.5401
   12SAPS   C25 1507  -0.414   0.857   6.944  0.2357 -0.1133 -0.3097
   12SAPS   H5R 1508  -0.516   0.894   6.926  0.3157  0.4084  0.2738
   12SAPS   C26 1509  -0.372   0.879   7.071 -0.1371  0.6502 -0.6580
   12SAPS   H6R 1510  -0.446   0.905   7.148  1.2113  2.7240  0.0105
   12SAPS   C27 1511  -0.235   0.848   7.127 -0.2277 -0.3525 -0.3607
   12SAPS   H7R 1512  -0.173   0.940   7.135 -0.3311 -0.3943  1.0688
   12SAPS   H7S 1513  -0.165   0.798   7.057  1.8426  1.5365  0.2193
   12SAPS   C28 1514  -0.234   0.783   7.262  0.8234  0.0364 -0.0599
   12SAPS   H8R 1515  -0.198   0.680   7.278  2.0621  0.5236  0.4576
   12SAPS   C29 1516  -0.276   0.833   7.375  0.4359 -0.3110 -0.6163
   12SAPS   H9R 1517  -0.250   0.783   7.470 -0.3590  0.5909  0.0971
   12SAPS  C210 1518  -0.344   0.968   7.402  0.7358  0.7152 -0.4501
   12SAPS  H10R 1519  -0.330   1.030   7.311 -1.5804 -2.0988 -2.9107
   12SAPS  H10S 1520  -0.284   1.025   7.477  0.2789  0.3832  0.1782
   12SAPS  C211 1521  -0.490   0.953   7.449  0.6090  0.1788 -0.4112
   12SAPS  H11R 1522  -0.562   0.941   7.366 -0.9302  1.2882  0.6975
   12SAPS  C212 1523  -0.539   0.960   7.571 -1.2141 -0.2523  0.1536
   12SAPS  H12R 1524  -0.647   0.972   7.589 -1.1633  0.2681  0.1502
   12SAPS  C213 1525  -0.463   0.984   7.699 -0.0568  0.0355 -0.3601
   12SAPS  H13R 1526  -0.358   0.950   7.690  0.3095  0.8344  0.6946
   12SAPS  H13S 1527  -0.503   0.937   7.791 -1.7479  3.9727  1.1599
   12SAPS  C214 1528  -0.452   1.130   7.724  0.0388  0.2311 -0.3888
   12SAPS  H14R 1529  -0.390   1.186   7.652  0.2330  1.0226  0.3841
   12SAPS  C215 1530  -0.508   1.195   7.825 -0.2792 -0.3104  0.3031
   12SAPS  H15R 1531  -0.482   1.301   7.841  0.0697  0.3372 -3.6900
   12SAPS  C216 1532  -0.596   1.145   7.941 -1.2025  0.1240 -0.2801
   12SAPS  H16R 1533  -0.570   1.038   7.952  1.5112  0.5778 -1.6008
   12SAPS  H16S 1534  -0.703   1.153   7.910 -1.1231  1.1585 -0.3231
   12SAPS  C217 1535  -0.573   1.216   8.074  0.1320  0.1190 -0.2410
   12SAPS  H17R 1536  -0.473   1.264   8.073 -0.0378  0.5321  1.1666
   12SAPS  H17S 1537  -0.556   1.136   8.149  2.5034  0.2541 -0.5537
   12SAPS  C218 1538  -0.674   1.325   8.108 -0.0273  0.6333 -0.3062
   12SAPS  H18R 1539  -0.668   1.400   8.026  0.5565  2.1165  1.0475
   12SAPS  H18S 1540  -0.631   1.381   8.193 -0.2602  3.9066 -2.1696
   12SAPS  C219 1541  -0.821   1.291   8.128 -0.1138  0.1713 -0.6286
   12SAPS  H19R 1542  -0.855   1.240   8.035 -0.6413 -1.3909  0.3801
   12SAPS  H19S 1543  -0.877   1.384   8.148  0.5105  0.4360 -0.0657
   12SAPS  C220 1544  -0.841   1.185   8.237  0.3934 -0.5903 -0.3609
   12SAPS  H20R 1545  -0.950   1.174   8.255  0.2193 -0.4860 -1.2908
   12SAPS  H20S 1546  -0.798   1.231   8.329 -3.2143 -0.2184  1.2904
   12SAPS  H20T 1547  -0.790   1.087   8.223  1.4085  0.1894 -2.5866
   12SAPS   C33 1548  -0.310   0.267   6.897  0.2238  0.6939  0.1456
   12SAPS   H3X 1549  -0.400   0.211   6.930  0.4289 -0.5519 -1.3338
   12SAPS   H3Y 1550  -0.351   0.358   6.846 -0.5122 -0.3250 -1.1373
   12SAPS   C34 1551  -0.241   0.304   7.023 -0.9313  0.2110 -0.0986
   12SAPS   H4X 1552  -0.159   0.377   7.004 -0.7187 -0.1194 -0.4565
   12SAPS   H4Y 1553  -0.195   0.216   7.072  2.5117  2.2731  0.7014
   12SAPS   C35 1554  -0.332   0.388   7.109  0.3722  0.2000  0.1704
   12SAPS   H5X 1555  -0.434   0.347   7.095  0.9586 -0.9923 -0.8046
   12SAPS   H5Y 1556  -0.349   0.491   7.069  0.3141 -0.3472 -1.2854
   12SAPS   C36 1557  -0.299   0.385   7.262  0.2343 -0.6647  0.0659
   12SAPS   H6X 1558  -0.211   0.449   7.285 -0.0971 -0.0532 -0.3340
   12SAPS   H6Y 1559  -0.279   0.282   7.298 -0.0058 -0.5687  0.4800
   12SAPS   C37 1560  -0.408   0.450   7.351  0.3450 -0.1784 -0.1750
   12SAPS   H7X 1561  -0.504   0.401   7.326  0.6611 -0.6127 -0.5643
   12SAPS   H7Y 1562  -0.414   0.556   7.319  2.6289  0.6696  1.8323
   12SAPS   C38 1563  -0.372   0.437   7.498 -0.0426 -0.1603 -0.2378
   12SAPS   H8X 1564  -0.262   0.453   7.497  0.5642 -3.5304  0.0504
   12SAPS   H8Y 1565  -0.386   0.332   7.533  0.3209  0.2881  1.3564
   12SAPS   C39 1566  -0.453   0.534   7.587  0.5847  0.1857  0.9271
   12SAPS   H9X 1567  -0.560   0.529   7.556  0.5653 -1.6255  1.1663
   12SAPS   H9Y 1568  -0.412   0.634   7.561  0.3642 -0.2193 -1.1308
   12SAPS  C310 1569  -0.446   0.511   7.734  0.6613  0.5674 -1.3106
   12SAPS  H10X 1570  -0.341   0.491   7.764  0.1672 -2.2869 -1.1466
   12SAPS  H10Y 1571  -0.511   0.423   7.754  1.5456  0.2851  0.4581
   12SAPS  C311 1572  -0.507   0.624   7.815 -0.0578 -0.5303 -0.3980
   12SAPS  H11X 1573  -0.606   0.646   7.769  0.7121 -0.4945 -2.1221
   12SAPS  H11Y 1574  -0.440   0.710   7.791  2.3774 -2.2527 -0.0840
   12SAPS  C312 1575  -0.518   0.602   7.968  0.7630 -0.2903  0.8445
   12SAPS  H12X 1576  -0.422   0.565   8.012  0.1984 -0.4891  1.9389
   12SAPS  H12Y 1577  -0.609   0.539   7.978 -0.4684  1.1083 -0.8150
   12SAPS  C313 1578  -0.552   0.739   8.042  0.2660  0.4699  0.0438
   12SAPS  H13X 1579  -0.628   0.790   7.978  1.2814  2.3092  0.2233
   12SAPS  H13Y 1580  -0.454   0.790   8.034 -0.1088  1.5729  1.7986
   12SAPS  C314 1581  -0.576   0.736   8.194 -0.9787 -0.7093  0.4644
   12SAPS  H14X 1582  -0.498   0.672   8.239  0.1601  0.8739  0.8258
   12SAPS  H14Y 1583  -0.680   0.699   8.209 -0.7933 -1.4672 -0.0489
   12SAPS  C315 1584  -0.572   0.882   8.255  0.4002  0.2543  0.1238
   12SAPS  H15X 1585  -0.618   0.946   8.176 -1.3344 -0.9336  0.1293
   12SAPS  H15Y 1586  -0.465   0.908   8.270  0.6542 -1.0887  0.7741
   12SAPS  C316 1587  -0.635   0.898   8.395  0.1469  0.0971 -0.0477
   12SAPS  H16X 1588  -0.590   0.810   8.445  1.0747  0.4843 -0.1751
   12SAPS  H16Y 1589  -0.743   0.879   8.406  0.2399  0.7771  2.5772
   12SAPS  C317 1590  -0.595   1.024   8.463 -0.8789  0.1686  0.0801
   12SAPS  H17X 1591  -0.617   1.109   8.395  0.1864 -0.2574 -0.8282
   12SAPS  H17Y 1592  -0.486   1.016   8.483  0.0886  0.5204 -4.1218
   12SAPS  C318 1593  -0.662   1.045   8.603 -0.0412 -0.3358  0.0291
   12SAPS  H18X 1594  -0.605   0.982   8.674 -4.6011 -0.3344  4.1721
   12SAPS  H18Y 1595  -0.769   1.018   8.614 -0.1573  0.9511  3.2430
   12SAPS  H18Z 1596  -0.651   1.154   8.627 -0.4079 -0.5170  1.0684
   13SAPS     N 1597   6.395   3.987   6.341 -0.4937 -0.0632 -0.1927
   13SAPS   HN1 1598   6.300   4.001   6.381 -1.5446 -0.4198 -2.3783
   13SAPS   HN2 1599   6.427   3.894   6.376  1.1650  0.4655 -0.2316
   13SAPS   HN3 1600   6.468   4.057   6.364 -0.1094 -0.5471  0.0781
   13SAPS   C12 1601   6.398   3.987   6.187 -0.0266 -0.5714 -0.1731
   13SAPS  H12A 1602   6.499   3.958   6.162  0.8847  2.2120 -0.0207
   13SAPS   C13 1603   6.301   3.881   6.134 -0.5236 -0.6524 -0.1199
   13SAPS  O13A 1604   6.230   3.809   6.210 -0.5917  0.3991 -0.3170
   13SAPS  O13B 1605   6.299   3.865   6.012  0.3976  0.0440 -0.5986
   13SAPS   C11 1606   6.358   4.131   6.130 -0.4016 -0.1671 -0.6161
   13SAPS  H11A 1607   6.250   4.130   6.104 -0.2139  1.6288 -1.6396
   13SAPS  H11B 1608   6.425   4.144   6.042  0.3303 -1.4647 -0.2768
   13SAPS     P 1609   6.335   4.378   6.209 -0.6418 -0.1549 -0.3441
   13SAPS   O13 1610   6.411   4.476   6.293 -0.1832  0.0386  0.0483
   13SAPS   O14 1611   6.328   4.404   6.062 -0.1342 -0.4344  0.1456
   13SAPS   O12 1612   6.392   4.231   6.230 -0.2722  0.0609 -0.5993
   13SAPS   O11 1613   6.193   4.366   6.267 -0.2375  0.8173  0.1913
   13SAPS    C1 1614   6.172   4.309   6.398 -0.9244 -0.1969  0.4991
   13SAPS    HA 1615   6.066   4.278   6.404 -1.3956  1.2729  0.3404
   13SAPS    HB 1616   6.243   4.226   6.419  1.2421  1.4179 -0.0060
   13SAPS    C2 1617   6.178   4.420   6.503  0.8097 -0.0434  0.2278
   13SAPS    HS 1618   6.282   4.459   6.508  1.1957 -0.4091 -2.9632
   13SAPS   O21 1619   6.146   4.369   6.631 -0.1941 -0.1256  0.2854
   13SAPS   C21 1620   6.239   4.291   6.691 -1.1074  0.3039 -0.4354
   13SAPS   O22 1621   6.343   4.255   6.641  0.2776  0.3632  0.2686
   13SAPS   C22 1622   6.197   4.258   6.839  0.4497 -0.2108 -0.4413
   13SAPS   H2R 1623   6.098   4.308   6.848  0.1158 -0.8867 -0.3285
   13SAPS   H2S 1624   6.191   4.148   6.847 -3.3667 -0.1821 -1.2768
   13SAPS    C3 1625   6.086   4.536   6.474 -0.6174  0.0631 -0.0806
   13SAPS    HX 1626   5.981   4.512   6.449 -1.4343  1.8182  1.4258
   13SAPS    HY 1627   6.127   4.582   6.380 -1.5268 -0.6767 -0.8546
   13SAPS   O31 1628   6.094   4.629   6.582 -0.5667 -0.4082  0.0338
   13SAPS   C31 1629   5.995   4.643   6.666  0.4100  0.0003  0.2986
   13SAPS   O32 1630   5.881   4.599   6.644  0.0013  0.2451 -0.0548
   13SAPS   C32 1631   6.036   4.721   6.790 -0.6726  0.5264  0.5575
   13SAPS   H2X 1632   6.073   4.818   6.752 -1.9209  0.2797 -1.3929
   13SAPS   H2Y 1633   6.121   4.665   6.834 -0.6723  0.9207  1.0795
   13SAPS   C23 1634   6.290   4.313   6.947  0.1319  0.1032 -0.3861
   13SAPS   H3R 1635   6.289   4.423   6.932  1.2694  0.5258  2.0740
   13SAPS   H3S 1636   6.395   4.283   6.925  0.6414  1.9288 -0.6195
   13SAPS   C24 1637   6.242   4.290   7.096 -0.2283 -0.2022  0.2655
   13SAPS   H4R 1638   6.138   4.326   7.110 -0.4344 -0.9838  0.8327
   13SAPS   H4S 1639   6.309   4.360   7.150 -0.1180 -1.2849  1.5878
   13SAPS   C25 1640   6.261   4.145   7.139 -0.0239 -0.8712 -0.4021
   13SAPS   H5R 1641   6.256   4.072   7.057  0.8963 -0.1088 -1.1530
   13SAPS   C26 1642   6.285   4.101   7.266  0.3505 -0.1858  0.3317
   13SAPS   H6R 1643   6.293   3.993   7.285  0.5430 -0.7252 -2.4138
   13SAPS   C27 1644   6.295   4.183   7.396 -0.7089 -0.2143  0.2636
   13SAPS   H7R 1645   6.276   4.291   7.382  2.1290  0.1059 -2.2525
   13SAPS   H7S 1646   6.398   4.164   7.433 -2.0941 -4.1658  2.7009
   13SAPS   C28 1647   6.185   4.139   7.494  0.4774  0.0855 -0.0017
   13SAPS   H8R 1648   6.090   4.096   7.458  0.5022  0.6845 -0.8124
   13SAPS   C29 1649   6.198   4.128   7.626 -0.0552 -0.2165  0.4706
   13SAPS   H9R 1650   6.111   4.096   7.686 -0.5907 -0.4972 -0.4499
   13SAPS  C210 1651   6.321   4.164   7.705 -0.2024 -0.9454  0.3675
   13SAPS  H10R 1652   6.410   4.184   7.642  1.1216  1.8121  2.8620
   13SAPS  H10S 1653   6.347   4.070   7.757  0.3779 -0.9265  0.1209
   13SAPS  C211 1654   6.311   4.286   7.792 -0.2712 -0.3112  1.1019
   13SAPS  H11R 1655   6.295   4.378   7.734  1.8200 -0.2115  0.6084
   13SAPS  C212 1656   6.309   4.290   7.927 -0.5062 -0.1307  0.2021
   13SAPS  H12R 1657   6.315   4.384   7.983  3.1794  0.5120 -1.0187
   13SAPS  C213 1658   6.311   4.175   8.018 -0.3115  0.0976 -0.0454
   13SAPS  H13R 1659   6.289   4.082   7.961  1.7920 -0.3818 -0.1408
   13SAPS  H13S 1660   6.228   4.198   8.088  0.3921  1.9302  0.2419
   13SAPS  C214 1661   6.448   4.158   8.082 -0.1698 -0.7075 -0.5476
   13SAPS  H14R 1662   6.541   4.161   8.024  0.2279  2.6011  0.0814
   13SAPS  C215 1663   6.472   4.148   8.217  0.1216  0.0277 -0.5058
   13SAPS  H15R 1664   6.579   4.134   8.239 -0.0298 -1.6578 -0.7769
   13SAPS  C216 1665   6.364   4.141   8.330  0.6965  0.5889  0.4948
   13SAPS  H16R 1666   6.295   4.228   8.324 -1.5120 -1.1856 -1.7630
   13SAPS  H16S 1667   6.425   4.145   8.423  1.6512  0.0921 -0.0962
   13SAPS  C217 1668   6.281   4.007   8.331  1.3161  0.6384 -0.0526
   13SAPS  H17R 1669   6.353   3.932   8.370  0.1123  0.6127  2.3329
   13SAPS  H17S 1670   6.261   3.985   8.224  0.3962  2.5738 -0.3127
   13SAPS  C218 1671   6.150   4.001   8.415 -0.6090 -0.4295  1.0113
   13SAPS  H18R 1672   6.179   4.058   8.506 -2.6572 -0.6013  1.8247
   13SAPS  H18S 1673   6.122   3.896   8.438 -1.5157 -0.2318  0.8158
   13SAPS  C219 1674   6.032   4.072   8.354  0.0216 -0.0556  0.1654
   13SAPS  H19R 1675   5.996   4.017   8.264  1.0411  0.1664 -0.4048
   13SAPS  H19S 1676   6.063   4.174   8.322 -1.0557 -0.5037 -2.5855
   13SAPS  C220 1677   5.912   4.077   8.449 -0.0987  0.1463 -0.1426
   13SAPS  H20R 1678   5.934   4.125   8.547  0.3194 -1.6079  0.6675
   13SAPS  H20S 1679   5.882   3.971   8.463  0.5858 -0.1227 -0.6356
   13SAPS  H20T 1680   5.827   4.131   8.402 -1.1954 -0.9758  0.4906
   13SAPS   C33 1681   5.928   4.741   6.896  0.3474  0.4685 -0.8603
   13SAPS   H3X 1682   5.876   4.644   6.907  1.7656 -0.3634 -1.2728
   13SAPS   H3Y 1683   5.849   4.815   6.867 -0.8265 -1.0581 -1.7044
   13SAPS   C34 1684   5.988   4.785   7.030 -0.9210  0.2604 -0.3127
   13SAPS   H4X 1685   6.027   4.887   7.009 -1.5171  0.4016 -0.7400
   13SAPS   H4Y 1686   6.079   4.725   7.053  0.0311  1.6199 -0.3725
   13SAPS   C35 1687   5.885   4.781   7.144 -0.4055 -0.1250 -0.5760
   13SAPS   H5X 1688   5.855   4.675   7.147  0.5947 -0.4253 -0.7412
   13SAPS   H5Y 1689   5.793   4.836   7.115 -1.7135 -2.3075 -0.7781
   13SAPS   C36 1690   5.940   4.834   7.277  0.2342 -0.7526 -0.0790
   13SAPS   H6X 1691   5.940   4.945   7.276 -0.5537 -0.7341  0.8886
   13SAPS   H6Y 1692   6.042   4.791   7.290  0.2206 -0.6568  0.3570
   13SAPS   C37 1693   5.861   4.787   7.397 -0.1863  0.2375 -0.6174
   13SAPS   H7X 1694   5.859   4.676   7.388 -0.0675  0.1685  0.1574
   13SAPS   H7Y 1695   5.758   4.824   7.381 -0.6327 -1.2297 -1.3706
   13SAPS   C38 1696   5.906   4.823   7.541  0.0990 -0.5019  0.6730
   13SAPS   H8X 1697   5.881   4.931   7.544 -1.5525 -0.7732 -1.0277
   13SAPS   H8Y 1698   6.014   4.817   7.565  0.2487 -1.4493 -0.1636
   13SAPS   C39 1699   5.834   4.741   7.638 -0.3780  0.6979 -0.5309
   13SAPS   H9X 1700   5.858   4.788   7.736  2.0520 -0.3128 -0.5480
   13SAPS   H9Y 1701   5.877   4.639   7.622 -0.4022  0.9019 -2.0528
   13SAPS  C310 1702   5.680   4.743   7.624 -0.5062  0.2677  0.0320
   13SAPS  H10X 1703   5.645   4.683   7.538  1.2610 -1.4822  0.4510
   13SAPS  H10Y 1704   5.658   4.851   7.607 -0.3653  0.0002 -2.1080
   13SAPS  C311 1705   5.604   4.697   7.746  0.0106  0.3983 -0.1474
   13SAPS  H11X 1706   5.630   4.747   7.842 -1.5500 -0.4898  0.7954
   13SAPS  H11Y 1707   5.631   4.590   7.757  0.1478  0.3793 -0.6584
   13SAPS  C312 1708   5.456   4.714   7.735  0.6385 -0.2460 -0.0435
   13SAPS  H12X 1709   5.417   4.714   7.631  0.1481  0.2788  0.1386
   13SAPS  H12Y 1710   5.429   4.802   7.797 -1.8872 -1.6924  1.0592
   13SAPS  C313 1711   5.391   4.589   7.813 -0.1767 -0.3214 -0.0559
   13SAPS  H13X 1712   5.449   4.592   7.908 -2.8555  1.2564  1.6818
   13SAPS  H13Y 1713   5.410   4.495   7.758 -0.0454 -1.1878  1.4117
   13SAPS  C314 1714   5.241   4.604   7.833  0.4760  0.1656  0.0219
   13SAPS  H14X 1715   5.213   4.703   7.873  0.6473  0.5833 -0.8785
   13SAPS  H14Y 1716   5.211   4.521   7.902  2.2448 -0.3484  0.2203
   13SAPS  C315 1717   5.159   4.591   7.695  0.9101 -0.7064  0.4502
   13SAPS  H15X 1718   5.186   4.503   7.632  0.9402 -0.2668 -0.1635
   13SAPS  H15Y 1719   5.189   4.687   7.648  1.0750 -1.1419 -0.3624
   13SAPS  C316 1720   5.007   4.588   7.721  1.0076  0.0487  0.6134
   13SAPS  H16X 1721   4.969   4.659   7.799 -0.5804 -0.6064  0.4863
   13SAPS  H16Y 1722   4.983   4.488   7.763  1.4869  0.1710  1.1852
   13SAPS  C317 1723   4.918   4.603   7.590  0.2258 -0.0337  0.1413
   13SAPS  H17X 1724   4.950   4.695   7.537 -1.5176  0.7228  0.3277
   13SAPS  H17Y 1725   4.814   4.627   7.621  0.4671 -0.2509  1.1588
   13SAPS  C318 1726   4.921   4.475   7.497 -0.2307 -0.6130 -0.7040
   13SAPS  H18X 1727   4.883   4.388   7.554  0.3065 -0.5010 -0.1643
   13SAPS  H18Y 1728   5.026   4.464   7.465 -0.4252 -0.4655 -1.4149
   13SAPS  H18Z 1729   4.854   4.491   7.409  2.9088  2.1710 -2.8254
   14SAPS     N 1730   5.025   5.305   5.901 -0.1558  0.1010 -0.4480
   14SAPS   HN1 1731   5.036   5.202   5.901 -0.4750  0.0584 -1.0867
   14SAPS   HN2 1732   5.097   5.353   5.842  0.5605  0.5376  0.7385
   14SAPS   HN3 1733   5.055   5.332   5.997 -0.5439 -2.2529  0.3964
   14SAPS   C12 1734   4.893   5.354   5.862  0.3216  0.3817 -0.4468
   14SAPS  H12A 1735   4.866   5.312   5.767  0.6956  0.9395 -0.8067
   14SAPS   C13 1736   4.783   5.303   5.961  0.0339 -0.2875  0.6185
   14SAPS  O13A 1737   4.803   5.220   6.049  0.5217 -0.4127 -0.2982
   14SAPS  O13B 1738   4.671   5.352   5.938 -0.0864 -0.2019  0.4370
   14SAPS   C11 1739   4.893   5.504   5.848  0.5706 -0.4183  0.3733
   14SAPS  H11A 1740   4.793   5.541   5.817  1.0250  0.0732 -0.5532
   14SAPS  H11B 1741   4.954   5.523   5.758 -0.2694 -2.4458 -0.6969
   14SAPS     P 1742   4.950   5.729   5.979  0.5741 -0.0360 -0.1504
   14SAPS   O13 1743   5.096   5.754   5.955 -0.8524  0.7688 -0.2372
   14SAPS   O14 1744   4.860   5.802   5.884  0.2915 -0.5870 -0.6546
   14SAPS   O12 1745   4.942   5.575   5.965  0.2734 -0.2604 -0.1969
   14SAPS   O11 1746   4.913   5.754   6.132  0.2761 -0.1929 -0.0199
   14SAPS    C1 1747   5.011   5.719   6.235  0.3793  0.6893  0.1725
   14SAPS    HA 1748   4.998   5.613   6.269 -0.1860  0.0586 -1.8737
   14SAPS    HB 1749   5.116   5.741   6.206 -0.0279  1.1588 -0.9665
   14SAPS    C2 1750   5.000   5.818   6.353  0.9206 -0.2228 -0.0007
   14SAPS    HS 1751   5.073   5.796   6.434 -1.2562  0.0503  2.1635
   14SAPS   O21 1752   4.872   5.796   6.411  0.3106  0.5633 -0.1783
   14SAPS   C21 1753   4.851   5.688   6.488 -0.2372  0.4054  0.0962
   14SAPS   O22 1754   4.938   5.604   6.495 -0.0423 -0.0959 -0.6737
   14SAPS   C22 1755   4.705   5.698   6.542 -0.0333  0.0205 -0.0683
   14SAPS   H2R 1756   4.684   5.804   6.566 -0.1626  0.2668 -1.2191
   14SAPS   H2S 1757   4.636   5.682   6.457  2.2783  0.6546 -2.2035
   14SAPS    C3 1758   5.016   5.962   6.303 -1.1040 -0.4589 -0.5884
   14SAPS    HX 1759   4.924   5.989   6.246 -1.7217 -2.8948 -0.8610
   14SAPS    HY 1760   5.099   5.976   6.231 -0.6709  0.6248  0.1157
   14SAPS   O31 1761   5.020   6.048   6.415  0.3743  0.0967 -0.5969
   14SAPS   C31 1762   5.142   6.118   6.434  0.5568  0.0861  0.3125
   14SAPS   O32 1763   5.238   6.104   6.364 -0.3476  0.1750 -0.0086
   14SAPS   C32 1764   5.131   6.212   6.556 -0.1772 -0.0705 -0.4504
   14SAPS   H2X 1765   5.047   6.281   6.533 -0.4124  0.3089  1.3841
   14SAPS   H2Y 1766   5.223   6.268   6.582  0.2056 -1.1033  0.5265
   14SAPS   C23 1767   4.681   5.613   6.671  0.0152 -0.1331  0.6890
   14SAPS   H3R 1768   4.732   5.515   6.664 -1.5246 -1.0006  1.2260
   14SAPS   H3S 1769   4.572   5.596   6.675 -0.2278  1.0837 -0.0845
   14SAPS   C24 1770   4.731   5.695   6.794 -0.0512 -0.1997  0.2790
   14SAPS   H4R 1771   4.680   5.794   6.790  0.2585  0.0701  2.1157
   14SAPS   H4S 1772   4.840   5.715   6.780 -0.1896  0.2193 -0.2691
   14SAPS   C25 1773   4.694   5.620   6.921 -0.6464 -0.6664 -0.7333
   14SAPS   H5R 1774   4.669   5.518   6.888 -0.2493 -0.4988 -1.5747
   14SAPS   C26 1775   4.713   5.662   7.047  0.0831 -0.1895  0.2047
   14SAPS   H6R 1776   4.700   5.593   7.132  0.5473  0.4144  0.7840
   14SAPS   C27 1777   4.765   5.804   7.072 -0.2597 -0.1535  0.1885
   14SAPS   H7R 1778   4.677   5.866   7.101 -1.6258 -2.6369  1.7232
   14SAPS   H7S 1779   4.792   5.858   6.979  0.6974  0.6192  0.9068
   14SAPS   C28 1780   4.874   5.836   7.175 -0.0655  0.1641  0.2596
   14SAPS   H8R 1781   4.856   5.925   7.237 -1.4812 -0.3495  0.6080
   14SAPS   C29 1782   4.979   5.764   7.214 -0.4142 -0.3087 -0.6201
   14SAPS   H9R 1783   5.049   5.815   7.280 -0.8215  1.4070 -1.4567
   14SAPS  C210 1784   5.040   5.634   7.165 -0.2063 -0.0943 -0.3050
   14SAPS  H10R 1785   5.039   5.630   7.054 -0.2149  0.5086 -0.3293
   14SAPS  H10S 1786   4.975   5.550   7.198 -2.7768  1.6438 -0.7435
   14SAPS  C211 1787   5.176   5.615   7.221  0.2417  0.0413 -0.2480
   14SAPS  H11R 1788   5.256   5.652   7.155 -0.0486 -0.0778 -0.6643
   14SAPS  C212 1789   5.207   5.562   7.345 -0.5208 -0.7556  0.6501
   14SAPS  H12R 1790   5.311   5.558   7.381 -0.5254 -1.2013  0.6163
   14SAPS  C213 1791   5.110   5.518   7.453 -1.0267 -0.0315 -0.8670
   14SAPS  H13R 1792   5.095   5.409   7.438  3.0405 -1.0023  0.7328
   14SAPS  H13S 1793   5.019   5.581   7.463 -1.6500 -1.0303  0.0066
   14SAPS  C214 1794   5.179   5.520   7.592  0.4330 -0.5517  0.5481
   14SAPS  H14R 1795   5.289   5.528   7.588  0.5074 -1.7304 -2.2659
   14SAPS  C215 1796   5.113   5.513   7.711 -0.5848  0.2133  0.0502
   14SAPS  H15R 1797   5.164   5.535   7.806  0.5961  4.4834 -1.3536
   14SAPS  C216 1798   4.964   5.497   7.725  0.8175 -0.0805  0.0901
   14SAPS  H16R 1799   4.938   5.436   7.815  1.1437  0.8627  0.8441
   14SAPS  H16S 1800   4.916   5.445   7.640 -1.5089  1.0744  0.6110
   14SAPS  C217 1801   4.887   5.632   7.729  0.4041  0.8459 -0.2292
   14SAPS  H17R 1802   4.901   5.694   7.637 -1.9235  1.1705 -0.4373
   14SAPS  H17S 1803   4.928   5.684   7.818 -1.1157 -0.0044  1.0255
   14SAPS  C218 1804   4.732   5.610   7.754 -0.2949 -0.2618  0.0562
   14SAPS  H18R 1805   4.710   5.520   7.815  0.9232 -2.1203 -2.1328
   14SAPS  H18S 1806   4.694   5.580   7.654 -2.0011  0.3269  0.4780
   14SAPS  C219 1807   4.649   5.731   7.800 -0.1474  0.5688 -0.3687
   14SAPS  H19R 1808   4.692   5.825   7.759  0.0162  0.0704 -1.3751
   14SAPS  H19S 1809   4.662   5.737   7.910  3.0650  2.4408 -0.7497
   14SAPS  C220 1810   4.498   5.723   7.766  0.5546 -0.0819 -0.8837
   14SAPS  H20R 1811   4.429   5.770   7.840  1.6614  3.2630 -1.8322
   14SAPS  H20S 1812   4.461   5.620   7.743  1.3381 -0.4748 -0.3981
   14SAPS  H20T 1813   4.495   5.772   7.666 -4.5903 -0.5208 -1.2352
   14SAPS   C33 1814   5.110   6.135   6.691  0.5188 -0.2404  0.4808
   14SAPS   H3X 1815   5.013   6.081   6.681 -0.3694  1.6530 -2.2531
   14SAPS   H3Y 1816   5.088   6.212   6.767 -1.9159 -0.6335  0.2746
   14SAPS   C34 1817   5.227   6.051   6.742  0.0772  0.7060  0.2304
   14SAPS   H4X 1818   5.320   6.110   6.759  0.5402  0.5365 -1.5531
   14SAPS   H4Y 1819   5.252   5.977   6.663  2.0638  2.9788 -1.4492
   14SAPS   C35 1820   5.179   5.990   6.876  0.7646 -0.5924 -0.0217
   14SAPS   H5X 1821   5.093   5.921   6.859  1.8405 -1.4107 -2.6826
   14SAPS   H5Y 1822   5.149   6.074   6.942 -0.2987 -0.2301 -0.9421
   14SAPS   C36 1823   5.276   5.898   6.956 -0.1083  0.3393  0.3870
   14SAPS   H6X 1824   5.309   5.823   6.880 -1.5573  0.4393 -0.3772
   14SAPS   H6Y 1825   5.213   5.862   7.040  1.5007 -0.2880  1.3690
   14SAPS   C37 1826   5.404   5.969   7.001  0.2538 -0.6261  0.9516
   14SAPS   H7X 1827   5.399   6.070   7.045  1.0354 -0.6112  1.0217
   14SAPS   H7Y 1828   5.466   5.986   6.910 -0.0333 -2.3234  0.4010
   14SAPS   C38 1829   5.497   5.882   7.076 -0.7195  0.7064  0.5690
   14SAPS   H8X 1830   5.596   5.931   7.066 -0.8238  1.2616  2.0496
   14SAPS   H8Y 1831   5.494   5.780   7.032  0.5690  1.9519 -2.7762
   14SAPS   C39 1832   5.459   5.879   7.223 -0.2548  0.2255  0.0027
   14SAPS   H9X 1833   5.364   5.822   7.239 -2.5264  3.4954 -0.7255
   14SAPS   H9Y 1834   5.447   5.984   7.255  1.6454  0.5137 -0.1505
   14SAPS  C310 1835   5.561   5.810   7.301  0.3371 -0.0308 -0.0161
   14SAPS  H10X 1836   5.654   5.869   7.294  1.4918 -1.8077 -0.3372
   14SAPS  H10Y 1837   5.583   5.710   7.258  1.9511 -0.6916  2.2056
   14SAPS  C311 1838   5.522   5.803   7.448 -0.1266  0.8342 -0.1973
   14SAPS  H11X 1839   5.585   5.719   7.482  1.3162  1.7654 -0.4981
   14SAPS  H11Y 1840   5.413   5.786   7.462  0.6172 -4.1828  1.5623
   14SAPS  C312 1841   5.569   5.928   7.534 -0.4512  0.5265 -0.3257
   14SAPS  H12X 1842   5.517   6.008   7.477  0.6587  2.0872  0.7492
   14SAPS  H12Y 1843   5.678   5.946   7.524 -0.3788 -0.6597 -2.0288
   14SAPS  C313 1844   5.535   5.925   7.691 -0.4292  0.0072  0.3206
   14SAPS  H13X 1845   5.431   5.887   7.695 -0.8244  1.0577  0.2776
   14SAPS  H13Y 1846   5.538   6.030   7.726 -0.6767 -0.3122  1.3569
   14SAPS  C314 1847   5.631   5.847   7.783 -0.5399 -0.6975 -0.0343
   14SAPS  H14X 1848   5.735   5.883   7.768 -1.3075  2.2875  1.0926
   14SAPS  H14Y 1849   5.616   5.738   7.770 -0.4444 -0.9595  1.7981
   14SAPS  C315 1850   5.602   5.867   7.932 -0.0696 -0.2059 -0.4516
   14SAPS  H15X 1851   5.497   5.836   7.950  0.1364 -1.5251 -1.3417
   14SAPS  H15Y 1852   5.614   5.975   7.952 -1.9926 -0.0724  0.1456
   14SAPS  C316 1853   5.699   5.787   8.018 -0.2220 -0.2946 -0.2125
   14SAPS  H16X 1854   5.806   5.817   8.009  0.8139 -3.0919  1.4306
   14SAPS  H16Y 1855   5.702   5.681   7.982 -1.3922 -0.7844  1.0621
   14SAPS  C317 1856   5.673   5.797   8.171 -0.2030  0.5605 -0.4427
   14SAPS  H17X 1857   5.727   5.709   8.212  0.1426  0.8309 -0.3123
   14SAPS  H17Y 1858   5.566   5.771   8.183  0.1982 -0.9662 -0.0272
   14SAPS  C318 1859   5.713   5.933   8.242 -0.2006  0.1195 -0.7112
   14SAPS  H18X 1860   5.716   5.928   8.353  2.9884  0.3739 -0.6849
   14SAPS  H18Y 1861   5.633   6.004   8.214 -0.2972  0.6564  0.8132
   14SAPS  H18Z 1862   5.820   5.956   8.221  0.1104  1.0071  1.5856
   15SAPS     N 1863   0.692   5.760   6.157 -0.3375  0.1191  0.1072
   15SAPS   HN1 1864   0.623   5.792   6.227  0.8732 -0.0770  1.4333
   15SAPS   HN2 1865   0.690   5.656   6.163 -3.1499  0.0966 -0.0076
   15SAPS   HN3 1866   0.788   5.780   6.193  0.0344 -1.9288  0.3946
   15SAPS   C12 1867   0.673   5.811   6.020 -1.1349 -0.2361  0.1037
   15SAPS  H12A 1868   0.724   5.906   6.009  0.4906 -0.9643  0.9671
   15SAPS   C13 1869   0.731   5.719   5.910  0.7029  0.0338 -0.0708
   15SAPS  O13A 1870   0.769   5.607   5.936 -0.3106  0.4518 -0.3074
   15SAPS  O13B 1871   0.763   5.772   5.800  0.1382  0.0199 -0.2458
   15SAPS   C11 1872   0.526   5.844   6.006 -0.1736  0.4485 -0.6186
   15SAPS  H11A 1873   0.509   5.865   5.899  0.7444 -0.4625 -0.9561
   15SAPS  H11B 1874   0.497   5.928   6.074 -2.4506  0.3008 -1.3030
   15SAPS     P 1875   0.292   5.709   6.004 -0.3198 -0.0815 -0.2148
   15SAPS   O13 1876   0.235   5.828   5.928 -0.1526  0.2628  0.1874
   15SAPS   O14 1877   0.278   5.579   5.939  0.3922  0.2273  0.1080
   15SAPS   O12 1878   0.443   5.728   6.041  0.0870  0.8388  0.4672
   15SAPS   O11 1879   0.219   5.704   6.142  0.0900 -0.1660  0.2579
   15SAPS    C1 1880   0.282   5.631   6.245 -0.0874  0.0584 -0.2140
   15SAPS    HA 1881   0.377   5.582   6.215  0.0145 -1.0375  1.7118
   15SAPS    HB 1882   0.313   5.712   6.315 -2.0716 -0.0464  0.8541
   15SAPS    C2 1883   0.171   5.545   6.302 -0.4946 -0.3718 -0.1417
   15SAPS    HS 1884   0.100   5.521   6.219  0.6253 -0.1105 -1.2045
   15SAPS   O21 1885   0.100   5.631   6.390  0.2001 -0.1469  0.0492
   15SAPS   C21 1886  -0.023   5.597   6.430 -0.0219 -0.2396 -0.8502
   15SAPS   O22 1887  -0.079   5.496   6.388 -0.1568  0.7071 -0.4503
   15SAPS   C22 1888  -0.084   5.695   6.531  0.2926 -0.0108 -0.7059
   15SAPS   H2R 1889  -0.007   5.764   6.573  1.0684 -1.7633  0.9179
   15SAPS   H2S 1890  -0.152   5.753   6.466 -0.4609 -0.7075 -0.5473
   15SAPS    C3 1891   0.227   5.422   6.378  0.8714  0.2389 -0.4263
   15SAPS    HX 1892   0.285   5.354   6.313 -0.5266 -0.1320 -1.3222
   15SAPS    HY 1893   0.138   5.365   6.413  2.4058 -1.1007  1.4590
   15SAPS   O31 1894   0.312   5.471   6.483  0.9206  0.4539 -0.1613
   15SAPS   C31 1895   0.307   5.420   6.601 -0.2160  0.4505  0.5155
   15SAPS   O32 1896   0.235   5.327   6.638  0.3947 -0.2584 -0.5518
   15SAPS   C32 1897   0.404   5.492   6.697 -0.7210  0.1885  0.2099
   15SAPS   H2X 1898   0.414   5.598   6.669  1.0560  0.7204  2.4973
   15SAPS   H2Y 1899   0.504   5.446   6.691 -0.7550 -0.1778  1.9227
   15SAPS   C23 1900  -0.147   5.620   6.655 -0.0784 -0.1153  0.1414
   15SAPS   H3R 1901  -0.206   5.533   6.619 -0.1589  0.1843 -0.4533
   15SAPS   H3S 1902  -0.219   5.687   6.705  0.8222  0.3950  0.7757
   15SAPS   C24 1903  -0.044   5.575   6.762 -0.7330 -0.4626  1.1857
   15SAPS   H4R 1904   0.013   5.667   6.786 -1.6556  0.1244  1.1627
   15SAPS   H4S 1905   0.019   5.493   6.720  0.6187  0.9315  0.3724
   15SAPS   C25 1906  -0.106   5.523   6.884 -0.0526  0.5642 -0.6335
   15SAPS   H5R 1907  -0.197   5.462   6.887  1.3945 -1.7377  1.6732
   15SAPS   C26 1908  -0.064   5.556   7.007  0.0263  0.6220 -0.1521
   15SAPS   H6R 1909  -0.140   5.534   7.084  0.0040  2.4203  0.3907
   15SAPS   C27 1910   0.048   5.645   7.056  0.4538 -0.0192 -0.2573
   15SAPS   H7R 1911   0.082   5.715   6.977  1.7630 -1.9469 -1.5037
   15SAPS   H7S 1912   0.140   5.588   7.083  1.6622  1.2043 -1.6089
   15SAPS   C28 1913   0.021   5.720   7.184  0.3664 -0.2558  0.1852
   15SAPS   H8R 1914  -0.024   5.820   7.178 -2.5301 -1.3928  0.9976
   15SAPS   C29 1915   0.040   5.680   7.307  0.0510  0.2300 -0.7924
   15SAPS   H9R 1916   0.013   5.749   7.388 -0.4826  0.9676 -1.5869
   15SAPS  C210 1917   0.089   5.542   7.350 -0.2717 -0.3826  0.5303
   15SAPS  H10R 1918   0.151   5.565   7.440 -0.2000 -1.3000  0.7316
   15SAPS  H10S 1919   0.164   5.508   7.276 -0.0805 -0.0329  0.5606
   15SAPS  C211 1920  -0.024   5.441   7.382 -0.9121 -0.1483 -0.8100
   15SAPS  H11R 1921  -0.068   5.402   7.289  1.0402 -2.5129 -0.8405
   15SAPS  C212 1922  -0.062   5.408   7.505  0.3607 -0.4588 -0.2737
   15SAPS  H12R 1923  -0.147   5.340   7.522  1.7047 -1.5854  2.6512
   15SAPS  C213 1924  -0.005   5.445   7.632 -0.5213 -0.5877  0.0750
   15SAPS  H13R 1925  -0.086   5.462   7.707 -1.0724 -0.8484 -0.4488
   15SAPS  H13S 1926   0.056   5.536   7.614 -0.5482 -0.5735  0.0539
   15SAPS  C214 1927   0.079   5.328   7.679  0.0449  0.3272 -0.4030
   15SAPS  H14R 1928   0.170   5.295   7.627  0.1049  1.4572 -1.0548
   15SAPS  C215 1929   0.048   5.257   7.792 -0.1092 -0.0241  0.5540
   15SAPS  H15R 1930   0.117   5.177   7.823  2.2924  1.9094  0.5118
   15SAPS  C216 1931  -0.072   5.275   7.886  0.2408 -0.1566 -0.4727
   15SAPS  H16R 1932  -0.157   5.227   7.832  0.5389  0.7404 -1.7755
   15SAPS  H16S 1933  -0.102   5.377   7.915  0.6187 -1.0040  3.3442
   15SAPS  C217 1934  -0.052   5.192   8.019  0.2015 -0.7437 -0.6149
   15SAPS  H17R 1935   0.012   5.107   7.988  1.3696  0.0631 -0.4741
   15SAPS  H17S 1936  -0.148   5.142   8.046  1.8572 -3.3780  0.8063
   15SAPS  C218 1937   0.014   5.268   8.135  0.2288 -0.3155  0.8339
   15SAPS  H18R 1938  -0.059   5.344   8.172  0.0752  0.0698 -0.2255
   15SAPS  H18S 1939   0.106   5.307   8.087 -0.4080  1.4449  0.9507
   15SAPS  C219 1940   0.054   5.165   8.239  0.5604  0.8096 -0.5088
   15SAPS  H19R 1941   0.079   5.219   8.333 -0.1937 -1.4087  1.0409
   15SAPS  H19S 1942   0.137   5.098   8.209  0.1934 -0.7368  1.6710
   15SAPS  C220 1943  -0.064   5.078   8.296  0.4161 -0.1960  1.0977
   15SAPS  H20R 1944  -0.110   5.002   8.229 -0.7535  1.8273 -0.5307
   15SAPS  H20S 1945  -0.149   5.140   8.331 -1.0721 -1.5910  0.0832
   15SAPS  H20T 1946  -0.036   5.031   8.392  0.0067  0.2807  1.4544
   15SAPS   C33 1947   0.357   5.463   6.841  0.0118  0.2714 -0.3011
   15SAPS   H3X 1948   0.375   5.358   6.872 -1.5857 -0.1986 -0.8700
   15SAPS   H3Y 1949   0.248   5.473   6.857  0.1233 -0.0659  0.7286
   15SAPS   C34 1950   0.425   5.560   6.937 -0.0045  0.5142  0.6459
   15SAPS   H4X 1951   0.373   5.657   6.921  2.2399  2.1422  2.6265
   15SAPS   H4Y 1952   0.530   5.577   6.906  0.2561 -3.4627 -1.3810
   15SAPS   C35 1953   0.422   5.530   7.085  0.4161 -0.1315  0.7974
   15SAPS   H5X 1954   0.505   5.462   7.114 -2.1746 -3.3545  1.2144
   15SAPS   H5Y 1955   0.337   5.463   7.111 -0.2347  0.1451 -0.5283
   15SAPS   C36 1956   0.422   5.665   7.156  0.4601 -0.0516 -0.1096
   15SAPS   H6X 1957   0.322   5.709   7.135 -0.6187 -2.6057 -0.6189
   15SAPS   H6Y 1958   0.506   5.725   7.115  1.6204 -1.6084 -0.0668
   15SAPS   C37 1959   0.448   5.653   7.305 -0.2004 -0.1258  0.2499
   15SAPS   H7X 1960   0.538   5.591   7.323  1.3685  2.0610  0.3788
   15SAPS   H7Y 1961   0.356   5.604   7.342 -1.4403  0.1747 -2.2009
   15SAPS   C38 1962   0.472   5.784   7.380 -0.6196  0.4432  0.1886
   15SAPS   H8X 1963   0.393   5.861   7.369 -1.2577 -0.4777 -2.2302
   15SAPS   H8Y 1964   0.571   5.824   7.352  0.0250  0.0598  1.7852
   15SAPS   C39 1965   0.503   5.756   7.532  0.8005 -1.1995 -0.1035
   15SAPS   H9X 1966   0.531   5.855   7.574 -3.4410  0.0979  0.1182
   15SAPS   H9Y 1967   0.591   5.694   7.559  0.8697 -1.2471 -0.4365
   15SAPS  C310 1968   0.384   5.711   7.613  0.2824 -0.0516 -0.4141
   15SAPS  H10X 1969   0.362   5.607   7.582  2.5235 -0.5858 -0.3598
   15SAPS  H10Y 1970   0.302   5.783   7.590  0.3360  0.2241  0.2255
   15SAPS  C311 1971   0.403   5.709   7.766 -0.2868 -0.7979 -0.5943
   15SAPS  H11X 1972   0.424   5.813   7.799 -3.6480 -0.5743  1.2112
   15SAPS  H11Y 1973   0.488   5.639   7.781 -0.6795 -1.5294 -1.6181
   15SAPS  C312 1974   0.277   5.650   7.843 -1.4202  0.5958  0.0338
   15SAPS  H12X 1975   0.251   5.553   7.795  0.0638  0.2337 -0.0899
   15SAPS  H12Y 1976   0.191   5.718   7.825 -1.3849  0.2025 -1.7794
   15SAPS  C313 1977   0.298   5.649   7.996 -0.5601 -0.1683  0.0481
   15SAPS  H13X 1978   0.204   5.633   8.052 -0.0728  3.6808  2.3401
   15SAPS  H13Y 1979   0.318   5.755   8.023 -0.9169  0.5321 -2.2110
   15SAPS  C314 1980   0.418   5.565   8.049  0.5197  0.2799  0.1631
   15SAPS  H14X 1981   0.433   5.578   8.158 -0.5808 -0.5094  0.4260
   15SAPS  H14Y 1982   0.509   5.599   7.996 -0.4846  1.1684 -1.0623
   15SAPS  C315 1983   0.403   5.410   8.031 -0.5067  0.2648 -0.6777
   15SAPS  H15X 1984   0.397   5.381   7.924 -1.0603 -0.6774 -0.4043
   15SAPS  H15Y 1985   0.301   5.385   8.069  0.6965 -1.5422  1.6210
   15SAPS  C316 1986   0.503   5.317   8.108  0.2463  0.2131  0.6944
   15SAPS  H16X 1987   0.490   5.213   8.070 -0.5034  0.4396  0.3066
   15SAPS  H16Y 1988   0.479   5.332   8.215 -0.4593  0.6281  0.4831
   15SAPS  C317 1989   0.654   5.364   8.077  0.4113 -0.0287  0.3567
   15SAPS  H17X 1990   0.662   5.467   8.118  3.3013 -0.4276  0.9785
   15SAPS  H17Y 1991   0.676   5.352   7.969  0.3527 -2.2583  0.5537
   15SAPS  C318 1992   0.764   5.287   8.148  0.1899  0.0498 -0.3415
   15SAPS  H18X 1993   0.866   5.295   8.105  0.7426  3.2420  1.2043
   15SAPS  H18Y 1994   0.741   5.179   8.154 -1.7261  0.4006 -0.7491
   15SAPS  H18Z 1995   0.770   5.329   8.251 -2.5614 -0.2066 -0.0201
   16SAPS     N 1996   1.959   5.665   6.202 -0.3896  0.1903 -0.3614
   16SAPS   HN1 1997   2.021   5.643   6.282 -1.3930 -1.2558  0.0640
   16SAPS   HN2 1998   1.866   5.695   6.237  0.4914  1.4534  0.9832
   16SAPS   HN3 1999   1.943   5.579   6.145  0.5135 -2.0686  2.5164
   16SAPS   C12 2000   2.012   5.777   6.124 -0.0071 -0.0901 -0.2442
   16SAPS  H12A 2001   2.090   5.736   6.062 -0.1527 -1.1032  0.2332
   16SAPS   C13 2002   1.905   5.828   6.019 -0.7616  0.3803  0.6449
   16SAPS  O13A 2003   1.799   5.763   5.984 -0.3850 -0.2825 -0.5695
   16SAPS  O13B 2004   1.946   5.918   5.944  0.0329 -0.8233  0.0617
   16SAPS   C11 2005   2.053   5.891   6.216 -0.0475  0.5679 -0.5420
   16SAPS  H11A 2006   2.104   5.968   6.154 -1.9769  2.0858 -0.3376
   16SAPS  H11B 2007   2.128   5.848   6.287  0.5006 -0.9892 -1.9842
   16SAPS     P 2008   1.935   6.074   6.361 -0.5465  0.1805  0.2758
   16SAPS   O13 2009   2.032   6.163   6.298  0.4063  0.0606 -0.3269
   16SAPS   O14 2010   1.799   6.135   6.374  0.0548  0.4098  1.1098
   16SAPS   O12 2011   1.935   5.942   6.278  0.3568  0.3968  0.2297
   16SAPS   O11 2012   1.994   6.042   6.498  0.0863  0.4864  0.4093
   16SAPS    C1 2013   1.964   5.907   6.550 -0.2311 -0.0005 -0.1949
   16SAPS    HA 2014   1.958   5.825   6.475  0.5482 -1.8114  1.6354
   16SAPS    HB 2015   2.042   5.877   6.623  0.8534  3.8351  0.4968
   16SAPS    C2 2016   1.841   5.906   6.640 -0.1733  0.4475  0.8734
   16SAPS    HS 2017   1.756   5.956   6.589  0.1216  2.2263  2.0246
   16SAPS   O21 2018   1.870   5.972   6.759  0.1681  0.0061 -0.0277
   16SAPS   C21 2019   1.781   5.999   6.848 -0.3678 -0.1460  0.4313
   16SAPS   O22 2020   1.662   5.975   6.839 -0.3376 -0.7641  0.2243
   16SAPS   C22 2021   1.838   6.068   6.968 -0.2376 -0.3863 -0.0764
   16SAPS   H2R 2022   1.945   6.093   6.951  0.7617 -3.1589  1.4290
   16SAPS   H2S 2023   1.782   6.163   6.979  0.7022  0.3815 -1.6039
   16SAPS    C3 2024   1.801   5.757   6.666 -0.0274 -0.5615  0.3718
   16SAPS    HX 2025   1.785   5.708   6.567 -1.1490 -2.7729  1.5780
   16SAPS    HY 2026   1.708   5.749   6.725 -1.0717 -0.0924 -1.1378
   16SAPS   O31 2027   1.908   5.683   6.732 -0.4608 -0.8044 -0.0770
   16SAPS   C31 2028   1.897   5.558   6.728  0.2318 -0.2133 -0.0818
   16SAPS   O32 2029   1.805   5.489   6.682 -0.5484 -0.1548 -0.9945
   16SAPS   C32 2030   2.036   5.501   6.771 -0.1187 -0.5896 -0.1827
   16SAPS   H2X 2031   2.101   5.517   6.683 -1.2540  0.6754 -0.8335
   16SAPS   H2Y 2032   2.023   5.392   6.787 -2.0810 -0.2947  0.4907
   16SAPS   C23 2033   1.823   5.995   7.105  0.0662  0.5489  0.4211
   16SAPS   H3R 2034   1.719   5.957   7.113  0.5371 -0.4252  2.6152
   16SAPS   H3S 2035   1.837   6.069   7.187 -0.0998  1.5776 -0.4556
   16SAPS   C24 2036   1.932   5.874   7.116  0.1108  0.1017 -0.1913
   16SAPS   H4R 2037   1.916   5.806   7.029  1.2370 -0.1467 -0.2130
   16SAPS   H4S 2038   1.910   5.813   7.206 -1.9104  3.3892  1.7696
   16SAPS   C25 2039   2.081   5.916   7.117 -0.4117 -0.1642 -0.2954
   16SAPS   H5R 2040   2.130   5.913   7.019 -0.3759  0.6339 -0.3056
   16SAPS   C26 2041   2.163   5.911   7.228  0.0480 -0.3105  0.1255
   16SAPS   H6R 2042   2.270   5.934   7.218  1.4900 -4.7467  2.6853
   16SAPS   C27 2043   2.127   5.884   7.373 -0.1820 -0.2973 -0.0631
   16SAPS   H7R 2044   2.175   5.786   7.397 -0.2060 -0.0053  1.2580
   16SAPS   H7S 2045   2.020   5.858   7.383  0.7394 -4.8413  0.4119
   16SAPS   C28 2046   2.155   5.994   7.469  0.0981  0.1255 -0.3230
   16SAPS   H8R 2047   2.184   6.091   7.427 -1.1359  0.6017 -0.1039
   16SAPS   C29 2048   2.128   5.982   7.604  0.5298 -0.6517  0.2262
   16SAPS   H9R 2049   2.151   6.074   7.661 -2.4373  1.9341 -2.3823
   16SAPS  C210 2050   2.086   5.860   7.685 -0.0793  0.4777 -0.4303
   16SAPS  H10R 2051   2.151   5.858   7.775 -2.9082 -0.9047  1.7587
   16SAPS  H10S 2052   2.096   5.761   7.636 -0.0586 -1.0122  2.3367
   16SAPS  C211 2053   1.949   5.879   7.732 -0.0138 -0.3961  0.0636
   16SAPS  H11R 2054   1.868   5.865   7.660 -1.1720 -0.6180  1.3634
   16SAPS  C212 2055   1.915   5.933   7.848 -0.0765 -0.4019 -0.0966
   16SAPS  H12R 2056   1.808   5.947   7.869  0.5034  0.8126  2.3990
   16SAPS  C213 2057   2.007   5.993   7.950  0.0368  0.5769 -0.1688
   16SAPS  H13R 2058   2.109   6.025   7.922  0.6324  0.3450  1.5939
   16SAPS  H13S 2059   2.022   5.913   8.027 -1.3210  0.9006  0.4708
   16SAPS  C214 2060   1.939   6.116   8.008 -0.4018 -0.0433 -0.3754
   16SAPS  H14R 2061   1.947   6.206   7.944  1.7102 -0.5429 -0.8912
   16SAPS  C215 2062   1.852   6.121   8.118 -0.2771  0.3781 -0.0701
   16SAPS  H15R 2063   1.828   6.216   8.167 -0.4292  0.5700 -0.5163
   16SAPS  C216 2064   1.823   6.004   8.207  0.4148  0.5911 -1.0147
   16SAPS  H16R 2065   1.908   5.936   8.227 -0.1390  0.3364  0.6387
   16SAPS  H16S 2066   1.737   5.950   8.162 -0.7585  1.2396  0.3664
   16SAPS  C217 2067   1.781   6.051   8.349 -0.2632 -0.1675  0.1100
   16SAPS  H17R 2068   1.723   6.145   8.339 -0.1369 -0.0311  0.6161
   16SAPS  H17S 2069   1.872   6.067   8.411  1.4640 -2.0213 -1.7692
   16SAPS  C218 2070   1.686   5.956   8.413  0.4167  0.4714  0.7754
   16SAPS  H18R 2071   1.719   5.944   8.518 -1.7571 -0.8937  1.3843
   16SAPS  H18S 2072   1.707   5.855   8.370  0.9676  0.5357  0.8876
   16SAPS  C219 2073   1.541   5.986   8.405  0.1756 -0.4464 -1.0135
   16SAPS  H19R 2074   1.485   5.895   8.436 -0.6108  0.0053 -1.1010
   16SAPS  H19S 2075   1.506   5.998   8.301 -0.5251 -0.2678 -0.7586
   16SAPS  C220 2076   1.492   6.096   8.508 -0.8164 -0.2575 -0.1570
   16SAPS  H20R 2077   1.519   6.198   8.472 -1.3449 -0.0934 -0.1022
   16SAPS  H20S 2078   1.543   6.075   8.604  0.8455  3.4970 -0.0662
   16SAPS  H20T 2079   1.382   6.103   8.523 -0.4527  1.5517  2.2721
   16SAPS   C33 2080   2.090   5.563   6.906 -0.2141 -0.1954  0.2281
   16SAPS   H3X 2081   2.083   5.674   6.911 -2.1557 -0.3187  1.0872
   16SAPS   H3Y 2082   2.192   5.521   6.908 -0.6186 -1.1811  0.6028
   16SAPS   C34 2083   2.039   5.495   7.033 -0.3901 -0.3605 -0.7908
   16SAPS   H4X 2084   2.042   5.387   7.008  2.0900 -0.1294 -1.7591
   16SAPS   H4Y 2085   1.930   5.514   7.047 -0.4282 -0.4692 -0.9344
   16SAPS   C35 2086   2.114   5.536   7.155  0.6233  0.6096  0.2374
   16SAPS   H5X 2087   2.101   5.645   7.170 -1.0623  0.8051 -2.0692
   16SAPS   H5Y 2088   2.224   5.524   7.144  0.5191  1.3596 -2.1023
   16SAPS   C36 2089   2.070   5.453   7.272  0.1793  0.7057 -0.7379
   16SAPS   H6X 2090   2.163   5.423   7.324 -1.1316 -0.2578  1.2017
   16SAPS   H6Y 2091   2.014   5.367   7.231 -0.0349  1.0687 -1.2149
   16SAPS   C37 2092   1.971   5.527   7.364 -0.1288 -0.7207  0.7507
   16SAPS   H7X 2093   1.866   5.495   7.345 -0.0390 -1.2552  1.1072
   16SAPS   H7Y 2094   1.988   5.635   7.345  1.6294 -1.3397 -1.5815
   16SAPS   C38 2095   1.991   5.511   7.515 -0.2378 -0.1055 -0.0240
   16SAPS   H8X 2096   1.915   5.578   7.561  1.3750  1.6622  0.1601
   16SAPS   H8Y 2097   2.095   5.540   7.542 -0.1100 -2.0037  1.8004
   16SAPS   C39 2098   1.975   5.360   7.555 -0.0503 -0.0965  0.1599
   16SAPS   H9X 2099   2.032   5.304   7.477 -0.6218 -1.2489  0.5408
   16SAPS   H9Y 2100   1.872   5.325   7.535  0.7952 -2.6533 -0.2444
   16SAPS  C310 2101   2.018   5.331   7.701 -0.1080  0.4225  0.0077
   16SAPS  H10X 2102   2.128   5.327   7.713 -0.0288 -0.0609 -0.8556
   16SAPS  H10Y 2103   1.973   5.233   7.727  1.2015 -0.0636  0.4873
   16SAPS  C311 2104   1.964   5.423   7.816 -0.7143  0.0675 -0.1482
   16SAPS  H11X 2105   1.855   5.442   7.808 -0.8337 -1.0767 -2.1246
   16SAPS  H11Y 2106   2.003   5.523   7.789 -0.9878  0.2032 -0.0385
   16SAPS  C312 2107   1.993   5.386   7.961 -0.4203  0.2822 -0.6941
   16SAPS  H12X 2108   2.102   5.387   7.981 -0.6425 -1.1510  0.8201
   16SAPS  H12Y 2109   1.972   5.278   7.976 -1.4722  0.7213  1.2971
   16SAPS  C313 2110   1.935   5.478   8.060 -0.3014 -0.9853 -0.2657
   16SAPS  H13X 2111   1.825   5.462   8.057 -0.4310 -0.0387 -2.4705
   16SAPS  H13Y 2112   1.942   5.584   8.028  1.3900 -0.8203  0.5838
   16SAPS  C314 2113   1.978   5.464   8.204  0.0292 -0.2409  0.0393
   16SAPS  H14X 2114   1.922   5.545   8.256 -1.2882 -1.5242  0.6647
   16SAPS  H14Y 2115   2.087   5.485   8.205 -0.1896  0.9831  0.1984
   16SAPS  C315 2116   1.942   5.330   8.264 -0.7543 -0.1046  0.2987
   16SAPS  H15X 2117   1.971   5.253   8.189 -3.7594  0.7511 -1.9751
   16SAPS  H15Y 2118   1.831   5.330   8.273 -0.7771  2.0792  0.6932
   16SAPS  C316 2119   2.022   5.304   8.385 -0.0639 -0.2159  0.1491
   16SAPS  H16X 2120   1.961   5.223   8.430 -1.2447  0.9405  0.6709
   16SAPS  H16Y 2121   2.011   5.384   8.461 -0.1819  0.8978 -1.0106
   16SAPS  C317 2122   2.163   5.276   8.343 -0.5505  0.4290 -0.4270
   16SAPS  H17X 2123   2.211   5.376   8.346 -1.3450  0.8562 -1.2524
   16SAPS  H17Y 2124   2.178   5.235   8.241  1.3218  3.0687 -1.3263
   16SAPS  C318 2125   2.223   5.178   8.438 -0.3323 -0.3639 -0.6794
   16SAPS  H18X 2126   2.190   5.220   8.536 -0.3918 -1.5903 -0.1513
   16SAPS  H18Y 2127   2.332   5.157   8.428 -0.0909  0.8343 -0.7326
   16SAPS  H18Z 2128   2.168   5.081   8.432  1.6441 -1.6456  0.6359
   17SAPC     N 2129   0.644   3.914  10.799  0.2887 -0.4505  0.2632
   17SAPC   C12 2130   0.616   3.885  10.653  0.3897  0.1725 -0.0654
   17SAPC  H12A 2131   0.682   3.948  10.596  2.6124 -0.9521  1.1226
   17SAPC  H12B 2132   0.519   3.922  10.623  0.8510 -0.6284 -2.8391
   17SAPC   C13 2133   0.780   3.868  10.838  0.0873  0.0813  0.7377
   17SAPC  H13A 2134   0.863   3.906  10.781 -1.1371  0.5225 -0.8422
   17SAPC  H13B 2135   0.801   3.894  10.940 -0.8261  0.8043  0.7463
   17SAPC  H13C 2136   0.787   3.760  10.828 -1.3841  0.0304 -0.0912
   17SAPC   C14 2137   0.641   4.056  10.831  0.4897 -0.5443 -0.1962
   17SAPC  H14A 2138   0.640   4.062  10.939 -2.1956  0.3077 -0.1909
   17SAPC  H14B 2139   0.720   4.113  10.784 -0.1010 -0.2833 -0.8889
   17SAPC  H14C 2140   0.548   4.100  10.797  0.3171 -1.0217 -0.3506
   17SAPC   C15 2141   0.541   3.843  10.880 -0.5537 -0.3609  0.0960
   17SAPC  H15A 2142   0.442   3.886  10.868 -0.0885  2.0557  3.4073
   17SAPC  H15B 2143   0.538   3.740  10.848 -3.2529 -1.0693  2.2309
   17SAPC  H15C 2144   0.569   3.850  10.984 -0.1330 -1.9851  0.1103
   17SAPC   C11 2145   0.638   3.750  10.587 -0.3253 -0.3829  0.2544
   17SAPC  H11A 2146   0.590   3.746  10.486 -1.3887 -0.5913  0.7517
   17SAPC  H11B 2147   0.591   3.671  10.649  0.1347 -0.0405  1.0436
   17SAPC     P 2148   0.882   3.794  10.502 -0.0942  0.0655 -0.4840
   17SAPC   O13 2149   0.891   3.941  10.522  0.5966 -0.2978 -0.5973
   17SAPC   O14 2150   1.014   3.726  10.518  0.2311  0.0786  0.0795
   17SAPC   O12 2151   0.775   3.716  10.585 -0.3543  0.1201 -0.1564
   17SAPC   O11 2152   0.830   3.768  10.360 -0.3718 -0.0214 -0.2810
   17SAPC    C1 2153   0.831   3.637  10.305  0.0076 -0.6150  0.0688
   17SAPC    HA 2154   0.816   3.566  10.389  0.3630  0.9468  1.5069
   17SAPC    HB 2155   0.746   3.627  10.233  1.0221  1.2879 -1.4744
   17SAPC    C2 2156   0.970   3.615  10.247  0.0904 -0.2241  0.1839
   17SAPC    HS 2157   1.056   3.658  10.303 -0.0136 -0.1209  0.2638
   17SAPC   O21 2158   0.976   3.682  10.122  0.1804 -0.1716 -0.3939
   17SAPC   C21 2159   1.092   3.679  10.059  0.4203  0.3214 -0.5819
   17SAPC   O22 2160   1.199   3.645  10.104  0.0535 -0.0410 -0.0291
   17SAPC   C22 2161   1.064   3.711   9.907 -0.0778 -0.0421 -0.1862
   17SAPC   H2R 2162   0.968   3.657   9.891  0.0787 -0.3181 -0.2028
   17SAPC   H2S 2163   1.043   3.819   9.898 -2.8963 -0.4671  0.4371
   17SAPC    C3 2164   1.001   3.461  10.228  0.3136 -0.1109 -0.5928
   17SAPC    HX 2165   0.998   3.410  10.327 -0.0206 -0.0842 -0.5883
   17SAPC    HY 2166   1.103   3.435  10.191 -0.4512 -4.0126 -0.4476
   17SAPC   O31 2167   0.899   3.398  10.157  0.2214  0.0882  0.7040
   17SAPC   C31 2168   0.907   3.386  10.018  0.9342 -0.1301  0.8788
   17SAPC   O32 2169   1.004   3.408   9.953 -0.3041 -0.0918  1.0362
   17SAPC   C32 2170   0.768   3.338   9.963  0.6424 -0.0147  0.3864
   17SAPC   H2X 2171   0.690   3.370  10.036  1.5946 -3.2931  3.0931
   17SAPC   H2Y 2172   0.755   3.228   9.973 -1.7545  0.1824  0.1543
   17SAPC   C23 2173   1.168   3.659   9.802 -0.3354  0.0183  0.0919
   17SAPC   H3R 2174   1.162   3.548   9.810  1.5566 -0.0635  0.8508
   17SAPC   H3S 2175   1.267   3.688   9.844 -0.4786  1.0491 -0.2679
   17SAPC   C24 2176   1.161   3.717   9.659 -0.3663 -0.4443 -0.1179
   17SAPC   H4R 2177   1.248   3.673   9.606  0.7278  1.1537  0.2770
   17SAPC   H4S 2178   1.188   3.824   9.671  0.8947 -0.9092  1.7576
   17SAPC   C25 2179   1.038   3.687   9.584  0.3474  0.1357  0.1449
   17SAPC   H5R 2180   0.990   3.594   9.616  1.0200 -0.8291 -1.5541
   17SAPC   C26 2181   0.974   3.756   9.488  0.2862  0.0594 -0.0702
   17SAPC   H6R 2182   0.875   3.723   9.453  0.4626  0.7383 -1.2685
   17SAPC   C27 2183   1.025   3.881   9.422  0.4121  0.6351 -0.2011
   17SAPC   H7R 2184   1.123   3.910   9.467  0.1713  3.4457 -1.2839
   17SAPC   H7S 2185   0.958   3.965   9.451 -0.4826 -0.2213  0.2852
   17SAPC   C28 2186   1.048   3.858   9.274  0.0807  0.7273 -0.3710
   17SAPC   H8R 2187   1.121   3.779   9.249  2.0311  2.1070  0.7084
   17SAPC   C29 2188   0.997   3.931   9.175 -0.1825 -0.0408  0.8564
   17SAPC   H9R 2189   1.028   3.911   9.071  0.3323  1.6461  0.6502
   17SAPC  C210 2190   0.916   4.065   9.188 -0.2670  0.2129 -0.4384
   17SAPC  H10R 2191   0.892   4.081   9.295  0.7148 -1.4594  0.0662
   17SAPC  H10S 2192   0.825   4.063   9.124 -0.4109  1.9465 -0.3256
   17SAPC  C211 2193   1.000   4.178   9.152 -0.5442 -0.2752  0.7004
   17SAPC  H11R 2194   1.107   4.155   9.142 -0.5833  0.3758 -2.2177
   17SAPC  C212 2195   0.950   4.307   9.144  0.1613 -0.3109  0.0909
   17SAPC  H12R 2196   1.011   4.388   9.102  0.4663 -0.6702 -0.1631
   17SAPC  C213 2197   0.809   4.346   9.155  0.0715  0.1510  0.0188
   17SAPC  H13R 2198   0.734   4.268   9.179  2.5079 -2.1497  0.6163
   17SAPC  H13S 2199   0.767   4.383   9.059  0.0488 -2.0346 -0.8671
   17SAPC  C214 2200   0.777   4.467   9.242  0.2983 -0.2588 -0.4907
   17SAPC  H14R 2201   0.807   4.566   9.205  0.1384  0.1871  0.5316
   17SAPC  C215 2202   0.725   4.464   9.365  0.5426 -0.2137  0.1071
   17SAPC  H15R 2203   0.693   4.562   9.403  1.9532  1.1559 -1.9994
   17SAPC  C216 2204   0.681   4.346   9.443 -0.2543 -0.0523  0.7444
   17SAPC  H16R 2205   0.733   4.331   9.540  0.3129  0.5552  0.5397
   17SAPC  H16S 2206   0.686   4.247   9.391 -5.3592  0.3985 -1.1911
   17SAPC  C217 2207   0.536   4.370   9.474 -0.2789 -0.1563  0.4465
   17SAPC  H17R 2208   0.516   4.455   9.542  0.4508  0.0967  0.3492
   17SAPC  H17S 2209   0.509   4.280   9.534  0.3432 -0.5498  0.1509
   17SAPC  C218 2210   0.444   4.379   9.356 -0.1847  0.0902 -1.0995
   17SAPC  H18R 2211   0.478   4.316   9.272  4.2162 -0.5916  0.9275
   17SAPC  H18S 2212   0.435   4.484   9.320 -2.1024  0.6783  0.8781
   17SAPC  C219 2213   0.299   4.328   9.397  0.0697  0.1966 -0.7924
   17SAPC  H19R 2214   0.257   4.378   9.487  0.2740 -2.3912  0.8663
   17SAPC  H19S 2215   0.304   4.221   9.428  2.4736  0.1436 -1.1425
   17SAPC  C220 2216   0.200   4.349   9.280  0.6129  0.2688 -0.3198
   17SAPC  H20R 2217   0.237   4.291   9.193  1.4037  1.0773 -0.5365
   17SAPC  H20S 2218   0.196   4.455   9.248 -0.0912  0.5457  0.6493
   17SAPC  H20T 2219   0.105   4.303   9.315 -1.1373  1.8466 -2.7200
   17SAPC   C33 2220   0.736   3.402   9.819 -0.4767  0.4296 -0.5645
   17SAPC   H3X 2221   0.752   3.511   9.819  0.6214  0.2825 -1.7347
   17SAPC   H3Y 2222   0.631   3.371   9.795 -0.8838  0.3294  1.2314
   17SAPC   C34 2223   0.821   3.338   9.710  0.3245  0.2575 -0.1086
   17SAPC   H4X 2224   0.815   3.228   9.712  2.6224 -0.0039 -2.4808
   17SAPC   H4Y 2225   0.928   3.369   9.709  0.4387 -0.1545 -0.6315
   17SAPC   C35 2226   0.754   3.387   9.574  0.0378 -0.5027  0.1612
   17SAPC   H5X 2227   0.765   3.498   9.567  0.2109 -0.5437 -0.2823
   17SAPC   H5Y 2228   0.646   3.362   9.571  0.3714 -2.0371  0.3721
   17SAPC   C36 2229   0.834   3.331   9.451 -0.4249  0.4731  0.3167
   17SAPC   H6X 2230   0.828   3.221   9.467 -0.5917 -0.1557 -3.1697
   17SAPC   H6Y 2231   0.940   3.363   9.454 -0.7112  1.3737  1.4268
   17SAPC   C37 2232   0.777   3.366   9.313  0.5958  0.0210  0.2637
   17SAPC   H7X 2233   0.669   3.377   9.336  0.4809 -1.1964  0.3531
   17SAPC   H7Y 2234   0.776   3.275   9.249 -1.0326  0.7134 -0.7591
   17SAPC   C38 2235   0.846   3.478   9.227 -0.3859 -0.3452 -0.6357
   17SAPC   H8X 2236   0.941   3.429   9.196 -0.1642 -0.1020 -0.3478
   17SAPC   H8Y 2237   0.853   3.574   9.282 -2.5282 -0.5328  0.0584
   17SAPC   C39 2238   0.771   3.517   9.105  0.4458 -0.3496  0.2280
   17SAPC   H9X 2239   0.679   3.570   9.138  0.0589 -1.0669  0.3249
   17SAPC   H9Y 2240   0.734   3.426   9.053 -0.3173  0.2851 -0.3675
   17SAPC  C310 2241   0.864   3.612   9.023  0.0150 -0.3569 -0.7050
   17SAPC  H10X 2242   0.960   3.562   8.997 -0.2476 -1.6295  0.6436
   17SAPC  H10Y 2243   0.896   3.690   9.094  1.2395 -2.4649  1.2036
   17SAPC  C311 2244   0.791   3.683   8.903  0.2535 -0.5709  0.2833
   17SAPC  H11X 2245   0.847   3.776   8.880  0.4483 -0.4503  1.2403
   17SAPC  H11Y 2246   0.687   3.706   8.935 -0.5223 -1.7390 -1.2382
   17SAPC  C312 2247   0.785   3.599   8.777 -0.9366 -0.9464 -0.1015
   17SAPC  H12X 2248   0.716   3.514   8.797 -0.2110 -1.8280 -1.2021
   17SAPC  H12Y 2249   0.889   3.563   8.758 -0.8750 -1.5801  1.3231
   17SAPC  C313 2250   0.724   3.660   8.656  0.5395  0.4165  0.2405
   17SAPC  H13X 2251   0.719   3.590   8.570 -2.2495 -0.5309  1.0787
   17SAPC  H13Y 2252   0.788   3.746   8.625 -0.6220  0.7168 -1.4759
   17SAPC  C314 2253   0.583   3.716   8.685  0.1041 -0.0652  0.5394
   17SAPC  H14X 2254   0.581   3.805   8.752  0.5948  0.4520 -0.1126
   17SAPC  H14Y 2255   0.538   3.640   8.752  0.5500 -0.0408  0.8759
   17SAPC  C315 2256   0.494   3.745   8.559  0.5720 -0.2624  0.2420
   17SAPC  H15X 2257   0.393   3.764   8.601 -0.3605  0.4744 -2.1425
   17SAPC  H15Y 2258   0.496   3.657   8.491  2.2874  0.4135 -0.6620
   17SAPC  C316 2259   0.545   3.862   8.475  0.1665 -0.5687 -0.0061
   17SAPC  H16X 2260   0.640   3.831   8.427  0.0388 -1.1717  0.1117
   17SAPC  H16Y 2261   0.565   3.955   8.531  2.8411 -0.9009 -0.2814
   17SAPC  C317 2262   0.452   3.889   8.352 -0.3147  0.2042 -0.4063
   17SAPC  H17X 2263   0.447   3.799   8.287 -0.6449 -1.2706  1.5791
   17SAPC  H17Y 2264   0.491   3.970   8.287 -1.1327  0.4882 -0.5501
   17SAPC  C318 2265   0.310   3.936   8.378  0.2500 -0.0424  0.4320
   17SAPC  H18X 2266   0.247   3.951   8.288 -0.0910 -3.3678 -0.0250
   17SAPC  H18Y 2267   0.251   3.869   8.445  0.6744 -0.7737  0.0885
   17SAPC  H18Z 2268   0.318   4.028   8.440  2.1658  0.2811 -0.2349
   18SAPC     N 2269   6.478   5.058  10.888  0.1542  0.2318 -0.6572
   18SAPC   C12 2270   6.514   5.118  10.754 -0.5504 -0.1138 -0.9356
   18SAPC  H12A 2271   6.569   5.046  10.695 -0.5663 -1.1633  0.2761
   18SAPC  H12B 2272   6.581   5.201  10.770 -1.4184  0.9779 -2.6412
   18SAPC   C13 2273   6.597   4.997  10.949 -0.4673  0.7163 -0.2343
   18SAPC  H13A 2274   6.684   5.058  10.931  1.9218 -2.1071  0.9669
   18SAPC  H13B 2275   6.601   4.986  11.057  1.6000 -0.2719 -0.3786
   18SAPC  H13C 2276   6.618   4.898  10.911  0.2948  0.2305  1.3635
   18SAPC   C14 2277   6.431   5.168  10.980 -0.0055 -0.3999 -0.0775
   18SAPC  H14A 2278   6.389   5.127  11.071  0.8457 -0.4656  0.2918
   18SAPC  H14B 2279   6.501   5.249  10.997 -1.2868  0.9047 -0.7671
   18SAPC  H14C 2280   6.348   5.213  10.927 -0.7322 -4.5874 -2.9953
   18SAPC   C15 2281   6.372   4.953  10.870  0.0108 -0.6978  0.1540
   18SAPC  H15A 2282   6.359   4.895  10.960  1.9087 -0.9263  0.3264
   18SAPC  H15B 2283   6.274   4.987  10.840 -0.2041  1.7445  3.1094
   18SAPC  H15C 2284   6.392   4.883  10.790  1.1852  1.2083 -1.3571
   18SAPC   C11 2285   6.409   5.174  10.661  0.0439  0.0538  0.0171
   18SAPC  H11A 2286   6.341   5.087  10.650  0.0713 -0.2351  1.8485
   18SAPC  H11B 2287   6.437   5.185  10.554 -0.5450 -3.1284 -0.5603
   18SAPC     P 2288   6.402   5.429  10.659 -0.6705 -0.5280  0.5126
   18SAPC   O13 2289   6.333   5.536  10.739  0.2964  0.3570 -0.0131
   18SAPC   O14 2290   6.547   5.433  10.649 -0.1144  0.0326 -0.1624
   18SAPC   O12 2291   6.350   5.292  10.717 -0.3063  0.1170  0.4487
   18SAPC   O11 2292   6.322   5.437  10.517  0.3146  0.6263 -0.0877
   18SAPC    C1 2293   6.389   5.427  10.393  1.0907  0.3171 -0.0523
   18SAPC    HA 2294   6.436   5.327  10.387 -0.7232 -0.6698  1.3476
   18SAPC    HB 2295   6.317   5.437  10.310  2.0653  0.8625 -0.8649
   18SAPC    C2 2296   6.491   5.543  10.354 -0.5142 -0.0689 -0.4611
   18SAPC    HS 2297   6.562   5.537  10.440 -2.5474 -0.2119  1.3108
   18SAPC   O21 2298   6.416   5.666  10.360 -0.3023 -0.5836 -0.1380
   18SAPC   C21 2299   6.481   5.771  10.386 -0.1495 -0.4280  0.1973
   18SAPC   O22 2300   6.603   5.783  10.406  0.0617  0.1409  0.1685
   18SAPC   C22 2301   6.379   5.892  10.390  0.4540  0.2400 -1.4021
   18SAPC   H2R 2302   6.327   5.893  10.292 -0.8188  2.3200 -0.7840
   18SAPC   H2S 2303   6.304   5.867  10.468  0.0766  0.6698 -1.6195
   18SAPC    C3 2304   6.573   5.527  10.226  0.0782  0.5835 -0.1755
   18SAPC    HX 2305   6.645   5.445  10.246 -1.1371  0.0300  2.2827
   18SAPC    HY 2306   6.636   5.617  10.208  1.5742 -0.3410  0.2321
   18SAPC   O31 2307   6.488   5.501  10.113 -0.2441  0.5280  0.0836
   18SAPC   C31 2308   6.489   5.380  10.043 -0.1800 -0.7399  0.3615
   18SAPC   O32 2309   6.552   5.283  10.084  0.4709  0.1195  0.9459
   18SAPC   C32 2310   6.412   5.402   9.904  0.2258 -0.0834 -0.8050
   18SAPC   H2X 2311   6.447   5.488   9.844  0.1793  0.8819  0.5290
   18SAPC   H2Y 2312   6.305   5.401   9.936  0.8792 -2.6063  1.7917
   18SAPC   C23 2313   6.444   6.030  10.428  0.1202  0.0635 -0.3317
   18SAPC   H3R 2314   6.496   6.023  10.526 -0.8766 -0.3410  0.1770
   18SAPC   H3S 2315   6.363   6.103  10.445 -0.6969 -0.4425 -1.8295
   18SAPC   C24 2316   6.537   6.087  10.318  0.5708  0.0166 -1.0828
   18SAPC   H4R 2317   6.608   6.009  10.282 -0.1422 -2.6264  2.6786
   18SAPC   H4S 2318   6.583   6.180  10.357  0.9063 -0.4051 -0.4538
   18SAPC   C25 2319   6.454   6.121  10.202 -0.8272  0.1323  0.4340
   18SAPC   H5R 2320   6.374   6.190  10.233  0.1287  0.5781  2.0359
   18SAPC   C26 2321   6.467   6.082  10.073  0.0079  0.3671 -0.1918
   18SAPC   H6R 2322   6.404   6.114   9.989  1.0769 -0.0265 -1.1733
   18SAPC   C27 2323   6.572   5.993  10.019  0.3098 -0.1076  0.1591
   18SAPC   H7R 2324   6.517   5.899   9.997 -1.0399 -0.2373  3.4368
   18SAPC   H7S 2325   6.647   5.960  10.093 -0.0990  1.3319  1.2641
   18SAPC   C28 2326   6.634   6.045   9.891 -0.3300 -0.4004  0.7791
   18SAPC   H8R 2327   6.742   6.064   9.898  0.6539 -3.9635 -1.7777
   18SAPC   C29 2328   6.584   6.045   9.766  0.7909 -0.2528  0.5595
   18SAPC   H9R 2329   6.647   6.068   9.679  1.6691  0.1961  1.2871
   18SAPC  C210 2330   6.444   6.005   9.729  0.4456  0.0713 -0.3070
   18SAPC  H10R 2331   6.374   6.034   9.810  0.1212  2.7376 -1.4234
   18SAPC  H10S 2332   6.437   5.895   9.725 -2.2305  0.1036  1.1822
   18SAPC  C211 2333   6.408   6.063   9.590 -0.1155  0.3679 -0.2768
   18SAPC  H11R 2334   6.386   6.171   9.600  0.0220  0.2412  1.8433
   18SAPC  C212 2335   6.388   6.006   9.471 -0.2978 -0.7780  0.0110
   18SAPC  H12R 2336   6.371   6.075   9.387  1.2427 -0.4685 -0.0908
   18SAPC  C213 2337   6.420   5.861   9.439  0.1854  0.0404  0.3305
   18SAPC  H13R 2338   6.403   5.794   9.527  2.2735 -0.8257  0.1268
   18SAPC  H13S 2339   6.527   5.841   9.416 -0.1849  0.1038 -1.6171
   18SAPC  C214 2340   6.331   5.808   9.331 -0.0804 -0.9147 -0.0887
   18SAPC  H14R 2341   6.234   5.760   9.352 -0.3390 -0.8076 -0.9643
   18SAPC  C215 2342   6.356   5.813   9.197 -0.3863  0.8984  0.3465
   18SAPC  H15R 2343   6.288   5.756   9.131 -1.2271 -0.5487  2.3626
   18SAPC  C216 2344   6.483   5.862   9.134  0.1898  0.5075  0.1363
   18SAPC  H16R 2345   6.572   5.818   9.184 -1.5801  0.2384  3.2449
   18SAPC  H16S 2346   6.477   5.972   9.146  0.2967  0.5410 -0.0963
   18SAPC  C217 2347   6.497   5.808   8.991  0.4040 -0.2951 -0.5966
   18SAPC  H17R 2348   6.484   5.698   8.994  1.0123 -0.3541  0.0703
   18SAPC  H17S 2349   6.599   5.836   8.957  0.4677  0.1262 -0.0565
   18SAPC  C218 2350   6.390   5.867   8.891 -1.2880  0.7414  0.2911
   18SAPC  H18R 2351   6.405   5.976   8.898  0.4205  0.6503 -1.2595
   18SAPC  H18S 2352   6.288   5.835   8.921 -1.1750 -2.2931 -2.0251
   18SAPC  C219 2353   6.408   5.812   8.746  0.3340 -0.1806 -0.6684
   18SAPC  H19R 2354   6.407   5.700   8.743 -0.9369 -0.2038  0.0766
   18SAPC  H19S 2355   6.508   5.851   8.715  0.4916  1.4396  1.6488
   18SAPC  C220 2356   6.298   5.861   8.651 -0.4573  0.9445 -0.2653
   18SAPC  H20R 2357   6.317   5.816   8.551  1.7274  1.5329 -0.1874
   18SAPC  H20S 2358   6.303   5.971   8.639 -0.2386  0.7374 -2.4665
   18SAPC  H20T 2359   6.197   5.832   8.685  0.0929 -0.2551  0.4114
   18SAPC   C33 2360   6.440   5.282   9.810 -0.1124  0.3165 -0.4568
   18SAPC   H3X 2361   6.427   5.185   9.864 -1.9885  0.1620 -1.0976
   18SAPC   H3Y 2362   6.542   5.278   9.767  0.8358  0.4156  1.6572
   18SAPC   C34 2363   6.363   5.275   9.682  0.1102 -0.2851 -0.6524
   18SAPC   H4X 2364   6.255   5.284   9.707  0.2970  0.0454  0.0539
   18SAPC   H4Y 2365   6.364   5.176   9.631 -2.5775  0.9719 -3.4583
   18SAPC   C35 2366   6.409   5.380   9.580  0.0291  1.1365 -0.2008
   18SAPC   H5X 2367   6.520   5.371   9.572 -0.0082  0.8660 -0.4286
   18SAPC   H5Y 2368   6.390   5.479   9.627  4.2190  2.4288 -0.7947
   18SAPC   C36 2369   6.343   5.351   9.447 -0.0020  0.0784  0.9789
   18SAPC   H6X 2370   6.233   5.365   9.455 -0.2402 -0.8436 -0.2620
   18SAPC   H6Y 2371   6.362   5.250   9.407  3.3021  0.8239  0.3334
   18SAPC   C37 2372   6.405   5.447   9.348  0.3654  0.6848  0.4299
   18SAPC   H7X 2373   6.513   5.465   9.368  0.5333 -0.5892  0.8064
   18SAPC   H7Y 2374   6.361   5.548   9.359  1.2099  1.4711 -2.5035
   18SAPC   C38 2375   6.385   5.401   9.199 -0.3258 -0.9289 -0.1202
   18SAPC   H8X 2376   6.412   5.294   9.190 -1.5956 -1.4249  1.6775
   18SAPC   H8Y 2377   6.446   5.455   9.123  0.6764 -0.0258  1.2804
   18SAPC   C39 2378   6.238   5.424   9.164  0.2688 -0.3418  0.3180
   18SAPC   H9X 2379   6.203   5.515   9.218 -0.2684 -0.0801 -0.4634
   18SAPC   H9Y 2380   6.175   5.344   9.209 -0.2015  1.1049  2.4083
   18SAPC  C310 2381   6.201   5.425   9.015 -0.2079 -0.0082 -1.0874
   18SAPC  H10X 2382   6.247   5.341   8.958  2.7191  1.8524 -1.7124
   18SAPC  H10Y 2383   6.246   5.518   8.975 -1.1339  0.6105 -0.7045
   18SAPC  C311 2384   6.055   5.425   8.988  0.5577  0.2298  0.3635
   18SAPC  H11X 2385   6.016   5.488   9.071 -0.5763 -1.8528  1.4919
   18SAPC  H11Y 2386   6.005   5.327   9.001  2.5836 -1.1346 -1.4288
   18SAPC  C312 2387   6.025   5.487   8.850  0.3329 -0.6644 -0.0810
   18SAPC  H12X 2388   6.014   5.403   8.778 -3.4842 -2.2522  2.0420
   18SAPC  H12Y 2389   6.102   5.562   8.824 -2.4668  1.5478 -2.6342
   18SAPC  C313 2390   5.895   5.565   8.839  0.0305  0.2226  0.5113
   18SAPC  H13X 2391   5.911   5.638   8.921 -0.2496  0.1800  0.6056
   18SAPC  H13Y 2392   5.804   5.503   8.856  2.2298 -3.7333 -0.8699
   18SAPC  C314 2393   5.877   5.622   8.699 -0.4152 -0.4178  0.2742
   18SAPC  H14X 2394   5.889   5.541   8.624  1.0340 -1.2131  1.2926
   18SAPC  H14Y 2395   5.962   5.691   8.682 -0.3515 -0.9981 -1.9891
   18SAPC  C315 2396   5.739   5.681   8.679  0.2770 -0.2109  0.2798
   18SAPC  H15X 2397   5.738   5.746   8.589 -2.0034 -1.4438 -0.6570
   18SAPC  H15Y 2398   5.709   5.738   8.769  1.8610 -2.4361  2.3406
   18SAPC  C316 2399   5.622   5.587   8.643 -0.4184 -0.1555 -0.4823
   18SAPC  H16X 2400   5.582   5.535   8.733  0.3584 -2.2396 -1.2682
   18SAPC  H16Y 2401   5.640   5.503   8.572 -2.2216 -1.1039  0.1181
   18SAPC  C317 2402   5.503   5.663   8.572 -0.9536 -0.3312  0.4781
   18SAPC  H17X 2403   5.525   5.699   8.470  1.1284  0.9267  1.2893
   18SAPC  H17Y 2404   5.486   5.752   8.637 -1.0813  0.5435 -0.7281
   18SAPC  C318 2405   5.380   5.583   8.566 -0.2545 -0.3137  0.3912
   18SAPC  H18X 2406   5.303   5.631   8.502  1.0134  1.0463 -0.1717
   18SAPC  H18Y 2407   5.340   5.588   8.670  1.6827 -0.2996  1.1770
   18SAPC  H18Z 2408   5.394   5.475   8.542  1.3518 -0.2587  0.9494
   19SAPC     N 2409   5.122   5.199  10.959  0.2764  0.1740 -0.4874
   19SAPC   C12 2410   5.127   5.337  10.884 -0.3520 -0.1994  0.6400
   19SAPC  H12A 2411   5.117   5.417  10.957  0.3588 -0.4656  1.0368
   19SAPC  H12B 2412   5.039   5.343  10.822  1.3448 -0.6239 -1.9123
   19SAPC   C13 2413   5.252   5.192  11.027  1.0016 -0.1162 -0.3693
   19SAPC  H13A 2414   5.338   5.217  10.968  2.0340  0.5129  1.3160
   19SAPC  H13B 2415   5.257   5.267  11.105  0.1857  0.6737 -1.0549
   19SAPC  H13C 2416   5.267   5.097  11.077  1.3057  0.9793  1.7728
   19SAPC   C14 2417   5.005   5.176  11.044 -0.6200  0.0686 -0.0237
   19SAPC  H14A 2418   4.918   5.159  10.983 -0.1194 -1.6076 -0.3308
   19SAPC  H14B 2419   5.006   5.094  11.115 -0.5597  0.4124  0.3738
   19SAPC  H14C 2420   4.999   5.264  11.107  2.6889  0.8656 -0.6149
   19SAPC   C15 2421   5.130   5.091  10.854 -0.0916 -0.6009 -0.0534
   19SAPC  H15A 2422   5.214   5.110  10.790 -0.6659  0.3642 -0.5431
   19SAPC  H15B 2423   5.143   4.995  10.903  2.2965  0.4139  1.5149
   19SAPC  H15C 2424   5.036   5.082  10.801 -1.3693 -1.4966  2.2132
   19SAPC   C11 2425   5.240   5.364  10.781  0.1275  0.5454  0.2318
   19SAPC  H11A 2426   5.340   5.354  10.827 -1.1260 -0.5183  2.9293
   19SAPC  H11B 2427   5.238   5.472  10.756 -0.5754  0.5821  0.4134
   19SAPC     P 2428   5.103   5.321  10.560 -0.0243  0.4858  0.0914
   19SAPC   O13 2429   5.092   5.209  10.460  0.4841 -0.5230  0.1806
   19SAPC   O14 2430   4.986   5.360  10.644  0.1005  0.3180  0.5307
   19SAPC   O12 2431   5.227   5.298  10.658 -0.0531 -0.2974 -0.0254
   19SAPC   O11 2432   5.149   5.449  10.476  0.0939  0.2610 -0.0744
   19SAPC    C1 2433   5.283   5.462  10.423 -0.6683  0.0993  0.2681
   19SAPC    HA 2434   5.345   5.530  10.485  0.0451 -0.1563 -0.1540
   19SAPC    HB 2435   5.332   5.362  10.422  1.0248  0.8352  2.3675
   19SAPC    C2 2436   5.279   5.514  10.282 -0.1694  0.1609  0.2717
   19SAPC    HS 2437   5.384   5.524  10.247 -0.0465  0.4011  0.7089
   19SAPC   O21 2438   5.211   5.644  10.269  0.2082 -0.0381  0.7855
   19SAPC   C21 2439   5.253   5.752  10.339 -0.4232  0.4320  0.1454
   19SAPC   O22 2440   5.365   5.761  10.385 -0.5945 -0.8788 -0.0833
   19SAPC   C22 2441   5.150   5.857  10.344 -0.0129 -1.0488  0.8495
   19SAPC   H2R 2442   5.055   5.826  10.296 -0.2254 -0.2120  0.7142
   19SAPC   H2S 2443   5.139   5.895  10.448 -1.6289 -0.1279  0.3775
   19SAPC    C3 2444   5.201   5.414  10.190 -0.4597  0.1768  0.9435
   19SAPC    HX 2445   5.098   5.399  10.228  0.1708 -0.4221  2.4764
   19SAPC    HY 2446   5.249   5.315  10.201 -2.8308 -1.2901 -0.8850
   19SAPC   O31 2447   5.219   5.477  10.060 -0.3818  0.2504  0.0459
   19SAPC   C31 2448   5.122   5.555  10.011 -0.4169 -0.1083 -0.0317
   19SAPC   O32 2449   5.012   5.566  10.067 -0.0171  0.6631 -0.0167
   19SAPC   C32 2450   5.152   5.612   9.875  0.0615 -0.4108  0.1700
   19SAPC   H2X 2451   5.234   5.686   9.891  0.2129  0.1228 -2.6660
   19SAPC   H2Y 2452   5.056   5.640   9.828  0.5164 -1.6866 -1.6076
   19SAPC   C23 2453   5.205   5.971  10.260  0.4670  0.1421  0.1473
   19SAPC   H3R 2454   5.298   6.019  10.296 -0.5698  3.5244 -1.3156
   19SAPC   H3S 2455   5.133   6.055  10.263 -0.2737 -0.5026  1.9450
   19SAPC   C24 2456   5.220   5.935  10.108 -0.7860 -1.0525  0.3979
   19SAPC   H4R 2457   5.117   5.908  10.076 -0.0055 -1.4276 -1.9654
   19SAPC   H4S 2458   5.289   5.851  10.088  1.5508  0.6600  0.9218
   19SAPC   C25 2459   5.270   6.051  10.036  0.6797 -0.4507 -0.5645
   19SAPC   H5R 2460   5.345   6.108  10.092 -1.1193 -0.2914  1.8500
   19SAPC   C26 2461   5.216   6.109   9.927  0.5745 -0.7641 -0.0027
   19SAPC   H6R 2462   5.262   6.201   9.888  0.2167 -0.7063 -0.2962
   19SAPC   C27 2463   5.092   6.065   9.851  0.4762  0.4556 -0.2733
   19SAPC   H7R 2464   5.035   5.984   9.901  1.2472  0.0316 -0.0630
   19SAPC   H7S 2465   5.131   6.007   9.765  1.0627  0.6485 -0.1423
   19SAPC   C28 2466   5.008   6.177   9.800  0.7142  0.2192 -0.0507
   19SAPC   H8R 2467   5.031   6.278   9.838 -0.1122  0.2725  0.3144
   19SAPC   C29 2468   4.930   6.170   9.691  0.2900  0.3237  0.1225
   19SAPC   H9R 2469   4.878   6.264   9.666  0.0772  0.0511 -0.4575
   19SAPC  C210 2470   4.900   6.054   9.598 -0.2140  1.1328 -0.0190
   19SAPC  H10R 2471   4.957   5.961   9.618  1.8103  2.0916 -1.0271
   19SAPC  H10S 2472   4.936   6.086   9.498  0.9430  5.1786  1.4806
   19SAPC  C211 2473   4.750   6.028   9.588  0.1751  0.7509 -0.2420
   19SAPC  H11R 2474   4.700   6.010   9.684  1.8550  0.6564  0.6454
   19SAPC  C212 2475   4.673   6.012   9.478  0.5158  0.1195  0.2420
   19SAPC  H12R 2476   4.565   6.004   9.496  0.8614  0.4641  2.9073
   19SAPC  C213 2477   4.708   6.024   9.330  0.2158  0.3938 -0.0024
   19SAPC  H13R 2478   4.686   5.939   9.262  0.6819  0.8102 -0.6754
   19SAPC  H13S 2479   4.818   6.028   9.314  0.1644  0.8518 -0.2615
   19SAPC  C214 2480   4.645   6.152   9.273 -0.2908  0.4856 -0.3009
   19SAPC  H14R 2481   4.616   6.228   9.347 -1.5454  1.0628 -1.3388
   19SAPC  C215 2482   4.636   6.190   9.143  0.4427 -0.0160  0.2636
   19SAPC  H15R 2483   4.589   6.285   9.113 -1.4469 -1.3772 -1.3687
   19SAPC  C216 2484   4.691   6.101   9.026  0.0409 -0.1358 -1.2187
   19SAPC  H16R 2485   4.767   6.031   9.067  0.5560  0.9780 -0.2105
   19SAPC  H16S 2486   4.739   6.160   8.945  1.7851  1.2640  0.7292
   19SAPC  C217 2487   4.582   6.012   8.965 -1.6544  0.2290 -0.3642
   19SAPC  H17R 2488   4.506   6.067   8.905 -1.7872  0.0926 -0.3226
   19SAPC  H17S 2489   4.526   5.958   9.045  0.6322 -0.2695  0.9983
   19SAPC  C218 2490   4.641   5.894   8.886  0.6164  0.5691 -0.5405
   19SAPC  H18R 2491   4.549   5.835   8.863 -0.3322  1.3764  1.0041
   19SAPC  H18S 2492   4.706   5.842   8.958  0.2869  0.2045 -0.4996
   19SAPC  C219 2493   4.711   5.939   8.761 -0.2194 -0.8971  0.4354
   19SAPC  H19R 2494   4.767   5.853   8.718  1.3973 -1.1273  2.8053
   19SAPC  H19S 2495   4.797   6.004   8.788  1.1398 -1.8976 -1.2664
   19SAPC  C220 2496   4.627   6.030   8.664  0.2667  0.0082 -0.3904
   19SAPC  H20R 2497   4.674   6.043   8.564  2.7516 -1.8768  0.4394
   19SAPC  H20S 2498   4.611   6.128   8.715 -3.1356 -0.1050 -1.0021
   19SAPC  H20T 2499   4.528   5.981   8.651  0.4019 -0.1314 -0.9243
   19SAPC   C33 2500   5.199   5.496   9.776  0.6354  0.4144 -0.1314
   19SAPC   H3X 2501   5.133   5.409   9.797  1.7623 -0.0587  1.6262
   19SAPC   H3Y 2502   5.305   5.467   9.792  0.1921 -1.2901 -0.1190
   19SAPC   C34 2503   5.170   5.531   9.632 -0.3073 -0.4082  0.0234
   19SAPC   H4X 2504   5.248   5.603   9.600 -0.3071  0.5908  2.1024
   19SAPC   H4Y 2505   5.070   5.574   9.611 -1.1424 -2.4177 -0.3929
   19SAPC   C35 2506   5.190   5.405   9.542  0.5953  0.6120 -0.0849
   19SAPC   H5X 2507   5.127   5.317   9.569  1.1791 -0.4153 -1.9019
   19SAPC   H5Y 2508   5.295   5.373   9.556  0.0375 -1.9284 -1.1227
   19SAPC   C36 2509   5.172   5.440   9.383  0.6233  0.0259 -0.6072
   19SAPC   H6X 2510   5.246   5.516   9.353 -0.1071  1.6562  1.4376
   19SAPC   H6Y 2511   5.067   5.477   9.376 -0.5292 -2.4070  1.8309
   19SAPC   C37 2512   5.183   5.318   9.287  0.4084  0.2382  0.1996
   19SAPC   H7X 2513   5.089   5.260   9.297  0.6601 -0.0278  1.1226
   19SAPC   H7Y 2514   5.267   5.251   9.316  0.1007 -0.1831  0.1236
   19SAPC   C38 2515   5.208   5.356   9.141  0.9297 -0.1682  0.0170
   19SAPC   H8X 2516   5.316   5.380   9.131  0.1793  3.0036 -1.8521
   19SAPC   H8Y 2517   5.150   5.446   9.114  1.5407  0.1906 -0.1187
   19SAPC   C39 2518   5.174   5.250   9.044 -0.5310 -0.2937 -0.6135
   19SAPC   H9X 2519   5.067   5.224   9.027 -0.2236 -2.1031 -0.0232
   19SAPC   H9Y 2520   5.217   5.152   9.072 -0.6766 -0.6976 -1.7335
   19SAPC  C310 2521   5.219   5.283   8.898 -0.4822  0.5708  0.2171
   19SAPC  H10X 2522   5.329   5.289   8.912 -0.6728  0.5826  1.9047
   19SAPC  H10Y 2523   5.173   5.376   8.857 -1.6191  1.0702  2.4694
   19SAPC  C311 2524   5.177   5.174   8.800  0.7889 -0.3054  0.4414
   19SAPC  H11X 2525   5.197   5.073   8.842 -2.9656 -1.3036  0.2287
   19SAPC  H11Y 2526   5.238   5.186   8.708  2.1683 -0.0254  1.3627
   19SAPC  C312 2527   5.029   5.184   8.742 -0.2440 -0.0699 -0.2141
   19SAPC  H12X 2528   5.018   5.281   8.688  0.0287  1.5111  2.4054
   19SAPC  H12Y 2529   4.963   5.186   8.831  1.7086 -3.8885  1.5454
   19SAPC  C313 2530   5.006   5.068   8.642 -0.5094  0.2627 -0.0497
   19SAPC  H13X 2531   4.989   4.981   8.708  0.1225  0.3171  0.1852
   19SAPC  H13Y 2532   5.093   5.054   8.575  0.3850 -0.6638  1.2514
   19SAPC  C314 2533   4.879   5.086   8.560 -0.0915 -0.1855  0.0512
   19SAPC  H14X 2534   4.896   5.165   8.483 -1.2676 -1.5602 -1.6913
   19SAPC  H14Y 2535   4.799   5.123   8.628 -0.1156  2.6721 -1.3537
   19SAPC  C315 2536   4.841   4.955   8.488 -0.6124 -0.5726  0.9941
   19SAPC  H15X 2537   4.767   4.900   8.550 -1.1650  0.9577  1.7379
   19SAPC  H15Y 2538   4.930   4.894   8.460 -1.6896 -0.9003 -2.1235
   19SAPC  C316 2539   4.765   4.990   8.359 -0.3795 -0.0938 -0.0627
   19SAPC  H16X 2540   4.833   5.049   8.294 -2.6986 -0.8288 -3.4299
   19SAPC  H16Y 2541   4.684   5.058   8.393 -0.7123 -0.3097 -0.4136
   19SAPC  C317 2542   4.705   4.863   8.293 -0.0883  0.2707 -1.0043
   19SAPC  H17X 2543   4.614   4.833   8.350  0.5254 -1.5678 -0.9360
   19SAPC  H17Y 2544   4.788   4.789   8.291 -0.3978 -0.2656  1.9554
   19SAPC  C318 2545   4.657   4.890   8.153 -0.6128  0.5202  0.1686
   19SAPC  H18X 2546   4.555   4.929   8.170 -0.3761  1.4274 -0.4198
   19SAPC  H18Y 2547   4.657   4.800   8.088  1.0291  1.5007 -1.2842
   19SAPC  H18Z 2548   4.718   4.961   8.092  1.2459 -0.4339  0.8266
   20SAPC     N 2549   6.321   1.719  10.978  0.0605 -0.2150  0.0266
   20SAPC   C12 2550   6.326   1.821  10.865  0.0040  0.0975 -0.3015
   20SAPC  H12A 2551   6.389   1.775  10.790  0.2329 -0.9010  0.4898
   20SAPC  H12B 2552   6.376   1.911  10.897 -0.8873  1.1086 -1.6483
   20SAPC   C13 2553   6.458   1.666  11.018 -0.0168  0.4743 -0.4479
   20SAPC  H13A 2554   6.525   1.745  11.050  1.3059 -0.1932 -1.4841
   20SAPC  H13B 2555   6.453   1.592  11.097  0.2004  1.4669  0.5219
   20SAPC  H13C 2556   6.506   1.613  10.937 -0.6408 -0.1125 -0.4415
   20SAPC   C14 2557   6.258   1.768  11.105 -0.5617  0.1362  0.0831
   20SAPC  H14A 2558   6.172   1.828  11.078 -0.2126 -0.0630 -1.6298
   20SAPC  H14B 2559   6.236   1.678  11.161 -1.1797 -0.0505 -0.4477
   20SAPC  H14C 2560   6.326   1.832  11.159  1.4017 -1.3310 -0.5148
   20SAPC   C15 2561   6.246   1.608  10.922  0.8287  0.8403 -0.0709
   20SAPC  H15A 2562   6.142   1.635  10.910  0.5071  0.6116  1.8759
   20SAPC  H15B 2563   6.275   1.583  10.821  2.3926 -3.1874  1.1513
   20SAPC  H15C 2564   6.254   1.517  10.980 -2.0886  1.3158  1.2788
   20SAPC   C11 2565   6.198   1.879  10.799  0.8973 -0.3362 -0.0369
   20SAPC  H11A 2566   6.145   1.788  10.763  1.1062 -0.4730 -0.0003
   20SAPC  H11B 2567   6.230   1.943  10.714 -0.3702  1.9457  1.0989
   20SAPC     P 2568   6.175   2.099  10.934 -0.1135  0.7024  0.1685
   20SAPC   O13 2569   6.097   2.143  11.044 -0.2595  0.4561 -0.2069
   20SAPC   O14 2570   6.323   2.085  10.959  0.7766  0.0996  0.1131
   20SAPC   O12 2571   6.121   1.954  10.895 -0.0280 -0.3271  0.0200
   20SAPC   O11 2572   6.144   2.189  10.809 -0.0005  0.6609 -0.0683
   20SAPC    C1 2573   6.009   2.194  10.763  0.6161  0.1755 -0.6984
   20SAPC    HA 2574   5.927   2.163  10.830  1.2200 -1.4222 -0.6569
   20SAPC    HB 2575   5.997   2.302  10.739 -2.7696  0.4780  1.6682
   20SAPC    C2 2576   5.991   2.131  10.617 -0.4469  0.0385 -0.6170
   20SAPC    HS 2577   6.008   2.023  10.636  3.2305  0.4050 -1.0474
   20SAPC   O21 2578   6.104   2.178  10.541 -0.2346 -0.2425  0.2072
   20SAPC   C21 2579   6.161   2.087  10.460  0.0989  0.2247  0.1146
   20SAPC   O22 2580   6.141   1.968  10.454 -0.4388  0.5702 -0.0033
   20SAPC   C22 2581   6.250   2.163  10.372 -0.5107  0.0909 -0.0164
   20SAPC   H2R 2582   6.190   2.216  10.294  0.2698  1.1454  0.0701
   20SAPC   H2S 2583   6.303   2.241  10.432  1.0859  0.2750 -1.5694
   20SAPC    C3 2584   5.860   2.167  10.543 -0.4732 -0.2647 -0.0600
   20SAPC    HX 2585   5.832   2.274  10.544 -2.4780 -0.7352 -1.1122
   20SAPC    HY 2586   5.786   2.113  10.606 -0.8317  0.3862  0.0818
   20SAPC   O31 2587   5.856   2.117  10.410  0.1299  0.0239  0.5811
   20SAPC   C31 2588   5.831   1.986  10.403  0.6062 -0.4189 -0.7102
   20SAPC   O32 2589   5.798   1.915  10.499 -0.1522  0.1865  0.0659
   20SAPC   C32 2590   5.875   1.917  10.273 -0.5587 -0.3665  0.6296
   20SAPC   H2X 2591   5.785   1.877  10.222 -0.9827 -1.1600  1.9571
   20SAPC   H2Y 2592   5.953   1.847  10.307  0.2831 -0.1310 -0.7387
   20SAPC   C23 2593   6.372   2.089  10.293  0.6506 -0.1138  0.0285
   20SAPC   H3R 2594   6.444   2.032  10.355 -1.1661 -1.5641  0.8971
   20SAPC   H3S 2595   6.433   2.154  10.227  0.8916  0.0331  0.3946
   20SAPC   C24 2596   6.309   1.981  10.191 -0.2719  0.5113 -0.4550
   20SAPC   H4R 2597   6.238   2.031  10.122 -2.1088  0.1732  1.1049
   20SAPC   H4S 2598   6.256   1.907  10.255  2.0350  0.0508  1.0497
   20SAPC   C25 2599   6.407   1.896  10.109 -0.6593 -0.5431 -0.8204
   20SAPC   H5R 2600   6.472   1.824  10.162  0.5646  1.8364  1.1617
   20SAPC   C26 2601   6.411   1.890   9.976  0.0335  0.8563  0.8216
   20SAPC   H6R 2602   6.483   1.820   9.931 -0.2997 -0.6389  2.4814
   20SAPC   C27 2603   6.319   1.957   9.885 -0.0853 -0.6670 -0.3134
   20SAPC   H7R 2604   6.215   1.972   9.921  0.4149 -1.2005  1.4690
   20SAPC   H7S 2605   6.302   1.883   9.804  0.5183 -1.6320  0.4191
   20SAPC   C28 2606   6.383   2.081   9.828 -0.2515 -0.4605  0.2901
   20SAPC   H8R 2607   6.365   2.177   9.878  1.6123 -0.0608  0.2804
   20SAPC   C29 2608   6.461   2.072   9.719 -0.0076 -0.5723  0.3168
   20SAPC   H9R 2609   6.496   2.165   9.673 -0.6362 -1.7098 -2.7227
   20SAPC  C210 2610   6.486   1.951   9.636 -0.5458  0.2629 -0.3455
   20SAPC  H10R 2611   6.392   1.892   9.623 -0.4852 -0.1577  0.9762
   20SAPC  H10S 2612   6.562   1.894   9.693 -3.1310 -0.2079  2.9665
   20SAPC  C211 2613   6.560   1.984   9.512  0.4287  1.1808 -0.0196
   20SAPC  H11R 2614   6.662   1.942   9.503 -0.9159 -2.0592 -1.9726
   20SAPC  C212 2615   6.523   2.052   9.399 -0.2917 -0.2233 -0.0940
   20SAPC  H12R 2616   6.605   2.067   9.328 -1.2742 -0.5566 -1.3254
   20SAPC  C213 2617   6.390   2.104   9.375 -0.7134 -0.3084  1.0662
   20SAPC  H13R 2618   6.407   2.212   9.356 -0.5520 -0.4609  0.3110
   20SAPC  H13S 2619   6.322   2.094   9.463 -1.6121 -0.9061  0.3358
   20SAPC  C214 2620   6.331   2.036   9.255  0.5931  0.2736 -0.2929
   20SAPC  H14R 2621   6.275   1.946   9.282 -2.8909  2.2584 -0.2352
   20SAPC  C215 2622   6.320   2.089   9.133 -0.2968  0.9056  0.0010
   20SAPC  H15R 2623   6.270   2.028   9.057 -0.3587 -0.9826  1.4805
   20SAPC  C216 2624   6.371   2.219   9.077  0.3616 -0.0912 -0.2862
   20SAPC  H16R 2625   6.398   2.289   9.159 -0.9804 -0.5010  0.5363
   20SAPC  H16S 2626   6.294   2.282   9.027  1.2791 -0.2232 -1.9468
   20SAPC  C217 2627   6.487   2.188   8.978  0.1799  0.6337  0.2897
   20SAPC  H17R 2628   6.563   2.118   9.019  1.0319  0.8803 -0.8060
   20SAPC  H17S 2629   6.537   2.284   8.952  0.6340  0.7225  1.4277
   20SAPC  C218 2630   6.435   2.124   8.848  0.6731  0.2384 -0.3023
   20SAPC  H18R 2631   6.383   2.200   8.787 -0.2210 -1.3305 -1.5556
   20SAPC  H18S 2632   6.376   2.031   8.862  0.4011  0.0397 -2.4366
   20SAPC  C219 2633   6.537   2.067   8.744 -0.3564  1.0221  0.5064
   20SAPC  H19R 2634   6.587   1.979   8.789 -1.2073 -0.6606 -1.6357
   20SAPC  H19S 2635   6.612   2.148   8.728 -2.4040  2.9620  0.3052
   20SAPC  C220 2636   6.484   2.027   8.612 -0.2636  0.3226 -0.1167
   20SAPC  H20R 2637   6.441   2.117   8.563 -0.7421 -0.2626 -0.7882
   20SAPC  H20S 2638   6.393   1.966   8.631  1.5099 -1.9228  1.7244
   20SAPC  H20T 2639   6.545   1.978   8.533  0.0959  0.4258  0.0953
   20SAPC   C33 2640   5.955   2.007  10.180 -0.3045 -1.2528 -0.1493
   20SAPC   H3X 2641   5.998   1.940  10.103 -2.2273 -1.2959 -1.2569
   20SAPC   H3Y 2642   6.038   2.063  10.228 -0.7694 -0.1772 -0.5422
   20SAPC   C34 2643   5.860   2.103  10.102 -1.1308  0.1716  0.0323
   20SAPC   H4X 2644   5.837   2.199  10.153  0.6775 -0.6824  2.6689
   20SAPC   H4Y 2645   5.760   2.059  10.088 -1.8998  2.0783 -0.8347
   20SAPC   C35 2646   5.910   2.141   9.960  0.0290 -0.0720  0.3634
   20SAPC   H5X 2647   6.012   2.172   9.991 -0.5687  0.2631  2.1092
   20SAPC   H5Y 2648   5.849   2.230   9.933 -1.0894 -0.7912  0.4707
   20SAPC   C36 2649   5.908   2.021   9.857 -0.2984  0.5113 -0.4370
   20SAPC   H6X 2650   5.809   1.970   9.853  0.4156 -1.1031  1.0039
   20SAPC   H6Y 2651   5.981   1.948   9.898 -0.8067  0.9726  1.3907
   20SAPC   C37 2652   5.941   2.080   9.719 -0.2493  0.1254 -0.3118
   20SAPC   H7X 2653   6.037   2.134   9.733  0.6600 -0.4873 -3.4944
   20SAPC   H7Y 2654   5.860   2.152   9.695 -1.4055 -0.5865  1.2371
   20SAPC   C38 2655   5.948   1.969   9.618 -0.4937 -0.2474  0.2603
   20SAPC   H8X 2656   5.862   1.899   9.621 -1.6304  1.1138  1.0337
   20SAPC   H8Y 2657   6.037   1.904   9.634 -1.0739 -0.8253  1.2663
   20SAPC   C39 2658   5.939   2.031   9.481  0.3708  0.2660  0.4528
   20SAPC   H9X 2659   6.019   2.106   9.466  0.0445  0.4376 -0.4635
   20SAPC   H9Y 2660   5.838   2.076   9.466 -0.1599 -1.2279 -0.7049
   20SAPC  C310 2661   5.949   1.926   9.366 -0.6009  0.4431 -0.4178
   20SAPC  H10X 2662   5.874   1.847   9.388 -1.0221  1.3802  1.7169
   20SAPC  H10Y 2663   6.055   1.892   9.369 -0.2745  1.4800  1.9094
   20SAPC  C311 2664   5.925   1.993   9.230  0.6386 -0.8335  0.4615
   20SAPC  H11X 2665   6.004   2.070   9.214  1.4365 -1.5567  0.8283
   20SAPC  H11Y 2666   5.827   2.044   9.240 -0.2777 -2.3063 -0.6539
   20SAPC  C312 2667   5.912   1.894   9.107 -0.3820  0.0291  0.3749
   20SAPC  H12X 2668   5.868   1.808   9.164 -0.6680  1.3576  2.2440
   20SAPC  H12Y 2669   6.018   1.878   9.077  0.0292 -1.1043  2.2690
   20SAPC  C313 2670   5.821   1.932   8.988  0.0953 -0.7562  0.4682
   20SAPC  H13X 2671   5.854   2.027   8.941 -3.7949  0.4018 -0.2276
   20SAPC  H13Y 2672   5.724   1.952   9.037  0.2900 -1.4849  1.1898
   20SAPC  C314 2673   5.803   1.817   8.889  0.1524  0.4337 -0.6773
   20SAPC  H14X 2674   5.695   1.824   8.865 -0.5401 -1.7534  1.4025
   20SAPC  H14Y 2675   5.821   1.723   8.945  1.9769  1.5400  0.6897
   20SAPC  C315 2676   5.879   1.825   8.760  0.1455 -0.0353 -0.0111
   20SAPC  H15X 2677   5.988   1.817   8.781 -0.3127  0.7142  3.0042
   20SAPC  H15Y 2678   5.857   1.921   8.709  0.6492  0.8042  1.3026
   20SAPC  C316 2679   5.846   1.711   8.655  0.3223 -0.1251  0.5110
   20SAPC  H16X 2680   5.744   1.736   8.618 -0.4563 -0.9150  2.0333
   20SAPC  H16Y 2681   5.823   1.614   8.703 -5.4106  0.2499 -0.7773
   20SAPC  C317 2682   5.946   1.720   8.534  0.0048  0.6401 -0.3330
   20SAPC  H17X 2683   6.049   1.706   8.571 -0.1419 -0.5784 -0.3721
   20SAPC  H17Y 2684   5.939   1.817   8.480 -0.2140 -0.2116 -1.8614
   20SAPC  C318 2685   5.922   1.615   8.428 -0.1378 -0.2825 -0.0851
   20SAPC  H18X 2686   5.945   1.513   8.465 -2.4453 -1.7224 -2.2809
   20SAPC  H18Y 2687   5.979   1.640   8.336  0.0453 -0.0304  0.0958
   20SAPC  H18Z 2688   5.813   1.598   8.409  0.6810 -5.4612 -1.7163
   21SAPC     N 2689   5.192   3.183  11.058  0.3399 -0.2654 -0.1147
   21SAPC   C12 2690   5.227   3.210  10.913 -0.7694 -0.1818  0.3044
   21SAPC  H12A 2691   5.227   3.123  10.849 -0.0032  0.2625 -0.3148
   21SAPC  H12B 2692   5.332   3.232  10.905 -1.0139  0.6972 -0.6699
   21SAPC   C13 2693   5.051   3.139  11.075  0.1143  0.1427  0.4163
   21SAPC  H13A 2694   5.030   3.049  11.019 -1.5352  0.2803  0.7597
   21SAPC  H13B 2695   5.032   3.122  11.180 -1.1312 -1.4142 -0.0139
   21SAPC  H13C 2696   4.983   3.214  11.038  0.1304  1.3378  2.6366
   21SAPC   C14 2697   5.287   3.087  11.115 -0.6658  1.0257 -0.1663
   21SAPC  H14A 2698   5.318   3.012  11.044  0.9863  1.1300  0.4028
   21SAPC  H14B 2699   5.382   3.136  11.132 -0.9102  1.1341  1.0135
   21SAPC  H14C 2700   5.246   3.041  11.204  1.3238 -2.0405 -0.7068
   21SAPC   C15 2701   5.207   3.312  11.133  0.2995 -0.0624  0.1454
   21SAPC  H15A 2702   5.179   3.287  11.235 -2.7026  2.4955  0.0814
   21SAPC  H15B 2703   5.310   3.342  11.125 -0.4372  2.1207 -2.5164
   21SAPC  H15C 2704   5.145   3.394  11.101 -0.5094  0.1412  2.0914
   21SAPC   C11 2705   5.143   3.314  10.823 -1.0096 -0.1383  0.5055
   21SAPC  H11A 2706   5.196   3.341  10.729  0.4156  1.0942  1.6165
   21SAPC  H11B 2707   5.143   3.406  10.884  0.5387  0.9007 -0.9812
   21SAPC     P 2708   4.989   3.154  10.692  0.1030 -0.1462  0.0801
   21SAPC   O13 2709   5.062   3.029  10.734  0.0999  0.0768  0.5334
   21SAPC   O14 2710   4.839   3.145  10.666 -0.3212  0.0222 -0.4342
   21SAPC   O12 2711   5.019   3.257  10.795  0.1979 -0.6245  0.5254
   21SAPC   O11 2712   5.063   3.204  10.562  0.3000  0.1612  0.1942
   21SAPC    C1 2713   5.019   3.329  10.504  0.0711  0.3744 -0.5034
   21SAPC    HA 2714   4.912   3.327  10.476  0.1919  2.0440 -1.1918
   21SAPC    HB 2715   5.025   3.409  10.581  0.3387 -0.6060  0.5344
   21SAPC    C2 2716   5.096   3.362  10.375 -0.3215 -0.4662 -0.0923
   21SAPC    HS 2717   5.040   3.442  10.323 -1.7709 -1.7845 -0.6303
   21SAPC   O21 2718   5.102   3.237  10.305  0.1976 -0.2975  0.6771
   21SAPC   C21 2719   4.990   3.215  10.238 -0.1839  0.5035  0.2097
   21SAPC   O22 2720   4.892   3.287  10.225 -0.0741 -0.4974  0.2841
   21SAPC   C22 2721   5.005   3.074  10.175 -0.4685  0.5099  0.3600
   21SAPC   H2R 2722   5.027   2.995  10.249 -1.7148  0.0210  0.2354
   21SAPC   H2S 2723   4.908   3.047  10.128  0.2120 -0.0621 -0.7602
   21SAPC    C3 2724   5.250   3.409  10.398  0.1262  0.3638 -0.3557
   21SAPC    HX 2725   5.305   3.344  10.469  1.3936  0.0473 -1.5769
   21SAPC    HY 2726   5.249   3.513  10.437  0.1972  0.8864 -1.6704
   21SAPC   O31 2727   5.314   3.426  10.270 -0.2776  0.6949  0.1903
   21SAPC   C31 2728   5.373   3.318  10.221  0.7797 -0.1618 -0.2388
   21SAPC   O32 2729   5.384   3.210  10.277  0.0629 -0.3232  0.5196
   21SAPC   C32 2730   5.444   3.346  10.087  0.0686 -0.0025  0.1371
   21SAPC   H2X 2731   5.521   3.425  10.097 -1.2870  1.3947 -0.2115
   21SAPC   H2Y 2732   5.373   3.387  10.013  2.0748  0.9907 -1.3586
   21SAPC   C23 2733   5.112   3.058  10.059  0.1990 -0.1329 -0.6336
   21SAPC   H3R 2734   5.102   2.958  10.012  0.4600  0.3489 -1.7460
   21SAPC   H3S 2735   5.216   3.078  10.093 -0.2845  1.7099 -0.0748
   21SAPC   C24 2736   5.088   3.172   9.956 -0.4916 -0.1437 -0.5400
   21SAPC   H4R 2737   5.157   3.154   9.871  2.1237 -0.9532  1.5753
   21SAPC   H4S 2738   5.124   3.270   9.995  0.1424 -0.8457  0.6966
   21SAPC   C25 2739   4.948   3.193   9.909 -0.6868  0.4892  0.5008
   21SAPC   H5R 2740   4.890   3.278   9.946 -1.6716  0.5529 -1.0688
   21SAPC   C26 2741   4.898   3.113   9.807  0.3722  0.4168 -0.3963
   21SAPC   H6R 2742   4.799   3.140   9.767 -0.4221 -0.4433  0.9435
   21SAPC   C27 2743   4.970   2.995   9.748  0.2921  0.4080  0.4523
   21SAPC   H7R 2744   5.000   2.920   9.825 -0.0511  0.7781  0.9574
   21SAPC   H7S 2745   5.064   3.030   9.701  0.6009 -0.6759  0.2321
   21SAPC   C28 2746   4.884   2.918   9.650 -0.8341 -0.1920 -0.2778
   21SAPC   H8R 2747   4.800   2.868   9.699 -0.0002 -0.7154  0.6717
   21SAPC   C29 2748   4.887   2.913   9.516 -0.3088  1.0012 -0.1257
   21SAPC   H9R 2749   4.805   2.858   9.467  0.3503 -0.5846  0.4858
   21SAPC  C210 2750   4.982   2.968   9.420 -0.2470 -0.8669 -0.2454
   21SAPC  H10R 2751   5.059   3.027   9.474  0.6660 -0.3492 -2.0297
   21SAPC  H10S 2752   4.916   3.036   9.362  0.7483 -0.0631 -0.4584
   21SAPC  C211 2753   5.045   2.870   9.324 -0.5180 -0.2844  0.4817
   21SAPC  H11R 2754   5.136   2.820   9.360  1.0596  0.2630 -2.4489
   21SAPC  C212 2755   5.015   2.849   9.190  0.6472  0.2939  0.1678
   21SAPC  H12R 2756   5.080   2.781   9.134  0.5829 -0.3632  0.8771
   21SAPC  C213 2757   4.897   2.915   9.114 -0.4148 -0.2526  0.2519
   21SAPC  H13R 2758   4.847   2.991   9.177 -0.6134  0.1114 -0.3336
   21SAPC  H13S 2759   4.815   2.845   9.086 -0.0904  0.4115 -2.7084
   21SAPC  C214 2760   4.951   2.985   8.988  0.0306  0.3197  0.3844
   21SAPC  H14R 2761   4.964   3.094   8.998  3.5805  0.0306  0.1673
   21SAPC  C215 2762   4.973   2.915   8.868 -0.1753 -0.2059 -0.3185
   21SAPC  H15R 2763   5.009   2.973   8.781  0.5877  0.5485  0.4738
   21SAPC  C216 2764   4.949   2.766   8.858 -0.6605  0.5955  1.1480
   21SAPC  H16R 2765   4.911   2.707   8.944 -0.4112 -0.3839  0.6001
   21SAPC  H16S 2766   5.042   2.713   8.828 -0.2290  0.2417  3.0093
   21SAPC  C217 2767   4.855   2.750   8.741 -0.3525  0.5066  0.1880
   21SAPC  H17R 2768   4.776   2.828   8.735  1.8803  2.9227  0.3923
   21SAPC  H17S 2769   4.811   2.649   8.753 -2.2495  1.1253 -1.0982
   21SAPC  C218 2770   4.922   2.745   8.601 -0.3124  0.5079 -0.1744
   21SAPC  H18R 2771   4.996   2.662   8.608 -0.2712  0.5940  0.5168
   21SAPC  H18S 2772   4.971   2.841   8.577  0.3788 -0.5163 -3.3326
   21SAPC  C219 2773   4.811   2.716   8.504  0.0596  0.0256 -0.6474
   21SAPC  H19R 2774   4.743   2.799   8.475  1.2954  0.9554 -0.9411
   21SAPC  H19S 2775   4.741   2.637   8.539  0.8212 -0.4302 -0.1409
   21SAPC  C220 2776   4.856   2.660   8.370 -0.2504 -0.3345  0.3290
   21SAPC  H20R 2777   4.867   2.552   8.390  1.5073 -0.8333 -2.8325
   21SAPC  H20S 2778   4.960   2.690   8.347  0.1046 -2.3589 -0.8764
   21SAPC  H20T 2779   4.779   2.681   8.293 -0.0449 -1.9808 -0.3404
   21SAPC   C33 2780   5.505   3.214  10.028  0.0070  0.2568  0.0706
   21SAPC   H3X 2781   5.444   3.121  10.027  0.9789 -0.4402  1.6735
   21SAPC   H3Y 2782   5.602   3.205  10.081 -0.5087  0.0506  0.9953
   21SAPC   C34 2783   5.546   3.236   9.880  0.0018  0.6469  0.8748
   21SAPC   H4X 2784   5.643   3.292   9.879  0.2934  0.3053  3.6792
   21SAPC   H4Y 2785   5.486   3.317   9.834  1.3271  0.9941 -0.3517
   21SAPC   C35 2786   5.525   3.108   9.792 -0.4006  0.2825  0.5616
   21SAPC   H5X 2787   5.415   3.104   9.778 -0.5903  1.2801  1.5769
   21SAPC   H5Y 2788   5.550   3.019   9.854  1.8082 -0.1641 -0.8561
   21SAPC   C36 2789   5.606   3.122   9.667  0.4301  0.1444  0.6361
   21SAPC   H6X 2790   5.715   3.130   9.687  0.8593  0.9187 -1.6749
   21SAPC   H6Y 2791   5.571   3.213   9.614  0.3108  0.1465  0.7191
   21SAPC   C37 2792   5.591   2.999   9.580 -0.6117 -0.1019 -0.1188
   21SAPC   H7X 2793   5.485   2.993   9.547 -0.2512  0.2765 -1.3723
   21SAPC   H7Y 2794   5.616   2.910   9.642 -0.0187 -0.1063 -0.3580
   21SAPC   C38 2795   5.675   3.008   9.449  0.4060  0.3441 -0.0955
   21SAPC   H8X 2796   5.779   3.035   9.478  0.8996  0.8783 -2.1984
   21SAPC   H8Y 2797   5.638   3.093   9.387 -1.0109  0.1730  0.4760
   21SAPC   C39 2798   5.681   2.877   9.368 -0.4618 -0.8076  0.4518
   21SAPC   H9X 2799   5.583   2.849   9.325 -0.5375 -0.0927  0.1486
   21SAPC   H9Y 2800   5.702   2.794   9.439  3.8164  0.0554  0.4707
   21SAPC  C310 2801   5.784   2.877   9.249  0.3829 -0.0312  0.2111
   21SAPC  H10X 2802   5.790   2.772   9.214  0.4238  0.1274 -0.2703
   21SAPC  H10Y 2803   5.887   2.905   9.278  0.4368 -1.7742  1.8753
   21SAPC  C311 2804   5.752   2.966   9.134  0.2907  0.1384  0.0103
   21SAPC  H11X 2805   5.759   3.073   9.164  0.7783  0.1085 -0.0003
   21SAPC  H11Y 2806   5.644   2.960   9.108 -0.0671  0.0440  1.3985
   21SAPC  C312 2807   5.837   2.951   9.008 -0.0987  0.9599 -0.1667
   21SAPC  H12X 2808   5.850   2.845   8.978  0.9581  0.6362  1.3279
   21SAPC  H12Y 2809   5.933   2.989   9.048  0.6971 -0.9787 -0.1090
   21SAPC  C313 2810   5.783   3.034   8.890  0.1856  0.2317 -0.0303
   21SAPC  H13X 2811   5.689   2.982   8.865 -0.3644  0.6202  1.1232
   21SAPC  H13Y 2812   5.852   3.025   8.804  1.3507 -0.7617  0.9670
   21SAPC  C314 2813   5.747   3.181   8.924 -0.7131  0.0164  0.1653
   21SAPC  H14X 2814   5.844   3.226   8.953 -0.1688 -2.2620  2.2141
   21SAPC  H14Y 2815   5.694   3.184   9.021  0.8844  0.2072  1.0709
   21SAPC  C315 2816   5.680   3.257   8.809  0.4843  0.1268 -0.4713
   21SAPC  H15X 2817   5.576   3.228   8.783  0.0898  1.6067 -0.6423
   21SAPC  H15Y 2818   5.749   3.236   8.724  1.2763 -1.1868  0.4671
   21SAPC  C316 2819   5.682   3.411   8.830  0.3328 -0.8639 -0.1565
   21SAPC  H16X 2820   5.607   3.457   8.763 -0.1440  0.6537  1.3321
   21SAPC  H16Y 2821   5.777   3.467   8.813 -1.0738  1.4303 -0.8651
   21SAPC  C317 2822   5.636   3.429   8.979 -0.2333  0.3250  0.3864
   21SAPC  H17X 2823   5.718   3.408   9.052  1.6204  0.7009 -1.4705
   21SAPC  H17Y 2824   5.554   3.359   9.003 -0.2969  0.6439  1.1077
   21SAPC  C318 2825   5.590   3.567   9.007  0.1751  0.2519 -0.2685
   21SAPC  H18X 2826   5.672   3.642   9.006  1.0521 -0.6037  1.9370
   21SAPC  H18Y 2827   5.542   3.563   9.107  1.2205 -0.5999  0.2106
   21SAPC  H18Z 2828   5.504   3.588   8.939 -0.1050 -1.8830 -0.6404
   22SAPC     N 2829   3.904   3.309  10.921  0.2378  0.0253  0.2693
   22SAPC   C12 2830   4.027   3.384  10.967 -0.1843 -0.2430  0.0677
   22SAPC  H12A 2831   4.103   3.309  10.952 -2.2430 -2.4504 -0.0217
   22SAPC  H12B 2832   4.019   3.399  11.073 -0.0719 -0.5472  0.1209
   22SAPC   C13 2833   3.793   3.410  10.927  0.3549 -0.1957 -0.9211
   22SAPC  H13A 2834   3.767   3.446  11.026  0.1596  1.8959 -1.6812
   22SAPC  H13B 2835   3.823   3.510  10.897  2.1730 -0.0732  1.0338
   22SAPC  H13C 2836   3.710   3.377  10.868 -0.5219 -1.2201  0.8213
   22SAPC   C14 2837   3.930   3.259  10.781  0.4246 -0.7414  0.1005
   22SAPC  H14A 2838   3.996   3.321  10.722  3.2276 -3.3040  0.2987
   22SAPC  H14B 2839   3.974   3.161  10.789  2.7426  0.1220 -1.1092
   22SAPC  H14C 2840   3.835   3.227  10.742  0.1629 -0.4442  0.4834
   22SAPC   C15 2841   3.888   3.191  11.005 -0.2379 -0.1981  0.0187
   22SAPC  H15A 2842   3.968   3.120  10.993 -1.0748 -0.6897 -4.0720
   22SAPC  H15B 2843   3.877   3.224  11.107  1.0185 -0.4557  0.2489
   22SAPC  H15C 2844   3.798   3.138  10.977 -2.0832  3.7328 -2.3116
   22SAPC   C11 2845   4.074   3.515  10.894 -0.5652  0.4529  0.0866
   22SAPC  H11A 2846   4.164   3.554  10.945  0.7205  0.1621 -1.8235
   22SAPC  H11B 2847   3.996   3.594  10.884  0.3322  1.5206  1.2407
   22SAPC     P 2848   4.243   3.506  10.694 -0.2529  0.0244  0.2074
   22SAPC   O13 2849   4.266   3.655  10.702 -0.3200  0.2972 -0.0236
   22SAPC   O14 2850   4.349   3.424  10.749 -0.0021  0.0195  0.6021
   22SAPC   O12 2851   4.108   3.462  10.768  0.0197 -0.2754 -0.5133
   22SAPC   O11 2852   4.214   3.463  10.545 -0.5729  0.7230  0.2840
   22SAPC    C1 2853   4.118   3.525  10.464  0.5755 -0.0600 -0.1306
   22SAPC    HA 2854   4.106   3.631  10.493 -2.6935 -0.4618  0.4749
   22SAPC    HB 2855   4.150   3.526  10.358 -3.7518 -0.1073 -1.6297
   22SAPC    C2 2856   3.982   3.452  10.458  0.2458  0.0181 -1.0633
   22SAPC    HS 2857   3.938   3.426  10.557 -2.3169  0.7143 -1.9325
   22SAPC   O21 2858   3.992   3.329  10.382  0.5503 -0.0224 -0.3048
   22SAPC   C21 2859   3.891   3.244  10.389  0.2602  0.0870 -0.4771
   22SAPC   O22 2860   3.797   3.253  10.467 -0.0452 -0.1038 -0.3295
   22SAPC   C22 2861   3.900   3.147  10.276 -0.1524 -0.4191 -0.0076
   22SAPC   H2R 2862   3.981   3.071  10.285  0.9293  0.7768  0.6698
   22SAPC   H2S 2863   3.801   3.101  10.255  0.4557 -1.2859 -1.0873
   22SAPC    C3 2864   3.881   3.550  10.384  0.0785  0.0760  0.1596
   22SAPC    HX 2865   3.867   3.647  10.437 -0.1080  0.9207 -1.3578
   22SAPC    HY 2866   3.785   3.495  10.385  0.4563 -0.6005  1.4228
   22SAPC   O31 2867   3.919   3.576  10.241 -0.6950  0.2285  0.0280
   22SAPC   C31 2868   3.835   3.658  10.176  0.2035 -0.0529 -0.2631
   22SAPC   O32 2869   3.730   3.691  10.225  0.0511 -0.1849  0.1659
   22SAPC   C32 2870   3.891   3.700  10.045  1.3274 -0.2289 -0.2409
   22SAPC   H2X 2871   3.882   3.616   9.973 -0.2755 -0.0173 -0.3373
   22SAPC   H2Y 2872   3.998   3.717  10.069  1.5119 -0.0817 -1.1121
   22SAPC   C23 2873   3.924   3.231  10.147  0.5667  0.6078 -0.4431
   22SAPC   H3R 2874   3.891   3.336  10.157 -0.9152  0.2489 -1.3170
   22SAPC   H3S 2875   3.847   3.205  10.071  1.0593  2.4611 -1.6518
   22SAPC   C24 2876   4.063   3.222  10.084 -0.1504 -0.1011 -0.1588
   22SAPC   H4R 2877   4.139   3.251  10.160  0.0086  1.5024 -0.8701
   22SAPC   H4S 2878   4.069   3.301  10.005 -0.9398 -1.5511 -1.7246
   22SAPC   C25 2879   4.085   3.089  10.022 -0.7027 -0.1317  0.5472
   22SAPC   H5R 2880   4.132   3.009  10.082  1.4936 -0.3469 -1.3286
   22SAPC   C26 2881   4.049   3.045   9.901 -0.2729  0.1002  0.8193
   22SAPC   H6R 2882   4.065   2.938   9.885 -3.4607 -0.7280  2.4078
   22SAPC   C27 2883   3.977   3.125   9.793 -0.2002 -0.1092  0.1142
   22SAPC   H7R 2884   3.920   3.212   9.831  0.3343 -0.3377  1.4986
   22SAPC   H7S 2885   3.896   3.059   9.756  0.3626  0.2113 -1.7882
   22SAPC   C28 2886   4.063   3.174   9.675 -0.4279  0.5914  0.0145
   22SAPC   H8R 2887   4.101   3.096   9.607  0.1235  0.1713  0.7897
   22SAPC   C29 2888   4.094   3.299   9.651 -0.0393  0.1289  0.1109
   22SAPC   H9R 2889   4.166   3.316   9.569 -0.1867  0.1035 -0.0249
   22SAPC  C210 2890   4.044   3.423   9.724  0.2983  0.0411  0.1037
   22SAPC  H10R 2891   4.035   3.393   9.831  0.6417 -0.2003  0.0673
   22SAPC  H10S 2892   3.945   3.447   9.680  0.0735 -0.6376  0.2267
   22SAPC  C211 2893   4.119   3.552   9.722  0.0803 -0.3486 -0.1541
   22SAPC  H11R 2894   4.163   3.563   9.822 -2.2916  3.1637  0.7152
   22SAPC  C212 2895   4.120   3.650   9.625  0.2869 -0.5620 -0.5478
   22SAPC  H12R 2896   4.175   3.742   9.650 -0.3823 -0.7516  1.9206
   22SAPC  C213 2897   4.037   3.651   9.500 -0.5609  0.0189  0.6102
   22SAPC  H13R 2898   3.938   3.609   9.529 -1.0111  0.6654  0.0402
   22SAPC  H13S 2899   4.083   3.581   9.427  0.6485  0.1397  1.2475
   22SAPC  C214 2900   4.023   3.793   9.441  0.6329  0.4921  0.1297
   22SAPC  H14R 2901   3.957   3.860   9.499 -1.6072 -0.8279 -0.7574
   22SAPC  C215 2902   4.056   3.834   9.315  0.5218  0.1351 -0.0745
   22SAPC  H15R 2903   4.021   3.931   9.278  1.0194 -0.2239 -1.5234
   22SAPC  C216 2904   4.126   3.751   9.209  0.3268 -0.4251  0.0039
   22SAPC  H16R 2905   4.084   3.649   9.193  0.5796 -0.5514  0.1365
   22SAPC  H16S 2906   4.234   3.731   9.227  0.5021 -1.7623 -2.0977
   22SAPC  C217 2907   4.140   3.816   9.070 -0.2242 -0.2909 -0.0208
   22SAPC  H17R 2908   4.214   3.756   9.013 -1.6983 -2.0604 -0.1606
   22SAPC  H17S 2909   4.166   3.924   9.071 -1.0170 -0.0950  0.1085
   22SAPC  C218 2910   4.015   3.812   8.985 -0.2465 -0.0360 -0.5384
   22SAPC  H18R 2911   3.931   3.863   9.037  0.7992  2.4541 -1.1181
   22SAPC  H18S 2912   3.991   3.704   8.979  0.7914 -0.4300  1.3987
   22SAPC  C219 2913   4.048   3.890   8.857  0.3973 -0.4045 -0.1861
   22SAPC  H19R 2914   4.005   3.830   8.774  0.0439 -2.4510  1.3835
   22SAPC  H19S 2915   4.157   3.885   8.834  0.0181 -2.7307 -1.8186
   22SAPC  C220 2916   3.992   4.037   8.856  0.0285 -0.7290  0.1734
   22SAPC  H20R 2917   3.881   4.035   8.843 -0.0462  0.9278  0.2864
   22SAPC  H20S 2918   4.042   4.098   8.777 -2.2062  0.8164 -0.1452
   22SAPC  H20T 2919   4.022   4.085   8.951  1.8274  1.5127 -1.4164
   22SAPC   C33 2920   3.824   3.824   9.987 -0.0632  0.5031 -0.0884
   22SAPC   H3X 2921   3.886   3.876   9.911 -0.1633  0.5025 -0.1703
   22SAPC   H3Y 2922   3.811   3.901  10.066 -1.1236  0.4486 -0.1977
   22SAPC   C34 2923   3.698   3.804   9.902 -0.4048  0.7111  0.2401
   22SAPC   H4X 2924   3.654   3.905   9.890 -0.7105  0.6131  0.4969
   22SAPC   H4Y 2925   3.623   3.756   9.969  0.0011 -0.9613 -0.4515
   22SAPC   C35 2926   3.711   3.717   9.775 -0.4155  0.2480 -0.3137
   22SAPC   H5X 2927   3.723   3.612   9.811 -0.3826 -0.1407 -1.4016
   22SAPC   H5Y 2928   3.804   3.735   9.715 -1.1273  1.8206 -0.9871
   22SAPC   C36 2929   3.593   3.725   9.683 -0.1761 -0.0832  0.1966
   22SAPC   H6X 2930   3.586   3.836   9.676  1.7252  0.0816  0.4191
   22SAPC   H6Y 2931   3.508   3.684   9.742 -0.0602 -0.8872 -0.1843
   22SAPC   C37 2932   3.614   3.652   9.543  0.2566 -0.1886  0.9445
   22SAPC   H7X 2933   3.707   3.694   9.499  1.1942 -1.7399  1.3777
   22SAPC   H7Y 2934   3.534   3.676   9.471  1.2659 -3.3481 -1.4860
   22SAPC   C38 2935   3.631   3.497   9.552  0.7762  0.1147 -0.5239
   22SAPC   H8X 2936   3.531   3.449   9.555  1.0956 -0.6883 -1.8162
   22SAPC   H8Y 2937   3.695   3.468   9.638 -1.4297  0.0284  1.1916
   22SAPC   C39 2938   3.681   3.441   9.413  0.0830 -0.2445 -0.3369
   22SAPC   H9X 2939   3.736   3.351   9.449  0.0253  0.1583  0.8141
   22SAPC   H9Y 2940   3.758   3.509   9.370  0.4985 -0.4592  0.0584
   22SAPC  C310 2941   3.567   3.411   9.312 -0.1035  0.0237 -0.2772
   22SAPC  H10X 2942   3.522   3.507   9.278 -4.0807 -1.9982 -1.3847
   22SAPC  H10Y 2943   3.487   3.349   9.358 -2.1874  1.4861 -1.7230
   22SAPC  C311 2944   3.610   3.356   9.173 -0.2352 -1.1455 -0.1539
   22SAPC  H11X 2945   3.520   3.312   9.127 -0.2019  0.8641 -2.3489
   22SAPC  H11Y 2946   3.680   3.271   9.190 -1.9448 -2.4970  0.3777
   22SAPC  C312 2947   3.677   3.459   9.083 -0.0994  0.1423  0.4927
   22SAPC  H12X 2948   3.765   3.500   9.137 -0.1544  1.2240 -0.2127
   22SAPC  H12Y 2949   3.602   3.537   9.058 -0.0677 -0.5194 -2.0129
   22SAPC  C313 2950   3.716   3.402   8.936 -0.3770  0.0367 -0.1972
   22SAPC  H13X 2951   3.637   3.338   8.891 -0.6635 -1.3802  2.1543
   22SAPC  H13Y 2952   3.796   3.327   8.953 -0.7264 -0.8096 -2.0079
   22SAPC  C314 2953   3.764   3.511   8.846 -0.1269 -0.2592  0.3687
   22SAPC  H14X 2954   3.836   3.465   8.774 -0.8649 -1.6762  0.5034
   22SAPC  H14Y 2955   3.820   3.590   8.900 -0.8727  0.7032 -0.2309
   22SAPC  C315 2956   3.648   3.577   8.763 -0.6176 -0.5146 -0.0363
   22SAPC  H15X 2957   3.591   3.628   8.844 -0.8599  0.3343 -0.7195
   22SAPC  H15Y 2958   3.585   3.498   8.718 -1.7414  1.2543 -1.7195
   22SAPC  C316 2959   3.689   3.673   8.658  0.7359 -0.6490  0.4189
   22SAPC  H16X 2960   3.739   3.767   8.688  0.1514  0.1370 -0.9670
   22SAPC  H16Y 2961   3.599   3.696   8.596  0.2734 -0.1590  1.2501
   22SAPC  C317 2962   3.793   3.619   8.551  0.2267 -0.7180  0.2111
   22SAPC  H17X 2963   3.897   3.615   8.589 -0.1965  1.9248  1.9262
   22SAPC  H17Y 2964   3.794   3.703   8.478  2.3303  0.7217  1.7759
   22SAPC  C318 2965   3.755   3.495   8.477  0.5885  1.1018 -0.0699
   22SAPC  H18X 2966   3.844   3.480   8.413 -0.5631  1.4000 -1.8273
   22SAPC  H18Y 2967   3.665   3.520   8.417 -0.3389  0.2533  0.9151
   22SAPC  H18Z 2968   3.737   3.413   8.550  2.4209 -0.0268 -0.8087
   23SAPC     N 2969   6.761   1.028  10.730 -0.0087 -0.1027  0.2074
   23SAPC   C12 2970   6.799   1.177  10.764  0.9290  0.4665 -0.6005
   23SAPC  H12A 2971   6.907   1.177  10.771  0.9470 -2.1860  0.6996
   23SAPC  H12B 2972   6.760   1.198  10.863  0.1884 -2.8130 -0.0773
   23SAPC   C13 2973   6.811   0.949  10.843 -1.0739 -0.1935 -0.0640
   23SAPC  H13A 2974   6.760   0.968  10.936 -0.3726 -0.4057  0.3626
   23SAPC  H13B 2975   6.803   0.844  10.817 -0.6566 -0.6426  1.5691
   23SAPC  H13C 2976   6.916   0.969  10.859 -1.2615  0.1118  0.8223
   23SAPC   C14 2977   6.620   1.027  10.739  0.3446 -0.0932  0.5434
   23SAPC  H14A 2978   6.589   1.105  10.671  2.4304  0.6648  0.3920
   23SAPC  H14B 2979   6.572   0.938  10.702 -2.2332  2.1328 -1.9913
   23SAPC  H14C 2980   6.571   1.043  10.834  1.0909 -0.8399  1.0610
   23SAPC   C15 2981   6.820   0.978  10.597 -0.3091  0.4445 -0.4034
   23SAPC  H15A 2982   6.927   0.981  10.611 -0.0483  0.8043 -2.1568
   23SAPC  H15B 2983   6.797   0.873  10.581 -0.3905  0.6690 -1.9433
   23SAPC  H15C 2984   6.799   1.037  10.509 -0.6668  0.3332 -0.3956
   23SAPC   C11 2985   6.745   1.291  10.671 -0.8493 -0.5411  0.5472
   23SAPC  H11A 2986   6.778   1.261  10.569 -0.6677 -0.2403  0.5176
   23SAPC  H11B 2987   6.796   1.385  10.700 -0.3636 -1.0838  1.5215
   23SAPC     P 2988   6.533   1.414  10.756 -0.3370  0.1742  0.0311
   23SAPC   O13 2989   6.567   1.371  10.892 -0.4943  0.7121  0.4031
   23SAPC   O14 2990   6.579   1.546  10.725  0.0192 -0.7388  0.0762
   23SAPC   O12 2991   6.601   1.307  10.664 -0.0010 -0.0200 -0.1924
   23SAPC   O11 2992   6.373   1.401  10.733  0.2607 -0.0813 -0.3380
   23SAPC    C1 2993   6.320   1.283  10.680  0.8019 -0.2046 -0.5111
   23SAPC    HA 2994   6.376   1.193  10.713  0.1215  0.1965  1.9628
   23SAPC    HB 2995   6.222   1.270  10.732  0.8376 -1.5986 -0.7574
   23SAPC    C2 2996   6.283   1.287  10.523 -0.6791  1.1500 -0.5260
   23SAPC    HS 2997   6.225   1.194  10.501 -0.3617  1.1359 -1.3241
   23SAPC   O21 2998   6.403   1.285  10.440  0.3949  0.1095 -0.6722
   23SAPC   C21 2999   6.470   1.174  10.438  0.3012  0.5222  0.2282
   23SAPC   O22 3000   6.446   1.065  10.486  0.0946  0.2262 -0.0154
   23SAPC   C22 3001   6.582   1.190  10.330  0.5745  0.4054 -0.1661
   23SAPC   H2R 3002   6.661   1.247  10.383 -0.8978  2.8905 -0.4880
   23SAPC   H2S 3003   6.624   1.087  10.321  0.3102  0.4347 -2.2221
   23SAPC    C3 3004   6.189   1.403  10.492  0.1125  0.0893 -0.0135
   23SAPC    HX 3005   6.216   1.496  10.547 -0.7460  0.1805  0.2668
   23SAPC    HY 3006   6.089   1.370  10.527 -1.0199  2.8815 -0.3328
   23SAPC   O31 3007   6.175   1.430  10.348  0.5098  0.1453 -0.3046
   23SAPC   C31 3008   6.235   1.534  10.292 -0.1985 -1.0302  0.2588
   23SAPC   O32 3009   6.298   1.621  10.350 -0.3381 -0.0943 -0.0167
   23SAPC   C32 3010   6.217   1.538  10.137  0.6814  0.3004  0.2809
   23SAPC   H2X 3011   6.183   1.434  10.118 -1.4788  0.8863  0.6231
   23SAPC   H2Y 3012   6.317   1.560  10.093  1.0398  0.4644  1.1602
   23SAPC   C23 3013   6.547   1.235  10.194  0.7900  0.6199 -0.4414
   23SAPC   H3R 3014   6.640   1.259  10.139  1.0856  0.7989  0.1369
   23SAPC   H3S 3015   6.491   1.329  10.214 -0.5604 -0.9142  4.3632
   23SAPC   C24 3016   6.461   1.134  10.116 -0.2757 -0.3362 -0.2017
   23SAPC   H4R 3017   6.525   1.043  10.111  1.2237  0.6482  0.5043
   23SAPC   H4S 3018   6.468   1.174  10.012  0.2910  2.3246  0.7808
   23SAPC   C25 3019   6.313   1.105  10.157 -0.4807 -0.6702 -0.0266
   23SAPC   H5R 3020   6.281   1.081  10.259  0.0194 -0.1678  0.2542
   23SAPC   C26 3021   6.224   1.095  10.058  0.3268  0.1257 -0.2106
   23SAPC   H6R 3022   6.122   1.064  10.084  0.9109  1.3748  4.3251
   23SAPC   C27 3023   6.231   1.127   9.904 -0.1200  0.2995  0.5080
   23SAPC   H7R 3024   6.307   1.206   9.892 -0.0205  0.0640 -0.5098
   23SAPC   H7S 3025   6.128   1.167   9.891  0.2742  2.1748  2.6130
   23SAPC   C28 3026   6.267   1.019   9.807 -0.0061  0.5521 -0.1662
   23SAPC   H8R 3027   6.290   0.926   9.862 -0.7302  1.6018  2.0472
   23SAPC   C29 3028   6.262   1.023   9.676 -0.1724  0.4080  0.4890
   23SAPC   H9R 3029   6.275   0.933   9.614  2.1648  2.2131 -1.8726
   23SAPC  C210 3030   6.230   1.148   9.604  0.1216 -0.4577  0.5885
   23SAPC  H10R 3031   6.247   1.230   9.677  0.0308 -1.6076  1.9672
   23SAPC  H10S 3032   6.121   1.149   9.579  0.6576  0.7875 -2.0451
   23SAPC  C211 3033   6.311   1.168   9.484 -0.7938  0.6544 -0.4785
   23SAPC  H11R 3034   6.395   1.238   9.489  1.5719 -2.0474  0.4052
   23SAPC  C212 3035   6.286   1.122   9.360 -0.5314 -0.3860 -0.8205
   23SAPC  H12R 3036   6.358   1.153   9.283 -1.3534 -0.7531 -1.7585
   23SAPC  C213 3037   6.166   1.035   9.318  0.4156 -0.0628  0.4711
   23SAPC  H13R 3038   6.095   1.086   9.249  0.0610  0.2429  1.0530
   23SAPC  H13S 3039   6.103   1.020   9.408  0.6913 -2.8429  0.2771
   23SAPC  C214 3040   6.191   0.887   9.280  0.2933  0.3799  0.0237
   23SAPC  H14R 3041   6.270   0.844   9.343 -0.7542  0.3281  1.3481
   23SAPC  C215 3042   6.147   0.809   9.173 -0.0360  0.3830 -0.9269
   23SAPC  H15R 3043   6.174   0.702   9.167  0.1078  0.3891 -0.4746
   23SAPC  C216 3044   6.046   0.852   9.069  0.3163  0.7183 -1.1711
   23SAPC  H16R 3045   6.019   0.959   9.079 -1.6750  0.1282  0.4764
   23SAPC  H16S 3046   5.948   0.807   9.097  0.6444  1.9845  2.6983
   23SAPC  C217 3047   6.082   0.822   8.924 -0.6612  0.0719  0.3844
   23SAPC  H17R 3048   6.181   0.863   8.898 -0.0227 -0.8376  1.2743
   23SAPC  H17S 3049   6.004   0.867   8.859 -1.7197 -1.3084  0.6383
   23SAPC  C218 3050   6.070   0.669   8.883  0.0118  0.3711 -0.2353
   23SAPC  H18R 3051   5.963   0.640   8.893 -0.9473  3.3748 -0.9144
   23SAPC  H18S 3052   6.141   0.608   8.944 -0.9844 -0.2952  0.2796
   23SAPC  C219 3053   6.119   0.637   8.736  0.3922  0.0871 -0.3417
   23SAPC  H19R 3054   6.144   0.530   8.722  1.3724  0.1514  0.7157
   23SAPC  H19S 3055   6.217   0.685   8.715 -0.4553  1.1830 -1.9832
   23SAPC  C220 3056   6.022   0.688   8.629  0.6250 -0.1294  0.4326
   23SAPC  H20R 3057   5.919   0.652   8.648  0.6772  0.1617  1.3211
   23SAPC  H20S 3058   6.057   0.648   8.531  0.6523  1.6172 -0.3155
   23SAPC  H20T 3059   6.028   0.799   8.633  2.7993 -0.2322  1.2522
   23SAPC   C33 3060   6.110   1.638  10.090 -0.8366  0.0684  0.0408
   23SAPC   H3X 3061   6.141   1.745  10.099 -1.5272  0.2666  0.1838
   23SAPC   H3Y 3062   6.009   1.630  10.137 -0.2483 -0.8839  1.1822
   23SAPC   C34 3063   6.080   1.617   9.945 -0.1062 -0.6744 -0.0932
   23SAPC   H4X 3064   6.041   1.715   9.909  0.8812 -0.8098 -1.6290
   23SAPC   H4Y 3065   5.997   1.545   9.927  0.0502 -0.8697 -0.0430
   23SAPC   C35 3066   6.192   1.586   9.850 -0.4342 -0.6156  0.2371
   23SAPC   H5X 3067   6.211   1.477   9.855 -1.5321 -1.0244 -2.5448
   23SAPC   H5Y 3068   6.282   1.631   9.898 -0.3074 -1.3456  0.7103
   23SAPC   C36 3069   6.171   1.612   9.699  0.3300  0.2367 -0.2738
   23SAPC   H6X 3070   6.264   1.591   9.642  0.0557  1.9626 -1.4386
   23SAPC   H6Y 3071   6.146   1.720   9.689 -0.0776  0.1668 -0.0326
   23SAPC   C37 3072   6.067   1.520   9.640 -0.0917  1.0142  1.0537
   23SAPC   H7X 3073   5.972   1.568   9.671  0.0292  0.6524  2.0224
   23SAPC   H7Y 3074   6.070   1.412   9.666  0.9092  0.4615 -1.1638
   23SAPC   C38 3075   6.088   1.523   9.489  0.2915 -0.2290 -0.0775
   23SAPC   H8X 3076   6.195   1.508   9.463 -0.4750 -1.5689 -2.8355
   23SAPC   H8Y 3077   6.050   1.627   9.474 -2.1387 -1.2741 -1.8043
   23SAPC   C39 3078   5.997   1.419   9.424  0.4751  0.2002 -0.4914
   23SAPC   H9X 3079   5.892   1.433   9.455  0.0594  0.0719 -1.7843
   23SAPC   H9Y 3080   6.034   1.325   9.470  1.0179  1.3897  1.6088
   23SAPC  C310 3081   6.015   1.409   9.275 -0.1531  0.1873  0.1071
   23SAPC  H10X 3082   5.964   1.324   9.224  1.0437 -0.9988  0.8263
   23SAPC  H10Y 3083   6.119   1.368   9.273  0.3361  1.3588 -2.1132
   23SAPC  C311 3084   5.993   1.541   9.194 -0.2456  0.0847  0.2354
   23SAPC  H11X 3085   6.052   1.619   9.246 -0.5641  0.6821 -0.2859
   23SAPC  H11Y 3086   5.883   1.553   9.191 -0.1878  0.9097  1.0856
   23SAPC  C312 3087   6.052   1.537   9.047  0.2568  0.3484  0.6404
   23SAPC  H12X 3088   6.162   1.528   9.056  0.5330  0.8933 -1.7217
   23SAPC  H12Y 3089   6.027   1.633   8.997  1.8714  1.1123  1.2353
   23SAPC  C313 3090   6.014   1.409   8.959  0.0017  0.2106 -0.0136
   23SAPC  H13X 3091   5.904   1.394   8.955 -0.2064  0.9736  1.7574
   23SAPC  H13Y 3092   6.054   1.317   9.005 -4.0185 -0.8086  1.9005
   23SAPC  C314 3093   6.061   1.419   8.809 -0.4012 -0.2012  0.0327
   23SAPC  H14X 3094   6.031   1.518   8.769  0.7551  0.8150  1.6096
   23SAPC  H14Y 3095   6.031   1.335   8.743  1.8432 -0.2908 -0.9668
   23SAPC  C315 3096   6.210   1.414   8.789  0.1561  0.5215  0.1333
   23SAPC  H15X 3097   6.237   1.312   8.825 -2.9722 -0.3555  0.3693
   23SAPC  H15Y 3098   6.258   1.498   8.843 -0.2565  0.6973  0.2303
   23SAPC  C316 3099   6.256   1.429   8.648  0.3155 -0.3012  0.2637
   23SAPC  H16X 3100   6.214   1.526   8.617  0.6385  0.0321  0.8570
   23SAPC  H16Y 3101   6.191   1.361   8.589 -1.0343 -0.1929  1.5870
   23SAPC  C317 3102   6.404   1.399   8.606 -0.0074  0.3691 -0.5009
   23SAPC  H17X 3103   6.469   1.467   8.665 -1.2411  0.7822  0.4380
   23SAPC  H17Y 3104   6.430   1.418   8.500  2.8485 -2.0754 -0.3813
   23SAPC  C318 3105   6.461   1.254   8.614  0.9309 -0.0024 -0.0185
   23SAPC  H18X 3106   6.571   1.252   8.600  0.9336 -0.6843  0.0933
   23SAPC  H18Y 3107   6.409   1.208   8.527 -1.1525  0.1874  1.0646
   23SAPC  H18Z 3108   6.434   1.206   8.710  0.0985  1.8812  0.7397
   24SAPC     N 3109   6.619   0.094  11.238 -0.3075  0.5776  0.0174
   24SAPC   C12 3110   6.629   0.025  11.106 -0.4637  0.4158  0.1991
   24SAPC  H12A 3111   6.571  -0.066  11.113 -1.0210  0.7322 -0.2336
   24SAPC  H12B 3112   6.733   0.003  11.085 -0.3640 -0.1863  1.2025
   24SAPC   C13 3113   6.701   0.221  11.238 -0.4686  0.5915 -0.7365
   24SAPC  H13A 3114   6.667   0.289  11.162  1.0066  0.4063 -1.5938
   24SAPC  H13B 3115   6.697   0.275  11.332 -3.4071  0.6576 -0.7980
   24SAPC  H13C 3116   6.805   0.203  11.215  0.1207 -0.9592  2.5638
   24SAPC   C14 3117   6.477   0.122  11.277 -0.1491  0.2004  0.7381
   24SAPC  H14A 3118   6.439   0.199  11.211 -0.2806 -1.0168 -0.6507
   24SAPC  H14B 3119   6.408   0.039  11.279 -0.2218  0.1857 -0.8940
   24SAPC  H14C 3120   6.473   0.156  11.380 -2.1304 -0.4294  0.9090
   24SAPC   C15 3121   6.680   0.010  11.348 -0.0451  0.2296  0.2464
   24SAPC  H15A 3122   6.781  -0.020  11.324  0.4838  0.8530  1.6138
   24SAPC  H15B 3123   6.673   0.039  11.451 -1.0255 -2.7559  1.1277
   24SAPC  H15C 3124   6.623  -0.081  11.360 -0.8115  0.9536  2.4321
   24SAPC   C11 3125   6.568   0.102  10.988  0.5871 -0.0301  0.0689
   24SAPC  H11A 3126   6.579   0.035  10.900 -2.2656 -2.5785  1.4923
   24SAPC  H11B 3127   6.634   0.189  10.964  1.0864 -0.3728  0.1708
   24SAPC     P 3128   6.313   0.063  10.913 -0.0489  0.0971 -0.1578
   24SAPC   O13 3129   6.305  -0.074  10.964  0.5069  0.0170 -0.7689
   24SAPC   O14 3130   6.189   0.148  10.918  0.1818  0.4142  0.0057
   24SAPC   O12 3131   6.430   0.139  10.995 -0.7666 -0.1823  0.4594
   24SAPC   O11 3132   6.372   0.062  10.764 -0.3993  0.0677  0.0313
   24SAPC    C1 3133   6.328   0.174  10.682 -1.0173  0.4254  1.5008
   24SAPC    HA 3134   6.233   0.140  10.636 -0.7958  0.9245  0.6516
   24SAPC    HB 3135   6.316   0.274  10.729  3.0506  0.9387  1.7994
   24SAPC    C2 3136   6.435   0.194  10.571 -0.0320 -0.1198  0.0121
   24SAPC    HS 3137   6.398   0.274  10.503  0.6466 -0.8461 -1.2623
   24SAPC   O21 3138   6.453   0.066  10.495 -0.2206 -0.0491 -0.1408
   24SAPC   C21 3139   6.446   0.088  10.363 -0.1371  0.9887 -0.2871
   24SAPC   O22 3140   6.419   0.188  10.305  0.7014 -0.4916  0.2446
   24SAPC   C22 3141   6.482  -0.039  10.290  0.1330 -0.6795  0.3353
   24SAPC   H2R 3142   6.571  -0.076  10.346  0.8643 -1.0006 -1.0104
   24SAPC   H2S 3143   6.398  -0.112  10.284 -1.6602  1.3741 -4.6139
   24SAPC    C3 3144   6.569   0.264  10.624  0.0333  0.4912  0.0054
   24SAPC    HX 3145   6.624   0.201  10.697 -1.6022 -2.2358 -0.9769
   24SAPC    HY 3146   6.536   0.348  10.689 -1.4114 -0.2522  0.2884
   24SAPC   O31 3147   6.656   0.319  10.522  0.1665 -0.1673  0.7478
   24SAPC   C31 3148   6.739   0.227  10.468  0.5594 -0.4814 -0.7774
   24SAPC   O32 3149   6.738   0.107  10.492 -0.5509  0.0557  0.4154
   24SAPC   C32 3150   6.840   0.300  10.378  0.9610  0.6594 -0.1979
   24SAPC   H2X 3151   6.943   0.294  10.419  1.2251 -1.5095 -1.0098
   24SAPC   H2Y 3152   6.804   0.405  10.371 -0.0437  0.5223  1.9165
   24SAPC   C23 3153   6.528  -0.029  10.140  0.1644  0.3628  0.2198
   24SAPC   H3R 3154   6.595   0.058  10.121  1.3666 -0.4852  0.4511
   24SAPC   H3S 3155   6.438  -0.009  10.078  1.2400 -0.0670 -1.5459
   24SAPC   C24 3156   6.618  -0.147  10.093 -0.5860 -0.0034 -0.2239
   24SAPC   H4R 3157   6.700  -0.152  10.168  0.2915  0.7547 -1.1044
   24SAPC   H4S 3158   6.651  -0.125   9.990  1.8679  0.2947  0.5469
   24SAPC   C25 3159   6.550  -0.275  10.084 -0.3059  0.8047  0.5447
   24SAPC   H5R 3160   6.502  -0.310  10.176 -0.0567  0.9442  0.7281
   24SAPC   C26 3161   6.533  -0.359   9.975 -0.2618  0.1687  0.0575
   24SAPC   H6R 3162   6.484  -0.454   9.998 -0.4254  0.6255  1.7686
   24SAPC   C27 3163   6.581  -0.340   9.831  0.5459  0.4030 -0.6934
   24SAPC   H7R 3164   6.587  -0.436   9.777  2.1573  1.0343 -1.7041
   24SAPC   H7S 3165   6.681  -0.291   9.834  0.7423 -0.0269  0.9113
   24SAPC   C28 3166   6.481  -0.250   9.767  0.3633  0.2568 -0.5362
   24SAPC   H8R 3167   6.445  -0.169   9.832 -1.1069 -1.0967  0.4153
   24SAPC   C29 3168   6.443  -0.255   9.643 -0.0000 -0.1318  0.0937
   24SAPC   H9R 3169   6.366  -0.189   9.602 -0.8492 -0.5740  0.9281
   24SAPC  C210 3170   6.506  -0.351   9.542  0.0162  0.1053 -0.0448
   24SAPC  H10R 3171   6.429  -0.419   9.499  0.0277  0.6721 -0.9854
   24SAPC  H10S 3172   6.563  -0.438   9.582  1.3925  1.1540  0.3390
   24SAPC  C211 3173   6.597  -0.287   9.447  0.5386 -0.4871 -0.1820
   24SAPC  H11R 3174   6.697  -0.271   9.491 -0.5003  0.0085  2.1221
   24SAPC  C212 3175   6.578  -0.255   9.323  0.4403 -0.5466  0.4062
   24SAPC  H12R 3176   6.661  -0.219   9.261 -1.6880  3.2494 -0.5662
   24SAPC  C213 3177   6.452  -0.292   9.254 -0.2496  0.0224  0.3054
   24SAPC  H13R 3178   6.368  -0.330   9.316  1.8648 -1.4979  2.3626
   24SAPC  H13S 3179   6.469  -0.385   9.196  1.0262 -1.0010  2.2510
   24SAPC  C214 3180   6.404  -0.179   9.162 -0.0190  0.7422  0.1894
   24SAPC  H14R 3181   6.315  -0.129   9.203 -0.7379 -0.3639  0.0071
   24SAPC  C215 3182   6.464  -0.141   9.045  0.0471 -0.5722 -0.0092
   24SAPC  H15R 3183   6.415  -0.061   8.987 -1.2113  0.3468  2.2188
   24SAPC  C216 3184   6.582  -0.196   8.971  0.0429 -0.1116  0.4736
   24SAPC  H16R 3185   6.627  -0.276   9.033 -0.3019 -0.2264  0.5776
   24SAPC  H16S 3186   6.647  -0.106   8.967 -0.6576  0.4898  2.0369
   24SAPC  C217 3187   6.548  -0.234   8.823  0.0058  0.1029  0.9638
   24SAPC  H17R 3188   6.442  -0.264   8.807  0.2315  0.6216 -1.9579
   24SAPC  H17S 3189   6.613  -0.323   8.806 -1.5676 -0.9562  0.2356
   24SAPC  C218 3190   6.579  -0.121   8.728  0.2350 -0.4341  0.0662
   24SAPC  H18R 3191   6.680  -0.079   8.742  0.6580 -0.5274 -2.2710
   24SAPC  H18S 3192   6.506  -0.039   8.746  0.2348 -0.3504 -0.3053
   24SAPC  C219 3193   6.551  -0.148   8.581  0.1735 -0.0395  0.1062
   24SAPC  H19R 3194   6.495  -0.060   8.543 -2.7920 -1.5392  0.6973
   24SAPC  H19S 3195   6.476  -0.230   8.577 -0.3064  0.4190 -0.4577
   24SAPC  C220 3196   6.665  -0.189   8.487 -0.0376 -0.0678 -0.8653
   24SAPC  H20R 3197   6.611  -0.226   8.398 -2.7038 -1.3538  1.1236
   24SAPC  H20S 3198   6.717  -0.271   8.540  2.1372  1.7639  0.0445
   24SAPC  H20T 3199   6.747  -0.116   8.467  1.4968 -0.6174  2.5451
   24SAPC   C33 3200   6.828   0.236  10.235 -0.0857  0.2800 -0.0794
   24SAPC   H3X 3201   6.722   0.224  10.203 -0.5902 -0.9531  1.9033
   24SAPC   H3Y 3202   6.858   0.130  10.241 -2.2990 -0.4530 -0.8920
   24SAPC   C34 3203   6.910   0.319  10.133 -0.3667 -0.6856 -0.2568
   24SAPC   H4X 3204   7.017   0.324  10.165 -1.0106  1.4597  1.9052
   24SAPC   H4Y 3205   6.872   0.423  10.136 -1.6231 -1.1096 -0.6777
   24SAPC   C35 3206   6.907   0.263   9.986 -0.0128  0.6740  0.5489
   24SAPC   H5X 3207   6.997   0.290   9.925 -0.8207 -1.7794 -1.9507
   24SAPC   H5Y 3208   6.824   0.309   9.929 -0.5435 -1.7541 -0.7620
   24SAPC   C36 3209   6.890   0.114   9.970  0.0593  0.0188 -0.4420
   24SAPC   H6X 3210   6.791   0.084  10.009  1.6015 -2.9468  1.6258
   24SAPC   H6Y 3211   6.967   0.075  10.040 -0.0476 -0.1113 -0.3966
   24SAPC   C37 3212   6.930   0.055   9.838 -0.2545  0.1949 -0.1865
   24SAPC   H7X 3213   6.963  -0.046   9.868  1.0433  0.4886 -0.5662
   24SAPC   H7Y 3214   7.015   0.106   9.789  0.8981 -1.9317 -0.5181
   24SAPC   C38 3215   6.813   0.035   9.740 -0.1955 -0.3986  0.5412
   24SAPC   H8X 3216   6.765   0.133   9.715  0.2542 -0.2242  0.3481
   24SAPC   H8Y 3217   6.734  -0.032   9.781  0.3962  0.2034  2.8124
   24SAPC   C39 3218   6.860  -0.031   9.612  0.0662  0.2792 -0.5264
   24SAPC   H9X 3219   6.781  -0.070   9.544  1.4605  0.2222 -2.1804
   24SAPC   H9Y 3220   6.918  -0.122   9.638  2.2448  1.4312 -1.1226
   24SAPC  C310 3221   6.952   0.054   9.524  0.3079 -0.7852 -0.4833
   24SAPC  H10X 3222   7.031   0.103   9.584 -0.5792 -0.4621  0.4571
   24SAPC  H10Y 3223   6.901   0.139   9.473  2.7630 -1.0790 -3.7986
   24SAPC  C311 3224   7.019  -0.029   9.419  0.1281  1.4897 -0.1383
   24SAPC  H11X 3225   7.067  -0.113   9.474 -0.7111 -0.3509 -2.0968
   24SAPC  H11Y 3226   7.104   0.030   9.380 -0.3982  1.6869 -1.0011
   24SAPC  C312 3227   6.933  -0.089   9.307 -0.5477 -0.1595  0.2699
   24SAPC  H12X 3228   6.902  -0.006   9.240  0.4870 -0.7220 -0.9478
   24SAPC  H12Y 3229   6.843  -0.136   9.352 -1.9168  4.0030  2.3913
   24SAPC  C313 3230   7.017  -0.187   9.219  0.2150 -0.8286 -0.0054
   24SAPC  H13X 3231   7.037  -0.275   9.284  2.3912 -0.0166  0.5002
   24SAPC  H13Y 3232   7.111  -0.133   9.193 -0.8890  0.0486 -2.4599
   24SAPC  C314 3233   6.946  -0.215   9.086 -0.0648  0.3688  0.0007
   24SAPC  H14X 3234   6.915  -0.119   9.039  0.7401 -0.1736 -1.7116
   24SAPC  H14Y 3235   6.851  -0.272   9.096 -2.3538  3.8429 -0.3677
   24SAPC  C315 3236   7.036  -0.280   8.988 -0.6665  0.1805  0.1063
   24SAPC  H15X 3237   7.074  -0.377   9.026  2.0133  0.9332 -0.4326
   24SAPC  H15Y 3238   7.121  -0.212   8.964  0.3107 -1.8188 -2.6632
   24SAPC  C316 3239   6.952  -0.307   8.858 -0.4095 -0.4359  0.5028
   24SAPC  H16X 3240   6.937  -0.213   8.800 -2.0710  1.5035  3.8073
   24SAPC  H16Y 3241   6.846  -0.334   8.877 -0.5495  1.1221  2.1471
   24SAPC  C317 3242   7.024  -0.407   8.764 -0.4087 -0.4260 -0.2208
   24SAPC  H17X 3243   7.026  -0.501   8.823  0.2325  0.3650  1.0640
   24SAPC  H17Y 3244   7.132  -0.386   8.747 -0.0284 -2.3802 -0.4781
   24SAPC  C318 3245   6.959  -0.436   8.626 -0.1365 -0.5500 -0.3180
   24SAPC  H18X 3246   7.010  -0.526   8.585  0.6109  0.0477 -0.7211
   24SAPC  H18Y 3247   6.968  -0.349   8.559 -1.8276 -1.3521 -1.6537
   24SAPC  H18Z 3248   6.851  -0.461   8.640 -0.5561  1.1464 -0.2657
   25SAPC     N 3249   3.041   5.400   5.772 -0.7198  0.0911 -0.2852
   25SAPC   C12 3250   3.162   5.478   5.817  0.2189 -0.2190 -0.4216
   25SAPC  H12A 3251   3.126   5.573   5.854 -0.5334 -1.5372  2.5711
   25SAPC  H12B 3252   3.218   5.498   5.728  0.5786 -0.3038 -0.2176
   25SAPC   C13 3253   3.080   5.263   5.739  0.0729 -0.3836 -0.3798
   25SAPC  H13A 3254   3.110   5.212   5.829 -1.0939  1.9689  1.4589
   25SAPC  H13B 3255   3.004   5.194   5.706 -1.4321  0.7080  0.6717
   25SAPC  H13C 3256   3.161   5.250   5.669 -0.1904  1.0504 -0.9824
   25SAPC   C14 3257   2.937   5.393   5.876 -0.0864  0.0342 -0.0568
   25SAPC  H14A 3258   2.853   5.334   5.841 -0.1752 -0.2759  0.6719
   25SAPC  H14B 3259   2.965   5.349   5.970  0.1386  0.8833  0.2751
   25SAPC  H14C 3260   2.898   5.488   5.909  0.7917  0.3577  0.0748
   25SAPC   C15 3261   2.982   5.461   5.653 -0.3679 -0.9223 -0.5187
   25SAPC  H15A 3262   2.888   5.411   5.634 -0.8931  0.2326 -1.1157
   25SAPC  H15B 3263   2.971   5.568   5.663 -0.2548 -1.0962  1.9258
   25SAPC  H15C 3264   3.047   5.461   5.567 -1.8055  0.7351 -1.6884
   25SAPC   C11 3265   3.270   5.428   5.919  0.4485  0.4855 -0.0226
   25SAPC  H11A 3266   3.340   5.512   5.939  0.1606  0.3400  1.8136
   25SAPC  H11B 3267   3.329   5.347   5.870  0.6720  1.3556 -1.2242
   25SAPC     P 3268   3.156   5.478   6.146 -0.1532 -0.0159  0.1826
   25SAPC   O13 3269   3.246   5.486   6.260 -0.2843 -0.4508 -0.3581
   25SAPC   O14 3270   3.147   5.611   6.076  0.6354  0.0471 -0.3308
   25SAPC   O12 3271   3.212   5.375   6.040 -0.4587  0.2464 -0.1108
   25SAPC   O11 3272   3.010   5.435   6.184  0.0617 -0.2867 -0.4531
   25SAPC    C1 3273   2.972   5.315   6.250 -0.6094 -0.6048  1.4327
   25SAPC    HA 3274   2.871   5.284   6.217 -0.0018 -0.3218 -0.9007
   25SAPC    HB 3275   3.043   5.235   6.222 -0.6295 -0.7696  1.8566
   25SAPC    C2 3276   2.961   5.316   6.402 -0.1200 -0.1025  0.2419
   25SAPC    HS 3277   2.950   5.425   6.425  2.2044 -0.3190  3.0609
   25SAPC   O21 3278   3.092   5.267   6.459 -0.2000 -0.0215 -0.3851
   25SAPC   C21 3279   3.152   5.347   6.545 -0.3079 -0.4275 -0.4155
   25SAPC   O22 3280   3.116   5.457   6.581  0.6989 -0.4085  0.2529
   25SAPC   C22 3281   3.291   5.276   6.566  1.1622 -0.2596  0.4075
   25SAPC   H2R 3282   3.277   5.184   6.626  0.8728  1.0812  2.4944
   25SAPC   H2S 3283   3.332   5.255   6.465 -1.0621 -2.3834 -0.1606
   25SAPC    C3 3284   2.840   5.245   6.463  0.4645  0.5207  0.5970
   25SAPC    HX 3285   2.842   5.144   6.416  2.0106  0.8402 -0.0746
   25SAPC    HY 3286   2.747   5.296   6.431  0.7510  1.2595  0.9236
   25SAPC   O31 3287   2.845   5.238   6.604 -0.1861 -0.4224 -0.1330
   25SAPC   C31 3288   2.825   5.352   6.663  0.4423  0.1428 -0.4004
   25SAPC   O32 3289   2.785   5.451   6.610  0.1446 -0.2714  0.5026
   25SAPC   C32 3290   2.860   5.338   6.813 -0.3385 -1.3805 -0.2565
   25SAPC   H2X 3291   2.970   5.342   6.821 -0.3122  1.4402 -1.1540
   25SAPC   H2Y 3292   2.808   5.245   6.845 -2.3180  0.1674  1.3261
   25SAPC   C23 3293   3.381   5.371   6.645 -0.0871  0.3539 -0.3963
   25SAPC   H3R 3294   3.384   5.474   6.602 -2.2205  1.2697  1.4798
   25SAPC   H3S 3295   3.486   5.337   6.637 -0.0926  0.3448 -0.4326
   25SAPC   C24 3296   3.341   5.364   6.804  0.6114  0.5205 -0.1554
   25SAPC   H4R 3297   3.232   5.387   6.810  0.2466 -1.0746 -0.0796
   25SAPC   H4S 3298   3.382   5.452   6.857  0.3971 -0.3269  1.5213
   25SAPC   C25 3299   3.377   5.240   6.880 -0.4800  0.5234  0.0312
   25SAPC   H5R 3300   3.362   5.148   6.821 -2.6398  1.0064 -0.2837
   25SAPC   C26 3301   3.441   5.241   7.003  0.3240 -0.4262 -0.1795
   25SAPC   H6R 3302   3.472   5.143   7.042 -0.3289 -1.5184 -2.2547
   25SAPC   C27 3303   3.471   5.363   7.084 -0.5783 -0.3800  0.0869
   25SAPC   H7R 3304   3.408   5.373   7.175  0.6073  0.8999  0.8040
   25SAPC   H7S 3305   3.452   5.464   7.042 -0.9365  0.4572  2.1297
   25SAPC   C28 3306   3.620   5.358   7.127  0.3620 -0.2904 -0.0309
   25SAPC   H8R 3307   3.691   5.408   7.061  0.3227 -2.2001 -1.6186
   25SAPC   C29 3308   3.660   5.298   7.242  0.3504  0.4566 -1.0782
   25SAPC   H9R 3309   3.769   5.302   7.262  0.1795 -1.0133  0.3059
   25SAPC  C210 3310   3.580   5.225   7.342 -0.1626  0.0638 -0.8754
   25SAPC  H10R 3311   3.619   5.122   7.357  0.2927  0.5337  1.5247
   25SAPC  H10S 3312   3.471   5.211   7.324 -1.0336  0.5899  3.0638
   25SAPC  C211 3313   3.581   5.304   7.468  0.7642 -0.4534  0.2897
   25SAPC  H11R 3314   3.514   5.391   7.469 -1.2111 -1.6936  5.1799
   25SAPC  C212 3315   3.649   5.276   7.583  0.2304 -0.0437 -0.0953
   25SAPC  H12R 3316   3.634   5.336   7.673 -1.0627  0.0846 -0.3770
   25SAPC  C213 3317   3.724   5.149   7.613  0.9231 -0.3018  0.4292
   25SAPC  H13R 3318   3.830   5.162   7.641  1.3100 -1.5923 -0.3231
   25SAPC  H13S 3319   3.724   5.084   7.522 -1.8889 -1.2250  0.9691
   25SAPC  C214 3320   3.654   5.078   7.721 -0.1259 -0.2050 -0.2136
   25SAPC  H14R 3321   3.574   5.011   7.686  0.7418 -2.7462  2.3386
   25SAPC  C215 3322   3.695   5.070   7.849 -0.2985 -0.4243  0.0711
   25SAPC  H15R 3323   3.612   5.032   7.911 -0.9199 -1.6111 -1.4175
   25SAPC  C216 3324   3.817   5.145   7.911  0.4782  0.5660 -0.0322
   25SAPC  H16R 3325   3.894   5.164   7.833  0.2350 -0.2483 -0.4906
   25SAPC  H16S 3326   3.866   5.086   7.991  2.1526  1.7778 -0.1216
   25SAPC  C217 3327   3.771   5.277   7.974 -0.3660  0.0373 -0.2450
   25SAPC  H17R 3328   3.686   5.264   8.044 -0.0232 -1.9096 -0.1449
   25SAPC  H17S 3329   3.740   5.344   7.891  0.0379 -0.4053 -0.7604
   25SAPC  C218 3330   3.874   5.362   8.055 -0.6720  0.3941 -0.3559
   25SAPC  H18R 3331   3.963   5.384   7.993  1.3847 -2.0394  1.5341
   25SAPC  H18S 3332   3.905   5.304   8.145 -0.4906  1.0415 -0.0011
   25SAPC  C219 3333   3.813   5.484   8.112 -0.0800 -0.0966  0.6449
   25SAPC  H19R 3334   3.720   5.458   8.167 -0.6302 -0.0230 -0.2347
   25SAPC  H19S 3335   3.782   5.560   8.037  0.0804 -0.2191  0.4516
   25SAPC  C220 3336   3.904   5.543   8.220  0.3725  0.2178 -0.6491
   25SAPC  H20R 3337   3.875   5.637   8.273 -1.1794 -0.7063  0.2173
   25SAPC  H20S 3338   4.008   5.556   8.182  0.9843 -0.0402  0.8643
   25SAPC  H20T 3339   3.912   5.463   8.297  0.8044  1.7578  0.9892
   25SAPC   C33 3340   2.798   5.454   6.898  0.1036  0.6414 -0.1567
   25SAPC   H3X 3341   2.688   5.446   6.902 -0.0904  1.7873 -2.3237
   25SAPC   H3Y 3342   2.817   5.557   6.863 -3.0427  1.7142  1.0175
   25SAPC   C34 3343   2.852   5.446   7.042 -0.3223  0.0845 -0.1483
   25SAPC   H4X 3344   2.842   5.550   7.080 -1.7150  0.3909 -1.2396
   25SAPC   H4Y 3345   2.959   5.416   7.040  0.1769  1.7586 -2.2036
   25SAPC   C35 3346   2.768   5.352   7.127 -0.1195 -0.6650  0.2153
   25SAPC   H5X 3347   2.769   5.246   7.096 -0.6859 -1.4035  2.5038
   25SAPC   H5Y 3348   2.663   5.388   7.136 -0.1518 -0.3253 -1.2741
   25SAPC   C36 3349   2.818   5.357   7.272  0.0329  0.5154 -0.3057
   25SAPC   H6X 3350   2.820   5.462   7.309  1.0047  0.6863 -0.8279
   25SAPC   H6Y 3351   2.922   5.319   7.270 -0.9921 -2.6807  0.9378
   25SAPC   C37 3352   2.756   5.260   7.370 -0.2518  0.0270  0.1730
   25SAPC   H7X 3353   2.788   5.159   7.337  0.2651  0.0186  0.6655
   25SAPC   H7Y 3354   2.647   5.258   7.390 -0.1793 -0.8568  0.5465
   25SAPC   C38 3355   2.819   5.290   7.511 -0.5360  0.4737 -0.2023
   25SAPC   H8X 3356   2.776   5.381   7.558 -0.9266  0.2077 -0.0379
   25SAPC   H8Y 3357   2.927   5.306   7.489 -1.0200  2.1734 -1.5018
   25SAPC   C39 3358   2.811   5.165   7.607  0.4064 -0.5744  0.2688
   25SAPC   H9X 3359   2.867   5.078   7.567 -0.5889 -0.7828 -0.7424
   25SAPC   H9Y 3360   2.703   5.140   7.599 -0.4403  2.0980  2.1500
   25SAPC  C310 3361   2.842   5.212   7.745  0.0133 -0.1281 -0.3101
   25SAPC  H10X 3362   2.777   5.295   7.780  0.8215  0.1029  0.6925
   25SAPC  H10Y 3363   2.947   5.245   7.762  0.2723 -1.3209  0.5462
   25SAPC  C311 3364   2.815   5.091   7.842 -0.1341  0.3605 -0.2102
   25SAPC  H11X 3365   2.856   4.997   7.801 -0.2263 -0.3384  1.2262
   25SAPC  H11Y 3366   2.708   5.067   7.861 -0.0721  0.0725 -0.2226
   25SAPC  C312 3367   2.877   5.132   7.974 -0.3880 -0.0260 -1.1607
   25SAPC  H12X 3368   2.843   5.228   8.019  0.6815  0.8894 -2.2236
   25SAPC  H12Y 3369   2.988   5.139   7.968 -0.4944  0.5845 -4.7795
   25SAPC  C313 3370   2.851   5.020   8.076 -0.6025  0.3637 -0.4732
   25SAPC  H13X 3371   2.894   4.926   8.037 -1.5843 -0.0147 -0.6810
   25SAPC  H13Y 3372   2.743   5.010   8.099 -0.5660 -2.2511 -1.1078
   25SAPC  C314 3373   2.914   5.045   8.214 -0.4420  0.3476  0.3644
   25SAPC  H14X 3374   2.852   5.129   8.253 -1.4694 -0.8584  1.4475
   25SAPC  H14Y 3375   3.019   5.081   8.201  0.2712 -1.9059 -0.4597
   25SAPC  C315 3376   2.921   4.920   8.313  0.4133  0.6457  0.5585
   25SAPC  H15X 3377   2.968   4.830   8.267  2.8347  0.5306  2.9509
   25SAPC  H15Y 3378   2.816   4.886   8.328  0.9219 -0.7017  1.3393
   25SAPC  C316 3379   2.970   4.951   8.454  0.2629  0.7536  0.1070
   25SAPC  H16X 3380   2.903   5.027   8.499  1.5553  1.7697  0.3751
   25SAPC  H16Y 3381   3.069   5.001   8.445  0.3449  0.5687 -0.0278
   25SAPC  C317 3382   2.984   4.831   8.551 -0.1524 -0.2420  0.0076
   25SAPC  H17X 3383   3.061   4.759   8.514  0.3056  0.0698  0.3473
   25SAPC  H17Y 3384   2.885   4.782   8.563 -0.5892  0.8589  1.1545
   25SAPC  C318 3385   3.023   4.889   8.685 -0.1466  0.0195 -0.1665
   25SAPC  H18X 3386   2.975   4.988   8.703 -0.7766 -0.7799  3.0183
   25SAPC  H18Y 3387   3.133   4.904   8.697 -0.2124 -0.4324  1.0884
   25SAPC  H18Z 3388   2.988   4.822   8.765 -0.6182 -0.7299 -0.9849
   26SAPC     N 3389   2.922   1.794   6.246  0.8866  0.3289  0.2275
   26SAPC   C12 3390   2.859   1.706   6.353 -0.1050  0.7663 -0.5032
   26SAPC  H12A 3391   2.796   1.768   6.415  1.4886  1.8803  0.0783
   26SAPC  H12B 3392   2.939   1.665   6.413 -0.7855 -0.6004 -0.5156
   26SAPC   C13 3393   2.815   1.867   6.166 -0.2990 -0.1964  0.2737
   26SAPC  H13A 3394   2.857   1.921   6.082  2.5319 -0.0660  1.6386
   26SAPC  H13B 3395   2.732   1.804   6.138 -0.6382 -0.4901  1.8179
   26SAPC  H13C 3396   2.765   1.938   6.231  1.0825  0.5169  0.6127
   26SAPC   C14 3397   3.018   1.888   6.299  0.1361 -0.7822 -0.5512
   26SAPC  H14A 3398   3.099   1.829   6.340 -1.8170 -3.8191 -0.7637
   26SAPC  H14B 3399   3.061   1.943   6.217  1.7870 -1.1099  0.0455
   26SAPC  H14C 3400   2.981   1.957   6.373 -1.8206 -2.0451 -0.2752
   26SAPC   C15 3401   2.995   1.703   6.151  0.4967 -0.1379  0.0626
   26SAPC  H15A 3402   2.937   1.615   6.126 -3.7048  1.9879  1.4829
   26SAPC  H15B 3403   3.022   1.762   6.065 -1.2182  1.3096  0.4688
   26SAPC  H15C 3404   3.079   1.671   6.211  1.2012  0.4997 -0.5688
   26SAPC   C11 3405   2.783   1.577   6.304  0.5300 -0.1559  0.7332
   26SAPC  H11A 3406   2.710   1.594   6.222  0.3914  1.3825  1.1516
   26SAPC  H11B 3407   2.725   1.549   6.394 -1.1354  0.6481 -0.0504
   26SAPC     P 3408   2.950   1.387   6.366  0.0080 -0.3321  0.3085
   26SAPC   O13 3409   2.990   1.263   6.298  0.4741 -0.3030 -0.6116
   26SAPC   O14 3410   3.058   1.472   6.418  0.4503  0.2067 -0.5159
   26SAPC   O12 3411   2.869   1.477   6.259 -0.0822  0.3925 -0.0577
   26SAPC   O11 3412   2.842   1.351   6.473  0.5507 -0.3115 -1.1106
   26SAPC    C1 3413   2.840   1.407   6.606 -0.5464 -0.2221 -0.3480
   26SAPC    HA 3414   2.873   1.513   6.605 -0.7978 -0.1405 -0.0936
   26SAPC    HB 3415   2.736   1.415   6.643 -0.6003  1.6452 -0.7779
   26SAPC    C2 3416   2.909   1.310   6.712 -0.6190 -0.5126  0.0973
   26SAPC    HS 3417   2.880   1.348   6.812  0.7836  0.8299  0.0215
   26SAPC   O21 3418   3.052   1.322   6.706  0.1563  0.2243  0.2147
   26SAPC   C21 3419   3.123   1.393   6.784  0.1992  0.1427 -0.6559
   26SAPC   O22 3420   3.083   1.459   6.875 -0.0008 -0.3919 -0.6846
   26SAPC   C22 3421   3.276   1.360   6.750  0.1441 -0.1497 -0.1806
   26SAPC   H2R 3422   3.285   1.266   6.692 -1.2084  0.2596 -1.0931
   26SAPC   H2S 3423   3.301   1.442   6.679 -0.1138  1.4496  1.4859
   26SAPC    C3 3424   2.854   1.161   6.700  0.7070  0.0710  0.5360
   26SAPC    HX 3425   2.876   1.134   6.595 -1.2373  1.2283 -0.2076
   26SAPC    HY 3426   2.745   1.164   6.723  1.1119  1.4731  2.5578
   26SAPC   O31 3427   2.924   1.080   6.794  0.2706 -0.2130  0.4678
   26SAPC   C31 3428   2.877   0.951   6.803  0.3555 -0.3865 -0.5486
   26SAPC   O32 3429   2.784   0.902   6.746  0.5777  0.2840  0.0112
   26SAPC   C32 3430   2.981   0.888   6.902 -0.1435  0.5776  0.3524
   26SAPC   H2X 3431   3.039   0.967   6.953  0.3692  0.0930  0.5248
   26SAPC   H2Y 3432   3.051   0.835   6.834 -1.5630  0.1830 -0.8484
   26SAPC   C23 3433   3.367   1.351   6.871 -0.8966  0.4292  0.2044
   26SAPC   H3R 3434   3.353   1.430   6.948 -0.0541 -1.3804  2.3423
   26SAPC   H3S 3435   3.470   1.357   6.829 -0.3420 -0.2166  1.4158
   26SAPC   C24 3436   3.354   1.215   6.945  0.1251  0.2096 -0.0425
   26SAPC   H4R 3437   3.440   1.208   7.015 -0.1362  1.4522  0.4441
   26SAPC   H4S 3438   3.356   1.133   6.871  0.1795  1.3238 -1.3144
   26SAPC   C25 3439   3.228   1.203   7.035  0.0858  0.2141  0.3347
   26SAPC   H5R 3440   3.134   1.170   6.989 -0.9585  0.9257  1.8714
   26SAPC   C26 3441   3.214   1.227   7.167 -0.3935  0.3945 -0.3849
   26SAPC   H6R 3442   3.114   1.215   7.211 -0.7901  0.1666 -1.3116
   26SAPC   C27 3443   3.323   1.272   7.269  0.2091  1.3537  0.1656
   26SAPC   H7R 3444   3.423   1.288   7.223  0.5696 -0.0915  0.3928
   26SAPC   H7S 3445   3.343   1.194   7.346 -1.3730  2.2718  1.5637
   26SAPC   C28 3446   3.279   1.405   7.335  0.2306  0.4652  0.3675
   26SAPC   H8R 3447   3.262   1.490   7.267 -0.0035  2.7331  3.0437
   26SAPC   C29 3448   3.266   1.436   7.462  0.1924 -0.9566  0.0247
   26SAPC   H9R 3449   3.249   1.541   7.491 -0.4995 -1.0421 -0.0601
   26SAPC  C210 3450   3.299   1.356   7.583 -0.0685  0.2280 -0.3237
   26SAPC  H10R 3451   3.303   1.250   7.551 -0.6286  0.1005  0.0255
   26SAPC  H10S 3452   3.215   1.347   7.655 -0.5900 -2.2568 -1.1528
   26SAPC  C211 3453   3.421   1.395   7.654  0.0136 -0.4956  0.7472
   26SAPC  H11R 3454   3.398   1.447   7.748 -1.3122 -1.6957  1.1185
   26SAPC  C212 3455   3.558   1.395   7.620  0.7990 -0.2724  0.1814
   26SAPC  H12R 3456   3.632   1.426   7.694 -1.6823 -2.5101  3.9795
   26SAPC  C213 3457   3.606   1.328   7.494  0.2211 -1.0543  0.0514
   26SAPC  H13R 3458   3.580   1.398   7.412 -0.9989 -1.6034 -0.0410
   26SAPC  H13S 3459   3.557   1.232   7.470  0.3277 -0.9999 -0.4016
   26SAPC  C214 3460   3.759   1.301   7.507 -0.0586  1.1789 -0.0649
   26SAPC  H14R 3461   3.804   1.322   7.605 -1.7731  3.3136  0.3378
   26SAPC  C215 3462   3.838   1.235   7.423 -0.2762  0.1498 -0.9043
   26SAPC  H15R 3463   3.947   1.228   7.435 -0.0639  1.9547 -1.4110
   26SAPC  C216 3464   3.805   1.184   7.286 -0.0697  0.0713 -0.9350
   26SAPC  H16R 3465   3.695   1.170   7.277 -0.1390  0.1701 -0.3124
   26SAPC  H16S 3466   3.849   1.083   7.272  0.1554  0.1572 -0.8639
   26SAPC  C217 3467   3.849   1.294   7.177 -0.4554 -0.5579  0.0306
   26SAPC  H17R 3468   3.952   1.333   7.196 -1.3378  0.5165  3.0066
   26SAPC  H17S 3469   3.784   1.381   7.198 -1.4218 -1.4408  0.7774
   26SAPC  C218 3470   3.841   1.232   7.040  0.1367  0.3327  0.6187
   26SAPC  H18R 3471   3.739   1.188   7.042  0.1671  0.2212 -0.0621
   26SAPC  H18S 3472   3.909   1.147   7.022 -0.3891 -0.4065  1.9756
   26SAPC  C219 3473   3.833   1.327   6.925 -0.2285  0.1647  0.2913
   26SAPC  H19R 3474   3.731   1.370   6.933  0.9089  2.9258  1.2023
   26SAPC  H19S 3475   3.836   1.267   6.832  2.3359 -0.0001  0.4154
   26SAPC  C220 3476   3.938   1.438   6.917  0.0709  0.7373 -0.3484
   26SAPC  H20R 3477   4.035   1.385   6.901 -0.6735 -1.2069  1.1500
   26SAPC  H20S 3478   3.924   1.501   7.007 -1.2892  0.9015 -0.6560
   26SAPC  H20T 3479   3.928   1.507   6.831  0.5072 -0.4469 -1.3861
   26SAPC   C33 3480   2.921   0.778   6.992 -0.4871  0.1547 -0.4572
   26SAPC   H3X 3481   2.998   0.702   7.017 -1.4250 -0.1493  1.7757
   26SAPC   H3Y 3482   2.850   0.720   6.930 -0.0296 -1.5619  0.5481
   26SAPC   C34 3483   2.869   0.828   7.128 -0.1838  0.4579  0.4313
   26SAPC   H4X 3484   2.806   0.751   7.179  0.7769 -0.1380  0.7469
   26SAPC   H4Y 3485   2.810   0.921   7.112  2.0022  2.2599  2.1739
   26SAPC   C35 3486   2.991   0.851   7.222  0.0378 -0.4675  0.0782
   26SAPC   H5X 3487   3.067   0.918   7.174 -1.3881  2.5204  1.6897
   26SAPC   H5Y 3488   3.035   0.752   7.243 -2.9763 -1.5203  2.0607
   26SAPC   C36 3489   2.946   0.920   7.351 -0.1247 -0.4122  0.1404
   26SAPC   H6X 3490   2.884   0.852   7.413  2.5428 -1.7041  1.5968
   26SAPC   H6Y 3491   2.894   1.016   7.332  1.7770  0.5485 -0.5648
   26SAPC   C37 3492   3.073   0.957   7.424 -0.0681 -0.2831 -0.9876
   26SAPC   H7X 3493   3.131   1.041   7.380  0.4699  0.6157  1.2788
   26SAPC   H7Y 3494   3.141   0.871   7.439 -0.4243 -0.3140  0.6282
   26SAPC   C38 3495   3.045   1.010   7.565  0.2975  0.8903 -0.0602
   26SAPC   H8X 3496   2.973   0.934   7.604  0.9792 -1.5136 -3.0965
   26SAPC   H8Y 3497   2.986   1.104   7.570 -1.0938 -0.0225  2.4542
   26SAPC   C39 3498   3.168   1.006   7.656  0.9985 -0.5417 -0.1471
   26SAPC   H9X 3499   3.242   1.074   7.609  1.0328 -1.0221 -0.7928
   26SAPC   H9Y 3500   3.219   0.907   7.664  0.6154 -0.6451  1.6598
   26SAPC  C310 3501   3.146   1.076   7.795 -0.4362  0.2682 -0.6698
   26SAPC  H10X 3502   3.072   1.023   7.859 -3.9878  2.6788 -2.4456
   26SAPC  H10Y 3503   3.102   1.177   7.776  1.2450  1.3229  0.7624
   26SAPC  C311 3504   3.279   1.096   7.877  0.0164  0.2762  0.3094
   26SAPC  H11X 3505   3.367   1.096   7.809  0.2857  1.5962  0.6201
   26SAPC  H11Y 3506   3.309   1.011   7.941 -1.3165  0.2213  0.8870
   26SAPC  C312 3507   3.270   1.220   7.968 -1.0677 -0.1558  0.6423
   26SAPC  H12X 3508   3.177   1.210   8.029 -0.4947 -1.1224  1.3882
   26SAPC  H12Y 3509   3.263   1.308   7.901  3.2162 -1.7156 -2.2357
   26SAPC  C313 3510   3.385   1.252   8.069 -0.1281  0.9383 -0.0257
   26SAPC  H13X 3511   3.474   1.287   8.012 -1.4233 -1.0436 -3.5239
   26SAPC  H13Y 3512   3.403   1.157   8.123 -0.7372  1.9158  1.9953
   26SAPC  C314 3513   3.342   1.359   8.172  0.1797 -0.5830 -0.4045
   26SAPC  H14X 3514   3.435   1.387   8.227 -0.5027 -0.8392  0.9229
   26SAPC  H14Y 3515   3.273   1.309   8.244  1.6974  0.7582  2.1590
   26SAPC  C315 3516   3.284   1.490   8.124 -0.6132  0.4065 -0.5256
   26SAPC  H15X 3517   3.237   1.549   8.205 -0.2513  2.5518 -1.8183
   26SAPC  H15Y 3518   3.196   1.458   8.062 -0.7292 -1.4409  0.5100
   26SAPC  C316 3519   3.376   1.578   8.054  0.3095  0.0243  0.6527
   26SAPC  H16X 3520   3.422   1.523   7.969  0.8817  0.9099  0.3818
   26SAPC  H16Y 3521   3.454   1.595   8.131  0.9732 -1.1598  0.2823
   26SAPC  C317 3522   3.302   1.712   8.006  0.4890 -0.1765 -0.4761
   26SAPC  H17X 3523   3.284   1.760   8.104  2.2433 -1.2372  0.4345
   26SAPC  H17Y 3524   3.205   1.687   7.958 -0.0558  2.2139 -0.7305
   26SAPC  C318 3525   3.396   1.802   7.913  0.7068  0.2785 -0.3550
   26SAPC  H18X 3526   3.339   1.885   7.867  0.3979  0.2257 -0.0730
   26SAPC  H18Y 3527   3.417   1.749   7.817  0.9834  1.0937 -0.7544
   26SAPC  H18Z 3528   3.488   1.840   7.961  0.5998  1.2443 -0.8899
   27SAPC     N 3529   2.394   0.729   6.326  0.4533  0.1480  0.4341
   27SAPC   C12 3530   2.400   0.602   6.411  0.2596 -0.5987 -0.0606
   27SAPC  H12A 3531   2.360   0.626   6.508 -1.3104  1.9604 -1.2195
   27SAPC  H12B 3532   2.502   0.577   6.434  0.1480  0.0547  1.2126
   27SAPC   C13 3533   2.257   0.777   6.323  0.3959  0.5083  0.4191
   27SAPC  H13A 3534   2.182   0.701   6.306  0.0940  0.8450  0.1914
   27SAPC  H13B 3535   2.218   0.806   6.420 -0.7047  2.8959 -0.6230
   27SAPC  H13C 3536   2.238   0.869   6.269  2.1524  0.4060 -0.4398
   27SAPC   C14 3537   2.472   0.841   6.371 -0.3195 -0.0497 -0.2263
   27SAPC  H14A 3538   2.448   0.870   6.473 -1.1109  0.8309 -0.6421
   27SAPC  H14B 3539   2.576   0.814   6.373 -0.3955 -0.3415  1.5298
   27SAPC  H14C 3540   2.458   0.929   6.310 -2.3044 -1.1853 -1.5157
   27SAPC   C15 3541   2.429   0.701   6.186 -0.4329  0.0503 -0.2527
   27SAPC  H15A 3542   2.532   0.670   6.176 -0.6330 -0.9234  0.4967
   27SAPC  H15B 3543   2.362   0.634   6.134 -0.2138 -0.2820 -0.1085
   27SAPC  H15C 3544   2.429   0.798   6.138  0.4765  0.2252  0.0863
   27SAPC   C11 3545   2.308   0.479   6.374 -0.3831 -0.0324  0.5697
   27SAPC  H11A 3546   2.334   0.392   6.438  2.3776 -0.8834 -1.5096
   27SAPC  H11B 3547   2.328   0.443   6.271 -0.1313 -0.5967  0.8135
   27SAPC     P 3548   2.081   0.525   6.507  0.5844 -0.2778  0.3117
   27SAPC   O13 3549   1.968   0.625   6.486 -0.1418 -0.4141 -0.0537
   27SAPC   O14 3550   2.039   0.401   6.575 -0.6299  0.5822  0.8185
   27SAPC   O12 3551   2.168   0.504   6.376  0.0670 -0.1681 -0.5998
   27SAPC   O11 3552   2.190   0.586   6.599  0.0645  0.2302  0.1626
   27SAPC    C1 3553   2.164   0.707   6.669  0.5835  0.4275 -0.0291
   27SAPC    HA 3554   2.258   0.750   6.709  0.2159 -0.9218  2.4895
   27SAPC    HB 3555   2.124   0.790   6.607  2.5979  1.2339 -0.3350
   27SAPC    C2 3556   2.089   0.690   6.801 -0.0483  0.5496 -0.4056
   27SAPC    HS 3557   1.993   0.642   6.775  0.3885  0.4235 -1.9134
   27SAPC   O21 3558   2.068   0.824   6.858 -0.6180  0.3517 -0.6257
   27SAPC   C21 3559   1.950   0.843   6.918 -0.6607 -0.2213  0.1068
   27SAPC   O22 3560   1.855   0.764   6.920 -0.2402 -0.1268 -0.1875
   27SAPC   C22 3561   1.937   0.980   6.986 -0.2529  0.0829  0.4077
   27SAPC   H2R 3562   1.880   1.052   6.923 -1.2181 -0.8332  0.2046
   27SAPC   H2S 3563   1.878   0.959   7.078 -0.9347 -0.7791 -0.2126
   27SAPC    C3 3564   2.173   0.607   6.903  0.0780  0.4410  0.3360
   27SAPC    HX 3565   2.277   0.643   6.914 -0.1744  0.8705  1.4630
   27SAPC    HY 3566   2.173   0.504   6.860  1.2123  0.5551  0.0372
   27SAPC   O31 3567   2.115   0.630   7.032  0.3632 -0.1646  0.3271
   27SAPC   C31 3568   2.061   0.528   7.095  0.3757  0.8065 -0.4652
   27SAPC   O32 3569   2.070   0.412   7.058 -0.5552 -0.0755  0.1665
   27SAPC   C32 3570   2.012   0.572   7.236  0.1536  0.3712  0.3683
   27SAPC   H2X 3571   2.107   0.599   7.287  1.5037 -0.1064 -1.7719
   27SAPC   H2Y 3572   1.964   0.487   7.289 -0.0882 -0.0244 -0.4670
   27SAPC   C23 3573   2.065   1.048   7.045 -0.2889  0.3918  1.0190
   27SAPC   H3R 3574   2.082   1.133   6.976  0.3538 -1.5257 -1.2879
   27SAPC   H3S 3575   2.147   0.976   7.027 -1.2773 -0.4310 -0.4090
   27SAPC   C24 3576   2.055   1.095   7.190 -0.4645 -0.4719  0.0093
   27SAPC   H4R 3577   2.053   1.020   7.272 -0.7160  0.9704  1.3810
   27SAPC   H4S 3578   1.958   1.145   7.210 -1.1219 -2.1746  1.2780
   27SAPC   C25 3579   2.169   1.194   7.213  0.3612  0.7224  0.1844
   27SAPC   H5R 3580   2.197   1.253   7.125  0.9362 -0.8326 -0.7020
   27SAPC   C26 3581   2.240   1.209   7.328 -0.2254 -0.3424  0.5682
   27SAPC   H6R 3582   2.310   1.292   7.335  0.8598 -0.9788 -1.7348
   27SAPC   C27 3583   2.209   1.134   7.460 -0.1622 -0.6246  0.1203
   27SAPC   H7R 3584   2.307   1.130   7.512  0.6587 -0.3056 -1.3496
   27SAPC   H7S 3585   2.191   1.026   7.439  0.7738 -0.8335  0.3634
   27SAPC   C28 3586   2.091   1.173   7.547 -0.4634  0.4307  0.0461
   27SAPC   H8R 3587   2.005   1.209   7.488 -0.1157  3.9921  1.4495
   27SAPC   C29 3588   2.086   1.176   7.680  0.5533 -0.1757  0.0007
   27SAPC   H9R 3589   1.995   1.211   7.730  1.5631  1.2309  0.9545
   27SAPC  C210 3590   2.198   1.143   7.776  0.1435  0.3771 -0.4827
   27SAPC  H10R 3591   2.296   1.145   7.723 -0.2504 -0.5576 -1.2690
   27SAPC  H10S 3592   2.195   1.033   7.791 -0.7778 -0.0629 -3.3647
   27SAPC  C211 3593   2.203   1.228   7.900 -0.2910 -0.8766  0.0189
   27SAPC  H11R 3594   2.184   1.335   7.884 -1.7904 -1.0479  0.4806
   27SAPC  C212 3595   2.245   1.188   8.025  0.4523  0.2058 -0.3426
   27SAPC  H12R 3596   2.255   1.254   8.112  2.2676 -1.5903  0.8876
   27SAPC  C213 3597   2.272   1.047   8.059  0.2275  0.3886  0.0801
   27SAPC  H13R 3598   2.381   1.046   8.084  0.9032  1.4302 -2.4802
   27SAPC  H13S 3599   2.272   0.983   7.968  1.2572  0.0515  0.3046
   27SAPC  C214 3600   2.163   0.987   8.142 -0.8014 -0.3493 -0.7982
   27SAPC  H14R 3601   2.058   1.006   8.116 -1.1098 -0.1357  0.5189
   27SAPC  C215 3602   2.185   0.915   8.257  0.0190  0.0125  0.5614
   27SAPC  H15R 3603   2.113   0.876   8.331  2.4442 -2.9944  1.5528
   27SAPC  C216 3604   2.325   0.879   8.300 -0.1794 -0.4246 -0.2555
   27SAPC  H16R 3605   2.395   0.853   8.217 -0.4268  2.1820 -1.3845
   27SAPC  H16S 3606   2.325   0.788   8.362 -0.3208  0.0139  0.3988
   27SAPC  C217 3607   2.388   0.980   8.395 -0.3376 -0.2130  0.1073
   27SAPC  H17R 3608   2.418   1.076   8.347 -2.4309 -0.2478 -1.3976
   27SAPC  H17S 3609   2.486   0.938   8.426  0.7489  0.7145 -1.8590
   27SAPC  C218 3610   2.340   1.007   8.534 -0.3557  0.8920  0.1225
   27SAPC  H18R 3611   2.278   0.924   8.572  1.3000 -0.4844 -0.0673
   27SAPC  H18S 3612   2.275   1.097   8.534  0.1052  1.2348  0.2348
   27SAPC  C219 3613   2.458   1.028   8.635  0.0867  0.0190  0.2272
   27SAPC  H19R 3614   2.521   0.937   8.637 -0.7079 -0.7430 -2.8949
   27SAPC  H19S 3615   2.416   1.045   8.737  0.0338  1.3656 -0.0015
   27SAPC  C220 3616   2.543   1.157   8.611  0.3086  0.3759 -0.3064
   27SAPC  H20R 3617   2.586   1.146   8.509 -2.4112  0.5479 -1.5527
   27SAPC  H20S 3618   2.618   1.164   8.692 -0.7295 -1.0295  0.8459
   27SAPC  H20T 3619   2.483   1.250   8.603 -2.7069 -1.3766  0.0638
   27SAPC   C33 3620   1.900   0.679   7.223  0.0135 -0.3188 -0.1778
   27SAPC   H3X 3621   1.818   0.628   7.168  0.3102  0.0421 -0.9569
   27SAPC   H3Y 3622   1.927   0.775   7.176  0.9203 -0.4415  0.0726
   27SAPC   C34 3623   1.847   0.714   7.365  0.4646  0.0089 -0.0123
   27SAPC   H4X 3624   1.803   0.623   7.409  2.1986 -1.9145 -2.0255
   27SAPC   H4Y 3625   1.769   0.793   7.357  1.3150  0.6997 -2.5626
   27SAPC   C35 3626   1.951   0.775   7.464  0.5460  0.6120  0.8866
   27SAPC   H5X 3627   1.977   0.875   7.422 -0.6863 -0.0633 -1.6950
   27SAPC   H5Y 3628   2.043   0.714   7.469 -0.2620 -0.7662 -0.2819
   27SAPC   C36 3629   1.906   0.795   7.612  0.5317 -0.3614  0.6249
   27SAPC   H6X 3630   1.969   0.874   7.659 -2.6633  3.2131 -0.5700
   27SAPC   H6Y 3631   1.910   0.695   7.660  1.3842 -0.1505  1.0121
   27SAPC   C37 3632   1.761   0.837   7.626 -0.2825 -0.2677  0.4193
   27SAPC   H7X 3633   1.682   0.774   7.579 -1.8393  1.3755  0.7033
   27SAPC   H7Y 3634   1.764   0.935   7.573  1.0030 -0.9860 -0.9119
   27SAPC   C38 3635   1.732   0.870   7.772 -0.3709  0.0681 -0.4700
   27SAPC   H8X 3636   1.759   0.785   7.838  2.8723  0.0593 -1.6555
   27SAPC   H8Y 3637   1.626   0.882   7.802  0.4249  1.6605  2.0050
   27SAPC   C39 3638   1.802   0.996   7.826  0.3030 -0.4135 -0.4309
   27SAPC   H9X 3639   1.761   1.083   7.770 -0.9573 -0.7920 -0.1212
   27SAPC   H9Y 3640   1.911   0.989   7.807  0.3176 -0.5884 -0.2810
   27SAPC  C310 3641   1.775   1.023   7.977  0.0910 -0.7120  0.2224
   27SAPC  H10X 3642   1.833   0.944   8.031  1.3343 -1.5259 -2.1696
   27SAPC  H10Y 3643   1.666   1.002   7.981 -0.3905  1.0496 -2.0369
   27SAPC  C311 3644   1.812   1.163   8.028 -0.7521 -0.0931  0.2410
   27SAPC  H11X 3645   1.765   1.245   7.970  0.5890  0.9091  0.5154
   27SAPC  H11Y 3646   1.919   1.185   8.012 -0.9300  1.8390  1.3290
   27SAPC  C312 3647   1.778   1.192   8.172  0.1721  0.1119 -0.5768
   27SAPC  H12X 3648   1.812   1.102   8.226 -1.6815 -0.0765  0.3669
   27SAPC  H12Y 3649   1.670   1.187   8.196  0.3452 -0.4592  0.0891
   27SAPC  C313 3650   1.854   1.301   8.250  0.3493  0.8368  0.5093
   27SAPC  H13X 3651   1.806   1.390   8.204  0.0952  0.0109 -0.8590
   27SAPC  H13Y 3652   1.964   1.296   8.235  0.4089  1.7777  0.5242
   27SAPC  C314 3653   1.822   1.297   8.400 -0.3042 -0.4697 -0.4951
   27SAPC  H14X 3654   1.917   1.272   8.453  1.9416  1.9965 -3.0383
   27SAPC  H14Y 3655   1.742   1.227   8.433 -2.2393  1.0362 -1.7947
   27SAPC  C315 3656   1.794   1.439   8.466 -0.4837  0.0990 -0.4635
   27SAPC  H15X 3657   1.686   1.460   8.450 -1.2288 -1.1816  2.2976
   27SAPC  H15Y 3658   1.861   1.515   8.422 -0.5269 -1.1803 -2.9229
   27SAPC  C316 3659   1.783   1.428   8.622 -0.9305  0.2284 -0.3361
   27SAPC  H16X 3660   1.739   1.524   8.658 -0.5194  0.0516  0.6815
   27SAPC  H16Y 3661   1.883   1.416   8.667 -0.6378  1.0926 -0.7402
   27SAPC  C317 3662   1.688   1.320   8.683 -0.2635 -1.1234 -0.7900
   27SAPC  H17X 3663   1.706   1.324   8.792 -0.1836 -2.3757 -0.7469
   27SAPC  H17Y 3664   1.713   1.215   8.656 -1.2863 -1.6722  0.2994
   27SAPC  C318 3665   1.539   1.339   8.654  0.3809 -0.1450  0.1575
   27SAPC  H18X 3666   1.510   1.442   8.683  2.9624  0.5140  0.5771
   27SAPC  H18Y 3667   1.477   1.272   8.717  0.8156  1.3426  2.2681
   27SAPC  H18Z 3668   1.527   1.316   8.546  0.3020 -1.0869  0.3592
   28SAPC     N 3669   1.228   3.648   5.922 -1.0912  0.3139 -0.8235
   28SAPC   C12 3670   1.224   3.739   6.045 -0.0755 -0.3733  1.0725
   28SAPC  H12A 3671   1.178   3.835   6.033 -1.1859 -1.0130  0.0668
   28SAPC  H12B 3672   1.330   3.746   6.065  0.2407 -2.3114  0.3023
   28SAPC   C13 3673   1.094   3.586   5.898  0.3010 -0.7751 -1.0305
   28SAPC  H13A 3674   1.099   3.523   5.810  1.5606  1.2209 -2.4680
   28SAPC  H13B 3675   1.071   3.530   5.988  1.8908  1.9995  1.3023
   28SAPC  H13C 3676   1.025   3.663   5.868  2.4155  1.4531 -0.4577
   28SAPC   C14 3677   1.279   3.715   5.789  0.0984  0.1892 -0.4055
   28SAPC  H14A 3678   1.323   3.634   5.733  1.7988 -0.8555  2.2632
   28SAPC  H14B 3679   1.196   3.764   5.739 -0.4196 -0.0743  0.1843
   28SAPC  H14C 3680   1.356   3.788   5.805  1.1459 -1.2693  1.5279
   28SAPC   C15 3681   1.327   3.537   5.944  0.5768 -0.5423  0.1480
   28SAPC  H15A 3682   1.312   3.490   6.040 -0.8018 -1.5892 -0.5422
   28SAPC  H15B 3683   1.309   3.465   5.867 -1.4848  0.8113 -0.7442
   28SAPC  H15C 3684   1.427   3.577   5.940  0.7702 -1.1304 -2.0001
   28SAPC   C11 3685   1.177   3.688   6.182 -0.3443  0.6788 -0.4705
   28SAPC  H11A 3686   1.066   3.691   6.183 -0.3598  0.2299 -0.6929
   28SAPC  H11B 3687   1.215   3.766   6.251  0.8544  0.0548 -0.4109
   28SAPC     P 3688   1.143   3.456   6.291  0.2147 -0.3897 -0.2718
   28SAPC   O13 3689   1.046   3.400   6.195 -0.1534 -0.1069  1.0996
   28SAPC   O14 3690   1.235   3.356   6.355 -0.2007 -0.2460  0.8333
   28SAPC   O12 3691   1.235   3.563   6.221  0.3239  0.8057  0.0652
   28SAPC   O11 3692   1.071   3.554   6.392 -0.0526  0.0289  0.0843
   28SAPC    C1 3693   1.142   3.601   6.507  0.4409 -0.1018 -0.5719
   28SAPC    HA 3694   1.246   3.625   6.478  0.0505 -0.8575 -2.7817
   28SAPC    HB 3695   1.101   3.698   6.543  1.2131 -0.4025  1.2227
   28SAPC    C2 3696   1.134   3.511   6.635 -0.0933 -0.0099 -0.0377
   28SAPC    HS 3697   1.181   3.412   6.617  1.8919  0.9878 -0.5577
   28SAPC   O21 3698   0.999   3.507   6.689  0.6860  0.2054 -0.5665
   28SAPC   C21 3699   0.937   3.391   6.657  0.0651  0.5356  0.2504
   28SAPC   O22 3700   0.993   3.299   6.597  0.3127 -0.9391  0.0806
   28SAPC   C22 3701   0.785   3.392   6.686 -0.0720 -0.0813  0.6389
   28SAPC   H2R 3702   0.747   3.495   6.673  0.2678 -0.1246 -0.8885
   28SAPC   H2S 3703   0.743   3.331   6.604 -0.3002 -0.4538  1.0287
   28SAPC    C3 3704   1.211   3.574   6.748 -0.5570  0.0391  0.1316
   28SAPC    HX 3705   1.190   3.523   6.845  1.3272  0.0009  0.5579
   28SAPC    HY 3706   1.182   3.680   6.760 -0.0361 -0.1554  5.0571
   28SAPC   O31 3707   1.354   3.558   6.718  0.5610 -0.8605 -0.0486
   28SAPC   C31 3708   1.438   3.565   6.820 -0.4186  0.6086  0.6143
   28SAPC   O32 3709   1.411   3.570   6.937  0.1189 -0.1593 -0.0624
   28SAPC   C32 3710   1.576   3.544   6.765 -0.2010  0.2204  1.0969
   28SAPC   H2X 3711   1.589   3.604   6.672  1.0280 -3.1195 -1.1075
   28SAPC   H2Y 3712   1.586   3.439   6.728 -1.0067  0.1335  1.1009
   28SAPC   C23 3713   0.763   3.333   6.829 -0.1449  0.1652 -0.8282
   28SAPC   H3R 3714   0.785   3.415   6.900  0.1363  1.2498 -2.1140
   28SAPC   H3S 3715   0.827   3.250   6.865 -0.3557  0.7278  0.9027
   28SAPC   C24 3716   0.619   3.290   6.859  0.5136  0.3856  0.0577
   28SAPC   H4R 3717   0.604   3.272   6.968 -0.4389  1.7726  0.1852
   28SAPC   H4S 3718   0.550   3.374   6.837  0.6713  0.4248 -0.3010
   28SAPC   C25 3719   0.587   3.163   6.777 -0.2153 -0.7485  0.1224
   28SAPC   H5R 3720   0.601   3.166   6.668 -1.0370  1.1168  0.0366
   28SAPC   C26 3721   0.533   3.055   6.834 -0.4433  0.4869  0.3405
   28SAPC   H6R 3722   0.501   2.977   6.764 -1.6462  1.1542  0.1188
   28SAPC   C27 3723   0.481   3.025   6.973 -0.7199  0.0706  0.2045
   28SAPC   H7R 3724   0.565   3.035   7.045  0.7757  0.8259 -1.5674
   28SAPC   H7S 3725   0.447   2.919   6.974 -4.7125  1.1224 -1.3875
   28SAPC   C28 3726   0.365   3.102   7.019 -0.7485  0.0071 -0.0302
   28SAPC   H8R 3727   0.281   3.081   6.952 -0.8145  0.4718 -0.0959
   28SAPC   C29 3728   0.351   3.166   7.138  0.1189  0.7043 -0.6431
   28SAPC   H9R 3729   0.252   3.209   7.157 -1.3757 -2.4005 -0.8264
   28SAPC  C210 3730   0.456   3.180   7.254 -0.2962 -0.2227  0.1507
   28SAPC  H10R 3731   0.413   3.260   7.318 -2.3383 -2.2132  1.4125
   28SAPC  H10S 3732   0.554   3.200   7.206 -1.2013 -3.3984 -3.5427
   28SAPC  C211 3733   0.454   3.045   7.327  0.1841 -0.4560 -0.6315
   28SAPC  H11R 3734   0.515   2.968   7.277  1.0788 -0.4239  0.3891
   28SAPC  C212 3735   0.402   3.015   7.448 -0.4255 -0.6427  0.5563
   28SAPC  H12R 3736   0.401   2.911   7.485  1.1582 -0.0449  2.4718
   28SAPC  C213 3737   0.329   3.111   7.537  0.1053  0.0733  0.9384
   28SAPC  H13R 3738   0.301   3.203   7.483 -1.9198 -0.6718  0.6517
   28SAPC  H13S 3739   0.400   3.160   7.608  1.2995  0.8482 -0.7168
   28SAPC  C214 3740   0.207   3.053   7.605  0.5820 -0.2428 -0.2126
   28SAPC  H14R 3741   0.111   3.091   7.568  1.1282  0.6136 -0.7854
   28SAPC  C215 3742   0.197   2.969   7.705  0.0448  0.0410  0.2593
   28SAPC  H15R 3743   0.094   2.937   7.725 -0.6038  2.1273  0.5209
   28SAPC  C216 3744   0.301   2.903   7.784 -1.2296  0.4944 -0.3203
   28SAPC  H16R 3745   0.400   2.918   7.736 -1.5858 -1.0365 -1.6381
   28SAPC  H16S 3746   0.283   2.794   7.797  2.9979 -0.4168 -0.5771
   28SAPC  C217 3747   0.300   2.969   7.922  1.0095 -0.4224  0.0355
   28SAPC  H17R 3748   0.200   2.957   7.969  0.4167 -0.1696 -1.1205
   28SAPC  H17S 3749   0.325   3.077   7.910 -0.6245  0.0037  0.2495
   28SAPC  C218 3750   0.385   2.895   8.025 -0.2467  0.6801 -0.4049
   28SAPC  H18R 3751   0.486   2.865   7.989  1.3171 -0.7420  4.4142
   28SAPC  H18S 3752   0.338   2.798   8.053  0.2016 -0.0420 -2.0077
   28SAPC  C219 3753   0.431   2.986   8.136  0.8926  0.7626  0.3415
   28SAPC  H19R 3754   0.351   3.020   8.205 -1.5160 -0.7342 -1.5240
   28SAPC  H19S 3755   0.489   3.068   8.088  0.9859 -0.8767 -2.5947
   28SAPC  C220 3756   0.523   2.918   8.238  0.1671  0.0362  0.1138
   28SAPC  H20R 3757   0.567   2.995   8.305  1.0076 -1.1658  0.9724
   28SAPC  H20S 3758   0.604   2.863   8.185  0.7288 -1.8685  2.7530
   28SAPC  H20T 3759   0.476   2.842   8.304  0.1544 -0.2901 -0.2684
   28SAPC   C33 3760   1.678   3.576   6.870 -0.6304  0.0758 -0.6788
   28SAPC   H3X 3761   1.634   3.644   6.946 -1.4076 -2.0001  0.8371
   28SAPC   H3Y 3762   1.772   3.610   6.823  0.0360 -2.2873 -1.1923
   28SAPC   C34 3763   1.726   3.456   6.952  0.7274  0.1987 -0.3185
   28SAPC   H4X 3764   1.795   3.396   6.890  0.7511  2.3533 -2.5392
   28SAPC   H4Y 3765   1.634   3.399   6.976  0.3746 -0.2222 -2.5104
   28SAPC   C35 3766   1.806   3.493   7.076  0.7955 -0.2147 -0.4239
   28SAPC   H5X 3767   1.836   3.402   7.132 -0.7108 -0.2428  0.4001
   28SAPC   H5Y 3768   1.732   3.546   7.140 -1.3495 -0.9877 -2.1496
   28SAPC   C36 3769   1.924   3.593   7.047 -0.3146 -0.3247  0.0778
   28SAPC   H6X 3770   1.890   3.699   7.050 -1.3409 -0.5205  5.0770
   28SAPC   H6Y 3771   1.962   3.561   6.948  0.8319 -2.1577  1.0410
   28SAPC   C37 3772   2.046   3.576   7.146  0.6894 -0.2502 -0.2756
   28SAPC   H7X 3773   2.116   3.662   7.136 -0.4941  1.0300  1.6684
   28SAPC   H7Y 3774   2.096   3.483   7.111  0.3973 -0.1948 -0.8458
   28SAPC   C38 3775   2.004   3.569   7.289 -0.1426  0.5383 -0.9064
   28SAPC   H8X 3776   1.917   3.503   7.305  0.5735  0.3329  3.2490
   28SAPC   H8Y 3777   1.963   3.672   7.303 -1.6526  0.0495 -1.5482
   28SAPC   C39 3778   2.104   3.510   7.394  0.2899  0.0846  0.4735
   28SAPC   H9X 3779   2.196   3.570   7.379 -0.1607  0.4873 -0.8024
   28SAPC   H9Y 3780   2.119   3.405   7.361  0.8516  0.0268  0.8995
   28SAPC  C310 3781   2.050   3.530   7.531  0.4536  0.4887 -0.0640
   28SAPC  H10X 3782   2.053   3.641   7.528  0.3076  0.5137  0.6150
   28SAPC  H10Y 3783   2.120   3.488   7.607 -0.6216  0.3943  0.9024
   28SAPC  C311 3784   1.901   3.485   7.574  0.4361 -0.8933  0.7630
   28SAPC  H11X 3785   1.871   3.382   7.546 -0.9435 -0.7919  1.7168
   28SAPC  H11Y 3786   1.826   3.542   7.515 -1.6583 -2.6797  1.5799
   28SAPC  C312 3787   1.865   3.529   7.713  0.1255  0.9151 -0.0042
   28SAPC  H12X 3788   1.770   3.488   7.756  0.3065  1.0940  0.5710
   28SAPC  H12Y 3789   1.851   3.639   7.711 -1.4032  0.7578 -1.8683
   28SAPC  C313 3790   1.953   3.477   7.827 -0.4250 -0.1070  0.3585
   28SAPC  H13X 3791   2.052   3.527   7.811  0.0092 -0.8844  0.5654
   28SAPC  H13Y 3792   1.965   3.368   7.815 -2.7169 -0.4883  1.1136
   28SAPC  C314 3793   1.910   3.510   7.970 -0.0985 -0.2331  0.6683
   28SAPC  H14X 3794   1.889   3.619   7.981  0.3704 -0.0829  0.1153
   28SAPC  H14Y 3795   1.996   3.489   8.037 -1.3408 -0.6618  2.1733
   28SAPC  C315 3796   1.792   3.444   8.034  0.4762  0.4450  0.3562
   28SAPC  H15X 3797   1.788   3.335   8.011  1.4854  0.6866 -1.1049
   28SAPC  H15Y 3798   1.698   3.499   8.017  0.4826  1.2587  2.6420
   28SAPC  C316 3799   1.798   3.450   8.186  0.3434  0.9097 -0.1870
   28SAPC  H16X 3800   1.896   3.423   8.232 -0.4888 -1.3856  0.3542
   28SAPC  H16Y 3801   1.729   3.374   8.228  0.0271 -0.2137 -2.6112
   28SAPC  C317 3802   1.750   3.591   8.237  0.2838  0.1712 -0.0815
   28SAPC  H17X 3803   1.641   3.604   8.221  0.2328 -0.2436 -0.0628
   28SAPC  H17Y 3804   1.809   3.672   8.188  0.5246 -0.1619 -0.3494
   28SAPC  C318 3805   1.762   3.587   8.388  0.3722 -0.3974  0.1164
   28SAPC  H18X 3806   1.686   3.513   8.422  0.2643 -0.8373 -1.0392
   28SAPC  H18Y 3807   1.751   3.684   8.441 -0.4609 -0.7684  0.6650
   28SAPC  H18Z 3808   1.864   3.547   8.404 -0.3610 -2.4963 -0.1258
   29SAPC     N 3809   4.656   0.571   6.193 -0.4744  0.0696 -0.2142
   29SAPC   C12 3810   4.598   0.542   6.327 -0.9737 -0.2076  0.2659
   29SAPC  H12A 3811   4.620   0.438   6.347  0.7867 -0.1430 -1.0368
   29SAPC  H12B 3812   4.491   0.542   6.311 -1.1597 -0.9800  1.3710
   29SAPC   C13 3813   4.807   0.580   6.200 -0.1190 -0.6132 -0.6327
   29SAPC  H13A 3814   4.846   0.621   6.108  0.9452 -3.0970 -1.3556
   29SAPC  H13B 3815   4.830   0.658   6.272 -3.3907 -0.0124 -0.0976
   29SAPC  H13C 3816   4.860   0.487   6.213  0.8542 -0.0704 -0.5934
   29SAPC   C14 3817   4.612   0.473   6.092  0.3129  0.6440 -0.2766
   29SAPC  H14A 3818   4.507   0.471   6.071  0.3804 -1.1307 -0.6090
   29SAPC  H14B 3819   4.666   0.488   5.999  2.7484  1.2281  1.1346
   29SAPC  H14C 3820   4.629   0.372   6.128  0.7728  1.2451  1.2694
   29SAPC   C15 3821   4.609   0.701   6.136  0.3171  0.1913  0.5928
   29SAPC  H15A 3822   4.507   0.686   6.104  0.3856 -0.4731  0.6680
   29SAPC  H15B 3823   4.617   0.778   6.211  1.2866  2.9397 -2.1254
   29SAPC  H15C 3824   4.662   0.729   6.047  1.2312 -0.7089  0.8352
   29SAPC   C11 3825   4.627   0.639   6.451 -0.6892  0.0425 -0.1213
   29SAPC  H11A 3826   4.737   0.630   6.458 -0.7370 -1.5667 -1.0967
   29SAPC  H11B 3827   4.590   0.591   6.544  1.2573  0.6114  0.9917
   29SAPC     P 3828   4.619   0.883   6.525  0.0400 -0.2106 -0.7371
   29SAPC   O13 3829   4.762   0.907   6.518 -0.8033 -0.6619 -0.0211
   29SAPC   O14 3830   4.535   0.998   6.490 -0.1987 -0.2744  0.4052
   29SAPC   O12 3831   4.581   0.768   6.420  0.3703  0.6379  0.5480
   29SAPC   O11 3832   4.584   0.828   6.671  0.6410 -0.5936  0.0246
   29SAPC    C1 3833   4.589   0.918   6.779 -0.4630  0.1277 -0.0394
   29SAPC    HA 3834   4.650   0.876   6.862  0.2278 -0.7987 -0.9902
   29SAPC    HB 3835   4.628   1.019   6.757 -1.5142  0.4590 -0.4608
   29SAPC    C2 3836   4.445   0.936   6.825  0.1303  0.2922 -0.2335
   29SAPC    HS 3837   4.389   0.978   6.739 -0.0343  1.9398  0.6388
   29SAPC   O21 3838   4.450   1.031   6.935  0.2110  0.8498  0.9013
   29SAPC   C21 3839   4.340   1.097   6.957  0.2317  0.5771 -0.6729
   29SAPC   O22 3840   4.238   1.103   6.890 -0.1706  0.3375  0.7228
   29SAPC   C22 3841   4.348   1.146   7.100 -0.2005  0.7261 -1.2452
   29SAPC   H2R 3842   4.392   1.061   7.156  1.2887  2.6227  0.6705
   29SAPC   H2S 3843   4.434   1.217   7.092 -0.1368  0.9760  0.9728
   29SAPC    C3 3844   4.386   0.800   6.865  0.2217  0.5198 -0.6963
   29SAPC    HX 3845   4.450   0.763   6.948  0.8628 -1.1412 -1.8955
   29SAPC    HY 3846   4.396   0.726   6.783  0.3357 -0.5028  0.2117
   29SAPC   O31 3847   4.251   0.821   6.912  0.2190 -0.5763  0.3027
   29SAPC   C31 3848   4.147   0.798   6.830 -1.0391 -0.4469 -0.1581
   29SAPC   O32 3849   4.148   0.726   6.732 -0.4415  0.0612  0.4597
   29SAPC   C32 3850   4.022   0.848   6.900  0.9225 -0.3146  0.9329
   29SAPC   H2X 3851   3.933   0.855   6.833  1.3288 -0.7360  0.3443
   29SAPC   H2Y 3852   4.037   0.950   6.941 -1.3004 -0.1056  1.3837
   29SAPC   C23 3853   4.225   1.203   7.169  1.0554  0.6774  0.6648
   29SAPC   H3R 3854   4.158   1.120   7.199  1.7481  0.4371  1.5884
   29SAPC   H3S 3855   4.170   1.266   7.096  0.1171  0.9332  1.5718
   29SAPC   C24 3856   4.260   1.283   7.293  0.1272 -0.5455  0.8424
   29SAPC   H4R 3857   4.164   1.333   7.319  0.2037  0.4142 -0.5840
   29SAPC   H4S 3858   4.335   1.358   7.259 -1.1627  0.2910 -0.2986
   29SAPC   C25 3859   4.310   1.191   7.403 -0.2905  0.4638  0.0830
   29SAPC   H5R 3860   4.382   1.109   7.390  0.0968  0.7377  0.4645
   29SAPC   C26 3861   4.285   1.233   7.527  0.2596  0.0122 -0.7020
   29SAPC   H6R 3862   4.320   1.170   7.611  0.1605  0.4200 -0.3487
   29SAPC   C27 3863   4.195   1.349   7.582 -1.3035  0.4355 -0.7292
   29SAPC   H7R 3864   4.103   1.301   7.621 -0.3857 -1.5608 -0.9018
   29SAPC   H7S 3865   4.162   1.416   7.500  3.2556  1.9811 -1.6100
   29SAPC   C28 3866   4.246   1.431   7.701  0.1757 -0.2873 -0.6611
   29SAPC   H8R 3867   4.352   1.458   7.694  0.3301 -0.8303 -0.4362
   29SAPC   C29 3868   4.169   1.480   7.798 -0.0683 -0.4484 -0.7096
   29SAPC   H9R 3869   4.224   1.522   7.884 -1.5533 -1.3382  0.7431
   29SAPC  C210 3870   4.020   1.456   7.821 -0.2785  0.1929 -0.9130
   29SAPC  H10R 3871   3.993   1.360   7.772  0.7052 -1.1916  1.1450
   29SAPC  H10S 3872   3.971   1.531   7.756  1.3532  0.5804 -1.7657
   29SAPC  C211 3873   3.960   1.467   7.959  0.0869 -0.8533 -0.4693
   29SAPC  H11R 3874   4.010   1.403   8.033 -1.5578 -0.6707  0.8661
   29SAPC  C212 3875   3.853   1.540   8.000  0.1204  0.2988  0.5073
   29SAPC  H12R 3876   3.821   1.534   8.105  0.8996 -1.1308  0.6822
   29SAPC  C213 3877   3.778   1.638   7.915  0.1594 -0.0632 -0.5809
   29SAPC  H13R 3878   3.696   1.681   7.977  0.8031  0.5367 -0.1356
   29SAPC  H13S 3879   3.728   1.579   7.836  1.7505 -0.5917 -1.2276
   29SAPC  C214 3880   3.855   1.767   7.877 -0.4067 -0.3891  0.1042
   29SAPC  H14R 3881   3.918   1.807   7.957 -1.3232 -0.9293  1.1307
   29SAPC  C215 3882   3.843   1.838   7.767 -0.8449  1.1579 -0.6864
   29SAPC  H15R 3883   3.902   1.930   7.759  0.3131  0.5612  0.6080
   29SAPC  C216 3884   3.756   1.805   7.644  0.1705  0.0446 -0.8828
   29SAPC  H16R 3885   3.673   1.878   7.634 -0.9156 -0.6950  1.7955
   29SAPC  H16S 3886   3.696   1.715   7.671 -0.5664  1.2308  1.7130
   29SAPC  C217 3887   3.812   1.809   7.503  0.1896  0.1142 -0.6317
   29SAPC  H17R 3888   3.855   1.907   7.472 -1.2285  1.8518  2.3956
   29SAPC  H17S 3889   3.727   1.783   7.436 -1.0133 -0.4612  1.0316
   29SAPC  C218 3890   3.924   1.709   7.491 -0.4668  0.6267  0.1080
   29SAPC  H18R 3891   3.875   1.610   7.509  1.1860  0.1949  2.8725
   29SAPC  H18S 3892   3.989   1.720   7.580  0.8889  0.6786 -0.8653
   29SAPC  C219 3893   4.005   1.714   7.361 -0.1882  0.4576 -0.2923
   29SAPC  H19R 3894   4.090   1.643   7.363 -0.7755 -0.2642  1.2045
   29SAPC  H19S 3895   4.054   1.814   7.366 -1.1164  0.9251 -0.2123
   29SAPC  C220 3896   3.908   1.701   7.245  0.4121 -0.6492 -0.0139
   29SAPC  H20R 3897   3.951   1.738   7.149 -2.6915  0.0383 -1.2393
   29SAPC  H20S 3898   3.819   1.764   7.264  1.8524  0.8701  2.1567
   29SAPC  H20T 3899   3.872   1.597   7.228  1.6855 -0.7199 -3.0752
   29SAPC   C33 3900   3.978   0.754   7.009 -0.2002  0.2022  0.0106
   29SAPC   H3X 3901   4.011   0.652   6.977  2.7668  1.4285 -1.2226
   29SAPC   H3Y 3902   3.867   0.757   7.014 -0.1540 -0.0164  1.7452
   29SAPC   C34 3903   4.023   0.791   7.151 -0.1447 -0.2824 -0.6812
   29SAPC   H4X 3904   4.021   0.902   7.158  0.3334 -0.2111 -1.5634
   29SAPC   H4Y 3905   4.126   0.757   7.174 -0.6995 -1.6369 -0.0526
   29SAPC   C35 3906   3.938   0.753   7.270  0.5492  1.0171 -0.0628
   29SAPC   H5X 3907   3.938   0.645   7.295 -0.0905  0.7966 -0.9886
   29SAPC   H5Y 3908   3.833   0.768   7.238 -0.5149  0.7022  2.9497
   29SAPC   C36 3909   3.963   0.828   7.401 -0.0846 -0.0494 -0.1190
   29SAPC   H6X 3910   3.884   0.799   7.473 -0.5297  2.2066  0.3812
   29SAPC   H6Y 3911   3.952   0.937   7.379  2.1779 -0.0401 -1.4982
   29SAPC   C37 3912   4.087   0.822   7.488  0.2009 -0.1659  0.3656
   29SAPC   H7X 3913   4.164   0.879   7.431  0.8447 -1.4923 -0.1161
   29SAPC   H7Y 3914   4.118   0.716   7.482 -0.9907 -0.5485  0.5981
   29SAPC   C38 3915   4.071   0.877   7.628 -0.5594 -0.3709 -0.4385
   29SAPC   H8X 3916   3.978   0.839   7.676  0.8887 -4.8002 -0.6777
   29SAPC   H8Y 3917   4.052   0.987   7.630  1.2657 -0.0314  0.6142
   29SAPC   C39 3918   4.188   0.844   7.719  0.4647 -0.0975  0.0761
   29SAPC   H9X 3919   4.275   0.893   7.671 -0.2402 -0.2278 -1.3678
   29SAPC   H9Y 3920   4.214   0.736   7.718  2.3140  0.3028  0.4197
   29SAPC  C310 3921   4.176   0.902   7.861 -0.1738  0.5640  0.1060
   29SAPC  H10X 3922   4.264   0.872   7.922 -0.2557  1.0764  0.4808
   29SAPC  H10Y 3923   4.091   0.844   7.905  0.5703 -1.0129 -0.4515
   29SAPC  C311 3924   4.156   1.058   7.867  0.2232 -0.3958 -0.1846
   29SAPC  H11X 3925   4.055   1.076   7.824 -0.5379 -1.2972  1.1476
   29SAPC  H11Y 3926   4.241   1.084   7.801  0.4948 -1.3878 -0.2375
   29SAPC  C312 3927   4.179   1.120   8.005 -0.3603  0.6852  0.0745
   29SAPC  H12X 3928   4.200   1.229   8.004 -0.1828  0.7253  2.4669
   29SAPC  H12Y 3929   4.263   1.078   8.064 -1.4058  0.0135  1.1620
   29SAPC  C313 3930   4.054   1.117   8.094  0.1045  0.2264  0.0772
   29SAPC  H13X 3931   4.011   1.019   8.121  0.5996 -0.3899 -1.2560
   29SAPC  H13Y 3932   3.971   1.164   8.037 -0.9473  0.4004  1.7156
   29SAPC  C314 3933   4.070   1.203   8.219  0.1191 -0.6576  0.2304
   29SAPC  H14X 3934   4.116   1.303   8.201 -0.8984  0.2869  2.4876
   29SAPC  H14Y 3935   4.143   1.147   8.281 -1.0447 -2.1668  0.2925
   29SAPC  C315 3936   3.934   1.225   8.286 -0.2410 -0.5141 -0.8619
   29SAPC  H15X 3937   3.915   1.139   8.354 -0.2325 -0.1998 -0.4601
   29SAPC  H15Y 3938   3.849   1.218   8.216  1.1171 -1.5757 -2.4987
   29SAPC  C316 3939   3.943   1.347   8.381  0.4204 -0.1772  0.0159
   29SAPC  H16X 3940   3.963   1.436   8.317  0.5111  1.6357  2.4440
   29SAPC  H16Y 3941   4.042   1.340   8.429  1.6947  0.8607 -2.2957
   29SAPC  C317 3942   3.814   1.370   8.465 -0.5178 -0.2745  0.6077
   29SAPC  H17X 3943   3.823   1.280   8.530  0.6016 -0.4523  0.2334
   29SAPC  H17Y 3944   3.724   1.374   8.400 -2.8053 -0.3332  3.5536
   29SAPC  C318 3945   3.822   1.502   8.546  0.0366  0.2477  0.1131
   29SAPC  H18X 3946   3.831   1.588   8.477 -3.1750 -1.6211 -3.0034
   29SAPC  H18Y 3947   3.903   1.493   8.622 -0.5253  0.6814  0.7714
   29SAPC  H18Z 3948   3.728   1.512   8.603 -0.8710 -3.0797 -0.5566
   30SAPC     N 3949   6.167   0.141   5.866  0.2208  0.3135  0.0408
   30SAPC   C12 3950   6.250   0.175   5.982  0.0572 -0.4172 -0.0148
   30SAPC  H12A 3951   6.197   0.237   6.053  3.3578 -0.6485  2.9205
   30SAPC  H12B 3952   6.326   0.242   5.944 -2.7604  2.1871 -1.4992
   30SAPC   C13 3953   6.141   0.259   5.792  0.5951  0.0370  0.0872
   30SAPC  H13A 3954   6.229   0.318   5.772  2.4677 -2.7636 -0.6387
   30SAPC  H13B 3955   6.097   0.244   5.694 -1.7410 -0.2722  1.1085
   30SAPC  H13C 3956   6.070   0.317   5.849 -0.3160 -0.4782 -0.4890
   30SAPC   C14 3957   6.247   0.047   5.769  0.0272  0.0360 -1.0870
   30SAPC  H14A 3958   6.185   0.015   5.687 -0.3007  1.1784 -1.2894
   30SAPC  H14B 3959   6.333   0.103   5.735 -0.6355  1.5283 -0.3915
   30SAPC  H14C 3960   6.288  -0.029   5.835 -0.3172  1.1309  0.4270
   30SAPC   C15 3961   6.039   0.076   5.909  0.5393  0.9884 -0.5863
   30SAPC  H15A 3962   5.972   0.058   5.825  1.9373 -0.2520 -1.4799
   30SAPC  H15B 3963   6.050  -0.021   5.954 -3.0738  0.1859 -1.1104
   30SAPC  H15C 3964   5.985   0.131   5.985 -0.3258 -0.3970 -0.1401
   30SAPC   C11 3965   6.306   0.062   6.073 -1.4154  0.5892  0.1991
   30SAPC  H11A 3966   6.379   0.107   6.144 -1.5676 -0.4667  1.0566
   30SAPC  H11B 3967   6.371  -0.009   6.018  1.0044  1.3139  1.9296
   30SAPC     P 3968   6.133   0.080   6.264 -0.2183  0.1229 -0.2785
   30SAPC   O13 3969   6.208   0.036   6.384  0.0680 -0.9699 -0.1782
   30SAPC   O14 3970   6.129   0.223   6.237 -0.1442 -0.8810 -0.1179
   30SAPC   O12 3971   6.197   0.004   6.140 -0.3940  0.2622 -0.0933
   30SAPC   O11 3972   5.994   0.017   6.257  0.1932  0.2514  0.5517
   30SAPC    C1 3973   5.872   0.078   6.286  0.1871  0.5547 -0.4621
   30SAPC    HA 3974   5.872   0.189   6.295 -0.5397  0.5233 -0.0213
   30SAPC    HB 3975   5.800   0.057   6.204 -0.0954  1.0981 -0.3633
   30SAPC    C2 3976   5.804   0.027   6.418 -0.1332  0.0419 -0.2515
   30SAPC    HS 3977   5.707   0.079   6.429  0.6896  1.9715 -1.6485
   30SAPC   O21 3978   5.887   0.062   6.525 -0.1909  0.0823  0.0822
   30SAPC   C21 3979   5.903   0.187   6.560 -0.0395  0.4138 -0.2618
   30SAPC   O22 3980   5.835   0.284   6.521 -0.3194 -0.0838 -0.1866
   30SAPC   C22 3981   6.016   0.186   6.656  0.6367 -0.3565  1.5566
   30SAPC   H2R 3982   6.010   0.093   6.717 -1.9517 -2.4098 -1.5235
   30SAPC   H2S 3983   6.107   0.186   6.592  0.2093 -4.2815  0.6572
   30SAPC    C3 3984   5.788  -0.123   6.414 -0.1161  0.1302 -0.0935
   30SAPC    HX 3985   5.890  -0.167   6.417  0.4429  1.4071  0.5009
   30SAPC    HY 3986   5.738  -0.148   6.318 -0.7486  0.4640  0.1451
   30SAPC   O31 3987   5.693  -0.160   6.515 -0.2828 -0.0835 -0.3595
   30SAPC   C31 3988   5.717  -0.270   6.582 -0.7292 -0.4004  0.1448
   30SAPC   O32 3989   5.823  -0.336   6.577 -0.5057 -0.1507 -0.5249
   30SAPC   C32 3990   5.596  -0.307   6.660  0.0268  0.7406 -0.0191
   30SAPC   H2X 3991   5.521  -0.355   6.593  0.2495 -2.8745  2.0440
   30SAPC   H2Y 3992   5.568  -0.216   6.717  1.3949 -0.1234  2.2049
   30SAPC   C23 3993   5.998   0.294   6.760  0.2976 -0.9507 -0.3899
   30SAPC   H3R 3994   5.913   0.276   6.828 -0.1588  0.3181 -0.6035
   30SAPC   H3S 3995   5.983   0.391   6.707 -0.1365 -0.7630  0.0723
   30SAPC   C24 3996   6.127   0.311   6.855  0.2444 -0.7709 -0.3116
   30SAPC   H4R 3997   6.111   0.398   6.922  0.4553 -0.6006 -0.4783
   30SAPC   H4S 3998   6.216   0.321   6.789  0.4852  1.2086  0.2366
   30SAPC   C25 3999   6.153   0.182   6.921  0.1674 -0.0281  0.0014
   30SAPC   H5R 4000   6.193   0.106   6.852  1.8175 -0.3440  1.2426
   30SAPC   C26 4001   6.141   0.156   7.052 -0.2888  0.0843 -0.3724
   30SAPC   H6R 4002   6.155   0.052   7.085 -0.6318 -0.6312 -2.3124
   30SAPC   C27 4003   6.106   0.251   7.169  0.2124  0.0038  0.0500
   30SAPC   H7R 4004   6.122   0.354   7.130 -0.7769  0.2137  0.1803
   30SAPC   H7S 4005   6.166   0.225   7.259  0.3729 -1.6421 -0.4861
   30SAPC   C28 4006   5.954   0.250   7.194 -0.5464  0.2192 -0.7393
   30SAPC   H8R 4007   5.883   0.288   7.119 -1.6093  2.8376  1.4092
   30SAPC   C29 4008   5.911   0.207   7.310  0.8686  0.7575 -0.8032
   30SAPC   H9R 4009   5.801   0.206   7.319  0.9947  2.3396  1.9389
   30SAPC  C210 4010   5.989   0.151   7.424 -0.4190 -0.4930  0.0651
   30SAPC  H10R 4011   6.063   0.229   7.455  0.6283 -1.5795  0.3767
   30SAPC  H10S 4012   6.048   0.059   7.406  0.6243 -0.0964  1.2535
   30SAPC  C211 4013   5.921   0.110   7.548  0.5493  0.1097 -0.1635
   30SAPC  H11R 4014   5.834   0.043   7.542  1.2382 -0.9204  0.9866
   30SAPC  C212 4015   5.943   0.158   7.671 -0.0413  0.2692  0.0663
   30SAPC  H12R 4016   5.868   0.131   7.746 -0.4292 -0.9232 -0.7208
   30SAPC  C213 4017   6.055   0.253   7.713 -0.3847 -0.0817  0.7583
   30SAPC  H13R 4018   6.022   0.359   7.708 -1.1427 -0.3011  1.0418
   30SAPC  H13S 4019   6.132   0.241   7.634 -0.3657 -1.1536  0.9361
   30SAPC  C214 4020   6.108   0.229   7.849  0.3646  0.2528 -0.4969
   30SAPC  H14R 4021   6.187   0.153   7.853 -0.3575 -0.5305 -0.6334
   30SAPC  C215 4022   6.062   0.288   7.967 -0.4957 -0.7242  0.3603
   30SAPC  H15R 4023   6.123   0.297   8.058 -0.4714  2.2690  0.1632
   30SAPC  C216 4024   5.953   0.391   7.969  0.1192  0.0569 -0.8647
   30SAPC  H16R 4025   5.884   0.353   7.891 -0.0836 -1.4791  0.0332
   30SAPC  H16S 4026   5.989   0.489   7.931 -5.2094  2.9030  0.5385
   30SAPC  C217 4027   5.890   0.424   8.105 -0.3101  0.4023 -0.3345
   30SAPC  H17R 4028   5.807   0.495   8.086 -1.6973 -0.9753  0.4367
   30SAPC  H17S 4029   5.954   0.453   8.192 -0.6920 -2.6636  1.1112
   30SAPC  C218 4030   5.820   0.295   8.158  0.2188  0.2519  0.6458
   30SAPC  H18R 4031   5.879   0.201   8.149 -0.7907 -0.3130 -0.2216
   30SAPC  H18S 4032   5.730   0.267   8.099  0.4434  0.1993  0.3263
   30SAPC  C219 4033   5.783   0.303   8.301  0.1763 -0.1488 -0.1714
   30SAPC  H19R 4034   5.724   0.397   8.312  1.2639  0.5912 -0.4698
   30SAPC  H19S 4035   5.877   0.326   8.356 -0.1832  2.0850 -0.4084
   30SAPC  C220 4036   5.711   0.179   8.346  0.4383  0.6114  0.0174
   30SAPC  H20R 4037   5.788   0.099   8.349 -0.6440 -0.4592  0.1808
   30SAPC  H20S 4038   5.644   0.145   8.264  3.1812  0.3786 -2.2951
   30SAPC  H20T 4039   5.662   0.194   8.444 -0.5508  0.5619 -0.4586
   30SAPC   C33 4040   5.631  -0.412   6.773 -0.0436 -0.6844  0.0287
   30SAPC   H3X 4041   5.720  -0.382   6.832 -0.0759 -1.2613  0.3760
   30SAPC   H3Y 4042   5.655  -0.515   6.739 -0.1068 -0.9207  0.6847
   30SAPC   C34 4043   5.514  -0.420   6.874  0.2148  0.4975 -0.1997
   30SAPC   H4X 4044   5.422  -0.457   6.823  1.1735 -0.1843 -1.4851
   30SAPC   H4Y 4045   5.481  -0.318   6.905 -0.4332 -0.2928  1.9048
   30SAPC   C35 4046   5.540  -0.496   7.003  0.3974  0.4930 -0.1013
   30SAPC   H5X 4047   5.633  -0.449   7.043  0.1335  0.2241  0.8441
   30SAPC   H5Y 4048   5.567  -0.603   7.002 -0.2561  0.2149  2.9098
   30SAPC   C36 4049   5.443  -0.467   7.114 -0.0043  0.0211  0.7398
   30SAPC   H6X 4050   5.346  -0.501   7.072  0.0101 -1.1319  1.5839
   30SAPC   H6Y 4051   5.442  -0.358   7.133 -0.7214 -0.1869  1.9561
   30SAPC   C37 4052   5.463  -0.552   7.237 -0.3038 -0.4520 -0.2322
   30SAPC   H7X 4053   5.568  -0.585   7.251 -0.8500 -1.2857  2.5061
   30SAPC   H7Y 4054   5.410  -0.648   7.225  1.1877 -1.4038  0.4642
   30SAPC   C38 4055   5.399  -0.477   7.352 -0.7371  0.1498 -0.1067
   30SAPC   H8X 4056   5.291  -0.462   7.332 -1.3509 -1.9189  1.3481
   30SAPC   H8Y 4057   5.447  -0.377   7.354 -0.3439 -0.0301 -0.2338
   30SAPC   C39 4058   5.420  -0.545   7.489 -0.4303 -0.1628 -0.3406
   30SAPC   H9X 4059   5.529  -0.563   7.500 -0.5638  0.1883  2.4398
   30SAPC   H9Y 4060   5.372  -0.644   7.476  1.0496 -0.6114 -3.0750
   30SAPC  C310 4061   5.367  -0.462   7.605  0.1731  0.7338 -0.4625
   30SAPC  H10X 4062   5.256  -0.460   7.600  0.1013  2.7914  0.7409
   30SAPC  H10Y 4063   5.397  -0.355   7.603 -0.1950  0.8538  0.2106
   30SAPC  C311 4064   5.413  -0.538   7.735 -0.0236  0.5058 -0.1361
   30SAPC  H11X 4065   5.523  -0.550   7.744 -0.0098 -0.1395 -1.1322
   30SAPC  H11Y 4066   5.379  -0.643   7.737  0.9874  0.1753  1.0528
   30SAPC  C312 4067   5.357  -0.468   7.865  0.2456  0.0712 -0.1922
   30SAPC  H12X 4068   5.384  -0.360   7.858 -0.7428  0.3676  0.3509
   30SAPC  H12Y 4069   5.400  -0.514   7.957 -2.6839 -1.6059  0.4504
   30SAPC  C313 4070   5.207  -0.496   7.874  0.8301 -0.0083  0.1251
   30SAPC  H13X 4071   5.194  -0.604   7.851  0.1673  0.1558 -0.3188
   30SAPC  H13Y 4072   5.134  -0.437   7.814 -0.2632  0.1983  1.5851
   30SAPC  C314 4073   5.160  -0.478   8.020 -0.3064  0.2679  0.2452
   30SAPC  H14X 4074   5.214  -0.554   8.079 -1.2408 -1.2787 -0.7892
   30SAPC  H14Y 4075   5.049  -0.480   8.025 -0.4112 -0.5947 -1.6161
   30SAPC  C315 4076   5.197  -0.336   8.076 -0.3775  0.0896  0.3481
   30SAPC  H15X 4077   5.184  -0.273   7.986 -1.0774 -1.0907 -0.3987
   30SAPC  H15Y 4078   5.300  -0.343   8.118 -0.4801 -1.3276  0.4390
   30SAPC  C316 4079   5.109  -0.279   8.194  0.0636 -0.3595 -0.5381
   30SAPC  H16X 4080   5.101  -0.364   8.265  0.7131  1.8926  2.4188
   30SAPC  H16Y 4081   5.005  -0.267   8.156 -0.1503 -0.0975  0.1116
   30SAPC  C317 4082   5.185  -0.168   8.263  0.0243 -0.4207 -0.4861
   30SAPC  H17X 4083   5.285  -0.209   8.285 -0.1474 -0.7005 -0.2289
   30SAPC  H17Y 4084   5.128  -0.138   8.353 -3.1231  1.0242 -2.7682
   30SAPC  C318 4085   5.185  -0.041   8.180  0.0025  0.1783  0.0337
   30SAPC  H18X 4086   5.224  -0.059   8.077  1.1028 -0.0556  0.4748
   30SAPC  H18Y 4087   5.250   0.034   8.230  0.5562 -0.6328  0.5691
   30SAPC  H18Z 4088   5.085   0.003   8.162  0.2179 -0.2012 -2.5606
   31SAPC     N 4089   5.848   1.599   6.142 -0.5217  0.2674  0.1054
   31SAPC   C12 4090   5.892   1.650   6.278 -0.1746  0.1656 -0.1713
   31SAPC  H12A 4091   6.000   1.659   6.280 -0.2895  2.1323 -1.0160
   31SAPC  H12B 4092   5.882   1.573   6.353  2.1361  1.8434  2.0068
   31SAPC   C13 4093   5.877   1.691   6.034  0.2613 -0.8477  0.0682
   31SAPC  H13A 4094   5.830   1.662   5.941  0.4652  0.7226 -0.5554
   31SAPC  H13B 4095   5.827   1.783   6.060  0.8468 -0.4857 -0.0623
   31SAPC  H13C 4096   5.983   1.708   6.022  0.3770 -0.3472  1.5460
   31SAPC   C14 4097   5.913   1.468   6.109 -0.6707  0.7438  0.0110
   31SAPC  H14A 4098   5.909   1.398   6.191 -1.0918  1.6784  0.8061
   31SAPC  H14B 4099   5.872   1.412   6.026 -0.1444 -0.2148  0.3827
   31SAPC  H14C 4100   6.019   1.473   6.091 -0.3961 -1.9613  0.4805
   31SAPC   C15 4101   5.698   1.587   6.139 -0.3906 -0.1963  0.6079
   31SAPC  H15A 4102   5.671   1.503   6.202  2.9743 -2.7306 -0.9541
   31SAPC  H15B 4103   5.657   1.671   6.193 -2.4881 -0.2570 -0.7433
   31SAPC  H15C 4104   5.663   1.574   6.037 -1.0327 -0.6229  0.8752
   31SAPC   C11 4105   5.831   1.775   6.333 -0.4979 -0.2849  0.0595
   31SAPC  H11A 4106   5.888   1.797   6.425 -0.3257 -0.7293  0.0657
   31SAPC  H11B 4107   5.726   1.766   6.369 -0.1536 -3.4385  0.6389
   31SAPC     P 4108   5.740   1.995   6.220  0.7275  0.0203  0.1366
   31SAPC   O13 4109   5.808   2.110   6.159  0.2193 -0.0685  0.3880
   31SAPC   O14 4110   5.632   1.932   6.135  0.2117  0.3520 -0.1998
   31SAPC   O12 4111   5.853   1.889   6.250 -0.2790 -0.3810  0.2551
   31SAPC   O11 4112   5.695   2.034   6.359 -0.3385 -0.3742 -0.2115
   31SAPC    C1 4113   5.658   2.167   6.396 -0.2574  0.1267 -0.4788
   31SAPC    HA 4114   5.670   2.237   6.311 -3.1732 -0.0207 -1.1138
   31SAPC    HB 4115   5.548   2.168   6.409 -0.0925 -1.3142  1.4049
   31SAPC    C2 4116   5.725   2.213   6.524  0.3351  0.5566 -1.5415
   31SAPC    HS 4117   5.828   2.246   6.500  0.6476  0.2126 -0.7217
   31SAPC   O21 4118   5.710   2.109   6.624  0.1006  0.1993 -0.0497
   31SAPC   C21 4119   5.808   2.092   6.716 -0.2756  0.2197 -0.3939
   31SAPC   O22 4120   5.916   2.147   6.705 -0.4290 -0.2447  0.7247
   31SAPC   C22 4121   5.752   2.022   6.841 -0.0289 -0.4656 -0.8150
   31SAPC   H2R 4122   5.648   1.991   6.815  0.1771 -0.5025 -1.6127
   31SAPC   H2S 4123   5.815   1.933   6.861  1.0897  0.5125  0.1661
   31SAPC    C3 4124   5.654   2.345   6.569  0.2211 -0.1493 -0.6691
   31SAPC    HX 4125   5.548   2.328   6.598  0.7698 -0.8224  1.1066
   31SAPC    HY 4126   5.646   2.417   6.485 -1.0776  0.7371  0.1681
   31SAPC   O31 4127   5.713   2.409   6.681  0.2098  0.2694  0.2795
   31SAPC   C31 4128   5.836   2.464   6.663  0.2500  0.3059 -0.2550
   31SAPC   O32 4129   5.896   2.478   6.555  0.3136  0.5096  0.4272
   31SAPC   C32 4130   5.885   2.510   6.796 -0.0424 -0.0666  0.2650
   31SAPC   H2X 4131   5.970   2.445   6.825  1.5060  0.8814 -1.8557
   31SAPC   H2Y 4132   5.804   2.511   6.872  0.6161  0.0605  0.9687
   31SAPC   C23 4133   5.753   2.106   6.970  0.6354 -0.4166 -0.5622
   31SAPC   H3R 4134   5.847   2.165   6.971 -0.0103  0.6206  0.2353
   31SAPC   H3S 4135   5.756   2.044   7.062 -0.6090 -0.9959 -0.8938
   31SAPC   C24 4136   5.634   2.205   6.972  1.0458 -0.5632  0.7311
   31SAPC   H4R 4137   5.542   2.143   6.969 -0.2932  1.3479  0.2010
   31SAPC   H4S 4138   5.638   2.252   6.872  0.1273 -2.5888 -0.3031
   31SAPC   C25 4139   5.620   2.304   7.084  0.5963 -0.0220 -0.4379
   31SAPC   H5R 4140   5.663   2.405   7.077  1.2071 -0.0959  1.5594
   31SAPC   C26 4141   5.574   2.272   7.209 -0.1496 -0.2827  0.1507
   31SAPC   H6R 4142   5.560   2.356   7.279 -1.3989 -0.1793 -0.2039
   31SAPC   C27 4143   5.532   2.138   7.264 -0.5095  0.4280 -0.7623
   31SAPC   H7R 4144   5.514   2.066   7.182  1.6991 -1.9412  0.7072
   31SAPC   H7S 4145   5.432   2.144   7.314  0.1145  0.4810  0.5232
   31SAPC   C28 4146   5.646   2.113   7.356  0.5342 -0.5473 -0.1025
   31SAPC   H8R 4147   5.727   2.053   7.310 -1.1793 -1.5765 -1.9482
   31SAPC   C29 4148   5.657   2.159   7.483  0.6047  0.1303  0.0457
   31SAPC   H9R 4149   5.741   2.150   7.554 -0.1338  1.4228  1.1423
   31SAPC  C210 4150   5.547   2.237   7.551 -0.0871 -0.0763 -0.1299
   31SAPC  H10R 4151   5.476   2.290   7.484  0.1607  0.0801 -0.2706
   31SAPC  H10S 4152   5.594   2.323   7.605  1.1340 -0.1808 -0.9867
   31SAPC  C211 4153   5.479   2.147   7.657  0.0907 -0.9679 -0.1416
   31SAPC  H11R 4154   5.406   2.080   7.610 -0.0367 -1.6298  0.9495
   31SAPC  C212 4155   5.481   2.149   7.793  0.2877 -0.4879 -0.1719
   31SAPC  H12R 4156   5.422   2.067   7.836 -0.8473 -0.8005 -2.2057
   31SAPC  C213 4157   5.553   2.240   7.891  0.5228 -0.2313  0.7580
   31SAPC  H13R 4158   5.477   2.310   7.934  2.1688  1.4980  0.9616
   31SAPC  H13S 4159   5.634   2.300   7.845 -1.0462  1.9517  0.6674
   31SAPC  C214 4160   5.614   2.153   7.997  0.5980 -0.3845  0.1770
   31SAPC  H14R 4161   5.685   2.083   7.952  0.2083 -0.4299 -0.3726
   31SAPC  C215 4162   5.570   2.136   8.120 -0.4622  0.5174  0.0241
   31SAPC  H15R 4163   5.598   2.045   8.174 -0.3201 -0.0173 -0.9166
   31SAPC  C216 4164   5.452   2.197   8.187 -0.0808  0.0172  0.2239
   31SAPC  H16R 4165   5.404   2.106   8.229  1.4131  0.0323  2.0642
   31SAPC  H16S 4166   5.375   2.239   8.118  0.4088 -0.2922 -0.5259
   31SAPC  C217 4167   5.491   2.291   8.308 -0.2424  0.0198  0.0138
   31SAPC  H17R 4168   5.401   2.320   8.366  2.7013  2.0232  4.0537
   31SAPC  H17S 4169   5.530   2.381   8.258  0.8234 -1.3734 -1.7748
   31SAPC  C218 4170   5.586   2.230   8.419  0.3075 -0.5313 -0.7953
   31SAPC  H18R 4171   5.634   2.317   8.469  0.7656 -0.7689 -0.8107
   31SAPC  H18S 4172   5.664   2.168   8.368  0.9151 -0.4812  0.0577
   31SAPC  C219 4173   5.515   2.134   8.509 -0.2154  0.2302  0.5049
   31SAPC  H19R 4174   5.467   2.055   8.448  1.0736 -0.3743  0.2529
   31SAPC  H19S 4175   5.437   2.190   8.565 -0.0887  0.4435  0.4701
   31SAPC  C220 4176   5.610   2.070   8.618  0.3147 -1.3952  0.4921
   31SAPC  H20R 4177   5.622   2.139   8.704 -0.6908 -1.4125  0.6651
   31SAPC  H20S 4178   5.708   2.044   8.574  0.1608 -0.2367 -0.6124
   31SAPC  H20T 4179   5.570   1.979   8.667 -0.9707 -0.4125  1.3580
   31SAPC   C33 4180   5.949   2.656   6.788 -0.0425 -0.5082  0.9675
   31SAPC   H3X 4181   5.868   2.718   6.743 -0.0433 -0.1312  1.4902
   31SAPC   H3Y 4182   6.039   2.664   6.723 -0.8838  0.4681 -0.1307
   31SAPC   C34 4183   5.984   2.707   6.926  0.2894  0.3747  0.3208
   31SAPC   H4X 4184   6.068   2.649   6.970  0.5567 -0.6184 -1.4165
   31SAPC   H4Y 4185   5.897   2.684   6.991 -0.6193 -0.5354 -1.1675
   31SAPC   C35 4186   6.010   2.857   6.940  0.5539  0.1600 -0.0212
   31SAPC   H5X 4187   5.916   2.911   6.917  0.1071 -1.0305 -1.1572
   31SAPC   H5Y 4188   6.086   2.886   6.865  0.7541 -0.6914 -0.1512
   31SAPC   C36 4189   6.069   2.888   7.077 -0.1610 -0.4632  0.4581
   31SAPC   H6X 4190   6.131   2.980   7.068 -1.0041 -0.0241 -1.4603
   31SAPC   H6Y 4191   6.143   2.810   7.106  2.2531  0.9541 -1.4752
   31SAPC   C37 4192   5.967   2.905   7.193  0.3836  0.3216 -0.0131
   31SAPC   H7X 4193   5.899   2.818   7.207  1.7807 -0.5596  1.6179
   31SAPC   H7Y 4194   5.900   2.989   7.162 -0.9993 -0.2016  1.4555
   31SAPC   C38 4195   6.031   2.930   7.332  0.5340  0.6570 -0.1240
   31SAPC   H8X 4196   6.030   3.041   7.333 -0.8021  0.7115 -2.0631
   31SAPC   H8Y 4197   6.140   2.907   7.341  0.2087 -0.1790  2.4130
   31SAPC   C39 4198   5.978   2.864   7.450 -0.3503  1.0265  0.3813
   31SAPC   H9X 4199   6.004   2.757   7.440  0.6286  1.2343  0.5991
   31SAPC   H9Y 4200   5.870   2.878   7.470 -0.8558 -1.2508 -0.5174
   31SAPC  C310 4201   6.054   2.917   7.581  0.1582  0.7807  0.3701
   31SAPC  H10X 4202   6.061   3.028   7.579  2.5486  0.7044  1.1089
   31SAPC  H10Y 4203   6.158   2.879   7.574  1.2968  3.2865  2.1366
   31SAPC  C311 4204   6.008   2.873   7.714  0.4333 -0.1506 -0.4863
   31SAPC  H11X 4205   5.929   2.795   7.705  0.0235  0.1370  0.4396
   31SAPC  H11Y 4206   5.963   2.962   7.765  0.0043  0.9736 -2.7249
   31SAPC  C312 4207   6.119   2.826   7.805  0.4886  0.0189  0.6514
   31SAPC  H12X 4208   6.191   2.906   7.833  0.7206  0.2510 -0.5745
   31SAPC  H12Y 4209   6.186   2.762   7.743  0.5465  1.6763 -1.0773
   31SAPC  C313 4210   6.071   2.739   7.922 -0.2757 -0.2481  0.3622
   31SAPC  H13X 4211   6.162   2.679   7.944  0.8950  1.3681  0.1058
   31SAPC  H13Y 4212   5.997   2.668   7.880  1.2751 -1.3675 -0.5886
   31SAPC  C314 4213   6.023   2.824   8.040 -0.0269  0.1718  0.3062
   31SAPC  H14X 4214   5.966   2.905   7.991  1.8126  0.4966 -1.4516
   31SAPC  H14Y 4215   6.119   2.864   8.080 -0.3221 -1.7298  3.2854
   31SAPC  C315 4216   5.940   2.755   8.144 -0.1837 -0.3919  0.0642
   31SAPC  H15X 4217   6.001   2.676   8.191  0.6532  0.1850 -0.0248
   31SAPC  H15Y 4218   5.849   2.710   8.098 -0.4342  1.5064 -1.4318
   31SAPC  C316 4219   5.886   2.856   8.250  0.2256 -0.4587  0.3470
   31SAPC  H16X 4220   5.838   2.943   8.200  1.9231  0.5398  0.3860
   31SAPC  H16Y 4221   5.976   2.895   8.303 -0.3188  2.1530 -0.5235
   31SAPC  C317 4222   5.798   2.796   8.351 -0.2531 -0.4517 -0.2107
   31SAPC  H17X 4223   5.835   2.706   8.403 -1.4856 -0.4703  0.6757
   31SAPC  H17Y 4224   5.702   2.768   8.304 -0.0957 -0.5508 -0.4798
   31SAPC  C318 4225   5.759   2.888   8.472 -0.6366 -0.5990  0.4027
   31SAPC  H18X 4226   5.843   2.924   8.535  0.5139 -2.1348 -0.1894
   31SAPC  H18Y 4227   5.686   2.832   8.535 -1.5613  0.2338  0.1053
   31SAPC  H18Z 4228   5.718   2.980   8.424  1.0390 -0.6314 -1.1943
   32SAPC     N 4229   4.880   1.451   6.072  0.1384 -0.0422 -0.3900
   32SAPC   C12 4230   4.980   1.395   6.179  0.0586  0.2788 -0.5110
   32SAPC  H12A 4231   5.052   1.338   6.123  0.3095  0.1993 -0.1049
   32SAPC  H12B 4232   4.924   1.325   6.238 -0.7783  1.9577  0.7953
   32SAPC   C13 4233   4.955   1.516   5.960 -0.3519  0.7440 -0.2061
   32SAPC  H13A 4234   5.029   1.448   5.921  0.8272  1.1544  1.2436
   32SAPC  H13B 4235   4.883   1.530   5.881  1.1878  0.0202 -1.8148
   32SAPC  H13C 4236   5.009   1.604   5.992  1.4130 -1.0402  2.0426
   32SAPC   C14 4237   4.802   1.338   6.015  0.1249  0.6800  0.1591
   32SAPC  H14A 4238   4.867   1.266   5.967  2.8858  2.1622  1.4395
   32SAPC  H14B 4239   4.750   1.288   6.095 -0.5021  2.1124  0.6785
   32SAPC  H14C 4240   4.726   1.372   5.946 -0.9423 -3.0704 -0.7065
   32SAPC   C15 4241   4.791   1.550   6.139 -0.0396  0.2099  0.6748
   32SAPC  H15A 4242   4.733   1.508   6.219 -0.5808 -1.9648 -0.7735
   32SAPC  H15B 4243   4.848   1.639   6.162 -1.8981  2.2779 -2.0210
   32SAPC  H15C 4244   4.722   1.588   6.064  0.4235  0.7913  0.5383
   32SAPC   C11 4245   5.048   1.497   6.270 -0.3641 -0.8803  0.1897
   32SAPC  H11A 4246   5.109   1.434   6.338  1.1125  0.5251  0.2258
   32SAPC  H11B 4247   4.958   1.540   6.319 -0.5868  2.0171 -2.4843
   32SAPC     P 4248   5.268   1.593   6.164 -0.3073 -0.6600 -0.2897
   32SAPC   O13 4249   5.302   1.456   6.119  0.3092 -0.1028 -0.2394
   32SAPC   O14 4250   5.302   1.700   6.063  0.3661  0.5006 -0.3208
   32SAPC   O12 4251   5.121   1.608   6.209  0.2171 -0.5352 -0.5128
   32SAPC   O11 4252   5.354   1.628   6.289  0.1324  0.6616 -0.1317
   32SAPC    C1 4253   5.313   1.736   6.375 -0.1726 -0.1062  0.4673
   32SAPC    HA 4254   5.304   1.833   6.322  0.6016 -0.3537 -0.1288
   32SAPC    HB 4255   5.225   1.716   6.440  0.3262 -0.6250  0.9891
   32SAPC    C2 4256   5.430   1.769   6.469 -0.0196 -0.6911  0.4543
   32SAPC    HS 4257   5.521   1.763   6.405  1.0083  2.0163  1.5378
   32SAPC   O21 4258   5.426   1.670   6.570 -0.4562  0.0932 -0.1550
   32SAPC   C21 4259   5.522   1.681   6.663  0.2073 -0.2225 -0.4750
   32SAPC   O22 4260   5.619   1.755   6.660 -0.0163 -0.4923  0.1060
   32SAPC   C22 4261   5.488   1.582   6.772  0.6571  0.8580  0.1404
   32SAPC   H2R 4262   5.411   1.629   6.837 -0.4110 -0.5126 -0.0813
   32SAPC   H2S 4263   5.453   1.489   6.723  1.0970  0.9828 -0.4217
   32SAPC    C3 4264   5.433   1.917   6.521 -0.2153  0.2563 -0.0090
   32SAPC    HX 4265   5.429   1.979   6.429  1.7152 -0.9907 -1.0027
   32SAPC    HY 4266   5.528   1.953   6.566 -1.0342  1.9268  0.4668
   32SAPC   O31 4267   5.319   1.942   6.606  0.3811 -0.4002  0.1813
   32SAPC   C31 4268   5.298   2.072   6.639 -0.7196 -0.7453 -0.6515
   32SAPC   O32 4269   5.374   2.165   6.606 -0.0917  0.9469 -0.2540
   32SAPC   C32 4270   5.167   2.081   6.715 -0.2496 -0.5672 -0.3351
   32SAPC   H2X 4271   5.094   2.042   6.641 -0.1021  1.1295 -1.4084
   32SAPC   H2Y 4272   5.147   2.190   6.724 -0.3156 -0.4963 -1.2789
   32SAPC   C23 4273   5.609   1.546   6.867  0.5180  0.4165  1.0306
   32SAPC   H3R 4274   5.689   1.498   6.807 -0.3761 -2.8470  2.2278
   32SAPC   H3S 4275   5.571   1.457   6.921 -0.0584 -0.1554 -0.2803
   32SAPC   C24 4276   5.671   1.664   6.947 -0.1652 -0.4160  0.8509
   32SAPC   H4R 4277   5.589   1.719   6.999  0.6912  3.1934 -1.2149
   32SAPC   H4S 4278   5.717   1.744   6.885  1.0061 -2.2291 -0.7385
   32SAPC   C25 4279   5.773   1.601   7.043  0.3382 -0.6120 -0.4663
   32SAPC   H5R 4280   5.864   1.565   6.991 -0.8557 -0.9565 -2.4305
   32SAPC   C26 4281   5.752   1.599   7.179 -0.1340 -0.9287  0.2992
   32SAPC   H6R 4282   5.830   1.546   7.237  1.3836 -0.3465 -1.1556
   32SAPC   C27 4283   5.632   1.648   7.248 -1.2647  0.5245 -0.1954
   32SAPC   H7R 4284   5.541   1.642   7.183 -1.7428  1.0840  0.4075
   32SAPC   H7S 4285   5.651   1.752   7.281 -1.3366  0.3764  0.3190
   32SAPC   C28 4286   5.609   1.564   7.372  0.2397  0.4351 -0.0958
   32SAPC   H8R 4287   5.622   1.455   7.362 -2.4350  0.1242 -0.9187
   32SAPC   C29 4288   5.563   1.614   7.487  0.5909  0.4486 -0.9354
   32SAPC   H9R 4289   5.542   1.540   7.566 -0.7304  1.6043 -0.1465
   32SAPC  C210 4290   5.534   1.752   7.519  0.8656  0.0304 -0.4362
   32SAPC  H10R 4291   5.424   1.753   7.504  0.5253 -1.6990  1.4685
   32SAPC  H10S 4292   5.579   1.824   7.447 -1.3167  0.7431 -1.1754
   32SAPC  C211 4293   5.571   1.782   7.662 -0.4022  0.4980 -0.1097
   32SAPC  H11R 4294   5.668   1.833   7.664  0.5464 -1.2755  0.8405
   32SAPC  C212 4295   5.496   1.781   7.774  0.2003  0.2464  0.0813
   32SAPC  H12R 4296   5.538   1.802   7.873  0.8778 -1.8076  0.2707
   32SAPC  C213 4297   5.355   1.730   7.768  0.2751  0.7937  0.1818
   32SAPC  H13R 4298   5.345   1.660   7.854  0.1902  0.0578 -0.4181
   32SAPC  H13S 4299   5.335   1.677   7.673 -0.1003 -1.5127  1.4579
   32SAPC  C214 4300   5.248   1.821   7.795  0.3787 -0.4065  0.0008
   32SAPC  H14R 4301   5.175   1.835   7.714 -0.0225 -4.5291 -0.5683
   32SAPC  C215 4302   5.224   1.890   7.910 -0.0077  0.1415 -0.6184
   32SAPC  H15R 4303   5.136   1.956   7.923 -0.2967 -0.0589 -1.5391
   32SAPC  C216 4304   5.292   1.874   8.042 -0.3981 -0.3349 -0.3771
   32SAPC  H16R 4305   5.283   1.971   8.094 -0.3669 -0.6369  0.2012
   32SAPC  H16S 4306   5.399   1.843   8.033 -0.7426 -1.6401 -0.1872
   32SAPC  C217 4307   5.234   1.762   8.131  0.5598  0.8244 -0.1496
   32SAPC  H17R 4308   5.247   1.661   8.088  1.4260  0.4646  0.9130
   32SAPC  H17S 4309   5.125   1.776   8.144  0.0915 -2.0063 -0.4856
   32SAPC  C218 4310   5.297   1.759   8.276 -0.0480  0.3469  0.3781
   32SAPC  H18R 4311   5.406   1.778   8.263  0.5225 -0.7587  2.8699
   32SAPC  H18S 4312   5.288   1.652   8.306 -2.4406  0.8910  1.9074
   32SAPC  C219 4313   5.227   1.852   8.378  0.3658  0.1985  0.1088
   32SAPC  H19R 4314   5.120   1.827   8.391 -0.1897  2.0210 -0.6481
   32SAPC  H19S 4315   5.231   1.957   8.342  1.2300 -0.2255 -1.0707
   32SAPC  C220 4316   5.284   1.840   8.518 -0.4858 -0.5646 -0.5069
   32SAPC  H20R 4317   5.243   1.749   8.567 -0.4346  0.0440  0.6987
   32SAPC  H20S 4318   5.266   1.927   8.584  0.6550 -0.7728  0.1009
   32SAPC  H20T 4319   5.393   1.820   8.518 -0.3484  0.1601 -0.4052
   32SAPC   C33 4320   5.144   2.001   6.847 -0.1062  0.3407  0.3642
   32SAPC   H3X 4321   5.158   1.893   6.825 -1.2078  0.5044 -1.3187
   32SAPC   H3Y 4322   5.039   2.004   6.884 -0.6149  0.8164 -1.0590
   32SAPC   C34 4323   5.238   2.037   6.967 -0.2179 -0.0420  0.8048
   32SAPC   H4X 4324   5.238   2.148   6.980 -0.9492  0.1926 -0.9912
   32SAPC   H4Y 4325   5.340   2.014   6.930 -1.9197 -0.4723 -4.3453
   32SAPC   C35 4326   5.206   1.958   7.102  0.2362  0.0291  0.0987
   32SAPC   H5X 4327   5.095   1.966   7.096  0.3267  0.0598 -3.1911
   32SAPC   H5Y 4328   5.244   2.014   7.190  1.8408 -0.3394 -0.3340
   32SAPC   C36 4329   5.257   1.814   7.094  0.3311 -0.1952 -0.6661
   32SAPC   H6X 4330   5.362   1.809   7.058  1.4379 -0.7824  2.3907
   32SAPC   H6Y 4331   5.193   1.764   7.018  0.6582  1.6438 -2.2130
   32SAPC   C37 4332   5.271   1.731   7.221  0.5614 -0.1486 -0.7517
   32SAPC   H7X 4333   5.348   1.773   7.289  0.3673 -2.4487  1.0350
   32SAPC   H7Y 4334   5.314   1.630   7.199  0.5827 -0.1909 -0.5136
   32SAPC   C38 4335   5.140   1.705   7.290  0.5130  0.5281  0.0481
   32SAPC   H8X 4336   5.088   1.616   7.248 -0.2150  1.0946 -0.2557
   32SAPC   H8Y 4337   5.072   1.792   7.285 -1.3153 -0.9440 -2.7948
   32SAPC   C39 4338   5.165   1.668   7.435 -0.5651  0.1710 -0.5588
   32SAPC   H9X 4339   5.221   1.756   7.473  0.3272 -0.1689 -1.0407
   32SAPC   H9Y 4340   5.232   1.579   7.436  0.0168  0.6028 -0.5882
   32SAPC  C310 4341   5.041   1.630   7.518  0.7123 -0.2979  0.4886
   32SAPC  H10X 4342   5.072   1.584   7.615 -0.2868 -0.2617  0.8422
   32SAPC  H10Y 4343   4.973   1.563   7.461 -1.9928  2.9726 -0.4583
   32SAPC  C311 4344   4.947   1.749   7.550 -0.3356  0.0083  0.5557
   32SAPC  H11X 4345   4.905   1.783   7.453 -0.8739 -1.6579  0.1718
   32SAPC  H11Y 4346   5.007   1.835   7.586  1.5952 -0.6529 -0.9180
   32SAPC  C312 4347   4.829   1.723   7.649 -0.3322  0.2117  0.1373
   32SAPC  H12X 4348   4.766   1.636   7.622  1.4342 -1.1353  0.1940
   32SAPC  H12Y 4349   4.763   1.812   7.661  0.5120  0.7980  0.5478
   32SAPC  C313 4350   4.891   1.710   7.792 -0.9551 -0.1713  0.6970
   32SAPC  H13X 4351   4.944   1.806   7.814  0.0891 -0.7969  0.9728
   32SAPC  H13Y 4352   4.960   1.623   7.795  1.1946  1.2389 -2.5295
   32SAPC  C314 4353   4.773   1.707   7.894 -1.1798  0.2124  0.1685
   32SAPC  H14X 4354   4.723   1.608   7.882 -1.0443  0.0896  0.6048
   32SAPC  H14Y 4355   4.699   1.787   7.871  0.1198  1.6158  0.6877
   32SAPC  C315 4356   4.806   1.736   8.041 -0.3052 -0.0594 -0.1621
   32SAPC  H15X 4357   4.834   1.844   8.047 -3.6300  0.8611  1.5750
   32SAPC  H15Y 4358   4.872   1.665   8.093 -0.9079 -1.0742 -0.7558
   32SAPC  C316 4359   4.680   1.726   8.135  0.3997 -0.2494 -0.0077
   32SAPC  H16X 4360   4.642   1.622   8.143  0.5116 -0.3887 -1.0493
   32SAPC  H16Y 4361   4.598   1.785   8.088  0.7282  0.3820  0.2016
   32SAPC  C317 4362   4.697   1.776   8.282  0.1265 -0.4272 -0.1039
   32SAPC  H17X 4363   4.654   1.699   8.349 -0.9320  1.3229  1.3099
   32SAPC  H17Y 4364   4.643   1.873   8.289  2.1952  0.7369  0.6637
   32SAPC  C318 4365   4.835   1.803   8.330 -0.0228  0.7190  0.4244
   32SAPC  H18X 4366   4.906   1.863   8.269  0.6583  0.5702  1.0543
   32SAPC  H18Y 4367   4.885   1.711   8.367 -0.9631 -0.0223 -0.1116
   32SAPC  H18Z 4368   4.828   1.854   8.428  3.1457 -0.7692  1.5891
   33POPC     N 4369   4.476   3.890  10.448  0.4892  0.0443 -0.0406
   33POPC   C12 4370   4.606   3.860  10.515  0.2604  0.0642 -0.2307
   33POPC  H12A 4371   4.611   3.756  10.546 -0.3188 -1.4330 -4.5035
   33POPC  H12B 4372   4.615   3.924  10.601  0.5470 -0.7287  0.3526
   33POPC   C13 4373   4.450   3.796  10.333 -0.7699 -0.0755 -0.4529
   33POPC  H13A 4374   4.350   3.817  10.298 -0.0903 -1.0763 -3.2398
   33POPC  H13B 4375   4.504   3.816  10.241  1.2212  1.2286  0.9056
   33POPC  H13C 4376   4.468   3.694  10.362  0.9338  0.7779  1.7800
   33POPC   C14 4377   4.356   3.892  10.540 -0.6799  0.8698 -0.6234
   33POPC  H14A 4378   4.360   3.967  10.618 -0.4879 -0.6943  0.9458
   33POPC  H14B 4379   4.266   3.900  10.480  0.0448  0.7414 -1.7565
   33POPC  H14C 4380   4.358   3.801  10.599  1.5222  1.2284 -0.0461
   33POPC   C15 4381   4.475   4.022  10.383  0.3951 -0.2032 -0.4340
   33POPC  H15A 4382   4.532   4.028  10.292 -0.4124 -0.7391 -0.9912
   33POPC  H15B 4383   4.519   4.091  10.454  3.0461 -2.1083 -0.0790
   33POPC  H15C 4384   4.374   4.050  10.357 -0.2590 -1.5897  0.5124
   33POPC   C11 4385   4.736   3.873  10.426  0.3045 -0.1357 -0.5095
   33POPC  H11A 4386   4.763   3.980  10.409 -0.5514  0.3479  0.9701
   33POPC  H11B 4387   4.723   3.836  10.323  1.3381 -1.0631 -0.3216
   33POPC     P 4388   4.873   3.658  10.475 -0.5050 -0.1646  0.0681
   33POPC   O13 4389   4.814   3.606  10.349  0.3807  0.2268  0.3408
   33POPC   O14 4390   4.834   3.588  10.600  0.4354  0.4856 -0.2957
   33POPC   O12 4391   4.846   3.814  10.490 -0.2756 -0.0069  0.3165
   33POPC   O11 4392   5.027   3.646  10.467 -0.0177 -0.2669  0.7191
   33POPC    C1 4393   5.111   3.767  10.464  0.1433  0.7122  0.3794
   33POPC    HA 4394   5.082   3.837  10.545  0.0787 -0.5911  1.5133
   33POPC    HB 4395   5.213   3.732  10.489  1.2349  2.1178 -1.7335
   33POPC    C2 4396   5.115   3.834  10.329  0.2789  0.0523  0.5000
   33POPC    HS 4397   5.012   3.869  10.308 -0.7350 -0.5997  3.7568
   33POPC   O21 4398   5.157   3.741  10.225  0.4862 -0.4260  0.2879
   33POPC   C21 4399   5.070   3.735  10.113 -0.0556 -0.0828 -0.2715
   33POPC   O22 4400   4.978   3.815  10.091 -0.6490  0.2292  0.6349
   33POPC   C22 4401   5.098   3.608  10.036 -0.1372 -0.2665 -0.6838
   33POPC   H2R 4402   5.014   3.537  10.051  0.9925 -1.8923 -1.6658
   33POPC   H2S 4403   5.182   3.553  10.084 -1.5304 -1.2714  0.6809
   33POPC    C3 4404   5.214   3.947  10.337  0.1798  0.1890 -0.0226
   33POPC    HX 4405   5.309   3.905  10.377 -0.0449  1.3021  1.7857
   33POPC    HY 4406   5.187   4.027  10.408 -2.2789 -0.4855 -0.1102
   33POPC   O31 4407   5.241   3.992  10.207  0.0053 -0.1415  0.0182
   33POPC   C31 4408   5.163   4.094  10.166  0.2037  0.8236 -0.2270
   33POPC   O32 4409   5.058   4.128  10.218  0.0697  0.0941 -0.3203
   33POPC   C32 4410   5.213   4.131  10.024 -0.4512 -0.3319 -0.1004
   33POPC   H2X 4411   5.320   4.160  10.027 -0.5264  0.0339 -0.7442
   33POPC   H2Y 4412   5.156   4.217   9.980  1.1044  1.0926  0.5846
   33POPC   C23 4413   5.129   3.639   9.891  0.2320 -0.2464  0.0467
   33POPC   H3R 4414   5.202   3.722   9.883  0.1075 -0.1407  0.0109
   33POPC   H3S 4415   5.038   3.667   9.834 -0.3054 -2.2350 -0.1554
   33POPC   C24 4416   5.187   3.514   9.821 -0.3597 -0.5149  0.0543
   33POPC   H4R 4417   5.116   3.429   9.832  1.7381 -2.1436  2.2055
   33POPC   H4S 4418   5.281   3.492   9.876 -0.4691 -0.1556  0.3908
   33POPC   C25 4419   5.233   3.535   9.681  0.1057  0.3364  0.1519
   33POPC   H5R 4420   5.318   3.606   9.674  0.9593 -0.7619 -1.2823
   33POPC   H5S 4421   5.165   3.600   9.622  1.0491  1.6646  0.4726
   33POPC   C26 4422   5.261   3.411   9.590  0.5419  0.0522 -0.4539
   33POPC   H6R 4423   5.172   3.345   9.595  1.3426 -0.9624  1.6917
   33POPC   H6S 4424   5.348   3.351   9.625  0.7681  0.3754 -0.4516
   33POPC   C27 4425   5.268   3.467   9.445 -1.3113 -0.3293  0.5682
   33POPC   H7R 4426   5.357   3.533   9.444 -1.6958  0.1863 -0.1144
   33POPC   H7S 4427   5.178   3.524   9.411  0.2742  1.8621 -0.1262
   33POPC   C28 4428   5.312   3.365   9.342 -0.1910  0.0590 -0.1785
   33POPC   H8R 4429   5.380   3.290   9.388  0.1214 -0.0619 -0.8257
   33POPC   H8S 4430   5.370   3.415   9.263 -0.7123  0.8149 -0.0892
   33POPC   C29 4431   5.201   3.280   9.299  0.5280  0.5457  0.9724
   33POPC   H91 4432   5.105   3.298   9.351 -0.5408  1.9727 -1.3370
   33POPC  C210 4433   5.201   3.186   9.198 -0.3239 -0.1068  0.3535
   33POPC  H101 4434   5.111   3.127   9.171  0.6303 -1.5828  0.2751
   33POPC  C211 4435   5.328   3.155   9.117  0.3095  0.8121  0.2508
   33POPC  H11R 4436   5.399   3.095   9.179  1.0564 -2.9975 -3.7064
   33POPC  H11S 4437   5.373   3.246   9.073  0.0783  0.1122 -1.5334
   33POPC  C212 4438   5.296   3.052   9.004 -0.2974 -0.7996  0.0382
   33POPC  H12R 4439   5.226   3.100   8.933  1.4046  2.2703  0.2344
   33POPC  H12S 4440   5.249   2.963   9.051 -3.0735 -0.3441 -1.6810
   33POPC  C213 4441   5.410   2.997   8.921  0.0482  0.3598  0.7328
   33POPC  H13R 4442   5.488   2.943   8.979  1.1315 -0.6720 -1.5917
   33POPC  H13S 4443   5.451   3.079   8.859  2.0456  0.4814  2.0951
   33POPC  C214 4444   5.368   2.892   8.815 -0.1610 -0.8422  0.4527
   33POPC  H14R 4445   5.321   2.945   8.730 -0.8998  1.3402  2.1414
   33POPC  H14S 4446   5.295   2.828   8.870 -0.5114  0.3800  1.4566
   33POPC  C215 4447   5.485   2.802   8.773 -0.4817 -0.3045 -0.2795
   33POPC  H15R 4448   5.533   2.759   8.864  1.0723 -0.7285 -1.2700
   33POPC  H15S 4449   5.567   2.867   8.735 -1.2709  0.2601 -1.0429
   33POPC  C216 4450   5.451   2.701   8.671  0.1199  0.5139 -0.4542
   33POPC  H16R 4451   5.433   2.747   8.571 -0.6047  3.0337  0.7475
   33POPC  H16S 4452   5.350   2.673   8.710 -1.0713  2.4960 -1.9162
   33POPC  C217 4453   5.546   2.584   8.641 -0.0630  0.1522  0.7173
   33POPC  H17R 4454   5.646   2.629   8.622 -0.3340  0.9624  1.1637
   33POPC  H17S 4455   5.515   2.531   8.548 -0.9129  0.3941  0.8527
   33POPC  C218 4456   5.558   2.480   8.750  0.5446 -0.6770 -0.1680
   33POPC  H18R 4457   5.614   2.387   8.728 -0.0535 -1.5328  1.7112
   33POPC  H18S 4458   5.457   2.448   8.785 -1.5670  1.9419 -3.2266
   33POPC  H18T 4459   5.602   2.534   8.836  0.8157 -1.7009  0.3445
   33POPC   C33 4460   5.194   4.006   9.935 -0.2438 -0.2436 -0.4224
   33POPC   H3X 4461   5.084   3.991   9.922 -0.5556  1.4545 -0.1231
   33POPC   H3Y 4462   5.226   3.910   9.981 -1.1884  0.4976  1.9735
   33POPC   C34 4463   5.262   4.027   9.799 -0.0214 -0.0506  0.2655
   33POPC   H4X 4464   5.371   4.044   9.811 -0.0725 -0.5321  1.5952
   33POPC   H4Y 4465   5.223   4.124   9.760  0.4251 -0.4680 -1.2720
   33POPC   C35 4466   5.249   3.912   9.699 -0.3961  0.8116 -0.7476
   33POPC   H5X 4467   5.142   3.889   9.679 -1.2145  2.1976  1.5018
   33POPC   H5Y 4468   5.301   3.824   9.741 -0.7465  1.1792  0.5295
   33POPC   C36 4469   5.307   3.963   9.571 -0.5038  0.2669  0.6000
   33POPC   H6X 4470   5.417   3.978   9.573 -0.2547 -1.3680  1.4158
   33POPC   H6Y 4471   5.242   4.044   9.532 -1.2635  0.2435  1.7437
   33POPC   C37 4472   5.296   3.847   9.465 -0.4826 -0.0575 -0.3142
   33POPC   H7X 4473   5.194   3.802   9.471 -0.8901  1.0566  2.4363
   33POPC   H7Y 4474   5.364   3.766   9.499 -3.7735 -2.6151  0.7921
   33POPC   C38 4475   5.325   3.909   9.327 -0.2631 -0.5913 -0.4922
   33POPC   H8X 4476   5.435   3.903   9.312 -0.0036  3.0750 -1.0361
   33POPC   H8Y 4477   5.294   4.016   9.327  1.0141 -0.2085 -0.5806
   33POPC   C39 4478   5.262   3.820   9.217 -0.6427  0.0378 -0.2701
   33POPC   H9X 4479   5.158   3.795   9.245 -0.7900 -0.6469 -1.3674
   33POPC   H9Y 4480   5.318   3.724   9.217  0.9008  0.8111  2.7360
   33POPC  C310 4481   5.272   3.885   9.081 -0.5854  0.3032  0.2343
   33POPC  H10X 4482   5.377   3.917   9.066 -0.9783  1.6091  0.0722
   33POPC  H10Y 4483   5.221   3.984   9.077 -0.2382  0.4454 -2.2025
   33POPC  C311 4484   5.225   3.793   8.964  0.0116 -0.3954  0.3500
   33POPC  H11X 4485   5.116   3.772   8.974  0.3785 -1.4238  2.8441
   33POPC  H11Y 4486   5.262   3.688   8.965  0.6437 -0.3649 -3.3932
   33POPC  C312 4487   5.264   3.832   8.818  0.6215  0.2662 -0.2983
   33POPC  H12X 4488   5.216   3.751   8.759 -0.3459 -0.5900  1.5737
   33POPC  H12Y 4489   5.374   3.828   8.801  0.8499  0.5902  0.9995
   33POPC  C313 4490   5.201   3.958   8.771  0.8429 -0.0585  0.1684
   33POPC  H13X 4491   5.238   4.040   8.836  0.5004  1.0597 -0.9971
   33POPC  H13Y 4492   5.091   3.969   8.782  0.7579  0.2983 -0.9130
   33POPC  C314 4493   5.255   4.005   8.635 -0.5744 -0.9950 -0.6330
   33POPC  H14X 4494   5.210   3.935   8.561  0.8123 -0.7045 -1.8146
   33POPC  H14Y 4495   5.365   3.987   8.642 -0.2913  0.2946 -1.3957
   33POPC  C315 4496   5.218   4.145   8.576 -0.1760 -0.1083 -0.1137
   33POPC  H15X 4497   5.272   4.151   8.479 -0.0376  2.0732  0.0348
   33POPC  H15Y 4498   5.261   4.228   8.638 -2.2514  0.4984  0.5984
   33POPC  C316 4499   5.067   4.157   8.551  0.3555 -0.1703  0.1841
   33POPC  H16X 4500   5.023   4.225   8.627 -1.1827 -2.5633  1.5445
   33POPC  H16Y 4501   5.001   4.071   8.574  2.0489 -1.9289 -1.2076
   33POPC  H16Z 4502   5.037   4.180   8.446  0.3209  2.4867  0.6859
   34POPC     N 4503   4.665   1.920  11.056  0.0165  0.1789 -0.2184
   34POPC   C12 4504   4.683   1.939  10.908 -0.5166 -0.9452 -0.1264
   34POPC  H12A 4505   4.673   1.846  10.854  0.5333 -0.1494 -1.7582
   34POPC  H12B 4506   4.778   1.982  10.878 -1.3067 -0.4865 -2.1287
   34POPC   C13 4507   4.529   1.861  11.091 -0.7558  0.1226 -0.2050
   34POPC  H13A 4508   4.456   1.938  11.071  0.9711  1.4517 -1.6977
   34POPC  H13B 4509   4.504   1.769  11.041 -3.1692 -0.1131  1.2741
   34POPC  H13C 4510   4.528   1.833  11.196 -0.5005  0.9655  0.0250
   34POPC   C14 4511   4.758   1.813  11.108  0.1039  0.0107  0.3164
   34POPC  H14A 4512   4.726   1.711  11.089  1.2642 -0.5413  1.1314
   34POPC  H14B 4513   4.858   1.823  11.068  0.3468 -0.5470  0.7562
   34POPC  H14C 4514   4.767   1.827  11.215 -1.3623  0.9984  0.3336
   34POPC   C15 4515   4.690   2.049  11.135 -0.1504 -0.0161  0.3345
   34POPC  H15A 4516   4.636   2.134  11.096 -1.0490 -0.8852 -0.3727
   34POPC  H15B 4517   4.795   2.074  11.137  0.6452 -2.7437  4.1890
   34POPC  H15C 4518   4.665   2.037  11.240 -1.3329 -0.9874 -0.0388
   34POPC   C11 4519   4.593   2.044  10.840  0.0225  0.2470 -1.1398
   34POPC  H11A 4520   4.625   2.081  10.741 -0.4956 -0.8715 -1.7389
   34POPC  H11B 4521   4.606   2.130  10.909  0.2959 -1.1761  0.6680
   34POPC     P 4522   4.392   1.916  10.722  0.0648  0.2578 -0.0100
   34POPC   O13 4523   4.241   1.908  10.738  0.3995  0.0114  0.4159
   34POPC   O14 4524   4.467   1.785  10.725  0.6952 -0.3629 -0.5414
   34POPC   O12 4525   4.453   2.010  10.827 -0.6441  0.3390  0.0933
   34POPC   O11 4526   4.436   1.990  10.583 -0.0304  0.7780  0.0088
   34POPC    C1 4527   4.393   2.124  10.568  0.7535 -0.1527 -0.9873
   34POPC    HA 4528   4.477   2.177  10.519  0.8321  2.1841  1.4291
   34POPC    HB 4529   4.387   2.180  10.664  1.1656  0.9424 -1.5891
   34POPC    C2 4530   4.258   2.145  10.489  0.2130 -0.0273 -0.8944
   34POPC    HS 4531   4.176   2.096  10.545  1.2966 -1.3340 -0.3983
   34POPC   O21 4532   4.282   2.083  10.360 -0.2235 -0.0715 -0.0933
   34POPC   C21 4533   4.180   2.017  10.317 -0.1963 -0.4105  0.3455
   34POPC   O22 4534   4.075   1.990  10.377 -0.2529  0.2021  0.3771
   34POPC   C22 4535   4.210   1.980  10.172  0.3637 -0.0714  0.3547
   34POPC   H2R 4536   4.114   1.944  10.128  1.0223  1.2747 -2.3539
   34POPC   H2S 4537   4.287   1.900  10.174  0.6748  0.2045 -0.6069
   34POPC    C3 4538   4.220   2.295  10.483 -0.4485  0.4999  0.0721
   34POPC    HX 4539   4.296   2.361  10.436 -0.1554  0.2000  0.1194
   34POPC    HY 4540   4.218   2.336  10.587  0.1194  1.7604 -0.3932
   34POPC   O31 4541   4.097   2.322  10.423  0.2112 -0.0831 -0.1567
   34POPC   C31 4542   3.980   2.284  10.479 -0.1393 -0.8360  1.0430
   34POPC   O32 4543   3.969   2.232  10.587 -0.1466 -0.0490  0.2529
   34POPC   C32 4544   3.856   2.321  10.390  0.0768 -0.1423 -0.5793
   34POPC   H2X 4545   3.848   2.432  10.394 -1.8671 -0.2742  1.1754
   34POPC   H2Y 4546   3.771   2.283  10.451 -0.7897  0.9874 -1.0302
   34POPC   C23 4547   4.269   2.107  10.089 -0.2996  0.1558 -0.6262
   34POPC   H3R 4548   4.376   2.127  10.111 -0.3629 -0.0414 -0.1257
   34POPC   H3S 4549   4.212   2.198  10.118  2.3631  2.2867 -1.6582
   34POPC   C24 4550   4.239   2.094   9.944  0.3169  0.0062  0.8943
   34POPC   H4R 4551   4.128   2.097   9.944  0.2264  0.2316 -2.2375
   34POPC   H4S 4552   4.267   1.995   9.903  0.3021  0.3864 -0.0702
   34POPC   C25 4553   4.294   2.214   9.868  0.7552  0.3968  0.5639
   34POPC   H5R 4554   4.391   2.249   9.908  0.5432  3.5394 -1.3065
   34POPC   H5S 4555   4.229   2.305   9.871  0.7859  0.4172  0.6069
   34POPC   C26 4556   4.310   2.185   9.719 -0.0718  0.0477  0.0101
   34POPC   H6R 4557   4.348   2.081   9.709  0.5536 -0.0778  2.8276
   34POPC   H6S 4558   4.390   2.254   9.684  0.6655 -1.4636 -1.4077
   34POPC   C27 4559   4.197   2.205   9.629  0.6364  0.0818 -0.1268
   34POPC   H7R 4560   4.172   2.313   9.630 -2.5430 -0.5692 -0.4470
   34POPC   H7S 4561   4.105   2.151   9.659  0.9904 -0.7249 -0.4637
   34POPC   C28 4562   4.222   2.173   9.477  0.4936 -0.4844 -0.2397
   34POPC   H8R 4563   4.294   2.248   9.440 -2.8677  2.1338 -2.0457
   34POPC   H8S 4564   4.129   2.199   9.422  0.3160  2.2025  1.1942
   34POPC   C29 4565   4.247   2.028   9.456  0.4183 -0.3040 -0.3689
   34POPC   H91 4566   4.234   1.965   9.545 -1.9433  1.5993  0.7308
   34POPC  C210 4567   4.297   1.976   9.346 -0.2990  0.4283  0.2829
   34POPC  H101 4568   4.302   1.866   9.342 -1.7292  0.3212  0.8177
   34POPC  C211 4569   4.331   2.046   9.221 -0.2161  0.3101 -0.2348
   34POPC  H11R 4570   4.422   1.997   9.180 -1.4199 -0.7634 -1.7343
   34POPC  H11S 4571   4.372   2.148   9.236  0.4783 -0.0545  0.4307
   34POPC  C212 4572   4.223   2.030   9.116  0.2666 -0.2241 -0.5282
   34POPC  H12R 4573   4.138   2.098   9.138 -0.1914 -0.7127 -0.7624
   34POPC  H12S 4574   4.193   1.924   9.132  1.5340 -0.4325  0.6354
   34POPC  C213 4575   4.274   2.040   8.971  0.7657 -0.4312  0.2824
   34POPC  H13R 4576   4.365   1.977   8.958  0.5830 -0.7574  0.5554
   34POPC  H13S 4577   4.310   2.144   8.960  1.2264 -0.6547 -0.3976
   34POPC  C214 4578   4.162   1.990   8.876  0.0543 -0.2639  0.4614
   34POPC  H14R 4579   4.116   1.897   8.915  1.2122 -0.8853  0.4003
   34POPC  H14S 4580   4.205   1.964   8.777 -0.2167 -0.2055  0.3281
   34POPC  C215 4581   4.057   2.094   8.852 -1.2307  0.3686  1.1198
   34POPC  H15R 4582   4.110   2.191   8.836  2.2699 -1.7692 -2.4076
   34POPC  H15S 4583   3.997   2.092   8.944  2.0841 -0.0073  3.4607
   34POPC  C216 4584   3.978   2.069   8.722  1.0975 -0.2752 -0.2846
   34POPC  H16R 4585   3.931   1.969   8.733  0.3164  0.2671  2.0873
   34POPC  H16S 4586   4.036   2.086   8.629  0.1328  0.5832 -0.7479
   34POPC  C217 4587   3.847   2.156   8.724 -0.6793  0.3154 -0.4098
   34POPC  H17R 4588   3.869   2.265   8.721 -0.2944  0.2621  0.1854
   34POPC  H17S 4589   3.801   2.137   8.823  0.6490 -3.0863 -0.3069
   34POPC  C218 4590   3.751   2.129   8.614  0.5718 -0.0137  0.3540
   34POPC  H18R 4591   3.809   2.110   8.521  0.9775 -0.7288  0.7425
   34POPC  H18S 4592   3.680   2.215   8.609 -1.4029 -1.5715  0.5031
   34POPC  H18T 4593   3.694   2.039   8.643  2.2184 -0.7666  1.4348
   34POPC   C33 4594   3.849   2.257  10.252  0.5331  0.4406  0.5710
   34POPC   H3X 4595   3.745   2.261  10.213  0.7427  0.4239 -0.0032
   34POPC   H3Y 4596   3.898   2.157  10.257  0.6992  0.4833 -0.1276
   34POPC   C34 4597   3.930   2.335  10.149 -0.2546  0.7849 -0.0300
   34POPC   H4X 4598   4.039   2.315  10.163 -0.5015  0.0881  0.9979
   34POPC   H4Y 4599   3.914   2.445  10.153  0.8979  0.9671  0.0229
   34POPC   C35 4600   3.896   2.298   9.995 -0.6854 -1.3470 -0.5635
   34POPC   H5X 4601   3.922   2.190   9.991  3.2088 -0.5429 -0.4524
   34POPC   H5Y 4602   3.970   2.352   9.933  1.8431 -3.8278  0.0714
   34POPC   C36 4603   3.749   2.306   9.952 -0.5508  0.3145 -0.7732
   34POPC   H6X 4604   3.719   2.413   9.962  0.6015  0.6762 -0.9675
   34POPC   H6Y 4605   3.684   2.244  10.017  2.2238 -1.1162  0.8180
   34POPC   C37 4606   3.716   2.284   9.798  0.5150  0.1987  0.6958
   34POPC   H7X 4607   3.612   2.320   9.784  1.6553  2.9824 -1.6948
   34POPC   H7Y 4608   3.729   2.175   9.780 -0.7910  0.3432 -1.4881
   34POPC   C38 4609   3.810   2.350   9.689  0.5262  0.3079 -0.2744
   34POPC   H8X 4610   3.918   2.332   9.705  0.1864 -1.8161 -0.0090
   34POPC   H8Y 4611   3.794   2.459   9.694  1.0188  0.3479  0.5161
   34POPC   C39 4612   3.791   2.296   9.549  0.3569 -0.6853  0.2826
   34POPC   H9X 4613   3.681   2.287   9.534  0.6106 -0.2472 -2.3441
   34POPC   H9Y 4614   3.821   2.189   9.545  0.1005 -0.7331 -0.6200
   34POPC  C310 4615   3.869   2.379   9.447  0.5129 -0.1919 -0.0697
   34POPC  H10X 4616   3.978   2.376   9.466  0.3554 -0.0264  0.8799
   34POPC  H10Y 4617   3.831   2.483   9.450  0.1477 -0.3403  2.4420
   34POPC  C311 4618   3.841   2.321   9.305 -0.7186  0.4196  0.4822
   34POPC  H11X 4619   3.730   2.313   9.303 -0.7902  1.3271  0.1008
   34POPC  H11Y 4620   3.870   2.215   9.287 -0.8428  0.8158 -2.7645
   34POPC  C312 4621   3.871   2.419   9.192 -0.3794 -0.3736 -0.0891
   34POPC  H12X 4622   3.827   2.518   9.213  1.1062 -0.3217  3.4198
   34POPC  H12Y 4623   3.820   2.371   9.105 -2.0385  0.8795  0.1630
   34POPC  C313 4624   4.019   2.433   9.160  0.3279  0.6854 -0.4557
   34POPC  H13X 4625   4.062   2.330   9.157 -2.1977 -0.4642  0.3258
   34POPC  H13Y 4626   4.065   2.480   9.250 -1.9600 -1.0198  1.7449
   34POPC  C314 4627   4.043   2.515   9.038  0.3789 -0.3961  1.0312
   34POPC  H14X 4628   4.001   2.618   9.045 -0.1178 -0.5234  0.1081
   34POPC  H14Y 4629   3.975   2.472   8.961 -0.9857  0.3674  1.7791
   34POPC  C315 4630   4.187   2.531   8.989 -0.8006  0.4985  0.0317
   34POPC  H15X 4631   4.233   2.432   8.968  2.1943  1.2892  2.2603
   34POPC  H15Y 4632   4.251   2.566   9.072  2.5143 -0.5553 -1.8941
   34POPC  C316 4633   4.208   2.635   8.879  0.1156 -0.1489 -0.6331
   34POPC  H16X 4634   4.139   2.610   8.797 -0.4811  0.2068 -0.2462
   34POPC  H16Y 4635   4.311   2.647   8.839 -0.4707  1.1685 -1.8181
   34POPC  H16Z 4636   4.177   2.734   8.919  0.8557 -0.8181  1.7868
   35POPC     N 4637   2.403   2.610  10.902 -0.0136 -0.0289  0.3853
   35POPC   C12 4638   2.441   2.496  10.987  0.5057 -0.0508  0.1748
   35POPC  H12A 4639   2.377   2.501  11.073 -0.1242  1.3166 -0.3529
   35POPC  H12B 4640   2.542   2.511  11.023  0.8382 -0.1244 -0.6926
   35POPC   C13 4641   2.261   2.587  10.867 -0.0306 -0.6392 -0.4102
   35POPC  H13A 4642   2.224   2.653  10.791 -1.1974 -1.2659 -0.4081
   35POPC  H13B 4643   2.237   2.489  10.829 -1.8507 -0.2562 -0.3323
   35POPC  H13C 4644   2.197   2.600  10.954  1.1471  0.8848  0.2732
   35POPC   C14 4645   2.418   2.754  10.965  0.7404  0.1878  0.9973
   35POPC  H14A 4646   2.371   2.821  10.895 -0.0160  0.9686  2.2029
   35POPC  H14B 4647   2.361   2.756  11.057 -2.1741 -0.1213 -0.6949
   35POPC  H14C 4648   2.520   2.789  10.979  0.1503  1.8272  1.4771
   35POPC   C15 4649   2.473   2.613  10.763  0.1902 -0.4677 -0.3802
   35POPC  H15A 4650   2.579   2.632  10.765 -0.0693  1.2976 -1.2744
   35POPC  H15B 4651   2.439   2.703  10.713  3.3539  1.9947  1.5101
   35POPC  H15C 4652   2.444   2.526  10.705 -0.4716 -1.3542  1.2087
   35POPC   C11 4653   2.430   2.352  10.929 -0.2117  0.2484  0.1992
   35POPC  H11A 4654   2.472   2.275  10.997 -2.0910 -1.0761 -0.0452
   35POPC  H11B 4655   2.501   2.342  10.844 -0.8343 -0.3651 -0.2577
   35POPC     P 4656   2.206   2.255  10.990 -0.1516 -0.2266  0.3026
   35POPC   O13 4657   2.074   2.323  10.990 -0.8315  0.0419  0.0435
   35POPC   O14 4658   2.276   2.247  11.122 -0.0950  0.1040 -0.5455
   35POPC   O12 4659   2.303   2.318  10.887  0.0889 -0.4626 -0.7258
   35POPC   O11 4660   2.191   2.104  10.948  0.4553  0.3881 -0.4237
   35POPC    C1 4661   2.292   2.044  10.866 -0.2797  0.0335  0.6153
   35POPC    HA 4662   2.315   1.939  10.897  0.3121 -0.4895 -1.4508
   35POPC    HB 4663   2.393   2.089  10.868  0.1193 -0.8443  0.9695
   35POPC    C2 4664   2.251   2.010  10.720 -0.0688 -0.5535  0.3392
   35POPC    HS 4665   2.324   1.937  10.680  0.5437 -0.1679  0.7288
   35POPC   O21 4666   2.230   2.126  10.651 -0.0844  0.2292  0.1522
   35POPC   C21 4667   2.332   2.177  10.603 -0.6542 -0.1248 -0.8387
   35POPC   O22 4668   2.450   2.146  10.626  0.3860 -0.1189  0.5494
   35POPC   C22 4669   2.287   2.279  10.506 -0.5532 -0.7177  0.3447
   35POPC   H2R 4670   2.297   2.381  10.549  0.2391 -0.8702  0.5438
   35POPC   H2S 4671   2.183   2.262  10.470  0.2710 -0.4256 -2.4139
   35POPC    C3 4672   2.120   1.926  10.717  0.2443 -0.0526 -0.7225
   35POPC    HX 4673   2.068   1.941  10.814  0.0085  0.2413 -0.8929
   35POPC    HY 4674   2.160   1.823  10.717  0.3537 -0.1205  2.4100
   35POPC   O31 4675   2.041   1.960  10.599 -0.1505  0.0320  0.1583
   35POPC   C31 4676   2.090   1.904  10.486  0.2379 -0.5377 -0.1238
   35POPC   O32 4677   2.182   1.827  10.481  0.8459 -0.6122  0.3063
   35POPC   C32 4678   2.015   1.969  10.363 -0.2523  0.2529  0.1042
   35POPC   H2X 4679   2.012   2.080  10.369 -0.3365  0.2920 -0.6278
   35POPC   H2Y 4680   1.907   1.945  10.379 -0.4493  1.4945  0.7970
   35POPC   C23 4681   2.384   2.286  10.388 -0.8497 -0.9733 -0.4842
   35POPC   H3R 4682   2.488   2.307  10.422 -1.9962  2.4308  1.4018
   35POPC   H3S 4683   2.352   2.376  10.332  0.5224  0.6712  1.2590
   35POPC   C24 4684   2.376   2.163  10.291  0.1441  0.1031  0.5809
   35POPC   H4R 4685   2.270   2.135  10.274  0.3965  0.3984 -1.9862
   35POPC   H4S 4686   2.423   2.080  10.347 -0.4101 -0.1233  0.7068
   35POPC   C25 4687   2.444   2.188  10.156 -0.2735  0.2308 -0.1683
   35POPC   H5R 4688   2.554   2.197  10.166 -0.1267  0.0169 -1.3418
   35POPC   H5S 4689   2.405   2.280  10.108 -1.6101  0.4241  1.2122
   35POPC   C26 4690   2.417   2.082  10.046  0.1065  0.3986 -1.0504
   35POPC   H6R 4691   2.314   2.042  10.058  0.1074  0.5500 -0.5236
   35POPC   H6S 4692   2.482   1.993  10.059 -0.3168  0.2167 -0.1124
   35POPC   C27 4693   2.424   2.134   9.905 -0.1431 -0.1574 -0.2497
   35POPC   H7R 4694   2.499   2.216   9.902 -0.4485  0.1748  0.9385
   35POPC   H7S 4695   2.325   2.179   9.882  0.3045 -0.1895 -2.4956
   35POPC   C28 4696   2.470   2.037   9.790  0.2022 -0.2295 -0.4863
   35POPC   H8R 4697   2.453   2.091   9.695 -2.4891 -0.8988 -0.4729
   35POPC   H8S 4698   2.399   1.951   9.796 -1.6462  1.2566 -0.0601
   35POPC   C29 4699   2.607   1.991   9.787 -0.2833  0.4322  0.6209
   35POPC   H91 4700   2.624   1.935   9.880  1.0599 -0.2751 -0.0197
   35POPC  C210 4701   2.704   2.008   9.691  0.4533 -0.2419 -0.1742
   35POPC  H101 4702   2.804   1.976   9.723  0.0547 -2.1959 -0.7742
   35POPC  C211 4703   2.694   2.082   9.562  0.2448  0.2219  0.1548
   35POPC  H11R 4704   2.795   2.098   9.518  0.8517 -0.8324  1.1046
   35POPC  H11S 4705   2.660   2.186   9.580  0.2041 -0.0463  1.8775
   35POPC  C212 4706   2.622   2.005   9.450 -0.1229 -0.7194 -0.1288
   35POPC  H12R 4707   2.511   2.012   9.452 -0.1013 -0.1761 -0.6908
   35POPC  H12S 4708   2.660   1.900   9.454  0.2381 -0.6503 -1.2407
   35POPC  C213 4709   2.667   2.050   9.306  0.4629  0.1314 -0.2540
   35POPC  H13R 4710   2.628   1.966   9.244 -0.4159  0.1642  0.2419
   35POPC  H13S 4711   2.777   2.044   9.293  0.3758 -1.3279 -0.5266
   35POPC  C214 4712   2.616   2.189   9.259  0.2666  0.0566 -0.2308
   35POPC  H14R 4713   2.663   2.267   9.324  1.1080 -0.7025  0.0886
   35POPC  H14S 4714   2.507   2.200   9.279  0.3754 -1.3950  1.4391
   35POPC  C215 4715   2.640   2.204   9.107 -0.2013  0.4873  0.9455
   35POPC  H15R 4716   2.603   2.112   9.058  1.7684  0.3055 -0.3163
   35POPC  H15S 4717   2.748   2.192   9.082 -0.0473  0.3362  1.6523
   35POPC  C216 4718   2.569   2.325   9.043  0.0585 -0.3826  0.5404
   35POPC  H16R 4719   2.469   2.339   9.091 -0.3144 -1.6436  0.1709
   35POPC  H16S 4720   2.551   2.298   8.937 -2.6368  4.1258 -0.4524
   35POPC  C217 4721   2.667   2.441   9.040  0.1786  0.1865 -0.2617
   35POPC  H17R 4722   2.759   2.392   9.003 -0.0173 -0.7506  0.4541
   35POPC  H17S 4723   2.685   2.463   9.148 -1.7834 -0.6566  0.2802
   35POPC  C218 4724   2.635   2.561   8.958  0.0380 -0.0861  0.1524
   35POPC  H18R 4725   2.721   2.630   8.967 -0.4178  0.3312  1.7730
   35POPC  H18S 4726   2.540   2.606   8.996 -0.8445 -0.2577 -1.7461
   35POPC  H18T 4727   2.612   2.532   8.854 -1.0287 -0.7005  0.5451
   35POPC   C33 4728   2.058   1.916  10.219  0.0697 -0.5422 -0.6155
   35POPC   H3X 4729   2.031   1.808  10.208 -1.8905 -0.0131 -1.4921
   35POPC   H3Y 4730   2.168   1.926  10.219 -0.0445  0.8660 -0.8253
   35POPC   C34 4731   1.979   1.976  10.100 -0.4304  0.1029 -0.3543
   35POPC   H4X 4732   2.007   2.084  10.096  1.2460 -0.3285 -2.2695
   35POPC   H4Y 4733   1.870   1.973  10.116 -0.4345 -1.6127 -0.5870
   35POPC   C35 4734   2.023   1.910   9.968  0.0041  0.4004  0.9129
   35POPC   H5X 4735   2.048   1.805   9.991 -0.2396 -0.0290 -0.6798
   35POPC   H5Y 4736   2.127   1.939   9.942  0.4879  0.0408  2.3627
   35POPC   C36 4737   1.917   1.916   9.855  0.7535  0.3167 -0.5832
   35POPC   H6X 4738   1.875   2.019   9.846  0.8643  0.4868  0.6480
   35POPC   H6Y 4739   1.822   1.864   9.877 -0.0915 -0.5062 -5.0803
   35POPC   C37 4740   1.958   1.856   9.727 -0.1992 -0.4380  0.6168
   35POPC   H7X 4741   2.045   1.791   9.751  0.4485  0.3447  0.4737
   35POPC   H7Y 4742   1.981   1.945   9.664  0.4971 -1.6886 -0.9454
   35POPC   C38 4743   1.852   1.767   9.654 -0.0184 -0.6015  0.6449
   35POPC   H8X 4744   1.758   1.826   9.648  1.5969  2.3080  1.5108
   35POPC   H8Y 4745   1.825   1.675   9.709 -0.2593 -0.3760  0.9124
   35POPC   C39 4746   1.900   1.734   9.511  0.1872  0.0786 -0.2818
   35POPC   H9X 4747   1.977   1.654   9.516  0.8393  0.7678  1.6621
   35POPC   H9Y 4748   1.953   1.816   9.458  1.5683  0.5511  1.7525
   35POPC  C310 4749   1.788   1.694   9.405  0.2892 -0.1880 -0.0000
   35POPC  H10X 4750   1.708   1.771   9.395  0.6417  0.7728  3.2522
   35POPC  H10Y 4751   1.741   1.605   9.451 -1.1367  0.9929  0.9420
   35POPC  C311 4752   1.839   1.663   9.268  0.4789  0.5002 -0.7610
   35POPC  H11X 4753   1.937   1.610   9.271  0.1169 -0.1744  2.0526
   35POPC  H11Y 4754   1.867   1.760   9.222  1.1466  1.3452  1.3214
   35POPC  C312 4755   1.741   1.573   9.185  0.0328  0.0411  0.1396
   35POPC  H12X 4756   1.636   1.602   9.206 -0.0350 -0.2162  0.1678
   35POPC  H12Y 4757   1.754   1.472   9.231  1.1872 -0.1167 -0.4826
   35POPC  C313 4758   1.788   1.571   9.037  0.2411  0.7545 -0.0254
   35POPC  H13X 4759   1.728   1.491   8.989  1.1063  0.5134 -0.7208
   35POPC  H13Y 4760   1.889   1.527   9.023  0.3737  0.6200  1.2207
   35POPC  C314 4761   1.775   1.697   8.957 -0.2841 -0.0075 -0.2449
   35POPC  H14X 4762   1.800   1.666   8.853  2.8204  0.9378  0.1378
   35POPC  H14Y 4763   1.849   1.772   8.991 -1.6281  1.2322  0.0637
   35POPC  C315 4764   1.635   1.770   8.963 -0.2396 -0.1583 -0.2278
   35POPC  H15X 4765   1.646   1.870   8.915  0.0110  0.1543  0.4567
   35POPC  H15Y 4766   1.598   1.791   9.066  1.3366 -2.2789  0.8391
   35POPC  C316 4767   1.528   1.685   8.888 -0.4310 -0.3596  0.3755
   35POPC  H16X 4768   1.511   1.582   8.927  0.7239  0.3016  2.8155
   35POPC  H16Y 4769   1.556   1.681   8.781  2.2417  1.2287  0.9086
   35POPC  H16Z 4770   1.435   1.742   8.907  0.4681  0.9787  0.9073
   36POPC     N 4771   5.012   1.339  11.002  0.1757  0.0838 -0.2718
   36POPC   C12 4772   5.078   1.479  10.997 -0.0851 -0.3105 -0.2971
   36POPC  H12A 4773   5.183   1.458  11.009  0.3148  0.1164 -2.6866
   36POPC  H12B 4774   5.048   1.538  11.083 -1.1231  0.1837 -0.9761
   36POPC   C13 4775   5.064   1.253  10.888 -0.5327  0.1716  0.4033
   36POPC  H13A 4776   5.029   1.151  10.893 -0.3791  0.1232  0.5138
   36POPC  H13B 4777   5.021   1.305  10.804 -1.2424  1.6080  1.5849
   36POPC  H13C 4778   5.172   1.248  10.885 -0.4878  0.9865 -2.9779
   36POPC   C14 4779   5.051   1.266  11.119 -0.0098  0.4918  0.5288
   36POPC  H14A 4780   5.006   1.308  11.208  1.0147 -1.8022  2.2395
   36POPC  H14B 4781   5.018   1.163  11.105  1.0062  0.1740  0.4370
   36POPC  H14C 4782   5.156   1.256  11.141 -0.0980  1.0695  1.2157
   36POPC   C15 4783   4.862   1.350  10.992 -0.6891 -0.6458  0.5511
   36POPC  H15A 4784   4.825   1.417  11.068  1.1657  1.8036 -0.5609
   36POPC  H15B 4785   4.827   1.248  10.995  0.3840 -1.1522 -1.8993
   36POPC  H15C 4786   4.839   1.396  10.897  2.1317  0.7704  0.4189
   36POPC   C11 4787   5.049   1.566  10.877  0.6538  0.5552  0.3810
   36POPC  H11A 4788   4.946   1.538  10.846  0.6396 -0.6940  1.4610
   36POPC  H11B 4789   5.117   1.541  10.793 -0.6458  0.7127 -0.7429
   36POPC     P 4790   5.044   1.816  10.804  0.5075 -0.1189  0.0805
   36POPC   O13 4791   5.108   1.931  10.865  0.2370 -0.2886 -0.0430
   36POPC   O14 4792   4.901   1.835  10.770 -0.0978 -0.1754 -0.2207
   36POPC   O12 4793   5.064   1.700  10.905  0.3248  0.1424 -0.0643
   36POPC   O11 4794   5.111   1.771  10.678  0.1542  0.4390  0.0484
   36POPC    C1 4795   5.255   1.781  10.652 -0.1978 -0.4110  0.1643
   36POPC    HA 4796   5.293   1.686  10.609 -0.5717 -0.0968 -0.8876
   36POPC    HB 4797   5.311   1.799  10.746 -1.7277  1.9144  0.7046
   36POPC    C2 4798   5.283   1.901  10.553  0.9835  0.5056 -0.7234
   36POPC    HS 4799   5.245   1.986  10.615 -2.2772  0.1242 -1.9990
   36POPC   O21 4800   5.206   1.863  10.437 -0.5059  0.0409  0.6251
   36POPC   C21 4801   5.148   1.972  10.378 -0.3576 -0.7636 -0.1630
   36POPC   O22 4802   5.144   2.086  10.422 -0.4565 -0.0444  0.0380
   36POPC   C22 4803   5.087   1.924  10.249 -0.5565 -0.1005 -0.1820
   36POPC   H2R 4804   5.150   1.840  10.214  0.8355  0.3752  1.0788
   36POPC   H2S 4805   5.112   2.010  10.184 -0.5907  0.5068  0.5957
   36POPC    C3 4806   5.431   1.906  10.511 -0.1049  0.5296  0.0665
   36POPC    HX 4807   5.489   1.932  10.602 -3.1579 -1.4105  2.8332
   36POPC    HY 4808   5.435   1.994  10.443  0.9868  0.3950 -0.0518
   36POPC   O31 4809   5.469   1.776  10.459  1.0030  0.1554 -0.4217
   36POPC   C31 4810   5.496   1.790  10.326 -0.1394  0.9319 -0.2998
   36POPC   O32 4811   5.517   1.890  10.267 -0.4510  0.3417  0.2111
   36POPC   C32 4812   5.482   1.651  10.271 -0.2685  0.4958 -0.1706
   36POPC   H2X 4813   5.411   1.643  10.186  0.4302 -3.5549 -0.6095
   36POPC   H2Y 4814   5.458   1.578  10.352  1.0543 -0.4436 -0.5882
   36POPC   C23 4815   4.939   1.898  10.242  0.2928 -0.2449  0.4569
   36POPC   H3R 4816   4.886   1.992  10.267  1.2338  1.0302 -2.0163
   36POPC   H3S 4817   4.898   1.818  10.309 -3.9753 -0.3796 -1.9189
   36POPC   C24 4818   4.886   1.850  10.095 -0.0505  0.0920 -0.4602
   36POPC   H4R 4819   4.825   1.759  10.114  1.0450 -0.2935  1.5886
   36POPC   H4S 4820   4.975   1.821  10.035  0.1373  0.3211 -0.2947
   36POPC   C25 4821   4.813   1.958  10.019 -0.2784  0.1371 -0.0064
   36POPC   H5R 4822   4.885   2.041  10.002  0.3257 -0.5359 -0.8076
   36POPC   H5S 4823   4.726   1.995  10.078 -1.5787 -0.7054 -1.3380
   36POPC   C26 4824   4.750   1.910   9.881 -0.0176 -0.3951  0.4808
   36POPC   H6R 4825   4.688   1.818   9.886  0.3818 -0.7387 -0.5442
   36POPC   H6S 4826   4.838   1.884   9.818  1.0325 -0.7368  2.0332
   36POPC   C27 4827   4.680   2.032   9.807  0.3946  0.4644  0.1107
   36POPC   H7R 4828   4.734   2.127   9.827  2.6990 -0.7604  0.1348
   36POPC   H7S 4829   4.587   2.047   9.865  1.4767  1.5787  1.6289
   36POPC   C28 4830   4.663   2.021   9.659 -0.4087 -0.1493  0.3187
   36POPC   H8R 4831   4.767   2.014   9.619 -0.6611 -0.4757 -0.2924
   36POPC   H8S 4832   4.620   2.113   9.614  2.4763  1.7716  1.1607
   36POPC   C29 4833   4.581   1.902   9.615  0.1166  0.4484  0.4376
   36POPC   H91 4834   4.474   1.904   9.643 -0.0612 -0.6034 -0.1074
   36POPC  C210 4835   4.629   1.796   9.551  0.0922 -0.0058  0.0932
   36POPC  H101 4836   4.564   1.710   9.531  1.7101 -1.3963  0.5795
   36POPC  C211 4837   4.772   1.770   9.518  0.3871 -0.2354 -0.4688
   36POPC  H11R 4838   4.809   1.695   9.591 -0.6426  0.4039  0.7425
   36POPC  H11S 4839   4.842   1.853   9.539  0.4413 -0.6868  1.2288
   36POPC  C212 4840   4.783   1.712   9.373 -0.1797  0.4178 -0.3421
   36POPC  H12R 4841   4.731   1.614   9.378  0.6713  0.0129  2.9400
   36POPC  H12S 4842   4.892   1.691   9.373 -0.0766 -0.0112  3.9208
   36POPC  C213 4843   4.739   1.800   9.262  1.3160  0.3047  0.7562
   36POPC  H13R 4844   4.788   1.898   9.281  0.0028  1.3943 -1.1641
   36POPC  H13S 4845   4.630   1.815   9.246  1.5249 -0.3466 -1.5723
   36POPC  C214 4846   4.797   1.740   9.126  0.2480 -0.2505  0.2906
   36POPC  H14R 4847   4.741   1.648   9.098  0.0611 -0.1416  0.2998
   36POPC  H14S 4848   4.894   1.690   9.146  0.8257  1.0324  0.7641
   36POPC  C215 4849   4.810   1.842   9.009 -0.6168  0.6161  1.0012
   36POPC  H15R 4850   4.847   1.934   9.058  0.7070  0.4085  0.4527
   36POPC  H15S 4851   4.712   1.874   8.966  0.0735  1.9934  0.3833
   36POPC  C216 4852   4.912   1.797   8.904 -0.5679 -0.0232  0.4129
   36POPC  H16R 4853   5.007   1.774   8.955 -0.8424 -0.6999  0.6348
   36POPC  H16S 4854   4.927   1.884   8.837  1.7020 -0.5706  0.1541
   36POPC  C217 4855   4.868   1.674   8.828 -0.1882  0.6541  0.2584
   36POPC  H17R 4856   4.763   1.695   8.797 -0.5855 -1.1119  0.2489
   36POPC  H17S 4857   4.876   1.583   8.892  0.2017 -0.1210 -0.8449
   36POPC  C218 4858   4.966   1.643   8.707  0.7367  0.2246 -0.2617
   36POPC  H18R 4859   4.934   1.548   8.660  0.4881 -0.7339  1.7464
   36POPC  H18S 4860   5.070   1.639   8.744  0.0866  0.3001  1.7005
   36POPC  H18T 4861   4.974   1.715   8.623 -0.9295  0.3570 -0.3338
   36POPC   C33 4862   5.622   1.591  10.237 -0.0220 -0.3232 -0.2460
   36POPC   H3X 4863   5.597   1.486  10.211 -3.7640 -0.0874  1.7134
   36POPC   H3Y 4864   5.703   1.592  10.314 -0.6171  0.1625  0.3978
   36POPC   C34 4865   5.685   1.642  10.105  0.2457  0.0972  0.2211
   36POPC   H4X 4866   5.780   1.586  10.090  1.0612  1.6314 -0.6468
   36POPC   H4Y 4867   5.702   1.751  10.115  0.9349 -0.0751  1.0724
   36POPC   C35 4868   5.594   1.612   9.983  0.4380 -0.1308 -0.1178
   36POPC   H5X 4869   5.505   1.679   9.979  0.9559  0.5742 -0.0200
   36POPC   H5Y 4870   5.558   1.508   9.999 -0.1942  0.1993  0.6837
   36POPC   C36 4871   5.672   1.621   9.852  0.1211  0.9077 -0.2036
   36POPC   H6X 4872   5.760   1.553   9.853  0.9571  1.9514 -0.1326
   36POPC   H6Y 4873   5.727   1.718   9.848  0.6583  0.5822 -3.5921
   36POPC   C37 4874   5.586   1.592   9.726 -0.3919  0.1560 -0.3025
   36POPC   H7X 4875   5.505   1.666   9.710 -0.3057  0.1622 -0.7299
   36POPC   H7Y 4876   5.541   1.492   9.745 -3.8119  1.6619  0.1422
   36POPC   C38 4877   5.676   1.588   9.597  0.2639  0.6667  0.2987
   36POPC   H8X 4878   5.761   1.517   9.608  0.5096  0.8601 -0.3079
   36POPC   H8Y 4879   5.707   1.693   9.580 -1.2618  1.0834 -0.0790
   36POPC   C39 4880   5.586   1.552   9.471 -0.6720  0.6958  0.5896
   36POPC   H9X 4881   5.505   1.628   9.476 -0.0973  1.3019  0.9724
   36POPC   H9Y 4882   5.552   1.449   9.495  0.1134  0.2954  0.0415
   36POPC  C310 4883   5.649   1.542   9.329  0.5607 -0.1506  0.1251
   36POPC  H10X 4884   5.728   1.465   9.316  2.0489  1.5921 -1.6145
   36POPC  H10Y 4885   5.701   1.638   9.312  2.2781 -1.2146 -0.8815
   36POPC  C311 4886   5.558   1.519   9.213 -0.1816  0.1200 -0.0475
   36POPC  H11X 4887   5.468   1.583   9.218  0.6472  1.2357  1.2629
   36POPC  H11Y 4888   5.526   1.413   9.218 -0.2339  0.1031 -0.6496
   36POPC  C312 4889   5.639   1.544   9.082  0.0184  0.6648  0.2513
   36POPC  H12X 4890   5.718   1.466   9.081 -2.2875 -1.8167  0.4985
   36POPC  H12Y 4891   5.669   1.651   9.081 -0.4706  0.8056  0.5087
   36POPC  C313 4892   5.554   1.526   8.955  0.4794 -0.1371  0.4330
   36POPC  H13X 4893   5.520   1.420   8.945  0.5024 -0.1263  0.2366
   36POPC  H13Y 4894   5.612   1.546   8.863 -0.3913 -1.7912 -0.5342
   36POPC  C314 4895   5.428   1.613   8.956 -0.8374 -0.4086 -0.0542
   36POPC  H14X 4896   5.444   1.719   8.985 -1.6531  0.3089 -2.0283
   36POPC  H14Y 4897   5.348   1.570   9.020 -0.7174 -4.5162 -2.2870
   36POPC  C315 4898   5.362   1.614   8.811  0.0097  0.1758  0.3675
   36POPC  H15X 4899   5.443   1.643   8.741 -1.5165  2.2760 -0.6035
   36POPC  H15Y 4900   5.291   1.698   8.809  1.4931  1.4694 -1.3981
   36POPC  C316 4901   5.300   1.483   8.781 -0.2748  0.8035  1.0144
   36POPC  H16X 4902   5.372   1.399   8.772 -1.5669 -0.1178 -2.5839
   36POPC  H16Y 4903   5.231   1.485   8.694  0.3783 -4.5436 -0.0004
   36POPC  H16Z 4904   5.241   1.449   8.869  1.1877 -4.6434  0.2889
   37POPC     N 4905   2.262   2.226   6.282  0.1760 -0.1897 -0.1227
   37POPC   C12 4906   2.267   2.377   6.301 -0.2198  0.4680 -0.0121
   37POPC  H12A 4907   2.180   2.424   6.257 -1.3907  1.9703  3.5066
   37POPC  H12B 4908   2.358   2.416   6.258 -0.1646 -1.6208 -1.9715
   37POPC   C13 4909   2.292   2.191   6.139 -0.4075 -0.3813 -0.8294
   37POPC  H13A 4910   2.368   2.252   6.093  0.5606 -2.3200 -1.9142
   37POPC  H13B 4911   2.321   2.087   6.126  0.7155 -0.2011  0.0776
   37POPC  H13C 4912   2.203   2.212   6.082 -1.1733  1.1944  0.8494
   37POPC   C14 4913   2.373   2.167   6.362 -0.3555  0.6967 -0.1149
   37POPC  H14A 4914   2.380   2.059   6.352  3.0867  0.9659 -2.5685
   37POPC  H14B 4915   2.466   2.217   6.337 -1.7880  3.3608 -0.3618
   37POPC  H14C 4916   2.355   2.190   6.465  0.5490  1.0678 -0.0316
   37POPC   C15 4917   2.134   2.164   6.320 -0.3582  0.2475 -0.2993
   37POPC  H15A 4918   2.142   2.057   6.328 -1.0364  0.3079  1.4406
   37POPC  H15B 4919   2.061   2.198   6.247 -2.0360 -0.3272  1.0465
   37POPC  H15C 4920   2.112   2.190   6.422  1.6677 -0.5387  0.3861
   37POPC   C11 4921   2.272   2.431   6.448 -0.0122 -0.3457  0.1145
   37POPC  H11A 4922   2.198   2.366   6.498 -0.7507 -0.2776 -0.8581
   37POPC  H11B 4923   2.235   2.535   6.459 -0.5055 -0.6952  2.1425
   37POPC     P 4924   2.495   2.541   6.492  0.1792 -0.0669 -0.0073
   37POPC   O13 4925   2.424   2.670   6.524  0.7988  0.4403 -0.0343
   37POPC   O14 4926   2.560   2.537   6.359  0.4265  0.3614  0.4480
   37POPC   O12 4927   2.398   2.418   6.503 -0.0377  0.8845  0.7326
   37POPC   O11 4928   2.606   2.517   6.596 -0.5642  0.1932 -0.6924
   37POPC    C1 4929   2.591   2.448   6.718  0.4592 -0.3749  0.3986
   37POPC    HA 4930   2.686   2.451   6.775 -0.5112 -0.5078  2.1079
   37POPC    HB 4931   2.566   2.341   6.704 -0.9842  0.0564 -0.5657
   37POPC    C2 4932   2.487   2.513   6.811  0.4770 -0.6640  0.3147
   37POPC    HS 4933   2.394   2.520   6.749 -1.2768  1.7485  2.9536
   37POPC   O21 4934   2.530   2.644   6.858  0.0469  0.3478  0.4136
   37POPC   C21 4935   2.431   2.729   6.868 -0.1417 -0.2424 -0.0186
   37POPC   O22 4936   2.313   2.712   6.840 -0.4202 -0.1555  0.0342
   37POPC   C22 4937   2.486   2.849   6.938 -0.0203 -0.6003 -0.5923
   37POPC   H2R 4938   2.543   2.921   6.876 -0.1829 -0.8840 -1.0685
   37POPC   H2S 4939   2.568   2.808   7.003  0.3617  0.3035 -0.4876
   37POPC    C3 4940   2.440   2.433   6.929 -0.3361 -0.3899  0.5220
   37POPC    HX 4941   2.402   2.340   6.882  0.3957  1.4312 -4.2200
   37POPC    HY 4942   2.345   2.479   6.965 -0.9424  0.2367 -1.7410
   37POPC   O31 4943   2.537   2.412   7.034 -0.1723 -0.2785  0.2450
   37POPC   C31 4944   2.530   2.494   7.140  0.2640 -0.5969 -0.0522
   37POPC   O32 4945   2.447   2.576   7.160  0.0604 -0.7791 -0.3067
   37POPC   C32 4946   2.640   2.467   7.234  0.6004  0.4541  0.6758
   37POPC   H2X 4947   2.738   2.448   7.184 -0.1769  2.3015 -1.7049
   37POPC   H2Y 4948   2.616   2.368   7.277 -1.6269  0.5381 -0.2393
   37POPC   C23 4949   2.386   2.921   7.028  0.7978  0.0051  0.0789
   37POPC   H3R 4950   2.355   2.869   7.122 -1.6279  0.9020 -0.1375
   37POPC   H3S 4951   2.291   2.937   6.973  0.0399  0.8192  1.5513
   37POPC   C24 4952   2.449   3.048   7.092 -0.0210  0.1138  0.1427
   37POPC   H4R 4953   2.481   3.117   7.011  1.7029  0.2429  0.8879
   37POPC   H4S 4954   2.541   3.013   7.146  0.4608  0.1955 -0.6084
   37POPC   C25 4955   2.355   3.116   7.188 -0.8523  0.5021 -0.3017
   37POPC   H5R 4956   2.311   3.033   7.248 -1.9853  1.1099 -0.2702
   37POPC   H5S 4957   2.269   3.163   7.136 -1.7039  0.1547  0.7633
   37POPC   C26 4958   2.411   3.226   7.276 -0.5768  0.4095 -0.2428
   37POPC   H6R 4959   2.386   3.324   7.230  0.9044  1.3629  0.8763
   37POPC   H6S 4960   2.520   3.206   7.268 -0.2530  0.5601  2.7531
   37POPC   C27 4961   2.369   3.230   7.427 -0.4221 -0.4172  0.1542
   37POPC   H7R 4962   2.395   3.132   7.473  1.5365  1.2540  2.8975
   37POPC   H7S 4963   2.259   3.238   7.440 -0.6461 -2.5999  0.0358
   37POPC   C28 4964   2.428   3.346   7.512 -0.1022 -0.2536 -0.8226
   37POPC   H8R 4965   2.355   3.428   7.527  1.7361  1.1895  0.8640
   37POPC   H8S 4966   2.492   3.407   7.445  1.7930 -2.2418 -0.9476
   37POPC   C29 4967   2.497   3.305   7.636  0.1067 -0.0651 -0.6323
   37POPC   H91 4968   2.562   3.217   7.624 -0.0984 -0.1965 -0.7916
   37POPC  C210 4969   2.475   3.348   7.760  0.2665 -0.3548  0.4211
   37POPC  H101 4970   2.539   3.316   7.844  0.1788 -0.7417  0.3421
   37POPC  C211 4971   2.380   3.448   7.810  0.3475 -0.3389 -0.1488
   37POPC  H11R 4972   2.316   3.495   7.732  2.6541  1.8870 -0.8410
   37POPC  H11S 4973   2.433   3.529   7.864  0.3720 -0.5248  0.1078
   37POPC  C212 4974   2.284   3.393   7.922 -0.1244 -0.2241  0.5028
   37POPC  H12R 4975   2.220   3.312   7.880 -0.4538 -0.9473  2.2828
   37POPC  H12S 4976   2.216   3.477   7.949 -1.0758 -1.3899  1.9592
   37POPC  C213 4977   2.353   3.346   8.052 -0.4756  0.2330 -0.5564
   37POPC  H13R 4978   2.408   3.430   8.100 -1.1990  0.4273 -0.0560
   37POPC  H13S 4979   2.420   3.260   8.031 -0.2272  0.0003  1.0692
   37POPC  C214 4980   2.251   3.296   8.151  0.0935 -0.1368 -0.4031
   37POPC  H14R 4981   2.201   3.217   8.091  0.1287  0.6898 -1.5468
   37POPC  H14S 4982   2.179   3.377   8.175  1.4610  0.6147  1.4270
   37POPC  C215 4983   2.314   3.256   8.277  0.1870  0.3352 -0.3931
   37POPC  H15R 4984   2.377   3.339   8.315  2.6831 -0.9364 -1.5787
   37POPC  H15S 4985   2.386   3.172   8.271  1.1013  1.1096 -0.3479
   37POPC  C216 4986   2.203   3.229   8.386 -0.2640 -0.2474  0.2986
   37POPC  H16R 4987   2.127   3.160   8.344  2.1726 -2.2347 -1.1465
   37POPC  H16S 4988   2.155   3.329   8.398  2.5535  1.5043 -1.6470
   37POPC  C217 4989   2.262   3.187   8.521 -0.5283  0.3872  0.1577
   37POPC  H17R 4990   2.339   3.111   8.498 -0.0666  1.0456 -0.5399
   37POPC  H17S 4991   2.185   3.159   8.596  0.9339  0.3048  1.6994
   37POPC  C218 4992   2.337   3.302   8.596  0.6037  0.4441  0.2585
   37POPC  H18R 4993   2.345   3.289   8.706  0.6836 -0.9992  0.1005
   37POPC  H18S 4994   2.279   3.396   8.585  0.7910  0.4397 -0.8100
   37POPC  H18T 4995   2.440   3.325   8.561 -0.0552  3.3613  0.0025
   37POPC   C33 4996   2.659   2.586   7.336 -0.0747 -0.6585 -0.0801
   37POPC   H3X 4997   2.562   2.595   7.390 -1.2253  1.7860 -2.3424
   37POPC   H3Y 4998   2.683   2.679   7.281  1.2563 -2.1280 -2.1614
   37POPC   C34 4999   2.777   2.562   7.427  0.6719  0.2130  0.2169
   37POPC   H4X 5000   2.867   2.535   7.368  0.0028 -3.6071  0.6884
   37POPC   H4Y 5001   2.752   2.468   7.482 -1.5053  0.0763 -0.9137
   37POPC   C35 5002   2.805   2.678   7.523 -0.6149  0.2639 -0.1263
   37POPC   H5X 5003   2.709   2.719   7.562  0.7897  2.8334  0.9297
   37POPC   H5Y 5004   2.854   2.763   7.471  0.7218  0.3601  1.2391
   37POPC   C36 5005   2.907   2.637   7.637  0.1028  0.1477  0.1408
   37POPC   H6X 5006   2.966   2.723   7.674  0.7788 -0.9424  1.7062
   37POPC   H6Y 5007   2.981   2.565   7.594 -0.5051  0.8920 -2.2801
   37POPC   C37 5008   2.847   2.585   7.767  0.0937 -0.1697  0.4895
   37POPC   H7X 5009   2.832   2.476   7.779 -2.9622  0.2669  1.6709
   37POPC   H7Y 5010   2.742   2.621   7.767  0.5638  1.2902  1.3436
   37POPC   C38 5011   2.915   2.643   7.895 -0.6265  0.0078 -0.4474
   37POPC   H8X 5012   2.916   2.753   7.882 -1.5154 -0.1895 -2.8449
   37POPC   H8Y 5013   3.017   2.599   7.899 -0.8444 -0.4291  0.6235
   37POPC   C39 5014   2.849   2.614   8.029 -0.7129  0.7040 -0.5126
   37POPC   H9X 5015   2.749   2.660   8.017 -1.4793 -1.1224 -1.5194
   37POPC   H9Y 5016   2.914   2.670   8.099  0.7073 -1.0935 -0.3142
   37POPC  C310 5017   2.846   2.465   8.056 -0.7316  0.0789  0.3126
   37POPC  H10X 5018   2.946   2.420   8.037 -0.9706  0.2492 -1.5597
   37POPC  H10Y 5019   2.768   2.415   7.994 -1.2731 -1.7792  2.3901
   37POPC  C311 5020   2.799   2.432   8.203 -0.5309  0.4674 -0.1616
   37POPC  H11X 5021   2.788   2.321   8.210  0.1602  0.4060  0.0378
   37POPC  H11Y 5022   2.695   2.468   8.214 -0.2908  1.5498 -1.2386
   37POPC  C312 5023   2.876   2.503   8.314  0.5069 -0.3179 -0.5904
   37POPC  H12X 5024   2.865   2.611   8.289 -0.8389 -0.0908  0.8379
   37POPC  H12Y 5025   2.984   2.477   8.308  1.0381  1.8665 -1.3195
   37POPC  C313 5026   2.814   2.464   8.451 -0.2802 -0.6021  0.8560
   37POPC  H13X 5027   2.706   2.439   8.442 -0.1208 -1.5790  1.5199
   37POPC  H13Y 5028   2.812   2.555   8.514 -1.0112  2.8258 -3.6379
   37POPC  C314 5029   2.893   2.357   8.514  0.6073  0.0032 -0.3205
   37POPC  H14X 5030   2.992   2.403   8.531 -0.3372  2.0183  0.0104
   37POPC  H14Y 5031   2.910   2.267   8.451 -0.3947 -0.0580 -0.5251
   37POPC  C315 5032   2.833   2.323   8.659  0.7342  1.0094 -0.2007
   37POPC  H15X 5033   2.744   2.258   8.671  1.5087  0.2034  1.5043
   37POPC  H15Y 5034   2.805   2.416   8.712  0.0741 -0.3680  2.0131
   37POPC  C316 5035   2.941   2.250   8.738  0.4030  0.3699  0.6471
   37POPC  H16X 5036   2.894   2.219   8.834  1.4919  1.0342  1.4133
   37POPC  H16Y 5037   3.024   2.320   8.763  0.6456  0.2678  0.1447
   37POPC  H16Z 5038   2.978   2.155   8.695  0.5475 -0.2618  2.0943
   38POPC     N 5039   4.640   6.046   6.073  0.3838 -0.6710 -0.2194
   38POPC   C12 5040   4.647   5.991   6.213 -0.5000  0.2498 -0.4936
   38POPC  H12A 5041   4.695   6.061   6.280 -1.1140  1.1927 -1.0149
   38POPC  H12B 5042   4.714   5.907   6.218  0.1750  0.6923 -1.7311
   38POPC   C13 5043   4.561   6.173   6.077 -0.1962  0.0553  1.4955
   38POPC  H13A 5044   4.460   6.156   6.114 -0.1535 -0.2869  1.4566
   38POPC  H13B 5045   4.612   6.240   6.145 -2.9158  1.1597  2.6091
   38POPC  H13C 5046   4.542   6.200   5.975  2.0915 -0.8483  0.7729
   38POPC   C14 5047   4.773   6.079   6.015 -0.4810  0.0809 -0.1783
   38POPC  H14A 5048   4.772   6.141   5.927  0.6710 -0.2039 -0.4093
   38POPC  H14B 5049   4.834   6.124   6.092  0.9312 -0.5389 -0.9088
   38POPC  H14C 5050   4.818   5.986   5.985 -1.2521  0.2529 -1.9699
   38POPC   C15 5051   4.586   5.947   5.980 -0.5767  0.2757 -0.1498
   38POPC  H15A 5052   4.671   5.889   5.947 -0.7134  0.6158 -1.1291
   38POPC  H15B 5053   4.559   5.995   5.887  0.6161 -0.2969 -0.8137
   38POPC  H15C 5054   4.493   5.906   6.016 -0.8373  0.6656 -0.3617
   38POPC   C11 5055   4.514   5.935   6.272 -0.4562  0.0941 -0.4693
   38POPC  H11A 5056   4.442   6.018   6.255 -0.0028  0.4468 -0.6971
   38POPC  H11B 5057   4.533   5.933   6.381  0.5244  2.5029 -0.5322
   38POPC     P 5058   4.322   5.751   6.218  0.4455  0.0576 -0.3168
   38POPC   O13 5059   4.319   5.627   6.292  0.5643 -0.1660 -0.0489
   38POPC   O14 5060   4.264   5.747   6.081  0.1902 -0.4024  0.1959
   38POPC   O12 5061   4.470   5.815   6.215  0.1185  0.1263  1.0777
   38POPC   O11 5062   4.246   5.854   6.314 -0.4575  0.1034  0.1544
   38POPC    C1 5063   4.136   5.814   6.403  0.0084  0.3040  0.3548
   38POPC    HA 5064   4.117   5.705   6.398  1.5058  0.0827 -2.9651
   38POPC    HB 5065   4.043   5.867   6.373  0.9111  1.0530 -1.2632
   38POPC    C2 5066   4.156   5.846   6.554 -0.1741 -0.2750 -0.4708
   38POPC    HS 5067   4.077   5.787   6.603  0.8473 -2.7469 -1.5983
   38POPC   O21 5068   4.150   5.986   6.592 -0.8374  0.1417  0.1040
   38POPC   C21 5069   4.028   6.044   6.584  0.2379  0.5901 -1.1473
   38POPC   O22 5070   3.927   5.981   6.569  0.2591  0.5146 -0.5802
   38POPC   C22 5071   4.032   6.190   6.600  0.1782  0.3651  0.0881
   38POPC   H2R 5072   3.974   6.232   6.516  1.4006 -0.0667 -1.0171
   38POPC   H2S 5073   4.134   6.226   6.573  1.0048 -0.5876  1.7668
   38POPC    C3 5074   4.289   5.790   6.608 -0.4167  0.4242 -0.1415
   38POPC    HX 5075   4.371   5.847   6.558 -1.4335  1.4689 -0.6799
   38POPC    HY 5076   4.294   5.683   6.580 -1.1527  0.4051 -0.2302
   38POPC   O31 5077   4.294   5.802   6.750  0.6295  0.1080  0.3967
   38POPC   C31 5078   4.355   5.906   6.801  0.2719 -0.3197 -0.3190
   38POPC   O32 5079   4.406   5.996   6.744 -0.1457 -0.1094  0.3138
   38POPC   C32 5080   4.363   5.887   6.954  0.8962 -0.2537  0.5152
   38POPC   H2X 5081   4.412   5.788   6.967 -1.5172 -1.4479  1.0037
   38POPC   H2Y 5082   4.257   5.876   6.986  1.1430 -3.6134  0.4558
   38POPC   C23 5083   3.991   6.235   6.743 -0.5802 -0.7976 -0.0215
   38POPC   H3R 5084   3.884   6.204   6.755 -0.9123  0.2306 -0.2237
   38POPC   H3S 5085   3.993   6.346   6.747  1.0799 -0.7494 -1.1872
   38POPC   C24 5086   4.066   6.182   6.862 -0.0802  0.0369 -0.1514
   38POPC   H4R 5087   4.172   6.214   6.867  0.5062 -1.7124 -0.6985
   38POPC   H4S 5088   4.070   6.071   6.859  0.0796  0.0325  0.1751
   38POPC   C25 5089   3.997   6.223   6.999 -0.3632 -0.7041 -0.5967
   38POPC   H5R 5090   3.901   6.168   7.010 -0.4352 -0.2516  1.2604
   38POPC   H5S 5091   3.988   6.333   7.008  3.2218 -0.0351 -2.9917
   38POPC   C26 5092   4.080   6.173   7.119  0.0290 -0.1720  0.1954
   38POPC   H6R 5093   4.172   6.231   7.141  1.5812 -2.8740  1.3262
   38POPC   H6S 5094   4.113   6.068   7.109  2.2994 -0.2163  5.2986
   38POPC   C27 5095   3.993   6.167   7.247 -0.0032  0.0576  0.8850
   38POPC   H7R 5096   3.900   6.120   7.211  2.0230 -1.5836 -2.8248
   38POPC   H7S 5097   3.978   6.274   7.274  0.4770  0.5241 -0.5923
   38POPC   C28 5098   4.053   6.081   7.366  0.8988  0.2186 -0.2491
   38POPC   H8R 5099   4.135   6.145   7.406 -0.2092  0.7322  1.3104
   38POPC   H8S 5100   4.086   5.986   7.319  0.2906  0.7536 -1.8347
   38POPC   C29 5101   3.952   6.044   7.467  0.3959  0.6775  0.1887
   38POPC   H91 5102   3.860   5.998   7.428 -0.0303  1.7123 -0.0486
   38POPC  C210 5103   3.976   6.039   7.600 -0.8656 -0.2850  1.1575
   38POPC  H101 5104   3.907   5.987   7.669 -0.3908 -1.5455  0.7150
   38POPC  C211 5105   4.104   6.090   7.673  0.6021 -0.0953  0.4918
   38POPC  H11R 5106   4.132   6.190   7.634 -4.8919  1.9581  0.8817
   38POPC  H11S 5107   4.187   6.025   7.639  0.5513 -0.6987  1.4613
   38POPC  C212 5108   4.075   6.107   7.819  0.0746  0.3586 -0.5032
   38POPC  H12R 5109   4.034   6.012   7.859 -2.9953  0.7216 -2.4506
   38POPC  H12S 5110   3.997   6.185   7.835 -1.4231 -1.2489  0.4399
   38POPC  C213 5111   4.201   6.137   7.897 -1.0683  0.2695 -0.1019
   38POPC  H13R 5112   4.248   6.231   7.860  1.0351 -0.0494  1.5471
   38POPC  H13S 5113   4.275   6.054   7.901  0.1154  1.3159  3.9328
   38POPC  C214 5114   4.179   6.158   8.049 -0.0064 -0.0043 -0.0565
   38POPC  H14R 5115   4.177   6.053   8.086 -2.6069 -0.1658 -0.4798
   38POPC  H14S 5116   4.083   6.212   8.066 -0.5899 -0.0301 -2.8995
   38POPC  C215 5117   4.289   6.219   8.127  0.4026 -0.2960  0.7811
   38POPC  H15R 5118   4.299   6.329   8.114 -1.9688  0.0521  1.5191
   38POPC  H15S 5119   4.383   6.175   8.087  0.2396  1.2448 -1.4713
   38POPC  C216 5120   4.273   6.188   8.279 -0.1620 -0.5403  0.7018
   38POPC  H16R 5121   4.296   6.079   8.284 -3.1252 -1.2980 -0.2423
   38POPC  H16S 5122   4.170   6.220   8.304 -1.4735 -1.2358 -3.1616
   38POPC  C217 5123   4.380   6.256   8.358  0.1388  1.1489 -0.4418
   38POPC  H17R 5124   4.473   6.224   8.305 -1.5353 -0.4492 -2.6082
   38POPC  H17S 5125   4.383   6.213   8.461 -0.4581  1.7250 -0.1790
   38POPC  C218 5126   4.366   6.410   8.368 -0.2776 -0.5434 -0.4417
   38POPC  H18R 5127   4.433   6.454   8.445 -2.2278  2.2445 -0.1811
   38POPC  H18S 5128   4.262   6.447   8.386  0.4990  1.8151 -0.5981
   38POPC  H18T 5129   4.392   6.458   8.272 -0.5942  0.1740 -0.1738
   38POPC   C33 5130   4.417   6.004   7.038 -0.1832  0.8983  0.0191
   38POPC   H3X 5131   4.364   6.100   7.017 -2.4667 -0.7229 -2.3010
   38POPC   H3Y 5132   4.523   6.023   7.014 -0.6165  2.7282 -0.6541
   38POPC   C34 5133   4.410   5.979   7.189 -0.0442  0.2218  0.5190
   38POPC   H4X 5134   4.457   5.882   7.216 -0.2460  0.5964  2.3115
   38POPC   H4Y 5135   4.303   5.975   7.218 -0.5815  0.4784 -1.2510
   38POPC   C35 5136   4.464   6.100   7.272  0.3992 -0.3857  0.8831
   38POPC   H5X 5137   4.379   6.170   7.261  0.1724 -0.6751  0.7870
   38POPC   H5Y 5138   4.551   6.137   7.213 -1.0067  0.9625 -0.4467
   38POPC   C36 5139   4.490   6.054   7.416 -0.0084  0.6135 -0.3647
   38POPC   H6X 5140   4.569   5.977   7.401 -1.1315 -0.6881  0.2405
   38POPC   H6Y 5141   4.399   6.000   7.451 -0.9397  1.0025 -2.0586
   38POPC   C37 5142   4.518   6.164   7.513 -0.0400  0.9428 -0.1249
   38POPC   H7X 5143   4.431   6.230   7.529  0.6215  1.7584  0.1567
   38POPC   H7Y 5144   4.611   6.220   7.488  0.5634 -1.5211 -4.5676
   38POPC   C38 5145   4.544   6.111   7.654 -0.0144 -0.5057 -0.7591
   38POPC   H8X 5146   4.634   6.046   7.652 -0.8208 -1.6544 -0.3811
   38POPC   H8Y 5147   4.461   6.048   7.692 -1.9661  0.8182 -2.6028
   38POPC   C39 5148   4.583   6.222   7.753  0.3200  0.1171  0.4808
   38POPC   H9X 5149   4.499   6.292   7.771 -0.6628 -0.6953 -0.7881
   38POPC   H9Y 5150   4.669   6.280   7.711 -0.5977  1.1253 -0.0497
   38POPC  C310 5151   4.619   6.154   7.890 -0.4530  0.0897 -0.4896
   38POPC  H10X 5152   4.667   6.055   7.876 -0.6807 -0.3724  1.6675
   38POPC  H10Y 5153   4.525   6.137   7.947 -0.0013 -0.7845  0.0179
   38POPC  C311 5154   4.714   6.239   7.971  0.6649 -0.4039  0.3183
   38POPC  H11X 5155   4.663   6.331   8.008 -0.3235  0.4484 -2.8600
   38POPC  H11Y 5156   4.804   6.265   7.912  1.0712 -1.5385  0.4064
   38POPC  C312 5157   4.756   6.149   8.094 -0.5561  0.7497 -0.0217
   38POPC  H12X 5158   4.817   6.068   8.048 -3.2785 -0.2956 -2.0812
   38POPC  H12Y 5159   4.668   6.091   8.129 -1.7842  0.7418 -2.8110
   38POPC  C313 5160   4.834   6.220   8.203 -0.0783 -0.2068  0.0191
   38POPC  H13X 5161   4.908   6.290   8.160  1.2566 -1.5395  0.0623
   38POPC  H13Y 5162   4.902   6.148   8.254 -1.0315 -0.6431  0.7176
   38POPC  C314 5163   4.746   6.287   8.310  0.5083  0.0652  0.1668
   38POPC  H14X 5164   4.683   6.204   8.350 -0.7952  0.4262 -1.0578
   38POPC  H14Y 5165   4.690   6.370   8.262  3.9528  3.1831  1.0945
   38POPC  C315 5166   4.815   6.358   8.425  0.2201  0.0370  0.3957
   38POPC  H15X 5167   4.879   6.444   8.395  0.1553 -0.2023 -0.4590
   38POPC  H15Y 5168   4.874   6.280   8.478 -1.5670 -1.9337 -0.3705
   38POPC  C316 5169   4.702   6.397   8.521  0.2192  0.3613  0.1153
   38POPC  H16X 5170   4.741   6.424   8.621  1.5441 -0.7101 -0.0746
   38POPC  H16Y 5171   4.641   6.307   8.543  0.2966  0.3537  0.2957
   38POPC  H16Z 5172   4.639   6.475   8.474  0.9720  0.4307 -0.8094
   39POPC     N 5173   6.317   4.999   5.995  0.3480  0.2433  0.2567
   39POPC   C12 5174   6.467   4.975   6.026 -0.5671 -0.6245 -0.0815
   39POPC  H12A 5175   6.523   4.936   5.942  2.3305 -1.1285  1.9263
   39POPC  H12B 5176   6.457   4.896   6.099 -1.7213 -0.2481  0.1798
   39POPC   C13 5177   6.293   5.106   5.891  0.1298 -0.2964  0.3060
   39POPC  H13A 5178   6.193   5.095   5.853  0.0074  1.7975 -0.0839
   39POPC  H13B 5179   6.302   5.206   5.932 -3.6102 -0.3357  1.6142
   39POPC  H13C 5180   6.354   5.087   5.804 -0.7523 -0.1663 -0.3534
   39POPC   C14 5181   6.251   4.872   5.961  0.2136 -0.1288  0.1805
   39POPC  H14A 5182   6.265   4.795   6.035  0.6163 -1.3460 -1.1252
   39POPC  H14B 5183   6.145   4.880   5.941  0.3496  0.2111 -0.4227
   39POPC  H14C 5184   6.290   4.827   5.871 -2.3372  1.6009 -1.9612
   39POPC   C15 5185   6.248   5.056   6.117 -0.5032 -0.4649  0.4206
   39POPC  H15A 5186   6.274   5.161   6.119  2.3694 -1.0915  1.1444
   39POPC  H15B 5187   6.289   5.006   6.203 -0.4443 -0.3581  0.4544
   39POPC  H15C 5188   6.142   5.034   6.122 -0.4768 -0.4454  1.2299
   39POPC   C11 5189   6.544   5.094   6.093 -0.4153 -0.0293  0.1413
   39POPC  H11A 5190   6.487   5.156   6.165 -0.1054 -0.5118  0.8110
   39POPC  H11B 5191   6.554   5.160   6.004 -0.1991 -1.5164 -0.9829
   39POPC     P 5192   6.680   4.959   6.280 -0.0819 -0.1118  0.2752
   39POPC   O13 5193   6.818   4.921   6.305 -0.6489 -0.1515  0.1723
   39POPC   O14 5194   6.576   4.848   6.274 -0.0804 -0.3852  0.2053
   39POPC   O12 5195   6.673   5.047   6.149 -0.0947 -0.4202  0.1096
   39POPC   O11 5196   6.628   5.059   6.390  0.1029 -1.4588  0.4238
   39POPC    C1 5197   6.719   5.113   6.486 -0.1425  0.6894  0.5273
   39POPC    HA 5198   6.684   5.200   6.545  1.5364  1.9302 -0.2147
   39POPC    HB 5199   6.809   5.154   6.434  0.5286  2.2932  2.8010
   39POPC    C2 5200   6.750   5.017   6.605  0.4235  0.2881  0.4046
   39POPC    HS 5201   6.814   4.935   6.565  1.1890 -0.0542  2.2080
   39POPC   O21 5202   6.628   4.962   6.661  0.3679  0.5524  0.3851
   39POPC   C21 5203   6.604   4.837   6.627 -0.8443  0.4551  0.3147
   39POPC   O22 5204   6.674   4.771   6.554  0.1365  0.2975 -0.7058
   39POPC   C22 5205   6.467   4.795   6.692  0.0011 -0.2121 -0.4320
   39POPC   H2R 5206   6.388   4.802   6.614 -0.8954 -0.5610  0.4191
   39POPC   H2S 5207   6.438   4.866   6.773 -2.2643 -2.1653  0.5853
   39POPC    C3 5208   6.839   5.087   6.712 -0.7613  0.0551  0.2595
   39POPC    HX 5209   6.790   5.177   6.754 -0.9983  0.0503 -0.0075
   39POPC    HY 5210   6.933   5.114   6.659  0.3177 -0.1929  1.9660
   39POPC   O31 5211   6.869   4.999   6.828 -0.3829 -0.0421 -0.0134
   39POPC   C31 5212   6.982   4.936   6.832  0.2772  0.6329 -0.1293
   39POPC   O32 5213   7.075   4.950   6.756 -0.0997 -0.5979 -0.0727
   39POPC   C32 5214   6.979   4.831   6.943  0.4566  0.0350 -0.2519
   39POPC   H2X 5215   6.877   4.792   6.961  0.2749  1.0976  1.1861
   39POPC   H2Y 5216   7.055   4.750   6.932 -0.1581 -1.1347  3.0448
   39POPC   C23 5217   6.458   4.651   6.746 -0.2132  0.1584 -0.0088
   39POPC   H3R 5218   6.468   4.582   6.660  3.9069 -2.6334  2.3981
   39POPC   H3S 5219   6.354   4.641   6.784  0.2534 -1.7074  0.8335
   39POPC   C24 5220   6.564   4.622   6.850  0.0724  0.2634 -0.3502
   39POPC   H4R 5221   6.658   4.587   6.801 -0.0978 -1.5868  0.5215
   39POPC   H4S 5222   6.537   4.524   6.896  0.3803 -0.7995 -2.3469
   39POPC   C25 5223   6.600   4.728   6.953 -0.0261  0.0816  0.1926
   39POPC   H5R 5224   6.637   4.823   6.910  2.4890 -0.2217  1.5085
   39POPC   H5S 5225   6.674   4.680   7.020  0.5924  1.1812  0.3217
   39POPC   C26 5226   6.479   4.756   7.057  0.2488  0.3858  0.1174
   39POPC   H6R 5227   6.420   4.661   7.061  3.0197 -1.4559 -0.2297
   39POPC   H6S 5228   6.411   4.824   7.001 -0.5068 -0.2811  0.1901
   39POPC   C27 5229   6.530   4.805   7.193 -0.4944  0.4041 -0.0551
   39POPC   H7R 5230   6.448   4.840   7.260 -0.3502  0.2132  0.2225
   39POPC   H7S 5231   6.598   4.891   7.172 -1.1183  1.3390  1.5825
   39POPC   C28 5232   6.611   4.709   7.274 -0.2977 -0.2544  0.0088
   39POPC   H8R 5233   6.620   4.761   7.372 -0.3358  1.0041 -0.6344
   39POPC   H8S 5234   6.713   4.720   7.233 -0.3602 -1.5908 -0.5707
   39POPC   C29 5235   6.575   4.566   7.274  0.0025 -0.0581  0.4976
   39POPC   H91 5236   6.575   4.514   7.177 -1.9234  0.3059  0.2639
   39POPC  C210 5237   6.557   4.490   7.382 -0.5567  0.1471  0.3980
   39POPC  H101 5238   6.532   4.384   7.367 -2.0187  0.6391 -0.9776
   39POPC  C211 5239   6.566   4.535   7.524 -0.2043 -0.3588  0.2925
   39POPC  H11R 5240   6.632   4.622   7.543 -2.9662  1.7484  0.7429
   39POPC  H11S 5241   6.598   4.450   7.588 -2.8819 -2.1584 -0.5613
   39POPC  C212 5242   6.424   4.583   7.569  0.9283  0.0281  0.7762
   39POPC  H12R 5243   6.350   4.499   7.564  0.8351  0.0793  1.2311
   39POPC  H12S 5244   6.398   4.665   7.500 -4.1714 -0.6967  1.4354
   39POPC  C213 5245   6.420   4.646   7.711 -0.4405 -0.2242 -0.0404
   39POPC  H13R 5246   6.509   4.710   7.730 -0.7373 -0.1238  1.0845
   39POPC  H13S 5247   6.423   4.560   7.782  2.9687  0.2193  0.5449
   39POPC  C214 5248   6.286   4.716   7.739 -0.6870  0.2107  0.4126
   39POPC  H14R 5249   6.199   4.651   7.715  0.4970 -2.0364  1.8568
   39POPC  H14S 5250   6.278   4.804   7.673 -0.8715 -0.5301 -0.5713
   39POPC  C215 5251   6.267   4.749   7.883 -0.3855 -0.4034  0.0477
   39POPC  H15R 5252   6.339   4.826   7.919 -0.9371  0.4325 -0.6108
   39POPC  H15S 5253   6.290   4.657   7.943 -0.1674  0.5931  1.5493
   39POPC  C216 5254   6.127   4.791   7.929 -0.2616  0.3309  0.0817
   39POPC  H16R 5255   6.059   4.714   7.889  0.1548  0.7967 -1.6156
   39POPC  H16S 5256   6.093   4.884   7.880 -0.8775 -0.2467 -0.6046
   39POPC  C217 5257   6.113   4.811   8.082  0.2485  0.0183 -0.4355
   39POPC  H17R 5258   6.197   4.876   8.114 -0.6474  0.7455  0.4989
   39POPC  H17S 5259   6.125   4.709   8.124  2.7619  0.7430  0.8108
   39POPC  C218 5260   5.985   4.877   8.127  0.3958  0.0108 -0.2079
   39POPC  H18R 5261   5.996   4.911   8.232 -0.8887 -1.4707  0.4456
   39POPC  H18S 5262   5.894   4.813   8.130 -0.1250  0.7402  0.1061
   39POPC  H18T 5263   5.953   4.965   8.066  1.3756  0.7212  0.2803
   39POPC   C33 5264   7.020   4.881   7.087 -0.0151 -0.2561  0.0331
   39POPC   H3X 5265   7.117   4.936   7.087 -0.2746  0.3034 -2.0414
   39POPC   H3Y 5266   7.037   4.802   7.162 -2.8494 -0.0180  1.0650
   39POPC   C34 5267   6.920   4.981   7.149 -0.1505 -0.6190 -0.1071
   39POPC   H4X 5268   6.816   4.947   7.129 -0.2766 -0.9644  1.0770
   39POPC   H4Y 5269   6.933   5.082   7.105 -2.2300 -0.6661 -0.9459
   39POPC   C35 5270   6.953   5.014   7.291 -0.7014  0.4077 -0.1322
   39POPC   H5X 5271   6.901   5.109   7.317  1.3287  2.4292 -2.8752
   39POPC   H5Y 5272   7.062   5.035   7.298 -0.5176 -0.7110  0.5644
   39POPC   C36 5273   6.908   4.897   7.384  0.0945  0.4104  0.0139
   39POPC   H6X 5274   6.952   4.798   7.360  1.5337  1.3852 -1.5727
   39POPC   H6Y 5275   6.797   4.891   7.377  0.0109  1.3009  0.3426
   39POPC   C37 5276   6.942   4.931   7.531  0.6145 -0.0267  0.4305
   39POPC   H7X 5277   6.911   5.032   7.565 -0.7345 -0.5751  0.8859
   39POPC   H7Y 5278   7.052   4.930   7.548  0.4230  1.5835  2.0729
   39POPC   C38 5279   6.873   4.825   7.621 -0.0487  0.2661 -0.4547
   39POPC   H8X 5280   6.935   4.733   7.632 -1.9776 -1.0275  0.1770
   39POPC   H8Y 5281   6.784   4.794   7.562  0.8036  0.5073 -1.9076
   39POPC   C39 5282   6.828   4.883   7.753 -0.1083 -0.3841  0.1018
   39POPC   H9X 5283   6.749   4.958   7.733 -0.4218 -0.6545  0.3290
   39POPC   H9Y 5284   6.912   4.941   7.797 -1.6450  1.6585  0.5036
   39POPC  C310 5285   6.783   4.774   7.852  0.0242  0.3036 -0.0432
   39POPC  H10X 5286   6.876   4.714   7.864 -0.4249 -0.6002 -0.9411
   39POPC  H10Y 5287   6.714   4.705   7.800  1.6840 -2.1405  0.7671
   39POPC  C311 5288   6.727   4.838   7.983  0.4876 -0.0750 -0.0675
   39POPC  H11X 5289   6.655   4.921   7.962  0.6527  0.2989  0.7823
   39POPC  H11Y 5290   6.811   4.877   8.044 -0.1548  1.4199 -0.0788
   39POPC  C312 5291   6.640   4.751   8.072  0.0503  0.9879  0.5686
   39POPC  H12X 5292   6.581   4.678   8.012  0.2116  0.2558  1.2746
   39POPC  H12Y 5293   6.560   4.817   8.112 -1.3710 -1.2539  1.6602
   39POPC  C313 5294   6.702   4.679   8.190  0.8701  0.8189 -0.5091
   39POPC  H13X 5295   6.770   4.756   8.234  0.2115 -0.0380  2.2103
   39POPC  H13Y 5296   6.754   4.585   8.163 -1.5408 -0.5195 -0.6871
   39POPC  C314 5297   6.602   4.655   8.309  0.3149  0.2269 -0.5341
   39POPC  H14X 5298   6.564   4.755   8.341  0.7781 -0.2815  1.7766
   39POPC  H14Y 5299   6.650   4.614   8.401  0.8478 -1.0107 -1.3407
   39POPC  C315 5300   6.482   4.563   8.270 -0.4569 -0.4324  0.1629
   39POPC  H15X 5301   6.526   4.469   8.231 -2.1264 -1.9598  1.7162
   39POPC  H15Y 5302   6.428   4.610   8.185  1.4799 -1.0892 -1.5014
   39POPC  C316 5303   6.398   4.538   8.391 -0.3188  0.6184  0.6176
   39POPC  H16X 5304   6.450   4.486   8.475  3.1165 -1.9390 -2.7298
   39POPC  H16Y 5305   6.301   4.493   8.362  0.2827 -0.2735 -0.0525
   39POPC  H16Z 5306   6.381   4.636   8.440 -0.5598 -0.9400  3.8974
   40POPC     N 5307   6.423   6.512   6.318  0.1197 -0.5424 -0.9516
   40POPC   C12 5308   6.524   6.566   6.420 -0.7001 -0.6933  0.3962
   40POPC  H12A 5309   6.616   6.515   6.397  0.6818  1.8276 -0.0111
   40POPC  H12B 5310   6.505   6.529   6.520  1.3348 -1.9173  0.3790
   40POPC   C13 5311   6.463   6.553   6.180  0.0554  0.5355  0.1344
   40POPC  H13A 5312   6.558   6.507   6.157  0.3822 -0.1252  2.5307
   40POPC  H13B 5313   6.395   6.524   6.101  0.3263  3.3627 -1.2628
   40POPC  H13C 5314   6.467   6.660   6.164  0.8953  0.4863 -0.0171
   40POPC   C14 5315   6.412   6.361   6.319 -0.1628  0.8851  0.0793
   40POPC  H14A 5316   6.326   6.321   6.268  0.4586 -0.4033 -0.0166
   40POPC  H14B 5317   6.504   6.316   6.282  0.4577  1.0253  1.4118
   40POPC  H14C 5318   6.397   6.322   6.418 -1.7893  0.6223 -0.2467
   40POPC   C15 5319   6.286   6.557   6.354  0.3337  0.4858 -0.0893
   40POPC  H15A 5320   6.284   6.664   6.368 -0.2412  0.2373  2.0277
   40POPC  H15B 5321   6.266   6.520   6.454  0.8203 -1.0002 -0.5185
   40POPC  H15C 5322   6.202   6.535   6.290 -1.7807 -1.1008  2.9371
   40POPC   C11 5323   6.551   6.720   6.407  0.4827 -0.8050  0.7644
   40POPC  H11A 5324   6.579   6.766   6.504 -3.2056  1.0647  1.1116
   40POPC  H11B 5325   6.454   6.767   6.381  0.5147 -1.5393 -0.8123
   40POPC     P 5326   6.797   6.699   6.325 -0.5502 -0.5134 -0.0531
   40POPC   O13 5327   6.854   6.672   6.192  0.6212  0.2294 -0.1560
   40POPC   O14 5328   6.807   6.593   6.424 -0.4024  0.3480  0.6273
   40POPC   O12 5329   6.648   6.754   6.314 -0.2632  0.4019  0.1683
   40POPC   O11 5330   6.885   6.821   6.390 -0.0901 -0.0080 -0.3726
   40POPC    C1 5331   6.834   6.953   6.405 -1.1273  0.4739 -0.2200
   40POPC    HA 5332   6.725   6.950   6.427 -0.9819 -2.9562  0.7731
   40POPC    HB 5333   6.846   7.011   6.312  2.4543  0.1099 -0.0979
   40POPC    C2 5334   6.911   7.027   6.515  0.3502 -1.0850  0.2117
   40POPC    HS 5335   7.017   7.034   6.485 -0.0395 -2.1474 -1.5672
   40POPC   O21 5336   6.905   6.962   6.642 -0.2276 -0.2452 -0.0573
   40POPC   C21 5337   7.000   6.871   6.653 -0.3423 -0.0628 -0.0363
   40POPC   O22 5338   7.091   6.837   6.580 -0.1701 -0.5141 -0.4333
   40POPC   C22 5339   6.968   6.808   6.790  0.3769 -0.0323  0.3301
   40POPC   H2R 5340   7.019   6.709   6.785 -1.9026 -1.2413 -0.5778
   40POPC   H2S 5341   6.859   6.789   6.799 -0.1275 -0.2119 -3.8973
   40POPC    C3 5342   6.860   7.177   6.529 -0.4079  0.5671  0.1859
   40POPC    HX 5343   6.749   7.181   6.536 -0.4340 -1.1902  1.1511
   40POPC    HY 5344   6.879   7.225   6.431 -3.1326 -1.6611 -1.6047
   40POPC   O31 5345   6.913   7.244   6.644 -0.0286  0.6083 -0.3952
   40POPC   C31 5346   6.875   7.374   6.643 -0.0249  0.6137 -0.0056
   40POPC   O32 5347   6.790   7.423   6.575  0.0982 -0.5165 -0.1216
   40POPC   C32 5348   6.958   7.435   6.747  0.6602  0.2159  0.3729
   40POPC   H2X 5349   6.946   7.545   6.736  2.6692  0.3154 -1.3008
   40POPC   H2Y 5350   7.067   7.427   6.732  0.7769  3.1109 -1.1080
   40POPC   C23 5351   7.026   6.889   6.905 -0.5879 -0.1096  0.2122
   40POPC   H3R 5352   7.002   6.996   6.889 -0.2757  0.2065  1.7110
   40POPC   H3S 5353   7.136   6.877   6.905 -0.7345 -1.7551  0.1951
   40POPC   C24 5354   6.970   6.848   7.039  1.2753  0.1613  0.5247
   40POPC   H4R 5355   7.015   6.761   7.092 -3.0719 -3.1561 -0.5792
   40POPC   H4S 5356   6.861   6.828   7.024  1.0233  1.7165  0.1685
   40POPC   C25 5357   6.965   6.964   7.134 -0.9374 -0.3149 -0.4221
   40POPC   H5R 5358   6.903   7.050   7.098 -0.9163  0.5688  1.5573
   40POPC   H5S 5359   7.072   6.992   7.140 -0.2234 -3.1258  2.5984
   40POPC   C26 5360   6.922   6.917   7.277  0.3865  0.7835  0.5113
   40POPC   H6R 5361   7.001   6.854   7.324  0.5769 -1.3459 -2.4152
   40POPC   H6S 5362   6.838   6.846   7.261 -0.2521  1.2689  1.5744
   40POPC   C27 5363   6.878   7.024   7.377  0.0242 -0.2682  0.0756
   40POPC   H7R 5364   6.824   7.106   7.327 -0.3419  0.9642  2.3888
   40POPC   H7S 5365   6.963   7.077   7.424  0.1219 -0.2466 -0.1238
   40POPC   C28 5366   6.785   6.965   7.486  0.2865  0.3199  0.4865
   40POPC   H8R 5367   6.827   6.871   7.527  0.7698  0.5935  0.6193
   40POPC   H8S 5368   6.694   6.937   7.429 -0.1830  1.5270  0.6120
   40POPC   C29 5369   6.747   7.073   7.584 -0.7878 -0.1785 -0.2613
   40POPC   H91 5370   6.734   7.164   7.523  0.4875  0.3820  0.2594
   40POPC  C210 5371   6.749   7.071   7.723  0.4257 -0.6216  0.9765
   40POPC  H101 5372   6.710   7.166   7.764  2.2711  1.5767 -2.0127
   40POPC  C211 5373   6.775   6.952   7.813 -0.6792  0.4646  0.3770
   40POPC  H11R 5374   6.864   6.970   7.877  0.2379 -1.9202 -0.1381
   40POPC  H11S 5375   6.808   6.860   7.760  0.2172  1.1376 -0.2627
   40POPC  C212 5376   6.653   6.904   7.902 -0.0514 -0.5291  0.0040
   40POPC  H12R 5377   6.679   6.813   7.960 -1.2547 -2.3135 -2.1130
   40POPC  H12S 5378   6.563   6.889   7.839 -1.1949 -0.3794  1.5380
   40POPC  C213 5379   6.610   7.011   8.007 -0.3475 -0.5114 -0.2191
   40POPC  H13R 5380   6.613   7.111   7.958 -1.0543 -0.6486 -0.5665
   40POPC  H13S 5381   6.697   7.018   8.075 -1.0206 -1.0955  0.7112
   40POPC  C214 5382   6.482   6.975   8.079  0.5325 -1.4225  0.2384
   40POPC  H14R 5383   6.497   6.894   8.154  1.9687 -0.6524  0.8083
   40POPC  H14S 5384   6.415   6.936   7.999  1.6045 -2.8777  0.0176
   40POPC  C215 5385   6.421   7.102   8.146 -0.4926  0.0030  0.1653
   40POPC  H15R 5386   6.368   7.156   8.064  2.3040  3.4261  0.3681
   40POPC  H15S 5387   6.503   7.163   8.189  1.7331 -1.0768 -2.2786
   40POPC  C216 5388   6.327   7.073   8.265 -0.2444  0.0529 -0.0457
   40POPC  H16R 5389   6.375   7.023   8.352  0.7629  1.9223  0.5215
   40POPC  H16S 5390   6.243   7.007   8.235  0.2562 -0.9187  0.6283
   40POPC  C217 5391   6.266   7.199   8.325 -0.1570  0.2438 -0.2355
   40POPC  H17R 5392   6.218   7.263   8.249  0.4588  1.5090  0.4163
   40POPC  H17S 5393   6.349   7.262   8.364 -0.2427  0.3145 -0.1656
   40POPC  C218 5394   6.146   7.184   8.418  0.2654 -0.7655  0.6765
   40POPC  H18R 5395   6.179   7.131   8.510 -0.8920  1.2810  2.3585
   40POPC  H18S 5396   6.074   7.114   8.371  0.0684 -1.3949  1.8921
   40POPC  H18T 5397   6.096   7.278   8.450  0.8880 -0.3739  0.5182
   40POPC   C33 5398   6.914   7.378   6.891  0.8727 -0.7745  0.1734
   40POPC   H3X 5399   6.943   7.271   6.902  0.9221 -0.8724 -0.8196
   40POPC   H3Y 5400   6.804   7.368   6.906  1.1158 -3.3536  0.7648
   40POPC   C34 5401   6.980   7.449   7.013  0.3344  0.8742 -0.4590
   40POPC   H4X 5402   6.979   7.558   6.996  1.9827  1.0347  0.2543
   40POPC   H4Y 5403   7.084   7.409   7.015 -0.8377 -2.6946 -1.9686
   40POPC   C35 5404   6.897   7.405   7.139  0.1102  0.0798 -1.5272
   40POPC   H5X 5405   6.895   7.294   7.137 -0.2819  0.0236  0.5129
   40POPC   H5Y 5406   6.795   7.439   7.112  0.2537  1.5117 -0.3860
   40POPC   C36 5407   6.946   7.468   7.271  0.2583  0.0329 -0.3156
   40POPC   H6X 5408   6.932   7.577   7.257  1.8107  0.4476  1.1050
   40POPC   H6Y 5409   7.056   7.457   7.284  0.3513  1.4517  0.2435
   40POPC   C37 5410   6.886   7.408   7.395  0.1683 -0.2212  0.4910
   40POPC   H7X 5411   6.940   7.316   7.425 -1.7847 -2.2864 -1.9224
   40POPC   H7Y 5412   6.781   7.388   7.368  0.2511  0.7823 -0.6479
   40POPC   C38 5413   6.890   7.508   7.511  0.2313  0.3220 -0.1388
   40POPC   H8X 5414   6.836   7.601   7.483  0.2678  0.2170 -0.5671
   40POPC   H8Y 5415   6.984   7.542   7.559  0.0066 -1.2999  1.5227
   40POPC   C39 5416   6.818   7.451   7.641 -0.6921  0.0305 -0.4387
   40POPC   H9X 5417   6.892   7.374   7.673  0.7566  1.8790  0.8949
   40POPC   H9Y 5418   6.725   7.396   7.617  0.0915 -0.9301 -1.4059
   40POPC  C310 5419   6.803   7.557   7.744  0.1080  0.5987  0.6601
   40POPC  H10X 5420   6.728   7.629   7.704 -1.8800 -1.4372  0.4972
   40POPC  H10Y 5421   6.903   7.604   7.752  0.5415 -0.2313  0.2287
   40POPC  C311 5422   6.733   7.512   7.877  0.0918  0.0794 -0.0083
   40POPC  H11X 5423   6.663   7.429   7.851 -0.0102 -0.6325  2.3616
   40POPC  H11Y 5424   6.660   7.586   7.916  0.1048 -0.1700  0.4990
   40POPC  C312 5425   6.830   7.456   7.977  0.1234 -0.4832  0.2716
   40POPC  H12X 5426   6.895   7.534   8.023  1.1385 -0.1435 -1.6694
   40POPC  H12Y 5427   6.907   7.387   7.938 -0.1036  0.0007 -1.0822
   40POPC  C313 5428   6.759   7.387   8.091 -0.1095  0.4349  0.3067
   40POPC  H13X 5429   6.832   7.336   8.158 -0.2346  2.4320  2.0843
   40POPC  H13Y 5430   6.686   7.309   8.059  1.1098 -1.0490  0.9885
   40POPC  C314 5431   6.698   7.490   8.175 -0.2001 -0.3215  0.1003
   40POPC  H14X 5432   6.622   7.532   8.107  0.1219 -1.0022 -0.7056
   40POPC  H14Y 5433   6.768   7.569   8.209 -0.1555  0.7737 -2.3569
   40POPC  C315 5434   6.625   7.437   8.295 -0.1092  0.0145 -0.2413
   40POPC  H15X 5435   6.552   7.356   8.274  0.5507 -1.0498  1.3738
   40POPC  H15Y 5436   6.580   7.522   8.350  4.3876  1.3231  1.9233
   40POPC  C316 5437   6.712   7.380   8.410 -0.1728 -0.4941  0.3464
   40POPC  H16X 5438   6.787   7.456   8.443  0.2114 -0.3921 -0.7184
   40POPC  H16Y 5439   6.763   7.284   8.387  0.4909  0.3604 -2.0305
   40POPC  H16Z 5440   6.649   7.356   8.499 -5.9541 -1.1200 -3.3616
   41CHL1    C3 5441   4.587   3.664   9.845  0.3359 -0.7719 -0.3299
   41CHL1    H3 5442   4.536   3.759   9.819  3.6494  1.7552  1.6382
   41CHL1    O3 5443   4.560   3.654   9.987  0.2547  0.3988  0.0034
   41CHL1   H3' 5444   4.601   3.570  10.006  0.7210  0.2261 -1.6374
   41CHL1    C4 5445   4.521   3.536   9.779 -0.4539 -0.8057  0.4874
   41CHL1   H4A 5446   4.553   3.441   9.827  0.4123 -1.0947 -0.6096
   41CHL1   H4B 5447   4.413   3.545   9.803 -0.2754 -2.7839  2.3403
   41CHL1    C5 5448   4.558   3.533   9.624  0.2854  0.3122  0.3267
   41CHL1    C6 5449   4.464   3.528   9.535 -0.4735  0.4880  0.4932
   41CHL1    H6 5450   4.357   3.529   9.557 -0.4956  1.3059  0.3689
   41CHL1    C7 5451   4.490   3.532   9.385 -0.1265 -0.3264 -0.7054
   41CHL1   H7A 5452   4.425   3.455   9.337  0.4119 -0.6146 -0.9916
   41CHL1   H7B 5453   4.480   3.635   9.344  1.6161 -0.3164 -1.1901
   41CHL1    C8 5454   4.639   3.486   9.348  0.2978 -0.4851 -0.4749
   41CHL1    H8 5455   4.659   3.380   9.377  2.1128  0.0770  0.4677
   41CHL1   C14 5456   4.673   3.508   9.203  0.6329 -0.1814  0.0565
   41CHL1   H14 5457   4.676   3.617   9.184  1.5960 -0.2756 -0.3947
   41CHL1   C15 5458   4.580   3.432   9.108  0.9160 -0.4990 -0.3508
   41CHL1  H15A 5459   4.564   3.336   9.160  1.4279  0.7844  2.3372
   41CHL1  H15B 5460   4.484   3.488   9.105  0.1128 -1.8606 -1.9304
   41CHL1   C16 5461   4.659   3.433   8.979  0.6765  0.4844  0.0204
   41CHL1  H16A 5462   4.648   3.345   8.912  1.2975 -0.4467  1.1109
   41CHL1  H16B 5463   4.612   3.517   8.924  0.2002  0.6714  0.6901
   41CHL1   C17 5464   4.808   3.471   9.011  0.5534 -0.2356 -0.8809
   41CHL1   H17 5465   4.821   3.579   8.989  1.2502 -0.2217 -0.4151
   41CHL1   C13 5466   4.816   3.465   9.168  0.6248  0.1696 -0.5629
   41CHL1   C18 5467   4.843   3.317   9.204  0.8284  0.1998 -0.1708
   41CHL1  H18A 5468   4.770   3.253   9.149 -1.0082  2.3150 -0.3215
   41CHL1  H18B 5469   4.947   3.300   9.170  0.5846  1.9710 -2.0615
   41CHL1  H18C 5470   4.829   3.291   9.311  1.9816  0.0094 -0.0589
   41CHL1   C12 5471   4.911   3.562   9.237 -0.6959 -0.2482 -0.4138
   41CHL1  H12A 5472   5.021   3.558   9.224 -0.3911  0.0617  1.6802
   41CHL1  H12B 5473   4.888   3.660   9.190  0.7290  0.0657 -0.4898
   41CHL1   C11 5474   4.882   3.568   9.387 -0.2473 -0.0088 -0.3423
   41CHL1  H11A 5475   4.926   3.475   9.428  1.7568  2.3247  3.3238
   41CHL1  H11B 5476   4.943   3.646   9.437 -0.0639 -0.5792  0.3323
   41CHL1    C9 5477   4.735   3.574   9.438  0.1122 -0.5258 -0.0749
   41CHL1    H9 5478   4.708   3.680   9.418  0.4783 -0.3994  0.0788
   41CHL1   C10 5479   4.707   3.546   9.590 -0.1052 -0.0052 -0.4509
   41CHL1   C19 5480   4.780   3.418   9.634  0.3093 -0.3592  0.1150
   41CHL1  H19A 5481   4.757   3.399   9.741 -1.0886  1.7484  0.2462
   41CHL1  H19B 5482   4.744   3.324   9.586 -2.0570 -0.1849  1.4213
   41CHL1  H19C 5483   4.889   3.438   9.624 -0.1513  1.8880 -1.1778
   41CHL1    C1 5484   4.768   3.663   9.673 -0.1719  0.0864 -0.4351
   41CHL1   H1A 5485   4.877   3.658   9.657 -0.0347  0.0284  0.4561
   41CHL1   H1B 5486   4.734   3.752   9.615 -3.9767 -0.3841  0.7447
   41CHL1    C2 5487   4.737   3.673   9.820 -0.1525  0.3998 -0.0162
   41CHL1   H2A 5488   4.794   3.753   9.871  2.1598 -0.4190 -1.1194
   41CHL1   H2B 5489   4.788   3.580   9.854 -0.9569 -0.8464 -2.0028
   41CHL1   C20 5490   4.914   3.394   8.928  0.0507 -0.4151  0.1132
   41CHL1   H20 5491   4.903   3.286   8.951 -1.2291 -0.3440 -0.1140
   41CHL1   C21 5492   5.063   3.430   8.957 -0.1135 -0.0939 -0.3266
   41CHL1  H21A 5493   5.094   3.528   8.915 -0.5640  0.3487  0.3632
   41CHL1  H21B 5494   5.122   3.348   8.911  0.3555 -0.4901  0.9623
   41CHL1  H21C 5495   5.071   3.430   9.067  0.0062 -0.5328 -0.3336
   41CHL1   C22 5496   4.895   3.406   8.778  0.4250  0.0493  0.4691
   41CHL1  H22A 5497   4.814   3.479   8.756  1.2307  1.3606  1.6393
   41CHL1  H22B 5498   4.992   3.446   8.740  0.2129 -1.9737 -2.6123
   41CHL1   C23 5499   4.883   3.278   8.690  0.3450 -0.1025 -0.6090
   41CHL1  H23A 5500   4.983   3.232   8.675 -0.1039 -1.7673  1.0756
   41CHL1  H23B 5501   4.824   3.203   8.747  2.0697  0.3636  1.9636
   41CHL1   C24 5502   4.819   3.301   8.548 -0.3142 -0.1496 -0.4603
   41CHL1  H24A 5503   4.904   3.361   8.508 -1.6780  1.2627 -1.3439
   41CHL1  H24B 5504   4.812   3.202   8.498  1.7873 -0.5151 -0.1315
   41CHL1   C25 5505   4.689   3.380   8.540  0.2900 -0.2487  0.1892
   41CHL1   H25 5506   4.693   3.473   8.599 -1.3968  0.2221 -0.3910
   41CHL1   C26 5507   4.673   3.423   8.391  0.1351 -0.0747 -0.3410
   41CHL1  H26A 5508   4.630   3.336   8.338 -0.3157 -0.0359 -0.0506
   41CHL1  H26B 5509   4.596   3.503   8.382  0.9016  0.5069 -1.9875
   41CHL1  H26C 5510   4.767   3.451   8.340 -1.1808 -0.0652 -2.8977
   41CHL1   C27 5511   4.571   3.305   8.590  0.2476 -0.4100 -0.6802
   41CHL1  H27A 5512   4.571   3.203   8.548  0.8185 -0.4705 -0.5365
   41CHL1  H27B 5513   4.578   3.291   8.700 -0.9898  1.5506 -0.2885
   41CHL1  H27C 5514   4.470   3.349   8.572  0.3822 -1.1067 -3.4586
   42CHL1    C3 5515   5.318   2.069  10.015 -0.1111 -0.7087 -0.2374
   42CHL1    H3 5516   5.218   2.111   9.994  0.4005  0.9942  0.5055
   42CHL1    O3 5517   5.339   2.065  10.156  0.6724  0.0498 -0.0793
   42CHL1   H3' 5518   5.413   2.008  10.179  0.3432  0.3868  2.0999
   42CHL1    C4 5519   5.326   1.934   9.949 -1.6870  0.1647  0.4051
   42CHL1   H4A 5520   5.424   1.883   9.961 -2.4430 -1.0051  2.0160
   42CHL1   H4B 5521   5.251   1.871  10.001 -0.7664 -0.0090  1.5724
   42CHL1    C5 5522   5.307   1.958   9.799 -0.0410  0.7938  1.0239
   42CHL1    C6 5523   5.198   1.916   9.739  0.0120  0.1536 -0.2093
   42CHL1    H6 5524   5.124   1.852   9.790 -2.1456  2.0400 -0.7917
   42CHL1    C7 5525   5.163   1.931   9.599 -0.2072 -0.3090 -0.1890
   42CHL1   H7A 5526   5.101   1.853   9.551 -0.7184  0.1045 -0.2133
   42CHL1   H7B 5527   5.093   2.017   9.594  1.0594  0.8600  1.2881
   42CHL1    C8 5528   5.283   1.972   9.511 -0.3037  0.0620  0.3139
   42CHL1    H8 5529   5.359   1.891   9.512  0.7667  0.8981 -2.7508
   42CHL1   C14 5530   5.247   2.000   9.365  0.3271  0.1859 -0.3230
   42CHL1   H14 5531   5.192   2.095   9.382  0.9262  0.3943  0.4941
   42CHL1   C15 5532   5.162   1.900   9.289  0.3927  0.3166  0.1431
   42CHL1  H15A 5533   5.175   1.796   9.329 -0.9588  0.5093  1.1675
   42CHL1  H15B 5534   5.057   1.927   9.313  1.2222  2.0054  2.2371
   42CHL1   C16 5535   5.185   1.936   9.144 -0.2291  0.3912  0.0337
   42CHL1  H16A 5536   5.214   1.844   9.089 -1.1881 -0.6645  1.2316
   42CHL1  H16B 5537   5.089   1.962   9.094 -1.0777 -1.0163  0.8741
   42CHL1   C17 5538   5.287   2.057   9.144 -0.2726 -1.0580  0.4586
   42CHL1   H17 5539   5.226   2.150   9.139  1.0009 -0.2279  0.0318
   42CHL1   C13 5540   5.363   2.043   9.277  0.2330  0.1693  0.4717
   42CHL1   C18 5541   5.464   1.931   9.262  0.1826  0.9128 -0.7067
   42CHL1  H18A 5542   5.534   1.967   9.183 -1.1915  1.9222 -1.5012
   42CHL1  H18B 5543   5.517   1.900   9.355 -2.2389  0.6807  0.6717
   42CHL1  H18C 5544   5.418   1.837   9.223  0.4084  0.5187 -0.0490
   42CHL1   C12 5545   5.428   2.164   9.340  0.2237 -0.2176  0.2246
   42CHL1  H12A 5546   5.515   2.198   9.280  0.4492 -1.7417 -0.3738
   42CHL1  H12B 5547   5.354   2.247   9.341  0.6347  0.1459  1.2162
   42CHL1   C11 5548   5.471   2.140   9.482  0.0251  0.3972  0.0204
   42CHL1  H11A 5549   5.560   2.074   9.480  0.0424  0.3609  1.0560
   42CHL1  H11B 5550   5.513   2.236   9.519  2.3061 -0.3576 -0.4831
   42CHL1    C9 5551   5.360   2.085   9.580 -0.8123 -0.5063 -0.6424
   42CHL1    H9 5552   5.287   2.167   9.594  0.4203  0.2394  2.2773
   42CHL1   C10 5553   5.409   2.049   9.723 -0.7261  0.0878  0.0818
   42CHL1   C19 5554   5.547   1.983   9.718  0.2029 -0.4010 -0.2100
   42CHL1  H19A 5555   5.585   1.951   9.817  1.4441  1.8168  0.0968
   42CHL1  H19B 5556   5.543   1.895   9.650  0.5463 -2.5999  2.4525
   42CHL1  H19C 5557   5.622   2.057   9.682 -0.2150 -0.0016 -0.2586
   42CHL1    C1 5558   5.412   2.179   9.807 -0.0410 -0.9850  0.3687
   42CHL1   H1A 5559   5.502   2.235   9.775 -0.1096 -0.8130  0.4797
   42CHL1   H1B 5560   5.334   2.254   9.782  1.1746  0.7803  1.6787
   42CHL1    C2 5561   5.423   2.166   9.955 -0.3140 -0.0741 -0.1510
   42CHL1   H2A 5562   5.414   2.269   9.996 -1.8991  0.1135 -0.8730
   42CHL1   H2B 5563   5.528   2.135   9.970  0.2207  0.5759 -2.2136
   42CHL1   C20 5564   5.370   2.048   9.011  0.2204 -0.0020  0.4551
   42CHL1   H20 5565   5.433   1.957   9.009  0.7259  0.3562 -0.7842
   42CHL1   C21 5566   5.471   2.161   8.992 -0.3740 -0.4711 -0.4171
   42CHL1  H21A 5567   5.416   2.255   9.012 -1.5644 -1.2867  0.3245
   42CHL1  H21B 5568   5.509   2.163   8.888 -1.2395  1.7993 -0.7430
   42CHL1  H21C 5569   5.552   2.159   9.068  0.2745 -3.4398 -1.0683
   42CHL1   C22 5570   5.292   2.043   8.876 -0.4226  0.1759 -0.3499
   42CHL1  H22A 5571   5.365   2.020   8.795  0.8613  0.5378  0.6583
   42CHL1  H22B 5572   5.227   1.954   8.883 -0.5951  0.2446 -1.0307
   42CHL1   C23 5573   5.220   2.172   8.846 -0.0820  0.2296 -0.1187
   42CHL1  H23A 5574   5.143   2.194   8.923  0.5231  1.4819  0.1627
   42CHL1  H23B 5575   5.293   2.255   8.837 -0.0135  0.2034  0.1974
   42CHL1   C24 5576   5.152   2.164   8.699  0.3645  0.2449  0.0183
   42CHL1  H24A 5577   5.231   2.134   8.628 -1.8409 -1.9044 -1.6725
   42CHL1  H24B 5578   5.085   2.075   8.704  2.6035 -1.5236  0.3385
   42CHL1   C25 5579   5.089   2.294   8.640 -0.3230 -0.0216 -0.0476
   42CHL1   H25 5580   5.041   2.263   8.545  1.0934  1.7389 -1.4081
   42CHL1   C26 5581   4.990   2.364   8.735  0.5799  0.0230  0.5585
   42CHL1  H26A 5582   5.037   2.441   8.799  2.0500 -0.7047  0.3841
   42CHL1  H26B 5583   4.913   2.416   8.674  1.1398 -2.0160 -2.1166
   42CHL1  H26C 5584   4.944   2.291   8.805  0.2562 -0.3445 -0.0278
   42CHL1   C27 5585   5.198   2.393   8.599  0.2647 -0.0986  0.8098
   42CHL1  H27A 5586   5.256   2.434   8.684 -0.1060  1.6883  0.2329
   42CHL1  H27B 5587   5.259   2.368   8.509 -0.9913  1.6364 -0.5996
   42CHL1  H27C 5588   5.148   2.487   8.567  1.0444 -0.1718 -0.7257
   43CHL1    C3 5589   4.763   4.098   9.839 -0.3473  0.2023 -0.3882
   43CHL1    H3 5590   4.811   3.999   9.855 -1.2358  0.0174  1.4654
   43CHL1    O3 5591   4.771   4.163   9.969 -0.3238  0.2699 -0.3168
   43CHL1   H3' 5592   4.728   4.102  10.030  0.2193  0.7073  0.5324
   43CHL1    C4 5593   4.839   4.189   9.739 -0.1846 -0.4301  0.1989
   43CHL1   H4A 5594   4.810   4.296   9.740  1.5444  0.0890 -0.4846
   43CHL1   H4B 5595   4.942   4.184   9.783 -0.0621 -0.8486 -0.1340
   43CHL1    C5 5596   4.818   4.139   9.594 -0.4691  0.5886 -0.0956
   43CHL1    C6 5597   4.932   4.112   9.535  0.0124  0.3356  0.4246
   43CHL1    H6 5598   5.028   4.123   9.589 -0.7986  0.8356  1.8401
   43CHL1    C7 5599   4.940   4.066   9.394  0.2086 -1.1136 -0.5238
   43CHL1   H7A 5600   5.019   4.130   9.348 -0.8055  0.5041 -0.0934
   43CHL1   H7B 5601   4.979   3.962   9.397  0.5202 -0.9912 -0.2346
   43CHL1    C8 5602   4.803   4.079   9.319  0.1456  0.0199 -0.1682
   43CHL1    H8 5603   4.797   4.188   9.301  1.6673 -0.3035 -3.3449
   43CHL1   C14 5604   4.805   4.001   9.185  0.2155 -0.0970 -0.0211
   43CHL1   H14 5605   4.813   3.893   9.206 -1.1724  0.0477  1.4135
   43CHL1   C15 5606   4.925   4.029   9.096  0.1397  0.6861  0.4062
   43CHL1  H15A 5607   4.952   4.136   9.083 -2.0110  1.0197 -2.2039
   43CHL1  H15B 5608   5.008   3.979   9.149  0.4959  0.6618 -0.1716
   43CHL1   C16 5609   4.876   3.962   8.972  0.5520 -0.5091  0.3560
   43CHL1  H16A 5610   4.882   4.030   8.884 -1.2964 -0.6816  0.0398
   43CHL1  H16B 5611   4.934   3.877   8.931  1.3845  0.4414 -0.4880
   43CHL1   C17 5612   4.717   3.923   8.985  0.3070  0.0293 -0.4342
   43CHL1   H17 5613   4.708   3.817   9.017  1.6967 -0.0374 -0.2259
   43CHL1   C13 5614   4.672   4.005   9.108  0.1450 -0.1836 -0.2845
   43CHL1   C18 5615   4.652   4.153   9.061 -0.7338  0.3522  0.2379
   43CHL1  H18A 5616   4.650   4.223   9.148  1.3254  1.9761 -0.8986
   43CHL1  H18B 5617   4.728   4.187   8.988  1.1576 -1.5112  1.2455
   43CHL1  H18C 5618   4.558   4.151   9.002 -0.5911  0.2179  0.0158
   43CHL1   C12 5619   4.559   3.955   9.193 -0.8569  0.2648 -0.4661
   43CHL1  H12A 5620   4.464   3.949   9.135  0.4909  0.2282 -2.7788
   43CHL1  H12B 5621   4.581   3.851   9.225  1.3473  0.4463 -1.2235
   43CHL1   C11 5622   4.550   4.032   9.328  0.1102 -0.2887 -0.8290
   43CHL1  H11A 5623   4.516   4.134   9.298  1.0475  0.1397 -0.4849
   43CHL1  H11B 5624   4.470   3.994   9.394  1.5404 -1.1005  0.4829
   43CHL1    C9 5625   4.684   4.040   9.412 -0.3449  0.0987 -0.1017
   43CHL1    H9 5626   4.707   3.934   9.433  1.9060  0.3734 -0.9055
   43CHL1   C10 5627   4.673   4.111   9.551  0.1982  0.2008  0.2337
   43CHL1   C19 5628   4.607   4.241   9.537  0.2564  0.0795 -0.4068
   43CHL1  H19A 5629   4.603   4.302   9.630 -2.3190 -0.9964  0.2617
   43CHL1  H19B 5630   4.636   4.309   9.454  2.1028  1.2900  1.1250
   43CHL1  H19C 5631   4.500   4.218   9.518  0.5722 -0.5561 -1.4934
   43CHL1    C1 5632   4.602   4.033   9.659  0.6059 -0.2560  0.9725
   43CHL1   H1A 5633   4.494   4.045   9.633 -0.1436 -1.0727  3.3850
   43CHL1   H1B 5634   4.632   3.927   9.651  0.4301 -0.4724  2.7134
   43CHL1    C2 5635   4.618   4.078   9.799 -0.3597  0.4439 -0.4252
   43CHL1   H2A 5636   4.565   4.004   9.863  0.4879  0.9712  0.9337
   43CHL1   H2B 5637   4.573   4.178   9.815  0.5324  0.7758  0.0485
   43CHL1   C20 5638   4.643   3.933   8.853  0.7805  0.1019 -0.0260
   43CHL1   H20 5639   4.661   4.039   8.825  0.2533  0.3142  0.4523
   43CHL1   C21 5640   4.494   3.899   8.862 -0.6258  0.3265  0.2087
   43CHL1  H21A 5641   4.478   3.793   8.888  3.3459 -0.0607  1.6790
   43CHL1  H21B 5642   4.449   3.906   8.760  1.1062 -0.3614 -0.6391
   43CHL1  H21C 5643   4.440   3.972   8.926 -0.5200  1.0129 -0.4508
   43CHL1   C22 5644   4.703   3.830   8.748  0.0871 -0.0906  0.4839
   43CHL1  H22A 5645   4.813   3.826   8.767  0.5954  0.9016 -1.9254
   43CHL1  H22B 5646   4.654   3.738   8.786 -2.0772  0.8527  0.1022
   43CHL1   C23 5647   4.673   3.852   8.603 -0.5407 -0.1442 -0.5624
   43CHL1  H23A 5648   4.697   3.754   8.557  0.6354 -0.0252 -0.2341
   43CHL1  H23B 5649   4.565   3.877   8.601 -0.8962 -1.5802 -2.0730
   43CHL1   C24 5650   4.755   3.964   8.529 -0.7905  0.1025  0.1828
   43CHL1  H24A 5651   4.752   4.064   8.578  0.3695  0.1126  0.2655
   43CHL1  H24B 5652   4.861   3.929   8.523 -0.1524  1.7844  0.8562
   43CHL1   C25 5653   4.716   3.994   8.379  0.0550  0.0510 -0.1906
   43CHL1   H25 5654   4.739   3.904   8.318  1.6653 -0.7361  1.4873
   43CHL1   C26 5655   4.568   4.043   8.373  0.1712  0.6228 -0.2840
   43CHL1  H26A 5656   4.565   4.125   8.299  0.4266  1.4374  0.5858
   43CHL1  H26B 5657   4.501   3.958   8.345 -1.5734  2.0308 -0.6049
   43CHL1  H26C 5658   4.537   4.091   8.469  0.5686 -1.1119  0.7671
   43CHL1   C27 5659   4.804   4.110   8.314  0.8618  0.3428  0.5011
   43CHL1  H27A 5660   4.783   4.206   8.365  0.0900  1.5400 -1.9325
   43CHL1  H27B 5661   4.911   4.079   8.304  0.7856  0.5611 -1.2053
   43CHL1  H27C 5662   4.769   4.110   8.209  0.5627  0.5838  0.5996
   44CHL1    C3 5663   4.748   5.346  10.024  0.3309 -0.2109 -0.0750
   44CHL1    H3 5664   4.748   5.435   9.959  1.1817 -2.4158 -3.3451
   44CHL1    O3 5665   4.766   5.372  10.164  0.0884 -0.1131  0.5086
   44CHL1   H3' 5666   4.826   5.447  10.166  0.3134 -0.2162  3.6946
   44CHL1    C4 5667   4.623   5.263   9.989  0.0892  0.3399  0.4663
   44CHL1   H4A 5668   4.629   5.166  10.042 -0.3019 -0.0378 -0.1578
   44CHL1   H4B 5669   4.533   5.308  10.035 -0.5793  0.2470 -0.7009
   44CHL1    C5 5670   4.600   5.229   9.842  0.2050  0.8035  0.2997
   44CHL1    C6 5671   4.492   5.260   9.771 -0.2645 -0.0175  0.1306
   44CHL1    H6 5672   4.411   5.320   9.816 -0.0803  0.7182 -0.5015
   44CHL1    C7 5673   4.474   5.233   9.626  0.4612 -0.0570 -0.3516
   44CHL1   H7A 5674   4.373   5.188   9.614  0.5477  0.1244 -1.8334
   44CHL1   H7B 5675   4.481   5.327   9.569 -0.2990 -0.8460 -1.8032
   44CHL1    C8 5676   4.579   5.138   9.567 -0.9413 -0.0636 -0.7756
   44CHL1    H8 5677   4.548   5.038   9.603  0.5780 -0.4637 -0.5104
   44CHL1   C14 5678   4.580   5.141   9.416  0.5241 -0.5974 -0.3620
   44CHL1   H14 5679   4.592   5.247   9.384 -2.0113 -0.3394 -0.6739
   44CHL1   C15 5680   4.447   5.112   9.337  0.3235  0.2971 -0.0879
   44CHL1  H15A 5681   4.415   5.019   9.389  1.0388  1.4713  2.6090
   44CHL1  H15B 5682   4.365   5.185   9.349 -0.3839  0.0355 -2.7286
   44CHL1   C16 5683   4.492   5.100   9.194 -0.5060  0.3738 -0.8707
   44CHL1  H16A 5684   4.448   5.000   9.169  3.0870 -1.2610 -1.2706
   44CHL1  H16B 5685   4.445   5.165   9.117 -0.2699  2.0666  0.3711
   44CHL1   C17 5686   4.647   5.101   9.193 -0.2861  0.0592 -0.1059
   44CHL1   H17 5687   4.688   5.204   9.183 -0.2574 -0.0380 -1.0584
   44CHL1   C13 5688   4.689   5.060   9.337 -0.1930  0.6063 -0.3765
   44CHL1   C18 5689   4.668   4.912   9.367 -0.3691 -0.7821  0.3348
   44CHL1  H18A 5690   4.765   4.865   9.341 -1.5228 -3.0598 -0.1557
   44CHL1  H18B 5691   4.645   4.896   9.475 -1.3804 -0.6950  0.1467
   44CHL1  H18C 5692   4.590   4.866   9.302 -0.4661 -0.1979  0.0413
   44CHL1   C12 5693   4.819   5.113   9.393 -0.0778 -0.2233 -0.1933
   44CHL1  H12A 5694   4.896   5.041   9.357  0.7628  0.2193  0.6787
   44CHL1  H12B 5695   4.834   5.216   9.354 -0.8048  0.0523  0.2464
   44CHL1   C11 5696   4.841   5.098   9.549  0.1997 -0.5218 -0.2061
   44CHL1  H11A 5697   4.821   4.991   9.572 -1.6560 -0.4328 -1.2500
   44CHL1  H11B 5698   4.944   5.132   9.572 -0.3122  0.4751  0.7159
   44CHL1    C9 5699   4.720   5.176   9.618 -0.1885  0.0764  0.5124
   44CHL1    H9 5700   4.741   5.281   9.588  1.5968  0.0131  1.3884
   44CHL1   C10 5701   4.728   5.174   9.772 -0.7517  0.2679 -0.1540
   44CHL1   C19 5702   4.734   5.025   9.818  0.2421 -1.1098  0.1330
   44CHL1  H19A 5703   4.640   4.968   9.798  0.6448 -2.0932  0.9348
   44CHL1  H19B 5704   4.820   4.962   9.786 -0.0594 -1.2440 -0.4381
   44CHL1  H19C 5705   4.747   5.043   9.927 -0.7041  1.1269 -0.0764
   44CHL1    C1 5706   4.859   5.249   9.819 -0.2065  0.2631  0.0573
   44CHL1   H1A 5707   4.950   5.203   9.773  1.7582  2.4815  1.5418
   44CHL1   H1B 5708   4.857   5.345   9.764 -0.6920 -0.8199 -1.9609
   44CHL1    C2 5709   4.876   5.274   9.975  0.4946  0.1990  0.1255
   44CHL1   H2A 5710   4.976   5.317   9.994  0.0542  0.7552  1.2621
   44CHL1   H2B 5711   4.884   5.172  10.019 -2.6003 -2.2428 -4.1524
   44CHL1   C20 5712   4.708   5.012   9.081  0.2561 -0.2442 -0.7792
   44CHL1   H20 5713   4.665   4.909   9.090  0.6273 -0.2207  2.2690
   44CHL1   C21 5714   4.857   4.996   9.081 -0.2274  0.0827  0.7230
   44CHL1  H21A 5715   4.878   4.906   9.019  0.0925 -0.4497  1.5889
   44CHL1  H21B 5716   4.900   4.962   9.177 -2.1761 -0.1730  1.5581
   44CHL1  H21C 5717   4.905   5.093   9.054 -2.3685  1.3601  1.2710
   44CHL1   C22 5718   4.659   5.067   8.943 -0.1787  0.0626  0.5469
   44CHL1  H22A 5719   4.661   5.178   8.947  0.6764  0.0322  1.7024
   44CHL1  H22B 5720   4.733   5.049   8.863 -3.2309 -2.7223 -1.8920
   44CHL1   C23 5721   4.527   5.006   8.892  0.4103  0.0710  0.2607
   44CHL1  H23A 5722   4.529   4.904   8.936 -1.4742 -1.5210 -2.9776
   44CHL1  H23B 5723   4.436   5.061   8.924 -0.4398  1.6277 -4.0926
   44CHL1   C24 5724   4.503   4.988   8.740  0.2082 -0.0040  0.2810
   44CHL1  H24A 5725   4.535   5.080   8.687  0.9914 -1.3993 -1.7750
   44CHL1  H24B 5726   4.567   4.908   8.697  1.1754  0.7318  0.3044
   44CHL1   C25 5727   4.356   4.959   8.701  0.0993 -0.3778 -0.1018
   44CHL1   H25 5728   4.306   5.045   8.748  1.0521 -0.8203  1.8162
   44CHL1   C26 5729   4.348   4.971   8.551 -0.9259 -0.1481  0.0244
   44CHL1  H26A 5730   4.426   4.900   8.515  0.4096  1.2688  0.0431
   44CHL1  H26B 5731   4.247   4.961   8.506 -1.5663  0.8396  1.1836
   44CHL1  H26C 5732   4.384   5.068   8.511  1.8370 -0.7264  0.8816
   44CHL1   C27 5733   4.294   4.824   8.760  0.1341 -0.0646  0.1541
   44CHL1  H27A 5734   4.190   4.830   8.722  0.8378  1.7780 -1.7220
   44CHL1  H27B 5735   4.340   4.731   8.722 -1.1612 -0.1623 -1.2844
   44CHL1  H27C 5736   4.295   4.833   8.871 -0.7633  1.5053  0.0709
   45CHL1    C3 5737   3.599   6.455  10.354 -0.6472  0.5129 -0.0866
   45CHL1    H3 5738   3.566   6.352  10.330 -0.8663  1.0345 -2.3418
   45CHL1    O3 5739   3.600   6.470  10.499  0.6174  0.0727  0.6677
   45CHL1   H3' 5740   3.632   6.387  10.534 -1.4444 -1.5496 -1.0158
   45CHL1    C4 5741   3.740   6.471  10.299 -0.2619 -0.1005 -0.1241
   45CHL1   H4A 5742   3.768   6.577  10.319 -1.1080  0.7558 -3.0143
   45CHL1   H4B 5743   3.819   6.412  10.352  0.6170  1.8506  0.8581
   45CHL1    C5 5744   3.734   6.428  10.157  0.2033  0.7579  0.7213
   45CHL1    C6 5745   3.813   6.330  10.099 -0.1125 -0.0504 -0.0444
   45CHL1    H6 5746   3.887   6.282  10.165  0.5143  0.2489 -0.5148
   45CHL1    C7 5747   3.821   6.291   9.954 -0.6829  0.2188  0.9435
   45CHL1   H7A 5748   3.922   6.273   9.912 -1.4257 -0.3415 -0.6997
   45CHL1   H7B 5749   3.763   6.196   9.952  0.2125 -0.3857 -3.1525
   45CHL1    C8 5750   3.734   6.380   9.859  0.1081  0.5443  0.2661
   45CHL1    H8 5751   3.693   6.297   9.799 -1.1483 -0.5609  2.5206
   45CHL1   C14 5752   3.818   6.477   9.780  0.0815  0.2080 -0.1090
   45CHL1   H14 5753   3.882   6.548   9.835  2.6892 -0.2605 -2.3218
   45CHL1   C15 5754   3.914   6.402   9.680 -0.2344 -0.1489  0.2366
   45CHL1  H15A 5755   4.018   6.439   9.689  0.2925 -1.2789 -0.8935
   45CHL1  H15B 5756   3.913   6.292   9.701 -0.9129 -0.5298 -1.5893
   45CHL1   C16 5757   3.861   6.412   9.535 -0.0372  0.0774  0.3510
   45CHL1  H16A 5758   3.939   6.469   9.480  0.7008 -0.5450  0.7309
   45CHL1  H16B 5759   3.843   6.320   9.475  0.9277 -0.0024  0.1642
   45CHL1   C17 5760   3.722   6.481   9.557  0.4809  0.6178 -0.3318
   45CHL1   H17 5761   3.652   6.402   9.589  2.2747 -0.1463  2.0228
   45CHL1   C13 5762   3.728   6.562   9.688  0.0549 -0.2571 -0.4873
   45CHL1   C18 5763   3.812   6.691   9.666  0.2514  0.3068  0.0076
   45CHL1  H18A 5764   3.805   6.751   9.759  1.9311  0.4400  0.0733
   45CHL1  H18B 5765   3.921   6.679   9.649  0.2867  0.4685  0.1196
   45CHL1  H18C 5766   3.758   6.750   9.588 -1.2360 -0.0422  0.7349
   45CHL1   C12 5767   3.593   6.606   9.743  0.3506 -0.8658 -0.0922
   45CHL1  H12A 5768   3.606   6.701   9.799 -0.9466 -0.8366  0.1779
   45CHL1  H12B 5769   3.524   6.637   9.663  0.1782 -0.6522  0.1382
   45CHL1   C11 5770   3.513   6.515   9.841  0.3552 -0.8542  0.3470
   45CHL1  H11A 5771   3.443   6.591   9.881 -0.4694 -0.9367 -0.8903
   45CHL1  H11B 5772   3.460   6.434   9.787 -1.2152 -1.2726  2.4073
   45CHL1    C9 5773   3.609   6.438   9.936 -1.1315 -0.5701  0.4809
   45CHL1    H9 5774   3.552   6.347   9.964 -0.9544 -0.7140  0.3787
   45CHL1   C10 5775   3.634   6.507  10.072  0.6073  0.7571  0.2138
   45CHL1   C19 5776   3.692   6.642  10.058  0.1970 -0.0336 -0.2920
   45CHL1  H19A 5777   3.762   6.651   9.972  1.7623 -0.1026  0.9304
   45CHL1  H19B 5778   3.611   6.709  10.023  1.1636  0.6071 -1.3727
   45CHL1  H19C 5779   3.739   6.682  10.150  1.7112 -0.6943 -0.7393
   45CHL1    C1 5780   3.496   6.517  10.142  0.2282  0.6240 -0.1022
   45CHL1   H1A 5781   3.444   6.599  10.086  1.2987  0.2401 -1.7272
   45CHL1   H1B 5782   3.446   6.418  10.148  1.3263  0.1560  3.3605
   45CHL1    C2 5783   3.508   6.561  10.294  0.2639 -0.1349  0.1355
   45CHL1   H2A 5784   3.408   6.560  10.341  0.3337 -1.4922  0.2805
   45CHL1   H2B 5785   3.569   6.653  10.308  0.8414 -0.4375 -0.3303
   45CHL1   C20 5786   3.668   6.551   9.428 -0.0144  0.5833  0.1176
   45CHL1   H20 5787   3.643   6.652   9.468  0.6675  0.3779  1.1046
   45CHL1   C21 5788   3.537   6.478   9.394 -0.3104 -0.1363 -0.7387
   45CHL1  H21A 5789   3.475   6.461   9.485  0.4276 -0.6809 -0.3234
   45CHL1  H21B 5790   3.555   6.378   9.350  2.2286 -0.5998  1.1310
   45CHL1  H21C 5791   3.479   6.543   9.325  0.3257  1.6408  0.3313
   45CHL1   C22 5792   3.765   6.568   9.305  0.0460 -0.1973  0.6837
   45CHL1  H22A 5793   3.852   6.633   9.328 -1.4757  1.9931  0.5528
   45CHL1  H22B 5794   3.805   6.474   9.261  2.4125  0.3841  1.4171
   45CHL1   C23 5795   3.708   6.657   9.193 -0.1678 -0.9222  0.2666
   45CHL1  H23A 5796   3.619   6.613   9.143  0.6328 -2.2920 -0.0192
   45CHL1  H23B 5797   3.676   6.755   9.233 -0.3075 -0.6751 -0.4500
   45CHL1   C24 5798   3.806   6.672   9.077  0.5306 -0.2139 -0.1665
   45CHL1  H24A 5799   3.868   6.762   9.095  0.3033  0.1226 -1.0186
   45CHL1  H24B 5800   3.873   6.584   9.061 -0.2049 -0.7314 -0.4478
   45CHL1   C25 5801   3.733   6.706   8.941  0.2913  0.5349 -0.0034
   45CHL1   H25 5802   3.664   6.620   8.930  1.4224 -0.3747 -0.1476
   45CHL1   C26 5803   3.649   6.835   8.960 -0.0619 -0.7074 -0.7260
   45CHL1  H26A 5804   3.588   6.864   8.872  0.1039  3.1468  0.2785
   45CHL1  H26B 5805   3.568   6.816   9.034 -0.0255 -0.4554 -0.6212
   45CHL1  H26C 5806   3.718   6.914   8.997 -1.0284 -1.1538  2.3525
   45CHL1   C27 5807   3.832   6.714   8.829 -0.4245  0.0176 -0.4998
   45CHL1  H27A 5808   3.909   6.790   8.856  1.3479 -1.6790 -0.5167
   45CHL1  H27B 5809   3.887   6.619   8.815  1.1916  0.8099  0.1424
   45CHL1  H27C 5810   3.770   6.742   8.741 -0.5751 -1.1774 -0.7835
   46CHL1    C3 5811   6.414   0.420  10.044 -0.0371  0.6895 -0.0822
   46CHL1    H3 5812   6.313   0.385  10.015  0.1207  1.2016 -1.3173
   46CHL1    O3 5813   6.431   0.435  10.185 -0.0587 -0.9587 -0.6229
   46CHL1   H3' 5814   6.422   0.347  10.222  0.1303 -0.4064  0.7983
   46CHL1    C4 5815   6.509   0.308   9.993 -0.0616 -0.2655 -0.1699
   46CHL1   H4A 5816   6.607   0.325  10.043 -0.7087  0.3575  0.9274
   46CHL1   H4B 5817   6.475   0.217  10.046  3.9462 -0.8150  1.8825
   46CHL1    C5 5818   6.499   0.293   9.844  0.4072  1.3432 -0.4482
   46CHL1    C6 5819   6.479   0.174   9.788 -0.0138 -0.1560  0.4260
   46CHL1    H6 5820   6.478   0.083   9.851  2.6724 -1.4051 -1.1583
   46CHL1    C7 5821   6.480   0.156   9.636 -0.4533 -0.1961 -0.4279
   46CHL1   H7A 5822   6.555   0.083   9.599 -1.5927 -0.8403 -1.5168
   46CHL1   H7B 5823   6.379   0.120   9.606  0.1236 -1.5455 -0.8203
   46CHL1    C8 5824   6.496   0.282   9.547  0.6439  0.0848 -0.3912
   46CHL1    H8 5825   6.606   0.296   9.547  0.3604  3.2677  1.5645
   46CHL1   C14 5826   6.442   0.268   9.406  0.0864  1.3262 -0.2287
   46CHL1   H14 5827   6.332   0.249   9.402  0.3131 -1.2624  2.3169
   46CHL1   C15 5828   6.498   0.141   9.320  0.2340  0.5784 -0.9561
   46CHL1  H15A 5829   6.605   0.126   9.346 -0.3793 -0.1615  1.4025
   46CHL1  H15B 5830   6.451   0.042   9.338 -1.2793  1.5063  0.5148
   46CHL1   C16 5831   6.489   0.190   9.173 -0.0931  0.3949 -0.2109
   46CHL1  H16A 5832   6.595   0.189   9.139  0.7556  2.1611  2.1616
   46CHL1  H16B 5833   6.433   0.115   9.113  0.0432  0.6912 -0.7254
   46CHL1   C17 5834   6.437   0.335   9.178  0.6266 -0.6354 -0.1194
   46CHL1   H17 5835   6.326   0.339   9.179  0.6394  3.4193  0.1356
   46CHL1   C13 5836   6.475   0.394   9.317  0.2987 -0.0321 -0.1241
   46CHL1   C18 5837   6.623   0.434   9.308 -0.0433  0.0850 -0.2296
   46CHL1  H18A 5838   6.645   0.521   9.244  0.5374  0.0523 -0.0837
   46CHL1  H18B 5839   6.671   0.459   9.405 -0.8860  0.8280  0.0039
   46CHL1  H18C 5840   6.687   0.353   9.267  0.7589  0.6203 -0.0572
   46CHL1   C12 5841   6.393   0.505   9.377 -0.1634  0.0532  0.0697
   46CHL1  H12A 5842   6.385   0.598   9.317  0.0246 -0.1034 -0.2018
   46CHL1  H12B 5843   6.288   0.470   9.370 -0.4756  1.3111 -2.3891
   46CHL1   C11 5844   6.430   0.527   9.526 -0.0499  0.1227  0.4518
   46CHL1  H11A 5845   6.533   0.570   9.525 -1.1671  3.0465 -0.6013
   46CHL1  H11B 5846   6.360   0.601   9.572  0.2500  0.4885  0.3263
   46CHL1    C9 5847   6.438   0.402   9.617 -0.2240  0.0635 -0.0297
   46CHL1    H9 5848   6.333   0.376   9.643 -0.2459  0.5028  0.3381
   46CHL1   C10 5849   6.501   0.423   9.762  0.4656  0.2145 -0.0857
   46CHL1   C19 5850   6.647   0.465   9.758 -0.9514 -0.2387 -0.1870
   46CHL1  H19A 5851   6.722   0.384   9.746  0.5476  0.8861  1.1378
   46CHL1  H19B 5852   6.665   0.547   9.684  0.3340  0.4195  0.8002
   46CHL1  H19C 5853   6.677   0.504   9.857  0.5627  2.1463 -1.4704
   46CHL1    C1 5854   6.432   0.544   9.833  0.0697  0.6230  0.1170
   46CHL1   H1A 5855   6.468   0.636   9.781 -2.9840  1.1673 -1.2343
   46CHL1   H1B 5856   6.323   0.536   9.813 -0.0362  1.3972  0.3513
   46CHL1    C2 5857   6.456   0.554   9.982  0.3711  0.2140  1.1713
   46CHL1   H2A 5858   6.393   0.633  10.028 -0.9857 -0.2631  0.1878
   46CHL1   H2B 5859   6.564   0.580   9.990 -0.0285  2.1988  0.4999
   46CHL1   C20 5860   6.477   0.423   9.051 -0.5843  0.0228  0.4526
   46CHL1   H20 5861   6.588   0.423   9.041 -0.2859 -1.2012  2.9329
   46CHL1   C21 5862   6.414   0.560   9.056  0.9251 -0.2464  0.1950
   46CHL1  H21A 5863   6.306   0.546   9.081  0.5589 -2.2693 -2.1364
   46CHL1  H21B 5864   6.419   0.609   8.956 -0.4141  1.5554  0.9591
   46CHL1  H21C 5865   6.461   0.632   9.126 -3.7373  2.6989  0.7785
   46CHL1   C22 5866   6.435   0.351   8.916  0.2241 -0.3941 -0.6371
   46CHL1  H22A 5867   6.457   0.406   8.822  0.5768 -2.8005 -2.0379
   46CHL1  H22B 5868   6.498   0.260   8.912 -2.2418 -2.1721 -3.4903
   46CHL1   C23 5869   6.289   0.303   8.906 -0.0209 -0.8355  0.2958
   46CHL1  H23A 5870   6.254   0.241   8.992 -2.9613 -2.6501 -2.0110
   46CHL1  H23B 5871   6.217   0.385   8.886  0.3484 -0.6593 -0.3396
   46CHL1   C24 5872   6.282   0.208   8.789  0.1942 -0.5801  0.3624
   46CHL1  H24A 5873   6.308   0.261   8.694  0.6541 -2.4417 -0.6146
   46CHL1  H24B 5874   6.367   0.137   8.801  2.2215  1.3648 -1.4349
   46CHL1   C25 5875   6.147   0.128   8.778  0.1781  0.2334 -0.3802
   46CHL1   H25 5876   6.144   0.063   8.868 -0.5838  2.2931  1.1582
   46CHL1   C26 5877   6.030   0.228   8.795 -0.2173  0.7577 -0.6367
   46CHL1  H26A 5878   6.048   0.305   8.716  1.2221  1.5767  0.4534
   46CHL1  H26B 5879   5.934   0.175   8.776  0.0102 -2.0764  4.4276
   46CHL1  H26C 5880   6.035   0.279   8.894 -0.5762 -0.2711 -0.0810
   46CHL1   C27 5881   6.135   0.034   8.659  0.0155  0.4464 -0.1126
   46CHL1  H27A 5882   6.123   0.090   8.564 -1.0268  0.0761 -0.2065
   46CHL1  H27B 5883   6.230  -0.022   8.646 -1.7167 -2.7801  0.3198
   46CHL1  H27C 5884   6.052  -0.038   8.672  1.1836 -0.6056  2.3377
   47CHL1    C3 5885   5.459   5.199  10.039  0.1594 -0.0224 -0.3685
   47CHL1    H3 5886   5.384   5.280  10.029  0.6275  0.6502  1.2546
   47CHL1    O3 5887   5.506   5.208  10.173 -0.1761 -0.4956  0.1038
   47CHL1   H3' 5888   5.460   5.145  10.229 -1.8496  1.3090  0.8941
   47CHL1    C4 5889   5.388   5.063  10.027 -0.4145 -0.0555 -0.2662
   47CHL1   H4A 5890   5.454   4.984  10.068 -0.0672  0.4127  0.0788
   47CHL1   H4B 5891   5.303   5.072  10.099 -0.9632  0.4907 -0.9589
   47CHL1    C5 5892   5.350   5.028   9.885  0.6633 -0.2267 -0.1871
   47CHL1    C6 5893   5.229   4.987   9.856  0.2544 -0.5021  0.4078
   47CHL1    H6 5894   5.156   4.966   9.935  0.3358 -0.4054  0.5094
   47CHL1    C7 5895   5.188   4.960   9.715  0.0435  0.5525 -0.6904
   47CHL1   H7A 5896   5.123   4.869   9.715 -2.1012  1.9911  0.7383
   47CHL1   H7B 5897   5.129   5.049   9.685 -0.8741  0.5677  1.0350
   47CHL1    C8 5898   5.311   4.927   9.622 -0.6064 -0.0806 -0.4800
   47CHL1    H8 5899   5.349   4.829   9.657  1.5359  1.0868  0.6874
   47CHL1   C14 5900   5.263   4.917   9.475 -0.0306  0.4381  0.3232
   47CHL1   H14 5901   5.215   5.013   9.449  0.6218  0.4986 -0.7227
   47CHL1   C15 5902   5.152   4.817   9.445  0.0862 -0.0527  0.7039
   47CHL1  H15A 5903   5.169   4.724   9.504 -0.6009 -0.8025 -0.2476
   47CHL1  H15B 5904   5.050   4.852   9.471 -1.3034 -2.2157 -1.3855
   47CHL1   C16 5905   5.150   4.795   9.298  0.3323  0.5571  0.6495
   47CHL1  H16A 5906   5.140   4.691   9.260  1.3871  1.1374 -1.3504
   47CHL1  H16B 5907   5.065   4.857   9.264 -0.1365 -0.4423 -0.0597
   47CHL1   C17 5908   5.277   4.867   9.246 -0.7537 -0.2886  0.1479
   47CHL1   H17 5909   5.240   4.971   9.233 -2.1883 -0.6700  0.9476
   47CHL1   C13 5910   5.370   4.884   9.371  0.3527 -0.0351  0.5230
   47CHL1   C18 5911   5.425   4.741   9.395 -0.6287 -0.4104 -0.1695
   47CHL1  H18A 5912   5.494   4.714   9.312  1.0656  2.7579  0.0290
   47CHL1  H18B 5913   5.469   4.729   9.497 -0.6599  0.3951 -0.0529
   47CHL1  H18C 5914   5.338   4.674   9.407  0.1315 -1.1479  1.6627
   47CHL1   C12 5915   5.472   5.004   9.385  0.1052  0.0861  0.2764
   47CHL1  H12A 5916   5.551   4.982   9.311 -0.4485  0.1982 -0.3585
   47CHL1  H12B 5917   5.417   5.094   9.351 -0.5137  0.9129  3.1277
   47CHL1   C11 5918   5.525   5.017   9.526  0.1085  0.3921  0.0526
   47CHL1  H11A 5919   5.581   4.924   9.551 -2.6396 -1.4403 -0.1193
   47CHL1  H11B 5920   5.587   5.108   9.542  0.4570  0.0545  0.6689
   47CHL1    C9 5921   5.413   5.036   9.635 -0.0404 -0.4064  0.2114
   47CHL1    H9 5922   5.371   5.136   9.609  1.4135  0.5153  1.2264
   47CHL1   C10 5923   5.465   5.058   9.784  0.2669 -0.1707  0.1005
   47CHL1   C19 5924   5.577   4.959   9.805 -0.0583 -0.6306 -0.8001
   47CHL1  H19A 5925   5.559   4.859   9.759 -2.0365  0.2665 -2.1099
   47CHL1  H19B 5926   5.668   4.997   9.753  0.1258 -1.1583 -0.8795
   47CHL1  H19C 5927   5.609   4.945   9.910 -0.3936  0.2062 -0.5801
   47CHL1    C1 5928   5.520   5.196   9.802 -0.4752  0.3926  0.5525
   47CHL1   H1A 5929   5.600   5.214   9.727 -0.3678 -1.0584  0.2886
   47CHL1   H1B 5930   5.446   5.278   9.786 -0.9911  0.2373  2.0031
   47CHL1    C2 5931   5.577   5.214   9.941  0.5555 -0.3815 -0.3581
   47CHL1   H2A 5932   5.623   5.315   9.951  0.8405 -0.4782 -0.6688
   47CHL1   H2B 5933   5.657   5.139   9.957  0.4155 -0.2905  0.9159
   47CHL1   C20 5934   5.333   4.822   9.112 -0.2577  0.3189 -0.1889
   47CHL1   H20 5935   5.387   4.725   9.117  0.6906  0.6889 -2.0352
   47CHL1   C21 5936   5.442   4.918   9.057 -0.2471 -0.0714  0.0248
   47CHL1  H21A 5937   5.488   4.888   8.960 -0.7337  3.0997 -1.3136
   47CHL1  H21B 5938   5.527   4.925   9.127 -0.6123  0.3025  0.4341
   47CHL1  H21C 5939   5.395   5.018   9.041 -0.9512 -0.2900  0.6687
   47CHL1   C22 5940   5.217   4.806   9.006  0.1270 -0.8163 -0.5754
   47CHL1  H22A 5941   5.141   4.732   9.040 -1.8030  1.5433  0.5370
   47CHL1  H22B 5942   5.171   4.906   8.998 -0.3276 -1.0468 -0.8438
   47CHL1   C23 5943   5.261   4.781   8.865 -0.5253  0.0101  0.6881
   47CHL1  H23A 5944   5.305   4.869   8.813  1.8401 -1.1110  0.6680
   47CHL1  H23B 5945   5.354   4.719   8.863  0.6727  1.7155 -1.2490
   47CHL1   C24 5946   5.145   4.727   8.776  0.6316 -0.3449  0.3772
   47CHL1  H24A 5947   5.086   4.654   8.835 -3.1219  0.3424 -2.2097
   47CHL1  H24B 5948   5.075   4.811   8.754  2.6934  0.8812 -2.1386
   47CHL1   C25 5949   5.181   4.654   8.646 -0.1057 -0.1504 -0.0961
   47CHL1   H25 5950   5.085   4.602   8.623  0.6498 -2.0119  0.7473
   47CHL1   C26 5951   5.235   4.747   8.539 -0.4024 -0.0979  0.0220
   47CHL1  H26A 5952   5.340   4.762   8.571 -0.8728  0.7633  1.2600
   47CHL1  H26B 5953   5.180   4.842   8.527  2.2395  1.2958 -2.0614
   47CHL1  H26C 5954   5.223   4.698   8.440  1.6735 -2.1451  0.6966
   47CHL1   C27 5955   5.273   4.530   8.666  0.2923  0.1377 -0.1934
   47CHL1  H27A 5956   5.370   4.575   8.698  0.7749 -1.5652  0.8448
   47CHL1  H27B 5957   5.230   4.468   8.747 -1.1677 -0.4715 -1.3988
   47CHL1  H27C 5958   5.280   4.478   8.568 -0.7928  0.0758 -0.2448
   48CHL1    C3 5959   1.450   3.954  10.174 -0.5058  0.6383  0.1788
   48CHL1    H3 5960   1.359   3.892  10.159 -0.9845  1.5056 -0.6099
   48CHL1    O3 5961   1.462   3.973  10.315 -0.2707  0.3292 -0.3395
   48CHL1   H3' 5962   1.379   3.937  10.348  0.4004 -0.8821  0.0786
   48CHL1    C4 5963   1.576   3.890  10.119  0.4089  0.4421  0.0400
   48CHL1   H4A 5964   1.662   3.954  10.149  0.6214 -0.4651  1.5161
   48CHL1   H4B 5965   1.591   3.793  10.173  0.3659 -0.6199 -1.7860
   48CHL1    C5 5966   1.566   3.871   9.968  0.8364  0.0218 -0.3499
   48CHL1    C6 5967   1.579   3.752   9.922  0.0696 -0.7520  0.2292
   48CHL1    H6 5968   1.598   3.668   9.992 -1.8476  0.0525  1.8058
   48CHL1    C7 5969   1.571   3.710   9.775  0.3207  0.2787 -0.6578
   48CHL1   H7A 5970   1.656   3.640   9.756 -0.4062 -0.6708 -0.5096
   48CHL1   H7B 5971   1.473   3.662   9.757 -0.4914  1.6128  0.0737
   48CHL1    C8 5972   1.581   3.836   9.688 -1.2080  0.3973  0.7737
   48CHL1    H8 5973   1.684   3.877   9.688 -0.6972 -0.8189  0.9440
   48CHL1   C14 5974   1.539   3.799   9.543  0.0215 -0.6681  0.2089
   48CHL1   H14 5975   1.433   3.771   9.562  0.4521 -1.0256  2.3744
   48CHL1   C15 5976   1.602   3.678   9.471 -0.3027  0.1587  0.3824
   48CHL1  H15A 5977   1.710   3.691   9.493 -0.1990  0.5301 -0.3060
   48CHL1  H15B 5978   1.566   3.580   9.509 -1.4758  1.3259  2.4072
   48CHL1   C16 5979   1.565   3.701   9.322 -0.4507 -0.7670 -0.1964
   48CHL1  H16A 5980   1.656   3.691   9.258 -1.8549  1.1350 -2.6739
   48CHL1  H16B 5981   1.499   3.621   9.282  0.4339 -0.6193 -2.0736
   48CHL1   C17 5982   1.485   3.835   9.312  0.0765  0.2958  0.1289
   48CHL1   H17 5983   1.379   3.809   9.333 -0.5851  1.9200 -0.9747
   48CHL1   C13 5984   1.531   3.911   9.437 -0.5890  0.0761 -0.2579
   48CHL1   C18 5985   1.672   3.977   9.424 -0.0556  0.1046 -0.7402
   48CHL1  H18A 5986   1.651   4.058   9.350 -0.3104  0.1356 -0.6363
   48CHL1  H18B 5987   1.701   4.034   9.515 -0.4604  0.6567 -0.9528
   48CHL1  H18C 5988   1.753   3.909   9.391  0.6664  1.1228 -1.1053
   48CHL1   C12 5989   1.433   4.019   9.499 -0.3832  0.8379  0.2320
   48CHL1  H12A 5990   1.443   4.109   9.435  2.1305  1.4560  1.3599
   48CHL1  H12B 5991   1.334   3.968   9.495  0.0479 -0.0622  0.8674
   48CHL1   C11 5992   1.462   4.060   9.641  0.5481 -0.4426 -0.4717
   48CHL1  H11A 5993   1.546   4.133   9.640 -1.5607  2.1647  0.3131
   48CHL1  H11B 5994   1.395   4.132   9.692  0.6708 -0.1478 -0.7208
   48CHL1    C9 5995   1.489   3.949   9.739  0.1152  0.8438 -0.7448
   48CHL1    H9 5996   1.392   3.895   9.751  0.9492 -0.5432  0.0235
   48CHL1   C10 5997   1.532   3.994   9.884  1.1227  0.2893  0.3601
   48CHL1   C19 5998   1.669   4.073   9.873  0.5639 -0.2955 -0.3041
   48CHL1  H19A 5999   1.693   4.111   9.974  0.9900  0.7842 -0.8012
   48CHL1  H19B 6000   1.748   4.002   9.841  0.2437 -1.0189  0.4806
   48CHL1  H19C 6001   1.661   4.165   9.811 -1.1868  0.5586  1.1092
   48CHL1    C1 6002   1.423   4.089   9.958 -0.3811  0.1671 -0.0089
   48CHL1   H1A 6003   1.416   4.189   9.911  0.0347 -0.7306 -2.0854
   48CHL1   H1B 6004   1.320   4.052   9.940 -0.0511 -2.2924  2.4629
   48CHL1    C2 6005   1.434   4.089  10.108  0.1687 -0.2392  0.2412
   48CHL1   H2A 6006   1.339   4.130  10.147 -0.5048 -1.4962 -0.0166
   48CHL1   H2B 6007   1.507   4.168  10.138 -2.2922  2.0595  0.4957
   48CHL1   C20 6008   1.489   3.905   9.174 -0.7930 -0.3327 -0.0596
   48CHL1   H20 6009   1.593   3.943   9.161 -0.8129  0.3094  1.4237
   48CHL1   C21 6010   1.386   4.017   9.175  0.3889 -0.3541  0.7656
   48CHL1  H21A 6011   1.362   4.053   9.073  0.0732 -1.3683  0.4746
   48CHL1  H21B 6012   1.420   4.101   9.240  1.6926 -0.1117 -0.1786
   48CHL1  H21C 6013   1.288   3.983   9.215 -0.5746 -1.3443 -2.2314
   48CHL1   C22 6014   1.456   3.813   9.055  0.0147 -0.0587 -0.0135
   48CHL1  H22A 6015   1.513   3.720   9.072  1.3072  1.2551  4.1335
   48CHL1  H22B 6016   1.348   3.788   9.068  0.3125 -1.1011  0.6180
   48CHL1   C23 6017   1.486   3.883   8.919 -0.5181  0.0808  1.0337
   48CHL1  H23A 6018   1.467   3.806   8.842 -1.6143 -0.3460  1.7034
   48CHL1  H23B 6019   1.414   3.967   8.905 -0.5585 -0.1667 -0.4058
   48CHL1   C24 6020   1.622   3.935   8.905 -0.0546  0.0018 -0.9603
   48CHL1  H24A 6021   1.635   3.990   8.809  1.3058  0.1881 -0.6959
   48CHL1  H24B 6022   1.645   4.015   8.978  2.6097 -1.2326 -0.3082
   48CHL1   C25 6023   1.730   3.825   8.902 -0.2925  0.2584  0.9500
   48CHL1   H25 6024   1.716   3.764   8.994  0.8128  0.7809  1.4778
   48CHL1   C26 6025   1.726   3.739   8.774 -0.3124 -0.4395  0.1654
   48CHL1  H26A 6026   1.626   3.691   8.771 -0.0098 -1.1036  0.5869
   48CHL1  H26B 6027   1.736   3.812   8.691 -0.9232  3.0733  2.9420
   48CHL1  H26C 6028   1.801   3.659   8.763  1.4293  0.9164  1.6628
   48CHL1   C27 6029   1.865   3.899   8.916 -0.6624 -0.0367 -0.5060
   48CHL1  H27A 6030   1.875   3.953   9.012 -2.0709  0.2351 -0.4936
   48CHL1  H27B 6031   1.943   3.820   8.912  1.3216  1.7210  1.0884
   48CHL1  H27C 6032   1.897   3.968   8.835  1.5622 -0.4934 -0.0686
   49CHL1    C3 6033   0.243   4.850  10.059 -0.2095 -0.1464  0.3427
   49CHL1    H3 6034   0.332   4.801  10.015 -0.1679 -0.9591  1.3078
   49CHL1    O3 6035   0.255   4.835  10.198 -0.7465  0.0681 -0.4412
   49CHL1   H3' 6036   0.309   4.906  10.231 -0.0440 -0.5652 -0.1974
   49CHL1    C4 6037   0.242   5.001  10.026 -0.4643  0.0612  0.2613
   49CHL1   H4A 6038   0.159   5.048  10.082  0.0131  0.9451  0.2336
   49CHL1   H4B 6039   0.330   5.054  10.068  0.2012 -1.0233  0.2764
   49CHL1    C5 6040   0.213   5.013   9.879 -0.4982 -0.3407 -0.6489
   49CHL1    C6 6041   0.304   5.079   9.810 -0.5619 -0.3766 -0.0348
   49CHL1    H6 6042   0.397   5.118   9.854 -0.3298  0.5286 -1.2872
   49CHL1    C7 6043   0.283   5.115   9.667 -0.0746  0.1061  0.0968
   49CHL1   H7A 6044   0.310   5.221   9.647 -0.4128 -0.3678 -3.6859
   49CHL1   H7B 6045   0.347   5.062   9.593 -1.4955 -0.3493 -0.8378
   49CHL1    C8 6046   0.131   5.105   9.628 -0.7942 -0.8640  0.1096
   49CHL1    H8 6047   0.083   5.196   9.669  1.8551 -0.8513  3.6958
   49CHL1   C14 6048   0.113   5.120   9.475 -0.6899  0.0142 -0.0808
   49CHL1   H14 6049   0.169   5.029   9.446 -2.3394 -0.9941 -0.2401
   49CHL1   C15 6050   0.188   5.228   9.401  0.4693  0.3205 -0.3662
   49CHL1  H15A 6051   0.187   5.322   9.460  1.4207 -0.4459  0.9396
   49CHL1  H15B 6052   0.294   5.201   9.379  0.2104 -0.2930 -0.9121
   49CHL1   C16 6053   0.115   5.239   9.267 -0.1806  0.2514  0.1899
   49CHL1  H16A 6054   0.059   5.332   9.239  0.9095  1.2236  1.1434
   49CHL1  H16B 6055   0.187   5.209   9.188  1.6889 -0.7808  2.1758
   49CHL1   C17 6056   0.004   5.129   9.265  0.2383  0.9973 -0.7609
   49CHL1   H17 6057   0.052   5.036   9.226 -2.0841 -0.1319 -1.0670
   49CHL1   C13 6058  -0.025   5.109   9.419 -0.3485  0.1052 -0.1522
   49CHL1   C18 6059  -0.115   5.215   9.484  0.6392 -0.1747  0.3390
   49CHL1  H18A 6060  -0.078   5.318   9.465  1.4681 -0.7461 -1.3109
   49CHL1  H18B 6061  -0.215   5.219   9.435  1.5559  0.9420 -1.5532
   49CHL1  H18C 6062  -0.130   5.208   9.594 -2.3090 -1.0585 -0.0367
   49CHL1   C12 6063  -0.067   4.962   9.462 -0.1422  0.8151  0.1057
   49CHL1  H12A 6064  -0.175   4.950   9.441 -0.3173 -0.0082  1.3258
   49CHL1  H12B 6065  -0.013   4.887   9.400  0.6870  2.5474 -1.3469
   49CHL1   C11 6066  -0.052   4.942   9.613  0.4735  0.3920  0.0230
   49CHL1  H11A 6067  -0.121   5.010   9.666  0.9494  0.7119  0.2365
   49CHL1  H11B 6068  -0.086   4.840   9.640 -1.7457  1.0133 -0.2202
   49CHL1    C9 6069   0.078   4.976   9.674  0.1191 -0.4125  0.1321
   49CHL1    H9 6070   0.140   4.893   9.635 -0.3859 -1.6759  1.9053
   49CHL1   C10 6071   0.083   4.958   9.829  0.1013  0.2186 -0.0371
   49CHL1   C19 6072  -0.030   5.031   9.904 -0.4851  1.0887 -0.6296
   49CHL1  H19A 6073  -0.027   5.141   9.887  2.3844  0.8991 -1.9041
   49CHL1  H19B 6074  -0.128   4.984   9.880  0.8950 -2.0247 -0.6109
   49CHL1  H19C 6075  -0.022   5.010  10.012 -2.4119 -2.1890 -1.0111
   49CHL1    C1 6076   0.091   4.806   9.864 -0.4936 -0.3456  0.0947
   49CHL1   H1A 6077  -0.010   4.768   9.839 -1.4136  1.0094  1.5638
   49CHL1   H1B 6078   0.173   4.764   9.802 -0.6837 -1.1131  0.3632
   49CHL1    C2 6079   0.117   4.775  10.013 -0.4710  0.2081  0.0491
   49CHL1   H2A 6080   0.126   4.665  10.028  0.8958 -0.2963 -3.4388
   49CHL1   H2B 6081   0.024   4.813  10.060  0.5078  2.1763  0.4925
   49CHL1   C20 6082  -0.114   5.151   9.174  0.2910 -0.0674  0.3059
   49CHL1   H20 6083  -0.167   5.244   9.203 -1.8061 -0.6287 -1.4970
   49CHL1   C21 6084  -0.216   5.036   9.182  0.0291  0.1970 -0.6156
   49CHL1  H21A 6085  -0.164   4.938   9.175 -0.8786 -0.3327 -0.1058
   49CHL1  H21B 6086  -0.299   5.030   9.108 -2.8013  1.3089  2.2664
   49CHL1  H21C 6087  -0.282   5.046   9.271  1.6529 -0.3770  0.7111
   49CHL1   C22 6088  -0.070   5.166   9.022  0.6487 -0.7820  0.3183
   49CHL1  H22A 6089   0.007   5.246   9.018 -1.8109  1.6660 -1.8474
   49CHL1  H22B 6090  -0.026   5.071   8.985  1.5696  0.1959 -1.2340
   49CHL1   C23 6091  -0.176   5.226   8.929  0.1234  0.3882  0.4544
   49CHL1  H23A 6092  -0.263   5.157   8.919  1.3529 -0.9236 -2.2274
   49CHL1  H23B 6093  -0.211   5.321   8.976  2.4173  0.1647  2.8418
   49CHL1   C24 6094  -0.127   5.258   8.785 -0.3339 -0.1051 -0.2466
   49CHL1  H24A 6095  -0.037   5.324   8.788 -1.9945  2.2775  0.8475
   49CHL1  H24B 6096  -0.104   5.172   8.720  1.9671  1.4197 -1.6140
   49CHL1   C25 6097  -0.223   5.336   8.685  0.2444 -0.2685 -0.4338
   49CHL1   H25 6098  -0.219   5.436   8.734 -0.0010  0.5144 -1.9422
   49CHL1   C26 6099  -0.163   5.338   8.543 -0.2147  0.0060  0.1720
   49CHL1  H26A 6100  -0.073   5.400   8.523  0.6822 -1.5364 -0.7893
   49CHL1  H26B 6101  -0.123   5.236   8.526  0.2943  0.4880 -1.8239
   49CHL1  H26C 6102  -0.231   5.363   8.458  2.5026 -0.0168 -2.1652
   49CHL1   C27 6103  -0.364   5.281   8.684 -0.2117 -0.1045  0.4122
   49CHL1  H27A 6104  -0.354   5.173   8.658  0.2318  0.2753 -1.0970
   49CHL1  H27B 6105  -0.414   5.288   8.782  0.6542  0.9280  0.7956
   49CHL1  H27C 6106  -0.427   5.326   8.605  0.7877 -1.3596 -1.1829
   50CHL1    C3 6107   4.733   2.460  10.077 -0.1615  0.2334 -0.5854
   50CHL1    H3 6108   4.714   2.351  10.091 -1.8350  0.7565  1.7466
   50CHL1    O3 6109   4.738   2.517  10.204  0.4190 -0.0499  0.7223
   50CHL1   H3' 6110   4.726   2.609  10.182  1.0958 -0.0329  0.4096
   50CHL1    C4 6111   4.861   2.477  10.002 -0.8989 -0.0964  0.5814
   50CHL1   H4A 6112   4.885   2.585   9.993 -1.7214 -0.0284 -1.3751
   50CHL1   H4B 6113   4.944   2.426  10.055  1.2961  0.2676 -2.2656
   50CHL1    C5 6114   4.864   2.414   9.863  0.2997  0.0698 -0.3511
   50CHL1    C6 6115   4.941   2.315   9.817 -0.4541  0.1706  0.2152
   50CHL1    H6 6116   5.025   2.281   9.880 -1.2089  1.1982  1.8532
   50CHL1    C7 6117   4.947   2.289   9.668 -0.1881 -0.1782 -0.3542
   50CHL1   H7A 6118   5.054   2.300   9.638 -0.1059 -2.3351 -1.0589
   50CHL1   H7B 6119   4.914   2.183   9.657  0.2922 -0.4478  0.7214
   50CHL1    C8 6120   4.861   2.378   9.573  0.2262  0.0444 -0.6659
   50CHL1    H8 6121   4.915   2.475   9.564  2.7133 -1.0512  1.3357
   50CHL1   C14 6122   4.834   2.309   9.440  0.8597  0.3206 -0.5922
   50CHL1   H14 6123   4.779   2.216   9.466  1.1725 -0.3922 -2.3115
   50CHL1   C15 6124   4.947   2.246   9.359  0.0270  0.1397  0.0142
   50CHL1  H15A 6125   5.046   2.297   9.351  1.0904 -1.9578 -1.1745
   50CHL1  H15B 6126   4.970   2.149   9.410 -2.4080 -1.4782 -1.7424
   50CHL1   C16 6127   4.892   2.229   9.221 -0.2822 -0.2456 -0.3114
   50CHL1  H16A 6128   4.937   2.300   9.149 -0.7153  0.6191  0.2605
   50CHL1  H16B 6129   4.885   2.122   9.191 -2.6159  0.0231 -0.8657
   50CHL1   C17 6130   4.754   2.288   9.221 -0.5126  0.1302 -0.6062
   50CHL1   H17 6131   4.689   2.205   9.255 -1.6581  0.5988 -1.5433
   50CHL1   C13 6132   4.747   2.386   9.339  0.2732 -0.4833  0.0821
   50CHL1   C18 6133   4.832   2.513   9.299 -0.1012 -0.0513  0.0321
   50CHL1  H18A 6134   4.844   2.575   9.391 -1.6438 -0.1463  0.3173
   50CHL1  H18B 6135   4.937   2.487   9.275  0.1011  1.8493 -1.3134
   50CHL1  H18C 6136   4.782   2.581   9.227  0.7759 -0.3550 -0.8817
   50CHL1   C12 6137   4.609   2.411   9.407 -0.1425 -0.7338  0.4148
   50CHL1  H12A 6138   4.546   2.473   9.340  2.1417 -0.7305 -1.8655
   50CHL1  H12B 6139   4.557   2.314   9.418 -1.0249 -0.2012  1.1483
   50CHL1   C11 6140   4.617   2.478   9.544 -0.6913 -0.6923 -0.2219
   50CHL1  H11A 6141   4.643   2.584   9.523 -3.0930  0.0914  0.4786
   50CHL1  H11B 6142   4.521   2.471   9.599 -1.3069 -1.6651 -1.3917
   50CHL1    C9 6143   4.719   2.412   9.638 -0.6398  0.6186 -0.2049
   50CHL1    H9 6144   4.668   2.315   9.657  0.7512  0.2461  1.9277
   50CHL1   C10 6145   4.746   2.478   9.774  0.1800  1.2874 -0.5359
   50CHL1   C19 6146   4.783   2.619   9.748  0.1847 -0.6057  0.3269
   50CHL1  H19A 6147   4.696   2.668   9.700 -0.7861 -0.9852  1.6221
   50CHL1  H19B 6148   4.802   2.676   9.842  0.1244  0.6641 -0.4126
   50CHL1  H19C 6149   4.866   2.639   9.676  0.1423  0.5234  0.5786
   50CHL1    C1 6150   4.605   2.467   9.851 -0.2739  0.8503  0.0870
   50CHL1   H1A 6151   4.537   2.530   9.789  0.5975  1.7516  0.0274
   50CHL1   H1B 6152   4.568   2.362   9.856 -0.9593  1.0973  0.2997
   50CHL1    C2 6153   4.608   2.519  10.001 -0.0392  0.6574  0.1677
   50CHL1   H2A 6154   4.511   2.504  10.054  0.5686  0.6020  1.3177
   50CHL1   H2B 6155   4.617   2.630  10.002 -2.3893  0.9043 -0.1137
   50CHL1   C20 6156   4.700   2.335   9.081 -0.2189  0.6865 -0.0473
   50CHL1   H20 6157   4.778   2.401   9.038  2.3151 -1.4236  0.9607
   50CHL1   C21 6158   4.564   2.407   9.089 -1.0462 -0.1240 -0.2265
   50CHL1  H21A 6159   4.588   2.497   9.149 -0.3559  0.1038 -0.8187
   50CHL1  H21B 6160   4.484   2.355   9.145 -1.0933  0.9715  0.7553
   50CHL1  H21C 6161   4.533   2.442   8.988  4.9896  1.0787 -2.0768
   50CHL1   C22 6162   4.699   2.210   8.990 -0.4133 -0.4959  0.1543
   50CHL1  H22A 6163   4.804   2.184   8.966 -0.3103 -1.9038  1.9068
   50CHL1  H22B 6164   4.651   2.120   9.035 -0.8361 -0.3564 -0.0061
   50CHL1   C23 6165   4.611   2.246   8.866  0.3479  0.1716  0.2532
   50CHL1  H23A 6166   4.504   2.269   8.887  0.7219  0.4105  2.0501
   50CHL1  H23B 6167   4.658   2.333   8.816 -0.1043 -0.2925 -1.0257
   50CHL1   C24 6168   4.607   2.139   8.756 -0.6151 -0.8412 -0.3357
   50CHL1  H24A 6169   4.711   2.108   8.733 -0.0750  1.8706 -2.0460
   50CHL1  H24B 6170   4.551   2.057   8.805 -1.4340 -0.4969 -0.6646
   50CHL1   C25 6171   4.525   2.177   8.630 -0.0013 -0.1713  0.0073
   50CHL1   H25 6172   4.426   2.216   8.662 -1.4351 -2.6088 -1.1638
   50CHL1   C26 6173   4.599   2.279   8.543 -0.3591 -0.0760 -0.4343
   50CHL1  H26A 6174   4.535   2.302   8.455  0.6914 -1.5991 -1.6444
   50CHL1  H26B 6175   4.637   2.371   8.592  1.2971 -1.3935  0.9127
   50CHL1  H26C 6176   4.691   2.231   8.502 -1.0146 -0.4034 -1.5463
   50CHL1   C27 6177   4.501   2.055   8.537  0.4008  0.2374  0.4094
   50CHL1  H27A 6178   4.473   1.959   8.586  2.9817 -1.3811 -1.0363
   50CHL1  H27B 6179   4.431   2.079   8.454 -0.1868 -2.6595 -0.0636
   50CHL1  H27C 6180   4.593   2.035   8.478 -1.3465 -0.7846 -2.1925
   51CHL1    C3 6181   3.831   0.548  10.146  0.4101 -0.3547  0.2037
   51CHL1    H3 6182   3.731   0.514  10.111  0.1999  2.0452 -1.7198
   51CHL1    O3 6183   3.820   0.571  10.285 -0.3982  0.0983  0.2295
   51CHL1   H3' 6184   3.906   0.544  10.319  0.3047 -1.4980 -2.5546
   51CHL1    C4 6185   3.931   0.435  10.118  0.1462  0.3670 -0.1646
   51CHL1   H4A 6186   4.034   0.457  10.155  0.0081  2.3775 -0.8722
   51CHL1   H4B 6187   3.892   0.353  10.181  0.5542  1.4204  1.5265
   51CHL1    C5 6188   3.932   0.408   9.970 -0.2093 -0.0515  0.3579
   51CHL1    C6 6189   3.914   0.280   9.924  0.6210 -0.0852 -0.1173
   51CHL1    H6 6190   3.900   0.200   9.999  1.5966  2.4001  2.9237
   51CHL1    C7 6191   3.906   0.232   9.774 -0.5090  0.8478  0.2193
   51CHL1   H7A 6192   3.958   0.134   9.761  0.4913  1.2647  0.9378
   51CHL1   H7B 6193   3.799   0.218   9.748 -0.4280  2.6470 -1.2921
   51CHL1    C8 6194   3.970   0.343   9.680 -0.2361 -0.3835 -0.6575
   51CHL1    H8 6195   4.081   0.340   9.688 -0.3364 -0.5634  1.0822
   51CHL1   C14 6196   3.919   0.322   9.537 -0.5634 -0.1936 -0.4300
   51CHL1   H14 6197   3.809   0.330   9.551 -0.6804  0.7455 -1.6478
   51CHL1   C15 6198   3.934   0.183   9.473 -0.8098 -0.0014 -0.0372
   51CHL1  H15A 6199   4.035   0.142   9.492 -0.2924  1.5642  0.8641
   51CHL1  H15B 6200   3.857   0.109   9.500 -0.2332 -0.7083 -0.3045
   51CHL1   C16 6201   3.915   0.209   9.323  0.2641  0.2231 -1.0579
   51CHL1  H16A 6202   3.981   0.151   9.255 -1.3986 -1.1475 -1.5932
   51CHL1  H16B 6203   3.818   0.166   9.288 -0.9116  1.0590  1.0316
   51CHL1   C17 6204   3.914   0.359   9.307 -0.0912  0.0633  0.1432
   51CHL1   H17 6205   3.806   0.381   9.317  0.1128  0.9590  0.4759
   51CHL1   C13 6206   3.972   0.419   9.435  0.4898  0.0327  0.1008
   51CHL1   C18 6207   4.126   0.418   9.428  0.2833 -0.2079  0.0594
   51CHL1  H18A 6208   4.158   0.314   9.404  1.1245 -0.0486  0.4501
   51CHL1  H18B 6209   4.171   0.489   9.355 -0.0192  0.1111  0.1820
   51CHL1  H18C 6210   4.188   0.441   9.518  0.4430  0.5597 -0.2441
   51CHL1   C12 6211   3.903   0.554   9.478  0.0504 -0.9328 -0.6028
   51CHL1  H12A 6212   3.926   0.641   9.412 -0.5208  0.2328  0.6778
   51CHL1  H12B 6213   3.793   0.556   9.490  0.1578  0.3671  0.4416
   51CHL1   C11 6214   3.964   0.587   9.617 -0.2232 -0.5136  0.4399
   51CHL1  H11A 6215   4.074   0.596   9.604 -0.3514 -1.9453 -2.4771
   51CHL1  H11B 6216   3.940   0.687   9.658  0.2550 -0.0778 -0.3319
   51CHL1    C9 6217   3.933   0.484   9.727  0.6445 -0.3504 -0.0234
   51CHL1    H9 6218   3.822   0.488   9.728  0.6584  3.1038  0.4430
   51CHL1   C10 6219   3.956   0.526   9.875 -0.0829 -0.2571  0.3574
   51CHL1   C19 6220   4.102   0.564   9.891 -0.5776 -0.1984  0.9488
   51CHL1  H19A 6221   4.161   0.482   9.845 -1.9905 -0.5561 -0.2797
   51CHL1  H19B 6222   4.129   0.656   9.835 -2.5710  0.3420  0.8284
   51CHL1  H19C 6223   4.138   0.591   9.993  4.3987  0.8658 -0.7729
   51CHL1    C1 6224   3.861   0.642   9.922 -0.2781 -0.1715  0.3573
   51CHL1   H1A 6225   3.886   0.733   9.863 -0.7786  0.4934  1.1495
   51CHL1   H1B 6226   3.757   0.609   9.902 -1.1198  2.0599  0.7610
   51CHL1    C2 6227   3.872   0.672  10.064  0.9004  0.4838  0.2845
   51CHL1   H2A 6228   3.808   0.760  10.082 -0.1459  0.0081 -0.9700
   51CHL1   H2B 6229   3.975   0.695  10.099  0.7683  1.4558  0.0593
   51CHL1   C20 6230   3.972   0.409   9.172  0.7346 -1.2178  0.8431
   51CHL1   H20 6231   4.078   0.380   9.158  1.2195  0.5069  0.7351
   51CHL1   C21 6232   3.973   0.568   9.158 -0.0418  0.1229 -0.5409
   51CHL1  H21A 6233   4.017   0.602   9.061  2.6665  2.3928  1.3289
   51CHL1  H21B 6234   4.046   0.616   9.226  1.3608  0.0199 -1.9298
   51CHL1  H21C 6235   3.871   0.610   9.171 -0.0541 -0.3718  1.2108
   51CHL1   C22 6236   3.900   0.342   9.052  0.2996 -0.2049 -0.5430
   51CHL1  H22A 6237   3.889   0.233   9.070 -2.0620  0.3801  2.2599
   51CHL1  H22B 6238   3.801   0.393   9.045  0.6581  0.7216  0.8037
   51CHL1   C23 6239   3.969   0.361   8.916  0.0093 -0.1585  0.0736
   51CHL1  H23A 6240   3.963   0.467   8.884  1.9944 -0.3290 -1.0445
   51CHL1  H23B 6241   4.078   0.344   8.930  0.4161  0.1209 -2.3401
   51CHL1   C24 6242   3.917   0.273   8.803 -0.2588  0.2452 -0.0275
   51CHL1  H24A 6243   3.978   0.273   8.710  0.0135  1.3105  0.1379
   51CHL1  H24B 6244   3.912   0.171   8.847  0.7611 -0.3021 -1.1117
   51CHL1   C25 6245   3.775   0.314   8.751 -0.0124  0.4891 -0.0152
   51CHL1   H25 6246   3.689   0.283   8.815 -1.3437 -0.3525 -2.0787
   51CHL1   C26 6247   3.761   0.460   8.724  0.0121 -0.0915 -0.3167
   51CHL1  H26A 6248   3.660   0.475   8.682  0.0562  0.0397 -0.3782
   51CHL1  H26B 6249   3.769   0.520   8.817  2.4574 -1.5067  0.4756
   51CHL1  H26C 6250   3.832   0.502   8.649  1.3590  0.7822  1.3685
   51CHL1   C27 6251   3.726   0.216   8.644 -0.0968 -0.2846 -0.1649
   51CHL1  H27A 6252   3.740   0.108   8.667  1.3708 -0.1136 -0.1563
   51CHL1  H27B 6253   3.622   0.250   8.630  0.7897  2.8711  0.1099
   51CHL1  H27C 6254   3.772   0.240   8.546 -0.0728  0.2220 -0.0344
   52CHL1    C3 6255   1.728   3.349   9.955 -0.1453 -1.0430  0.1070
   52CHL1    H3 6256   1.720   3.457   9.931  1.3518 -0.8213  0.4879
   52CHL1    O3 6257   1.785   3.333  10.089  0.9928 -0.7261  0.5718
   52CHL1   H3' 6258   1.731   3.268  10.133 -1.3357  0.4608 -0.3650
   52CHL1    C4 6259   1.590   3.287   9.950 -0.7574 -0.1136  0.2361
   52CHL1   H4A 6260   1.596   3.181   9.985 -0.0386  0.2578  1.2907
   52CHL1   H4B 6261   1.522   3.334  10.025 -1.6469  0.5080 -0.9289
   52CHL1    C5 6262   1.532   3.299   9.809  0.7403  0.1851 -0.7796
   52CHL1    C6 6263   1.426   3.369   9.785  0.0793 -0.0830  0.1341
   52CHL1    H6 6264   1.367   3.390   9.876  1.2306 -1.5943  1.2855
   52CHL1    C7 6265   1.366   3.387   9.652 -0.8843 -0.0218  0.2608
   52CHL1   H7A 6266   1.256   3.375   9.668 -0.6724 -0.5488  1.4533
   52CHL1   H7B 6267   1.376   3.493   9.619 -1.0362 -0.9842 -3.3499
   52CHL1    C8 6268   1.430   3.297   9.544  0.3463  0.3897  0.2223
   52CHL1    H8 6269   1.388   3.196   9.563 -0.5205  0.7943  0.5042
   52CHL1   C14 6270   1.392   3.348   9.406  0.1991  0.0492 -0.0899
   52CHL1   H14 6271   1.451   3.438   9.378  1.6836 -0.9352 -0.2150
   52CHL1   C15 6272   1.241   3.388   9.377 -0.7357  0.1587 -0.1000
   52CHL1  H15A 6273   1.170   3.313   9.417 -0.3569 -0.6312 -0.8706
   52CHL1  H15B 6274   1.223   3.487   9.425 -0.2153  0.3435 -0.2756
   52CHL1   C16 6275   1.232   3.396   9.226  0.3959  0.0461 -0.0555
   52CHL1  H16A 6276   1.138   3.348   9.190 -0.3747  2.5841 -1.6890
   52CHL1  H16B 6277   1.216   3.501   9.194 -1.0686 -0.2074 -0.2644
   52CHL1   C17 6278   1.363   3.341   9.173  0.1830  0.2312  0.5661
   52CHL1   H17 6279   1.427   3.432   9.167  0.0490  0.3481  0.8538
   52CHL1   C13 6280   1.430   3.261   9.293  0.3754  0.3904 -0.0191
   52CHL1   C18 6281   1.361   3.122   9.297  0.0385  0.5893  0.2481
   52CHL1  H18A 6282   1.250   3.131   9.307 -0.4342 -0.6025 -2.6991
   52CHL1  H18B 6283   1.370   3.065   9.201  0.1842 -0.0739  0.6479
   52CHL1  H18C 6284   1.408   3.053   9.370  1.4588 -0.8713 -1.9333
   52CHL1   C12 6285   1.581   3.250   9.297  0.0381  1.1105 -0.1409
   52CHL1  H12A 6286   1.618   3.180   9.220  0.1859  1.6869 -0.6020
   52CHL1  H12B 6287   1.622   3.349   9.267 -0.1797  0.4559 -2.7829
   52CHL1   C11 6288   1.627   3.198   9.431 -0.7293 -0.5868  0.2980
   52CHL1  H11A 6289   1.593   3.092   9.437 -1.8971 -0.1695  1.6851
   52CHL1  H11B 6290   1.738   3.193   9.426 -0.8373 -3.4326 -0.7763
   52CHL1    C9 6291   1.579   3.285   9.551 -0.0070  0.0320 -0.0043
   52CHL1    H9 6292   1.620   3.385   9.526  0.7400  0.4209  2.4989
   52CHL1   C10 6293   1.630   3.241   9.692 -0.0865  0.3081 -1.0201
   52CHL1   C19 6294   1.631   3.089   9.696 -0.6790 -0.7346 -0.1915
   52CHL1  H19A 6295   1.527   3.052   9.711 -0.7285 -0.2264  0.8102
   52CHL1  H19B 6296   1.679   3.036   9.611  0.5912  1.2539 -0.7794
   52CHL1  H19C 6297   1.681   3.061   9.791 -3.2532 -0.8661  1.2143
   52CHL1    C1 6298   1.775   3.279   9.707 -0.1258 -0.4376 -0.2856
   52CHL1   H1A 6299   1.846   3.218   9.648 -0.4289  0.9249 -2.1180
   52CHL1   H1B 6300   1.787   3.386   9.679  0.6876 -0.2989  0.5402
   52CHL1    C2 6301   1.819   3.269   9.854  0.2597  0.4959  0.2378
   52CHL1   H2A 6302   1.919   3.312   9.877  0.2949  0.2839  0.4904
   52CHL1   H2B 6303   1.828   3.164   9.890 -0.7026  0.5111  0.5534
   52CHL1   C20 6304   1.348   3.282   9.036  0.5227 -0.4930  0.2886
   52CHL1   H20 6305   1.299   3.184   9.052  3.4246 -2.1627 -0.4315
   52CHL1   C21 6306   1.488   3.256   8.968  0.3171 -0.0298 -0.3800
   52CHL1  H21A 6307   1.492   3.214   8.865 -1.2658 -0.8919 -0.1186
   52CHL1  H21B 6308   1.526   3.179   9.039 -0.1562 -0.2803 -0.3933
   52CHL1  H21C 6309   1.555   3.345   8.971 -0.6981  0.7927 -1.3554
   52CHL1   C22 6310   1.254   3.352   8.929 -0.1620 -0.6926 -0.7092
   52CHL1  H22A 6311   1.260   3.292   8.836  0.2002  0.1520 -1.2510
   52CHL1  H22B 6312   1.151   3.354   8.969 -0.3577  2.7435 -1.0421
   52CHL1   C23 6313   1.290   3.499   8.904 -0.3534 -0.1306  1.0316
   52CHL1  H23A 6314   1.270   3.564   8.992 -1.8565  1.3990 -0.4003
   52CHL1  H23B 6315   1.399   3.493   8.882 -0.8003  0.2095 -1.4628
   52CHL1   C24 6316   1.198   3.558   8.801  0.0985  0.4776 -0.1684
   52CHL1  H24A 6317   1.090   3.537   8.818  0.2026 -1.5088 -1.5553
   52CHL1  H24B 6318   1.212   3.667   8.816  1.0206  0.1831  1.3550
   52CHL1   C25 6319   1.230   3.522   8.650 -0.4006 -0.0139 -0.1607
   52CHL1   H25 6320   1.229   3.412   8.635  3.5149 -0.0435 -1.3521
   52CHL1   C26 6321   1.125   3.569   8.556  0.6349  0.5396 -0.0317
   52CHL1  H26A 6322   1.025   3.525   8.578  2.2479 -2.3787  2.0980
   52CHL1  H26B 6323   1.120   3.680   8.555 -0.6735  0.4924 -1.4244
   52CHL1  H26C 6324   1.145   3.546   8.450 -2.0564 -1.3970 -0.2197
   52CHL1   C27 6325   1.373   3.561   8.600 -0.4513  0.1091  0.4275
   52CHL1  H27A 6326   1.376   3.672   8.609  0.9070  0.1432 -0.2113
   52CHL1  H27B 6327   1.447   3.513   8.668 -1.3294 -1.9983 -0.0392
   52CHL1  H27C 6328   1.385   3.532   8.494  1.2190  1.2699  0.2508
   53CHL1    C3 6329   2.249   4.162  10.162 -0.1844 -0.9235  0.1790
   53CHL1    H3 6330   2.350   4.197  10.191 -0.3752 -1.7253  1.9515
   53CHL1    O3 6331   2.176   4.163  10.290  0.5804 -0.0694  0.3232
   53CHL1   H3' 6332   2.085   4.134  10.276  0.8122 -1.4349  1.4400
   53CHL1    C4 6333   2.179   4.272  10.067 -0.1051 -0.2043  0.6313
   53CHL1   H4A 6334   2.070   4.251  10.073 -0.0953 -0.8352 -1.0671
   53CHL1   H4B 6335   2.194   4.376  10.105  0.1462 -0.2989  0.7981
   53CHL1    C5 6336   2.239   4.269   9.930 -0.5718 -0.2048 -0.0481
   53CHL1    C6 6337   2.288   4.376   9.877 -0.4649 -0.3308  0.2541
   53CHL1    H6 6338   2.293   4.469   9.934  2.0150 -1.9667  2.9656
   53CHL1    C7 6339   2.338   4.376   9.734 -0.2075 -0.0589 -1.1291
   53CHL1   H7A 6340   2.306   4.472   9.688  0.0684 -0.8177 -3.0261
   53CHL1   H7B 6341   2.447   4.356   9.739 -0.1210  0.6794  0.5467
   53CHL1    C8 6342   2.275   4.262   9.650 -0.6139 -0.5333 -0.0069
   53CHL1    H8 6343   2.167   4.283   9.637 -0.8467  1.2373  3.6839
   53CHL1   C14 6344   2.345   4.265   9.513  0.3926 -0.0808  0.2097
   53CHL1   H14 6345   2.453   4.249   9.533  1.4817  2.0145 -3.1022
   53CHL1   C15 6346   2.332   4.390   9.430 -0.0821 -0.6648 -0.1045
   53CHL1  H15A 6347   2.232   4.438   9.428  0.6831  0.9527 -1.2585
   53CHL1  H15B 6348   2.404   4.467   9.466  1.2379 -1.1513 -1.6075
   53CHL1   C16 6349   2.354   4.347   9.284  0.3890 -0.6555  0.1580
   53CHL1  H16A 6350   2.268   4.365   9.215  1.1960 -0.0089 -0.7021
   53CHL1  H16B 6351   2.429   4.415   9.239  0.6338 -1.4470 -0.6744
   53CHL1   C17 6352   2.381   4.193   9.289  0.6493  0.1872  0.0268
   53CHL1   H17 6353   2.486   4.169   9.317 -0.2423 -2.2192  1.6610
   53CHL1   C13 6354   2.303   4.150   9.411  0.6587 -0.2653 -0.2055
   53CHL1   C18 6355   2.149   4.160   9.381 -0.6191  0.2241 -0.0555
   53CHL1  H18A 6356   2.088   4.166   9.474 -0.4662 -0.3433  0.0890
   53CHL1  H18B 6357   2.130   4.251   9.321  1.9239  0.4531 -0.6330
   53CHL1  H18C 6358   2.115   4.067   9.329 -1.9797 -0.1521  1.4251
   53CHL1   C12 6359   2.340   4.013   9.484 -0.7947 -0.6190 -0.0367
   53CHL1  H12A 6360   2.304   3.921   9.434  1.2752  0.4083 -3.7179
   53CHL1  H12B 6361   2.451   4.011   9.484 -0.7089  1.5312  0.9831
   53CHL1   C11 6362   2.281   4.008   9.624  0.7898 -0.1783 -1.3643
   53CHL1  H11A 6363   2.172   3.993   9.616  0.3512  0.3814  1.9920
   53CHL1  H11B 6364   2.311   3.913   9.673 -1.2647 -0.2732 -0.1731
   53CHL1    C9 6365   2.301   4.132   9.721 -1.2407 -0.4474  0.2515
   53CHL1    H9 6366   2.409   4.134   9.745 -1.2459 -1.1789  0.3666
   53CHL1   C10 6367   2.234   4.133   9.860 -0.1390  0.2006 -0.0879
   53CHL1   C19 6368   2.082   4.093   9.829  0.4732  0.5207  0.0173
   53CHL1  H19A 6369   2.006   4.112   9.907 -0.4151  1.6462 -1.0848
   53CHL1  H19B 6370   2.046   4.145   9.738 -1.1587  0.2391  0.4723
   53CHL1  H19C 6371   2.080   3.984   9.810  0.0616 -0.2164  3.5428
   53CHL1    C1 6372   2.299   4.025   9.956  0.1370 -0.0176 -0.7320
   53CHL1   H1A 6373   2.281   3.925   9.911 -1.5843 -1.2871  2.4782
   53CHL1   H1B 6374   2.408   4.043   9.971  0.3950 -2.2471  0.4789
   53CHL1    C2 6375   2.247   4.023  10.101  0.5017  0.0589 -0.4980
   53CHL1   H2A 6376   2.291   3.943  10.164  2.4307  0.6816 -0.9932
   53CHL1   H2B 6377   2.139   3.996  10.101  0.7414 -1.1659  1.8906
   53CHL1   C20 6378   2.343   4.136   9.156  0.3368  1.1491 -0.2799
   53CHL1   H20 6379   2.234   4.145   9.135  0.1568  1.3502  0.7002
   53CHL1   C21 6380   2.360   3.980   9.162  0.2048  0.2395  0.6450
   53CHL1  H21A 6381   2.269   3.937   9.210 -3.4344  2.3135 -3.6522
   53CHL1  H21B 6382   2.457   3.947   9.203 -0.1676 -2.1333 -0.2585
   53CHL1  H21C 6383   2.340   3.943   9.059 -1.0208  0.2548  0.8614
   53CHL1   C22 6384   2.433   4.192   9.044 -0.0376  0.5974 -1.1309
   53CHL1  H22A 6385   2.454   4.300   9.059  0.8755  0.1788  0.8060
   53CHL1  H22B 6386   2.534   4.148   9.056 -0.9489 -1.4335 -0.3505
   53CHL1   C23 6387   2.385   4.163   8.904  1.0842  0.1710  0.6591
   53CHL1  H23A 6388   2.402   4.055   8.885  2.0848  0.1305  1.6696
   53CHL1  H23B 6389   2.276   4.184   8.910  0.8755 -0.7712  0.3717
   53CHL1   C24 6390   2.460   4.247   8.803 -0.7122 -0.4483 -0.2191
   53CHL1  H24A 6391   2.475   4.344   8.855 -2.3106 -0.1896 -0.2020
   53CHL1  H24B 6392   2.560   4.203   8.782 -0.6381 -0.4684  0.1680
   53CHL1   C25 6393   2.392   4.270   8.669  0.2336  0.0683 -0.0323
   53CHL1   H25 6394   2.308   4.343   8.675 -0.2180 -0.3770 -0.6930
   53CHL1   C26 6395   2.493   4.321   8.566 -0.6230 -0.2522  0.3497
   53CHL1  H26A 6396   2.451   4.340   8.465 -0.0056 -0.8324 -0.0229
   53CHL1  H26B 6397   2.564   4.401   8.592  0.0828 -0.3369 -1.1975
   53CHL1  H26C 6398   2.558   4.239   8.530 -0.7808 -0.7238  1.1060
   53CHL1   C27 6399   2.327   4.147   8.615  0.1796 -0.3587  0.7880
   53CHL1  H27A 6400   2.249   4.115   8.688  1.7761 -1.2828  2.1666
   53CHL1  H27B 6401   2.268   4.176   8.526  0.8754 -0.1260  0.3887
   53CHL1  H27C 6402   2.396   4.067   8.580 -0.9660 -0.1006 -2.2901
   54CHL1    C3 6403   0.692   4.039  10.191  0.2509  0.0596 -0.2807
   54CHL1    H3 6404   0.610   4.100  10.149  0.9989  2.0442  1.0261
   54CHL1    O3 6405   0.647   3.937  10.286 -0.1791 -0.7524 -0.2071
   54CHL1   H3' 6406   0.729   3.891  10.307  1.8711  2.3163 -0.7295
   54CHL1    C4 6407   0.776   3.960  10.083 -0.4562  0.2565  0.3196
   54CHL1   H4A 6408   0.860   3.904  10.129  0.4685  0.8882 -0.5523
   54CHL1   H4B 6409   0.715   3.884  10.030  3.5233 -2.3107 -1.0556
   54CHL1    C5 6410   0.834   4.056   9.985  0.1497  0.0382  0.4385
   54CHL1    C6 6411   0.818   4.045   9.849  0.3617  1.1756  0.6151
   54CHL1    H6 6412   0.753   3.967   9.808 -0.6057  3.1986 -1.9675
   54CHL1    C7 6413   0.884   4.124   9.739 -0.0234  0.4341 -0.5881
   54CHL1   H7A 6414   0.941   4.057   9.671  1.4870 -1.7005  2.5318
   54CHL1   H7B 6415   0.805   4.176   9.681  0.0941  1.0935 -0.1756
   54CHL1    C8 6416   0.991   4.218   9.795  0.6236 -0.3466 -1.2736
   54CHL1    H8 6417   1.083   4.159   9.812  0.3703 -0.2806  0.6219
   54CHL1   C14 6418   1.013   4.335   9.701  0.2568  0.8527 -0.6501
   54CHL1   H14 6419   0.917   4.385   9.676 -0.7277 -0.3927  0.4776
   54CHL1   C15 6420   1.077   4.298   9.569 -0.0338  0.0028 -0.1426
   54CHL1  H15A 6421   1.157   4.225   9.594 -1.0507 -1.1498 -0.1682
   54CHL1  H15B 6422   1.013   4.251   9.491  1.0764  0.6757 -1.5150
   54CHL1   C16 6423   1.129   4.434   9.522 -0.1771  0.7288  0.2593
   54CHL1  H16A 6424   1.232   4.417   9.485 -0.9656  0.9053 -2.2203
   54CHL1  H16B 6425   1.069   4.462   9.432  0.0051 -0.5920 -0.2981
   54CHL1   C17 6426   1.120   4.540   9.643 -0.6506 -0.5153  0.4523
   54CHL1   H17 6427   1.026   4.598   9.634  0.5712  1.7268  1.2644
   54CHL1   C13 6428   1.108   4.445   9.762 -0.4782 -1.0594  0.0174
   54CHL1   C18 6429   1.248   4.392   9.801 -0.3534 -0.1433  0.3509
   54CHL1  H18A 6430   1.315   4.353   9.721 -0.3167 -0.4719  0.5392
   54CHL1  H18B 6431   1.300   4.475   9.854 -0.7554  0.1279  0.3247
   54CHL1  H18C 6432   1.239   4.312   9.877  1.9521 -1.9592 -1.1437
   54CHL1   C12 6433   1.040   4.508   9.884  0.0238  1.0657 -0.1015
   54CHL1  H12A 6434   1.094   4.591   9.934  0.9159  0.7157 -0.4596
   54CHL1  H12B 6435   0.940   4.551   9.863 -0.7200  1.4058  3.5525
   54CHL1   C11 6436   1.018   4.402   9.992  0.4890  0.1043 -0.9596
   54CHL1  H11A 6437   1.120   4.371  10.025 -0.6740 -2.2225  0.7376
   54CHL1  H11B 6438   0.969   4.447  10.081  1.4112 -1.1566  0.2398
   54CHL1    C9 6439   0.942   4.277   9.935  0.3535  0.2060 -0.1301
   54CHL1    H9 6440   0.845   4.319   9.902 -0.6105 -0.9007  1.1676
   54CHL1   C10 6441   0.909   4.178  10.045 -0.0193  0.2408 -0.6601
   54CHL1   C19 6442   1.050   4.122  10.089 -0.8137 -0.0392  0.0491
   54CHL1  H19A 6443   1.051   4.038  10.162  2.0382  0.0128  0.1942
   54CHL1  H19B 6444   1.102   4.075  10.003  2.7212  3.2574  0.1387
   54CHL1  H19C 6445   1.116   4.201  10.130  0.1222  0.6634 -2.6059
   54CHL1    C1 6446   0.830   4.246  10.160 -0.0443  0.0740 -0.1739
   54CHL1   H1A 6447   0.899   4.313  10.216  0.6082  0.0703 -0.9409
   54CHL1   H1B 6448   0.750   4.303  10.108 -0.1498 -1.1676 -1.4344
   54CHL1    C2 6449   0.776   4.146  10.257  0.0424 -0.3800 -0.0465
   54CHL1   H2A 6450   0.715   4.200  10.333  0.9592  1.8866 -0.8232
   54CHL1   H2B 6451   0.865   4.102  10.306  0.1186 -0.6634 -0.4398
   54CHL1   C20 6452   1.238   4.648   9.633  1.2147  0.4003 -0.1341
   54CHL1   H20 6453   1.338   4.601   9.646  1.1848  0.6789  1.2002
   54CHL1   C21 6454   1.213   4.745   9.750  0.0593 -0.0797  0.9444
   54CHL1  H21A 6455   1.254   4.716   9.849 -1.3255  1.7014  2.0865
   54CHL1  H21B 6456   1.105   4.763   9.767 -0.2043 -1.5591  0.9953
   54CHL1  H21C 6457   1.267   4.840   9.731 -0.1490  0.0382  0.9387
   54CHL1   C22 6458   1.224   4.728   9.501 -0.5804 -1.0995 -0.2582
   54CHL1  H22A 6459   1.310   4.797   9.490 -0.2631 -1.6667 -1.5313
   54CHL1  H22B 6460   1.232   4.652   9.421 -0.3509  0.2140 -1.5139
   54CHL1   C23 6461   1.094   4.800   9.476  0.3645  0.0542  0.1571
   54CHL1  H23A 6462   1.020   4.721   9.453  2.0363 -1.1220 -1.4561
   54CHL1  H23B 6463   1.058   4.854   9.566 -0.2601  1.7288 -1.0287
   54CHL1   C24 6464   1.102   4.908   9.362 -0.3273 -0.2219 -0.5719
   54CHL1  H24A 6465   0.999   4.949   9.366 -0.0431  0.5722 -1.1144
   54CHL1  H24B 6466   1.181   4.976   9.402  0.0677 -0.6054 -0.6952
   54CHL1   C25 6467   1.134   4.837   9.230 -0.6803  0.0152  0.0564
   54CHL1   H25 6468   1.224   4.776   9.252  1.0081  1.5980 -2.0342
   54CHL1   C26 6469   1.024   4.754   9.174  0.6720 -0.2160  0.4430
   54CHL1  H26A 6470   0.937   4.805   9.127  1.9320  0.6683 -1.0078
   54CHL1  H26B 6471   1.061   4.684   9.097 -0.8253  0.9831 -1.4632
   54CHL1  H26C 6472   0.974   4.688   9.249 -0.8137  0.6923  0.3018
   54CHL1   C27 6473   1.175   4.937   9.128  0.0294  0.5885  1.1595
   54CHL1  H27A 6474   1.203   4.884   9.035 -1.8152  1.0084  0.3257
   54CHL1  H27B 6475   1.092   5.007   9.101 -0.7559 -0.2001  1.5056
   54CHL1  H27C 6476   1.261   4.991   9.174 -0.1994 -0.0257  2.3383
   55CHL1    C3 6477   2.582   2.711  10.168 -0.1846 -0.2629 -0.6002
   55CHL1    H3 6478   2.500   2.644  10.203 -1.5506  1.2481 -0.8166
   55CHL1    O3 6479   2.649   2.754  10.288  0.4458 -0.1515  0.0544
   55CHL1   H3' 6480   2.585   2.769  10.358 -1.1511  0.0139 -1.3650
   55CHL1    C4 6481   2.679   2.649  10.070  0.5964  0.1331 -0.6201
   55CHL1   H4A 6482   2.767   2.715  10.055 -0.7164  1.7177 -1.6890
   55CHL1   H4B 6483   2.708   2.554  10.120  0.1500 -0.0002 -0.6182
   55CHL1    C5 6484   2.602   2.623   9.942 -0.1011 -0.4418  0.0874
   55CHL1    C6 6485   2.589   2.504   9.890  0.2212 -0.2457 -0.5826
   55CHL1    H6 6486   2.617   2.412   9.944 -4.5874 -2.1788 -0.8357
   55CHL1    C7 6487   2.510   2.471   9.765 -0.6194  0.5215  0.2428
   55CHL1   H7A 6488   2.556   2.398   9.695 -0.1162  0.9145  0.1613
   55CHL1   H7B 6489   2.413   2.425   9.791 -0.0251 -0.9018  0.0603
   55CHL1    C8 6490   2.480   2.594   9.675 -0.5724  0.8585 -0.0257
   55CHL1    H8 6491   2.578   2.614   9.626 -0.3745  0.0047  0.0086
   55CHL1   C14 6492   2.377   2.563   9.568  0.4785 -0.1285 -0.5040
   55CHL1   H14 6493   2.283   2.535   9.619  0.2389  0.1894 -0.7694
   55CHL1   C15 6494   2.399   2.450   9.460  0.0159  0.6502  0.1199
   55CHL1  H15A 6495   2.497   2.462   9.408 -0.9753  2.5133 -1.4523
   55CHL1  H15B 6496   2.399   2.347   9.500  0.2332 -0.2030 -1.9414
   55CHL1   C16 6497   2.290   2.483   9.359  0.2209  0.2405 -0.4617
   55CHL1  H16A 6498   2.332   2.480   9.256  3.2703 -0.0726  0.6703
   55CHL1  H16B 6499   2.210   2.408   9.376  2.3757 -1.8384  1.1022
   55CHL1   C17 6500   2.240   2.628   9.383 -0.5748  0.8493 -0.0902
   55CHL1   H17 6501   2.141   2.627   9.433 -0.9076  0.9050 -0.7393
   55CHL1   C13 6502   2.342   2.682   9.484 -0.1095  0.2176 -0.0715
   55CHL1   C18 6503   2.472   2.729   9.410  0.5333  0.1675 -0.5808
   55CHL1  H18A 6504   2.444   2.821   9.354  1.8354  0.1020 -1.3771
   55CHL1  H18B 6505   2.559   2.746   9.477  0.2422  1.8087 -0.5785
   55CHL1  H18C 6506   2.511   2.665   9.328  0.5359  0.4306 -0.7867
   55CHL1   C12 6507   2.281   2.793   9.585  0.3602  0.1879  0.1975
   55CHL1  H12A 6508   2.245   2.889   9.543 -0.1748  0.1098  0.4713
   55CHL1  H12B 6509   2.200   2.740   9.639  0.3135  0.7916  0.7366
   55CHL1   C11 6510   2.389   2.830   9.688 -0.4958  0.3727 -0.1544
   55CHL1  H11A 6511   2.472   2.875   9.629 -0.5255  1.0907  0.3483
   55CHL1  H11B 6512   2.339   2.907   9.750 -1.6227 -1.3085  1.1173
   55CHL1    C9 6513   2.433   2.704   9.763 -0.2852  0.0979 -0.6434
   55CHL1    H9 6514   2.345   2.656   9.812  0.4631  1.2054  1.9600
   55CHL1   C10 6515   2.534   2.742   9.877 -0.0596  0.4337  0.4459
   55CHL1   C19 6516   2.641   2.834   9.823 -0.1180 -0.2975 -0.3185
   55CHL1  H19A 6517   2.689   2.811   9.726  0.3681  1.8906 -0.6525
   55CHL1  H19B 6518   2.594   2.931   9.798 -1.6799  0.6929  5.1753
   55CHL1  H19C 6519   2.718   2.856   9.900 -0.7328  0.9888 -0.0553
   55CHL1    C1 6520   2.449   2.808   9.984  0.5317 -0.3435  0.2336
   55CHL1   H1A 6521   2.415   2.903   9.936 -1.9836 -1.9083 -1.2764
   55CHL1   H1B 6522   2.354   2.756  10.009  0.2378  0.8415  1.7944
   55CHL1    C2 6523   2.519   2.839  10.114 -0.0708 -0.4544  0.0581
   55CHL1   H2A 6524   2.450   2.894  10.181  1.8689  2.7668 -0.3497
   55CHL1   H2B 6525   2.605   2.900  10.080  0.4040 -1.2176 -0.1396
   55CHL1   C20 6526   2.229   2.701   9.241  0.3582 -0.3675 -0.5321
   55CHL1   H20 6527   2.327   2.720   9.193  0.9864  0.4385  1.0166
   55CHL1   C21 6528   2.169   2.842   9.272 -0.1271 -0.3668  0.1078
   55CHL1  H21A 6529   2.248   2.893   9.332  0.4956  0.9868 -1.7392
   55CHL1  H21B 6530   2.070   2.845   9.323  0.5975 -0.7827  1.5733
   55CHL1  H21C 6531   2.170   2.914   9.187 -0.8076  0.3833  0.7211
   55CHL1   C22 6532   2.137   2.634   9.140 -0.7603  0.2067 -0.1698
   55CHL1  H22A 6533   2.175   2.534   9.112 -0.0465 -0.6497  3.3519
   55CHL1  H22B 6534   2.035   2.616   9.181 -1.5561 -0.2338 -2.2129
   55CHL1   C23 6535   2.109   2.718   9.014  0.7866 -0.4694 -0.2088
   55CHL1  H23A 6536   2.048   2.652   8.949  0.3827 -2.6532  2.2438
   55CHL1  H23B 6537   2.060   2.817   9.024 -0.1243 -0.5626 -2.8624
   55CHL1   C24 6538   2.252   2.737   8.943  0.3374 -0.1885  0.4110
   55CHL1  H24A 6539   2.304   2.821   8.994 -0.0121  0.1675  0.1909
   55CHL1  H24B 6540   2.314   2.645   8.949  0.9035  0.1349 -0.3664
   55CHL1   C25 6541   2.239   2.775   8.791 -0.2996 -0.7045 -1.3779
   55CHL1   H25 6542   2.194   2.691   8.734 -1.9811 -0.5300 -0.3843
   55CHL1   C26 6543   2.137   2.891   8.777  0.2251  0.0622 -0.7849
   55CHL1  H26A 6544   2.174   2.967   8.850  1.8627 -3.7716  2.8120
   55CHL1  H26B 6545   2.153   2.929   8.674 -2.0672  0.2513 -1.1262
   55CHL1  H26C 6546   2.031   2.860   8.782 -0.1484  1.1928 -1.2604
   55CHL1   C27 6547   2.368   2.817   8.723 -0.2587  0.2253  0.2676
   55CHL1  H27A 6548   2.385   2.922   8.754 -0.2023  0.0310  0.9051
   55CHL1  H27B 6549   2.457   2.752   8.726  1.7226  2.7958  0.7119
   55CHL1  H27C 6550   2.346   2.813   8.614 -0.4752  1.9596  0.2106
   56CHL1    C3 6551   1.185   1.369   9.988  0.5289 -0.0460 -0.1390
   56CHL1    H3 6552   1.282   1.379   9.934  1.6245  1.0557  1.8874
   56CHL1    O3 6553   1.217   1.385  10.127  0.3662 -0.5332 -0.3477
   56CHL1   H3' 6554   1.132   1.389  10.170  1.0763  3.0439  1.0243
   56CHL1    C4 6555   1.114   1.490   9.924 -0.3360  0.0269  0.0023
   56CHL1   H4A 6556   1.030   1.504   9.996 -0.9220 -3.2110  0.0916
   56CHL1   H4B 6557   1.190   1.570   9.926  1.6613 -1.6704 -2.2167
   56CHL1    C5 6558   1.061   1.466   9.785  0.6389 -0.0660  0.2856
   56CHL1    C6 6559   1.080   1.553   9.682 -0.0298  0.3298  0.2890
   56CHL1    H6 6560   1.137   1.641   9.715 -0.3310  0.3542  0.7497
   56CHL1    C7 6561   1.016   1.544   9.551  0.3133  0.2428 -0.5648
   56CHL1   H7A 6562   0.975   1.641   9.517  1.0469  1.0912  0.9217
   56CHL1   H7B 6563   1.098   1.508   9.484 -0.2565 -1.9922 -0.1550
   56CHL1    C8 6564   0.912   1.432   9.542  0.0660 -0.4725 -0.1093
   56CHL1    H8 6565   0.811   1.468   9.571  0.1876 -0.9210  0.9284
   56CHL1   C14 6566   0.893   1.398   9.392 -0.2108 -0.0627 -0.7075
   56CHL1   H14 6567   0.988   1.347   9.362  0.1937  0.1252  0.2073
   56CHL1   C15 6568   0.870   1.507   9.281 -0.3535 -0.1677  0.6881
   56CHL1  H15A 6569   0.783   1.570   9.308 -0.7100 -0.9328  1.3822
   56CHL1  H15B 6570   0.960   1.572   9.276  0.1127 -0.8477 -0.0182
   56CHL1   C16 6571   0.853   1.417   9.158  0.2144  0.0053  0.2041
   56CHL1  H16A 6572   0.770   1.460   9.098  0.1794 -0.4090 -0.0513
   56CHL1  H16B 6573   0.947   1.415   9.099 -0.4532  0.4513 -0.9180
   56CHL1   C17 6574   0.804   1.275   9.213  1.0875  0.3027 -0.4297
   56CHL1   H17 6575   0.885   1.199   9.215  0.8854  0.0820 -0.5911
   56CHL1   C13 6576   0.793   1.291   9.366  0.4775  0.5971  0.0193
   56CHL1   C18 6577   0.648   1.335   9.388  0.3295  0.1389 -0.5941
   56CHL1  H18A 6578   0.636   1.354   9.497  2.6905  0.9384 -0.4150
   56CHL1  H18B 6579   0.631   1.434   9.341  1.1293  1.0653  0.9769
   56CHL1  H18C 6580   0.572   1.262   9.352  0.0276  0.9744 -1.7259
   56CHL1   C12 6581   0.827   1.162   9.451  0.0510  0.2062 -0.7452
   56CHL1  H12A 6582   0.744   1.088   9.442 -0.1136  0.4369 -1.1292
   56CHL1  H12B 6583   0.916   1.113   9.407  1.8871  2.8139 -0.1887
   56CHL1   C11 6584   0.837   1.199   9.600 -0.1606 -0.3195 -0.2625
   56CHL1  H11A 6585   0.743   1.235   9.646  0.4459 -0.3719  1.0699
   56CHL1  H11B 6586   0.867   1.111   9.661 -0.6336 -0.6897 -0.5583
   56CHL1    C9 6587   0.942   1.305   9.624 -0.6241 -0.8297  0.0711
   56CHL1    H9 6588   1.038   1.262   9.590 -0.1603 -0.8769  1.3856
   56CHL1   C10 6589   0.981   1.337   9.775 -0.1193 -0.0197 -0.2299
   56CHL1   C19 6590   0.850   1.356   9.848 -0.3140 -0.2824  0.2822
   56CHL1  H19A 6591   0.851   1.396   9.951  1.4298 -1.6732  0.8592
   56CHL1  H19B 6592   0.792   1.434   9.793 -0.1995  0.1256  0.7394
   56CHL1  H19C 6593   0.805   1.254   9.850  2.5411 -1.6484  0.1514
   56CHL1    C1 6594   1.063   1.212   9.833 -0.1463  0.6089  0.4784
   56CHL1   H1A 6595   1.003   1.118   9.828  2.6133 -1.2036 -1.8283
   56CHL1   H1B 6596   1.151   1.189   9.770  0.4478  0.9903  1.1627
   56CHL1    C2 6597   1.098   1.241   9.978  0.7252 -0.2672 -0.1477
   56CHL1   H2A 6598   1.146   1.153  10.026  2.3120 -0.2356 -1.5744
   56CHL1   H2B 6599   1.002   1.264  10.028  0.0604 -0.4096 -1.3282
   56CHL1   C20 6600   0.704   1.196   9.130 -0.9493 -0.4443  0.0552
   56CHL1   H20 6601   0.610   1.254   9.115 -1.2381 -0.4745  1.6273
   56CHL1   C21 6602   0.673   1.058   9.187 -0.2055  0.4486 -0.0168
   56CHL1  H21A 6603   0.625   1.071   9.286 -0.3565  0.0878 -0.0423
   56CHL1  H21B 6604   0.765   0.998   9.205 -1.4123 -1.0636  1.4822
   56CHL1  H21C 6605   0.609   0.998   9.118  0.9241  0.3394 -1.0038
   56CHL1   C22 6606   0.762   1.185   8.988 -0.7430  0.4773  0.3124
   56CHL1  H22A 6607   0.794   1.277   8.935  0.5730 -1.3242 -2.2524
   56CHL1  H22B 6608   0.857   1.130   8.999 -1.1276  0.0014  1.3154
   56CHL1   C23 6609   0.684   1.090   8.892 -0.5297  0.2240 -0.4737
   56CHL1  H23A 6610   0.676   0.983   8.923  0.6775 -0.5930 -2.7447
   56CHL1  H23B 6611   0.580   1.127   8.876 -0.0506  1.9778  0.3139
   56CHL1   C24 6612   0.749   1.086   8.755  0.3736 -0.4437  0.0151
   56CHL1  H24A 6613   0.766   1.194   8.734 -1.0162 -0.1182  0.4124
   56CHL1  H24B 6614   0.852   1.048   8.765  1.1393  1.5504  0.2130
   56CHL1   C25 6615   0.677   1.020   8.639 -0.1201  0.2981  0.3056
   56CHL1   H25 6616   0.580   1.069   8.617 -1.3885 -2.9132 -1.9423
   56CHL1   C26 6617   0.762   1.040   8.508 -0.2714 -0.4827 -0.1995
   56CHL1  H26A 6618   0.859   0.985   8.509  0.2807  0.4073 -1.7403
   56CHL1  H26B 6619   0.711   0.997   8.420 -0.7224 -0.7760  0.2021
   56CHL1  H26C 6620   0.773   1.147   8.481 -0.1684  0.0529  1.8348
   56CHL1   C27 6621   0.651   0.873   8.655  0.6027  0.6389  0.9445
   56CHL1  H27A 6622   0.590   0.839   8.741  1.5132 -2.6388  0.4260
   56CHL1  H27B 6623   0.581   0.842   8.575  2.3470  1.9392 -1.2049
   56CHL1  H27C 6624   0.737   0.803   8.650  0.2101  0.1112  1.4268
   57CHL1    C3 6625   1.190   6.169  10.195 -0.5070  0.1191  0.1369
   57CHL1    H3 6626   1.257   6.234  10.135  3.0735 -1.6418  1.9191
   57CHL1    O3 6627   1.221   6.195  10.333  0.2045 -0.2050 -0.4161
   57CHL1   H3' 6628   1.200   6.110  10.372  0.9129 -1.3594 -2.4092
   57CHL1    C4 6629   1.053   6.207  10.158  0.3011  0.3903  0.1147
   57CHL1   H4A 6630   0.981   6.165  10.231  0.9557 -1.2082 -0.1168
   57CHL1   H4B 6631   1.044   6.316  10.176  0.1446  0.4077 -0.0617
   57CHL1    C5 6632   1.008   6.169  10.015 -0.3089 -0.3098  0.1936
   57CHL1    C6 6633   0.952   6.260   9.927  0.3465  1.0118 -0.4564
   57CHL1    H6 6634   0.926   6.362   9.960 -0.7201  1.4035 -2.3618
   57CHL1    C7 6635   0.910   6.224   9.784  0.2138 -0.6944 -0.8283
   57CHL1   H7A 6636   0.812   6.273   9.764  0.0929 -0.4338  0.3037
   57CHL1   H7B 6637   0.975   6.278   9.711 -0.4315 -1.7162 -2.1909
   57CHL1    C8 6638   0.913   6.070   9.756  0.5324  0.4697  0.1278
   57CHL1    H8 6639   0.818   6.020   9.786  1.0559 -0.1140  0.8514
   57CHL1   C14 6640   0.920   6.049   9.604 -0.5327 -0.2440 -0.0310
   57CHL1   H14 6641   1.021   6.090   9.583 -0.9896  1.7402  1.3125
   57CHL1   C15 6642   0.830   6.124   9.514 -0.2659 -0.3707  0.2383
   57CHL1  H15A 6643   0.724   6.094   9.524 -1.1106  1.6394 -1.7121
   57CHL1  H15B 6644   0.847   6.234   9.512 -0.9949 -0.2568  0.3319
   57CHL1   C16 6645   0.878   6.073   9.371 -0.0185 -0.0372 -0.3938
   57CHL1  H16A 6646   0.786   6.066   9.309  1.3301  1.6331 -2.7179
   57CHL1  H16B 6647   0.951   6.142   9.325 -0.9163  0.7661 -0.6349
   57CHL1   C17 6648   0.948   5.939   9.393  0.1811  0.6932  0.0088
   57CHL1   H17 6649   1.056   5.961   9.387 -0.7066  6.2513 -0.8139
   57CHL1   C13 6650   0.923   5.905   9.550 -0.0483  0.3354 -0.2412
   57CHL1   C18 6651   0.780   5.837   9.557  0.4109  0.3373 -1.0647
   57CHL1  H18A 6652   0.707   5.874   9.482 -2.1382 -0.3810  0.9015
   57CHL1  H18B 6653   0.789   5.727   9.551  0.8375  0.2323  0.7101
   57CHL1  H18C 6654   0.750   5.858   9.662 -0.2871  0.6761 -1.3297
   57CHL1   C12 6655   1.033   5.831   9.622  0.7063 -0.2175 -0.7295
   57CHL1  H12A 6656   1.025   5.724   9.594 -0.3329 -0.9541  2.0238
   57CHL1  H12B 6657   1.125   5.878   9.581  0.3869  2.6527  1.4521
   57CHL1   C11 6658   1.033   5.848   9.776  0.4130  0.0996  0.7603
   57CHL1  H11A 6659   0.938   5.799   9.807  0.2568  1.1941  2.1215
   57CHL1  H11B 6660   1.117   5.787   9.816 -0.6405 -2.4131 -0.5940
   57CHL1    C9 6661   1.032   5.997   9.818 -0.1834 -0.2284  0.1299
   57CHL1    H9 6662   1.118   6.055   9.778  0.5612 -0.7115  0.9797
   57CHL1   C10 6663   1.040   6.020   9.970  0.3344 -0.1374  0.1457
   57CHL1   C19 6664   0.952   5.923  10.035 -0.6335  0.2527 -0.2328
   57CHL1  H19A 6665   0.982   5.816  10.036  2.1819  0.9235  2.4606
   57CHL1  H19B 6666   0.952   5.945  10.144  0.9476 -0.1355 -0.1281
   57CHL1  H19C 6667   0.846   5.938  10.005 -0.3672  0.7670 -0.9354
   57CHL1    C1 6668   1.187   5.998  10.014  0.5545  0.3931  0.5979
   57CHL1   H1A 6669   1.217   5.893   9.994 -3.7280 -1.4056  2.2497
   57CHL1   H1B 6670   1.251   6.057   9.946  2.1980 -1.2043  0.6921
   57CHL1    C2 6671   1.219   6.019  10.168  0.1262  0.0385 -0.0952
   57CHL1   H2A 6672   1.328   5.998  10.177 -0.3739 -2.4640  0.7051
   57CHL1   H2B 6673   1.165   5.950  10.235 -0.8299  0.3271 -0.5405
   57CHL1   C20 6674   0.903   5.843   9.292 -0.1510  0.4172  0.1886
   57CHL1   H20 6675   0.794   5.821   9.292 -0.0106 -0.3674  1.1152
   57CHL1   C21 6676   0.977   5.711   9.305 -0.2974 -0.9643  0.1473
   57CHL1  H21A 6677   1.084   5.712   9.334 -0.6254 -0.4767  1.4080
   57CHL1  H21B 6678   0.970   5.648   9.214 -1.0221 -0.7378  0.0409
   57CHL1  H21C 6679   0.925   5.640   9.374 -1.9575  0.2013  0.1414
   57CHL1   C22 6680   0.933   5.908   9.148 -0.3173 -0.0118 -0.0786
   57CHL1  H22A 6681   0.868   5.996   9.126 -1.0932 -0.8723 -1.3963
   57CHL1  H22B 6682   1.039   5.940   9.157  0.8668 -3.5466 -0.1547
   57CHL1   C23 6683   0.909   5.816   9.027  0.2777  0.4154  0.2192
   57CHL1  H23A 6684   0.970   5.871   8.953  0.7006  0.0517  0.2998
   57CHL1  H23B 6685   0.943   5.711   9.031  2.3411  1.0058 -0.8464
   57CHL1   C24 6686   0.761   5.833   8.996 -0.6276 -0.1108  0.8151
   57CHL1  H24A 6687   0.704   5.789   9.081  0.5435 -2.3173  0.5180
   57CHL1  H24B 6688   0.735   5.940   8.981 -1.1924 -0.2625  0.6585
   57CHL1   C25 6689   0.725   5.752   8.869  0.3331 -0.6430  0.4731
   57CHL1   H25 6690   0.775   5.803   8.783 -0.0469  0.7105  1.0235
   57CHL1   C26 6691   0.775   5.607   8.862 -0.0309 -0.7383 -0.3470
   57CHL1  H26A 6692   0.756   5.542   8.950 -1.2761  0.4957  0.3375
   57CHL1  H26B 6693   0.732   5.557   8.773 -1.9249 -0.1543  0.2001
   57CHL1  H26C 6694   0.885   5.619   8.848  0.1074  1.3111  1.7570
   57CHL1   C27 6695   0.572   5.771   8.830  0.2296 -0.9736  0.3324
   57CHL1  H27A 6696   0.558   5.710   8.738  0.6024 -0.1335 -0.2953
   57CHL1  H27B 6697   0.500   5.732   8.904 -1.3212 -2.4810 -1.8425
   57CHL1  H27C 6698   0.554   5.878   8.807  2.4302 -0.5637  0.2213
   58CHL1    C3 6699   3.176   1.857  10.295 -0.2751  0.1349  0.3005
   58CHL1    H3 6700   3.218   1.945  10.241  1.8079  0.1905  1.9230
   58CHL1    O3 6701   3.178   1.885  10.430  0.4992  0.5588  0.1672
   58CHL1   H3' 6702   3.135   1.970  10.441 -1.4414 -0.1097 -1.5067
   58CHL1    C4 6703   3.029   1.812  10.269  0.2751 -0.9292  0.0614
   58CHL1   H4A 6704   3.009   1.740  10.352  1.3775 -0.4832  0.7391
   58CHL1   H4B 6705   2.962   1.898  10.290  1.5778 -0.5990  3.4266
   58CHL1    C5 6706   2.997   1.753  10.131  0.1041  0.1989 -0.0861
   58CHL1    C6 6707   2.894   1.796  10.056 -1.1194  0.4676  0.8038
   58CHL1    H6 6708   2.830   1.867  10.110  0.9761  1.3540  2.2468
   58CHL1    C7 6709   2.870   1.756   9.915  0.8147  0.2828 -0.2940
   58CHL1   H7A 6710   2.761   1.738   9.912  0.7391  0.8356 -1.3592
   58CHL1   H7B 6711   2.895   1.842   9.849  1.5437  0.1593 -0.1900
   58CHL1    C8 6712   2.958   1.637   9.875 -0.3044  0.1612 -0.4146
   58CHL1    H8 6713   2.914   1.544   9.917 -0.7294  0.5443 -0.0111
   58CHL1   C14 6714   2.957   1.633   9.724 -0.1160 -0.1275 -0.3417
   58CHL1   H14 6715   3.018   1.724   9.702  0.8383 -0.4770  0.7505
   58CHL1   C15 6716   2.825   1.657   9.647 -0.6261 -0.2681 -0.0945
   58CHL1  H15A 6717   2.744   1.606   9.703  0.7403 -2.4639 -0.0058
   58CHL1  H15B 6718   2.807   1.767   9.641 -2.5622 -0.4391  1.4453
   58CHL1   C16 6719   2.853   1.586   9.512  0.1740 -0.4232 -0.1079
   58CHL1  H16A 6720   2.778   1.506   9.493 -1.0484  0.9886 -1.4575
   58CHL1  H16B 6721   2.849   1.661   9.430 -0.7393  1.6099  1.6919
   58CHL1   C17 6722   2.998   1.524   9.519 -0.3007  0.4467  0.9228
   58CHL1   H17 6723   3.072   1.599   9.482 -1.1070  1.7775  1.9409
   58CHL1   C13 6724   3.030   1.511   9.664  0.0666  0.5285 -0.0944
   58CHL1   C18 6725   2.973   1.374   9.717 -0.4223 -0.6306  0.1596
   58CHL1  H18A 6726   2.985   1.358   9.826  2.3640 -1.0525 -0.1255
   58CHL1  H18B 6727   2.867   1.365   9.686 -0.6738 -1.0945  1.1123
   58CHL1  H18C 6728   3.025   1.285   9.676  0.7250 -0.6120  1.4854
   58CHL1   C12 6729   3.179   1.530   9.697  1.1133 -0.1942  0.4890
   58CHL1  H12A 6730   3.233   1.442   9.658 -0.8690 -0.8136 -0.9990
   58CHL1  H12B 6731   3.228   1.612   9.640  1.8829 -0.1646  1.1641
   58CHL1   C11 6732   3.197   1.542   9.851  0.5830 -0.2153 -0.8024
   58CHL1  H11A 6733   3.172   1.443   9.896 -2.7497  0.6837 -0.4174
   58CHL1  H11B 6734   3.299   1.574   9.880  0.7220 -0.8936 -0.5277
   58CHL1    C9 6735   3.108   1.644   9.922  0.4623 -0.3635 -0.2167
   58CHL1    H9 6736   3.151   1.742   9.890  2.0108 -0.2729  1.8656
   58CHL1   C10 6737   3.107   1.655  10.078  0.6439  0.3227 -0.5219
   58CHL1   C19 6738   3.063   1.517  10.148  0.8343  0.2724  0.1288
   58CHL1  H19A 6739   2.966   1.489  10.102  1.0360  2.1967 -1.6561
   58CHL1  H19B 6740   3.125   1.425  10.146 -1.7639 -1.5596 -1.0858
   58CHL1  H19C 6741   3.039   1.523  10.256 -0.7314 -0.4275 -0.1486
   58CHL1    C1 6742   3.249   1.697  10.120  0.2272  0.0736  0.0053
   58CHL1   H1A 6743   3.313   1.607  10.107 -2.3579 -1.8891 -0.0915
   58CHL1   H1B 6744   3.280   1.779  10.052  0.1907 -0.0922 -0.2145
   58CHL1    C2 6745   3.266   1.738  10.267 -0.2271 -0.2399  0.0738
   58CHL1   H2A 6746   3.369   1.776  10.283 -0.6090  0.5456  0.7214
   58CHL1   H2B 6747   3.243   1.654  10.336  1.6565 -0.7171  0.1708
   58CHL1   C20 6748   3.007   1.409   9.418 -0.0404  0.8416  0.4534
   58CHL1   H20 6749   2.955   1.321   9.461  1.5095 -0.1816  0.3176
   58CHL1   C21 6750   3.150   1.360   9.398 -0.6119  0.6448  0.1155
   58CHL1  H21A 6751   3.204   1.355   9.495 -1.8145  0.9739  0.8293
   58CHL1  H21B 6752   3.213   1.427   9.336  2.9354 -2.5681 -0.0941
   58CHL1  H21C 6753   3.160   1.258   9.356 -0.1581 -1.0551  3.9019
   58CHL1   C22 6754   2.943   1.445   9.275 -0.6048  0.3522 -0.1023
   58CHL1  H22A 6755   2.839   1.477   9.293 -0.3346  0.0012  2.3472
   58CHL1  H22B 6756   3.002   1.528   9.230 -2.4854  2.0749  0.4732
   58CHL1   C23 6757   2.956   1.343   9.161  0.3615 -0.2431 -0.0422
   58CHL1  H23A 6758   3.063   1.334   9.132  0.1487  0.8247 -1.2848
   58CHL1  H23B 6759   2.912   1.244   9.183  2.4483 -1.0835  0.5658
   58CHL1   C24 6760   2.898   1.398   9.029 -0.0933  0.2993  0.0868
   58CHL1  H24A 6761   2.788   1.412   9.037 -0.1549  0.0466 -0.2851
   58CHL1  H24B 6762   2.951   1.494   9.011  1.4859 -0.7855 -1.3550
   58CHL1   C25 6763   2.942   1.309   8.907  0.5657  0.1306 -0.0229
   58CHL1   H25 6764   3.053   1.318   8.896  0.5404  1.2486  0.4937
   58CHL1   C26 6765   2.900   1.163   8.921 -0.1233 -0.4689  0.4191
   58CHL1  H26A 6766   2.934   1.107   8.831 -0.9526  0.5709 -0.5749
   58CHL1  H26B 6767   2.953   1.113   9.005 -1.3102 -1.1119  0.8238
   58CHL1  H26C 6768   2.790   1.149   8.926  0.0857 -2.5284  0.3861
   58CHL1   C27 6769   2.858   1.354   8.784 -0.1149 -0.0932  0.5444
   58CHL1  H27A 6770   2.748   1.346   8.793 -0.0787  0.3000  1.4525
   58CHL1  H27B 6771   2.882   1.459   8.753 -0.8841  0.7846  2.7477
   58CHL1  H27C 6772   2.891   1.289   8.700 -1.7682  0.5209 -0.6337
   59CHL1    C3 6773   2.943   1.003  10.384  0.2603 -0.2819  0.5919
   59CHL1    H3 6774   2.860   0.930  10.373 -0.8308  1.1183 -1.0000
   59CHL1    O3 6775   2.948   1.030  10.523  0.1389 -0.1678  0.3464
   59CHL1   H3' 6776   3.000   0.960  10.562  0.7828  0.4165  0.5633
   59CHL1    C4 6777   3.072   0.942  10.326  0.0439  0.5343  0.1760
   59CHL1   H4A 6778   3.164   1.003  10.341  1.0319 -1.1266  1.2727
   59CHL1   H4B 6779   3.081   0.857  10.397  1.2469 -0.9009 -1.6066
   59CHL1    C5 6780   3.050   0.904  10.175  0.2388 -0.0970 -0.0208
   59CHL1    C6 6781   3.073   0.774  10.141 -0.1972 -0.3002 -0.6165
   59CHL1    H6 6782   3.131   0.716  10.215 -0.1675  0.7532  0.2287
   59CHL1    C7 6783   3.059   0.717   9.995 -0.2419 -0.8438  0.4026
   59CHL1   H7A 6784   3.155   0.663   9.984 -0.3986 -1.5773  2.2033
   59CHL1   H7B 6785   2.973   0.647   9.984 -1.2294  0.3508  0.2394
   59CHL1    C8 6786   3.054   0.838   9.896 -0.4531  0.4076  0.3026
   59CHL1    H8 6787   3.157   0.880   9.891 -0.1348 -0.4249 -0.2888
   59CHL1   C14 6788   3.027   0.783   9.756  0.4523 -0.1717  0.3529
   59CHL1   H14 6789   2.933   0.726   9.770  1.2299 -2.2013 -1.9429
   59CHL1   C15 6790   3.124   0.683   9.696 -0.4947  0.0984 -0.2183
   59CHL1  H15A 6791   3.226   0.725   9.706 -0.8876  0.6981  1.7466
   59CHL1  H15B 6792   3.117   0.582   9.743  0.6000  0.1500  0.0753
   59CHL1   C16 6793   3.080   0.674   9.551 -0.5736 -0.9445 -0.1037
   59CHL1  H16A 6794   3.170   0.693   9.489 -0.0748 -0.0725  0.8609
   59CHL1  H16B 6795   3.041   0.577   9.512 -3.4028 -0.0070  0.1740
   59CHL1   C17 6796   2.988   0.798   9.529  0.1768  0.7655 -0.0850
   59CHL1   H17 6797   2.884   0.768   9.555  1.3909 -0.7239  3.6827
   59CHL1   C13 6798   3.006   0.888   9.650 -1.0976  0.3701 -0.7519
   59CHL1   C18 6799   3.132   0.972   9.630  0.5456  0.2188 -1.3213
   59CHL1  H18A 6800   3.229   0.923   9.608  0.9494 -1.0562  2.6045
   59CHL1  H18B 6801   3.105   1.036   9.543 -1.2338  1.1426 -0.1435
   59CHL1  H18C 6802   3.155   1.036   9.718  2.1066 -0.9433 -0.8419
   59CHL1   C12 6803   2.890   0.983   9.698  0.3037 -1.0691  0.1038
   59CHL1  H12A 6804   2.858   1.056   9.620  2.2561  0.2106  0.4284
   59CHL1  H12B 6805   2.803   0.914   9.701  0.3281 -1.3768 -2.8998
   59CHL1   C11 6806   2.920   1.042   9.831  0.7733  0.1162  0.8997
   59CHL1  H11A 6807   3.007   1.109   9.814  0.5192 -0.1145 -1.7090
   59CHL1  H11B 6808   2.836   1.110   9.856  1.5631  0.9248  1.4124
   59CHL1    C9 6809   2.959   0.942   9.947 -0.1887  0.4090  0.0728
   59CHL1    H9 6810   2.864   0.888   9.966 -0.4342  0.2248 -1.5513
   59CHL1   C10 6811   2.995   1.008  10.082 -0.2213  0.1509 -0.0133
   59CHL1   C19 6812   3.112   1.112  10.063 -0.7399 -0.2390  0.0395
   59CHL1  H19A 6813   3.153   1.150  10.158  2.6409 -2.8294 -0.1805
   59CHL1  H19B 6814   3.201   1.075  10.007  0.1407  1.3917  0.3239
   59CHL1  H19C 6815   3.087   1.200  10.000  1.3709  1.0061  0.8393
   59CHL1    C1 6816   2.880   1.076  10.149 -0.1573 -0.7841  0.0618
   59CHL1   H1A 6817   2.834   1.160  10.093  1.0828 -0.2542 -0.1967
   59CHL1   H1B 6818   2.799   1.001  10.158  0.0308 -1.1403 -1.0015
   59CHL1    C2 6819   2.902   1.125  10.293 -0.3176  0.1495 -0.5721
   59CHL1   H2A 6820   2.805   1.166  10.330  1.6016  1.8905  3.0444
   59CHL1   H2B 6821   2.977   1.207  10.291 -0.3138  0.1406 -0.9313
   59CHL1   C20 6822   2.991   0.858   9.388  0.0782  0.5230 -0.2376
   59CHL1   H20 6823   3.087   0.915   9.379  0.3074  0.4157  1.2391
   59CHL1   C21 6824   2.885   0.965   9.364 -0.3955  0.6997 -0.4911
   59CHL1  H21A 6825   2.899   1.052   9.432 -1.2373  1.0227 -0.7114
   59CHL1  H21B 6826   2.790   0.922   9.403  2.5883 -3.2891  3.4220
   59CHL1  H21C 6827   2.883   1.011   9.263  1.6885 -1.0022 -1.3823
   59CHL1   C22 6828   2.996   0.751   9.270 -0.0870  0.6172  0.1070
   59CHL1  H22A 6829   3.080   0.681   9.288 -0.9274 -0.1292  1.2113
   59CHL1  H22B 6830   2.898   0.700   9.262 -1.2499  2.7743 -0.3326
   59CHL1   C23 6831   3.022   0.797   9.127  0.7723 -0.6967  0.7749
   59CHL1  H23A 6832   2.930   0.845   9.088 -0.2503 -2.2441  1.2137
   59CHL1  H23B 6833   3.105   0.871   9.131 -0.0509  0.3663 -0.7668
   59CHL1   C24 6834   3.060   0.679   9.041 -0.4957 -0.4495 -0.0075
   59CHL1  H24A 6835   3.156   0.634   9.075  0.4900 -0.2523 -2.3655
   59CHL1  H24B 6836   2.981   0.602   9.055 -0.5582 -0.3416  0.2307
   59CHL1   C25 6837   3.065   0.706   8.884  0.0175 -0.3771  0.3480
   59CHL1   H25 6838   3.103   0.618   8.827  0.7695 -0.1257  0.4560
   59CHL1   C26 6839   2.931   0.740   8.818  0.0039  0.3204 -0.1682
   59CHL1  H26A 6840   2.934   0.710   8.711  0.6562  0.7472 -0.2792
   59CHL1  H26B 6841   2.857   0.677   8.872  0.4473 -1.3816 -1.4831
   59CHL1  H26C 6842   2.902   0.846   8.837  0.5002 -0.0910  3.5732
   59CHL1   C27 6843   3.154   0.831   8.846  0.2859  0.0654  0.3021
   59CHL1  H27A 6844   3.124   0.925   8.896  1.3786  1.8877 -2.2403
   59CHL1  H27B 6845   3.254   0.797   8.879 -0.5900 -1.6316  1.3942
   59CHL1  H27C 6846   3.150   0.846   8.736  0.0807 -1.5662  0.0468
   60CHL1    C3 6847   2.502   0.062  10.147 -0.3363  0.0072 -0.3636
   60CHL1    H3 6848   2.605   0.079  10.109 -0.2015  0.2474  0.1030
   60CHL1    O3 6849   2.504   0.073  10.286 -0.0836  0.2976 -0.1563
   60CHL1   H3' 6850   2.577   0.018  10.316  0.7578  1.5381  0.1459
   60CHL1    C4 6851   2.402   0.174  10.105  0.7768  0.5308  0.1404
   60CHL1   H4A 6852   2.300   0.161  10.146  0.0509  1.3821 -1.3292
   60CHL1   H4B 6853   2.446   0.271  10.137 -0.5736  1.5302 -0.9208
   60CHL1    C5 6854   2.386   0.167   9.952  0.0019  0.3083  0.6258
   60CHL1    C6 6855   2.404   0.277   9.878  0.1287 -0.0081  0.4649
   60CHL1    H6 6856   2.428   0.364   9.940  2.6625 -2.5308  3.3454
   60CHL1    C7 6857   2.396   0.285   9.727 -0.4327  0.2052  0.3190
   60CHL1   H7A 6858   2.326   0.363   9.692 -1.1476  0.2953  1.8701
   60CHL1   H7B 6859   2.498   0.306   9.689  1.1648 -3.3729  2.0814
   60CHL1    C8 6860   2.348   0.152   9.664 -0.5479  0.6189  0.1133
   60CHL1    H8 6861   2.239   0.148   9.684 -0.4399  0.2737  0.6790
   60CHL1   C14 6862   2.371   0.150   9.512  0.1585  0.1706  0.8387
   60CHL1   H14 6863   2.482   0.157   9.503  0.1390 -0.3356  0.1326
   60CHL1   C15 6864   2.325   0.271   9.427  0.6381 -0.5053 -0.1747
   60CHL1  H15A 6865   2.220   0.294   9.458  0.4483 -2.2657  0.5932
   60CHL1  H15B 6866   2.394   0.358   9.433  0.9229 -0.7973  0.9482
   60CHL1   C16 6867   2.321   0.213   9.277  0.0518  0.1649 -0.3133
   60CHL1  H16A 6868   2.215   0.222   9.245  0.6987  2.4605 -1.9757
   60CHL1  H16B 6869   2.390   0.271   9.213 -0.0184 -0.5581 -1.0701
   60CHL1   C17 6870   2.361   0.064   9.295  0.3832  0.0855  0.2863
   60CHL1   H17 6871   2.470   0.056   9.278  0.2327  1.0421 -1.3360
   60CHL1   C13 6872   2.325   0.018   9.440 -0.2645 -0.8956  0.7492
   60CHL1   C18 6873   2.176   0.011   9.454  0.4078 -0.7101  0.2026
   60CHL1  H18A 6874   2.127   0.092   9.396 -0.8788 -0.0848  2.0466
   60CHL1  H18B 6875   2.143  -0.091   9.426 -1.0407 -0.4377  0.8138
   60CHL1  H18C 6876   2.137   0.032   9.557  0.3548  2.7885 -0.4057
   60CHL1   C12 6877   2.395  -0.098   9.506 -0.6898  0.2152  0.5675
   60CHL1  H12A 6878   2.362  -0.190   9.452  0.7882 -0.7423  1.2365
   60CHL1  H12B 6879   2.505  -0.086   9.497 -0.7673  1.2976  0.8798
   60CHL1   C11 6880   2.378  -0.098   9.659  0.1992  0.8970  0.3491
   60CHL1  H11A 6881   2.270  -0.117   9.682  0.1405 -0.7063 -1.1075
   60CHL1  H11B 6882   2.444  -0.180   9.695 -1.0432 -0.8198 -1.1015
   60CHL1    C9 6883   2.411   0.030   9.735  0.1727 -0.4724 -0.4145
   60CHL1    H9 6884   2.521   0.047   9.736 -0.1206  1.5872 -0.3886
   60CHL1   C10 6885   2.372   0.030   9.887 -0.2023  0.0558  1.0922
   60CHL1   C19 6886   2.221  -0.010   9.904 -0.7651  0.2039 -0.9437
   60CHL1  H19A 6887   2.142   0.061   9.873 -0.7859  0.5807 -0.0595
   60CHL1  H19B 6888   2.199  -0.115   9.872 -1.5894  0.4676 -1.2694
   60CHL1  H19C 6889   2.199  -0.017  10.013  1.5478  0.3540 -0.4108
   60CHL1    C1 6890   2.461  -0.084   9.955 -0.8227  0.0366  0.8614
   60CHL1   H1A 6891   2.426  -0.182   9.916 -1.2532  0.2139  0.7907
   60CHL1   H1B 6892   2.565  -0.065   9.922 -0.4924 -0.8327  1.3882
   60CHL1    C2 6893   2.453  -0.073  10.104 -0.0395 -0.0646 -0.5865
   60CHL1   H2A 6894   2.528  -0.143  10.145  0.8811 -0.6698 -3.1430
   60CHL1   H2B 6895   2.352  -0.096  10.146  0.0387 -0.9461 -0.8714
   60CHL1   C20 6896   2.283  -0.010   9.185  0.3159 -0.2094  0.0850
   60CHL1   H20 6897   2.175  -0.007   9.209  0.7029 -0.9378  2.1293
   60CHL1   C21 6898   2.325  -0.155   9.177  0.1819  0.3549 -0.0024
   60CHL1  H21A 6899   2.310  -0.203   9.078  1.9697 -2.1832  0.8591
   60CHL1  H21B 6900   2.284  -0.223   9.255  1.6829 -0.7524 -0.1266
   60CHL1  H21C 6901   2.435  -0.145   9.191  0.2323  1.7824 -1.2031
   60CHL1   C22 6902   2.301   0.031   9.031 -1.2827 -0.3313 -0.6196
   60CHL1  H22A 6903   2.328   0.138   9.031  3.5805 -1.3520  0.3339
   60CHL1  H22B 6904   2.386  -0.019   8.979 -0.1661  1.2887 -0.3939
   60CHL1   C23 6905   2.178   0.006   8.945  0.0890 -0.2380 -0.3831
   60CHL1  H23A 6906   2.141  -0.098   8.957  0.9224 -0.5561 -0.5133
   60CHL1  H23B 6907   2.107   0.078   8.992  2.8409  3.1879 -1.0051
   60CHL1   C24 6908   2.210   0.029   8.797 -0.2004 -0.5920  0.5659
   60CHL1  H24A 6909   2.234   0.135   8.774 -0.1745 -0.6909  0.1217
   60CHL1  H24B 6910   2.292  -0.039   8.768  0.2616 -0.0668  0.6220
   60CHL1   C25 6911   2.085   0.007   8.705 -0.0019 -0.0207  0.0113
   60CHL1   H25 6912   2.005   0.078   8.735  2.6899  2.7610  1.2125
   60CHL1   C26 6913   2.129   0.034   8.563 -0.6403  0.6056  0.5039
   60CHL1  H26A 6914   2.217  -0.032   8.551 -1.3373 -0.5430  1.4574
   60CHL1  H26B 6915   2.052  -0.002   8.492 -0.2255  0.1166  0.2968
   60CHL1  H26C 6916   2.159   0.140   8.554  1.6107 -0.0449 -0.2160
   60CHL1   C27 6917   2.028  -0.135   8.717  0.5289  0.4753  0.3482
   60CHL1  H27A 6918   2.084  -0.220   8.674 -1.4466 -0.1535 -1.1638
   60CHL1  H27B 6919   2.011  -0.149   8.826 -0.6718 -0.9109  0.0146
   60CHL1  H27C 6920   1.929  -0.141   8.666  1.1718 -0.0059 -0.8945
   61CHL1    C3 6921   2.941   6.436  10.170  0.7908  0.2066 -0.2574
   61CHL1    H3 6922   2.950   6.328  10.145  0.2218  0.1222 -0.0884
   61CHL1    O3 6923   2.970   6.470  10.305 -0.6752  0.3849  0.3891
   61CHL1   H3' 6924   2.899   6.426  10.353  0.9592 -1.4302  1.2616
   61CHL1    C4 6925   3.048   6.505  10.096 -1.2891 -0.0995 -0.2588
   61CHL1   H4A 6926   3.037   6.613  10.117 -0.2964 -0.2805  1.3781
   61CHL1   H4B 6927   3.144   6.480  10.146 -0.5042 -0.6067 -1.9597
   61CHL1    C5 6928   3.040   6.480   9.945  0.7125  0.2321  0.5004
   61CHL1    C6 6929   3.137   6.411   9.876  0.8833 -1.4564 -0.4704
   61CHL1    H6 6930   3.231   6.371   9.919  0.5342 -2.7132 -0.8272
   61CHL1    C7 6931   3.125   6.393   9.730 -0.2559  0.2200  0.3465
   61CHL1   H7A 6932   3.212   6.439   9.677 -0.7101  1.5071  0.6782
   61CHL1   H7B 6933   3.112   6.292   9.687 -0.0354  1.3557 -2.6901
   61CHL1    C8 6934   3.007   6.483   9.663  0.6917  0.5038  0.4722
   61CHL1    H8 6935   3.045   6.588   9.662 -1.8162  1.4821 -0.5368
   61CHL1   C14 6936   2.994   6.450   9.511 -0.5154 -0.7066 -0.2058
   61CHL1   H14 6937   2.960   6.345   9.518  1.1568 -1.2547  0.0834
   61CHL1   C15 6938   3.118   6.439   9.428 -0.5165 -0.5226  0.0557
   61CHL1  H15A 6939   3.184   6.523   9.458 -1.5951 -0.3581  2.1485
   61CHL1  H15B 6940   3.185   6.352   9.446 -0.7236 -0.9350 -1.0515
   61CHL1   C16 6941   3.060   6.421   9.289 -0.0962  0.2179 -0.5729
   61CHL1  H16A 6942   3.101   6.499   9.221 -0.2068  0.3642 -0.4721
   61CHL1  H16B 6943   3.080   6.319   9.250 -0.3831 -0.6906  1.5252
   61CHL1   C17 6944   2.902   6.453   9.294  0.4391 -0.2483 -0.3608
   61CHL1   H17 6945   2.844   6.360   9.310 -2.5263  1.1891 -1.8881
   61CHL1   C13 6946   2.890   6.520   9.432 -0.0259 -0.2717  0.3344
   61CHL1   C18 6947   2.935   6.668   9.411 -0.2994 -0.0379  0.0664
   61CHL1  H18A 6948   2.921   6.719   9.508 -0.7149 -1.4705  0.7902
   61CHL1  H18B 6949   3.038   6.686   9.372 -0.5197 -0.7991 -0.9121
   61CHL1  H18C 6950   2.871   6.728   9.343 -1.3373 -1.4921 -0.2863
   61CHL1   C12 6951   2.760   6.504   9.515 -0.0671  0.1885 -0.2941
   61CHL1  H12A 6952   2.665   6.545   9.474 -0.9315 -2.0594 -0.6605
   61CHL1  H12B 6953   2.744   6.394   9.512  2.4001 -0.3301  1.8425
   61CHL1   C11 6954   2.767   6.554   9.658  0.4580 -0.0152 -0.3706
   61CHL1  H11A 6955   2.786   6.664   9.656 -1.0797  0.2617 -0.8534
   61CHL1  H11B 6956   2.673   6.532   9.712  0.4124  0.0750 -0.4126
   61CHL1    C9 6957   2.878   6.483   9.745  0.1613  0.7727  0.5257
   61CHL1    H9 6958   2.843   6.378   9.745 -1.5531  1.2833 -1.0342
   61CHL1   C10 6959   2.898   6.527   9.892 -0.2218 -0.4769 -0.3762
   61CHL1   C19 6960   2.903   6.686   9.896 -0.3460  0.0131  0.1585
   61CHL1  H19A 6961   2.971   6.739   9.826 -0.5692  0.6090  0.3878
   61CHL1  H19B 6962   2.799   6.722   9.896 -1.0822 -1.9401 -1.2804
   61CHL1  H19C 6963   2.923   6.727   9.998  1.2223 -1.2267  0.4033
   61CHL1    C1 6964   2.782   6.459   9.974  0.2908 -0.3837  0.4211
   61CHL1   H1A 6965   2.682   6.485   9.933  1.1683 -0.2446 -1.7885
   61CHL1   H1B 6966   2.794   6.350   9.956 -0.4794 -0.4308  0.1564
   61CHL1    C2 6967   2.803   6.480  10.126  0.2512 -0.2417 -0.3452
   61CHL1   H2A 6968   2.723   6.425  10.181  0.8260 -0.4600  0.2840
   61CHL1   H2B 6969   2.781   6.587  10.143  1.0746  0.0157 -0.8802
   61CHL1   C20 6970   2.858   6.528   9.170  0.4573 -0.4160 -0.2877
   61CHL1   H20 6971   2.927   6.612   9.147  2.5681 -1.8956  0.3840
   61CHL1   C21 6972   2.706   6.571   9.192 -0.6203  0.5908  0.3246
   61CHL1  H21A 6973   2.692   6.648   9.272  0.2743  1.7217 -0.5748
   61CHL1  H21B 6974   2.641   6.483   9.209  0.7204 -0.2437  1.3708
   61CHL1  H21C 6975   2.669   6.619   9.099  0.6455  2.0452  0.5235
   61CHL1   C22 6976   2.868   6.426   9.050 -0.4501  0.3874 -0.3857
   61CHL1  H22A 6977   2.974   6.394   9.042 -0.2097  1.0515  0.0237
   61CHL1  H22B 6978   2.801   6.342   9.077 -1.1542  1.2367  0.5839
   61CHL1   C23 6979   2.840   6.484   8.912 -0.3215  0.3981 -0.3970
   61CHL1  H23A 6980   2.737   6.521   8.894 -0.8786 -1.7756 -2.1817
   61CHL1  H23B 6981   2.914   6.566   8.899  1.3804 -0.7063  1.6302
   61CHL1   C24 6982   2.862   6.387   8.802  0.2951  0.3232  0.5857
   61CHL1  H24A 6983   2.959   6.333   8.811  1.0070  1.3855 -0.3392
   61CHL1  H24B 6984   2.781   6.311   8.801 -1.0389  1.7111  0.6407
   61CHL1   C25 6985   2.877   6.460   8.662 -0.6271  0.1255 -0.0108
   61CHL1   H25 6986   2.782   6.509   8.632 -0.3196 -0.2873 -1.7399
   61CHL1   C26 6987   2.980   6.581   8.663  0.0640  0.5756 -0.0466
   61CHL1  H26A 6988   2.968   6.657   8.744  0.5873  2.7046 -1.8683
   61CHL1  H26B 6989   3.086   6.546   8.662  0.4767  1.7629  0.2859
   61CHL1  H26C 6990   2.969   6.625   8.562 -0.5732  2.8888  0.9644
   61CHL1   C27 6991   2.914   6.356   8.555  0.1792  0.1623 -0.6331
   61CHL1  H27A 6992   2.953   6.394   8.459  3.4129  2.6888  1.4394
   61CHL1  H27B 6993   3.000   6.298   8.594  0.6691  0.5250 -1.1564
   61CHL1  H27C 6994   2.830   6.288   8.532 -0.3022  0.5571 -0.0844
   62CHL1    C3 6995   2.079   3.593  10.000  0.1760 -0.2963 -0.0813
   62CHL1    H3 6996   1.986   3.545  10.036  0.8458 -1.2993  0.3668
   62CHL1    O3 6997   2.145   3.656  10.111  0.0973 -0.4372  0.2342
   62CHL1   H3' 6998   2.073   3.717  10.131 -1.1228 -1.6579 -0.2398
   62CHL1    C4 6999   2.180   3.497   9.932 -0.3677  0.6225 -0.2232
   62CHL1   H4A 7000   2.277   3.551   9.929  2.9261 -4.5466  0.6203
   62CHL1   H4B 7001   2.206   3.416  10.004 -1.1476 -0.5955 -1.2581
   62CHL1    C5 7002   2.156   3.457   9.792 -0.1048 -0.3197 -0.3253
   62CHL1    C6 7003   2.169   3.329   9.760  0.3407  0.0439 -0.2083
   62CHL1    H6 7004   2.201   3.259   9.839  0.8471  0.5331  0.0311
   62CHL1    C7 7005   2.165   3.276   9.619  0.7617  0.0742 -0.0172
   62CHL1   H7A 7006   2.256   3.217   9.594 -0.1326 -0.2583 -2.8523
   62CHL1   H7B 7007   2.084   3.201   9.625  0.9012 -0.0642  0.1577
   62CHL1    C8 7008   2.140   3.387   9.510  0.0525 -0.5370 -0.3680
   62CHL1    H8 7009   2.240   3.420   9.474  0.1776 -1.0330 -0.4904
   62CHL1   C14 7010   2.071   3.322   9.389  0.3728  0.1595  0.4820
   62CHL1   H14 7011   1.972   3.288   9.426 -0.9525  1.8145 -1.3084
   62CHL1   C15 7012   2.129   3.198   9.328 -0.4108 -0.1840  0.1235
   62CHL1  H15A 7013   2.237   3.213   9.305 -0.8016 -1.4829 -2.9581
   62CHL1  H15B 7014   2.136   3.099   9.377  1.1756 -1.7810 -3.0873
   62CHL1   C16 7015   2.062   3.193   9.197 -0.1558 -0.1574 -0.4943
   62CHL1  H16A 7016   2.142   3.170   9.123 -0.5628  0.2959 -1.0802
   62CHL1  H16B 7017   1.993   3.107   9.183 -1.1180  0.7890 -1.7927
   62CHL1   C17 7018   1.975   3.323   9.174  0.1955  0.2423 -0.0602
   62CHL1   H17 7019   1.873   3.309   9.215 -0.8127  2.0793 -1.7435
   62CHL1   C13 7020   2.040   3.422   9.272 -0.0951  0.4017  0.6167
   62CHL1   C18 7021   2.169   3.475   9.199 -0.4769  0.1052  0.3037
   62CHL1  H18A 7022   2.222   3.387   9.158 -0.3153  0.9529 -1.4104
   62CHL1  H18B 7023   2.131   3.535   9.113 -1.5285 -1.1709 -0.1360
   62CHL1  H18C 7024   2.226   3.535   9.274  1.5649 -0.5518 -0.6321
   62CHL1   C12 7025   1.958   3.533   9.337 -0.2485 -0.0651 -0.6026
   62CHL1  H12A 7026   1.926   3.622   9.279  1.2499  0.9092 -0.0178
   62CHL1  H12B 7027   1.866   3.493   9.384 -0.6305  1.5119  0.0562
   62CHL1   C11 7028   2.030   3.612   9.457 -0.4109  0.1434 -0.2068
   62CHL1  H11A 7029   2.116   3.668   9.413 -1.5255  1.8776 -0.3010
   62CHL1  H11B 7030   1.964   3.691   9.500 -2.0219 -1.4701  0.4051
   62CHL1    C9 7031   2.063   3.509   9.567 -0.3888  0.1419  0.9519
   62CHL1    H9 7032   1.962   3.467   9.588 -1.5820  1.5263 -1.4587
   62CHL1   C10 7033   2.113   3.567   9.699 -0.3776  0.6202  0.1015
   62CHL1   C19 7034   2.246   3.638   9.668  0.7005  0.6874 -0.4295
   62CHL1  H19A 7035   2.244   3.710   9.583 -0.7932  1.3516  0.1346
   62CHL1  H19B 7036   2.281   3.694   9.757  2.0818 -1.7175  0.6075
   62CHL1  H19C 7037   2.330   3.572   9.637  1.0461  1.3049 -0.8391
   62CHL1    C1 7038   2.012   3.670   9.764 -0.3624  0.2508 -0.2103
   62CHL1   H1A 7039   2.007   3.760   9.699 -3.0403  0.6205  0.4099
   62CHL1   H1B 7040   1.906   3.636   9.766 -1.0976  2.3702 -0.9762
   62CHL1    C2 7041   2.046   3.709   9.907 -0.1826 -0.6286 -0.5308
   62CHL1   H2A 7042   1.963   3.773   9.944  0.4603  0.1320 -0.3609
   62CHL1   H2B 7043   2.139   3.768   9.892 -0.1599 -0.7568 -0.9043
   62CHL1   C20 7044   1.950   3.360   9.032 -0.5838 -0.3197 -0.1025
   62CHL1   H20 7045   2.046   3.375   8.979 -0.0673  0.6797  1.0945
   62CHL1   C21 7046   1.872   3.492   9.018 -0.5089  0.2652 -0.6069
   62CHL1  H21A 7047   1.872   3.527   8.912  1.5878  1.8782 -0.1495
   62CHL1  H21B 7048   1.927   3.574   9.069 -1.2982  0.8121 -0.6261
   62CHL1  H21C 7049   1.770   3.474   9.058  0.5380  0.1102  2.2196
   62CHL1   C22 7050   1.892   3.243   8.954 -0.2050  0.5620 -0.5228
   62CHL1  H22A 7051   1.947   3.148   8.972 -0.2537  0.7378  0.6138
   62CHL1  H22B 7052   1.792   3.229   9.001  1.2180 -0.3298  2.5028
   62CHL1   C23 7053   1.874   3.260   8.802  0.4054  0.5651  0.4861
   62CHL1  H23A 7054   1.800   3.339   8.776  2.1572  1.6337 -1.6490
   62CHL1  H23B 7055   1.964   3.288   8.744  0.3441  0.9674  0.5824
   62CHL1   C24 7056   1.827   3.127   8.740  0.4774  0.2576 -0.8380
   62CHL1  H24A 7057   1.915   3.060   8.745 -0.3732 -0.8895 -0.9115
   62CHL1  H24B 7058   1.744   3.081   8.797  1.9928 -1.7943 -0.1523
   62CHL1   C25 7059   1.784   3.130   8.598  0.7429  0.8333 -0.4291
   62CHL1   H25 7060   1.852   3.185   8.530  0.6312  1.8382  0.2445
   62CHL1   C26 7061   1.781   2.984   8.555  0.3890  0.0399 -0.3381
   62CHL1  H26A 7062   1.732   2.915   8.626 -1.7071  0.7871 -0.9660
   62CHL1  H26B 7063   1.747   2.969   8.450 -0.8398 -1.5104  0.2431
   62CHL1  H26C 7064   1.890   2.968   8.545  0.6859  1.4796  0.3327
   62CHL1   C27 7065   1.648   3.193   8.566  0.1141 -0.9700  0.4625
   62CHL1  H27A 7066   1.620   3.170   8.461 -0.0656 -1.1690  0.5553
   62CHL1  H27B 7067   1.576   3.131   8.623 -0.3241 -0.7659  0.1356
   62CHL1  H27C 7068   1.636   3.300   8.595  1.5056 -1.1648  1.8930
   63CHL1    C3 7069   3.236   0.169  10.243  0.6548  0.2259 -0.4729
   63CHL1    H3 7070   3.130   0.157  10.214 -0.0191  0.0902  1.8439
   63CHL1    O3 7071   3.255   0.147  10.384  0.0875  0.2714  0.3227
   63CHL1   H3' 7072   3.219   0.061  10.407 -0.4319  0.2897 -0.4025
   63CHL1    C4 7073   3.301   0.054  10.161 -0.8843 -0.4082 -0.4841
   63CHL1   H4A 7074   3.407   0.054  10.194 -1.2361  1.2693  0.7978
   63CHL1   H4B 7075   3.270  -0.047  10.191  1.3762 -1.1615 -0.4641
   63CHL1    C5 7076   3.291   0.081  10.007 -0.2285  0.1700  0.2901
   63CHL1    C6 7077   3.246  -0.009   9.929  0.9370  0.3488  0.3337
   63CHL1    H6 7078   3.210  -0.104   9.972 -0.1173  0.9392  0.7959
   63CHL1    C7 7079   3.240   0.015   9.782 -0.6263  0.1476 -0.1911
   63CHL1   H7A 7080   3.268  -0.085   9.742 -0.4267 -0.1020  0.5486
   63CHL1   H7B 7081   3.141   0.048   9.745  0.5635  1.4832 -2.4032
   63CHL1    C8 7082   3.331   0.122   9.728 -0.8844  0.1750  0.5137
   63CHL1    H8 7083   3.437   0.092   9.735 -0.0586  2.3392 -1.5519
   63CHL1   C14 7084   3.302   0.148   9.582  0.2996  0.7725  0.2886
   63CHL1   H14 7085   3.198   0.187   9.577 -0.5720 -1.4892 -0.5588
   63CHL1   C15 7086   3.294   0.021   9.484 -0.1534  0.4085  0.3976
   63CHL1  H15A 7087   3.384  -0.044   9.490 -0.5237 -0.3193 -1.3497
   63CHL1  H15B 7088   3.201  -0.033   9.509  1.1574 -2.5655 -0.6643
   63CHL1   C16 7089   3.308   0.086   9.349  0.0170  0.2761  0.4871
   63CHL1  H16A 7090   3.383   0.020   9.299 -1.3854  0.1131 -1.4692
   63CHL1  H16B 7091   3.217   0.067   9.289 -0.1501 -0.4959  0.9694
   63CHL1   C17 7092   3.341   0.236   9.370 -0.1496  0.2118 -0.2061
   63CHL1   H17 7093   3.239   0.279   9.362  0.4397  1.4740 -1.2844
   63CHL1   C13 7094   3.396   0.249   9.512 -0.0252  0.4408  0.4426
   63CHL1   C18 7095   3.542   0.208   9.530 -0.3804  0.0832 -0.1505
   63CHL1  H18A 7096   3.568   0.195   9.637  0.2342  1.3080 -0.1380
   63CHL1  H18B 7097   3.576   0.120   9.472  1.6459 -0.4726  1.7535
   63CHL1  H18C 7098   3.596   0.300   9.499 -0.6768  0.1676 -0.4246
   63CHL1   C12 7099   3.373   0.380   9.594  0.5247  0.0463  0.8173
   63CHL1  H12A 7100   3.450   0.452   9.559  1.8098 -2.0449 -0.8919
   63CHL1  H12B 7101   3.267   0.406   9.573 -0.0554 -1.8808  1.1697
   63CHL1   C11 7102   3.394   0.370   9.745  0.1691  0.5028 -0.1431
   63CHL1  H11A 7103   3.500   0.364   9.775 -0.1819 -0.3932  0.9910
   63CHL1  H11B 7104   3.354   0.465   9.788 -2.5893 -0.5599 -0.1370
   63CHL1    C9 7105   3.316   0.255   9.810  0.4992  0.0835 -0.1366
   63CHL1    H9 7106   3.209   0.278   9.789  0.7607  0.3765 -1.1880
   63CHL1   C10 7107   3.338   0.223   9.964  0.1937  0.5275  0.3811
   63CHL1   C19 7108   3.488   0.237   9.987  0.3454  0.3263  0.4682
   63CHL1  H19A 7109   3.546   0.185   9.908  0.9353  0.2667  0.9295
   63CHL1  H19B 7110   3.521   0.343   9.997  0.7402  0.1201  1.5268
   63CHL1  H19C 7111   3.525   0.191  10.082 -2.5785 -1.5943  0.8171
   63CHL1    C1 7112   3.272   0.328  10.048  0.2653 -0.0693 -0.6048
   63CHL1   H1A 7113   3.305   0.431  10.023  0.6378  0.4292  1.6928
   63CHL1   H1B 7114   3.166   0.315  10.017  0.4524 -3.1181 -0.2692
   63CHL1    C2 7115   3.293   0.312  10.204 -0.2095 -0.3229  0.2425
   63CHL1   H2A 7116   3.216   0.385  10.237  0.6030  0.2413  0.9448
   63CHL1   H2B 7117   3.393   0.343  10.241  0.5659 -1.3929 -0.8910
   63CHL1   C20 7118   3.424   0.289   9.260  0.2047 -0.2968 -0.4405
   63CHL1   H20 7119   3.524   0.242   9.265 -0.6077 -2.0026  1.1962
   63CHL1   C21 7120   3.447   0.439   9.280 -0.4053 -0.1539  0.0316
   63CHL1  H21A 7121   3.528   0.462   9.353  0.7905  1.1790 -1.6037
   63CHL1  H21B 7122   3.354   0.488   9.317 -1.4194 -4.0191  3.2831
   63CHL1  H21C 7123   3.478   0.475   9.179  0.6564 -0.8110  0.1055
   63CHL1   C22 7124   3.374   0.256   9.113  0.3414  0.5436 -0.3257
   63CHL1  H22A 7125   3.431   0.307   9.032  1.9550 -1.8730 -0.7937
   63CHL1  H22B 7126   3.394   0.147   9.104 -1.5477  0.0755  0.6614
   63CHL1   C23 7127   3.231   0.284   9.076  0.7449  0.5458 -0.0203
   63CHL1  H23A 7128   3.161   0.243   9.152 -1.9451  0.4881 -2.3583
   63CHL1  H23B 7129   3.212   0.393   9.083  0.8507  0.5272  0.6422
   63CHL1   C24 7130   3.198   0.244   8.935 -0.7588 -0.2162 -0.7366
   63CHL1  H24A 7131   3.090   0.241   8.910 -0.5632 -0.2846 -1.5895
   63CHL1  H24B 7132   3.247   0.320   8.871 -1.9089  1.4638  0.3017
   63CHL1   C25 7133   3.254   0.104   8.886  0.2964  0.0479 -0.2346
   63CHL1   H25 7134   3.363   0.083   8.894  0.1636 -1.0539 -1.0033
   63CHL1   C26 7135   3.187  -0.005   8.981  0.6390 -0.2314  0.4007
   63CHL1  H26A 7136   3.079   0.020   8.990  0.9074  0.2788  3.0633
   63CHL1  H26B 7137   3.203  -0.100   8.926  2.4385  0.2067  0.1153
   63CHL1  H26C 7138   3.244  -0.009   9.076 -0.8919  1.1830  1.4530
   63CHL1   C27 7139   3.227   0.087   8.737  0.1149 -0.5062  0.1201
   63CHL1  H27A 7140   3.286   0.167   8.686  0.8313 -1.8618 -1.2445
   63CHL1  H27B 7141   3.258  -0.017   8.716 -1.3775 -0.7403 -1.0664
   63CHL1  H27C 7142   3.122   0.102   8.705  0.2695  0.5156  0.0629
   64CHL1    C3 7143   0.648   5.653   9.893 -0.1682 -0.7981 -0.3845
   64CHL1    H3 7144   0.675   5.730   9.818  0.6163 -1.3751 -0.7034
   64CHL1    O3 7145   0.633   5.705  10.023  0.6714 -0.5484 -0.0571
   64CHL1   H3' 7146   0.663   5.633  10.080 -3.0775 -1.2930  1.2926
   64CHL1    C4 7147   0.519   5.585   9.848 -0.7730  0.2128  0.8747
   64CHL1   H4A 7148   0.490   5.504   9.918 -1.6036 -0.0256  0.2668
   64CHL1   H4B 7149   0.432   5.652   9.864  0.0377  1.0904  1.8004
   64CHL1    C5 7150   0.538   5.537   9.708 -1.0137  0.6380 -0.1014
   64CHL1    C6 7151   0.461   5.575   9.607 -0.2835 -0.1824 -0.5186
   64CHL1    H6 7152   0.375   5.641   9.625 -1.3558 -1.0812 -2.0701
   64CHL1    C7 7153   0.482   5.534   9.466  0.0901  0.1548 -0.1444
   64CHL1   H7A 7154   0.385   5.509   9.418 -0.3508 -1.0196  1.2813
   64CHL1   H7B 7155   0.545   5.613   9.419  1.5726 -0.2007  1.1609
   64CHL1    C8 7156   0.566   5.408   9.446  0.6161  0.0971  0.1729
   64CHL1    H8 7157   0.511   5.317   9.479  1.6347 -0.6512 -0.1709
   64CHL1   C14 7158   0.597   5.391   9.297  0.1848  0.7973 -0.3068
   64CHL1   H14 7159   0.656   5.482   9.273 -0.3863  1.4757  0.7904
   64CHL1   C15 7160   0.477   5.389   9.198  0.0439 -0.0173 -0.3777
   64CHL1  H15A 7161   0.396   5.324   9.236 -1.1046  1.0307 -0.9489
   64CHL1  H15B 7162   0.435   5.492   9.190 -1.3095 -0.3809  1.4304
   64CHL1   C16 7163   0.537   5.337   9.070 -0.9479  0.5705  0.2000
   64CHL1  H16A 7164   0.492   5.243   9.033  0.1917 -1.8509  4.3466
   64CHL1  H16B 7165   0.541   5.420   8.996  1.4427  1.7170  1.4919
   64CHL1   C17 7166   0.687   5.297   9.104 -0.5186  0.0091  0.2610
   64CHL1   H17 7167   0.744   5.391   9.089 -2.0396  0.7434 -1.2172
   64CHL1   C13 7168   0.689   5.269   9.258 -0.6925 -0.0521 -0.0706
   64CHL1   C18 7169   0.612   5.139   9.292 -1.2479  0.4589  0.3427
   64CHL1  H18A 7170   0.602   5.130   9.402  0.4553  3.3522  0.8359
   64CHL1  H18B 7171   0.509   5.138   9.252 -0.3986 -2.8585 -2.1978
   64CHL1  H18C 7172   0.662   5.051   9.245 -1.5448  1.2924 -1.6484
   64CHL1   C12 7173   0.819   5.286   9.337 -0.8646 -0.5391  0.6233
   64CHL1  H12A 7174   0.879   5.194   9.318 -0.0962 -0.1681  1.1982
   64CHL1  H12B 7175   0.870   5.375   9.293  2.2953 -2.0208  0.9932
   64CHL1   C11 7176   0.805   5.323   9.481  0.5951 -0.6447 -0.6608
   64CHL1  H11A 7177   0.782   5.224   9.525  0.2485 -0.4718 -0.4500
   64CHL1  H11B 7178   0.903   5.362   9.516  0.1254  1.3020 -1.4050
   64CHL1    C9 7179   0.696   5.425   9.520 -0.2486  0.4426 -0.2579
   64CHL1    H9 7180   0.734   5.523   9.485 -2.0165  1.0161 -0.7015
   64CHL1   C10 7181   0.666   5.451   9.673 -0.0350 -0.7341  0.2614
   64CHL1   C19 7182   0.624   5.311   9.729 -0.2948 -0.4926  0.0624
   64CHL1  H19A 7183   0.707   5.239   9.716  0.0362 -0.1491  0.2620
   64CHL1  H19B 7184   0.598   5.308   9.837 -0.4646 -1.8703 -0.0035
   64CHL1  H19C 7185   0.533   5.278   9.674 -1.6490  1.7004  0.8230
   64CHL1    C1 7186   0.788   5.507   9.745  0.4389  0.0098 -0.1515
   64CHL1   H1A 7187   0.875   5.437   9.747 -0.2496 -0.8463  1.1778
   64CHL1   H1B 7188   0.818   5.598   9.689 -0.4733  0.6332  0.3460
   64CHL1    C2 7189   0.772   5.555   9.891  0.4828 -0.0819 -0.6287
   64CHL1   H2A 7190   0.865   5.592   9.940  0.8917 -3.1793  1.1842
   64CHL1   H2B 7191   0.756   5.465   9.954  0.9398  0.1479 -0.1793
   64CHL1   C20 7192   0.745   5.194   9.005  1.2121 -0.0914 -0.2289
   64CHL1   H20 7193   0.707   5.093   9.032  0.5058 -0.1361 -1.3390
   64CHL1   C21 7194   0.900   5.189   9.037  0.7100 -0.2086 -0.3765
   64CHL1  H21A 7195   0.949   5.289   9.047 -0.4282  0.3860 -0.5182
   64CHL1  H21B 7196   0.945   5.145   8.946  1.6191 -0.5937  0.2521
   64CHL1  H21C 7197   0.914   5.124   9.126 -0.9748  0.2552  0.2741
   64CHL1   C22 7198   0.709   5.217   8.854  0.7915  0.2889 -0.0287
   64CHL1  H22A 7199   0.609   5.259   8.834  1.6813  1.6721 -1.8462
   64CHL1  H22B 7200   0.782   5.290   8.813  0.5358 -0.1200 -1.2587
   64CHL1   C23 7201   0.710   5.087   8.776  0.5877  0.9839 -0.1628
   64CHL1  H23A 7202   0.808   5.038   8.793  0.5615  1.4166  1.4412
   64CHL1  H23B 7203   0.639   5.020   8.830 -1.3406  3.6978  0.8396
   64CHL1   C24 7204   0.669   5.090   8.629 -0.3157  0.0580 -0.8958
   64CHL1  H24A 7205   0.564   5.123   8.622 -1.0468 -1.6546  0.9975
   64CHL1  H24B 7206   0.734   5.168   8.584 -1.0812  2.0871  1.3457
   64CHL1   C25 7207   0.696   4.955   8.557 -0.4727  0.5667  0.7963
   64CHL1   H25 7208   0.805   4.934   8.560 -0.3708  1.1436  2.7125
   64CHL1   C26 7209   0.623   4.839   8.617  0.5244  0.1493 -0.0564
   64CHL1  H26A 7210   0.644   4.757   8.546  0.4945 -0.8403  1.0332
   64CHL1  H26B 7211   0.673   4.804   8.711  0.5434  1.3964  0.4209
   64CHL1  H26C 7212   0.513   4.847   8.630  0.6563  0.7323  0.8276
   64CHL1   C27 7213   0.646   4.974   8.407 -0.3684 -0.0107  0.4105
   64CHL1  H27A 7214   0.638   4.876   8.356  0.4858  0.1658 -0.0798
   64CHL1  H27B 7215   0.548   5.023   8.390  0.6443  1.9377 -0.1132
   64CHL1  H27C 7216   0.721   5.035   8.353 -0.4227 -0.4238 -0.1357
   65CHL1    C3 7217   5.180   1.326  10.151 -0.1168  0.1574  0.4202
   65CHL1    H3 7218   5.157   1.221  10.125  0.0683 -0.0275  0.9966
   65CHL1    O3 7219   5.209   1.344  10.290  0.3784  0.0960 -0.1512
   65CHL1   H3' 7220   5.219   1.439  10.305  0.7345 -0.1778  1.5704
   65CHL1    C4 7221   5.302   1.375  10.077 -0.6635  0.2312  0.3001
   65CHL1   H4A 7222   5.321   1.482  10.099  2.3420  0.3173 -1.9924
   65CHL1   H4B 7223   5.395   1.326  10.114 -0.3841 -0.0233 -0.6995
   65CHL1    C5 7224   5.278   1.352   9.924 -0.7493  0.1542 -0.1416
   65CHL1    C6 7225   5.362   1.276   9.853  0.7470  0.0956  0.1376
   65CHL1    H6 7226   5.450   1.232   9.903  2.9840  2.6187 -1.3284
   65CHL1    C7 7227   5.342   1.236   9.710 -0.1408 -0.0592  0.4375
   65CHL1   H7A 7228   5.444   1.244   9.666 -0.3669  1.4964  0.1574
   65CHL1   H7B 7229   5.300   1.134   9.692  3.3772 -1.5641 -0.1915
   65CHL1    C8 7230   5.247   1.343   9.631 -0.2231 -0.1826  0.1162
   65CHL1    H8 7231   5.304   1.437   9.613  0.9952 -0.6640  1.2542
   65CHL1   C14 7232   5.210   1.290   9.496  0.5971 -0.2744 -0.5629
   65CHL1   H14 7233   5.149   1.202   9.522 -2.6841  1.7787 -0.8002
   65CHL1   C15 7234   5.316   1.235   9.402  0.6914  0.2694  0.0738
   65CHL1  H15A 7235   5.409   1.295   9.412  1.1318 -0.7444  4.4971
   65CHL1  H15B 7236   5.340   1.128   9.414  0.2026  0.1315 -0.1379
   65CHL1   C16 7237   5.250   1.249   9.264 -0.0098 -0.1140 -0.9047
   65CHL1  H16A 7238   5.309   1.330   9.218  0.0794  0.1100 -0.4067
   65CHL1  H16B 7239   5.250   1.151   9.211  0.9301 -0.6780  0.0987
   65CHL1   C17 7240   5.099   1.301   9.284 -0.1356 -0.1202 -0.4100
   65CHL1   H17 7241   5.041   1.210   9.309 -1.7066  0.5459 -1.4211
   65CHL1   C13 7242   5.120   1.386   9.411  0.2701 -0.2383 -0.3985
   65CHL1   C18 7243   5.199   1.517   9.384  0.1318  0.2479 -0.7094
   65CHL1  H18A 7244   5.303   1.499   9.346  1.3326  3.0169  1.0133
   65CHL1  H18B 7245   5.132   1.575   9.317 -1.8249 -1.6617 -0.5304
   65CHL1  H18C 7246   5.202   1.581   9.474 -2.3818 -0.2610 -0.2013
   65CHL1   C12 7247   4.992   1.407   9.492  0.6280  0.3901  0.0582
   65CHL1  H12A 7248   4.950   1.495   9.440  2.5354  3.3067  2.9979
   65CHL1  H12B 7249   4.932   1.314   9.495  0.7952  0.2990  0.9634
   65CHL1   C11 7250   5.016   1.456   9.643  0.3153  0.3306  0.0655
   65CHL1  H11A 7251   5.059   1.557   9.629 -2.8594  1.6789 -0.8780
   65CHL1  H11B 7252   4.919   1.470   9.694  0.8270 -0.0764  1.1869
   65CHL1    C9 7253   5.121   1.369   9.716 -0.0348 -0.8596 -0.1340
   65CHL1    H9 7254   5.074   1.269   9.729 -0.3686 -0.4057  2.8103
   65CHL1   C10 7255   5.159   1.428   9.859  0.2387  0.4160  0.2943
   65CHL1   C19 7256   5.203   1.567   9.851 -0.6509  1.0381 -0.0571
   65CHL1  H19A 7257   5.216   1.618   9.949 -1.7169  1.2734 -0.0255
   65CHL1  H19B 7258   5.299   1.583   9.799 -1.7907  0.1083 -2.5818
   65CHL1  H19C 7259   5.132   1.633   9.795  1.0214  1.6605 -1.5258
   65CHL1    C1 7260   5.037   1.407   9.956  0.2562 -0.0857 -1.1755
   65CHL1   H1A 7261   4.954   1.477   9.929  0.6269  1.3802  1.2178
   65CHL1   H1B 7262   5.011   1.300   9.947  2.3762 -1.4771  4.7199
   65CHL1    C2 7263   5.067   1.419  10.108  0.8264 -0.9936 -0.0033
   65CHL1   H2A 7264   4.976   1.384  10.161  0.3393  0.4029  0.1329
   65CHL1   H2B 7265   5.083   1.526  10.132 -3.7049  0.0375 -0.7157
   65CHL1   C20 7266   5.053   1.362   9.158 -0.3934 -0.6857  0.8599
   65CHL1   H20 7267   5.078   1.467   9.132 -0.1569 -0.8366  0.4577
   65CHL1   C21 7268   4.897   1.365   9.176 -0.0322  0.4973 -0.2786
   65CHL1  H21A 7269   4.857   1.398   9.078  0.4041 -0.0986 -0.6633
   65CHL1  H21B 7270   4.861   1.424   9.263  1.7668 -0.6220  1.2837
   65CHL1  H21C 7271   4.860   1.263   9.202 -0.0932  0.9163  1.3822
   65CHL1   C22 7272   5.094   1.266   9.036  0.1313 -0.0911  0.2714
   65CHL1  H22A 7273   5.199   1.281   9.004  0.4052  2.1945  1.9783
   65CHL1  H22B 7274   5.078   1.161   9.069  2.4505 -0.4451  0.4440
   65CHL1   C23 7275   5.014   1.270   8.908  0.3374 -0.8227 -0.0751
   65CHL1  H23A 7276   4.907   1.241   8.913 -0.8175  2.2296 -3.0758
   65CHL1  H23B 7277   5.010   1.373   8.866 -0.4414 -0.0946  1.7199
   65CHL1   C24 7278   5.070   1.182   8.799 -0.6311 -0.9254  0.1148
   65CHL1  H24A 7279   5.181   1.188   8.787 -0.6824  2.1590  0.3382
   65CHL1  H24B 7280   5.043   1.080   8.834  1.6514 -1.1371  1.5074
   65CHL1   C25 7281   5.019   1.207   8.653  0.6686  0.1243  0.1480
   65CHL1   H25 7282   5.076   1.293   8.613  0.9480 -0.4987 -0.8473
   65CHL1   C26 7283   5.065   1.089   8.566 -0.3729  0.3400 -0.3222
   65CHL1  H26A 7284   5.175   1.071   8.572 -0.5826 -0.6861  0.8018
   65CHL1  H26B 7285   5.020   0.993   8.598  0.2313  0.0663 -0.2710
   65CHL1  H26C 7286   5.034   1.095   8.459  0.5833 -2.4186 -0.8405
   65CHL1   C27 7287   4.871   1.239   8.648 -0.0667 -0.3949 -0.0285
   65CHL1  H27A 7288   4.830   1.243   8.544 -1.9936 -1.6935  0.6293
   65CHL1  H27B 7289   4.810   1.163   8.700 -3.3735  2.6236  0.9465
   65CHL1  H27C 7290   4.851   1.333   8.704  3.7517 -1.4520  3.5584
   66CHL1    C3 7291   3.618   1.135  10.663  0.1468 -0.4522  0.3717
   66CHL1    H3 7292   3.677   1.052  10.620  1.4816  0.9248 -0.5643
   66CHL1    O3 7293   3.612   1.118  10.802  0.8394  0.2351 -0.5716
   66CHL1   H3' 7294   3.571   1.196  10.839  0.7618 -0.5534  1.0802
   66CHL1    C4 7295   3.686   1.260  10.611 -0.2167 -0.3424  0.3472
   66CHL1   H4A 7296   3.609   1.335  10.638 -1.4356 -1.6989  0.7651
   66CHL1   H4B 7297   3.785   1.265  10.661 -0.8128 -2.0690  1.8425
   66CHL1    C5 7298   3.699   1.250  10.460  0.4644  0.4445 -0.0692
   66CHL1    C6 7299   3.820   1.261  10.396  0.1120  0.7275 -0.2116
   66CHL1    H6 7300   3.909   1.285  10.455  0.2663 -1.8773  0.7623
   66CHL1    C7 7301   3.841   1.267  10.244  0.4315 -0.3991 -1.0312
   66CHL1   H7A 7302   3.920   1.343  10.225  0.8263 -0.7548 -0.8313
   66CHL1   H7B 7303   3.886   1.171  10.212  1.6766 -0.5139  0.8799
   66CHL1    C8 7304   3.712   1.293  10.164  0.2125 -0.2006 -0.1353
   66CHL1    H8 7305   3.685   1.400  10.168  0.8757  0.0481 -1.6362
   66CHL1   C14 7306   3.732   1.249  10.019 -0.1453 -1.0803 -0.1188
   66CHL1   H14 7307   3.739   1.138  10.021 -3.0391 -1.3488  1.7654
   66CHL1   C15 7308   3.854   1.306   9.942 -0.0813 -0.1671 -0.1903
   66CHL1  H15A 7309   3.875   1.413   9.963 -0.5381 -0.0175 -0.4758
   66CHL1  H15B 7310   3.946   1.247   9.959 -1.2603 -2.2266 -0.5962
   66CHL1   C16 7311   3.817   1.303   9.793 -0.2210  0.6538  0.0571
   66CHL1  H16A 7312   3.816   1.410   9.764 -0.6453  1.3304  2.3113
   66CHL1  H16B 7313   3.897   1.253   9.735 -1.2741  0.9540 -1.7320
   66CHL1   C17 7314   3.673   1.247   9.787  0.2626 -0.1685 -0.0677
   66CHL1   H17 7315   3.679   1.136   9.779  2.3100 -0.0580 -0.8171
   66CHL1   C13 7316   3.613   1.278   9.928 -0.6080 -0.0598 -0.1743
   66CHL1   C18 7317   3.572   1.424   9.931  0.3936 -0.7140  0.3801
   66CHL1  H18A 7318   3.490   1.445   9.860  1.5936  2.2142 -0.2889
   66CHL1  H18B 7319   3.544   1.462  10.031  0.7340 -0.8445  0.5290
   66CHL1  H18C 7320   3.654   1.489   9.894 -0.0406 -0.3150  0.1173
   66CHL1   C12 7321   3.498   1.191   9.996  0.9572 -0.3894  0.0041
   66CHL1  H12A 7322   3.406   1.221   9.940  0.5843 -0.8553  0.3631
   66CHL1  H12B 7323   3.529   1.085   9.980 -0.9345 -0.9171 -0.4902
   66CHL1   C11 7324   3.462   1.228  10.142  0.0299  0.2074  0.4701
   66CHL1  H11A 7325   3.427   1.333  10.146  1.4176  0.6932  0.5107
   66CHL1  H11B 7326   3.380   1.158  10.171 -1.5791  1.6816 -0.3657
   66CHL1    C9 7327   3.591   1.214  10.230  0.7863  0.1593 -0.7270
   66CHL1    H9 7328   3.622   1.111  10.204  0.7295  0.2782 -1.2790
   66CHL1   C10 7329   3.567   1.238  10.378 -0.4515  0.3674 -0.1048
   66CHL1   C19 7330   3.484   1.368  10.396  0.4986  0.3076 -0.5243
   66CHL1  H19A 7331   3.378   1.338  10.378  0.0858  1.2277  0.2848
   66CHL1  H19B 7332   3.488   1.425  10.491  1.1521  0.6664 -0.7590
   66CHL1  H19C 7333   3.519   1.444  10.322  0.1593  1.8880  0.8860
   66CHL1    C1 7334   3.481   1.118  10.445 -0.5067 -0.6117  0.0142
   66CHL1   H1A 7335   3.380   1.108  10.401 -0.4975  1.0254 -0.4507
   66CHL1   H1B 7336   3.529   1.018  10.434 -2.0728 -1.5421  1.2755
   66CHL1    C2 7337   3.477   1.129  10.604  0.9166  0.3077  0.3217
   66CHL1   H2A 7338   3.422   1.042  10.647 -0.7547  0.7701 -0.7703
   66CHL1   H2B 7339   3.414   1.217  10.628 -2.5641 -1.3467 -1.8388
   66CHL1   C20 7340   3.591   1.293   9.660  0.1916  0.1146 -0.1840
   66CHL1   H20 7341   3.595   1.404   9.659  0.7345  0.1148  0.7270
   66CHL1   C21 7342   3.454   1.236   9.666  0.3356  0.7155  0.0349
   66CHL1  H21A 7343   3.381   1.296   9.724  1.7519  1.5945  0.9666
   66CHL1  H21B 7344   3.456   1.141   9.724  0.9845  1.5340  1.3957
   66CHL1  H21C 7345   3.406   1.226   9.566  2.7156  0.7909 -1.1896
   66CHL1   C22 7346   3.669   1.258   9.526 -0.6264 -0.7568 -0.3973
   66CHL1  H22A 7347   3.771   1.299   9.539 -1.4213  0.4985  2.8287
   66CHL1  H22B 7348   3.680   1.148   9.518  2.3793 -0.5584 -0.0028
   66CHL1   C23 7349   3.608   1.311   9.400 -0.0075 -0.4638 -0.0269
   66CHL1  H23A 7350   3.684   1.286   9.323 -0.3843 -0.7760 -0.3045
   66CHL1  H23B 7351   3.512   1.259   9.382  0.2353 -1.1104  0.4830
   66CHL1   C24 7352   3.578   1.464   9.393 -0.2491  0.7191 -0.6205
   66CHL1  H24A 7353   3.508   1.500   9.472 -0.8817  2.5071 -1.9215
   66CHL1  H24B 7354   3.672   1.511   9.429 -0.4689  1.0602 -0.4869
   66CHL1   C25 7355   3.519   1.512   9.261 -0.7942 -0.0356  0.1941
   66CHL1   H25 7356   3.464   1.425   9.219  0.3253  0.6661 -3.0333
   66CHL1   C26 7357   3.417   1.633   9.264 -0.5785 -0.0204 -0.2158
   66CHL1  H26A 7358   3.332   1.611   9.332 -0.0947 -3.3174 -0.5185
   66CHL1  H26B 7359   3.472   1.726   9.290 -1.1430  0.2081  0.1601
   66CHL1  H26C 7360   3.382   1.638   9.158 -2.4830  0.5031  0.4012
   66CHL1   C27 7361   3.626   1.526   9.151  0.4695 -0.3300 -0.1959
   66CHL1  H27A 7362   3.699   1.443   9.160  0.4204 -0.1248  3.0261
   66CHL1  H27B 7363   3.592   1.519   9.046  1.7386  0.1261 -0.6674
   66CHL1  H27C 7364   3.688   1.617   9.164 -0.1131  0.2559 -1.3445
   67CHL1    C3 7365   5.960   0.174  10.210  0.3979  0.2969  0.2910
   67CHL1    H3 7366   5.871   0.234  10.182  0.3586 -0.7578 -1.9978
   67CHL1    O3 7367   5.986   0.180  10.348 -0.5244 -0.0883  0.3801
   67CHL1   H3' 7368   5.914   0.138  10.394  1.6004 -3.0037  1.3651
   67CHL1    C4 7369   5.947   0.028  10.170 -0.2532  0.1594 -0.4868
   67CHL1   H4A 7370   6.040  -0.022  10.204  0.1679  1.0052 -0.3636
   67CHL1   H4B 7371   5.857  -0.016  10.219 -0.9165  0.7963 -1.1141
   67CHL1    C5 7372   5.930   0.014  10.015  0.7593  0.2473  0.1591
   67CHL1    C6 7373   5.821  -0.052   9.972  0.1557 -0.3006 -0.2171
   67CHL1    H6 7374   5.769  -0.118  10.043  0.0610  0.5692  0.5427
   67CHL1    C7 7375   5.802  -0.071   9.825  0.2346  0.7371  0.0344
   67CHL1   H7A 7376   5.780  -0.176   9.796  0.5162  0.8295 -0.5434
   67CHL1   H7B 7377   5.719  -0.009   9.787 -1.1005 -0.6158  0.6263
   67CHL1    C8 7378   5.929  -0.039   9.731 -0.4924 -0.1061  0.1211
   67CHL1    H8 7379   6.001  -0.122   9.748 -0.1760  0.1978  0.2859
   67CHL1   C14 7380   5.880  -0.020   9.588  0.7227  0.0301 -0.5031
   67CHL1   H14 7381   5.813   0.068   9.600 -0.1061 -0.7933  1.2039
   67CHL1   C15 7382   5.793  -0.141   9.534  0.0538 -0.3129  0.0976
   67CHL1  H15A 7383   5.849  -0.229   9.573  1.7280  1.8864  3.1193
   67CHL1  H15B 7384   5.685  -0.136   9.560  0.6330  1.4181  2.6258
   67CHL1   C16 7385   5.816  -0.132   9.380  0.5268 -0.0662  0.7635
   67CHL1  H16A 7386   5.877  -0.216   9.340  0.8510 -0.7294  2.5748
   67CHL1  H16B 7387   5.714  -0.123   9.336  1.2401  0.0325 -0.9800
   67CHL1   C17 7388   5.910  -0.005   9.356  0.3691 -0.4454  0.2617
   67CHL1   H17 7389   5.842   0.083   9.352 -0.8379 -1.2673  1.7872
   67CHL1   C13 7390   5.987   0.006   9.485  0.0191  0.1243 -0.2267
   67CHL1   C18 7391   6.099  -0.099   9.490 -0.0003  0.2985 -0.1231
   67CHL1  H18A 7392   6.166  -0.078   9.404  0.1614  1.5608  0.2957
   67CHL1  H18B 7393   6.153  -0.110   9.586  1.8998 -1.7988 -1.3256
   67CHL1  H18C 7394   6.054  -0.200   9.474  0.7418 -0.0202 -0.2284
   67CHL1   C12 7395   6.043   0.141   9.528 -0.5779 -0.5024  0.1837
   67CHL1  H12A 7396   6.128   0.183   9.469 -1.1581  1.8264  0.9228
   67CHL1  H12B 7397   5.968   0.221   9.511  1.2319  1.2055 -0.0939
   67CHL1   C11 7398   6.086   0.150   9.676 -0.7092  0.0498 -0.0820
   67CHL1  H11A 7399   6.185   0.100   9.685 -0.6816  0.2611  0.9327
   67CHL1  H11B 7400   6.116   0.254   9.700  0.5436 -0.2970 -0.1188
   67CHL1    C9 7401   5.988   0.092   9.779 -0.4332  0.0112 -0.4281
   67CHL1    H9 7402   5.903   0.163   9.777  1.1754  2.1604  2.1660
   67CHL1   C10 7403   6.030   0.097   9.930  0.6122  0.0079 -0.0921
   67CHL1   C19 7404   6.166   0.037   9.937 -0.4479 -0.1080  0.5272
   67CHL1  H19A 7405   6.197   0.004  10.038 -1.2506  0.1396  0.8560
   67CHL1  H19B 7406   6.171  -0.055   9.874  0.8502  0.4735 -0.2855
   67CHL1  H19C 7407   6.236   0.114   9.899 -0.9443 -1.1527 -2.8623
   67CHL1    C1 7408   6.038   0.246   9.988  0.1573  0.0975 -0.3347
   67CHL1   H1A 7409   6.111   0.308   9.931  0.6500  1.3735  1.5861
   67CHL1   H1B 7410   5.941   0.299   9.978  1.5384  2.7949 -0.4818
   67CHL1    C2 7411   6.075   0.240  10.130  0.5436 -0.1216 -0.4827
   67CHL1   H2A 7412   6.089   0.340  10.175 -0.2238 -0.4455  0.5200
   67CHL1   H2B 7413   6.168   0.187  10.158  0.0895 -1.0259 -0.6448
   67CHL1   C20 7414   5.978   0.002   9.218  0.0558  0.0199 -0.1548
   67CHL1   H20 7415   6.060  -0.074   9.218 -1.1814 -1.3727  1.2604
   67CHL1   C21 7416   6.046   0.139   9.196  0.2727 -0.0831 -0.5253
   67CHL1  H21A 7417   6.140   0.152   9.254  0.3647 -2.1654 -0.0976
   67CHL1  H21B 7418   5.967   0.215   9.212 -0.3529 -0.8096 -0.0241
   67CHL1  H21C 7419   6.073   0.147   9.089 -2.0403  0.2865 -1.1252
   67CHL1   C22 7420   5.885  -0.039   9.094 -0.5764  0.0611 -0.0357
   67CHL1  H22A 7421   5.782  -0.001   9.110 -0.6460  0.3075 -1.0237
   67CHL1  H22B 7422   5.926   0.017   9.007  0.3201 -2.1020 -1.0590
   67CHL1   C23 7423   5.881  -0.183   9.049  0.0141  0.3320 -0.2596
   67CHL1  H23A 7424   5.829  -0.245   9.125  0.3607  0.3229 -0.0312
   67CHL1  H23B 7425   5.825  -0.182   8.953 -0.3657 -2.5904 -0.1663
   67CHL1   C24 7426   6.020  -0.247   9.015  0.0353  0.4343  0.8970
   67CHL1  H24A 7427   6.069  -0.177   8.945 -1.4613 -0.9391 -1.6709
   67CHL1  H24B 7428   6.089  -0.252   9.103  2.2324 -1.5791 -0.8027
   67CHL1   C25 7429   6.018  -0.380   8.941  0.1115  0.0608  0.1983
   67CHL1   H25 7430   5.956  -0.447   9.003 -1.0702 -0.8692 -1.8926
   67CHL1   C26 7431   5.939  -0.370   8.809  0.1077  0.0241 -0.7971
   67CHL1  H26A 7432   5.830  -0.348   8.821 -0.6025 -2.9521 -0.9074
   67CHL1  H26B 7433   5.984  -0.294   8.741 -0.1529 -0.7120 -1.8062
   67CHL1  H26C 7434   5.941  -0.465   8.753  0.1477  0.2655 -1.2058
   67CHL1   C27 7435   6.159  -0.435   8.914 -0.0605  0.3842 -0.2877
   67CHL1  H27A 7436   6.212  -0.388   8.828 -0.7888  1.3658 -0.2271
   67CHL1  H27B 7437   6.217  -0.426   9.008  0.4577 -0.8489 -0.4768
   67CHL1  H27C 7438   6.140  -0.540   8.884  0.1911  0.3395 -0.2949
   68CHL1    C3 7439   4.882   0.459  10.163 -0.0457  0.9394  0.1466
   68CHL1    H3 7440   4.804   0.386  10.133  0.1185  0.2645  1.2794
   68CHL1    O3 7441   4.894   0.482  10.302  0.2143  0.3100 -0.0297
   68CHL1   H3' 7442   4.956   0.555  10.310  0.1863  0.5042 -1.4056
   68CHL1    C4 7443   5.013   0.384  10.118  0.1548 -0.0216 -0.1306
   68CHL1   H4A 7444   5.101   0.449  10.140  0.3296 -0.1988 -0.3037
   68CHL1   H4B 7445   5.019   0.291  10.178 -0.2816 -1.0216 -1.5843
   68CHL1    C5 7446   5.019   0.353   9.972 -0.2478 -0.0547  0.3501
   68CHL1    C6 7447   5.015   0.219   9.941  0.4422 -0.3589 -0.4082
   68CHL1    H6 7448   5.032   0.141  10.016 -0.8048 -0.7160 -0.4639
   68CHL1    C7 7449   4.999   0.176   9.799 -0.1063 -0.6553 -0.0985
   68CHL1   H7A 7450   5.064   0.092   9.769  1.5595  1.0010 -1.3363
   68CHL1   H7B 7451   4.891   0.155   9.784 -0.5297  1.2140  0.0795
   68CHL1    C8 7452   5.044   0.284   9.698 -0.4100  0.6555  0.2556
   68CHL1    H8 7453   5.153   0.305   9.708 -0.7325  2.4762  0.4134
   68CHL1   C14 7454   5.000   0.247   9.555 -0.0897 -0.1721 -0.2227
   68CHL1   H14 7455   4.889   0.238   9.559 -0.0725 -0.1281  0.5022
   68CHL1   C15 7456   5.037   0.107   9.504 -0.1077  0.0619 -0.7694
   68CHL1  H15A 7457   5.144   0.104   9.534 -0.5703  2.4353  1.4815
   68CHL1  H15B 7458   4.980   0.021   9.545 -1.5499  0.9110 -0.9487
   68CHL1   C16 7459   5.021   0.126   9.350  0.4145  0.5613 -0.2745
   68CHL1  H16A 7460   5.118   0.095   9.306  0.5137 -0.6648  0.7509
   68CHL1  H16B 7461   4.939   0.061   9.313 -1.5439  2.3628  0.6261
   68CHL1   C17 7462   4.990   0.276   9.318 -0.4944 -0.8424 -0.3320
   68CHL1   H17 7463   4.879   0.275   9.307 -0.4668  0.0739 -0.8447
   68CHL1   C13 7464   5.027   0.348   9.451  0.6179 -1.1415  0.6045
   68CHL1   C18 7465   5.176   0.384   9.449 -0.1421 -0.4284 -0.3297
   68CHL1  H18A 7466   5.193   0.468   9.378  0.0056 -0.3298 -0.1756
   68CHL1  H18B 7467   5.219   0.428   9.541 -2.1118 -1.7807  1.3313
   68CHL1  H18C 7468   5.245   0.305   9.414  1.5385  0.2656  1.2473
   68CHL1   C12 7469   4.947   0.477   9.481  0.5161  0.4689 -0.4664
   68CHL1  H12A 7470   4.976   0.566   9.420 -0.2017  1.5954  0.7861
   68CHL1  H12B 7471   4.839   0.452   9.485  0.8054 -0.7704 -0.0149
   68CHL1   C11 7472   4.984   0.528   9.627  0.0008  0.6833 -0.1126
   68CHL1  H11A 7473   5.083   0.578   9.618  0.4868 -0.3786 -0.8466
   68CHL1  H11B 7474   4.912   0.612   9.641 -1.8235 -1.1493  2.2562
   68CHL1    C9 7475   4.972   0.418   9.736 -0.0557 -0.1216 -0.6656
   68CHL1    H9 7476   4.868   0.379   9.738 -0.1774  0.1124  2.7710
   68CHL1   C10 7477   4.998   0.467   9.875 -0.5766 -0.0778  0.0445
   68CHL1   C19 7478   5.129   0.558   9.880  0.0371 -0.2237  0.4521
   68CHL1  H19A 7479   5.216   0.514   9.827 -0.9995 -1.4693 -0.2878
   68CHL1  H19B 7480   5.100   0.654   9.834 -1.1944  0.1854  1.9743
   68CHL1  H19C 7481   5.149   0.602   9.980 -0.8590  3.4498 -0.8233
   68CHL1    C1 7482   4.886   0.556   9.929  0.2306 -0.4328 -0.4461
   68CHL1   H1A 7483   4.882   0.657   9.883  0.9634  0.2558  0.9304
   68CHL1   H1B 7484   4.787   0.511   9.907  0.0228 -0.5008  0.5951
   68CHL1    C2 7485   4.883   0.584  10.084 -0.0618  0.0771  0.1111
   68CHL1   H2A 7486   4.794   0.645  10.107 -0.5858 -0.7880  0.4187
   68CHL1   H2B 7487   4.971   0.648  10.109 -0.8441  1.1564  0.1348
   68CHL1   C20 7488   5.041   0.331   9.183 -0.1008 -0.2348  0.3966
   68CHL1   H20 7489   5.146   0.364   9.175 -0.4450  0.8986  0.3254
   68CHL1   C21 7490   4.971   0.467   9.154  0.3220 -0.4633 -0.0821
   68CHL1  H21A 7491   4.865   0.479   9.186  0.5715  0.3252  0.5074
   68CHL1  H21B 7492   4.968   0.495   9.047 -0.0711 -0.3926 -0.0569
   68CHL1  H21C 7493   5.021   0.551   9.208 -1.9318  0.3918  0.8102
   68CHL1   C22 7494   5.034   0.221   9.074 -0.1883 -0.0570  0.6501
   68CHL1  H22A 7495   5.104   0.143   9.110  0.9437  1.1345  1.1476
   68CHL1  H22B 7496   4.930   0.182   9.074 -0.3733  0.1447 -2.4206
   68CHL1   C23 7497   5.060   0.246   8.928  0.2480 -0.0683 -0.5219
   68CHL1  H23A 7498   4.979   0.316   8.899 -1.2237 -0.4043  2.3832
   68CHL1  H23B 7499   5.148   0.308   8.901 -0.3980  1.1896  0.1599
   68CHL1   C24 7500   5.050   0.118   8.841 -0.4813 -0.0347 -0.4119
   68CHL1  H24A 7501   5.145   0.064   8.857 -1.5572 -1.7753  0.3779
   68CHL1  H24B 7502   4.967   0.056   8.882 -1.8353  0.9544 -1.5323
   68CHL1   C25 7503   5.036   0.137   8.690  0.1956 -0.3743 -0.5490
   68CHL1   H25 7504   4.957   0.215   8.678 -0.3108 -0.5944  1.1109
   68CHL1   C26 7505   5.167   0.195   8.625 -0.1462  0.0641  0.1136
   68CHL1  H26A 7506   5.262   0.145   8.654 -0.2031  0.4940  1.0858
   68CHL1  H26B 7507   5.153   0.178   8.516  0.8291 -0.8520  0.1095
   68CHL1  H26C 7508   5.191   0.299   8.653 -0.5640 -0.0654  1.0117
   68CHL1   C27 7509   4.992   0.003   8.631 -0.3106 -0.3632  0.1684
   68CHL1  H27A 7510   4.887  -0.029   8.651 -0.1710 -0.2800  1.0971
   68CHL1  H27B 7511   5.002   0.015   8.521 -1.8948 -0.4537 -0.0145
   68CHL1  H27C 7512   5.055  -0.083   8.661 -0.1297  0.0379  0.9763
   69CHL1    C3 7513   4.440   6.504   6.700 -0.4672  0.7346 -0.1460
   69CHL1    H3 7514   4.430   6.613   6.681  1.2642  1.0283  0.3834
   69CHL1    O3 7515   4.439   6.446   6.569 -0.3856  0.1099 -0.2403
   69CHL1   H3' 7516   4.451   6.352   6.582  2.5270  0.2492 -1.1938
   69CHL1    C4 7517   4.579   6.473   6.770 -0.5043  0.6835  0.4532
   69CHL1   H4A 7518   4.591   6.363   6.765  1.7310  0.9012 -2.7205
   69CHL1   H4B 7519   4.668   6.499   6.708  0.0603 -1.3243  0.3498
   69CHL1    C5 7520   4.580   6.542   6.907 -0.1374 -0.4986 -0.1575
   69CHL1    C6 7521   4.675   6.640   6.942  0.1655  0.6279  0.3696
   69CHL1    H6 7522   4.752   6.656   6.865 -0.9604  2.6100 -0.4199
   69CHL1    C7 7523   4.685   6.693   7.078  0.4687 -0.0460  0.3097
   69CHL1   H7A 7524   4.785   6.671   7.119 -0.0076 -0.1693  1.4350
   69CHL1   H7B 7525   4.664   6.802   7.076 -0.9834 -0.2894  1.1181
   69CHL1    C8 7526   4.591   6.627   7.178  0.3440  0.1854 -0.3177
   69CHL1    H8 7527   4.632   6.525   7.190  0.1390 -0.0112 -1.2480
   69CHL1   C14 7528   4.574   6.710   7.302 -0.2648  0.5236  0.0633
   69CHL1   H14 7529   4.526   6.806   7.273 -0.4505  1.3041  2.6796
   69CHL1   C15 7530   4.708   6.758   7.367 -0.1059 -0.5451  0.1570
   69CHL1  H15A 7531   4.766   6.664   7.364  0.2382 -0.3253 -2.6659
   69CHL1  H15B 7532   4.752   6.842   7.308 -3.1728  0.4669 -0.9082
   69CHL1   C16 7533   4.645   6.795   7.506  0.9180  0.2207  0.1621
   69CHL1  H16A 7534   4.714   6.752   7.582  0.2986 -2.3790 -0.6476
   69CHL1  H16B 7535   4.653   6.906   7.517  2.7348 -0.0199  1.8878
   69CHL1   C17 7536   4.497   6.755   7.511  0.3709 -0.7055  0.7916
   69CHL1   H17 7537   4.444   6.836   7.457 -1.0566 -1.0366  1.6334
   69CHL1   C13 7538   4.486   6.647   7.406 -0.1280 -0.4301 -0.4555
   69CHL1   C18 7539   4.538   6.510   7.462 -0.4031  0.4542  0.7323
   69CHL1  H18A 7540   4.635   6.529   7.513  0.3452 -1.3228  0.0536
   69CHL1  H18B 7541   4.459   6.481   7.535 -1.1356  2.0266  0.6094
   69CHL1  H18C 7542   4.533   6.429   7.386  0.5155 -1.0739  2.2395
   69CHL1   C12 7543   4.345   6.636   7.346 -0.0213  0.2702  0.8961
   69CHL1  H12A 7544   4.271   6.600   7.420  0.0106  0.3541  0.9695
   69CHL1  H12B 7545   4.324   6.742   7.319  2.8386  0.5902 -0.4645
   69CHL1   C11 7546   4.341   6.557   7.222  0.1522  0.4175 -0.2588
   69CHL1  H11A 7547   4.351   6.450   7.250 -0.6543  0.9421  2.3081
   69CHL1  H11B 7548   4.243   6.561   7.168 -0.4912  2.3620  0.9506
   69CHL1    C9 7549   4.449   6.602   7.118 -1.0154 -0.3636 -0.3133
   69CHL1    H9 7550   4.412   6.698   7.076 -0.5689  0.3836  0.9392
   69CHL1   C10 7551   4.462   6.504   6.995 -0.4243 -0.1800 -0.3522
   69CHL1   C19 7552   4.494   6.356   7.032  0.2822  0.1121 -0.1719
   69CHL1  H19A 7553   4.496   6.295   6.939 -0.0757  2.6571 -1.9880
   69CHL1  H19B 7554   4.588   6.333   7.086  2.0202  3.0844 -1.6817
   69CHL1  H19C 7555   4.415   6.314   7.099  1.4485  0.2355  1.3177
   69CHL1    C1 7556   4.320   6.495   6.922 -0.2751 -0.5242 -0.3490
   69CHL1   H1A 7557   4.255   6.437   6.989  1.1036 -2.8602 -0.9028
   69CHL1   H1B 7558   4.273   6.596   6.916  0.1352 -0.3079 -0.0154
   69CHL1    C2 7559   4.330   6.429   6.783 -0.7960 -0.0645  0.1737
   69CHL1   H2A 7560   4.235   6.446   6.727 -0.8240 -0.5610  0.0642
   69CHL1   H2B 7561   4.358   6.322   6.792 -0.0850  0.2356  1.8328
   69CHL1   C20 7562   4.429   6.735   7.645  0.1744 -0.2523  1.0378
   69CHL1   H20 7563   4.362   6.648   7.631 -1.0672  1.1093 -2.5735
   69CHL1   C21 7564   4.340   6.859   7.666  0.4999  0.4279 -0.2858
   69CHL1  H21A 7565   4.291   6.866   7.765  1.2168 -0.7864  0.1780
   69CHL1  H21B 7566   4.274   6.874   7.577  0.6935  1.9748 -0.1973
   69CHL1  H21C 7567   4.415   6.941   7.662  1.8885 -0.7195  1.0069
   69CHL1   C22 7568   4.523   6.702   7.763 -0.4880 -0.2444  0.2011
   69CHL1  H22A 7569   4.596   6.623   7.736  1.2726  1.4917 -0.2917
   69CHL1  H22B 7570   4.578   6.792   7.797  1.2936 -0.4245 -2.0038
   69CHL1   C23 7571   4.455   6.643   7.894 -0.0122  0.4324  0.2158
   69CHL1  H23A 7572   4.369   6.694   7.944  0.4151  0.0958  1.3162
   69CHL1  H23B 7573   4.404   6.555   7.848  2.4018 -0.6051 -0.6458
   69CHL1   C24 7574   4.562   6.605   7.999  0.5161  0.3159  0.3373
   69CHL1  H24A 7575   4.537   6.517   8.062 -0.7050  0.9083  0.6964
   69CHL1  H24B 7576   4.656   6.574   7.948  0.0104  1.2711 -1.2102
   69CHL1   C25 7577   4.602   6.713   8.102 -0.2228  0.1004 -0.4235
   69CHL1   H25 7578   4.637   6.805   8.052  1.2654 -0.1098  0.1877
   69CHL1   C26 7579   4.482   6.744   8.193 -0.1566 -0.1681 -0.4924
   69CHL1  H26A 7580   4.393   6.777   8.135 -0.3490  0.0216 -0.0969
   69CHL1  H26B 7581   4.460   6.651   8.251 -0.6678  0.3381  0.1437
   69CHL1  H26C 7582   4.498   6.826   8.266 -0.6191 -0.4240 -0.0948
   69CHL1   C27 7583   4.725   6.673   8.186 -0.0882  0.4758  0.0122
   69CHL1  H27A 7584   4.819   6.673   8.128  1.0025 -0.8079  1.6733
   69CHL1  H27B 7585   4.726   6.747   8.268 -0.6218 -0.4997  0.9270
   69CHL1  H27C 7586   4.707   6.571   8.226  0.1749 -0.4992 -2.1796
   70CHL1    C3 7587   2.857   3.021   7.211  0.1291  0.3862  1.0630
   70CHL1    H3 7588   2.851   2.917   7.248  0.1147  1.1378  3.3231
   70CHL1    O3 7589   2.813   3.048   7.079 -0.2188 -0.0982 -0.3663
   70CHL1   H3' 7590   2.819   3.143   7.067  1.5364 -0.0948  0.2556
   70CHL1    C4 7591   2.769   3.097   7.315 -0.0140 -0.0923 -0.2274
   70CHL1   H4A 7592   2.747   3.198   7.274 -0.4952 -0.5810 -1.2173
   70CHL1   H4B 7593   2.675   3.037   7.315 -1.6777  2.3012 -2.1151
   70CHL1    C5 7594   2.829   3.092   7.456  0.1776 -0.1897  0.1302
   70CHL1    C6 7595   2.763   3.038   7.559 -0.8463  0.0952 -0.4991
   70CHL1    H6 7596   2.663   2.992   7.553 -2.2970  3.1042 -2.1199
   70CHL1    C7 7597   2.813   3.028   7.704 -0.1722  0.2240 -0.6144
   70CHL1   H7A 7598   2.725   3.040   7.770 -0.0882  2.3774 -0.8379
   70CHL1   H7B 7599   2.846   2.925   7.730  1.1909  1.0335  1.0855
   70CHL1    C8 7600   2.924   3.131   7.719  0.5701 -0.3524  0.2821
   70CHL1    H8 7601   2.880   3.233   7.712 -0.1596 -0.5581  1.5643
   70CHL1   C14 7602   2.993   3.103   7.851  0.6317  0.1388 -0.3231
   70CHL1   H14 7603   3.046   3.006   7.836  2.0267  0.8567 -0.2026
   70CHL1   C15 7604   2.905   3.092   7.981 -0.2424  0.9978  0.1626
   70CHL1  H15A 7605   2.824   3.169   7.981  0.0588  1.3159 -0.2994
   70CHL1  H15B 7606   2.866   2.991   8.009  1.3427  0.7087  1.4471
   70CHL1   C16 7607   3.008   3.133   8.089 -0.0278 -0.0621 -0.1585
   70CHL1  H16A 7608   2.966   3.232   8.117  0.7904  0.5575 -1.0826
   70CHL1  H16B 7609   3.003   3.063   8.175  1.6616 -1.3129 -1.0132
   70CHL1   C17 7610   3.144   3.149   8.016 -0.1278 -0.5885 -0.9852
   70CHL1   H17 7611   3.188   3.048   8.006 -0.2502 -0.5784 -1.6126
   70CHL1   C13 7612   3.108   3.196   7.875  0.4286 -0.3211 -0.2021
   70CHL1   C18 7613   3.059   3.341   7.887  0.4158  0.0838 -0.4757
   70CHL1  H18A 7614   2.967   3.346   7.948 -0.7914  0.8314 -2.2815
   70CHL1  H18B 7615   3.125   3.422   7.926 -0.9151  0.9912 -0.0467
   70CHL1  H18C 7616   3.034   3.384   7.788  1.3213  2.3148  0.2036
   70CHL1   C12 7617   3.221   3.179   7.770  0.4902 -0.0978 -0.6230
   70CHL1  H12A 7618   3.305   3.245   7.799 -0.5992  0.6717  0.9016
   70CHL1  H12B 7619   3.260   3.075   7.778 -0.2859 -0.5022 -1.7971
   70CHL1   C11 7620   3.165   3.205   7.631  0.0946 -0.2541  0.1081
   70CHL1  H11A 7621   3.142   3.313   7.622 -1.5224 -0.7349 -2.8652
   70CHL1  H11B 7622   3.242   3.181   7.555 -0.8501  1.1957 -1.3759
   70CHL1    C9 7623   3.034   3.125   7.604 -0.1934 -1.1252 -0.1614
   70CHL1    H9 7624   3.064   3.019   7.619 -0.8365 -1.1449  1.1966
   70CHL1   C10 7625   2.973   3.149   7.464  0.0405  0.8649  0.7944
   70CHL1   C19 7626   2.958   3.300   7.441  0.2883 -0.7009 -0.0483
   70CHL1  H19A 7627   3.044   3.370   7.439 -1.5286  1.7028 -2.5351
   70CHL1  H19B 7628   2.922   3.316   7.337  3.1989  0.6774 -0.9372
   70CHL1  H19C 7629   2.887   3.343   7.516  0.1486 -0.3771 -0.3604
   70CHL1    C1 7630   3.056   3.067   7.358 -0.8417  0.1615 -0.3780
   70CHL1   H1A 7631   3.158   3.112   7.364 -1.5548  1.7194  0.9002
   70CHL1   H1B 7632   3.080   2.967   7.398  2.3179  1.4726  1.3589
   70CHL1    C2 7633   3.002   3.072   7.214  0.0172  0.2432 -0.5827
   70CHL1   H2A 7634   3.077   3.013   7.158 -1.3584 -1.0506 -1.1282
   70CHL1   H2B 7635   2.999   3.171   7.164  0.7158  0.6712  0.1998
   70CHL1   C20 7636   3.249   3.236   8.091 -0.6556 -0.2813  0.0770
   70CHL1   H20 7637   3.307   3.296   8.018  1.1719  0.0363  1.6888
   70CHL1   C21 7638   3.347   3.134   8.160  0.3862 -0.0133 -0.0969
   70CHL1  H21A 7639   3.286   3.063   8.219  0.5685 -0.3481 -0.3058
   70CHL1  H21B 7640   3.427   3.185   8.217 -1.4748  1.6035  1.1696
   70CHL1  H21C 7641   3.409   3.075   8.088  1.9600  1.1987  0.2192
   70CHL1   C22 7642   3.199   3.328   8.208 -0.4544  0.0527 -0.2595
   70CHL1  H22A 7643   3.120   3.397   8.171 -0.9613  0.8154  2.0569
   70CHL1  H22B 7644   3.168   3.267   8.295 -0.7267 -0.4400 -0.6987
   70CHL1   C23 7645   3.311   3.430   8.267 -0.1116 -0.5192 -0.3939
   70CHL1  H23A 7646   3.400   3.378   8.309  1.0174  1.8765  0.3381
   70CHL1  H23B 7647   3.347   3.482   8.176  0.2783 -1.5396 -0.8356
   70CHL1   C24 7648   3.250   3.536   8.355 -0.7621  0.1408  0.2207
   70CHL1  H24A 7649   3.173   3.594   8.301  1.8177  2.5596 -1.1164
   70CHL1  H24B 7650   3.199   3.482   8.438 -3.9928  0.4501 -1.4234
   70CHL1   C25 7651   3.345   3.635   8.426 -1.0755 -0.4249  0.1726
   70CHL1   H25 7652   3.434   3.575   8.455 -0.7361 -0.6822 -1.3058
   70CHL1   C26 7653   3.390   3.743   8.327  0.3825  0.4658 -1.3387
   70CHL1  H26A 7654   3.303   3.808   8.305 -2.8850 -1.8122  3.2723
   70CHL1  H26B 7655   3.459   3.812   8.380  0.4789 -1.7476  1.6632
   70CHL1  H26C 7656   3.434   3.694   8.238 -1.3273  0.5000 -2.2442
   70CHL1   C27 7657   3.291   3.699   8.557  0.4199  0.6301 -0.0848
   70CHL1  H27A 7658   3.201   3.761   8.533 -0.0041 -0.1680 -0.6103
   70CHL1  H27B 7659   3.261   3.628   8.636  0.8129  0.1843 -0.3329
   70CHL1  H27C 7660   3.366   3.767   8.603  0.7801 -0.8546  1.6096
   71CHL1    C3 7661   3.120   4.786   6.792 -0.1517  0.0125  0.2705
   71CHL1    H3 7662   3.015   4.803   6.821  0.4004  1.3037  1.6420
   71CHL1    O3 7663   3.143   4.781   6.651  0.0747 -0.0916 -0.1234
   71CHL1   H3' 7664   3.102   4.860   6.616  1.6574  0.8198  0.0154
   71CHL1    C4 7665   3.194   4.906   6.852 -0.5371 -0.3141  0.1800
   71CHL1   H4A 7666   3.301   4.896   6.824 -1.4049 -2.9416 -2.9508
   71CHL1   H4B 7667   3.156   4.995   6.798 -1.3062 -0.1838  0.9235
   71CHL1    C5 7668   3.188   4.915   7.003 -0.3022  0.1848  0.7867
   71CHL1    C6 7669   3.150   5.029   7.060  0.6711  0.4151  0.1496
   71CHL1    H6 7670   3.119   5.114   6.997 -2.4830 -0.1484  0.8006
   71CHL1    C7 7671   3.156   5.044   7.212 -0.0872  0.2605  0.5873
   71CHL1   H7A 7672   3.210   5.139   7.233 -0.2156  1.7752 -4.5158
   71CHL1   H7B 7673   3.054   5.073   7.246 -1.5462 -1.2117 -2.2174
   71CHL1    C8 7674   3.228   4.932   7.284 -0.3942  0.4136  0.5083
   71CHL1    H8 7675   3.335   4.960   7.284 -0.2974  0.1036  1.7624
   71CHL1   C14 7676   3.189   4.920   7.431  0.3302  0.6813 -0.2951
   71CHL1   H14 7677   3.082   4.890   7.436  0.7880 -0.9779  0.4335
   71CHL1   C15 7678   3.203   5.042   7.523 -0.6215 -0.3310 -0.0962
   71CHL1  H15A 7679   3.293   5.106   7.509 -1.4427  0.9025  0.1451
   71CHL1  H15B 7680   3.123   5.119   7.530 -0.9558 -0.5503 -1.3466
   71CHL1   C16 7681   3.225   4.986   7.668 -0.7566  0.1382 -0.4323
   71CHL1  H16A 7682   3.321   5.019   7.714 -1.6199  0.3139  1.3415
   71CHL1  H16B 7683   3.158   5.036   7.741  1.5529  2.1712  0.4313
   71CHL1   C17 7684   3.209   4.835   7.659  0.0624  0.7501 -0.0272
   71CHL1   H17 7685   3.102   4.806   7.652  1.0939 -3.3162 -3.7435
   71CHL1   C13 7686   3.256   4.802   7.509  0.5502  0.9707  0.1290
   71CHL1   C18 7687   3.406   4.811   7.513  0.2059 -0.1297 -0.3284
   71CHL1  H18A 7688   3.441   4.723   7.571 -0.2301  1.2589  2.1959
   71CHL1  H18B 7689   3.458   4.813   7.415 -2.8719 -1.3219 -2.1615
   71CHL1  H18C 7690   3.433   4.912   7.550  0.1118 -0.0985 -0.3439
   71CHL1   C12 7691   3.223   4.669   7.456 -0.3690  0.6517  0.1507
   71CHL1  H12A 7692   3.283   4.592   7.509  0.6216  0.0171 -1.8104
   71CHL1  H12B 7693   3.114   4.656   7.468 -0.2861 -1.0095 -0.6838
   71CHL1   C11 7694   3.256   4.662   7.303 -0.5580  0.3461 -0.2453
   71CHL1  H11A 7695   3.366   4.652   7.297 -0.5036  1.4346 -1.4906
   71CHL1  H11B 7696   3.209   4.571   7.260  2.9775 -1.2661 -1.0182
   71CHL1    C9 7697   3.207   4.790   7.220 -0.0987  0.6256 -0.6543
   71CHL1    H9 7698   3.097   4.779   7.217 -0.2011  0.9721  0.7988
   71CHL1   C10 7699   3.236   4.786   7.066 -1.0589  0.5837 -0.3660
   71CHL1   C19 7700   3.389   4.773   7.049 -0.3309 -0.3196 -0.5413
   71CHL1  H19A 7701   3.438   4.779   6.949  2.6310 -1.4646  0.7359
   71CHL1  H19B 7702   3.438   4.852   7.110 -1.3671 -0.6900  0.8044
   71CHL1  H19C 7703   3.432   4.680   7.091  0.1946  0.1146 -0.1060
   71CHL1    C1 7704   3.161   4.663   7.004  0.2628  0.1733  0.8650
   71CHL1   H1A 7705   3.220   4.578   7.046  0.7806  0.9322  1.7262
   71CHL1   H1B 7706   3.056   4.655   7.038 -0.2287  1.2162 -0.3313
   71CHL1    C2 7707   3.172   4.658   6.851  0.2557  0.2053 -0.6589
   71CHL1   H2A 7708   3.111   4.576   6.807  0.4780 -0.1555 -0.3070
   71CHL1   H2B 7709   3.278   4.637   6.826 -0.0170  0.3433 -1.9887
   71CHL1   C20 7710   3.263   4.758   7.776  0.4963 -0.7600  0.9556
   71CHL1   H20 7711   3.282   4.659   7.730  2.0057  1.0243 -2.6603
   71CHL1   C21 7712   3.155   4.754   7.889  0.0976  0.3952 -0.1594
   71CHL1  H21A 7713   3.202   4.707   7.978 -1.7045  1.8748  1.6676
   71CHL1  H21B 7714   3.059   4.711   7.853 -1.8058  3.0448  1.3597
   71CHL1  H21C 7715   3.129   4.860   7.911 -0.0031  0.5876 -1.1586
   71CHL1   C22 7716   3.394   4.804   7.838 -0.6600  0.1641  0.2713
   71CHL1  H22A 7717   3.472   4.807   7.758  2.1660 -2.1403  2.7424
   71CHL1  H22B 7718   3.398   4.899   7.896 -1.5630 -0.0666  0.7188
   71CHL1   C23 7719   3.455   4.688   7.924 -0.0599 -0.1908  0.7235
   71CHL1  H23A 7720   3.403   4.674   8.021  0.6827 -0.3021  1.1106
   71CHL1  H23B 7721   3.437   4.589   7.876  0.6532 -0.1983  0.4591
   71CHL1   C24 7722   3.603   4.722   7.956 -0.7647 -0.2486 -0.3307
   71CHL1  H24A 7723   3.663   4.727   7.863 -0.7513 -0.5770 -0.3430
   71CHL1  H24B 7724   3.598   4.828   7.988 -3.0613 -0.3802 -0.0626
   71CHL1   C25 7725   3.671   4.641   8.066 -0.0481  0.2192  0.5185
   71CHL1   H25 7726   3.604   4.638   8.155 -0.8366 -0.2287 -0.0780
   71CHL1   C26 7727   3.702   4.498   8.018 -0.4853  0.8686  0.2964
   71CHL1  H26A 7728   3.623   4.448   7.958  1.2807 -0.4227 -1.0775
   71CHL1  H26B 7729   3.787   4.504   7.946  3.0763 -1.3752  3.9049
   71CHL1  H26C 7730   3.736   4.434   8.102  0.5255 -0.5422 -1.1112
   71CHL1   C27 7731   3.800   4.705   8.109  0.1213  0.3384  0.4003
   71CHL1  H27A 7732   3.859   4.728   8.017 -1.2673  1.7542 -0.1840
   71CHL1  H27B 7733   3.769   4.804   8.149  0.2344  1.3563 -1.8295
   71CHL1  H27C 7734   3.871   4.652   8.176  1.3840 -1.0725 -1.9044
   72CHL1    C3 7735   1.702   1.588   7.058  0.5076 -0.2947 -0.0093
   72CHL1    H3 7736   1.612   1.648   7.082  0.3489 -0.5403  0.0118
   72CHL1    O3 7737   1.717   1.550   6.929 -0.0482 -0.3912  0.0097
   72CHL1   H3' 7738   1.739   1.458   6.944 -1.3327 -1.0976 -2.0112
   72CHL1    C4 7739   1.840   1.655   7.102  0.6504 -1.0740  0.1030
   72CHL1   H4A 7740   1.919   1.581   7.079  0.0950 -0.9449 -2.4218
   72CHL1   H4B 7741   1.859   1.748   7.044  0.2810 -2.1566 -1.8430
   72CHL1    C5 7742   1.842   1.690   7.253  0.5566 -0.0916 -0.4861
   72CHL1    C6 7743   1.854   1.816   7.292  0.2450 -0.1286 -0.3410
   72CHL1    H6 7744   1.857   1.894   7.215 -1.2056 -1.2347 -1.5732
   72CHL1    C7 7745   1.842   1.858   7.440  0.3885  0.4380  0.2519
   72CHL1   H7A 7746   1.915   1.936   7.472  0.5816  0.0508  0.7725
   72CHL1   H7B 7747   1.739   1.893   7.464 -0.0148 -0.1665 -0.5615
   72CHL1    C8 7748   1.854   1.741   7.540  0.0466  0.5631  0.0786
   72CHL1    H8 7749   1.959   1.706   7.548 -0.1588 -1.0101 -2.8924
   72CHL1   C14 7750   1.795   1.784   7.669 -0.1206 -0.2459 -0.2054
   72CHL1   H14 7751   1.686   1.795   7.651  0.0561  1.6447 -0.2718
   72CHL1   C15 7752   1.856   1.913   7.726  0.9511 -0.1138 -0.2827
   72CHL1  H15A 7753   1.967   1.923   7.724  0.8459  1.1000 -0.5529
   72CHL1  H15B 7754   1.817   2.003   7.674  0.6484 -0.8099 -1.2819
   72CHL1   C16 7755   1.822   1.912   7.881  0.0490 -0.6924  0.9780
   72CHL1  H16A 7756   1.910   1.921   7.948 -0.1140 -1.6047  1.3289
   72CHL1  H16B 7757   1.749   1.993   7.900  1.6642  1.1653 -0.3211
   72CHL1   C17 7758   1.755   1.771   7.908 -0.3632  0.0666  0.5314
   72CHL1   H17 7759   1.650   1.792   7.879 -0.7478 -1.8522  0.3793
   72CHL1   C13 7760   1.812   1.686   7.785 -0.0317  0.3427  0.2123
   72CHL1   C18 7761   1.968   1.667   7.821 -0.1979  0.1441 -0.0341
   72CHL1  H18A 7762   2.020   1.759   7.855 -0.4131  0.2726 -0.0542
   72CHL1  H18B 7763   1.978   1.575   7.882  2.8792 -0.5001 -1.3160
   72CHL1  H18C 7764   2.015   1.626   7.730  0.8118  1.6707 -0.2320
   72CHL1   C12 7765   1.740   1.558   7.753 -0.6653  0.0856 -0.2870
   72CHL1  H12A 7766   1.762   1.482   7.831 -1.0031 -0.3091 -0.5786
   72CHL1  H12B 7767   1.629   1.563   7.749 -0.8339 -2.7847 -1.1446
   72CHL1   C11 7768   1.792   1.503   7.615 -0.0937  0.5655  0.6068
   72CHL1  H11A 7769   1.893   1.458   7.629  1.0108  2.0931 -1.7404
   72CHL1  H11B 7770   1.716   1.425   7.594 -2.4056  2.1165  2.5988
   72CHL1    C9 7771   1.778   1.611   7.501  0.1306  0.3388  0.1959
   72CHL1    H9 7772   1.669   1.630   7.502  0.1070  0.1901  1.1742
   72CHL1   C10 7773   1.811   1.569   7.348 -0.2675  0.0758 -0.5664
   72CHL1   C19 7774   1.935   1.466   7.348  0.1737 -0.6791  0.4372
   72CHL1  H19A 7775   2.032   1.511   7.378  0.3708 -1.2276  0.6274
   72CHL1  H19B 7776   1.917   1.384   7.421 -2.3793 -0.7118 -0.1417
   72CHL1  H19C 7777   1.954   1.428   7.245 -0.0898  2.9839 -1.1109
   72CHL1    C1 7778   1.691   1.490   7.295 -0.1494  0.5557 -0.3935
   72CHL1   H1A 7779   1.678   1.391   7.344 -2.4040  0.9997  0.0338
   72CHL1   H1B 7780   1.596   1.546   7.307 -1.1121 -0.5284 -2.3331
   72CHL1    C2 7781   1.698   1.457   7.142 -0.0766 -0.1359  0.5765
   72CHL1   H2A 7782   1.600   1.414   7.113 -0.0868 -0.1643  0.6516
   72CHL1   H2B 7783   1.770   1.375   7.120 -0.9965 -0.9089  0.3635
   72CHL1   C20 7784   1.773   1.724   8.055  0.6314 -0.3201  0.1838
   72CHL1   H20 7785   1.867   1.668   8.071  0.5854 -0.0005  1.7846
   72CHL1   C21 7786   1.657   1.615   8.089 -0.2730 -0.6975  0.1203
   72CHL1  H21A 7787   1.570   1.682   8.101  1.0930  1.6335 -1.9631
   72CHL1  H21B 7788   1.686   1.563   8.183 -1.3979  2.0156  2.1105
   72CHL1  H21C 7789   1.649   1.540   8.008 -0.3358  2.3413 -2.9359
   72CHL1   C22 7790   1.758   1.843   8.151  0.1513  0.0327  0.5411
   72CHL1  H22A 7791   1.831   1.926   8.134  0.6753 -0.6310 -0.5331
   72CHL1  H22B 7792   1.654   1.880   8.141  1.5440  4.1692 -1.0065
   72CHL1   C23 7793   1.784   1.812   8.294 -0.2689 -0.3567  0.0704
   72CHL1  H23A 7794   1.712   1.736   8.332 -1.3886  2.0153  3.1105
   72CHL1  H23B 7795   1.879   1.756   8.309  0.0729 -0.3837 -1.9373
   72CHL1   C24 7796   1.780   1.930   8.391  0.0643 -0.7297  0.2751
   72CHL1  H24A 7797   1.830   2.013   8.337 -1.0110 -0.3598 -0.1750
   72CHL1  H24B 7798   1.680   1.967   8.421  0.0745 -1.4920  1.3025
   72CHL1   C25 7799   1.853   1.913   8.522 -0.3007  0.5885  0.0287
   72CHL1   H25 7800   1.933   1.837   8.506 -1.0420 -0.5983  1.6847
   72CHL1   C26 7801   1.905   2.052   8.560 -0.9082  0.6729  0.1879
   72CHL1  H26A 7802   1.963   2.093   8.475  0.3411 -3.0788 -0.9823
   72CHL1  H26B 7803   1.822   2.124   8.575 -0.9976  0.2997  1.7415
   72CHL1  H26C 7804   1.959   2.051   8.657 -2.1384  0.9672  0.9083
   72CHL1   C27 7805   1.767   1.854   8.626  0.4974 -0.5767 -0.0250
   72CHL1  H27A 7806   1.748   1.745   8.613 -1.5866 -0.3081  0.4040
   72CHL1  H27B 7807   1.809   1.866   8.728  0.3593 -3.3850  0.4550
   72CHL1  H27C 7808   1.667   1.902   8.629  0.3970 -0.4292 -2.8953
   73CHL1    C3 7809   1.899   4.086   6.956  0.3699  0.8714 -0.4862
   73CHL1    H3 7810   1.811   4.020   6.970  0.5643  0.2176 -2.1456
   73CHL1    O3 7811   1.932   4.095   6.820 -0.0643  0.4005 -0.3442
   73CHL1   H3' 7812   1.956   4.009   6.786 -0.0717  1.2182 -2.5814
   73CHL1    C4 7813   1.882   4.224   7.004 -0.1378  0.2020  0.0388
   73CHL1   H4A 7814   1.969   4.285   6.973  1.0043 -1.2844  0.2043
   73CHL1   H4B 7815   1.798   4.265   6.944  0.3144  0.3520 -0.5049
   73CHL1    C5 7816   1.842   4.231   7.147 -0.6302  0.0437 -0.4915
   73CHL1    C6 7817   1.724   4.288   7.197 -0.8107 -0.1681 -0.1050
   73CHL1    H6 7818   1.646   4.325   7.129  0.6778 -1.4270 -2.6618
   73CHL1    C7 7819   1.704   4.287   7.342 -0.3291 -0.3769 -0.9202
   73CHL1   H7A 7820   1.662   4.387   7.363 -0.1531 -0.5687  0.4001
   73CHL1   H7B 7821   1.622   4.215   7.363  0.3333 -1.3958 -1.7210
   73CHL1    C8 7822   1.827   4.260   7.431  0.6674  0.0051  0.6290
   73CHL1    H8 7823   1.894   4.348   7.435  1.1446 -0.1177 -2.4554
   73CHL1   C14 7824   1.781   4.229   7.577 -0.4176 -0.5022  0.6326
   73CHL1   H14 7825   1.729   4.131   7.581  0.2653 -0.9573 -0.8658
   73CHL1   C15 7826   1.676   4.316   7.657 -0.7391  0.6932  0.6122
   73CHL1  H15A 7827   1.707   4.421   7.638  2.4695 -0.2672 -0.1549
   73CHL1  H15B 7828   1.575   4.300   7.614  0.8183 -2.1998 -2.4051
   73CHL1   C16 7829   1.691   4.276   7.809  0.4848 -0.1874  0.4091
   73CHL1  H16A 7830   1.700   4.368   7.870  0.9191 -0.7612  1.2412
   73CHL1  H16B 7831   1.609   4.219   7.857  1.7910 -0.1779  2.8358
   73CHL1   C17 7832   1.818   4.174   7.810  0.0807  0.4115 -0.2963
   73CHL1   H17 7833   1.778   4.071   7.801  2.9280 -0.9579  1.2564
   73CHL1   C13 7834   1.894   4.210   7.681  0.6492  0.0193  0.2023
   73CHL1   C18 7835   1.976   4.335   7.698  0.1007 -0.2199 -0.3383
   73CHL1  H18A 7836   1.908   4.412   7.742  0.1218 -1.1678  1.4547
   73CHL1  H18B 7837   2.064   4.316   7.763  1.6257 -1.3423 -2.6255
   73CHL1  H18C 7838   2.030   4.364   7.606 -1.1569  0.7957 -0.7916
   73CHL1   C12 7839   1.979   4.099   7.623 -0.7185 -0.1861 -0.1418
   73CHL1  H12A 7840   2.061   4.063   7.690  1.3419 -0.9721 -2.8890
   73CHL1  H12B 7841   1.923   4.003   7.622 -0.1653 -0.6721  2.9532
   73CHL1   C11 7842   2.029   4.120   7.480  0.4929  0.3734  0.2118
   73CHL1  H11A 7843   2.090   4.213   7.483  0.2202  0.6371 -1.3436
   73CHL1  H11B 7844   2.099   4.037   7.457  1.0373  0.2032  2.2965
   73CHL1    C9 7845   1.913   4.148   7.379  0.4098 -0.0912 -0.3997
   73CHL1    H9 7846   1.853   4.056   7.393 -0.0106  0.1697 -0.4834
   73CHL1   C10 7847   1.951   4.171   7.233  0.1652 -0.2512 -0.0037
   73CHL1   C19 7848   2.072   4.281   7.214 -0.4634 -0.0380  0.3104
   73CHL1  H19A 7849   2.034   4.375   7.260 -0.7241  0.9649 -1.8620
   73CHL1  H19B 7850   2.158   4.247   7.275 -0.9079  0.2254  1.1076
   73CHL1  H19C 7851   2.112   4.294   7.111  0.5988  0.2570  0.7465
   73CHL1    C1 7852   2.007   4.035   7.180  1.0770  0.0418 -0.0319
   73CHL1   H1A 7853   2.101   4.003   7.231 -0.0271 -0.3366  1.8445
   73CHL1   H1B 7854   1.936   3.956   7.210  0.9758  0.6829  1.5137
   73CHL1    C2 7855   2.020   4.022   7.026 -0.5684  0.2973 -0.0326
   73CHL1   H2A 7856   2.044   3.915   7.008  0.5647  0.6706 -0.8441
   73CHL1   H2B 7857   2.110   4.080   6.996 -0.0582 -0.0718  0.7332
   73CHL1   C20 7858   1.892   4.192   7.948  0.7080 -0.9396 -0.1525
   73CHL1   H20 7859   1.945   4.289   7.947  1.5274 -1.3517  0.8662
   73CHL1   C21 7860   1.999   4.081   7.964  0.6300 -0.0534  0.1507
   73CHL1  H21A 7861   1.950   3.982   7.956  0.2705  0.2535 -2.7059
   73CHL1  H21B 7862   2.057   4.093   8.057  1.2082 -1.6600  0.0224
   73CHL1  H21C 7863   2.075   4.091   7.883  0.2538 -1.4030 -0.4029
   73CHL1   C22 7864   1.801   4.192   8.070 -0.5301 -0.6833  0.1575
   73CHL1  H22A 7865   1.863   4.208   8.161  0.3882  0.9478 -0.7050
   73CHL1  H22B 7866   1.748   4.290   8.069 -2.0185 -1.4500 -1.2547
   73CHL1   C23 7867   1.691   4.089   8.076  0.4995  0.8714 -0.2234
   73CHL1  H23A 7868   1.635   4.071   7.982  1.0425 -1.8906 -0.1017
   73CHL1  H23B 7869   1.742   3.994   8.103  1.8309  0.9836 -2.1938
   73CHL1   C24 7870   1.590   4.141   8.181 -0.6710  0.3433 -0.0794
   73CHL1  H24A 7871   1.653   4.172   8.268  0.7742 -1.4971 -0.4077
   73CHL1  H24B 7872   1.545   4.229   8.130  0.4101 -0.4614 -2.6180
   73CHL1   C25 7873   1.476   4.045   8.221 -0.1357 -0.0968 -0.1393
   73CHL1   H25 7874   1.525   3.948   8.244  0.4028  0.3643  0.6902
   73CHL1   C26 7875   1.406   4.101   8.354  0.0103  0.1217  0.0347
   73CHL1  H26A 7876   1.377   4.205   8.329  0.7658  0.2658 -0.2698
   73CHL1  H26B 7877   1.314   4.047   8.386 -0.2352  0.7805  0.4639
   73CHL1  H26C 7878   1.482   4.094   8.434  1.3126 -2.0863 -1.2906
   73CHL1   C27 7879   1.374   4.019   8.109  0.4534 -0.3057 -0.0558
   73CHL1  H27A 7880   1.321   4.115   8.087 -1.9800 -0.4698  3.9802
   73CHL1  H27B 7881   1.408   3.961   8.021 -1.2643  0.0887 -1.0245
   73CHL1  H27C 7882   1.297   3.949   8.148  0.6652 -1.5184 -1.7376
   74CHL1    C3 7883   1.000   4.393   6.816  0.6227 -0.3240  0.5647
   74CHL1    H3 7884   1.052   4.485   6.852 -1.3504  1.2969 -0.4623
   74CHL1    O3 7885   1.001   4.408   6.673 -0.3336  0.4778 -0.6948
   74CHL1   H3' 7886   1.084   4.451   6.652  0.9263 -1.3589  0.2478
   74CHL1    C4 7887   1.082   4.278   6.853 -0.0319  0.6367  0.2005
   74CHL1   H4A 7888   1.036   4.185   6.815  0.9611  0.0014  0.5010
   74CHL1   H4B 7889   1.183   4.294   6.808  0.2823 -1.2140  0.1944
   74CHL1    C5 7890   1.102   4.264   7.000 -0.3997  0.4466 -0.4616
   74CHL1    C6 7891   1.228   4.269   7.061  0.0069 -0.2656 -0.5170
   74CHL1    H6 7892   1.314   4.265   6.993 -1.5715  0.2504 -2.6779
   74CHL1    C7 7893   1.253   4.262   7.212  0.4820 -0.0538 -0.1766
   74CHL1   H7A 7894   1.336   4.193   7.241  0.5300  0.7429  1.7595
   74CHL1   H7B 7895   1.282   4.364   7.243 -1.5508  0.7895 -0.8619
   74CHL1    C8 7896   1.126   4.229   7.291 -0.0053  0.8606  0.4468
   74CHL1    H8 7897   1.107   4.119   7.286  1.9745  0.5149 -2.0292
   74CHL1   C14 7898   1.147   4.269   7.437 -1.1174 -0.1717  0.2364
   74CHL1   H14 7899   1.169   4.378   7.442 -0.6418 -0.1960 -0.8716
   74CHL1   C15 7900   1.267   4.210   7.520  0.0604  0.1085  0.6954
   74CHL1  H15A 7901   1.275   4.099   7.508  1.3931  0.3142 -0.7110
   74CHL1  H15B 7902   1.368   4.252   7.497  0.0416  0.5474  1.3993
   74CHL1   C16 7903   1.222   4.241   7.668 -0.9509 -0.5325  0.4159
   74CHL1  H16A 7904   1.240   4.149   7.727  2.5556 -0.3540 -0.1683
   74CHL1  H16B 7905   1.278   4.316   7.727 -2.9784  1.1641  0.3102
   74CHL1   C17 7906   1.077   4.282   7.664  0.0316 -0.1041  0.1870
   74CHL1   H17 7907   1.083   4.392   7.661  1.9252 -0.1736 -0.0786
   74CHL1   C13 7908   1.028   4.242   7.525 -0.5998 -0.9405  0.0701
   74CHL1   C18 7909   0.996   4.087   7.530  0.1084  1.0350  0.9039
   74CHL1  H18A 7910   0.966   4.039   7.434 -0.6155  1.4672  0.9071
   74CHL1  H18B 7911   1.082   4.033   7.575  1.0696  0.3801 -1.5448
   74CHL1  H18C 7912   0.906   4.066   7.592 -1.1582  2.4887 -0.3636
   74CHL1   C12 7913   0.914   4.328   7.466  0.5167  0.2121  1.2773
   74CHL1  H12A 7914   0.831   4.332   7.540 -0.4150 -0.1020  0.2841
   74CHL1  H12B 7915   0.946   4.434   7.460 -1.2573  0.7728  1.0031
   74CHL1   C11 7916   0.878   4.274   7.326 -0.2087 -0.3592  0.3625
   74CHL1  H11A 7917   0.844   4.168   7.332 -1.5805  0.0248 -0.2576
   74CHL1  H11B 7918   0.796   4.342   7.296 -1.0154 -0.6182  1.8776
   74CHL1    C9 7919   1.001   4.293   7.231  0.1281 -0.3157  0.7129
   74CHL1    H9 7920   1.023   4.401   7.249  0.6875 -0.3613  0.3337
   74CHL1   C10 7921   0.970   4.264   7.083  0.4809 -0.1274 -0.4366
   74CHL1   C19 7922   0.913   4.126   7.072  0.1954  0.4269 -0.4010
   74CHL1  H19A 7923   0.820   4.117   7.132  0.8160  0.2279  0.5573
   74CHL1  H19B 7924   0.880   4.093   6.971 -3.6275 -1.5661  1.2838
   74CHL1  H19C 7925   0.965   4.043   7.124 -0.1789  0.1845 -0.4075
   74CHL1    C1 7926   0.878   4.374   7.024 -0.0523  0.0243  0.3207
   74CHL1   H1A 7927   0.777   4.352   7.065 -0.7023  1.2047 -0.5896
   74CHL1   H1B 7928   0.907   4.476   7.055 -0.1428 -0.1519  1.0083
   74CHL1    C2 7929   0.858   4.376   6.872  0.1576  0.6043 -1.5704
   74CHL1   H2A 7930   0.798   4.466   6.847 -1.0347  0.6813  1.1822
   74CHL1   H2B 7931   0.813   4.279   6.842  1.5352 -1.4774  2.3236
   74CHL1   C20 7932   0.982   4.244   7.777  0.1410 -0.1365 -0.4182
   74CHL1   H20 7933   0.878   4.227   7.740 -1.0858  0.3183  2.5647
   74CHL1   C21 7934   0.964   4.362   7.882 -0.0968  0.2871 -0.5747
   74CHL1  H21A 7935   1.056   4.399   7.933  0.3964 -1.9444  0.2695
   74CHL1  H21B 7936   0.890   4.337   7.961  0.9724 -0.3166  0.2651
   74CHL1  H21C 7937   0.929   4.455   7.832 -1.0933  0.5307  0.5105
   74CHL1   C22 7938   1.015   4.128   7.877 -0.2215  0.3345 -0.3962
   74CHL1  H22A 7939   1.042   4.036   7.820  1.1827  0.7776 -0.4863
   74CHL1  H22B 7940   1.104   4.160   7.936 -0.8594 -0.0823  0.8198
   74CHL1   C23 7941   0.905   4.080   7.974 -0.0873 -0.0048 -0.3998
   74CHL1  H23A 7942   0.867   4.161   8.038 -0.5207  0.9201 -1.7833
   74CHL1  H23B 7943   0.822   4.047   7.908  0.2103 -0.4692 -0.5563
   74CHL1   C24 7944   0.966   3.972   8.068 -0.6406 -0.1509 -0.3645
   74CHL1  H24A 7945   1.011   3.894   8.005 -0.7862  0.6227 -1.4560
   74CHL1  H24B 7946   1.049   4.017   8.127 -0.4148  0.6235 -1.2512
   74CHL1   C25 7947   0.870   3.905   8.171 -0.2201  0.8986  0.4408
   74CHL1   H25 7948   0.816   3.991   8.216  1.6205  3.3203 -1.6073
   74CHL1   C26 7949   0.768   3.802   8.108 -0.5758 -0.4463 -0.3806
   74CHL1  H26A 7950   0.715   3.751   8.191 -2.5776  0.5515 -0.9914
   74CHL1  H26B 7951   0.699   3.862   8.045  0.8182  2.1783  0.4212
   74CHL1  H26C 7952   0.825   3.723   8.055 -1.1522  0.7663 -2.9815
   74CHL1   C27 7953   0.957   3.838   8.285  1.0118  0.5865  0.7768
   74CHL1  H27A 7954   0.892   3.788   8.360  1.5837  0.9759  1.5499
   74CHL1  H27B 7955   1.022   3.758   8.244 -3.0076 -2.7655  0.2328
   74CHL1  H27C 7956   1.018   3.907   8.346  1.0290  0.9121  0.3989
   75CHL1    C3 7957   3.371   6.293   6.934 -0.2247 -0.3570 -0.2337
   75CHL1    H3 7958   3.391   6.400   6.957 -0.1517 -0.1935 -1.0230
   75CHL1    O3 7959   3.358   6.276   6.790 -0.1784  0.2920  0.2558
   75CHL1   H3' 7960   3.305   6.351   6.761  2.4003  2.4833  0.7949
   75CHL1    C4 7961   3.495   6.200   6.972 -0.2006  0.0896  0.5389
   75CHL1   H4A 7962   3.467   6.105   6.921  0.9779  0.8069 -1.5427
   75CHL1   H4B 7963   3.579   6.245   6.916 -2.2483  1.0002 -2.0180
   75CHL1    C5 7964   3.504   6.197   7.123  0.5643 -0.3773  1.3257
   75CHL1    C6 7965   3.620   6.230   7.178  0.0421 -0.6420  0.3521
   75CHL1    H6 7966   3.703   6.266   7.115 -1.0838  0.4137 -0.5655
   75CHL1    C7 7967   3.646   6.222   7.326  0.5502 -0.4225 -0.7964
   75CHL1   H7A 7968   3.745   6.175   7.342  1.1408  0.1147 -2.7133
   75CHL1   H7B 7969   3.650   6.328   7.358  0.9671 -0.9268  0.9139
   75CHL1    C8 7970   3.532   6.149   7.409 -0.2218  0.7626 -0.2029
   75CHL1    H8 7971   3.544   6.041   7.388  0.7323  0.8513 -0.1586
   75CHL1   C14 7972   3.528   6.193   7.553  0.2695 -0.2460 -0.1167
   75CHL1   H14 7973   3.491   6.298   7.554  1.8159  0.3159  0.1683
   75CHL1   C15 7974   3.661   6.186   7.629 -0.7240  0.3164 -0.3859
   75CHL1  H15A 7975   3.692   6.084   7.597 -3.2817 -0.9576  0.9537
   75CHL1  H15B 7976   3.729   6.264   7.587  0.4442 -0.8840 -0.7996
   75CHL1   C16 7977   3.623   6.211   7.781  0.3574 -0.2560  0.2037
   75CHL1  H16A 7978   3.677   6.131   7.836  1.9186  0.4563 -0.2578
   75CHL1  H16B 7979   3.655   6.313   7.810  1.1301 -0.1827 -0.8278
   75CHL1   C17 7980   3.468   6.188   7.783  0.5969  0.8089  1.0067
   75CHL1   H17 7981   3.421   6.288   7.774  1.3912  1.0684 -0.6379
   75CHL1   C13 7982   3.432   6.122   7.646 -0.3446 -0.0920 -0.5848
   75CHL1   C18 7983   3.449   5.969   7.656  0.2984  0.1877 -0.1230
   75CHL1  H18A 7984   3.442   5.927   7.553 -0.2692  1.2080 -0.5154
   75CHL1  H18B 7985   3.544   5.941   7.705  1.0711  2.0237 -0.5080
   75CHL1  H18C 7986   3.374   5.913   7.717  1.0459 -0.9518 -0.2244
   75CHL1   C12 7987   3.284   6.147   7.596 -0.1540 -0.1900  0.3575
   75CHL1  H12A 7988   3.221   6.072   7.649 -1.7186  0.4829 -0.4606
   75CHL1  H12B 7989   3.252   6.248   7.630  0.2149 -0.2939  1.0234
   75CHL1   C11 7990   3.280   6.126   7.442 -0.0752 -0.4987  0.3518
   75CHL1  H11A 7991   3.280   6.015   7.434 -0.2584 -0.5973  1.5062
   75CHL1  H11B 7992   3.179   6.151   7.402  0.0671 -0.0489  0.2678
   75CHL1    C9 7993   3.398   6.175   7.351  0.1985  0.0093  0.0499
   75CHL1    H9 7994   3.388   6.285   7.357 -0.3351 -0.1125  1.8169
   75CHL1   C10 7995   3.374   6.149   7.196  0.1572 -0.3661 -0.1269
   75CHL1   C19 7996   3.359   5.998   7.154  0.2878  0.1131 -0.4208
   75CHL1  H19A 7997   3.273   5.969   7.218 -0.0066  0.9024 -0.4385
   75CHL1  H19B 7998   3.334   5.984   7.046 -1.3111 -0.8216  0.0338
   75CHL1  H19C 7999   3.441   5.933   7.188 -0.0246  1.5393  3.5377
   75CHL1    C1 8000   3.259   6.235   7.148 -0.7227 -0.3159 -0.1970
   75CHL1   H1A 8001   3.162   6.191   7.183 -0.9406  0.5384  0.3080
   75CHL1   H1B 8002   3.273   6.334   7.196 -0.3915 -0.4662  0.0223
   75CHL1    C2 8003   3.244   6.250   7.002 -0.5688 -0.0362 -0.0119
   75CHL1   H2A 8004   3.157   6.316   6.983 -0.7956 -0.9685 -2.6649
   75CHL1   H2B 8005   3.216   6.148   6.966  1.5414 -0.5924 -0.2134
   75CHL1   C20 8006   3.413   6.129   7.907 -0.5371 -0.1902 -0.0274
   75CHL1   H20 8007   3.310   6.093   7.886 -1.0884 -0.3226  2.5796
   75CHL1   C21 8008   3.413   6.238   8.020  0.5540  0.2669  0.3377
   75CHL1  H21A 8009   3.373   6.331   7.974  1.1608 -0.2168 -1.2235
   75CHL1  H21B 8010   3.520   6.267   8.035  0.8047 -0.2966 -0.3238
   75CHL1  H21C 8011   3.358   6.203   8.109  1.2091 -0.3193  0.5181
   75CHL1   C22 8012   3.496   6.012   7.964  0.6684  0.0558  0.6235
   75CHL1  H22A 8013   3.519   5.929   7.894 -0.8863 -1.2075  1.5251
   75CHL1  H22B 8014   3.599   6.030   8.001  1.0556  0.0491 -0.4111
   75CHL1   C23 8015   3.430   5.935   8.083 -0.2327  0.6320  0.2238
   75CHL1  H23A 8016   3.405   6.005   8.166  0.3272  0.7267  0.3137
   75CHL1  H23B 8017   3.332   5.899   8.045  0.3267 -1.4681  0.6650
   75CHL1   C24 8018   3.511   5.816   8.129 -0.5122  0.0952  0.0044
   75CHL1  H24A 8019   3.515   5.741   8.047  0.2564 -2.0779  1.9011
   75CHL1  H24B 8020   3.612   5.858   8.148  0.3129 -2.2966  1.3989
   75CHL1   C25 8021   3.456   5.747   8.252  0.9578  0.5657 -0.5277
   75CHL1   H25 8022   3.438   5.825   8.329 -0.5487 -0.7069  0.4569
   75CHL1   C26 8023   3.329   5.671   8.219  0.1755 -0.4354  0.5711
   75CHL1  H26A 8024   3.259   5.748   8.179  0.8228  0.2119  0.6739
   75CHL1  H26B 8025   3.347   5.606   8.131  4.0338  0.4378  0.5421
   75CHL1  H26C 8026   3.294   5.617   8.310 -0.5401 -1.4027 -0.2544
   75CHL1   C27 8027   3.558   5.649   8.305 -0.4482  0.0350 -0.4297
   75CHL1  H27A 8028   3.659   5.661   8.260 -0.1702  0.0702  0.1909
   75CHL1  H27B 8029   3.571   5.666   8.414 -0.7766  1.4283 -0.5926
   75CHL1  H27C 8030   3.522   5.545   8.290  1.3378 -0.9573  1.4946
   76CHL1    C3 8031   4.861   1.141   7.102 -0.3751  0.8669 -0.8771
   76CHL1    H3 8032   4.927   1.054   7.124 -0.4228  0.5473 -1.9293
   76CHL1    O3 8033   4.864   1.161   6.973 -0.0854 -0.2895 -0.2015
   76CHL1   H3' 8034   4.780   1.204   6.955  0.0741  0.6600  1.2358
   76CHL1    C4 8035   4.714   1.135   7.145 -0.2623  0.4179 -0.1190
   76CHL1   H4A 8036   4.666   1.229   7.112 -2.2074 -0.3647  0.3788
   76CHL1   H4B 8037   4.667   1.051   7.089 -0.1813  0.3047 -0.0157
   76CHL1    C5 8038   4.705   1.127   7.298 -0.8557  0.2740  0.6051
   76CHL1    C6 8039   4.664   1.014   7.355  0.6418 -0.7179 -0.4619
   76CHL1    H6 8040   4.624   0.942   7.281  0.5752  0.0417 -1.1778
   76CHL1    C7 8041   4.648   0.990   7.502  0.3484 -0.5758  0.2714
   76CHL1   H7A 8042   4.561   0.934   7.543  1.5812 -3.0172 -0.2117
   76CHL1   H7B 8043   4.737   0.940   7.547  0.9441 -1.3927 -1.6876
   76CHL1    C8 8044   4.659   1.129   7.579  0.7207 -0.3128  0.1645
   76CHL1    H8 8045   4.561   1.176   7.556 -1.0773 -3.3966  0.7919
   76CHL1   C14 8046   4.665   1.104   7.730 -0.4314  0.0099  0.6909
   76CHL1   H14 8047   4.757   1.042   7.737 -0.5931 -0.6124 -1.7037
   76CHL1   C15 8048   4.547   1.016   7.791  0.0084 -0.1242  0.2169
   76CHL1  H15A 8049   4.459   1.057   7.736  0.4068 -0.5754 -0.7956
   76CHL1  H15B 8050   4.551   0.906   7.777 -1.7386 -0.2748  0.5992
   76CHL1   C16 8051   4.550   1.056   7.940  0.0191 -0.0792  0.0325
   76CHL1  H16A 8052   4.455   1.106   7.971  0.4330  1.0854 -0.5121
   76CHL1  H16B 8053   4.546   0.957   7.991 -2.5200 -1.0188 -1.7816
   76CHL1   C17 8054   4.676   1.155   7.954  0.4157 -0.0859 -0.1955
   76CHL1   H17 8055   4.766   1.090   7.954 -0.4547 -1.3549 -1.5096
   76CHL1   C13 8056   4.678   1.226   7.816 -0.3860 -0.0662  0.0365
   76CHL1   C18 8057   4.557   1.319   7.804  0.0228  0.3509 -0.1237
   76CHL1  H18A 8058   4.458   1.273   7.826  0.1906  1.4092  3.4719
   76CHL1  H18B 8059   4.578   1.403   7.874  0.0062 -1.3802  2.0718
   76CHL1  H18C 8060   4.561   1.356   7.700  1.4370 -0.1262 -0.2679
   76CHL1   C12 8061   4.803   1.303   7.772 -0.1673 -0.7080 -0.0047
   76CHL1  H12A 8062   4.801   1.403   7.820 -1.3876 -0.4024 -0.6460
   76CHL1  H12B 8063   4.889   1.249   7.817 -0.2545 -0.1786  0.8131
   76CHL1   C11 8064   4.809   1.331   7.621  0.3003 -0.3213 -0.6560
   76CHL1  H11A 8065   4.747   1.423   7.615  0.9067  0.1253 -0.2005
   76CHL1  H11B 8066   4.914   1.362   7.597  0.1040 -0.8564 -2.3617
   76CHL1    C9 8067   4.776   1.212   7.527  0.0975 -0.0935 -0.6919
   76CHL1    H9 8068   4.862   1.146   7.549  0.0382  0.0988  0.1620
   76CHL1   C10 8069   4.775   1.246   7.375  0.7479 -0.1620  0.1302
   76CHL1   C19 8070   4.693   1.375   7.363  0.0235 -0.0673  0.0624
   76CHL1  H19A 8071   4.698   1.421   7.261 -0.0918 -0.8400 -0.2958
   76CHL1  H19B 8072   4.588   1.350   7.388  0.8149 -0.4919  3.4788
   76CHL1  H19C 8073   4.735   1.460   7.421 -0.7064 -0.2039  0.8045
   76CHL1    C1 8074   4.920   1.260   7.318 -0.6523  0.6978  0.0760
   76CHL1   H1A 8075   4.966   1.350   7.365 -0.3242 -0.1812  1.5162
   76CHL1   H1B 8076   4.978   1.175   7.361  0.0204  1.0293 -0.1649
   76CHL1    C2 8077   4.926   1.264   7.169  0.3770  0.4394 -0.4347
   76CHL1   H2A 8078   5.028   1.273   7.126  1.1493 -3.1883  0.2797
   76CHL1   H2B 8079   4.866   1.347   7.127 -1.8780 -1.3636 -0.9678
   76CHL1   C20 8080   4.680   1.239   8.084  0.5084 -0.4779 -0.7993
   76CHL1   H20 8081   4.593   1.307   8.093  0.2765 -0.8397 -0.2138
   76CHL1   C21 8082   4.822   1.314   8.105  0.1832  0.0886 -0.3761
   76CHL1  H21A 8083   4.857   1.378   8.021 -1.8378 -1.1358 -2.2547
   76CHL1  H21B 8084   4.894   1.231   8.119  0.2852 -0.0832 -1.7563
   76CHL1  H21C 8085   4.815   1.377   8.196  0.8548  0.0284 -0.2780
   76CHL1   C22 8086   4.655   1.143   8.204  0.6690 -0.2087 -0.2492
   76CHL1  H22A 8087   4.663   1.216   8.287 -0.1686  2.1143 -2.0930
   76CHL1  H22B 8088   4.546   1.119   8.205  0.5893  0.1456 -0.4155
   76CHL1   C23 8089   4.760   1.035   8.224  0.1193 -0.8771  0.4990
   76CHL1  H23A 8090   4.773   0.985   8.126  0.9276 -1.1346  0.7239
   76CHL1  H23B 8091   4.861   1.076   8.247 -0.3472 -0.2859  1.5632
   76CHL1   C24 8092   4.730   0.922   8.321 -0.1116  0.6180 -0.1129
   76CHL1  H24A 8093   4.825   0.870   8.345 -0.3005 -1.0075 -2.5467
   76CHL1  H24B 8094   4.691   0.969   8.414 -0.5769  0.5970 -0.2990
   76CHL1   C25 8095   4.630   0.812   8.272  0.1668  0.5601 -0.2875
   76CHL1   H25 8096   4.555   0.871   8.214  1.7492  2.9987  0.0228
   76CHL1   C26 8097   4.706   0.723   8.175  0.0333  0.3044 -0.0158
   76CHL1  H26A 8098   4.803   0.694   8.222 -1.0297 -3.2874  0.2681
   76CHL1  H26B 8099   4.655   0.628   8.150  0.0568  0.3907 -0.4070
   76CHL1  H26C 8100   4.722   0.776   8.078 -2.2902 -2.9389 -2.3993
   76CHL1   C27 8101   4.565   0.742   8.390  0.1077 -0.3173 -0.8285
   76CHL1  H27A 8102   4.494   0.663   8.357 -0.2777 -0.5140  0.4469
   76CHL1  H27B 8103   4.644   0.700   8.456  0.4717  2.1171  0.3840
   76CHL1  H27C 8104   4.513   0.813   8.456  2.0126  0.9006 -0.5464
   77CHL1    C3 8105   2.488   5.127   6.571  0.0371  0.3514 -0.5467
   77CHL1    H3 8106   2.587   5.099   6.613 -0.5491  3.5623  3.5702
   77CHL1    O3 8107   2.493   5.139   6.433 -0.7036 -0.2368  0.1385
   77CHL1   H3' 8108   2.515   5.050   6.403 -0.1230 -0.5990  1.5892
   77CHL1    C4 8109   2.386   5.021   6.624 -0.0203 -0.1151  0.4951
   77CHL1   H4A 8110   2.290   5.052   6.577 -0.1506 -0.5761  0.4476
   77CHL1   H4B 8111   2.410   4.926   6.572 -1.1191  0.0491 -0.3487
   77CHL1    C5 8112   2.375   5.013   6.770 -0.7206  0.2242  0.6759
   77CHL1    C6 8113   2.389   4.888   6.828  1.2017 -0.3921  0.0461
   77CHL1    H6 8114   2.400   4.796   6.769 -0.9261 -0.1239 -0.8692
   77CHL1    C7 8115   2.382   4.864   6.974  0.4500 -0.3420 -0.0730
   77CHL1   H7A 8116   2.320   4.773   6.991  0.9187 -0.8153 -0.8501
   77CHL1   H7B 8117   2.479   4.833   7.017  0.1654 -1.5529 -0.2672
   77CHL1    C8 8118   2.338   4.987   7.058  0.1806  0.1429 -0.0237
   77CHL1    H8 8119   2.227   4.982   7.059  0.0113  2.6691  0.7010
   77CHL1   C14 8120   2.388   4.965   7.201 -0.3059  0.3836  0.6314
   77CHL1   H14 8121   2.499   4.967   7.193 -0.2869 -1.1996  0.2724
   77CHL1   C15 8122   2.366   4.832   7.269 -0.8663  0.4772  0.3629
   77CHL1  H15A 8123   2.266   4.787   7.252 -1.7767  2.2910  0.6140
   77CHL1  H15B 8124   2.442   4.759   7.234 -2.7256 -1.1791 -0.3804
   77CHL1   C16 8125   2.377   4.861   7.420 -0.4449  0.4113  0.2445
   77CHL1  H16A 8126   2.280   4.837   7.468 -1.1385  0.5989 -1.0142
   77CHL1  H16B 8127   2.456   4.801   7.469  0.2126  0.4812 -0.7009
   77CHL1   C17 8128   2.405   5.008   7.437 -0.9197  0.6454 -0.1403
   77CHL1   H17 8129   2.514   5.028   7.433 -0.7368 -0.4959 -1.3978
   77CHL1   C13 8130   2.352   5.072   7.307  0.0815 -0.4936  0.6125
   77CHL1   C18 8131   2.202   5.098   7.321  0.1006 -0.0738 -0.0067
   77CHL1  H18A 8132   2.180   5.187   7.383 -0.3137 -0.0691 -0.1628
   77CHL1  H18B 8133   2.150   5.105   7.223 -0.3988 -4.6587 -0.2990
   77CHL1  H18C 8134   2.160   5.017   7.383 -0.7586 -0.1226 -0.6407
   77CHL1   C12 8135   2.415   5.202   7.249  0.1021 -0.5101  0.2396
   77CHL1  H12A 8136   2.390   5.284   7.320  2.5073 -0.1343  0.7255
   77CHL1  H12B 8137   2.524   5.201   7.232  0.0081  0.6590 -0.5498
   77CHL1   C11 8138   2.369   5.238   7.103 -0.1719 -0.3393  0.1458
   77CHL1  H11A 8139   2.268   5.283   7.094 -0.1586  0.0225  1.5905
   77CHL1  H11B 8140   2.435   5.326   7.089  0.0574 -0.4008  0.8292
   77CHL1    C9 8141   2.400   5.116   7.005 -0.4404  0.5189 -0.4382
   77CHL1    H9 8142   2.509   5.095   7.009 -0.7230 -1.0249 -0.0909
   77CHL1   C10 8143   2.367   5.138   6.857 -0.9283  0.3678 -0.2397
   77CHL1   C19 8144   2.221   5.179   6.836 -0.1798  0.2636 -0.3583
   77CHL1  H19A 8145   2.207   5.215   6.731  0.9276 -1.8715 -1.2928
   77CHL1  H19B 8146   2.153   5.091   6.845  0.9581 -0.6036  0.0036
   77CHL1  H19C 8147   2.196   5.259   6.909  1.9155  1.0331 -0.4083
   77CHL1    C1 8148   2.464   5.244   6.798 -0.0550 -0.4733  0.3909
   77CHL1   H1A 8149   2.437   5.336   6.853 -0.6582  0.2542 -1.0584
   77CHL1   H1B 8150   2.568   5.222   6.833  0.1557 -0.3422 -0.1412
   77CHL1    C2 8151   2.457   5.261   6.650  0.1770  0.1846 -0.4544
   77CHL1   H2A 8152   2.534   5.335   6.621  0.2016  1.2281  2.0468
   77CHL1   H2B 8153   2.356   5.300   6.622 -0.5128 -2.1009 -1.3871
   77CHL1   C20 8154   2.356   5.072   7.570  0.2199 -0.2973  0.8118
   77CHL1   H20 8155   2.245   5.067   7.572  0.1875 -0.5318  4.2547
   77CHL1   C21 8156   2.392   5.226   7.573 -0.0929 -0.0894 -0.6091
   77CHL1  H21A 8157   2.330   5.290   7.506 -2.1038 -0.9078  0.3889
   77CHL1  H21B 8158   2.497   5.231   7.538  0.9257  1.6519  2.2905
   77CHL1  H21C 8159   2.372   5.278   7.669 -2.5727  0.6369 -1.4319
   77CHL1   C22 8160   2.421   5.001   7.688  0.4289  0.2077  0.3657
   77CHL1  H22A 8161   2.395   4.894   7.699 -1.3886  0.6204  0.4280
   77CHL1  H22B 8162   2.532   5.007   7.688  0.5339 -0.5974 -2.4047
   77CHL1   C23 8163   2.374   5.060   7.829 -0.2160 -0.1525  0.1396
   77CHL1  H23A 8164   2.427   5.157   7.837  0.8168 -0.6654 -0.2013
   77CHL1  H23B 8165   2.266   5.085   7.834 -0.6890 -1.6948 -1.3604
   77CHL1   C24 8166   2.408   4.979   7.952  0.2341  0.0330 -0.2574
   77CHL1  H24A 8167   2.367   4.877   7.937  0.6186 -0.8908  3.7911
   77CHL1  H24B 8168   2.519   4.984   7.959  0.1818  0.3921  0.4895
   77CHL1   C25 8169   2.338   5.029   8.082  0.3473 -0.4409 -0.1989
   77CHL1   H25 8170   2.363   5.137   8.096  0.4948 -0.4137 -0.6532
   77CHL1   C26 8171   2.186   5.017   8.073 -0.1321  0.1415 -0.3328
   77CHL1  H26A 8172   2.149   5.039   8.175  1.8954 -0.2023  0.5233
   77CHL1  H26B 8173   2.145   5.102   8.014  1.2852  1.4080  0.4222
   77CHL1  H26C 8174   2.143   4.919   8.044  2.9503 -1.4244 -0.0001
   77CHL1   C27 8175   2.388   4.946   8.202 -0.2026  1.2853  0.0846
   77CHL1  H27A 8176   2.498   4.952   8.216 -0.0961 -0.2820  0.1497
   77CHL1  H27B 8177   2.333   4.971   8.295  1.6330 -0.1615  1.6532
   77CHL1  H27C 8178   2.363   4.838   8.192 -0.5537  1.1263  2.2708
   78CHL1    C3 8179   6.560   6.494   6.856  0.6321 -0.3705  0.7623
   78CHL1    H3 8180   6.450   6.484   6.867  0.4434  2.4167  2.3105
   78CHL1    O3 8181   6.591   6.483   6.720  0.5839 -0.2178 -0.1032
   78CHL1   H3' 8182   6.680   6.515   6.710 -0.0603  1.6685 -0.1665
   78CHL1    C4 8183   6.602   6.630   6.903  0.4383 -0.2591  0.5739
   78CHL1   H4A 8184   6.712   6.622   6.894  0.4650 -0.5302  1.0617
   78CHL1   H4B 8185   6.555   6.712   6.845 -0.7891 -0.9326  0.5947
   78CHL1    C5 8186   6.562   6.643   7.050  1.1670 -0.2835 -0.6875
   78CHL1    C6 8187   6.481   6.738   7.081  0.2441  0.0711 -0.0595
   78CHL1    H6 8188   6.459   6.816   7.005  0.4140  1.0437  0.8651
   78CHL1    C7 8189   6.431   6.759   7.221 -0.2088  0.7188 -0.0461
   78CHL1   H7A 8190   6.448   6.866   7.245 -0.4966  1.2259 -1.9825
   78CHL1   H7B 8191   6.323   6.733   7.226 -0.1634  0.5156 -0.0904
   78CHL1    C8 8192   6.499   6.671   7.333 -0.3565 -0.2602 -0.7030
   78CHL1    H8 8193   6.595   6.723   7.349 -0.9937  1.0346 -0.9191
   78CHL1   C14 8194   6.421   6.654   7.462  0.3337 -0.3782 -0.0864
   78CHL1   H14 8195   6.326   6.602   7.437 -1.1167  1.1906  1.8682
   78CHL1   C15 8196   6.366   6.778   7.516  0.1349 -0.6722 -0.6413
   78CHL1  H15A 8197   6.456   6.843   7.516  1.3266 -2.2413  0.2041
   78CHL1  H15B 8198   6.289   6.832   7.457 -0.3000 -1.2812 -0.6404
   78CHL1   C16 8199   6.317   6.746   7.654 -0.2440  0.3981 -0.1196
   78CHL1  H16A 8200   6.345   6.822   7.730  1.7516 -0.5579  0.1606
   78CHL1  H16B 8201   6.206   6.740   7.647 -0.2255 -0.7900  0.3387
   78CHL1   C17 8202   6.382   6.609   7.685  0.0141 -0.0886  0.4675
   78CHL1   H17 8203   6.298   6.544   7.652 -0.1202  0.7454 -0.8786
   78CHL1   C13 8204   6.486   6.577   7.575 -0.0524  0.2198  0.3425
   78CHL1   C18 8205   6.624   6.641   7.624  0.2387 -0.1199 -0.6734
   78CHL1  H18A 8206   6.604   6.735   7.678 -0.3985 -0.8575  0.3973
   78CHL1  H18B 8207   6.680   6.573   7.692 -1.5380 -0.4281  0.5410
   78CHL1  H18C 8208   6.698   6.657   7.542  0.7177  1.9891  0.1220
   78CHL1   C12 8209   6.497   6.435   7.529 -0.5687  0.0186  0.5155
   78CHL1  H12A 8210   6.546   6.371   7.605 -0.6207 -1.7307 -0.8575
   78CHL1  H12B 8211   6.401   6.389   7.496 -0.7677  0.9091 -0.2013
   78CHL1   C11 8212   6.576   6.431   7.397  0.0930 -0.4457 -0.2350
   78CHL1  H11A 8213   6.677   6.465   7.428 -0.3945  0.9859 -0.1592
   78CHL1  H11B 8214   6.586   6.326   7.363  1.8649  0.0068 -1.2605
   78CHL1    C9 8215   6.525   6.528   7.287 -0.0891  0.4349  0.2756
   78CHL1    H9 8216   6.428   6.490   7.251  1.3009 -1.4266 -1.7535
   78CHL1   C10 8217   6.604   6.530   7.150 -0.4205 -0.1703 -0.2151
   78CHL1   C19 8218   6.748   6.562   7.176 -0.2450 -0.2972 -0.0526
   78CHL1  H19A 8219   6.790   6.462   7.201  1.0985 -0.0202 -1.0600
   78CHL1  H19B 8220   6.808   6.583   7.085 -0.7251 -0.6769 -0.4619
   78CHL1  H19C 8221   6.772   6.631   7.260  2.3751 -1.9688  0.7137
   78CHL1    C1 8222   6.582   6.394   7.080 -0.3988  0.2182 -0.0053
   78CHL1   H1A 8223   6.627   6.310   7.136  0.4449 -0.7800 -2.0643
   78CHL1   H1B 8224   6.474   6.380   7.059 -0.8584  1.0085  1.6719
   78CHL1    C2 8225   6.636   6.387   6.939  0.1207 -0.3583 -0.1974
   78CHL1   H2A 8226   6.621   6.286   6.896  1.4079 -2.5689  3.9807
   78CHL1   H2B 8227   6.746   6.399   6.937  0.1659 -0.6689 -3.1788
   78CHL1   C20 8228   6.406   6.584   7.833  0.1119  0.2855  1.1079
   78CHL1   H20 8229   6.482   6.659   7.865  0.6634  1.6277 -2.8109
   78CHL1   C21 8230   6.457   6.447   7.869 -0.3446  0.2746  0.4139
   78CHL1  H21A 8231   6.392   6.362   7.840 -1.8270  1.8363 -1.0609
   78CHL1  H21B 8232   6.482   6.431   7.977 -0.8993 -1.8917  0.2591
   78CHL1  H21C 8233   6.553   6.426   7.817 -0.2881  0.4559  0.4429
   78CHL1   C22 8234   6.275   6.611   7.915  0.3092 -0.0687 -0.7831
   78CHL1  H22A 8235   6.237   6.712   7.890  2.5351  0.9644 -0.2934
   78CHL1  H22B 8236   6.203   6.527   7.901 -0.6300  0.5215  0.3964
   78CHL1   C23 8237   6.296   6.599   8.068 -0.5371 -0.3332  0.0828
   78CHL1  H23A 8238   6.330   6.496   8.095  0.4672  0.2663  1.1860
   78CHL1  H23B 8239   6.375   6.667   8.106 -0.0718 -1.6956  1.7319
   78CHL1   C24 8240   6.171   6.642   8.144 -0.9888  0.4433 -0.0842
   78CHL1  H24A 8241   6.173   6.754   8.142  1.7184  0.5122  1.9074
   78CHL1  H24B 8242   6.078   6.609   8.094 -0.9175 -0.1695  0.1804
   78CHL1   C25 8243   6.153   6.595   8.288 -0.0836 -0.6611 -0.2556
   78CHL1   H25 8244   6.151   6.484   8.294  0.3767 -0.6588 -0.0023
   78CHL1   C26 8245   6.271   6.639   8.381 -0.4010 -0.0739  0.0969
   78CHL1  H26A 8246   6.278   6.747   8.407  1.0530 -0.2232  0.4253
   78CHL1  H26B 8247   6.273   6.573   8.470  2.2270  0.6860  0.6907
   78CHL1  H26C 8248   6.366   6.607   8.333  0.2995 -0.5149  1.6979
   78CHL1   C27 8249   6.017   6.639   8.345 -0.2868  0.1300 -0.2855
   78CHL1  H27A 8250   6.000   6.748   8.346 -1.6713 -0.0671  0.5831
   78CHL1  H27B 8251   5.927   6.596   8.297 -0.7738  2.9977 -2.1499
   78CHL1  H27C 8252   6.016   6.618   8.454  1.1361 -2.4938 -0.6770
   79CHL1    C3 8253   2.703   1.295   7.082  0.4880 -0.0025  0.0028
   79CHL1    H3 8254   2.767   1.204   7.080  1.2939  0.5638 -2.1789
   79CHL1    O3 8255   2.670   1.330   6.948  0.1164 -0.4427 -0.0670
   79CHL1   H3' 8256   2.656   1.424   6.944 -1.0047 -0.5704  0.4181
   79CHL1    C4 8257   2.582   1.261   7.173  0.3585  0.0483 -0.0094
   79CHL1   H4A 8258   2.516   1.350   7.175  0.9470  0.6553 -3.1585
   79CHL1   H4B 8259   2.531   1.170   7.135  0.5124 -0.8233  1.7446
   79CHL1    C5 8260   2.620   1.246   7.323  0.5075 -0.3796  0.2754
   79CHL1    C6 8261   2.580   1.131   7.382 -0.8152  0.7408  0.3771
   79CHL1    H6 8262   2.530   1.053   7.323  0.2019  1.0131 -0.8854
   79CHL1    C7 8263   2.600   1.104   7.528  0.9869  0.1890 -0.1747
   79CHL1   H7A 8264   2.509   1.055   7.569  1.0336 -2.5181 -2.9756
   79CHL1   H7B 8265   2.671   1.020   7.545 -0.5083 -0.8458  1.1989
   79CHL1    C8 8266   2.639   1.231   7.616  0.9256 -0.1926 -0.0893
   79CHL1    H8 8267   2.541   1.281   7.626  1.8128  1.7345 -0.6389
   79CHL1   C14 8268   2.695   1.190   7.757 -0.1526  0.5495  0.4911
   79CHL1   H14 8269   2.793   1.142   7.741 -0.5326  0.3881 -1.6930
   79CHL1   C15 8270   2.616   1.095   7.843 -0.4342  0.0822  0.1055
   79CHL1  H15A 8271   2.508   1.096   7.817 -0.8206 -1.6165  1.4604
   79CHL1  H15B 8272   2.647   0.989   7.831 -0.9429 -0.9108  5.2752
   79CHL1   C16 8273   2.649   1.135   7.983 -0.2726 -0.2769 -0.1296
   79CHL1  H16A 8274   2.562   1.183   8.034 -0.8387  1.5939 -2.6645
   79CHL1  H16B 8275   2.697   1.055   8.044  0.2359  0.5568  0.5860
   79CHL1   C17 8276   2.751   1.249   7.974 -0.7680 -0.2393 -0.1526
   79CHL1   H17 8277   2.855   1.210   7.971 -0.4599  0.3918  1.3738
   79CHL1   C13 8278   2.712   1.313   7.845 -0.3153  0.1660  0.2649
   79CHL1   C18 8279   2.584   1.390   7.865 -0.1516 -0.5139  0.8323
   79CHL1  H18A 8280   2.555   1.443   7.772 -0.3738  1.1164  1.7963
   79CHL1  H18B 8281   2.498   1.334   7.906 -2.2762  0.6799 -1.7040
   79CHL1  H18C 8282   2.605   1.475   7.933 -0.4747  0.2043  0.0501
   79CHL1   C12 8283   2.818   1.407   7.781  1.2549  0.1904 -0.0318
   79CHL1  H12A 8284   2.808   1.505   7.832 -2.0564  0.3846 -0.8702
   79CHL1  H12B 8285   2.921   1.366   7.786  1.1269  0.0167  2.0347
   79CHL1   C11 8286   2.787   1.438   7.631 -0.0066 -0.1709 -0.4100
   79CHL1  H11A 8287   2.708   1.515   7.639 -2.8010 -2.9587  0.7128
   79CHL1  H11B 8288   2.875   1.485   7.582 -0.1373  2.5589  1.7168
   79CHL1    C9 8289   2.735   1.323   7.543  0.6411 -0.3534 -0.5831
   79CHL1    H9 8290   2.822   1.255   7.528  0.6143 -1.1703  2.4140
   79CHL1   C10 8291   2.690   1.363   7.393 -0.5840  0.7810  0.5683
   79CHL1   C19 8292   2.604   1.488   7.399  0.6611  0.2475 -0.2077
   79CHL1  H19A 8293   2.518   1.478   7.468 -0.9264  0.3404 -2.0969
   79CHL1  H19B 8294   2.662   1.577   7.434  1.0108 -0.0219 -0.1002
   79CHL1  H19C 8295   2.553   1.504   7.301 -2.3906  2.5299  1.5668
   79CHL1    C1 8296   2.809   1.389   7.296  0.2084 -0.3584 -1.2278
   79CHL1   H1A 8297   2.854   1.487   7.323  1.1565 -0.4499 -2.3972
   79CHL1   H1B 8298   2.879   1.302   7.305 -0.3099 -0.6199  0.9915
   79CHL1    C2 8299   2.771   1.413   7.149  0.3240  0.0097 -0.8677
   79CHL1   H2A 8300   2.864   1.437   7.092  0.5910 -0.0564 -0.4660
   79CHL1   H2B 8301   2.706   1.502   7.138 -1.7371 -1.3573 -0.3913
   79CHL1   C20 8302   2.750   1.335   8.105 -0.8045  0.6112  0.6812
   79CHL1   H20 8303   2.658   1.396   8.117 -2.2323 -1.4255  0.6195
   79CHL1   C21 8304   2.871   1.438   8.094  0.1474  0.0834 -0.6053
   79CHL1  H21A 8305   2.854   1.511   8.176 -0.6037  2.3998 -2.7146
   79CHL1  H21B 8306   2.892   1.504   8.008 -2.7827  0.7469 -0.8940
   79CHL1  H21C 8307   2.970   1.390   8.110  1.9441  3.9562  1.1069
   79CHL1   C22 8308   2.764   1.254   8.238 -0.0591  0.1330  0.4216
   79CHL1  H22A 8309   2.749   1.330   8.318 -1.3727  1.6204 -1.1833
   79CHL1  H22B 8310   2.680   1.182   8.246  0.8120 -1.1355 -1.2487
   79CHL1   C23 8311   2.905   1.181   8.262  0.2759  0.8972 -0.3847
   79CHL1  H23A 8312   2.964   1.145   8.175 -1.4951  1.5346 -1.9433
   79CHL1  H23B 8313   2.969   1.266   8.292  1.2727 -0.2377  0.7899
   79CHL1   C24 8314   2.906   1.062   8.361  0.0775 -0.3673  0.8742
   79CHL1  H24A 8315   2.864   1.105   8.455  1.0405  3.1375 -0.1563
   79CHL1  H24B 8316   2.834   0.990   8.316 -0.4694  0.1559  0.8938
   79CHL1   C25 8317   3.035   0.981   8.385 -0.2150 -0.2408 -0.1997
   79CHL1   H25 8318   3.094   0.970   8.291  2.0927 -0.0378  1.1287
   79CHL1   C26 8319   3.123   1.043   8.492 -0.0198  0.0912 -0.6046
   79CHL1  H26A 8320   3.063   1.045   8.586  0.8915 -1.5393  0.0528
   79CHL1  H26B 8321   3.220   0.993   8.512 -0.0208  0.6469  0.9172
   79CHL1  H26C 8322   3.148   1.148   8.463  0.5690  0.0656 -0.2016
   79CHL1   C27 8323   2.998   0.842   8.444 -0.0881 -0.0186 -0.5742
   79CHL1  H27A 8324   2.937   0.799   8.362 -0.2279  2.4242 -1.8490
   79CHL1  H27B 8325   3.090   0.780   8.455 -1.0442 -1.5891 -1.1361
   79CHL1  H27C 8326   2.925   0.845   8.527 -0.4224  1.4574 -0.8994
   80CHL1    C3 8327   6.314   5.974   6.740 -0.0287  0.2505 -0.6012
   80CHL1    H3 8328   6.206   5.974   6.764 -0.0365  1.1205 -0.6024
   80CHL1    O3 8329   6.329   6.005   6.603 -0.0118  0.0450  0.2494
   80CHL1   H3' 8330   6.302   6.097   6.599  1.7233  0.8091  3.0602
   80CHL1    C4 8331   6.386   6.083   6.831 -0.0846 -0.5711  0.2520
   80CHL1   H4A 8332   6.494   6.099   6.810 -0.7032  2.8605 -1.0566
   80CHL1   H4B 8333   6.339   6.181   6.807  1.4896  0.2308  0.3216
   80CHL1    C5 8334   6.377   6.060   6.981  0.3569  0.6054  0.5207
   80CHL1    C6 8335   6.324   6.146   7.067 -0.2066 -0.6822  1.6921
   80CHL1    H6 8336   6.280   6.239   7.028 -0.9691 -0.8679  2.0963
   80CHL1    C7 8337   6.327   6.114   7.211  0.2805  0.1234 -0.6667
   80CHL1   H7A 8338   6.361   6.202   7.270  1.5305 -0.8457  0.1155
   80CHL1   H7B 8339   6.224   6.100   7.249  0.4544  0.7029  0.0437
   80CHL1    C8 8340   6.421   5.998   7.258  0.5435 -0.5840 -0.3026
   80CHL1    H8 8341   6.527   6.032   7.250 -0.1160  1.4855 -0.8256
   80CHL1   C14 8342   6.378   5.948   7.398 -0.0505 -0.1969 -0.8254
   80CHL1   H14 8343   6.273   5.915   7.383 -0.3391  0.0134  0.5557
   80CHL1   C15 8344   6.390   6.053   7.514  0.2252 -0.4952  0.5707
   80CHL1  H15A 8345   6.472   6.122   7.486 -0.4156 -0.0903 -0.3694
   80CHL1  H15B 8346   6.291   6.103   7.524 -0.0604 -1.0980  0.8151
   80CHL1   C16 8347   6.416   5.970   7.638  1.0406  0.0585 -0.1938
   80CHL1  H16A 8348   6.516   5.988   7.682  1.7345 -0.3461 -1.5482
   80CHL1  H16B 8349   6.343   5.995   7.718  2.5573 -0.3867  1.4059
   80CHL1   C17 8350   6.400   5.820   7.597  0.1068  0.5727 -0.9014
   80CHL1   H17 8351   6.291   5.805   7.579  0.0082  0.5948 -0.3476
   80CHL1   C13 8352   6.451   5.821   7.454  0.0469 -0.5023 -0.2530
   80CHL1   C18 8353   6.610   5.851   7.463  0.1653 -0.7404 -0.3425
   80CHL1  H18A 8354   6.651   5.758   7.509 -1.2733 -1.4958 -0.5047
   80CHL1  H18B 8355   6.656   5.877   7.365  1.1849  0.4569  0.4362
   80CHL1  H18C 8356   6.635   5.944   7.517  1.9975 -0.9548 -0.7686
   80CHL1   C12 8357   6.415   5.704   7.356 -0.3555 -0.4653 -0.5473
   80CHL1  H12A 8358   6.471   5.616   7.394 -0.8620  0.0315  1.4665
   80CHL1  H12B 8359   6.307   5.679   7.365 -0.3631 -1.1779 -2.2299
   80CHL1   C11 8360   6.447   5.738   7.210  0.0761  0.6836 -0.9731
   80CHL1  H11A 8361   6.554   5.712   7.193 -0.1319 -2.2057  1.2306
   80CHL1  H11B 8362   6.403   5.656   7.150  2.8252 -1.0728 -0.7820
   80CHL1    C9 8363   6.393   5.884   7.162 -1.2145 -0.1003  0.5071
   80CHL1    H9 8364   6.283   5.870   7.153 -1.2741  0.9449 -0.6389
   80CHL1   C10 8365   6.437   5.918   7.019  0.7854  0.5565  0.0317
   80CHL1   C19 8366   6.585   5.915   7.002 -0.1913 -0.1205  0.1418
   80CHL1  H19A 8367   6.627   5.817   7.032  1.0955  1.0562  2.4871
   80CHL1  H19B 8368   6.620   5.942   6.901 -0.0023  0.0523  0.2528
   80CHL1  H19C 8369   6.637   5.984   7.073 -0.7096 -1.4164  1.8530
   80CHL1    C1 8370   6.375   5.808   6.919  0.6140  0.4969 -0.5151
   80CHL1   H1A 8371   6.429   5.713   6.942 -0.8307 -0.4164 -0.7684
   80CHL1   H1B 8372   6.267   5.789   6.938  0.5375  0.8801 -0.5674
   80CHL1    C2 8373   6.385   5.842   6.771  0.4007 -0.0494  0.2154
   80CHL1   H2A 8374   6.338   5.767   6.704 -0.4979  0.2983  0.4476
   80CHL1   H2B 8375   6.490   5.866   6.744  0.2498  1.1576  0.6531
   80CHL1   C20 8376   6.467   5.726   7.703 -0.6118  0.3740  0.5183
   80CHL1   H20 8377   6.576   5.744   7.702 -0.6608  0.6655 -0.1009
   80CHL1   C21 8378   6.434   5.577   7.679  0.8936 -0.3617  0.9586
   80CHL1  H21A 8379   6.344   5.581   7.614  2.9598  0.9241 -2.0313
   80CHL1  H21B 8380   6.401   5.515   7.765 -1.1982  1.9177  1.9154
   80CHL1  H21C 8381   6.519   5.528   7.627 -0.3917 -2.1132  0.4374
   80CHL1   C22 8382   6.424   5.744   7.848  0.0643 -0.8741 -0.2079
   80CHL1  H22A 8383   6.417   5.852   7.873 -0.4481 -1.0926  0.6307
   80CHL1  H22B 8384   6.320   5.703   7.847 -2.1161  3.9190 -1.6173
   80CHL1   C23 8385   6.511   5.671   7.954 -0.3478  0.5513  0.3112
   80CHL1  H23A 8386   6.539   5.567   7.928  1.3403  1.2689 -0.9127
   80CHL1  H23B 8387   6.605   5.730   7.955 -1.0066  1.6371  0.7748
   80CHL1   C24 8388   6.441   5.671   8.090 -0.5077 -0.3787 -0.1524
   80CHL1  H24A 8389   6.444   5.778   8.121 -0.8171 -1.3278  3.7107
   80CHL1  H24B 8390   6.333   5.647   8.081 -0.8118  1.1305 -0.8882
   80CHL1   C25 8391   6.508   5.595   8.204 -0.0536 -0.6005  0.1674
   80CHL1   H25 8392   6.507   5.486   8.180  1.0867 -0.2056 -1.9470
   80CHL1   C26 8393   6.661   5.620   8.216 -0.8546 -0.8721 -0.2557
   80CHL1  H26A 8394   6.694   5.589   8.115  1.4944 -0.6205  0.3832
   80CHL1  H26B 8395   6.690   5.726   8.230 -0.3645 -0.9918 -0.3372
   80CHL1  H26C 8396   6.708   5.559   8.296  1.0457  1.0162  0.1486
   80CHL1   C27 8397   6.441   5.603   8.343 -0.5607 -0.3919 -0.0428
   80CHL1  H27A 8398   6.334   5.574   8.339 -0.1383 -2.3781  1.3583
   80CHL1  H27B 8399   6.496   5.533   8.411  2.9749  0.4755 -1.7787
   80CHL1  H27C 8400   6.458   5.703   8.388  1.9929 -1.4649  1.6436
   81CHL1    C3 8401   6.319   5.303   6.784  0.3410  0.6573 -0.2538
   81CHL1    H3 8402   6.408   5.368   6.795 -0.2301  1.2100  1.6134
   81CHL1    O3 8403   6.291   5.280   6.647  0.6287  0.3368 -0.0527
   81CHL1   H3' 8404   6.342   5.201   6.626  1.1364 -0.1009  2.4018
   81CHL1    C4 8405   6.360   5.172   6.858  0.3551 -0.0105  0.8127
   81CHL1   H4A 8406   6.285   5.090   6.850  1.7509 -1.9743  5.0996
   81CHL1   H4B 8407   6.451   5.132   6.809 -1.1475 -2.7940  0.0479
   81CHL1    C5 8408   6.391   5.189   7.001  0.2647 -0.7499  0.0275
   81CHL1    C6 8409   6.511   5.169   7.055 -0.2482 -0.0627 -0.1454
   81CHL1    H6 8410   6.594   5.139   6.989  0.0088  1.4495 -0.5531
   81CHL1    C7 8411   6.527   5.186   7.199 -0.0794 -0.0788  0.5788
   81CHL1   H7A 8412   6.598   5.107   7.232  0.3445 -1.7249 -3.6104
   81CHL1   H7B 8413   6.585   5.278   7.221  0.6507  0.4363 -2.8309
   81CHL1    C8 8414   6.398   5.171   7.279  0.1448  0.0142  0.0873
   81CHL1    H8 8415   6.355   5.069   7.265  0.3601 -0.6238  3.2670
   81CHL1   C14 8416   6.431   5.183   7.427 -1.3608  0.1826 -0.0218
   81CHL1   H14 8417   6.489   5.278   7.436  2.7839 -2.2501  1.5912
   81CHL1   C15 8418   6.518   5.074   7.493 -0.6477  0.1432  0.1714
   81CHL1  H15A 8419   6.507   4.973   7.448  1.2813  0.0794 -0.2523
   81CHL1  H15B 8420   6.622   5.112   7.492 -0.5443  0.0555  2.5660
   81CHL1   C16 8421   6.477   5.065   7.639  0.7696 -0.5170 -0.6293
   81CHL1  H16A 8422   6.437   4.965   7.670 -1.2254  0.5060  0.3251
   81CHL1  H16B 8423   6.568   5.081   7.700  0.7249  0.1952 -0.7474
   81CHL1   C17 8424   6.374   5.176   7.659  0.7306  0.7948 -0.4617
   81CHL1   H17 8425   6.443   5.260   7.683  1.7617  0.2262 -1.3727
   81CHL1   C13 8426   6.306   5.190   7.519  0.0396  0.7541 -0.5129
   81CHL1   C18 8427   6.211   5.071   7.489 -0.2957  0.3141  0.0025
   81CHL1  H18A 8428   6.198   5.049   7.381  0.1284 -0.4883  0.1068
   81CHL1  H18B 8429   6.242   4.976   7.538  2.4674  1.0924 -0.0647
   81CHL1  H18C 8430   6.113   5.106   7.527  0.6490  1.4443  1.4850
   81CHL1   C12 8431   6.246   5.324   7.471 -0.6224 -0.2415 -0.5061
   81CHL1  H12A 8432   6.183   5.374   7.548  2.0416  0.9284  1.0262
   81CHL1  H12B 8433   6.327   5.399   7.463 -2.2688  1.9034  1.6251
   81CHL1   C11 8434   6.191   5.321   7.328 -0.4786  0.1555 -0.6853
   81CHL1  H11A 8435   6.104   5.253   7.341 -0.8130  0.3675 -1.7506
   81CHL1  H11B 8436   6.142   5.411   7.286 -2.4836 -0.7581 -0.4304
   81CHL1    C9 8437   6.299   5.275   7.226 -0.3943  0.7480  0.1236
   81CHL1    H9 8438   6.366   5.363   7.225  2.2447 -1.1568  0.0513
   81CHL1   C10 8439   6.266   5.243   7.076  0.1844 -0.0453 -0.1633
   81CHL1   C19 8440   6.145   5.143   7.071  0.2551  0.3326 -0.0753
   81CHL1  H19A 8441   6.061   5.158   7.142 -0.1230 -1.3369 -0.1267
   81CHL1  H19B 8442   6.100   5.135   6.969 -0.6893 -0.3498  0.3754
   81CHL1  H19C 8443   6.180   5.040   7.096 -2.5370 -0.4353  1.0626
   81CHL1    C1 8444   6.217   5.377   7.013  0.4554 -0.2656  0.7448
   81CHL1   H1A 8445   6.121   5.411   7.058 -0.9267 -0.5967 -1.8024
   81CHL1   H1B 8446   6.294   5.452   7.041  2.4680 -1.0144 -2.2909
   81CHL1    C2 8447   6.199   5.369   6.857  0.2724 -0.2097  0.6570
   81CHL1   H2A 8448   6.180   5.472   6.820  1.1208 -0.4844 -0.5926
   81CHL1   H2B 8449   6.111   5.307   6.829 -0.0191  0.0638  0.9674
   81CHL1   C20 8450   6.285   5.158   7.781  0.4670 -0.6303 -0.7327
   81CHL1   H20 8451   6.249   5.053   7.780 -0.9485 -0.1806  0.2299
   81CHL1   C21 8452   6.161   5.253   7.779 -0.3865 -0.1175  0.1055
   81CHL1  H21A 8453   6.100   5.235   7.688 -1.4659 -0.2768  0.8492
   81CHL1  H21B 8454   6.188   5.359   7.800 -1.2663  0.1211  0.0573
   81CHL1  H21C 8455   6.099   5.215   7.863 -0.9018  1.6256  0.5582
   81CHL1   C22 8456   6.375   5.178   7.907  0.2637  0.5852 -0.0255
   81CHL1  H22A 8457   6.464   5.112   7.902 -0.0971  0.1594 -0.9712
   81CHL1  H22B 8458   6.422   5.278   7.918  0.8727  0.1683  1.3127
   81CHL1   C23 8459   6.287   5.149   8.033 -0.1759  0.0225 -0.3640
   81CHL1  H23A 8460   6.217   5.234   8.048  0.8481  0.7355  0.5731
   81CHL1  H23B 8461   6.215   5.067   8.013  1.7869 -1.4780 -1.5927
   81CHL1   C24 8462   6.386   5.120   8.151  0.3458  0.3512 -0.1957
   81CHL1  H24A 8463   6.437   5.023   8.129  2.1474  0.4446  2.8969
   81CHL1  H24B 8464   6.455   5.205   8.138 -0.7684  0.8984 -3.4256
   81CHL1   C25 8465   6.298   5.109   8.274  0.3643 -0.6477 -0.6833
   81CHL1   H25 8466   6.200   5.063   8.249 -0.6499 -0.4946  2.5395
   81CHL1   C26 8467   6.359   5.000   8.365 -0.2093 -0.5939  0.2222
   81CHL1  H26A 8468   6.464   5.025   8.392 -0.4130 -0.6760  1.1348
   81CHL1  H26B 8469   6.297   4.988   8.456  1.5140  0.4831  1.6136
   81CHL1  H26C 8470   6.356   4.900   8.318  0.7909 -0.1339 -0.8630
   81CHL1   C27 8471   6.262   5.245   8.332  0.2837 -0.0064 -0.7625
   81CHL1  H27A 8472   6.187   5.236   8.413  4.2252  0.6617  3.3316
   81CHL1  H27B 8473   6.354   5.284   8.381 -0.4871 -0.5913  1.2476
   81CHL1  H27C 8474   6.219   5.317   8.260  0.0548  0.2982 -0.3229
   82CHL1    C3 8475   0.787   1.154   7.053  0.2662  0.0588 -0.1673
   82CHL1    H3 8476   0.704   1.082   7.066 -0.4151  0.8417 -0.0881
   82CHL1    O3 8477   0.804   1.180   6.912  0.3158  0.7767 -0.3471
   82CHL1   H3' 8478   0.727   1.228   6.879 -0.8630 -1.4523 -1.0499
   82CHL1    C4 8479   0.750   1.283   7.124 -0.0238 -0.4895 -0.3601
   82CHL1   H4A 8480   0.835   1.348   7.096 -0.1765  0.1096  0.5373
   82CHL1   H4B 8481   0.653   1.319   7.083 -1.4014 -1.8263  1.5298
   82CHL1    C5 8482   0.748   1.262   7.272 -0.5229 -0.1264 -0.7459
   82CHL1    C6 8483   0.637   1.296   7.343 -0.4344 -0.0260  0.5685
   82CHL1    H6 8484   0.558   1.350   7.289  0.1231  2.2701  1.9474
   82CHL1    C7 8485   0.623   1.282   7.485 -0.1251  0.1144 -0.3394
   82CHL1   H7A 8486   0.577   1.370   7.535 -3.5114 -3.0006  2.6831
   82CHL1   H7B 8487   0.556   1.204   7.528 -1.1785  2.6829  3.1021
   82CHL1    C8 8488   0.761   1.252   7.553 -0.1995 -0.1170 -0.7541
   82CHL1    H8 8489   0.822   1.345   7.560 -0.6293  0.0647  0.9719
   82CHL1   C14 8490   0.740   1.206   7.700  0.6609 -0.1474  0.2638
   82CHL1   H14 8491   0.687   1.110   7.689  1.6337 -0.7068  0.3729
   82CHL1   C15 8492   0.634   1.278   7.791  0.6409  0.3636  0.2539
   82CHL1  H15A 8493   0.644   1.388   7.780  2.2266  0.4783  2.3203
   82CHL1  H15B 8494   0.533   1.255   7.751  0.5669  1.4549 -0.2150
   82CHL1   C16 8495   0.663   1.225   7.934 -0.0135  0.1004  0.1998
   82CHL1  H16A 8496   0.683   1.316   7.995 -1.1538  1.0151 -0.7403
   82CHL1  H16B 8497   0.567   1.171   7.950 -1.0550  1.7624 -0.2090
   82CHL1   C17 8498   0.787   1.123   7.918 -0.4627 -0.6007  0.6208
   82CHL1   H17 8499   0.733   1.029   7.892 -1.2014  0.2351 -0.9672
   82CHL1   C13 8500   0.858   1.168   7.788  0.4733 -0.2540 -0.1578
   82CHL1   C18 8501   0.940   1.301   7.827  0.4354 -0.0615  0.5362
   82CHL1  H18A 8502   1.022   1.266   7.893  1.0085  0.7439  0.2661
   82CHL1  H18B 8503   0.991   1.354   7.744  2.0634  1.1354  2.2175
   82CHL1  H18C 8504   0.873   1.373   7.878  1.6471  2.5737 -1.3386
   82CHL1   C12 8505   0.942   1.063   7.717  0.2626 -0.2938 -0.1276
   82CHL1  H12A 8506   1.041   1.054   7.767  0.3503  2.6621  0.3896
   82CHL1  H12B 8507   0.889   0.965   7.717 -3.3941  1.5308  0.3056
   82CHL1   C11 8508   0.967   1.100   7.568 -0.0582  0.1410 -0.1192
   82CHL1  H11A 8509   1.049   1.176   7.566  2.0797 -2.0192 -2.1989
   82CHL1  H11B 8510   1.020   1.014   7.522  2.1439  1.2512  0.1619
   82CHL1    C9 8511   0.838   1.149   7.488 -0.2937 -0.8676  0.3658
   82CHL1    H9 8512   0.774   1.059   7.472 -0.2331 -0.6582 -1.2143
   82CHL1   C10 8513   0.873   1.196   7.339  0.9936  0.6507  0.4870
   82CHL1   C19 8514   0.981   1.308   7.339 -0.2332  0.5556  0.1223
   82CHL1  H19A 8515   0.990   1.340   7.234 -2.8329 -2.5208 -1.2076
   82CHL1  H19B 8516   0.943   1.392   7.400  1.8258  0.9187  0.9821
   82CHL1  H19C 8517   1.076   1.269   7.382 -0.1703  0.5004 -0.0679
   82CHL1    C1 8518   0.923   1.077   7.260  0.1063  0.4355 -0.7678
   82CHL1   H1A 8519   1.025   1.042   7.288 -0.5279 -0.8618  0.0253
   82CHL1   H1B 8520   0.856   0.990   7.273  0.2266  0.6218  1.5290
   82CHL1    C2 8521   0.926   1.116   7.113  0.1203  0.4899  0.9030
   82CHL1   H2A 8522   0.962   1.024   7.062  0.4471  0.8093  0.5533
   82CHL1   H2B 8523   0.996   1.197   7.085 -0.4954  0.5688 -0.4925
   82CHL1   C20 8524   0.882   1.093   8.027 -0.3504 -0.4759 -0.4399
   82CHL1   H20 8525   0.981   1.090   7.978 -0.1142  1.4171 -0.1642
   82CHL1   C21 8526   0.848   0.955   8.095 -0.1254 -0.0396 -0.4816
   82CHL1  H21A 8527   0.854   0.873   8.020  0.0950  0.9454 -1.5722
   82CHL1  H21B 8528   0.747   0.968   8.139  0.5457  0.8329  0.8682
   82CHL1  H21C 8529   0.922   0.931   8.174  0.6613 -1.2661 -1.5361
   82CHL1   C22 8530   0.879   1.196   8.135 -0.0400  0.7544  0.1424
   82CHL1  H22A 8531   0.913   1.292   8.091  2.0497  0.1542  0.3770
   82CHL1  H22B 8532   0.779   1.187   8.183  0.2717  0.1224  0.6840
   82CHL1   C23 8533   0.983   1.177   8.252  0.5181 -0.0120  0.1720
   82CHL1  H23A 8534   0.958   1.261   8.321 -1.1559  1.3950 -2.0268
   82CHL1  H23B 8535   0.967   1.085   8.313  1.1795 -1.3726 -1.6062
   82CHL1   C24 8536   1.128   1.191   8.210  0.1948 -0.7792 -0.0165
   82CHL1  H24A 8537   1.155   1.105   8.145  1.4270 -0.5611  0.1961
   82CHL1  H24B 8538   1.139   1.283   8.149 -2.0252 -1.3491 -1.3874
   82CHL1   C25 8539   1.232   1.202   8.324 -0.1522  0.0992  1.1481
   82CHL1   H25 8540   1.238   1.096   8.357 -0.6692  0.1039  1.2615
   82CHL1   C26 8541   1.364   1.247   8.268 -0.0226 -0.1781  0.6649
   82CHL1  H26A 8542   1.391   1.189   8.178 -0.0651  2.0782 -0.8961
   82CHL1  H26B 8543   1.376   1.354   8.239  0.7185 -0.5066 -0.2780
   82CHL1  H26C 8544   1.441   1.234   8.347  2.1088  0.6458 -1.1521
   82CHL1   C27 8545   1.190   1.288   8.449 -0.2726  0.1531 -0.0363
   82CHL1  H27A 8546   1.279   1.313   8.512 -0.5883  0.5633  0.2462
   82CHL1  H27B 8547   1.150   1.387   8.419  0.3593  1.6883  3.6453
   82CHL1  H27C 8548   1.109   1.236   8.505 -1.0476 -1.9225 -2.8638
   83CHL1    C3 8549   4.254   0.154   6.696  0.4637  0.0379 -0.6019
   83CHL1    H3 8550   4.193   0.112   6.779 -0.2129  2.0110 -0.0314
   83CHL1    O3 8551   4.201   0.101   6.575  0.0194  0.3917 -0.0921
   83CHL1   H3' 8552   4.132   0.163   6.552 -0.3219  1.0197  2.3647
   83CHL1    C4 8553   4.253   0.305   6.702  0.0230  0.1921  0.6657
   83CHL1   H4A 8554   4.305   0.360   6.620  1.5564  0.0865  1.5282
   83CHL1   H4B 8555   4.146   0.332   6.686  0.1649  0.7868  0.6967
   83CHL1    C5 8556   4.294   0.354   6.833  0.1389  0.1663 -0.5708
   83CHL1    C6 8557   4.213   0.427   6.905  0.4840 -0.1458 -0.6004
   83CHL1    H6 8558   4.115   0.455   6.863 -0.2444 -0.9220  0.5328
   83CHL1    C7 8559   4.250   0.493   7.041 -0.1875 -0.3124  0.2862
   83CHL1   H7A 8560   4.228   0.602   7.045 -1.5859 -0.5799  0.5280
   83CHL1   H7B 8561   4.178   0.448   7.114  0.7666  0.8113  2.0063
   83CHL1    C8 8562   4.401   0.471   7.083 -0.1220 -0.0347 -0.6265
   83CHL1    H8 8563   4.465   0.551   7.041  1.7304 -2.6602 -3.2210
   83CHL1   C14 8564   4.421   0.472   7.238 -1.0756  0.2489  0.7556
   83CHL1   H14 8565   4.364   0.380   7.262 -1.7595 -0.3453 -2.5433
   83CHL1   C15 8566   4.368   0.601   7.315 -0.3413  0.0213  0.0523
   83CHL1  H15A 8567   4.388   0.701   7.271  0.5164 -0.6649 -1.1803
   83CHL1  H15B 8568   4.258   0.593   7.329 -0.4650 -3.1417 -1.7362
   83CHL1   C16 8569   4.440   0.597   7.451  0.1431 -0.6383 -0.2165
   83CHL1  H16A 8570   4.486   0.695   7.476  2.3949 -1.4482 -0.9361
   83CHL1  H16B 8571   4.370   0.566   7.531 -0.1840  0.2914 -0.1346
   83CHL1   C17 8572   4.551   0.493   7.436 -0.0269 -0.6237 -1.1912
   83CHL1   H17 8573   4.510   0.402   7.484  0.4800 -1.0845 -1.6330
   83CHL1   C13 8574   4.566   0.473   7.282  0.5257  0.2656  0.2210
   83CHL1   C18 8575   4.637   0.592   7.221  0.0250  0.0561 -0.1326
   83CHL1  H18A 8576   4.625   0.617   7.114  3.1036 -0.8835 -0.8154
   83CHL1  H18B 8577   4.611   0.686   7.275 -1.6096  0.1721 -1.0979
   83CHL1  H18C 8578   4.746   0.574   7.236  0.3604  0.2688 -2.0935
   83CHL1   C12 8579   4.626   0.339   7.235  0.2045 -0.2275 -0.7144
   83CHL1  H12A 8580   4.728   0.324   7.277  0.2977 -0.0209 -0.8648
   83CHL1  H12B 8581   4.574   0.268   7.303 -0.5994  0.1704 -0.8982
   83CHL1   C11 8582   4.606   0.316   7.085  0.4329  0.0859 -0.4672
   83CHL1  H11A 8583   4.676   0.386   7.035  1.4853 -1.3203 -1.0450
   83CHL1  H11B 8584   4.633   0.214   7.051 -1.9507 -0.7158 -0.1081
   83CHL1    C9 8585   4.459   0.342   7.034  0.5635 -0.2108  0.1352
   83CHL1    H9 8586   4.392   0.270   7.086 -1.0776  1.8172  0.9537
   83CHL1   C10 8587   4.437   0.312   6.881 -0.2464  0.6004  1.1554
   83CHL1   C19 8588   4.541   0.390   6.792  0.0045 -0.1814  0.0789
   83CHL1  H19A 8589   4.544   0.491   6.840  1.0408  0.7564 -1.8439
   83CHL1  H19B 8590   4.638   0.338   6.793  1.4015  2.1421 -2.0624
   83CHL1  H19C 8591   4.505   0.408   6.688  0.5442  3.2028  0.3626
   83CHL1    C1 8592   4.440   0.159   6.867 -0.3210  0.0012 -0.3947
   83CHL1   H1A 8593   4.547   0.133   6.880 -0.0794  1.0969 -0.1265
   83CHL1   H1B 8594   4.386   0.099   6.944  3.1007 -1.9063  0.7044
   83CHL1    C2 8595   4.398   0.101   6.727  0.8348 -0.0583  0.5334
   83CHL1   H2A 8596   4.388  -0.010   6.731 -2.2583  0.0660 -0.4983
   83CHL1   H2B 8597   4.468   0.131   6.647  2.1971 -0.5193  1.5180
   83CHL1   C20 8598   4.674   0.534   7.526  0.5876 -0.0373  0.0935
   83CHL1   H20 8599   4.700   0.637   7.493 -0.5117 -0.1536 -1.2254
   83CHL1   C21 8600   4.784   0.435   7.507 -0.9269  0.1757  0.0441
   83CHL1  H21A 8601   4.839   0.465   7.415  1.2923 -0.4455  1.1160
   83CHL1  H21B 8602   4.752   0.329   7.496 -1.4766  0.3927 -0.5281
   83CHL1  H21C 8603   4.857   0.448   7.589 -0.3898 -2.5163  0.0660
   83CHL1   C22 8604   4.637   0.556   7.679  0.1621 -0.2614  0.0559
   83CHL1  H22A 8605   4.721   0.609   7.730 -0.4320  0.7637 -0.0087
   83CHL1  H22B 8606   4.547   0.620   7.688  1.2424  1.5080 -0.9416
   83CHL1   C23 8607   4.598   0.431   7.766  0.6166  0.2511  0.4849
   83CHL1  H23A 8608   4.504   0.384   7.731  0.5132  1.3112 -0.7403
   83CHL1  H23B 8609   4.682   0.358   7.765 -0.4050 -0.9606  0.7824
   83CHL1   C24 8610   4.581   0.477   7.910 -0.5414  0.5269  0.0722
   83CHL1  H24A 8611   4.681   0.495   7.955 -1.3326 -0.5864  2.4311
   83CHL1  H24B 8612   4.530   0.576   7.899  2.1089  2.3013  2.2932
   83CHL1   C25 8613   4.496   0.379   7.988 -0.0350  0.9542  0.5385
   83CHL1   H25 8614   4.397   0.376   7.938  1.0254 -1.0917 -1.6375
   83CHL1   C26 8615   4.541   0.226   7.984 -0.2439 -0.5128  0.6098
   83CHL1  H26A 8616   4.628   0.211   8.051 -0.8558 -0.0853  1.5257
   83CHL1  H26B 8617   4.464   0.152   8.014 -0.1945 -2.0077 -2.6198
   83CHL1  H26C 8618   4.562   0.208   7.877  1.5635 -2.4656  1.2344
   83CHL1   C27 8619   4.471   0.420   8.127  0.0733  0.6801  0.0489
   83CHL1  H27A 8620   4.558   0.404   8.194  0.2233  3.2410  0.5742
   83CHL1  H27B 8621   4.435   0.525   8.137 -0.6710  0.2964  2.0210
   83CHL1  H27C 8622   4.388   0.350   8.149  1.3635 -1.0652 -0.4277
   84CHL1    C3 8623   4.865   2.980   6.748 -0.6265 -0.1342  0.5171
   84CHL1    H3 8624   4.773   3.002   6.808 -1.5480 -0.4863 -0.7316
   84CHL1    O3 8625   4.814   2.974   6.615 -0.2847  0.3510 -0.3350
   84CHL1   H3' 8626   4.834   3.061   6.579  0.5118  0.4713  0.3673
   84CHL1    C4 8627   4.949   3.111   6.754 -0.0052  0.3150 -1.2069
   84CHL1   H4A 8628   5.034   3.109   6.683  1.7516 -1.6372  0.8088
   84CHL1   H4B 8629   4.874   3.191   6.736 -1.8522 -1.0157  0.2333
   84CHL1    C5 8630   5.015   3.124   6.890  0.8154  0.7348 -0.8889
   84CHL1    C6 8631   4.991   3.241   6.954  0.7178  0.3898  0.0107
   84CHL1    H6 8632   4.937   3.319   6.899  2.0259 -0.4181 -2.5449
   84CHL1    C7 8633   5.049   3.262   7.097 -0.0942 -0.3709 -0.0493
   84CHL1   H7A 8634   5.103   3.359   7.097 -0.9751  0.1561 -1.5312
   84CHL1   H7B 8635   4.967   3.267   7.171  0.2701 -0.2363  0.3473
   84CHL1    C8 8636   5.146   3.152   7.161  0.4170  0.3412  0.1676
   84CHL1    H8 8637   5.247   3.171   7.120  0.6217  2.4108  1.4422
   84CHL1   C14 8638   5.131   3.153   7.312 -0.3102 -0.4613 -0.0816
   84CHL1   H14 8639   5.026   3.124   7.335 -0.0673  0.6135  2.7365
   84CHL1   C15 8640   5.149   3.300   7.370 -0.4670 -0.5636  0.6209
   84CHL1  H15A 8641   5.236   3.349   7.320 -2.3698  0.3991 -1.9613
   84CHL1  H15B 8642   5.061   3.368   7.370 -1.2545 -1.5695 -0.0976
   84CHL1   C16 8643   5.180   3.267   7.523 -0.3769  0.1507 -1.1438
   84CHL1  H16A 8644   5.270   3.327   7.550 -2.2058  1.8982  1.5671
   84CHL1  H16B 8645   5.104   3.291   7.600  1.1400 -1.9583  1.1652
   84CHL1   C17 8646   5.205   3.112   7.536  0.4683 -0.0588  0.9214
   84CHL1   H17 8647   5.122   3.058   7.585  0.9433  0.9478  2.9634
   84CHL1   C13 8648   5.225   3.063   7.387  0.0163  0.3483  0.6847
   84CHL1   C18 8649   5.378   3.093   7.336  0.0889 -0.1803 -0.0566
   84CHL1  H18A 8650   5.414   3.196   7.357  0.1561  0.0700 -1.3516
   84CHL1  H18B 8651   5.442   3.018   7.386 -1.3523 -1.1909  0.3346
   84CHL1  H18C 8652   5.380   3.071   7.227 -2.6865  0.4883 -0.3222
   84CHL1   C12 8653   5.176   2.925   7.351  0.4730 -0.3145 -0.0931
   84CHL1  H12A 8654   5.239   2.850   7.403 -1.5785 -3.7166 -2.1227
   84CHL1  H12B 8655   5.077   2.912   7.401  0.4159 -0.2323 -0.1847
   84CHL1   C11 8656   5.155   2.902   7.193 -0.1110  0.3098 -0.9163
   84CHL1  H11A 8657   5.260   2.892   7.159 -0.1537 -3.2375 -0.3576
   84CHL1  H11B 8658   5.099   2.808   7.174  0.5198 -0.3778  0.5220
   84CHL1    C9 8659   5.083   3.017   7.114 -0.5026  0.4923 -0.3921
   84CHL1    H9 8660   4.981   3.029   7.158 -0.6316  0.5898 -0.7128
   84CHL1   C10 8661   5.075   3.000   6.963 -0.5490  0.0641  0.1244
   84CHL1   C19 8662   5.217   2.986   6.910  0.1681 -0.1470  0.0621
   84CHL1  H19A 8663   5.252   2.886   6.944  1.1234  0.1724  0.0463
   84CHL1  H19B 8664   5.223   2.988   6.799  2.4987 -2.1011  0.0814
   84CHL1  H19C 8665   5.288   3.062   6.948 -1.8769  0.9855  1.8537
   84CHL1    C1 8666   4.994   2.869   6.933  0.3554  0.2945 -0.2768
   84CHL1   H1A 8667   5.055   2.779   6.957  1.4069  1.3593  1.2520
   84CHL1   H1B 8668   4.905   2.868   7.000 -0.1177  2.4620 -0.8095
   84CHL1    C2 8669   4.938   2.852   6.789  1.0015 -1.2603  0.7390
   84CHL1   H2A 8670   4.877   2.759   6.788  0.2983 -0.8282 -1.4320
   84CHL1   H2B 8671   5.020   2.834   6.716 -0.2826  1.3672 -1.5136
   84CHL1   C20 8672   5.318   3.081   7.633 -0.3419 -0.0824  0.0222
   84CHL1   H20 8673   5.414   3.123   7.593  0.0199 -1.7493 -0.9586
   84CHL1   C21 8674   5.328   2.932   7.655  0.4506  0.4273 -0.0254
   84CHL1  H21A 8675   5.398   2.914   7.740  1.1505 -0.0372 -0.6932
   84CHL1  H21B 8676   5.373   2.864   7.579  0.3130 -1.4634  1.4987
   84CHL1  H21C 8677   5.234   2.879   7.680  0.4574  0.3191 -0.2259
   84CHL1   C22 8678   5.297   3.145   7.773  0.1311 -1.0510 -0.5312
   84CHL1  H22A 8679   5.381   3.141   7.845 -2.6534  0.1454  3.1135
   84CHL1  H22B 8680   5.289   3.253   7.749  0.9690 -1.5241 -3.2881
   84CHL1   C23 8681   5.164   3.106   7.852 -0.9493 -0.8363  0.1676
   84CHL1  H23A 8682   5.071   3.145   7.804 -1.5807  0.6724  2.4614
   84CHL1  H23B 8683   5.152   2.996   7.846 -2.1579 -0.6419 -2.0018
   84CHL1   C24 8684   5.161   3.158   7.994 -0.0050 -0.3257 -0.1967
   84CHL1  H24A 8685   5.247   3.102   8.038 -0.1445 -0.0054  0.5005
   84CHL1  H24B 8686   5.193   3.264   7.989  2.4446 -0.9806 -0.0775
   84CHL1   C25 8687   5.020   3.132   8.063  0.1911  0.4511  0.0735
   84CHL1   H25 8688   4.993   3.025   8.061  0.7604  0.1985  2.6025
   84CHL1   C26 8689   5.015   3.167   8.206  0.7248  0.2443 -0.4794
   84CHL1  H26A 8690   4.911   3.158   8.242  0.0795  2.4534 -1.6045
   84CHL1  H26B 8691   5.082   3.099   8.263  1.3090  0.3466 -1.0279
   84CHL1  H26C 8692   5.034   3.275   8.224 -1.8272  0.7680 -0.6616
   84CHL1   C27 8693   4.907   3.216   7.988 -0.2343 -0.2003 -0.0031
   84CHL1  H27A 8694   4.943   3.321   7.987  1.0525 -0.5542  1.9369
   84CHL1  H27B 8695   4.889   3.188   7.882  0.2791  3.2980 -1.1511
   84CHL1  H27C 8696   4.815   3.216   8.050  0.8311  1.3646  1.6738
   85CHL1    C3 8697   6.175   6.461   6.806  0.0854 -0.2179  0.0196
   85CHL1    H3 8698   6.258   6.396   6.842 -1.9124 -1.3479  3.0309
   85CHL1    O3 8699   6.205   6.496   6.669  0.2546  0.1734 -0.2753
   85CHL1   H3' 8700   6.201   6.592   6.671 -3.4099  0.1384 -0.0408
   85CHL1    C4 8701   6.041   6.390   6.815 -0.7371  0.1863  0.9112
   85CHL1   H4A 8702   5.966   6.451   6.760  1.8930  1.6325 -1.3350
   85CHL1   H4B 8703   6.061   6.301   6.752 -1.1114  0.3924  0.4978
   85CHL1    C5 8704   5.999   6.358   6.957  0.6579 -0.6088  0.0404
   85CHL1    C6 8705   5.957   6.239   6.990 -0.2784  0.1223  0.4579
   85CHL1    H6 8706   5.952   6.160   6.914  0.3092  0.0896  0.4512
   85CHL1    C7 8707   5.924   6.206   7.131 -0.2237  0.1446 -0.1837
   85CHL1   H7A 8708   5.829   6.150   7.122  0.1469 -0.5118 -0.0676
   85CHL1   H7B 8709   6.001   6.133   7.167 -0.4093  0.5929  1.1793
   85CHL1    C8 8710   5.900   6.325   7.221 -0.7422  0.8487 -0.0335
   85CHL1    H8 8711   5.805   6.378   7.199  0.1567  1.9197 -1.4778
   85CHL1   C14 8712   5.901   6.279   7.372 -0.0577  0.3533  0.3060
   85CHL1   H14 8713   6.004   6.237   7.376 -0.6609 -1.1190  1.0679
   85CHL1   C15 8714   5.810   6.168   7.422 -0.6287 -0.6970  0.2145
   85CHL1  H15A 8715   5.710   6.163   7.372  0.5959  1.3928 -2.7548
   85CHL1  H15B 8716   5.865   6.076   7.395  1.4187 -0.3840  2.9177
   85CHL1   C16 8717   5.804   6.192   7.575  0.2738  1.0458 -0.9252
   85CHL1  H16A 8718   5.700   6.224   7.596 -0.2177 -1.5558  1.1875
   85CHL1  H16B 8719   5.828   6.102   7.636 -0.4503 -1.1959 -3.7283
   85CHL1   C17 8720   5.892   6.314   7.600 -0.0136  0.2095  0.3565
   85CHL1   H17 8721   5.995   6.275   7.611 -0.2108 -0.9938 -1.6516
   85CHL1   C13 8722   5.893   6.396   7.474 -0.0435  0.2519 -0.3873
   85CHL1   C18 8723   5.761   6.478   7.461  0.4432 -0.1436 -0.5299
   85CHL1  H18A 8724   5.672   6.424   7.501 -0.8738  1.0582 -1.7497
   85CHL1  H18B 8725   5.769   6.575   7.514 -2.9379  0.3149 -0.6593
   85CHL1  H18C 8726   5.749   6.498   7.353 -0.9620  1.1783 -0.1602
   85CHL1   C12 8727   6.014   6.487   7.453  0.1221  0.6718  0.2585
   85CHL1  H12A 8728   6.025   6.579   7.514  1.6223  1.8134 -1.6223
   85CHL1  H12B 8729   6.105   6.424   7.462 -0.4618 -0.3960 -0.9153
   85CHL1   C11 8730   6.012   6.538   7.310 -0.5732  0.2922 -0.1872
   85CHL1  H11A 8731   5.924   6.598   7.279 -0.3908  0.1180 -1.0948
   85CHL1  H11B 8732   6.109   6.590   7.294  1.4499 -2.8277  0.9567
   85CHL1    C9 8733   6.013   6.428   7.199 -0.0210  0.0531  0.2327
   85CHL1    H9 8734   6.107   6.370   7.211  0.1619 -0.3542 -2.5160
   85CHL1   C10 8735   6.014   6.480   7.061 -0.0371 -0.1007  0.5381
   85CHL1   C19 8736   5.904   6.582   7.023  0.2496  0.0788 -0.5741
   85CHL1  H19A 8737   5.896   6.601   6.914 -0.3879 -2.4547 -1.0197
   85CHL1  H19B 8738   5.803   6.541   7.048  0.5153  0.5994  1.6187
   85CHL1  H19C 8739   5.914   6.678   7.078  0.8092 -0.1588 -0.2587
   85CHL1    C1 8740   6.144   6.554   7.032  0.1477 -0.1812 -0.6011
   85CHL1   H1A 8741   6.144   6.652   7.085  1.5309  0.7240 -2.1762
   85CHL1   H1B 8742   6.229   6.505   7.083 -0.2746  0.3276  0.6268
   85CHL1    C2 8743   6.182   6.587   6.888  0.2178  0.1486 -0.2500
   85CHL1   H2A 8744   6.280   6.640   6.880  1.0155 -1.0854  0.8765
   85CHL1   H2B 8745   6.111   6.664   6.852  1.1046  0.8324 -0.5828
   85CHL1   C20 8746   5.864   6.375   7.738  0.0030  0.2164 -0.2135
   85CHL1   H20 8747   5.758   6.407   7.742 -0.5028 -1.3586 -0.3550
   85CHL1   C21 8748   5.954   6.496   7.770  0.0417  0.3218  0.3780
   85CHL1  H21A 8749   6.057   6.470   7.740 -0.3854 -0.1398 -0.7691
   85CHL1  H21B 8750   5.931   6.541   7.869  0.4172  1.2158  0.0749
   85CHL1  H21C 8751   5.943   6.577   7.695 -0.2291  1.8218  1.9615
   85CHL1   C22 8752   5.872   6.275   7.859 -0.1052 -0.0589 -0.1270
   85CHL1  H22A 8753   5.852   6.325   7.956  0.5290 -2.2864  1.2106
   85CHL1  H22B 8754   5.798   6.194   7.840 -1.1512  0.6963  0.6249
   85CHL1   C23 8755   6.012   6.218   7.884  0.3415  0.2603  0.0615
   85CHL1  H23A 8756   6.033   6.170   7.786  1.0329 -1.0546  0.8258
   85CHL1  H23B 8757   6.091   6.295   7.891  0.3648  0.3246 -0.8192
   85CHL1   C24 8758   6.014   6.110   7.998 -0.8050  0.0643 -0.3761
   85CHL1  H24A 8759   6.007   6.163   8.096 -0.5199 -1.3357  0.4182
   85CHL1  H24B 8760   5.925   6.045   7.995 -0.2102 -0.7391 -0.8673
   85CHL1   C25 8761   6.148   6.023   7.992 -0.4408 -0.3179 -0.2932
   85CHL1   H25 8762   6.141   5.958   7.902 -0.1704 -1.1848  0.2977
   85CHL1   C26 8763   6.274   6.110   7.990  0.0811  0.1093  0.5426
   85CHL1  H26A 8764   6.272   6.178   7.903 -1.2103  0.6336  0.9638
   85CHL1  H26B 8765   6.274   6.175   8.080  0.6882  0.6182  0.1769
   85CHL1  H26C 8766   6.367   6.050   7.983  0.1800  0.2985  0.2167
   85CHL1   C27 8767   6.173   5.933   8.118  0.6984  0.2317  0.1966
   85CHL1  H27A 8768   6.259   5.865   8.097  1.1068  1.3549 -2.2146
   85CHL1  H27B 8769   6.188   5.993   8.210  2.8538  1.4704 -0.8563
   85CHL1  H27C 8770   6.080   5.875   8.133  1.2690 -0.9900 -0.7944
   86CHL1    C3 8771   1.984   6.561   7.002  0.5877  0.1305 -0.0983
   86CHL1    H3 8772   2.095   6.559   7.010  0.6756  1.2584 -0.8663
   86CHL1    O3 8773   1.942   6.547   6.866  0.4797  0.0815 -0.7553
   86CHL1   H3' 8774   1.927   6.635   6.831 -0.5065  0.1230 -0.2745
   86CHL1    C4 8775   1.929   6.453   7.087  0.6230 -0.1354 -0.0114
   86CHL1   H4A 8776   1.821   6.440   7.065  0.4765  1.2935 -0.2228
   86CHL1   H4B 8777   1.970   6.355   7.055  1.1336  0.4659 -1.2901
   86CHL1    C5 8778   1.954   6.474   7.237 -0.0672  0.1127  0.4684
   86CHL1    C6 8779   2.022   6.381   7.310  0.0475 -0.2723 -0.1364
   86CHL1    H6 8780   2.049   6.283   7.268  2.3269  1.3608 -2.8455
   86CHL1    C7 8781   2.059   6.405   7.454 -0.3171  0.5238 -0.6418
   86CHL1   H7A 8782   2.042   6.321   7.525 -0.7368  1.1332 -0.0091
   86CHL1   H7B 8783   2.170   6.416   7.455 -0.2380 -0.1879 -0.9765
   86CHL1    C8 8784   1.999   6.537   7.521  0.2811 -0.4890  0.2734
   86CHL1    H8 8785   1.895   6.514   7.553  0.5129  0.4900  1.8182
   86CHL1   C14 8786   2.075   6.568   7.658  0.5416 -0.1821  0.3683
   86CHL1   H14 8787   2.182   6.586   7.637  1.0354 -0.6328  2.2817
   86CHL1   C15 8788   2.089   6.453   7.764 -0.0132 -0.2591 -0.3877
   86CHL1  H15A 8789   1.986   6.412   7.772 -0.4496  1.0042  0.8137
   86CHL1  H15B 8790   2.167   6.376   7.743  0.2912  0.1958 -0.9888
   86CHL1   C16 8791   2.126   6.541   7.894  0.1292 -0.3274  0.0199
   86CHL1  H16A 8792   2.053   6.530   7.978  0.7028  2.4978  1.0017
   86CHL1  H16B 8793   2.225   6.517   7.937  0.8680 -0.1875 -1.5287
   86CHL1   C17 8794   2.112   6.691   7.849 -0.3623  0.1244  0.4466
   86CHL1   H17 8795   2.209   6.715   7.801 -0.6779 -1.7557 -1.2468
   86CHL1   C13 8796   2.015   6.691   7.728 -0.4401  1.0346 -0.1547
   86CHL1   C18 8797   1.867   6.670   7.757  0.5199 -0.1495  0.4450
   86CHL1  H18A 8798   1.826   6.759   7.809 -0.0974  0.9368 -1.7791
   86CHL1  H18B 8799   1.810   6.661   7.662 -0.8790  0.3997  1.1992
   86CHL1  H18C 8800   1.846   6.587   7.828  2.3573 -0.6849  0.4121
   86CHL1   C12 8801   2.041   6.813   7.630  0.1121  0.0244 -0.1830
   86CHL1  H12A 8802   2.004   6.911   7.666 -0.4282 -0.0732 -0.4561
   86CHL1  H12B 8803   2.152   6.813   7.618  0.2311  2.3646  0.4389
   86CHL1   C11 8804   1.977   6.797   7.487  0.2035 -0.2407  0.0301
   86CHL1  H11A 8805   1.870   6.822   7.502  0.0617 -1.1516  0.6389
   86CHL1  H11B 8806   2.019   6.872   7.417  2.0818 -0.3045  1.0287
   86CHL1    C9 8807   2.007   6.655   7.428  0.3183 -0.0293  0.1107
   86CHL1    H9 8808   2.114   6.655   7.398  0.2316 -1.2315 -0.2853
   86CHL1   C10 8809   1.934   6.619   7.292 -0.1038 -0.2233  0.1071
   86CHL1   C19 8810   1.780   6.623   7.314 -0.2921 -0.1176 -0.2541
   86CHL1  H19A 8811   1.758   6.562   7.404  2.5679 -0.0966  0.5438
   86CHL1  H19B 8812   1.743   6.727   7.329  0.0742 -0.0735  0.4110
   86CHL1  H19C 8813   1.729   6.563   7.236 -1.6861 -0.2436  0.7132
   86CHL1    C1 8814   1.976   6.726   7.191  0.1666 -0.0123  1.1037
   86CHL1   H1A 8815   1.918   6.818   7.211 -0.6147 -0.2265 -0.0615
   86CHL1   H1B 8816   2.086   6.739   7.201  0.1893 -0.4997  1.5234
   86CHL1    C2 8817   1.940   6.702   7.044  0.2431  0.0866  0.4872
   86CHL1   H2A 8818   1.981   6.782   6.978  1.1942  0.2626  1.2707
   86CHL1   H2B 8819   1.830   6.717   7.041  0.0951 -0.8857  0.7496
   86CHL1   C20 8820   2.085   6.793   7.963 -0.7546  0.1647  0.2988
   86CHL1   H20 8821   2.063   6.884   7.903  1.4108 -0.2759 -1.2829
   86CHL1   C21 8822   2.223   6.813   8.031 -0.3822  0.7332  0.1039
   86CHL1  H21A 8823   2.306   6.826   7.959  1.2098 -0.0521  1.7292
   86CHL1  H21B 8824   2.243   6.719   8.086 -0.6076  0.4553 -0.2836
   86CHL1  H21C 8825   2.223   6.889   8.112  0.1160  0.2870  0.5306
   86CHL1   C22 8826   1.974   6.768   8.063 -0.0123 -0.5526 -0.2829
   86CHL1  H22A 8827   1.885   6.739   8.003  1.6512 -1.6407 -2.3808
   86CHL1  H22B 8828   2.012   6.681   8.120  0.7503 -0.8949 -1.2892
   86CHL1   C23 8829   1.954   6.886   8.161 -0.3728  0.1141  0.3109
   86CHL1  H23A 8830   2.052   6.896   8.212  1.1948  1.6099 -2.7127
   86CHL1  H23B 8831   1.933   6.973   8.094  1.2937  2.3519  2.5131
   86CHL1   C24 8832   1.842   6.866   8.270  0.6532 -0.8053  0.0660
   86CHL1  H24A 8833   1.753   6.831   8.214  1.0422 -0.1536 -0.9863
   86CHL1  H24B 8834   1.865   6.792   8.350  0.7942  1.3659  2.1528
   86CHL1   C25 8835   1.799   6.986   8.356  0.3398  1.0259 -1.3167
   86CHL1   H25 8836   1.880   7.020   8.423 -1.8127  3.4316  0.2868
   86CHL1   C26 8837   1.776   7.119   8.278  0.9870 -0.5166 -0.4635
   86CHL1  H26A 8838   1.693   7.103   8.205  0.1791  0.5317  0.2014
   86CHL1  H26B 8839   1.745   7.202   8.345  1.0079 -1.2286  0.4409
   86CHL1  H26C 8840   1.871   7.149   8.229  2.1737 -0.1271  1.9597
   86CHL1   C27 8841   1.683   6.944   8.450  0.2335  0.2104  0.1850
   86CHL1  H27A 8842   1.655   7.026   8.519 -1.7300  0.7005 -1.1447
   86CHL1  H27B 8843   1.597   6.914   8.387 -0.0721  1.2452  0.1028
   86CHL1  H27C 8844   1.693   6.848   8.507  0.0164 -0.6131 -1.1259
   87CHL1    C3 8845   6.647   3.793   7.073  0.3271 -0.3948 -0.4274
   87CHL1    H3 8846   6.649   3.682   7.079  1.4001 -0.5958 -3.0662
   87CHL1    O3 8847   6.641   3.821   6.935 -0.0675  0.0416  0.1988
   87CHL1   H3' 8848   6.612   3.911   6.919 -2.4814 -0.8287 -0.8207
   87CHL1    C4 8849   6.522   3.849   7.150  0.0076 -0.2550  0.3324
   87CHL1   H4A 8850   6.495   3.957   7.138 -0.4575 -0.4166 -0.1225
   87CHL1   H4B 8851   6.432   3.800   7.106 -0.7325  0.9018  0.4923
   87CHL1    C5 8852   6.531   3.832   7.295  0.4203  0.9027  0.3833
   87CHL1    C6 8853   6.433   3.764   7.363 -0.1887  0.5579  0.5466
   87CHL1    H6 8854   6.347   3.715   7.316  1.1073 -1.5193  0.2166
   87CHL1    C7 8855   6.433   3.742   7.513  0.3801 -0.5976  0.1315
   87CHL1   H7A 8856   6.339   3.768   7.566  0.5970  0.2000  0.1323
   87CHL1   H7B 8857   6.472   3.637   7.515 -0.1290 -0.7975  2.1507
   87CHL1    C8 8858   6.534   3.831   7.585  0.1719  0.8251 -0.2635
   87CHL1    H8 8859   6.505   3.938   7.578  0.3382  0.8985  0.1605
   87CHL1   C14 8860   6.560   3.782   7.729 -0.5805  0.3320  0.6549
   87CHL1   H14 8861   6.604   3.682   7.711 -1.8423 -0.0192 -0.6614
   87CHL1   C15 8862   6.445   3.768   7.820  0.1291  0.0336 -0.1815
   87CHL1  H15A 8863   6.379   3.854   7.798  0.9308  0.2420 -1.9933
   87CHL1  H15B 8864   6.395   3.669   7.812  0.5106 -0.2735  1.0183
   87CHL1   C16 8865   6.507   3.783   7.958 -0.3730  0.3508  0.2224
   87CHL1  H16A 8866   6.476   3.883   7.997 -0.6612  0.7831 -1.0445
   87CHL1  H16B 8867   6.475   3.715   8.039  1.0614  0.7843  1.1915
   87CHL1   C17 8868   6.667   3.792   7.940  0.2916  0.0593  0.2769
   87CHL1   H17 8869   6.702   3.686   7.941 -0.9683 -0.3873 -0.4999
   87CHL1   C13 8870   6.678   3.857   7.798 -0.3177 -0.7790 -0.1313
   87CHL1   C18 8871   6.646   4.011   7.797  0.6385  0.0935 -0.1291
   87CHL1  H18A 8872   6.544   4.028   7.840  0.9548  3.2327 -0.3650
   87CHL1  H18B 8873   6.717   4.079   7.849  0.0236  1.1074 -0.5817
   87CHL1  H18C 8874   6.646   4.054   7.694  0.8757  0.4277  0.0069
   87CHL1   C12 8875   6.806   3.826   7.726 -1.2566 -0.0247 -0.0658
   87CHL1  H12A 8876   6.896   3.877   7.766 -0.9255 -1.2125  0.7613
   87CHL1  H12B 8877   6.834   3.718   7.719 -1.0418 -0.0832  1.3731
   87CHL1   C11 8878   6.801   3.879   7.585  0.0100 -0.3215  0.2169
   87CHL1  H11A 8879   6.814   3.989   7.586  0.7108 -0.3970  0.0404
   87CHL1  H11B 8880   6.890   3.843   7.528  0.4740  0.4896  0.4065
   87CHL1    C9 8881   6.670   3.823   7.508 -0.2079 -0.4314 -0.8802
   87CHL1    H9 8882   6.690   3.714   7.506  0.9649 -0.2233 -1.3730
   87CHL1   C10 8883   6.667   3.879   7.359  0.1028 -0.0624 -0.1654
   87CHL1   C19 8884   6.667   4.032   7.368 -1.0259 -0.0900  0.7732
   87CHL1  H19A 8885   6.760   4.074   7.410  0.1907 -0.5954 -1.2742
   87CHL1  H19B 8886   6.649   4.076   7.267  1.1842  0.1386  0.4386
   87CHL1  H19C 8887   6.584   4.073   7.429 -0.3495 -1.0311  2.3749
   87CHL1    C1 8888   6.784   3.821   7.282  0.3603  0.0352 -0.4069
   87CHL1   H1A 8889   6.879   3.864   7.318 -1.0717  3.1543 -0.0198
   87CHL1   H1B 8890   6.787   3.710   7.289 -0.2075  0.0911  1.1761
   87CHL1    C2 8891   6.776   3.853   7.130 -0.3335  0.1764  0.2937
   87CHL1   H2A 8892   6.862   3.804   7.078 -1.6344 -2.6918  0.6818
   87CHL1   H2B 8893   6.783   3.962   7.110 -0.0074  0.4577  1.8196
   87CHL1   C20 8894   6.743   3.857   8.062  0.4521  0.3274  0.2138
   87CHL1   H20 8895   6.747   3.968   8.056  1.6642  0.2941  0.1041
   87CHL1   C21 8896   6.888   3.806   8.049  0.1623 -0.1469 -0.0705
   87CHL1  H21A 8897   6.943   3.837   8.141  1.1638 -1.1294 -0.3146
   87CHL1  H21B 8898   6.943   3.848   7.963  1.0592 -2.2510 -0.5657
   87CHL1  H21C 8899   6.899   3.696   8.058  0.3053 -0.0689  0.8038
   87CHL1   C22 8900   6.679   3.811   8.195 -0.1133 -0.0289 -0.0800
   87CHL1  H22A 8901   6.574   3.847   8.197 -0.7559 -1.3296 -3.5490
   87CHL1  H22B 8902   6.667   3.701   8.196  1.3980 -0.2331  1.6398
   87CHL1   C23 8903   6.752   3.862   8.326  0.1567  0.1694  0.0941
   87CHL1  H23A 8904   6.846   3.807   8.345  1.0989  1.7814  0.3000
   87CHL1  H23B 8905   6.778   3.970   8.320  0.6406 -0.0028 -1.1543
   87CHL1   C24 8906   6.659   3.875   8.446 -0.0392 -0.5968 -0.6355
   87CHL1  H24A 8907   6.570   3.928   8.405  0.6928  1.2483  0.0410
   87CHL1  H24B 8908   6.614   3.786   8.494 -3.3882  2.5999  2.8268
   87CHL1   C25 8909   6.708   3.964   8.555 -0.0940 -0.1524  0.2393
   87CHL1   H25 8910   6.753   4.055   8.510  2.0699 -0.6519  1.2712
   87CHL1   C26 8911   6.591   4.015   8.639  0.7849 -0.1016  0.3442
   87CHL1  H26A 8912   6.529   4.087   8.582 -0.5555 -0.8978  0.7513
   87CHL1  H26B 8913   6.533   3.924   8.667 -1.8182  1.4995  0.4893
   87CHL1  H26C 8914   6.635   4.076   8.721  0.4626  1.9257 -0.9109
   87CHL1   C27 8915   6.806   3.879   8.630 -0.6120  0.0149 -0.0196
   87CHL1  H27A 8916   6.844   3.931   8.720 -0.9190 -1.1902  0.8304
   87CHL1  H27B 8917   6.761   3.784   8.667  0.5482 -0.5893 -0.0867
   87CHL1  H27C 8918   6.892   3.854   8.563 -1.3537 -1.4507 -0.4782
   88CHL1    C3 8919   5.639   1.136   6.935 -0.8559  0.3379 -0.5343
   88CHL1    H3 8920   5.715   1.206   6.977 -1.8137 -0.4759  2.8416
   88CHL1    O3 8921   5.660   1.098   6.798  0.4974  0.5331 -0.4378
   88CHL1   H3' 8922   5.583   1.045   6.777 -0.1672  0.3952  1.9670
   88CHL1    C4 8923   5.631   1.007   7.018 -0.2231 -0.4952  0.4788
   88CHL1   H4A 8924   5.561   0.941   6.963  0.6624 -2.0333  1.0986
   88CHL1   H4B 8925   5.735   0.969   7.010 -0.6483 -1.3043 -1.9192
   88CHL1    C5 8926   5.583   1.028   7.165  0.2329 -0.0536 -0.1663
   88CHL1    C6 8927   5.653   0.980   7.268  0.2612 -0.4422  0.0015
   88CHL1    H6 8928   5.742   0.919   7.250 -0.1554 -0.5207 -2.0536
   88CHL1    C7 8929   5.600   0.985   7.414 -0.0970 -0.2988 -0.3083
   88CHL1   H7A 8930   5.592   0.877   7.441  2.0694 -0.4910 -0.2010
   88CHL1   H7B 8931   5.665   1.042   7.483 -0.8752  0.8940 -0.5454
   88CHL1    C8 8932   5.456   1.038   7.428 -0.4522  0.0343 -0.1991
   88CHL1    H8 8933   5.394   0.946   7.424  0.4268 -0.6523  1.0578
   88CHL1   C14 8934   5.432   1.105   7.562  0.1549  0.7497  0.4903
   88CHL1   H14 8935   5.515   1.179   7.567  0.6738  0.1543  0.7765
   88CHL1   C15 8936   5.459   1.008   7.681 -1.0280 -0.5751 -0.6313
   88CHL1  H15A 8937   5.417   0.906   7.685 -2.0033 -0.1803 -0.3860
   88CHL1  H15B 8938   5.566   0.985   7.701 -1.6719 -2.2962  1.0495
   88CHL1   C16 8939   5.402   1.086   7.802  0.1822 -0.1274  0.2259
   88CHL1  H16A 8940   5.339   1.014   7.859  0.3712 -0.7502 -0.3293
   88CHL1  H16B 8941   5.488   1.124   7.862 -0.8306  1.6916  0.5968
   88CHL1   C17 8942   5.320   1.206   7.744 -0.9400 -1.6641 -0.1065
   88CHL1   H17 8943   5.391   1.290   7.753 -2.4650  0.0720 -2.7058
   88CHL1   C13 8944   5.296   1.162   7.589  0.2209 -0.5207  0.6110
   88CHL1   C18 8945   5.177   1.056   7.582 -0.2868 -0.6648  0.9146
   88CHL1  H18A 8946   5.194   0.984   7.665 -0.3431 -0.4104  1.1474
   88CHL1  H18B 8947   5.081   1.103   7.612  0.2585  1.1644 -0.0694
   88CHL1  H18C 8948   5.162   1.007   7.484 -0.2909 -0.7987  0.9811
   88CHL1   C12 8949   5.261   1.269   7.481 -0.1643  0.6311  0.3410
   88CHL1  H12A 8950   5.155   1.300   7.471 -0.6585 -1.0228  0.1436
   88CHL1  H12B 8951   5.331   1.354   7.500  0.6509  0.4160 -1.5112
   88CHL1   C11 8952   5.281   1.209   7.342 -0.5435 -0.5805 -0.1857
   88CHL1  H11A 8953   5.199   1.136   7.325 -1.9837 -0.0008  3.2920
   88CHL1  H11B 8954   5.265   1.290   7.268  2.3860  1.0407  0.8027
   88CHL1    C9 8955   5.418   1.141   7.317  0.0755 -0.1214  0.2149
   88CHL1    H9 8956   5.488   1.224   7.339 -0.2508  0.6152 -1.4462
   88CHL1   C10 8957   5.444   1.097   7.175  0.4912  0.3707  1.0802
   88CHL1   C19 8958   5.338   0.996   7.132  0.8342 -0.2302 -0.1735
   88CHL1  H19A 8959   5.350   0.973   7.024 -2.7921  1.9759 -1.2311
   88CHL1  H19B 8960   5.348   0.908   7.199 -3.4112 -2.8304 -2.5643
   88CHL1  H19C 8961   5.240   1.045   7.148  0.8591 -1.2104  4.0657
   88CHL1    C1 8962   5.445   1.223   7.083  0.3043 -0.4187  0.2862
   88CHL1   H1A 8963   5.338   1.253   7.077 -0.1063 -1.3588  2.1527
   88CHL1   H1B 8964   5.499   1.308   7.128 -1.3947 -0.1769  2.0154
   88CHL1    C2 8965   5.499   1.194   6.945  0.2888  0.0059  0.1290
   88CHL1   H2A 8966   5.486   1.287   6.885 -1.4877  0.5225  1.2392
   88CHL1   H2B 8967   5.427   1.123   6.900  0.4226 -0.2769  0.3599
   88CHL1   C20 8968   5.199   1.252   7.824 -0.1587 -0.8417  0.4973
   88CHL1   H20 8969   5.106   1.199   7.794  0.6619 -1.9414 -0.1775
   88CHL1   C21 8970   5.187   1.405   7.796  0.2408  0.0819  0.9651
   88CHL1  H21A 8971   5.188   1.422   7.687  0.8191  0.1206  0.9725
   88CHL1  H21B 8972   5.273   1.453   7.849 -0.2044  2.6603 -0.4825
   88CHL1  H21C 8973   5.090   1.440   7.837  0.3708  1.6486 -0.0014
   88CHL1   C22 8974   5.192   1.217   7.977 -0.2928 -0.4847 -0.4317
   88CHL1  H22A 8975   5.090   1.228   8.020  0.4590 -1.8613  1.9546
   88CHL1  H22B 8976   5.219   1.110   7.991  2.7425  0.1790 -0.5926
   88CHL1   C23 8977   5.293   1.302   8.062 -0.3187 -0.7682  0.4048
   88CHL1  H23A 8978   5.388   1.314   8.006 -0.9377  2.0186 -0.1998
   88CHL1  H23B 8979   5.256   1.407   8.070  0.4837 -0.3641 -0.8745
   88CHL1   C24 8980   5.318   1.270   8.208 -0.2447 -0.4504  0.2559
   88CHL1  H24A 8981   5.220   1.257   8.258 -3.2538  0.2688 -4.8087
   88CHL1  H24B 8982   5.373   1.173   8.207  0.2984 -0.1452  0.0543
   88CHL1   C25 8983   5.415   1.362   8.284 -0.0896  0.3188  0.0408
   88CHL1   H25 8984   5.362   1.458   8.303 -2.5721 -1.3193  1.9113
   88CHL1   C26 8985   5.438   1.290   8.420  0.0253 -1.1102 -0.4662
   88CHL1  H26A 8986   5.525   1.334   8.473 -0.9963  0.0618  0.2953
   88CHL1  H26B 8987   5.342   1.301   8.475 -0.1947  0.1975 -1.0556
   88CHL1  H26C 8988   5.450   1.181   8.403 -2.1635 -1.4740  0.0237
   88CHL1   C27 8989   5.554   1.383   8.215 -0.3174  0.3883 -0.3286
   88CHL1  H27A 8990   5.630   1.430   8.281  0.3534 -0.7458 -0.2614
   88CHL1  H27B 8991   5.584   1.277   8.205 -2.6648 -0.4711  0.8521
   88CHL1  H27C 8992   5.548   1.420   8.111  0.5553  1.7009  0.0581
   89CHL1    C3 8993   0.992   5.554   6.980 -0.2288  0.6354 -0.3417
   89CHL1    H3 8994   1.050   5.648   6.966  2.8446 -0.8291  1.5019
   89CHL1    O3 8995   0.973   5.497   6.851  0.4395  0.3174 -0.1569
   89CHL1   H3' 8996   0.912   5.553   6.803  1.1764 -0.6219 -2.2786
   89CHL1    C4 8997   1.071   5.461   7.071  0.7302  0.8911  0.4254
   89CHL1   H4A 8998   1.033   5.356   7.062  0.3998  0.9577  0.9343
   89CHL1   H4B 8999   1.174   5.445   7.034  0.2075 -1.0925 -0.3408
   89CHL1    C5 9000   1.071   5.488   7.214 -0.1090  0.1721 -0.2827
   89CHL1    C6 9001   1.188   5.474   7.283  0.1410 -0.1095  0.0134
   89CHL1    H6 9002   1.281   5.443   7.234 -0.0756  0.8806 -1.0627
   89CHL1    C7 9003   1.202   5.507   7.432  0.2860  0.3434 -0.1457
   89CHL1   H7A 9004   1.268   5.424   7.466 -1.4723 -1.6618 -1.3906
   89CHL1   H7B 9005   1.258   5.601   7.450  2.0082 -1.0197  2.1728
   89CHL1    C8 9006   1.063   5.522   7.503 -0.3729 -0.2207 -1.0446
   89CHL1    H8 9007   1.035   5.415   7.517 -0.0601 -0.4601 -2.1391
   89CHL1   C14 9008   1.076   5.599   7.632  0.0273  0.1020  0.0703
   89CHL1   H14 9009   1.107   5.701   7.599  3.8749 -0.8242  0.3758
   89CHL1   C15 9010   1.192   5.565   7.727 -0.5071 -0.1397 -0.0126
   89CHL1  H15A 9011   1.205   5.455   7.738 -0.6483 -0.2476 -0.8876
   89CHL1  H15B 9012   1.287   5.603   7.683 -0.0909  0.0349  1.0141
   89CHL1   C16 9013   1.152   5.623   7.868 -0.3337 -0.9597  0.7696
   89CHL1  H16A 9014   1.140   5.547   7.948 -1.0482  0.5992  2.2167
   89CHL1  H16B 9015   1.214   5.707   7.905 -0.3264 -0.2577 -0.7326
   89CHL1   C17 9016   1.005   5.683   7.842  0.0795  0.0471  0.0101
   89CHL1   H17 9017   1.019   5.789   7.812  2.2201  0.0085  0.7120
   89CHL1   C13 9018   0.953   5.609   7.717  0.0184  0.1950 -0.3540
   89CHL1   C18 9019   0.908   5.468   7.766 -0.5085  0.4207 -0.3500
   89CHL1  H18A 9020   0.978   5.411   7.830 -2.2170  0.3653  1.6019
   89CHL1  H18B 9021   0.809   5.476   7.817 -0.6173  1.3125 -0.6787
   89CHL1  H18C 9022   0.893   5.405   7.676 -2.3780  1.0676 -0.5388
   89CHL1   C12 9023   0.851   5.687   7.634  0.2768  0.2183  0.5765
   89CHL1  H12A 9024   0.755   5.717   7.682 -0.2520  3.4574 -2.1132
   89CHL1  H12B 9025   0.894   5.785   7.605 -0.8516  0.5867  0.0971
   89CHL1   C11 9026   0.829   5.610   7.496  0.1211  0.3037 -0.3921
   89CHL1  H11A 9027   0.788   5.509   7.519 -0.8632 -0.0401 -3.2296
   89CHL1  H11B 9028   0.758   5.675   7.441  0.0323  1.3906  0.9715
   89CHL1    C9 9029   0.957   5.587   7.417 -0.3071 -0.4970  0.8387
   89CHL1    H9 9030   0.993   5.689   7.389 -0.1934 -0.8524 -0.3784
   89CHL1   C10 9031   0.939   5.523   7.279  0.2343  0.1928 -0.0088
   89CHL1   C19 9032   0.853   5.400   7.307  0.5019 -0.0976 -0.2000
   89CHL1  H19A 9033   0.866   5.317   7.235 -0.0178 -0.1348 -0.2526
   89CHL1  H19B 9034   0.881   5.345   7.399  1.3565  0.1209 -0.3166
   89CHL1  H19C 9035   0.745   5.426   7.306 -0.2138 -2.7469 -2.7494
   89CHL1    C1 9036   0.864   5.628   7.185  0.3660  0.2335  0.7064
   89CHL1   H1A 9037   0.764   5.642   7.232  0.0980 -0.7747  0.4775
   89CHL1   H1B 9038   0.919   5.724   7.181  1.1096 -0.2154 -0.4474
   89CHL1    C2 9039   0.854   5.587   7.039 -0.7758 -0.0854 -0.0063
   89CHL1   H2A 9040   0.807   5.668   6.979  0.2732  1.3088  0.9893
   89CHL1   H2B 9041   0.785   5.500   7.039  1.1688 -1.7941 -2.9299
   89CHL1   C20 9042   0.917   5.686   7.975 -0.1108 -0.0390  0.2156
   89CHL1   H20 9043   0.915   5.586   8.022 -2.3583 -0.2164 -0.1473
   89CHL1   C21 9044   0.772   5.719   7.939  0.0222 -0.0085 -0.9681
   89CHL1  H21A 9045   0.718   5.655   7.867 -2.2284  0.8431 -0.1243
   89CHL1  H21B 9046   0.783   5.825   7.908  1.0011  0.0047 -0.6310
   89CHL1  H21C 9047   0.711   5.709   8.031 -0.0922 -3.3051 -1.2923
   89CHL1   C22 9048   0.977   5.786   8.075  0.2264 -0.0664 -0.0293
   89CHL1  H22A 9049   1.086   5.765   8.088  0.3163 -0.2388 -0.9914
   89CHL1  H22B 9050   0.971   5.890   8.039 -1.0569  0.3752  1.3813
   89CHL1   C23 9051   0.908   5.779   8.209  0.1375 -0.4720  0.4943
   89CHL1  H23A 9052   0.965   5.850   8.274 -1.7689  0.9033  0.7425
   89CHL1  H23B 9053   0.803   5.815   8.204  1.1926  3.0776  1.0781
   89CHL1   C24 9054   0.919   5.636   8.274  0.5039 -0.8592 -0.5281
   89CHL1  H24A 9055   0.858   5.564   8.215 -0.2723 -0.3114 -0.4089
   89CHL1  H24B 9056   1.027   5.613   8.269  0.2929 -2.4964  1.1767
   89CHL1   C25 9057   0.875   5.639   8.422  0.3665 -0.9263 -0.3761
   89CHL1   H25 9058   0.935   5.713   8.480 -0.6053  0.6142 -1.2584
   89CHL1   C26 9059   0.727   5.671   8.424 -0.1128 -0.2260  0.0571
   89CHL1  H26A 9060   0.701   5.691   8.530  1.5860  1.7172  0.1781
   89CHL1  H26B 9061   0.712   5.773   8.381  1.5918 -1.0024 -2.6650
   89CHL1  H26C 9062   0.672   5.588   8.376  0.5725 -0.8192  0.2840
   89CHL1   C27 9063   0.903   5.510   8.493  0.3539  0.4240 -0.0191
   89CHL1  H27A 9064   1.008   5.509   8.531  0.4143 -4.7172  0.4507
   89CHL1  H27B 9065   0.830   5.498   8.576 -0.4144  0.0083 -0.7394
   89CHL1  H27C 9066   0.907   5.421   8.427  2.9481  3.0745 -3.8584
   90CHL1    C3 9067   1.248   4.857   6.820  0.3659 -0.0954  0.3143
   90CHL1    H3 9068   1.321   4.774   6.829  1.7459  0.7446 -2.1233
   90CHL1    O3 9069   1.225   4.888   6.680 -0.7005 -0.2693 -0.0307
   90CHL1   H3' 9070   1.149   4.946   6.678 -0.0873  0.5433 -0.0586
   90CHL1    C4 9071   1.115   4.826   6.892  0.3626 -0.2931  0.5113
   90CHL1   H4A 9072   1.042   4.901   6.855  0.3407 -0.8954 -0.7208
   90CHL1   H4B 9073   1.074   4.730   6.855 -1.2870  0.9039 -0.9348
   90CHL1    C5 9074   1.108   4.826   7.039  0.0708  0.5087  0.0729
   90CHL1    C6 9075   1.060   4.720   7.113 -0.3483  0.4900 -0.1910
   90CHL1    H6 9076   1.021   4.634   7.057 -0.3765 -0.2841  0.9903
   90CHL1    C7 9077   1.054   4.720   7.265 -0.2053 -0.8205  0.2807
   90CHL1   H7A 9078   0.950   4.694   7.296  0.0470 -0.2161  1.7085
   90CHL1   H7B 9079   1.128   4.645   7.299  1.9518  0.8936 -0.4393
   90CHL1    C8 9080   1.084   4.854   7.332 -0.0846  0.5918 -0.0509
   90CHL1    H8 9081   0.988   4.911   7.327  0.4413  1.4657 -0.4386
   90CHL1   C14 9082   1.120   4.843   7.476  0.4178  0.7380  0.0184
   90CHL1   H14 9083   1.220   4.795   7.470 -0.0655 -0.2672 -0.1359
   90CHL1   C15 9084   1.040   4.760   7.580 -0.6720  0.3098  0.2529
   90CHL1  H15A 9085   0.933   4.786   7.568 -0.3236  2.4670  1.3171
   90CHL1  H15B 9086   1.050   4.651   7.562 -0.5386  0.5382 -1.1477
   90CHL1   C16 9087   1.080   4.804   7.719  0.0311 -0.3162 -0.2067
   90CHL1  H16A 9088   0.992   4.799   7.786  0.3356  0.7125  0.3069
   90CHL1  H16B 9089   1.140   4.721   7.763  0.2765  1.0738  2.3147
   90CHL1   C17 9090   1.159   4.942   7.706 -0.7309 -0.4255 -0.6291
   90CHL1   H17 9091   1.265   4.908   7.706 -1.5224 -3.2998  1.1165
   90CHL1   C13 9092   1.137   4.981   7.555 -0.2685  0.5931 -0.5782
   90CHL1   C18 9093   1.010   5.071   7.545  0.1508  0.4226  0.4520
   90CHL1  H18A 9094   0.978   5.085   7.439  1.4077  0.3116  0.0392
   90CHL1  H18B 9095   0.929   5.008   7.586 -0.7329 -1.1347 -3.2345
   90CHL1  H18C 9096   1.016   5.168   7.598  1.1237  0.0610  1.0361
   90CHL1   C12 9097   1.258   5.049   7.493 -0.1168  0.1899  0.0617
   90CHL1  H12A 9098   1.275   5.149   7.538 -0.1072  0.0960  0.2648
   90CHL1  H12B 9099   1.349   4.989   7.514  0.7678  0.4711 -2.5064
   90CHL1   C11 9100   1.238   5.066   7.343  0.4104 -0.3777  0.7744
   90CHL1  H11A 9101   1.162   5.144   7.320 -0.7062 -1.0631  1.9712
   90CHL1  H11B 9102   1.336   5.096   7.301  0.5573 -1.2742  0.4778
   90CHL1    C9 9103   1.196   4.935   7.266  0.3090 -0.1446 -0.1237
   90CHL1    H9 9104   1.292   4.879   7.274  0.9675  0.6055 -2.0902
   90CHL1   C10 9105   1.171   4.952   7.108 -0.2840  0.4644 -0.5109
   90CHL1   C19 9106   1.077   5.068   7.090  0.2298  0.0282  0.5673
   90CHL1  H19A 9107   1.010   5.057   7.179  2.4301 -1.1171  2.1818
   90CHL1  H19B 9108   1.128   5.167   7.100 -3.2748  2.1275 -0.3548
   90CHL1  H19C 9109   1.015   5.068   6.998 -0.9473  0.0355  1.3323
   90CHL1    C1 9110   1.307   4.981   7.034 -0.3842  0.2382 -0.7674
   90CHL1   H1A 9111   1.355   5.074   7.071 -2.2119  1.0496 -0.2846
   90CHL1   H1B 9112   1.380   4.903   7.062  0.2828 -0.0783 -3.1719
   90CHL1    C2 9113   1.306   4.990   6.880 -0.3945  0.2998 -0.2031
   90CHL1   H2A 9114   1.404   5.004   6.829  0.4677 -1.9671  0.6984
   90CHL1   H2B 9115   1.231   5.069   6.856 -0.6325  0.1923  0.1687
   90CHL1   C20 9116   1.132   5.046   7.817 -0.2370  0.3076  0.1264
   90CHL1   H20 9117   1.024   5.070   7.821 -0.6829 -1.5297  0.2523
   90CHL1   C21 9118   1.208   5.174   7.788  0.4335 -0.4684  0.1705
   90CHL1  H21A 9119   1.314   5.150   7.768  1.1194 -0.9779  3.7069
   90CHL1  H21B 9120   1.196   5.246   7.872  1.2223  0.7552 -0.7413
   90CHL1  H21C 9121   1.179   5.233   7.698 -0.9262 -2.1130 -0.5344
   90CHL1   C22 9122   1.164   4.991   7.957 -0.0608 -0.0298 -0.3645
   90CHL1  H22A 9123   1.113   4.898   7.988  1.0507 -0.5253  0.0325
   90CHL1  H22B 9124   1.267   4.950   7.954  0.9008  2.2189 -0.3496
   90CHL1   C23 9125   1.138   5.089   8.073  0.2708 -0.8443 -0.1471
   90CHL1  H23A 9126   1.222   5.162   8.064  1.2837 -2.1059 -1.3057
   90CHL1  H23B 9127   1.041   5.143   8.062  0.9764  0.2886 -1.0497
   90CHL1   C24 9128   1.140   5.018   8.208  0.3465  0.2599 -0.4000
   90CHL1  H24A 9129   1.098   4.917   8.191 -2.6464  1.0174  1.6911
   90CHL1  H24B 9130   1.244   5.009   8.246 -0.2450 -2.9121  0.7865
   90CHL1   C25 9131   1.060   5.081   8.321 -0.0354  0.6814 -0.6517
   90CHL1   H25 9132   0.955   5.095   8.290 -0.2147 -0.1058 -0.4258
   90CHL1   C26 9133   1.071   4.976   8.434 -0.3313 -0.0324  0.3369
   90CHL1  H26A 9134   1.004   4.999   8.519  1.3634 -1.0990  2.0744
   90CHL1  H26B 9135   1.042   4.882   8.382  0.3836  0.9777 -2.0180
   90CHL1  H26C 9136   1.171   4.973   8.483  1.5644 -1.2801 -3.2460
   90CHL1   C27 9137   1.125   5.215   8.353 -0.4153 -0.4004  0.3503
   90CHL1  H27A 9138   1.141   5.281   8.265  2.8141  2.3868  2.7893
   90CHL1  H27B 9139   1.071   5.271   8.433  0.7610 -1.1158  1.6936
   90CHL1  H27C 9140   1.232   5.208   8.380  0.3380 -0.5559 -2.3793
   91CHL1    C3 9141   1.711   0.290   6.962  0.1985 -0.7251 -0.2592
   91CHL1    H3 9142   1.768   0.380   6.993 -2.6871  0.8073  1.0264
   91CHL1    O3 9143   1.744   0.249   6.835 -0.1592  0.3632  0.1293
   91CHL1   H3' 9144   1.705   0.163   6.823  2.8120 -0.8870 -2.1228
   91CHL1    C4 9145   1.760   0.178   7.049  0.0008 -0.3121 -0.0012
   91CHL1   H4A 9146   1.698   0.093   7.014 -0.9241  0.1317  0.5139
   91CHL1   H4B 9147   1.868   0.153   7.034  0.1432  0.8461 -1.1022
   91CHL1    C5 9148   1.731   0.207   7.198 -0.0048 -0.0918  0.0252
   91CHL1    C6 9149   1.830   0.229   7.288 -0.1143 -0.5446  0.0930
   91CHL1    H6 9150   1.933   0.224   7.251  0.5358  1.3380  1.4995
   91CHL1    C7 9151   1.807   0.277   7.429  0.3129  0.7054  0.1731
   91CHL1   H7A 9152   1.867   0.219   7.502 -0.1111 -1.0050 -0.7848
   91CHL1   H7B 9153   1.837   0.383   7.438 -0.1644  0.9422 -0.8356
   91CHL1    C8 9154   1.658   0.243   7.479  0.0040 -0.0761  0.0310
   91CHL1    H8 9155   1.631   0.136   7.480 -2.0444  0.3811  0.2524
   91CHL1   C14 9156   1.635   0.309   7.613  0.0551  0.0862 -0.2069
   91CHL1   H14 9157   1.637   0.419   7.598 -0.6393  0.6061  2.8464
   91CHL1   C15 9158   1.738   0.293   7.732  0.0207 -1.0691  0.5220
   91CHL1  H15A 9159   1.769   0.187   7.740 -0.5950 -1.1743  1.7278
   91CHL1  H15B 9160   1.822   0.364   7.716 -0.2600 -1.1831 -1.6786
   91CHL1   C16 9161   1.664   0.329   7.859  0.2955 -0.0552  0.7911
   91CHL1  H16A 9162   1.692   0.243   7.924 -1.3505 -0.0197  1.5979
   91CHL1  H16B 9163   1.695   0.422   7.911 -0.6621  0.2905  0.7612
   91CHL1   C17 9164   1.507   0.343   7.820 -1.2004 -0.4015  0.3416
   91CHL1   H17 9165   1.504   0.453   7.806  0.7982 -0.2782  0.5850
   91CHL1   C13 9166   1.492   0.283   7.679 -0.2601 -0.2214 -0.4351
   91CHL1   C18 9167   1.464   0.129   7.691  0.2019  0.0243 -1.1343
   91CHL1  H18A 9168   1.463   0.091   7.587 -0.5714  0.9883 -1.5025
   91CHL1  H18B 9169   1.545   0.068   7.736  0.0037 -0.6057 -1.6192
   91CHL1  H18C 9170   1.363   0.107   7.732 -0.2651  2.8950 -0.4776
   91CHL1   C12 9171   1.392   0.359   7.586 -0.2545 -0.0360 -0.3242
   91CHL1  H12A 9172   1.290   0.337   7.623  0.6585 -0.1127  2.4233
   91CHL1  H12B 9173   1.407   0.469   7.581  0.4513  0.0326  2.0544
   91CHL1   C11 9174   1.406   0.302   7.437 -0.0261  0.2961  0.1324
   91CHL1  H11A 9175   1.358   0.201   7.433  1.7294 -0.5314 -0.7172
   91CHL1  H11B 9176   1.341   0.356   7.366  1.8228  0.1665 -1.7308
   91CHL1    C9 9177   1.554   0.303   7.378 -0.1226  0.1957 -0.3684
   91CHL1    H9 9178   1.575   0.413   7.373 -3.7647  1.3729  3.8259
   91CHL1   C10 9179   1.581   0.240   7.235 -0.3572  0.6946 -0.1351
   91CHL1   C19 9180   1.505   0.107   7.218  0.1587 -0.1093 -0.0904
   91CHL1  H19A 9181   1.547   0.043   7.298 -1.1192  1.4419  1.9330
   91CHL1  H19B 9182   1.395   0.111   7.234 -0.1073 -0.6536 -1.5674
   91CHL1  H19C 9183   1.518   0.049   7.124 -0.1350  0.4577 -0.4867
   91CHL1    C1 9184   1.530   0.346   7.129 -0.0757 -0.0163 -0.2465
   91CHL1   H1A 9185   1.419   0.361   7.130  0.1762  2.1325 -0.0865
   91CHL1   H1B 9186   1.574   0.445   7.151  0.6148 -0.2785 -0.4460
   91CHL1    C2 9187   1.562   0.313   6.977  0.4990 -0.4225 -0.0909
   91CHL1   H2A 9188   1.517   0.396   6.917  1.0747  0.2706  0.4122
   91CHL1   H2B 9189   1.507   0.225   6.938 -0.2543  0.0277 -0.0724
   91CHL1   C20 9190   1.410   0.310   7.934 -0.2172 -0.2023 -0.0231
   91CHL1   H20 9191   1.427   0.202   7.953 -3.2359 -0.5572  1.2081
   91CHL1   C21 9192   1.264   0.326   7.888 -0.0935 -0.6661  0.5613
   91CHL1  H21A 9193   1.197   0.303   7.973  1.1990  0.6106  2.0033
   91CHL1  H21B 9194   1.230   0.250   7.815 -0.6687  0.3653 -0.2821
   91CHL1  H21C 9195   1.239   0.429   7.854  0.9056 -0.9760 -1.2268
   91CHL1   C22 9196   1.441   0.383   8.064 -0.4211 -0.1738  0.0242
   91CHL1  H22A 9197   1.552   0.387   8.069 -0.2274 -0.0177 -2.7359
   91CHL1  H22B 9198   1.428   0.490   8.038 -2.5313 -0.5098 -0.4604
   91CHL1   C23 9199   1.365   0.340   8.189  0.4410 -0.2646  0.0819
   91CHL1  H23A 9200   1.256   0.326   8.169  0.7045 -2.7091  0.0948
   91CHL1  H23B 9201   1.396   0.235   8.206 -0.0557 -0.2857  0.9116
   91CHL1   C24 9202   1.401   0.422   8.316  0.0503 -0.9798 -0.4779
   91CHL1  H24A 9203   1.510   0.436   8.299  1.5632 -3.8851  4.6121
   91CHL1  H24B 9204   1.346   0.518   8.313  0.1717 -0.7062  2.6127
   91CHL1   C25 9205   1.388   0.355   8.456 -0.0494 -0.2752  0.1573
   91CHL1   H25 9206   1.447   0.262   8.441 -0.5514 -0.8205  1.4666
   91CHL1   C26 9207   1.449   0.440   8.570  0.0316 -0.1401  0.5496
   91CHL1  H26A 9208   1.434   0.394   8.670 -0.7149 -1.2283 -0.0377
   91CHL1  H26B 9209   1.555   0.470   8.562  0.4067 -1.5104  0.0870
   91CHL1  H26C 9210   1.383   0.529   8.566 -0.8944 -0.8223  0.0618
   91CHL1   C27 9211   1.239   0.313   8.480  0.6056 -0.1625 -0.0718
   91CHL1  H27A 9212   1.231   0.250   8.571  0.8369 -2.9457 -1.8424
   91CHL1  H27B 9213   1.185   0.409   8.497 -0.3063 -1.0329  2.4733
   91CHL1  H27C 9214   1.202   0.262   8.389  1.1572 -2.2019  0.7901
   92CHL1    C3 9215   5.590   0.452   6.752 -0.1812  0.7701  0.8950
   92CHL1    H3 9216   5.593   0.342   6.761 -1.7346  0.3558 -2.1968
   92CHL1    O3 9217   5.591   0.490   6.615  0.2016  0.3034 -0.2127
   92CHL1   H3' 9218   5.614   0.583   6.611  1.9881 -0.0531  0.9060
   92CHL1    C4 9219   5.457   0.492   6.817  0.2183 -0.3656  0.0465
   92CHL1   H4A 9220   5.449   0.599   6.788  2.6064 -0.3386 -0.7332
   92CHL1   H4B 9221   5.390   0.431   6.753 -0.7886  0.7322  0.0196
   92CHL1    C5 9222   5.445   0.467   6.966  0.1708 -0.2803 -0.2505
   92CHL1    C6 9223   5.342   0.397   7.015 -0.1259 -0.0281  1.0620
   92CHL1    H6 9224   5.271   0.351   6.945  0.2544 -2.5331  2.2121
   92CHL1    C7 9225   5.321   0.367   7.159  0.0849 -0.0008 -0.5340
   92CHL1   H7A 9226   5.216   0.382   7.193 -0.5953 -0.8818 -2.1513
   92CHL1   H7B 9227   5.331   0.258   7.179 -2.0675  0.1887  2.2101
   92CHL1    C8 9228   5.418   0.455   7.250  0.2257 -0.2966  0.1769
   92CHL1    H8 9229   5.376   0.558   7.250  0.3293 -0.2040  2.4464
   92CHL1   C14 9230   5.426   0.408   7.392  0.2979  0.1573  0.0252
   92CHL1   H14 9231   5.479   0.310   7.389 -0.4988 -0.2696 -1.8896
   92CHL1   C15 9232   5.291   0.392   7.460 -0.7492  0.1123  0.1994
   92CHL1  H15A 9233   5.216   0.465   7.426  0.6227  1.6663  0.3948
   92CHL1  H15B 9234   5.250   0.295   7.423  2.2951 -1.8904  1.6001
   92CHL1   C16 9235   5.319   0.392   7.615  0.1845  0.5497 -0.1042
   92CHL1  H16A 9236   5.265   0.476   7.665  0.0399  0.0425  0.6046
   92CHL1  H16B 9237   5.306   0.293   7.662  0.6494  0.0311 -1.0360
   92CHL1   C17 9238   5.470   0.430   7.625  0.2685 -0.6179  0.7622
   92CHL1   H17 9239   5.516   0.329   7.625 -1.0312 -1.2821 -1.0400
   92CHL1   C13 9240   5.505   0.494   7.486  0.0788 -0.7730  0.2701
   92CHL1   C18 9241   5.454   0.640   7.507 -1.1017  0.1293 -0.2331
   92CHL1  H18A 9242   5.362   0.651   7.568 -1.2238  1.8797 -0.6582
   92CHL1  H18B 9243   5.530   0.705   7.557  0.7323 -2.2130  0.1803
   92CHL1  H18C 9244   5.447   0.683   7.405  1.7994  0.5029 -0.3718
   92CHL1   C12 9245   5.655   0.492   7.438  0.6893 -0.7205 -0.3130
   92CHL1  H12A 9246   5.708   0.569   7.497 -1.5380  1.0249 -0.4286
   92CHL1  H12B 9247   5.690   0.387   7.447 -1.3164 -1.2905  1.8814
   92CHL1   C11 9248   5.656   0.538   7.292 -0.5052 -0.1235  0.2093
   92CHL1  H11A 9249   5.640   0.647   7.278 -0.6558 -0.2888 -0.9459
   92CHL1  H11B 9250   5.756   0.511   7.252 -0.0074  0.6676  0.8745
   92CHL1    C9 9251   5.557   0.469   7.194  0.2544 -0.8118  0.3507
   92CHL1    H9 9252   5.588   0.363   7.180  0.4061 -1.0175  2.0032
   92CHL1   C10 9253   5.564   0.526   7.046  0.1036 -0.5750 -0.1549
   92CHL1   C19 9254   5.540   0.681   7.039 -0.4386 -0.4027 -0.5386
   92CHL1  H19A 9255   5.442   0.709   7.082  0.5545  1.2023  0.8245
   92CHL1  H19B 9256   5.621   0.737   7.091 -1.9910  2.1845 -0.6992
   92CHL1  H19C 9257   5.544   0.732   6.941 -1.1964  1.4910  0.3639
   92CHL1    C1 9258   5.692   0.480   6.977 -0.7818 -1.4236 -0.1882
   92CHL1   H1A 9259   5.781   0.535   7.016 -1.4218 -0.4791 -0.0072
   92CHL1   H1B 9260   5.718   0.375   6.998  2.5881 -0.4033  1.4970
   92CHL1    C2 9261   5.705   0.514   6.829  0.3119  0.1087 -0.1283
   92CHL1   H2A 9262   5.801   0.485   6.781 -0.1424  0.8516 -1.5435
   92CHL1   H2B 9263   5.702   0.623   6.808  1.4521  0.0414 -0.7160
   92CHL1   C20 9264   5.512   0.498   7.758  0.2357  0.2908 -0.2000
   92CHL1   H20 9265   5.488   0.606   7.770 -1.8224 -0.3097  1.7139
   92CHL1   C21 9266   5.663   0.491   7.762 -0.5603 -0.0299 -0.3598
   92CHL1  H21A 9267   5.706   0.578   7.708  1.2197 -0.6814 -0.0514
   92CHL1  H21B 9268   5.689   0.390   7.723  0.8196 -0.7631  2.2004
   92CHL1  H21C 9269   5.707   0.487   7.864 -0.2590 -0.2950 -0.4961
   92CHL1   C22 9270   5.455   0.423   7.882 -0.9794  0.2078  0.4596
   92CHL1  H22A 9271   5.348   0.394   7.871 -0.4222 -0.7283 -5.3355
   92CHL1  H22B 9272   5.515   0.330   7.879 -0.4178  0.5916 -1.1021
   92CHL1   C23 9273   5.481   0.490   8.016  0.5428  0.2235  0.6392
   92CHL1  H23A 9274   5.578   0.544   8.021 -0.8529  2.7826  2.0739
   92CHL1  H23B 9275   5.407   0.572   8.017 -1.3334 -1.3243 -1.1951
   92CHL1   C24 9276   5.443   0.407   8.141  0.5836 -0.0298 -0.1728
   92CHL1  H24A 9277   5.338   0.372   8.134  1.7954 -4.0974 -0.3671
   92CHL1  H24B 9278   5.496   0.310   8.142 -3.2200 -2.3049  0.5800
   92CHL1   C25 9279   5.453   0.479   8.273  0.5543  0.1297  0.3412
   92CHL1   H25 9280   5.559   0.507   8.289  0.6400  1.0931 -1.6380
   92CHL1   C26 9281   5.359   0.600   8.284  0.8303 -0.1098  0.0983
   92CHL1  H26A 9282   5.401   0.681   8.219  2.7282 -2.5162 -1.8670
   92CHL1  H26B 9283   5.256   0.565   8.260  0.8512  0.7674 -1.4137
   92CHL1  H26C 9284   5.355   0.635   8.390 -1.0934 -0.1563  0.0834
   92CHL1   C27 9285   5.396   0.382   8.379  0.3293  0.8416 -0.5670
   92CHL1  H27A 9286   5.403   0.415   8.485  0.1933 -1.9039  0.3856
   92CHL1  H27B 9287   5.291   0.363   8.349  0.1037 -0.3591  0.8264
   92CHL1  H27C 9288   5.444   0.282   8.385 -1.1652  0.0750 -0.7971
   93CHL1    C3 9289   3.837   0.297   6.858 -0.5506 -0.0949  0.4211
   93CHL1    H3 9290   3.927   0.361   6.855 -0.2241 -0.5627 -1.1553
   93CHL1    O3 9291   3.818   0.259   6.722  0.2797 -0.3407  0.9242
   93CHL1   H3' 9292   3.760   0.183   6.721 -0.6002  0.3110  0.1768
   93CHL1    C4 9293   3.865   0.175   6.944 -0.2618 -0.0916  0.4184
   93CHL1   H4A 9294   3.774   0.111   6.951  0.7907 -1.5709  1.0882
   93CHL1   H4B 9295   3.952   0.125   6.895 -0.2268  0.8131 -0.4916
   93CHL1    C5 9296   3.898   0.222   7.081  0.1835 -0.5710 -0.3082
   93CHL1    C6 9297   4.013   0.186   7.135  0.0024 -0.3550 -0.3559
   93CHL1    H6 9298   4.077   0.123   7.071 -0.5832 -0.3240 -0.9777
   93CHL1    C7 9299   4.065   0.219   7.273 -0.2684  0.3580  0.2046
   93CHL1   H7A 9300   4.103   0.125   7.318 -3.2214 -0.6352  0.8107
   93CHL1   H7B 9301   4.150   0.289   7.256 -0.7394  0.7934 -0.3661
   93CHL1    C8 9302   3.943   0.266   7.360  0.2093 -0.7711 -0.0425
   93CHL1    H8 9303   3.903   0.164   7.381  0.1140 -1.2476 -2.3426
   93CHL1   C14 9304   3.990   0.330   7.486  0.3181 -0.5133 -0.2200
   93CHL1   H14 9305   4.030   0.427   7.451 -0.6684  0.3447  0.9339
   93CHL1   C15 9306   4.113   0.278   7.556  0.5100 -0.8384 -0.5087
   93CHL1  H15A 9307   4.087   0.174   7.583  0.1891 -0.2761  1.5170
   93CHL1  H15B 9308   4.209   0.279   7.500  0.2132  1.1417 -1.0609
   93CHL1   C16 9309   4.116   0.357   7.688 -0.2109  0.7925  0.4418
   93CHL1  H16A 9310   4.129   0.292   7.778 -0.9882  0.5296  0.3692
   93CHL1  H16B 9311   4.193   0.437   7.681 -0.3342  0.8824  0.1035
   93CHL1   C17 9312   3.985   0.437   7.693  0.3789 -0.2378 -0.2742
   93CHL1   H17 9313   4.015   0.540   7.665  1.3473  0.3643  2.6540
   93CHL1   C13 9314   3.888   0.372   7.589 -0.5669  0.3753  0.7906
   93CHL1   C18 9315   3.822   0.245   7.642  0.4465 -0.1714 -0.2965
   93CHL1  H18A 9316   3.755   0.269   7.726  0.6807 -0.3004 -0.0724
   93CHL1  H18B 9317   3.762   0.199   7.560  0.5962 -1.1172  0.1085
   93CHL1  H18C 9318   3.905   0.175   7.665  0.6678  0.8788  2.3750
   93CHL1   C12 9319   3.786   0.468   7.528 -0.1263 -0.6313 -0.1780
   93CHL1  H12A 9320   3.698   0.486   7.593  0.3221 -2.1700  0.8900
   93CHL1  H12B 9321   3.834   0.568   7.515 -0.6240 -0.2156  1.0186
   93CHL1   C11 9322   3.731   0.405   7.392  0.7853 -0.1118 -0.0985
   93CHL1  H11A 9323   3.656   0.326   7.415  1.1979 -0.2726  0.7364
   93CHL1  H11B 9324   3.675   0.485   7.340  1.4333  0.5243  0.1631
   93CHL1    C9 9325   3.837   0.359   7.293 -0.4099  0.0691  0.2343
   93CHL1    H9 9326   3.900   0.447   7.267  2.4674 -2.2054 -1.0766
   93CHL1   C10 9327   3.794   0.304   7.155  0.6044 -0.0989 -1.0139
   93CHL1   C19 9328   3.678   0.204   7.192 -0.4130  0.0974 -0.3902
   93CHL1  H19A 9329   3.595   0.259   7.242 -0.9874  1.3278 -2.5588
   93CHL1  H19B 9330   3.638   0.152   7.102 -3.3851 -0.3235  1.0474
   93CHL1  H19C 9331   3.713   0.124   7.261 -1.3777 -0.7984 -0.8896
   93CHL1    C1 9332   3.729   0.415   7.065 -0.8186 -0.2177  0.1699
   93CHL1   H1A 9333   3.632   0.454   7.101 -0.5313  0.5940  0.0986
   93CHL1   H1B 9334   3.797   0.503   7.060 -2.2824  0.9646  0.3436
   93CHL1    C2 9335   3.716   0.366   6.915  1.0503 -1.2474  0.2829
   93CHL1   H2A 9336   3.693   0.455   6.852 -1.1006 -0.6793  1.7634
   93CHL1   H2B 9337   3.623   0.307   6.910 -0.6713  1.2854  0.7859
   93CHL1   C20 9338   3.929   0.451   7.834 -0.2142  0.2500  0.4562
   93CHL1   H20 9339   3.926   0.347   7.872  1.4715 -0.9448 -2.3655
   93CHL1   C21 9340   3.794   0.532   7.836 -0.9908 -0.0402  0.1068
   93CHL1  H21A 9341   3.767   0.565   7.939  1.9574 -1.1564  1.3333
   93CHL1  H21B 9342   3.715   0.471   7.785  1.2243 -3.0975  0.0312
   93CHL1  H21C 9343   3.808   0.626   7.780  1.9548 -0.0440  0.6814
   93CHL1   C22 9344   4.032   0.512   7.932  0.3499 -0.4881  0.2930
   93CHL1  H22A 9345   4.115   0.439   7.939  0.0120 -1.0879 -1.2907
   93CHL1  H22B 9346   4.070   0.610   7.897  0.8797 -0.3819  1.1414
   93CHL1   C23 9347   3.993   0.534   8.078 -0.3538 -0.0429 -0.1616
   93CHL1  H23A 9348   3.938   0.630   8.075 -1.6378 -0.6693  1.5320
   93CHL1  H23B 9349   3.921   0.459   8.118 -1.8173  1.2105 -0.3552
   93CHL1   C24 9350   4.119   0.552   8.165  0.3148  0.4255  0.3163
   93CHL1  H24A 9351   4.166   0.451   8.169  2.4504  1.2903 -0.9540
   93CHL1  H24B 9352   4.191   0.630   8.130  0.1187  1.6284  2.4513
   93CHL1   C25 9353   4.096   0.579   8.314 -0.1771  0.0822  0.2100
   93CHL1   H25 9354   4.026   0.503   8.356 -0.6421  0.3898 -0.0006
   93CHL1   C26 9355   4.224   0.575   8.385 -0.3282 -0.0146  0.5723
   93CHL1  H26A 9356   4.264   0.471   8.384 -2.9287 -1.1040 -0.8317
   93CHL1  H26B 9357   4.300   0.638   8.333 -1.0170  1.6188  1.4860
   93CHL1  H26C 9358   4.219   0.602   8.492 -0.0054 -0.4281  0.6987
   93CHL1   C27 9359   4.026   0.709   8.336  0.0355  0.3061  0.6473
   93CHL1  H27A 9360   4.100   0.791   8.326 -0.5385  0.7022 -0.4769
   93CHL1  H27B 9361   3.948   0.726   8.259  0.0165 -1.9435  0.1184
   93CHL1  H27C 9362   3.981   0.709   8.438  0.9380 -3.0798  1.1527
   94CHL1    C3 9363   5.487   3.742   6.908  0.0641  0.3249 -0.2585
   94CHL1    H3 9364   5.435   3.644   6.906  1.9294 -0.7280  0.1945
   94CHL1    O3 9365   5.530   3.788   6.776  0.0001  0.0012  0.0052
   94CHL1   H3' 9366   5.571   3.709   6.741  1.7091 -0.4007  2.5858
   94CHL1    C4 9367   5.395   3.853   6.967 -0.5009  0.4543 -0.0949
   94CHL1   H4A 9368   5.455   3.947   6.964 -0.8514  0.6568 -1.8463
   94CHL1   H4B 9369   5.308   3.860   6.899 -1.4278  1.8132  1.1712
   94CHL1    C5 9370   5.350   3.806   7.107 -0.2901  0.2191 -0.0943
   94CHL1    C6 9371   5.224   3.774   7.140  0.7899 -0.1274  0.6302
   94CHL1    H6 9372   5.140   3.791   7.071  0.0759  1.7948  1.8952
   94CHL1    C7 9373   5.176   3.737   7.279 -0.0463 -0.0204 -0.4199
   94CHL1   H7A 9374   5.083   3.784   7.317  2.1838  1.5767  3.6600
   94CHL1   H7B 9375   5.158   3.628   7.283 -1.5658  0.2087 -0.4291
   94CHL1    C8 9376   5.286   3.767   7.387 -0.0266 -0.5781  0.3533
   94CHL1    H8 9377   5.281   3.875   7.412 -1.0788 -0.9918  2.1887
   94CHL1   C14 9378   5.262   3.696   7.515  0.0821  0.6639 -0.9330
   94CHL1   H14 9379   5.269   3.586   7.500 -0.5397  0.8672 -3.0980
   94CHL1   C15 9380   5.124   3.717   7.574 -0.0810  0.2240 -0.4750
   94CHL1  H15A 9381   5.073   3.811   7.545 -1.2247  0.0231  0.7981
   94CHL1  H15B 9382   5.068   3.631   7.532  0.1615 -0.1497 -0.0483
   94CHL1   C16 9383   5.135   3.702   7.727  0.1318  0.4070 -0.4192
   94CHL1  H16A 9384   5.105   3.798   7.774 -2.8003  0.2060 -1.6652
   94CHL1  H16B 9385   5.067   3.622   7.762  2.8045 -1.2296  1.3977
   94CHL1   C17 9386   5.286   3.656   7.744 -0.2936 -0.5420 -0.5051
   94CHL1   H17 9387   5.280   3.545   7.733  1.1228 -1.2139  3.6405
   94CHL1   C13 9388   5.359   3.725   7.627 -0.5552  0.5283 -0.1224
   94CHL1   C18 9389   5.376   3.873   7.663 -0.0269  0.2801 -0.9939
   94CHL1  H18A 9390   5.438   3.874   7.755  3.5149  0.6635 -3.1847
   94CHL1  H18B 9391   5.428   3.937   7.589  1.1887  0.4053 -0.0526
   94CHL1  H18C 9392   5.278   3.922   7.685  0.1814 -0.9029  3.4239
   94CHL1   C12 9393   5.496   3.670   7.583 -0.0806 -0.3041 -0.2646
   94CHL1  H12A 9394   5.582   3.677   7.652 -1.3439 -1.8499  1.5565
   94CHL1  H12B 9395   5.477   3.565   7.553 -3.1441  0.1728 -0.3567
   94CHL1   C11 9396   5.541   3.735   7.449 -0.6367  0.0343 -0.0682
   94CHL1  H11A 9397   5.571   3.838   7.478  1.8042  0.1896 -2.6880
   94CHL1  H11B 9398   5.629   3.689   7.398 -1.0036  0.3178 -0.9843
   94CHL1    C9 9399   5.429   3.732   7.344  0.3041 -0.3922 -0.6815
   94CHL1    H9 9400   5.414   3.626   7.314 -1.8579  0.1245 -1.5801
   94CHL1   C10 9401   5.472   3.792   7.200  0.3579  0.7792 -0.2269
   94CHL1   C19 9402   5.522   3.936   7.228  0.4060 -0.0613 -0.6552
   94CHL1  H19A 9403   5.553   3.998   7.141  1.2397  0.6191  0.1083
   94CHL1  H19B 9404   5.443   3.998   7.276 -0.2904 -1.1038 -0.4277
   94CHL1  H19C 9405   5.607   3.935   7.300 -1.2232 -0.2461  1.3674
   94CHL1    C1 9406   5.580   3.700   7.132 -0.0491 -0.1694  0.7568
   94CHL1   H1A 9407   5.674   3.696   7.192 -0.8634 -2.5611  2.0268
   94CHL1   H1B 9408   5.543   3.595   7.131  1.6584 -0.8203  0.6643
   94CHL1    C2 9409   5.615   3.743   6.991  0.2699 -0.0221  0.1486
   94CHL1   H2A 9410   5.682   3.672   6.939 -0.1494  1.3419 -2.4215
   94CHL1   H2B 9411   5.663   3.843   7.003  1.4729 -0.6500  0.7426
   94CHL1   C20 9412   5.336   3.670   7.889 -1.2132 -0.2792  0.3068
   94CHL1   H20 9413   5.356   3.778   7.906 -2.3177  0.0569 -0.4623
   94CHL1   C21 9414   5.462   3.586   7.909 -0.1859 -0.1429 -0.4800
   94CHL1  H21A 9415   5.498   3.593   8.014 -0.7269  1.5511 -0.3868
   94CHL1  H21B 9416   5.539   3.628   7.842 -0.7434  1.7266 -0.0154
   94CHL1  H21C 9417   5.445   3.477   7.895 -0.4359 -0.2287  0.3994
   94CHL1   C22 9418   5.228   3.624   7.993 -0.1804  0.2314  0.8393
   94CHL1  H22A 9419   5.137   3.685   7.977 -0.0287  0.3679  0.4860
   94CHL1  H22B 9420   5.215   3.514   7.979  1.2612  0.1559 -0.0458
   94CHL1   C23 9421   5.274   3.650   8.132  0.2851  0.5789  0.1319
   94CHL1  H23A 9422   5.368   3.606   8.170 -0.4809  0.0825  1.5619
   94CHL1  H23B 9423   5.277   3.761   8.142 -2.0034  0.5725  1.9419
   94CHL1   C24 9424   5.166   3.624   8.241 -0.3745  0.6266 -0.1281
   94CHL1  H24A 9425   5.069   3.661   8.203  0.4468  1.9626 -1.0377
   94CHL1  H24B 9426   5.155   3.514   8.249  0.7032  0.4398 -0.8822
   94CHL1   C25 9427   5.197   3.684   8.379  0.8065 -0.8249 -0.0161
   94CHL1   H25 9428   5.217   3.793   8.369  0.9756 -0.9638 -1.4412
   94CHL1   C26 9429   5.077   3.669   8.471  0.4638  0.2952 -0.3412
   94CHL1  H26A 9430   5.110   3.692   8.575  0.0178  1.2626 -0.4003
   94CHL1  H26B 9431   4.995   3.732   8.432 -1.6064 -3.1394 -1.9929
   94CHL1  H26C 9432   5.042   3.565   8.456  0.9718  0.0884 -0.1378
   94CHL1   C27 9433   5.325   3.618   8.446  0.7984  0.1866  0.4624
   94CHL1  H27A 9434   5.296   3.512   8.465 -0.2741 -0.1891 -2.7597
   94CHL1  H27B 9435   5.407   3.621   8.371  0.7862 -2.0004  0.2895
   94CHL1  H27C 9436   5.346   3.670   8.542 -1.0437  0.0046  1.0078
   95CHL1    C3 9437   0.590   6.629   6.660  0.4684  0.3354  0.5433
   95CHL1    H3 9438   0.553   6.734   6.657 -0.3514  0.0358 -0.5197
   95CHL1    O3 9439   0.640   6.586   6.532 -0.2117 -0.3337  0.7842
   95CHL1   H3' 9440   0.647   6.493   6.555 -0.7922 -0.7377 -0.5925
   95CHL1    C4 9441   0.701   6.610   6.773  0.0323  0.1780 -0.6033
   95CHL1   H4A 9442   0.761   6.517   6.781 -0.3942 -0.1129 -0.7503
   95CHL1   H4B 9443   0.768   6.697   6.754 -0.2512  0.2918 -1.1211
   95CHL1    C5 9444   0.642   6.628   6.910  0.3575  0.3588 -0.4089
   95CHL1    C6 9445   0.696   6.710   7.009 -0.3687  0.0412 -0.2165
   95CHL1    H6 9446   0.786   6.767   6.981 -0.3761  0.4624  0.5831
   95CHL1    C7 9447   0.660   6.712   7.159 -0.3522 -0.3546  0.9850
   95CHL1   H7A 9448   0.750   6.705   7.224  0.7787  1.9427 -0.2283
   95CHL1   H7B 9449   0.624   6.815   7.179  0.8341  0.5085 -1.0705
   95CHL1    C8 9450   0.569   6.598   7.193  0.3438 -0.1016 -0.4385
   95CHL1    H8 9451   0.622   6.500   7.194  1.2767  0.3184 -2.7206
   95CHL1   C14 9452   0.505   6.632   7.329  0.6571 -0.3472  0.3518
   95CHL1   H14 9453   0.443   6.724   7.318  1.7168  0.2438 -0.8923
   95CHL1   C15 9454   0.586   6.654   7.458 -0.1141  0.1655  0.3233
   95CHL1  H15A 9455   0.669   6.581   7.476  0.9055  1.5071  1.3345
   95CHL1  H15B 9456   0.631   6.755   7.455  0.7743 -0.2487 -0.7318
   95CHL1   C16 9457   0.477   6.647   7.571 -0.5428 -0.1046  0.0973
   95CHL1  H16A 9458   0.518   6.580   7.649 -1.7467 -3.1537 -1.7353
   95CHL1  H16B 9459   0.468   6.747   7.621  1.0850 -0.3305  0.9262
   95CHL1   C17 9460   0.350   6.588   7.507  0.1233  0.0095 -0.3522
   95CHL1   H17 9461   0.287   6.676   7.479  2.5006  1.3156 -1.9005
   95CHL1   C13 9462   0.398   6.529   7.372  0.1814 -0.0825  0.6355
   95CHL1   C18 9463   0.472   6.393   7.402  0.9352 -0.3224  0.3863
   95CHL1  H18A 9464   0.393   6.318   7.384 -0.7044  1.1089  1.2768
   95CHL1  H18B 9465   0.561   6.370   7.340 -0.6979 -3.6320 -0.9622
   95CHL1  H18C 9466   0.504   6.384   7.508  4.7927 -0.6396 -0.6561
   95CHL1   C12 9467   0.290   6.522   7.261 -0.3136 -0.2221  0.7960
   95CHL1  H12A 9468   0.210   6.448   7.280  0.2540 -0.9667  0.3321
   95CHL1  H12B 9469   0.244   6.623   7.263  0.5773  0.1985  0.6006
   95CHL1   C11 9470   0.348   6.494   7.123  0.0956  0.0965  0.8522
   95CHL1  H11A 9471   0.378   6.388   7.110  3.9802  1.2947 -1.5368
   95CHL1  H11B 9472   0.266   6.521   7.053  1.4685  1.6255 -0.2276
   95CHL1    C9 9473   0.465   6.578   7.087 -0.0759 -0.5205  0.7032
   95CHL1    H9 9474   0.418   6.678   7.080 -0.5789 -0.8680 -2.1869
   95CHL1   C10 9475   0.526   6.537   6.946 -0.7791  0.5750  0.0764
   95CHL1   C19 9476   0.579   6.388   6.946  0.4134 -0.2278 -0.3050
   95CHL1  H19A 9477   0.643   6.378   7.036 -0.1013 -0.6713  0.0198
   95CHL1  H19B 9478   0.485   6.328   6.946 -0.4421  1.0812 -0.4768
   95CHL1  H19C 9479   0.641   6.368   6.856 -1.4896  0.5580 -1.8507
   95CHL1    C1 9480   0.415   6.562   6.836 -0.3986 -0.0471  0.3671
   95CHL1   H1A 9481   0.329   6.495   6.860 -2.4349  2.1823 -0.2878
   95CHL1   H1B 9482   0.382   6.667   6.853 -1.3023 -0.1990 -0.3542
   95CHL1    C2 9483   0.465   6.548   6.692 -0.2991  0.1528 -0.1824
   95CHL1   H2A 9484   0.383   6.582   6.626 -2.7349 -0.1806  2.4545
   95CHL1   H2B 9485   0.490   6.442   6.675  2.8489  1.1174 -2.2610
   95CHL1   C20 9486   0.258   6.502   7.594 -0.4303 -0.0519 -0.3820
   95CHL1   H20 9487   0.304   6.402   7.606 -1.9643 -0.6499  0.9481
   95CHL1   C21 9488   0.114   6.494   7.535 -0.3073  0.9572 -0.4906
   95CHL1  H21A 9489   0.119   6.427   7.447  0.8901  0.7112 -0.2576
   95CHL1  H21B 9490   0.075   6.590   7.496 -0.3007  1.3143  0.3514
   95CHL1  H21C 9491   0.047   6.453   7.613  1.2277  1.1309  0.9826
   95CHL1   C22 9492   0.250   6.556   7.744  0.0828  0.5447 -0.7035
   95CHL1  H22A 9493   0.344   6.516   7.788  0.8084 -1.6596 -3.9097
   95CHL1  H22B 9494   0.247   6.666   7.758 -1.8198  0.3517  0.8775
   95CHL1   C23 9495   0.149   6.486   7.832  0.0949  0.4947 -0.1727
   95CHL1  H23A 9496   0.044   6.509   7.805  0.1927  1.5417  0.2823
   95CHL1  H23B 9497   0.155   6.375   7.823 -1.9366  0.4243 -1.3282
   95CHL1   C24 9498   0.166   6.507   7.992 -0.6398  0.7620  0.0604
   95CHL1  H24A 9499   0.262   6.465   8.030 -1.4481 -0.9262  0.3315
   95CHL1  H24B 9500   0.172   6.617   8.004 -2.0039  0.9326 -0.6263
   95CHL1   C25 9501   0.049   6.451   8.084 -0.1548  0.7697  0.2215
   95CHL1   H25 9502   0.023   6.354   8.037  2.2207  0.0183  0.3387
   95CHL1   C26 9503   0.099   6.422   8.230  0.2197 -0.2123 -0.1162
   95CHL1  H26A 9504   0.169   6.335   8.228 -0.8920 -1.1527  0.4545
   95CHL1  H26B 9505   0.165   6.505   8.262  0.1682 -0.6270  1.1472
   95CHL1  H26C 9506   0.019   6.404   8.305 -0.7849 -0.7127 -1.2845
   95CHL1   C27 9507  -0.071   6.544   8.089  0.6501 -0.0402 -0.2857
   95CHL1  H27A 9508  -0.152   6.487   8.139 -1.7334  1.7696 -1.8624
   95CHL1  H27B 9509  -0.057   6.636   8.151 -0.2689  0.0283 -0.1597
   95CHL1  H27C 9510  -0.104   6.572   7.987 -1.0230 -0.5201  0.0968
   96CHL1    C3 9511   6.256   1.946   6.798 -0.0695 -0.2398 -0.1100
   96CHL1    H3 9512   6.257   2.050   6.838  2.6813 -0.9713  2.1124
   96CHL1    O3 9513   6.296   1.959   6.663 -0.2937 -0.3757  0.3160
   96CHL1   H3' 9514   6.366   1.894   6.658  0.7161  0.6732  0.2513
   96CHL1    C4 9515   6.367   1.868   6.871  0.0554  0.3958  0.5822
   96CHL1   H4A 9516   6.363   1.762   6.836 -2.4728 -0.0572  1.9931
   96CHL1   H4B 9517   6.462   1.915   6.839  0.1872 -1.9009 -3.0437
   96CHL1    C5 9518   6.340   1.872   7.011  0.1011  0.4703  0.0048
   96CHL1    C6 9519   6.427   1.927   7.088 -0.1716  0.3127  0.2581
   96CHL1    H6 9520   6.526   1.953   7.049  0.4436 -1.4142  0.5809
   96CHL1    C7 9521   6.415   1.944   7.235  0.1857  0.0731 -0.1989
   96CHL1   H7A 9522   6.502   1.910   7.296  0.0463 -1.4031 -0.7886
   96CHL1   H7B 9523   6.411   2.055   7.237  0.4795  0.0787  1.8707
   96CHL1    C8 9524   6.293   1.877   7.295 -0.2864  0.3595  0.0842
   96CHL1    H8 9525   6.311   1.769   7.312  5.3134  1.0596  0.4998
   96CHL1   C14 9526   6.258   1.940   7.432  2.3759  0.3216 -0.3922
   96CHL1   H14 9527   6.208   2.035   7.404  2.7518  1.1828  1.6950
   96CHL1   C15 9528   6.378   1.969   7.523  0.4470  1.0052  0.2315
   96CHL1  H15A 9529   6.449   1.884   7.533  0.3093  0.7487 -0.8435
   96CHL1  H15B 9530   6.425   2.065   7.492 -1.2504  1.7682 -0.0889
   96CHL1   C16 9531   6.294   1.988   7.651  0.1350 -0.1413 -0.0304
   96CHL1  H16A 9532   6.340   1.922   7.728  2.5738 -0.5469 -1.7023
   96CHL1  H16B 9533   6.311   2.096   7.669  1.0238 -0.1421 -0.7634
   96CHL1   C17 9534   6.143   1.962   7.635 -0.2503 -0.2279  0.4380
   96CHL1   H17 9535   6.101   2.062   7.611 -0.8843  0.2265  3.1979
   96CHL1   C13 9536   6.142   1.876   7.509  0.1381  0.4978 -0.5479
   96CHL1   C18 9537   6.173   1.731   7.555 -0.0340 -0.7239  0.1693
   96CHL1  H18A 9538   6.237   1.737   7.645  0.7412  0.2484 -0.4215
   96CHL1  H18B 9539   6.080   1.688   7.597 -0.7713 -0.8093 -1.4550
   96CHL1  H18C 9540   6.209   1.666   7.472 -1.4028 -0.1529 -0.9016
   96CHL1   C12 9541   6.014   1.875   7.424 -0.1778 -0.2847 -0.0201
   96CHL1  H12A 9542   5.930   1.825   7.478 -1.0569 -0.3470 -1.3998
   96CHL1  H12B 9543   5.974   1.977   7.408 -4.0037 -2.0111 -3.0703
   96CHL1   C11 9544   6.047   1.813   7.279 -0.6549  0.5079  0.8425
   96CHL1  H11A 9545   6.056   1.703   7.291 -3.2665 -0.1636 -1.9401
   96CHL1  H11B 9546   5.953   1.821   7.219 -0.7058  0.4871  0.9188
   96CHL1    C9 9547   6.169   1.886   7.205  0.5722  0.5607  0.2065
   96CHL1    H9 9548   6.147   1.994   7.194  3.3581  1.2319  0.3688
   96CHL1   C10 9549   6.198   1.842   7.058  0.2264  0.2528  0.4672
   96CHL1   C19 9550   6.191   1.688   7.068 -0.0733 -0.0123 -0.3867
   96CHL1  H19A 9551   6.204   1.642   6.968 -0.3379 -3.5183  1.0612
   96CHL1  H19B 9552   6.255   1.646   7.149 -0.1741 -0.2298 -0.4193
   96CHL1  H19C 9553   6.091   1.657   7.106  0.0785  1.4381  1.3682
   96CHL1    C1 9554   6.087   1.896   6.962  0.3985 -0.3080 -0.5884
   96CHL1   H1A 9555   5.991   1.844   6.985  1.1111 -1.1053  0.6765
   96CHL1   H1B 9556   6.076   2.004   6.984 -1.1079 -0.5111 -0.1825
   96CHL1    C2 9557   6.115   1.885   6.814 -0.3150 -0.2672 -0.0763
   96CHL1   H2A 9558   6.045   1.941   6.749  0.7103 -0.0246 -1.0013
   96CHL1   H2B 9559   6.125   1.784   6.768  0.9563  0.5736 -1.7463
   96CHL1   C20 9560   6.069   1.918   7.769 -0.1816  0.0309 -0.4907
   96CHL1   H20 9561   6.072   1.807   7.776 -2.0333  0.0798  3.0915
   96CHL1   C21 9562   5.918   1.966   7.763 -0.3099  0.7229 -0.2633
   96CHL1  H21A 9563   5.869   1.951   7.665  0.7582  0.2898 -0.7371
   96CHL1  H21B 9564   5.913   2.076   7.780  2.8354  0.7087  1.5907
   96CHL1  H21C 9565   5.867   1.911   7.845 -1.4152  0.7393 -0.9172
   96CHL1   C22 9566   6.140   1.961   7.906  0.1590 -0.2343  0.4089
   96CHL1  H22A 9567   6.237   1.908   7.898 -0.0401 -0.4529 -0.7181
   96CHL1  H22B 9568   6.153   2.071   7.903  0.3095 -0.2314  0.9360
   96CHL1   C23 9569   6.064   1.932   8.035  1.1618  0.5055  0.0557
   96CHL1  H23A 9570   5.965   1.981   8.052  1.3276  0.0523  2.7077
   96CHL1  H23B 9571   6.030   1.826   8.033 -0.4564  0.9326  1.7019
   96CHL1   C24 9572   6.156   1.955   8.158  0.6064 -0.3006  0.0753
   96CHL1  H24A 9573   6.175   2.064   8.159  0.1889 -0.2254 -0.0605
   96CHL1  H24B 9574   6.103   1.926   8.251  2.3986 -0.8411  0.9884
   96CHL1   C25 9575   6.288   1.883   8.159  0.2275  0.8321  0.1020
   96CHL1   H25 9576   6.360   1.906   8.078  2.1887 -0.6621  1.3186
   96CHL1   C26 9577   6.370   1.921   8.288  0.8031 -0.2686  0.5576
   96CHL1  H26A 9578   6.470   1.872   8.288  0.9418 -0.0251 -0.8199
   96CHL1  H26B 9579   6.386   2.030   8.276 -1.5672 -0.0427 -1.2998
   96CHL1  H26C 9580   6.315   1.890   8.379 -3.6325  1.5661 -1.1985
   96CHL1   C27 9581   6.265   1.735   8.146 -0.1266  0.3965 -0.2060
   96CHL1  H27A 9582   6.194   1.704   8.225 -0.3562  0.4615 -0.3876
   96CHL1  H27B 9583   6.214   1.712   8.050 -0.1871 -0.7543  0.0977
   96CHL1  H27C 9584   6.363   1.684   8.164 -0.3381  1.0286  3.7370
   97OSM      N 9585   2.356   1.480  11.183 -0.7845  0.9800 -0.4132
   97OSM    C15 9586   2.239   1.417  11.122 -0.0088  0.2728  0.2332
   97OSM   H15A 9587   2.196   1.337  11.180  1.1520  0.3530  1.2500
   97OSM   H15B 9588   2.261   1.379  11.024 -3.6385 -0.1968 -0.5395
   97OSM   H15C 9589   2.158   1.486  11.107  0.4362  0.8969  0.6133
   97OSM    C14 9590   2.321   1.504  11.318  0.4458 -0.6991 -0.0282
   97OSM   H14A 9591   2.256   1.589  11.330  0.8360  0.5579 -4.8446
   97OSM   H14B 9592   2.417   1.530  11.362  0.7473 -1.1037 -0.4423
   97OSM   H14C 9593   2.282   1.419  11.372 -2.6961  1.3121  1.1574
   97OSM    C13 9594   2.469   1.377  11.190 -0.5525 -0.4493 -0.0431
   97OSM   H13A 9595   2.547   1.422  11.251 -1.2802  0.2374  0.3973
   97OSM   H13B 9596   2.512   1.346  11.095  1.5668  0.4694  0.5552
   97OSM   H13C 9597   2.424   1.288  11.231  0.5270 -0.8746  0.2552
   97OSM    C12 9598   2.399   1.600  11.111  0.1211 -0.6249 -0.2737
   97OSM   H12A 9599   2.311   1.662  11.112 -1.0491 -2.2181 -0.2881
   97OSM   H12B 9600   2.422   1.574  11.008 -1.5379  0.3596 -0.9263
   97OSM    C11 9601   2.525   1.678  11.163 -0.3694 -0.0677  0.0661
   97OSM   H11A 9602   2.507   1.696  11.272  2.9227  1.5537  0.4640
   97OSM   H11B 9603   2.530   1.785  11.131 -1.3070 -0.2437 -0.7057
   97OSM      P 9604   2.708   1.595  11.005  0.0058 -0.0898 -0.0655
   97OSM    O13 9605   2.768   1.728  10.975  0.1986 -0.4206 -0.2288
   97OSM    O14 9606   2.800   1.481  11.005  0.4123  0.4200  0.1571
   97OSM    O11 9607   2.595   1.566  10.898 -0.8977  0.6127 -0.2275
   97OSM    O12 9608   2.641   1.598  11.142  0.4536 -0.6921 -0.0157
   97OSM    C1S 9609   2.537   1.655  10.804 -0.0843  0.2081  0.0067
   97OSM    H1S 9610   2.600   1.746  10.795  1.9945 -1.1390  0.2913
   97OSM    H1T 9611   2.433   1.686  10.829 -0.9964  0.5688 -3.6512
   97OSM     NF 9612   2.494   1.699  10.575 -0.1612 -0.7912  0.0285
   97OSM    HNF 9613   2.406   1.724  10.535  0.7187  0.8290 -1.0241
   97OSM    C2S 9614   2.513   1.592  10.670 -0.6599  0.4248 -0.3217
   97OSM    H2S 9615   2.611   1.545  10.647 -0.8060 -0.0390 -0.0027
   97OSM    C3S 9616   2.399   1.487  10.675 -0.1312  0.6437 -0.0899
   97OSM    H3S 9617   2.302   1.537  10.698 -1.9193 -2.5310 -0.0485
   97OSM     O3 9618   2.411   1.406  10.793 -0.4652 -0.0314 -0.0319
   97OSM    HO3 9619   2.477   1.447  10.849 -0.7300 -0.2905  0.4720
   97OSM    C4S 9620   2.401   1.412  10.550 -0.0374 -0.0859  0.3961
   97OSM    H4S 9621   2.335   1.463  10.477 -0.2785 -1.0209 -0.0566
   97OSM    C5S 9622   2.471   1.300  10.522 -0.8558 -0.1633  0.4962
   97OSM    H5S 9623   2.551   1.263  10.587  0.7814 -1.5351 -2.1133
   97OSM    C6S 9624   2.459   1.223  10.394  0.0484 -0.1518 -0.0722
   97OSM    H6S 9625   2.351   1.208  10.372 -0.0429  0.2783  0.0710
   97OSM    H6T 9626   2.495   1.119  10.406  1.1700  0.2811  0.5167
   97OSM    C7S 9627   2.518   1.288  10.273  0.5013 -0.0879 -0.3668
   97OSM    H7S 9628   2.620   1.321  10.302 -0.1477  1.2686  0.5138
   97OSM    H7T 9629   2.456   1.376  10.244  0.7017 -0.0810 -0.7843
   97OSM    C8S 9630   2.523   1.201  10.148  0.0395  0.1343 -0.5223
   97OSM    H8S 9631   2.592   1.119  10.179  1.3582  2.2071  2.4652
   97OSM    H8T 9632   2.569   1.257  10.064 -1.6333 -0.3179 -1.8060
   97OSM    C9S 9633   2.387   1.147  10.092 -0.2861  0.2227  0.2590
   97OSM    H9S 9634   2.321   1.232  10.064 -0.9730  0.4962  2.5004
   97OSM    H9T 9635   2.333   1.091  10.171 -1.6066 -0.1361 -0.8582
   97OSM   C10S 9636   2.389   1.056   9.972 -1.2706  0.4178  0.3469
   97OSM   H10S 9637   2.289   1.012   9.950 -0.3728  0.1226 -3.9660
   97OSM   H10T 9638   2.456   0.974  10.005  1.0157  1.1423 -2.1201
   97OSM   C11S 9639   2.445   1.109   9.840  0.4123 -0.4603 -0.7628
   97OSM   H11S 9640   2.504   1.025   9.798  0.7257 -0.4008 -0.4535
   97OSM   H11T 9641   2.503   1.200   9.865  0.6639 -0.8609  0.1581
   97OSM   C12S 9642   2.339   1.138   9.733 -0.3967  0.0765  0.0300
   97OSM   H12S 9643   2.294   1.239   9.743 -2.1431 -0.7904  1.5434
   97OSM   H12T 9644   2.261   1.060   9.744  1.2884 -1.7021 -0.1671
   97OSM   C13S 9645   2.401   1.129   9.591  0.4371  0.7809 -0.1016
   97OSM   H13S 9646   2.328   1.161   9.514 -0.9373  3.8663  2.2750
   97OSM   H13T 9647   2.441   1.030   9.560  0.8566  0.4077  1.5726
   97OSM   C14S 9648   2.525   1.221   9.570  0.6006  0.9044  0.5789
   97OSM   H14S 9649   2.597   1.206   9.652 -0.5474  1.3947  1.7185
   97OSM   H14T 9650   2.488   1.324   9.588 -0.3382  0.2670  2.6076
   97OSM   C15S 9651   2.587   1.206   9.431  0.2099 -0.1159 -0.3411
   97OSM   H15S 9652   2.621   1.101   9.416 -0.8574 -0.5843  0.3307
   97OSM   H15T 9653   2.674   1.274   9.434 -0.6746  1.0242  0.9232
   97OSM   C16S 9654   2.492   1.247   9.310 -0.0212 -0.6362 -0.3866
   97OSM   H16S 9655   2.452   1.350   9.315  0.5875 -0.4734  2.1832
   97OSM   H16T 9656   2.398   1.187   9.306 -2.7049  3.2272 -0.0406
   97OSM   C17S 9657   2.569   1.228   9.180 -0.5718  0.1833  0.5752
   97OSM   H17S 9658   2.643   1.148   9.202  0.9785  2.0081  2.3700
   97OSM   H17T 9659   2.634   1.317   9.174  0.3183 -0.4200  1.0206
   97OSM   C18S 9660   2.492   1.222   9.046 -0.3623  0.6685  0.2967
   97OSM   H18S 9661   2.447   1.320   9.020 -2.5584  0.1138  1.7664
   97OSM   H18T 9662   2.406   1.153   9.046 -0.6270  0.9454 -1.6631
   97OSM   H18U 9663   2.564   1.196   8.965 -0.3592  2.8282 -0.4790
   97OSM    C1F 9664   2.596   1.772  10.528 -0.4567  0.3915 -0.6355
   97OSM     OF 9665   2.712   1.736  10.555 -0.1909  0.4813 -0.0523
   97OSM    C2F 9666   2.564   1.885  10.443  0.8496 -0.2573 -0.1510
   97OSM    H2F 9667   2.632   1.968  10.469  1.1186 -0.9614  1.5158
   97OSM    H2G 9668   2.460   1.920  10.460  1.0430 -0.2990  1.2361
   97OSM    C3F 9669   2.591   1.839  10.289 -0.4429 -0.6657 -0.9027
   97OSM    H3F 9670   2.698   1.808  10.297  0.0242  1.4672  3.2575
   97OSM    H3G 9671   2.586   1.929  10.224 -2.1640  0.5792  0.8676
   97OSM    C4F 9672   2.497   1.729  10.238 -0.0660  0.2631 -1.1319
   97OSM    H4F 9673   2.395   1.771  10.218 -1.9889 -3.7974 -0.8301
   97OSM    H4G 9674   2.494   1.645  10.310  0.9339  1.0222 -0.1745
   97OSM    C5F 9675   2.537   1.650  10.107  0.6048  0.4420 -0.8328
   97OSM    H5F 9676   2.627   1.587  10.120 -1.7228 -2.7392  1.8851
   97OSM    H5G 9677   2.550   1.725  10.026  1.1245  0.0697 -1.0947
   97OSM    C6F 9678   2.422   1.571  10.041  0.2352 -0.6719 -0.2641
   97OSM    H6F 9679   2.327   1.627  10.022  0.2024 -0.5626  0.2153
   97OSM    H6G 9680   2.403   1.488  10.112 -3.0993  0.1863  0.0241
   97OSM    C7F 9681   2.468   1.516   9.902  0.4239 -0.6203  0.5270
   97OSM    H7F 9682   2.414   1.421   9.884 -1.1791  0.4481 -0.5715
   97OSM    H7G 9683   2.576   1.489   9.906  0.2686 -1.5307 -0.6587
   97OSM    C8F 9684   2.463   1.603   9.775  0.0924 -0.5926 -0.4332
   97OSM    H8F 9685   2.518   1.542   9.700 -2.0053 -1.6194 -1.2111
   97OSM    H8G 9686   2.520   1.696   9.800  1.8222 -2.3792  3.0243
   97OSM    C9F 9687   2.319   1.631   9.734  0.4389 -0.6780  0.0535
   97OSM    H9F 9688   2.253   1.674   9.811  0.2168  1.5217 -1.2959
   97OSM   C10F 9689   2.280   1.620   9.606  0.4583 -0.2183 -0.2723
   97OSM   H10F 9690   2.180   1.660   9.584  0.9007  1.0613 -0.0762
   97OSM   C11F 9691   2.354   1.586   9.486 -0.1255 -0.3298  0.7282
   97OSM   H11F 9692   2.274   1.580   9.409 -0.8594  0.9644  1.3695
   97OSM   H11G 9693   2.391   1.482   9.503  0.4023  0.1491  2.8092
   97OSM   C12F 9694   2.466   1.682   9.431 -0.1842 -0.6089  1.0073
   97OSM   H12F 9695   2.539   1.711   9.509  0.4508  5.1073 -1.2373
   97OSM   H12G 9696   2.414   1.778   9.411  0.0964 -0.0582  2.7430
   97OSM   C13F 9697   2.535   1.641   9.299  0.6904 -0.3307 -0.5988
   97OSM   H13F 9698   2.550   1.533   9.282 -0.6581 -0.4685 -1.0667
   97OSM   H13G 9699   2.633   1.693   9.292 -0.5074  2.5948  1.9502
   97OSM   C14F 9700   2.462   1.681   9.168  0.0469 -0.5291  0.0775
   97OSM   H14F 9701   2.402   1.774   9.181 -1.2636 -1.5592  1.6977
   97OSM   H14G 9702   2.386   1.609   9.131  0.2886 -0.2403 -1.0273
   97OSM   C15F 9703   2.567   1.686   9.054  0.1755  0.5344 -1.1244
   97OSM   H15F 9704   2.615   1.586   9.062  1.2701  1.0547 -0.9640
   97OSM   H15G 9705   2.649   1.757   9.077 -1.6603  2.0873  1.1020
   97OSM   C16F 9706   2.521   1.705   8.904 -0.3399  0.9964 -0.4114
   97OSM   H16F 9707   2.525   1.814   8.883  0.0802  1.3181  1.2251
   97OSM   H16G 9708   2.422   1.654   8.899 -0.3933 -0.2150  5.8464
   97OSM   C17F 9709   2.613   1.627   8.808 -0.6874 -0.4495 -0.0164
   97OSM   H17F 9710   2.607   1.518   8.829  2.1086 -0.5381  0.6673
   97OSM   H17G 9711   2.721   1.644   8.825 -0.5769 -1.0860 -0.0460
   97OSM   C18F 9712   2.597   1.656   8.658  0.1129 -0.3460 -0.0834
   97OSM   H18F 9713   2.494   1.645   8.618  0.0070 -1.3114  0.4037
   97OSM   H18G 9714   2.654   1.588   8.591 -1.8652 -1.6951 -0.4954
   97OSM   H18H 9715   2.626   1.758   8.625 -2.2963 -0.3945 -2.7098
   98OSM      N 9716   3.154   2.613  11.145 -0.4834 -0.2875  0.6175
   98OSM    C15 9717   3.285   2.633  11.210  0.4755 -0.1197 -0.0845
   98OSM   H15A 9718   3.334   2.721  11.169  0.3889 -0.5878 -1.2363
   98OSM   H15B 9719   3.349   2.546  11.209  1.2331  0.4112 -1.9117
   98OSM   H15C 9720   3.279   2.647  11.317  0.6841 -0.3459 -0.0425
   98OSM    C14 9721   3.110   2.473  11.182  0.3091  0.3017 -0.1712
   98OSM   H14A 9722   3.179   2.396  11.151  0.2728 -0.1053  0.7214
   98OSM   H14B 9723   3.014   2.457  11.137 -0.0523  1.5523  0.1284
   98OSM   H14C 9724   3.109   2.463  11.290 -1.7746 -0.7969 -0.2430
   98OSM    C13 9725   3.062   2.717  11.190  0.6889 -0.5828 -0.7079
   98OSM   H13A 9726   3.059   2.719  11.298 -0.9290 -0.5969 -0.7278
   98OSM   H13B 9727   2.962   2.691  11.157 -0.6887 -1.1449  3.3047
   98OSM   H13C 9728   3.097   2.816  11.168  0.9516 -0.4383  0.2893
   98OSM    C12 9729   3.163   2.628  10.995  0.5445  0.0290  0.5551
   98OSM   H12A 9730   3.226   2.557  10.944  0.9557  2.0465 -1.9425
   98OSM   H12B 9731   3.210   2.725  10.984  0.4077  0.2807  2.0095
   98OSM    C11 9732   3.031   2.624  10.920 -0.2465 -0.0820  0.3495
   98OSM   H11A 9733   2.985   2.524  10.936  1.1047 -0.6517  0.7919
   98OSM   H11B 9734   3.062   2.611  10.814 -0.1678  3.0253 -0.0967
   98OSM      P 9735   2.795   2.718  10.939 -0.2179 -0.0839  0.4484
   98OSM    O13 9736   2.766   2.619  11.041 -0.0052  0.3776  0.4302
   98OSM    O14 9737   2.736   2.849  10.953  0.0070 -0.1284  0.0411
   98OSM    O11 9738   2.760   2.649  10.797 -0.3808  0.0039  0.6211
   98OSM    O12 9739   2.950   2.739  10.932 -0.4599  0.4315 -0.3268
   98OSM    C1S 9740   2.785   2.718  10.672  0.6183  0.5073 -0.2921
   98OSM    H1S 9741   2.858   2.801  10.682  0.2532  0.6804  1.1189
   98OSM    H1T 9742   2.690   2.745  10.622 -0.6996 -2.4716  0.3777
   98OSM     NF 9743   2.880   2.676  10.454  0.0048 -0.0700 -0.4629
   98OSM    HNF 9744   2.815   2.669  10.378 -3.3239  0.1325  2.1445
   98OSM    C2S 9745   2.854   2.613  10.578  0.1109 -0.1290 -0.0038
   98OSM    H2S 9746   2.954   2.582  10.618  0.2672  0.0740 -0.2343
   98OSM    C3S 9747   2.766   2.476  10.571 -0.2364 -0.0306  0.3538
   98OSM    H3S 9748   2.666   2.516  10.542 -0.5378 -0.4166  0.8460
   98OSM     O3 9749   2.754   2.408  10.693 -0.4978  0.3451 -0.2078
   98OSM    HO3 9750   2.788   2.473  10.757 -1.6801  0.6820  0.0989
   98OSM    C4S 9751   2.820   2.381  10.470 -0.3566 -0.8219  1.4091
   98OSM    H4S 9752   2.917   2.341  10.502  0.5402 -1.5651 -1.8864
   98OSM    C5S 9753   2.775   2.340  10.346 -0.3553  0.6436  0.2935
   98OSM    H5S 9754   2.677   2.377  10.311 -0.2328  1.0994  0.4169
   98OSM    C6S 9755   2.854   2.237  10.260 -0.3270  0.8086  0.3397
   98OSM    H6S 9756   2.797   2.144  10.240  1.5083 -0.2137 -0.3514
   98OSM    H6T 9757   2.952   2.212  10.305 -0.5233  1.4590  1.1583
   98OSM    C7S 9758   2.891   2.296  10.121  0.0743 -0.4682 -0.2766
   98OSM    H7S 9759   2.992   2.342  10.125 -0.1378  0.2032 -2.0271
   98OSM    H7T 9760   2.834   2.378  10.072 -0.1147 -0.0238  0.6671
   98OSM    C8S 9761   2.907   2.186  10.022  0.0499  0.0883 -0.0358
   98OSM    H8S 9762   2.806   2.146   9.997  0.9377 -1.8847 -0.6912
   98OSM    H8T 9763   2.962   2.100  10.064 -0.8757  0.0677  1.1919
   98OSM    C9S 9764   2.966   2.226   9.884 -0.4923  0.8227 -0.3331
   98OSM    H9S 9765   2.977   2.132   9.826  1.3400 -0.1091  1.4102
   98OSM    H9T 9766   3.070   2.260   9.902  0.5750 -0.2800 -3.6267
   98OSM   C10S 9767   2.895   2.334   9.815  0.2684  0.4473  0.1641
   98OSM   H10S 9768   2.911   2.428   9.871 -0.8727  2.0076 -2.0024
   98OSM   H10T 9769   2.787   2.311   9.805  0.3596 -0.3939  0.9559
   98OSM   C11S 9770   2.948   2.373   9.679 -0.7255  0.0772  0.3035
   98OSM   H11S 9771   2.922   2.288   9.612  1.5056 -1.1537  0.9187
   98OSM   H11T 9772   3.056   2.399   9.684 -0.5863 -0.5774  0.9820
   98OSM   C12S 9773   2.885   2.497   9.613  0.4688 -0.3112 -0.0651
   98OSM   H12S 9774   2.913   2.596   9.654  0.6617 -0.4646  0.1814
   98OSM   H12T 9775   2.776   2.478   9.620  0.6016 -2.1886 -1.8577
   98OSM   C13S 9776   2.922   2.513   9.466  0.5559 -0.4213 -0.2620
   98OSM   H13S 9777   2.882   2.432   9.401  0.5112  0.8260 -1.8779
   98OSM   H13T 9778   3.033   2.510   9.453  0.5024  2.1735 -2.0521
   98OSM   C14S 9779   2.882   2.658   9.410 -0.4873  0.6154  0.1986
   98OSM   H14S 9780   2.928   2.739   9.470  0.4606  0.1519  0.1194
   98OSM   H14T 9781   2.773   2.650   9.430 -0.3562 -0.1780  0.6502
   98OSM   C15S 9782   2.907   2.679   9.257 -0.1108 -0.6473  0.3601
   98OSM   H15S 9783   2.839   2.608   9.206 -0.8802  0.5048 -0.2682
   98OSM   H15T 9784   3.010   2.647   9.234 -0.0203 -0.3102  0.2873
   98OSM   C16S 9785   2.870   2.816   9.219 -0.0241  0.2452  0.5049
   98OSM   H16S 9786   2.773   2.841   9.267  1.1585  1.8082  2.2353
   98OSM   H16T 9787   2.864   2.824   9.109 -1.4164  5.0974  0.6901
   98OSM   C17S 9788   2.982   2.914   9.261  0.3125  0.3950  0.3892
   98OSM   H17S 9789   3.073   2.881   9.206 -0.6472 -1.6855 -0.0600
   98OSM   H17T 9790   3.002   2.921   9.370 -0.0806 -1.9785  0.6649
   98OSM   C18S 9791   2.951   3.054   9.205 -0.5009 -0.2547  0.2114
   98OSM   H18S 9792   2.878   3.106   9.271  1.1980 -0.4046  2.3207
   98OSM   H18T 9793   2.922   3.048   9.098 -0.5452  1.7645  0.0740
   98OSM   H18U 9794   3.044   3.115   9.202  0.1766 -1.2845 -0.4647
   98OSM    C1F 9795   2.980   2.764  10.442  0.5443 -0.2194  0.5091
   98OSM     OF 9796   3.062   2.773  10.528  0.2636  0.5610  0.1172
   98OSM    C2F 9797   2.976   2.849  10.322  0.0321 -0.1206  0.0300
   98OSM    H2F 9798   2.907   2.933  10.344 -0.1079  0.1520 -1.3462
   98OSM    H2G 9799   2.934   2.785  10.242  2.3021 -0.8232 -0.6644
   98OSM    C3F 9800   3.115   2.903  10.292  0.0364  0.1980 -0.0417
   98OSM    H3F 9801   3.185   2.820  10.271 -1.9936 -1.5942 -0.0208
   98OSM    H3G 9802   3.163   2.964  10.372 -0.6068  3.5849 -2.0452
   98OSM    C4F 9803   3.120   2.980  10.160  0.5637 -0.2696 -0.0349
   98OSM    H4F 9804   3.228   2.991  10.137  0.6670  1.0634  0.9521
   98OSM    H4G 9805   3.077   3.079  10.187  0.1677  0.2104 -2.2105
   98OSM    C5F 9806   3.052   2.910  10.040  0.5923 -0.0707 -0.2062
   98OSM    H5F 9807   2.943   2.888  10.043  0.7779 -1.0187 -0.0974
   98OSM    H5G 9808   3.097   2.808  10.038 -1.4947 -1.1315  1.9321
   98OSM    C6F 9809   3.081   2.983   9.907 -0.0193 -0.1741  1.2027
   98OSM    H6F 9810   3.189   3.007   9.911 -0.1902  1.1584 -0.6932
   98OSM    H6G 9811   3.025   3.080   9.911 -3.7059 -1.8523 -2.2716
   98OSM    C7F 9812   3.053   2.926   9.769  0.1712  0.0334 -0.0050
   98OSM    H7F 9813   2.947   2.892   9.765  0.5704 -1.1859 -0.8125
   98OSM    H7G 9814   3.112   2.831   9.769  0.1893  0.0403 -0.5306
   98OSM    C8F 9815   3.098   3.018   9.653  0.7393  0.4251 -0.3081
   98OSM    H8F 9816   3.103   2.966   9.555 -0.1056  2.6264 -1.5948
   98OSM    H8G 9817   3.195   3.063   9.684  0.5903  0.0242  0.7571
   98OSM    C9F 9818   2.984   3.122   9.645 -0.1297  0.3907 -0.0286
   98OSM    H9F 9819   2.879   3.088   9.655  0.0024  0.1155  0.4611
   98OSM   C10F 9820   3.015   3.253   9.625 -0.5645  0.1528 -0.8623
   98OSM   H10F 9821   2.939   3.332   9.634 -0.3475  0.3880 -1.0613
   98OSM   C11F 9822   3.162   3.295   9.621  0.1227 -0.2472  0.7155
   98OSM   H11F 9823   3.221   3.218   9.567  2.5224 -0.5503  3.4988
   98OSM   H11G 9824   3.207   3.302   9.723  2.0982  2.1041 -0.2122
   98OSM   C12F 9825   3.196   3.435   9.569 -0.1388 -0.3422  0.2784
   98OSM   H12F 9826   3.163   3.445   9.463  2.2953  1.3844 -0.4137
   98OSM   H12G 9827   3.307   3.431   9.569 -0.0972  0.5319  0.2321
   98OSM   C13F 9828   3.145   3.548   9.660 -0.3309  0.4611  0.1570
   98OSM   H13F 9829   3.036   3.529   9.664 -0.1848 -1.5869 -2.3475
   98OSM   H13G 9830   3.157   3.639   9.597  4.0322 -0.8585 -1.2743
   98OSM   C14F 9831   3.212   3.564   9.800 -0.1594  0.7744  0.9184
   98OSM   H14F 9832   3.322   3.577   9.791 -0.2130  3.8973  3.0158
   98OSM   H14G 9833   3.185   3.474   9.860 -0.6010 -0.7847 -1.4962
   98OSM   C15F 9834   3.168   3.697   9.866  0.3123 -0.0413  0.5721
   98OSM   H15F 9835   3.057   3.696   9.863  0.3294 -0.4344 -0.0322
   98OSM   H15G 9836   3.205   3.789   9.816  0.0578 -0.1672  0.1525
   98OSM   C16F 9837   3.196   3.706  10.021  0.4643  0.1956 -0.1875
   98OSM   H16F 9838   3.304   3.722  10.042  0.0948  0.8521  1.3404
   98OSM   H16G 9839   3.184   3.607  10.069  1.9037 -0.7076 -1.5811
   98OSM   C17F 9840   3.121   3.806  10.103 -0.2278  0.7002  0.2650
   98OSM   H17F 9841   3.013   3.791  10.085 -0.5467 -0.4778  2.7672
   98OSM   H17G 9842   3.139   3.905  10.056 -1.7389  0.0559 -1.8074
   98OSM   C18F 9843   3.152   3.804  10.253 -0.0815  0.3831 -0.3621
   98OSM   H18F 9844   3.255   3.846  10.260 -0.1419  0.6942 -1.2145
   98OSM   H18G 9845   3.129   3.707  10.301 -1.6413  1.7340  1.8125
   98OSM   H18H 9846   3.094   3.885  10.303 -0.3265 -1.2477  2.1921
   99OSM      N 9847   6.330   2.793  11.127  0.3991  0.2818  0.3829
   99OSM    C15 9848   6.227   2.859  11.034  0.1541  0.9948  0.2606
   99OSM   H15A 9849   6.127   2.819  11.047 -0.2067  1.5292 -0.8288
   99OSM   H15B 9850   6.264   2.846  10.933  1.4889  2.2383  0.5474
   99OSM   H15C 9851   6.225   2.965  11.051 -2.2071  1.3204 -1.6253
   99OSM    C14 9852   6.264   2.775  11.260 -0.3932  0.0597  0.6111
   99OSM   H14A 9853   6.180   2.708  11.266  0.6032 -1.3109 -0.2907
   99OSM   H14B 9854   6.248   2.873  11.303  0.0857  1.0316 -1.2981
   99OSM   H14C 9855   6.332   2.730  11.331  0.8047  2.4840  1.0995
   99OSM    C13 9856   6.373   2.661  11.070 -0.4140  0.3850 -0.6216
   99OSM   H13A 9857   6.284   2.605  11.046  0.4583 -0.8579 -1.0708
   99OSM   H13B 9858   6.423   2.609  11.151 -0.7226  1.1636  0.0780
   99OSM   H13C 9859   6.439   2.667  10.985 -1.4308 -1.1979 -1.5715
   99OSM    C12 9860   6.448   2.885  11.142  0.4403  0.2658 -0.8284
   99OSM   H12A 9861   6.493   2.883  11.043  0.4326 -3.7228 -0.9257
   99OSM   H12B 9862   6.520   2.827  11.197 -0.4424 -1.0755 -1.0402
   99OSM    C11 9863   6.415   3.029  11.179  0.1776  0.6197 -0.0689
   99OSM   H11A 9864   6.514   3.076  11.192 -0.3284  2.6147 -2.5273
   99OSM   H11B 9865   6.350   3.030  11.269  2.7628 -0.3587  1.9183
   99OSM      P 9866   6.341   3.244  11.053 -0.0836 -0.0940  0.1091
   99OSM    O13 9867   6.246   3.279  11.157 -0.0432  0.3363  0.3105
   99OSM    O14 9868   6.477   3.303  11.058 -1.2805 -0.2636 -0.7579
   99OSM    O11 9869   6.283   3.267  10.901 -0.2753  0.4684 -0.5913
   99OSM    O12 9870   6.356   3.090  11.066  0.8161 -0.6759 -0.1226
   99OSM    C1S 9871   6.317   3.162  10.810 -0.1452  0.0497 -0.2784
   99OSM    H1S 9872   6.267   3.070  10.844 -1.3475  1.1658  1.1262
   99OSM    H1T 9873   6.426   3.139  10.809  0.0882  1.0279 -2.0688
   99OSM     NF 9874   6.269   3.083  10.585  0.2395 -0.1034  0.5662
   99OSM    HNF 9875   6.349   3.066  10.529  0.5798 -0.6920  1.2111
   99OSM    C2S 9876   6.265   3.199  10.665  0.4795 -0.9035 -0.1375
   99OSM    H2S 9877   6.161   3.232  10.685  1.6611  4.9940 -1.7647
   99OSM    C3S 9878   6.333   3.323  10.605 -0.2182  0.3350  0.3969
   99OSM    H3S 9879   6.435   3.294  10.574 -0.0275  0.2282  1.1135
   99OSM     O3 9880   6.347   3.438  10.684 -0.2273 -0.0668  0.0007
   99OSM    HO3 9881   6.324   3.409  10.773 -1.5414 -0.9214 -0.5911
   99OSM    C4S 9882   6.263   3.373  10.488  0.5471  0.1238  0.5996
   99OSM    H4S 9883   6.154   3.381  10.500  0.2938  2.3891 -2.1364
   99OSM    C5S 9884   6.315   3.397  10.361 -0.1679 -0.5060  0.3681
   99OSM    H5S 9885   6.423   3.378  10.348  0.1866 -0.1653  2.4536
   99OSM    C6S 9886   6.249   3.444  10.243  0.2723  0.1217 -0.1706
   99OSM    H6S 9887   6.307   3.408  10.155 -3.0104  0.2615 -2.5488
   99OSM    H6T 9888   6.276   3.551  10.238  0.3863  0.0987 -0.0693
   99OSM    C7S 9889   6.094   3.415  10.221 -0.3613 -0.2428 -0.2414
   99OSM    H7S 9890   6.037   3.488  10.282  1.4899  1.0873  0.0003
   99OSM    H7T 9891   6.084   3.311  10.260  0.7769 -0.5044 -0.5911
   99OSM    C8S 9892   6.046   3.421  10.072  0.5523  1.0560 -0.1730
   99OSM    H8S 9893   6.120   3.366  10.011  1.4170  2.4795 -0.4408
   99OSM    H8T 9894   6.045   3.528  10.043 -0.0116  1.6909  1.9789
   99OSM    C9S 9895   5.910   3.361  10.036 -0.3519  0.0575  0.0215
   99OSM    H9S 9896   5.882   3.412   9.941  1.4053 -2.0379 -1.7620
   99OSM    H9T 9897   5.834   3.403  10.105 -1.2321 -1.3762 -0.0383
   99OSM   C10S 9898   5.916   3.207  10.010  0.4762 -0.4214 -0.3189
   99OSM   H10S 9899   5.807   3.185  10.015  0.5302 -0.8766 -0.9690
   99OSM   H10T 9900   5.976   3.163  10.093  0.5422 -1.2569 -0.7981
   99OSM   C11S 9901   5.990   3.167   9.882  0.2466 -0.1578  1.1458
   99OSM   H11S 9902   6.096   3.185   9.912  0.3486 -0.4370  0.9585
   99OSM   H11T 9903   5.970   3.235   9.797  1.4010  0.1491  1.1009
   99OSM   C12S 9904   5.977   3.021   9.843 -0.3566  0.1639 -0.2933
   99OSM   H12S 9905   5.979   2.946   9.926 -1.6863  0.6118  0.1689
   99OSM   H12T 9906   5.869   3.009   9.820 -0.2130 -0.6771 -0.5540
   99OSM   C13S 9907   6.062   2.971   9.726 -0.3498  0.0308 -0.5669
   99OSM   H13S 9908   6.168   2.970   9.758 -0.2109 -0.9383 -1.0189
   99OSM   H13T 9909   6.050   3.046   9.646 -0.1351  0.9485  0.2419
   99OSM   C14S 9910   6.011   2.839   9.667 -0.3930 -0.0296 -0.1254
   99OSM   H14S 9911   5.904   2.850   9.637 -0.2048  2.7207 -0.0357
   99OSM   H14T 9912   6.032   2.763   9.746  0.7679  2.8556  2.5417
   99OSM   C15S 9913   6.080   2.802   9.538  0.0727  0.5435  0.2483
   99OSM   H15S 9914   6.183   2.842   9.540  0.4291 -0.3417 -0.0773
   99OSM   H15T 9915   6.036   2.855   9.450 -1.3090 -1.0482 -0.0658
   99OSM   C16S 9916   6.112   2.651   9.505  0.1431 -0.3097  0.2718
   99OSM   H16S 9917   6.020   2.588   9.509  0.5887 -0.9047  1.8313
   99OSM   H16T 9918   6.177   2.605   9.582 -0.1458 -1.6507 -0.2564
   99OSM   C17S 9919   6.185   2.633   9.373  0.9139  0.0310 -0.0834
   99OSM   H17S 9920   6.291   2.657   9.396  1.1297  1.9797 -2.6207
   99OSM   H17T 9921   6.142   2.708   9.303 -0.8542  0.4684  1.3813
   99OSM   C18S 9922   6.169   2.492   9.320 -0.0387 -0.0556  0.0120
   99OSM   H18S 9923   6.183   2.420   9.403  1.5926 -1.0855 -1.0952
   99OSM   H18T 9924   6.252   2.495   9.246  0.2054  1.6681  0.2933
   99OSM   H18U 9925   6.071   2.486   9.269  0.1148 -0.1508 -0.2772
   99OSM    C1F 9926   6.183   2.982  10.597 -0.3864  0.1500  0.2326
   99OSM     OF 9927   6.088   2.996  10.674  0.1553 -0.0391  0.2419
   99OSM    C2F 9928   6.212   2.860  10.511  0.3995 -0.1175 -0.0217
   99OSM    H2F 9929   6.321   2.840  10.513 -0.3887 -5.9932  1.4791
   99OSM    H2G 9930   6.178   2.875  10.406 -0.3637 -0.4067  0.1740
   99OSM    C3F 9931   6.156   2.724  10.575  0.4716  0.0621  0.1672
   99OSM    H3F 9932   6.193   2.713  10.680 -0.0502  0.5232  0.4030
   99OSM    H3G 9933   6.046   2.735  10.585  0.5717  2.0413 -0.4249
   99OSM    C4F 9934   6.182   2.600  10.489  0.0294  0.2486 -0.0968
   99OSM    H4F 9935   6.134   2.512  10.538 -0.7114  0.5056 -0.3465
   99OSM    H4G 9936   6.287   2.564  10.486 -0.1394 -0.7025  2.4893
   99OSM    C5F 9937   6.124   2.603  10.342  0.6840 -0.3900  0.0505
   99OSM    H5F 9938   6.190   2.662  10.275  0.2572 -0.5253 -0.4914
   99OSM    H5G 9939   6.021   2.643  10.344  0.8848  0.8611 -4.4217
   99OSM    C6F 9940   6.111   2.461  10.278 -0.0251  0.0427 -0.1604
   99OSM    H6F 9941   6.031   2.399  10.323 -0.4207  0.1344 -0.7237
   99OSM    H6G 9942   6.210   2.416  10.301 -0.0080  1.3173  2.5755
   99OSM    C7F 9943   6.097   2.471  10.125  0.8172 -0.8794 -0.3621
   99OSM    H7F 9944   6.082   2.364  10.103 -0.7379 -1.1939  1.9437
   99OSM    H7G 9945   6.192   2.515  10.086 -1.1375  1.9868 -2.2736
   99OSM    C8F 9946   5.982   2.563  10.078 -0.2801 -0.0830 -0.2643
   99OSM    H8F 9947   5.991   2.572   9.967  0.0382  2.8815 -0.0596
   99OSM    H8G 9948   6.005   2.667  10.109 -0.9371 -0.9408  3.5971
   99OSM    C9F 9949   5.839   2.520  10.121 -0.0314  0.1582 -0.1080
   99OSM    H9F 9950   5.824   2.509  10.229 -2.0108  3.5950  0.0917
   99OSM   C10F 9951   5.732   2.508  10.033 -0.3315  0.1115 -0.4709
   99OSM   H10F 9952   5.630   2.497  10.072 -0.5539 -2.7705 -1.6782
   99OSM   C11F 9953   5.722   2.546   9.881  0.1806 -0.6966 -0.1470
   99OSM   H11F 9954   5.764   2.647   9.863  0.6742 -0.7046  0.8889
   99OSM   H11G 9955   5.611   2.548   9.868  0.2130 -0.3154 -0.3863
   99OSM   C12F 9956   5.781   2.445   9.780  0.1046 -1.3544 -0.2842
   99OSM   H12F 9957   5.746   2.341   9.801 -3.1801 -0.0593  1.2901
   99OSM   H12G 9958   5.889   2.448   9.807 -0.4772 -1.6601  2.3390
   99OSM   C13F 9959   5.746   2.491   9.646  0.3540  0.7562  0.4795
   99OSM   H13F 9960   5.789   2.593   9.634  1.2887  0.1344 -1.9374
   99OSM   H13G 9961   5.638   2.506   9.624  0.3848  0.5324  0.1752
   99OSM   C14F 9962   5.797   2.401   9.541 -0.0679 -0.1795  0.6095
   99OSM   H14F 9963   5.745   2.306   9.565 -0.4377 -0.7424 -2.1497
   99OSM   H14G 9964   5.906   2.376   9.542 -0.3322 -1.9205 -2.4196
   99OSM   C15F 9965   5.763   2.451   9.400 -0.2475 -0.0384 -0.5229
   99OSM   H15F 9966   5.807   2.551   9.383  0.4015 -0.4505 -1.3411
   99OSM   H15G 9967   5.656   2.480   9.397  0.2142  1.8281 -0.0229
   99OSM   C16F 9968   5.790   2.348   9.295  0.2064 -0.1076  0.6370
   99OSM   H16F 9969   5.723   2.260   9.310 -1.0758  0.4401 -1.4376
   99OSM   H16G 9970   5.899   2.328   9.307  0.5652 -0.3906 -2.3067
   99OSM   C17F 9971   5.755   2.391   9.154 -0.3458  0.5673 -0.2105
   99OSM   H17F 9972   5.813   2.484   9.139  1.2749 -0.3682  0.0873
   99OSM   H17G 9973   5.646   2.409   9.144 -0.8077 -0.0434  2.7384
   99OSM   C18F 9974   5.809   2.292   9.050  0.1577 -0.4509  0.3074
   99OSM   H18F 9975   5.740   2.207   9.031  0.0818 -0.1734 -0.7255
   99OSM   H18G 9976   5.904   2.252   9.089  1.9467  1.1927 -2.0575
   99OSM   H18H 9977   5.821   2.345   8.952 -0.7960 -1.0787 -0.1672
  100OSM      N 9978   1.937   3.717  10.704  0.1664  0.4193  0.1247
  100OSM    C15 9979   1.841   3.623  10.647  0.0740 -1.3909 -0.4218
  100OSM   H15A 9980   1.774   3.668  10.575 -1.3845 -0.5808  1.3524
  100OSM   H15B 9981   1.781   3.579  10.725 -0.7621 -2.9758 -1.8918
  100OSM   H15C 9982   1.892   3.544  10.595  0.0913 -0.4640 -1.8898
  100OSM    C14 9983   1.868   3.814  10.795 -1.4533  0.1464 -0.1254
  100OSM   H14A 9984   1.947   3.852  10.859 -0.1709 -1.4754 -0.6825
  100OSM   H14B 9985   1.805   3.759  10.863  0.9805 -0.6004  1.6755
  100OSM   H14C 9986   1.809   3.885  10.739 -0.9680  1.8173  1.4003
  100OSM    C13 9987   2.037   3.635  10.785  0.5236 -0.1549 -0.2281
  100OSM   H13A 9988   1.984   3.585  10.866 -2.2925  1.7810 -0.7174
  100OSM   H13B 9989   2.110   3.707  10.817  1.5479 -0.5281 -1.6606
  100OSM   H13C 9990   2.090   3.567  10.721  1.0875  0.6326 -0.6151
  100OSM    C12 9991   2.002   3.787  10.582 -0.0975  0.8194  0.1546
  100OSM   H12A 9992   1.922   3.817  10.516 -0.5173  0.3918  0.4647
  100OSM   H12B 9993   2.060   3.707  10.539  0.7908  2.4471 -1.8728
  100OSM    C11 9994   2.101   3.901  10.615  0.0628 -0.4770  0.2797
  100OSM   H11A 9995   2.035   3.986  10.642  0.2284 -0.6636  1.3143
  100OSM   H11B 9996   2.151   3.928  10.520  1.0471 -1.7349  0.4098
  100OSM      P 9997   2.344   3.849  10.702 -0.3592  0.3826  0.2565
  100OSM    O13 9998   2.416   3.966  10.644 -0.3560 -0.2672  0.4228
  100OSM    O14 9999   2.382   3.800  10.835  0.0684  0.0302 -0.2458
  100OSM    O1110000   2.352   3.723  10.613 -0.6190  0.2415 -0.2729
  100OSM    O1210001   2.194   3.882  10.714  0.4850 -0.5236  0.4274
  100OSM    C1S10002   2.374   3.746  10.475  0.2551 -0.1625 -0.0523
  100OSM    H1S10003   2.473   3.792  10.457 -1.3961  2.7627 -2.6802
  100OSM    H1T10004   2.290   3.795  10.422 -2.1221 -2.3527  1.4601
  100OSM     NF10005   2.384   3.626  10.257 -0.0203  0.4046  0.7637
  100OSM    HNF10006   2.305   3.613  10.198  0.2762  1.8441 -0.0239
  100OSM    C2S10007   2.372   3.613  10.402 -0.3512  0.3658  0.2674
  100OSM    H2S10008   2.460   3.554  10.436 -0.8192 -0.2665  0.3941
  100OSM    C3S10009   2.242   3.534  10.439  0.1535  0.3224  0.2973
  100OSM    H3S10010   2.155   3.602  10.422  0.0943  0.3319  0.6427
  100OSM     O310011   2.230   3.507  10.579 -0.3070  0.3551 -0.2496
  100OSM    HO310012   2.283   3.578  10.615  2.1985 -1.3598 -0.3393
  100OSM    C4S10013   2.214   3.404  10.361  0.0732  0.4684  0.2853
  100OSM    H4S10014   2.143   3.415  10.278  1.0696  1.0277 -0.5194
  100OSM    C5S10015   2.274   3.286  10.387 -0.5754  0.8071  0.1218
  100OSM    H5S10016   2.357   3.276  10.458  0.1071 -1.1043 -0.8554
  100OSM    C6S10017   2.252   3.151  10.323 -0.0644  0.1014 -0.4433
  100OSM    H6S10018   2.186   3.089  10.387 -1.0083  0.4600 -1.0647
  100OSM    H6T10019   2.352   3.104  10.305 -0.7504 -1.3075 -0.7057
  100OSM    C7S10020   2.185   3.162  10.192 -0.1925 -1.1488 -0.1986
  100OSM    H7S10021   2.259   3.224  10.137  0.8096 -3.4494 -1.6096
  100OSM    H7T10022   2.090   3.220  10.193 -0.0761 -0.9539 -0.2876
  100OSM    C8S10023   2.168   3.029  10.117  0.0708  0.0727 -0.5617
  100OSM    H8S10024   2.167   2.945  10.189 -0.3156 -0.7886 -1.5469
  100OSM    H8T10025   2.261   3.019  10.057  0.8910 -0.2704  0.7310
  100OSM    C9S10026   2.045   3.025  10.020  0.5657 -0.0625  0.3219
  100OSM    H9S10027   2.051   3.097   9.936 -1.6211  0.8872  0.9211
  100OSM    H9T10028   1.951   3.058  10.068  0.9583  0.5199  0.7023
  100OSM   C10S10029   2.020   2.885   9.963 -0.3453 -0.2392  0.1930
  100OSM   H10S10030   2.002   2.811  10.044 -0.4221  0.6465  1.0064
  100OSM   H10T10031   2.115   2.844   9.923  0.6944  0.8993  1.3883
  100OSM   C11S10032   1.902   2.885   9.866  0.5156 -0.1481  0.1548
  100OSM   H11S10033   1.934   2.954   9.785 -1.4343  1.8874  1.0277
  100OSM   H11T10034   1.812   2.917   9.922 -0.7168 -2.3953 -0.4240
  100OSM   C12S10035   1.881   2.751   9.806  0.4180  0.3370 -0.0775
  100OSM   H12S10036   1.836   2.695   9.891  0.7964  1.5096  0.9169
  100OSM   H12T10037   1.978   2.703   9.784  0.0476 -0.7097  0.4999
  100OSM   C13S10038   1.788   2.749   9.684  0.3672  0.7100 -0.5566
  100OSM   H13S10039   1.692   2.802   9.705 -0.1496 -0.8278  1.2528
  100OSM   H13T10040   1.756   2.643   9.679  0.8664  0.3780  1.8959
  100OSM   C14S10041   1.857   2.788   9.557 -0.2467 -0.0633  0.3977
  100OSM   H14S10042   1.935   2.714   9.532 -1.0860 -0.7062 -0.3853
  100OSM   H14T10043   1.904   2.889   9.563  0.7349 -0.5180  0.5328
  100OSM   C15S10044   1.754   2.785   9.442 -0.8838  0.0428  0.4376
  100OSM   H15S10045   1.662   2.832   9.482 -1.8984 -0.0227 -1.6944
  100OSM   H15T10046   1.719   2.690   9.398  1.0632  0.4343 -2.2136
  100OSM   C16S10047   1.785   2.864   9.315  0.4560  0.1569  0.4418
  100OSM   H16S10048   1.869   2.824   9.255  0.0053  0.9384 -0.7437
  100OSM   H16T10049   1.819   2.964   9.348  2.6239 -0.8407  1.4561
  100OSM   C17S10050   1.675   2.878   9.210 -0.1419 -0.2772 -0.7369
  100OSM   H17S10051   1.594   2.940   9.252 -0.4010 -0.0741 -1.5115
  100OSM   H17T10052   1.641   2.774   9.189  1.2296 -0.9436  0.2108
  100OSM   C18S10053   1.716   2.956   9.084 -0.0298 -0.0042 -0.0743
  100OSM   H18S10054   1.784   2.901   9.016 -0.8904  0.3336 -1.2612
  100OSM   H18T10055   1.753   3.057   9.113  0.8047 -0.3822  0.1879
  100OSM   H18U10056   1.619   2.966   9.030 -1.0365 -1.4812  1.3895
  100OSM    C1F10057   2.493   3.680  10.197 -1.4793 -0.0331  0.1431
  100OSM     OF10058   2.587   3.710  10.272 -0.2620  0.4567  0.2801
  100OSM    C2F10059   2.498   3.705  10.045  0.4116 -0.3977 -0.1950
  100OSM    H2F10060   2.402   3.748  10.009  0.0751  0.4069  1.5312
  100OSM    H2G10061   2.507   3.609   9.990 -2.7301 -0.6734 -0.4385
  100OSM    C3F10062   2.613   3.803   9.992  0.4319  0.4857  0.2517
  100OSM    H3F10063   2.714   3.766  10.021  0.7849  1.4689  0.3236
  100OSM    H3G10064   2.602   3.905  10.035  1.0796  0.8560 -0.4255
  100OSM    C4F10065   2.621   3.822   9.834 -0.7367  0.4577  0.0999
  100OSM    H4F10066   2.536   3.878   9.789 -2.2764 -1.6131  0.2146
  100OSM    H4G10067   2.620   3.722   9.784 -3.7105  0.6764 -0.4691
  100OSM    C5F10068   2.762   3.877   9.793  1.0474 -0.0332 -1.1330
  100OSM    H5F10069   2.838   3.822   9.853 -0.2977 -0.7953 -0.0475
  100OSM    H5G10070   2.776   3.987   9.802  2.7751 -0.3192  0.2095
  100OSM    C6F10071   2.802   3.852   9.649  0.3462 -0.3838  0.0132
  100OSM    H6F10072   2.730   3.917   9.594  0.0994 -0.1522  0.5992
  100OSM    H6G10073   2.791   3.747   9.615  2.3816 -0.2388 -1.2473
  100OSM    C7F10074   2.946   3.892   9.620 -0.0874  0.7783  0.5903
  100OSM    H7F10075   3.017   3.833   9.682 -2.7000 -2.6386  0.6624
  100OSM    H7G10076   2.954   4.002   9.627 -0.1230  1.0017 -1.9996
  100OSM    C8F10077   2.981   3.861   9.466 -0.1023 -0.1171 -0.0054
  100OSM    H8F10078   2.924   3.924   9.394 -0.6861 -0.9727 -0.3225
  100OSM    H8G10079   2.941   3.758   9.452  2.5380 -1.1425 -0.5189
  100OSM    C9F10080   3.128   3.872   9.435  0.5969 -0.1582  0.1130
  100OSM    H9F10081   3.180   3.949   9.494  0.1697  0.0388  0.2353
  100OSM   C10F10082   3.185   3.796   9.336  0.3363  0.7722  0.0047
  100OSM   H10F10083   3.293   3.799   9.317  0.0935 -1.7665 -2.4575
  100OSM   C11F10084   3.118   3.688   9.248  0.8592  0.1360 -0.5186
  100OSM   H11F10085   3.099   3.742   9.152 -1.3002 -0.9628 -0.7861
  100OSM   H11G10086   3.021   3.649   9.287  2.1905 -1.7102  1.0750
  100OSM   C12F10087   3.222   3.581   9.203  0.4119 -0.0421 -0.5676
  100OSM   H12F10088   3.244   3.530   9.299 -1.4827  1.4256  0.6995
  100OSM   H12G10089   3.317   3.627   9.170 -0.0932  1.1810 -0.3825
  100OSM   C13F10090   3.170   3.487   9.091  0.5282 -0.4994 -1.0493
  100OSM   H13F10091   3.143   3.555   9.007  1.9354  1.3035 -0.1123
  100OSM   H13G10092   3.071   3.452   9.128  1.1292  1.4656  2.9270
  100OSM   C14F10093   3.264   3.372   9.052 -0.8793  0.0636  0.1183
  100OSM   H14F10094   3.276   3.305   9.140 -0.6005 -0.7059 -0.4899
  100OSM   H14G10095   3.363   3.420   9.032 -0.6480 -1.0510 -1.6107
  100OSM   C15F10096   3.233   3.301   8.919 -0.0542  0.0826 -0.2855
  100OSM   H15F10097   3.211   3.382   8.846 -2.0905  0.9072  1.1394
  100OSM   H15G10098   3.137   3.245   8.921  0.1699 -0.3030  2.0387
  100OSM   C16F10099   3.347   3.219   8.866  0.4033  0.4485 -0.3334
  100OSM   H16F10100   3.375   3.157   8.954  0.1660  3.3899  1.9574
  100OSM   H16G10101   3.434   3.287   8.863  1.6302 -1.0193  0.2465
  100OSM   C17F10102   3.328   3.144   8.736 -0.2677  0.3397  0.1517
  100OSM   H17F10103   3.219   3.125   8.732  0.0570 -1.8185  0.4767
  100OSM   H17G10104   3.374   3.043   8.736 -2.0988 -0.5204  1.0331
  100OSM   C18F10105   3.373   3.230   8.615  0.0205  0.1005  0.3194
  100OSM   H18F10106   3.308   3.319   8.602  0.5033  0.7073  1.8607
  100OSM   H18G10107   3.377   3.172   8.520  3.1786 -0.4408  0.6640
  100OSM   H18H10108   3.476   3.271   8.621  0.4697 -0.3757 -2.4902
  101OSM      N10109   3.695   4.508  11.106 -0.0348 -0.3811 -0.7483
  101OSM    C1510110   3.693   4.501  11.252 -0.0940  0.2432 -0.4326
  101OSM   H15A10111   3.608   4.446  11.290 -1.2730  2.7211  0.6894
  101OSM   H15B10112   3.676   4.599  11.294 -2.1869 -0.0722 -0.4643
  101OSM   H15C10113   3.779   4.451  11.295 -0.5560 -1.2999 -1.2038
  101OSM    C1410114   3.694   4.373  11.054 -0.6633 -0.5676  0.0617
  101OSM   H14A10115   3.791   4.327  11.067 -0.8856 -1.4686 -1.2478
  101OSM   H14B10116   3.663   4.371  10.950  3.0034 -0.2826 -1.1938
  101OSM   H14C10117   3.631   4.307  11.111  0.4548  0.2149  2.3290
  101OSM    C1310118   3.552   4.561  11.067  0.0766  0.0051  0.8224
  101OSM   H13A10119   3.554   4.561  10.959  0.1582  1.4951  0.8056
  101OSM   H13B10120   3.550   4.665  11.097 -2.9423  0.2574  0.1093
  101OSM   H13C10121   3.480   4.494  11.112 -0.1409 -0.2340  0.1204
  101OSM    C1210122   3.812   4.590  11.062 -0.6669  0.0394 -0.6525
  101OSM   H12A10123   3.836   4.584  10.956  0.9085 -0.4191 -0.2885
  101OSM   H12B10124   3.901   4.539  11.094 -0.2933  0.9833 -0.1544
  101OSM    C1110125   3.820   4.735  11.105  0.4670 -0.2118  0.0942
  101OSM   H11A10126   3.903   4.785  11.050 -0.2835 -0.4603 -1.3162
  101OSM   H11B10127   3.834   4.739  11.215 -2.5612 -0.1453  0.5515
  101OSM      P10128   3.664   4.902  10.968  0.0441 -0.1891  0.1024
  101OSM    O1310129   3.526   4.880  10.924 -0.2385 -0.3152  0.1611
  101OSM    O1410130   3.686   5.039  11.017 -0.2354  0.0926 -0.1109
  101OSM    O1110131   3.772   4.874  10.855 -0.4970 -0.1316 -0.1575
  101OSM    O1210132   3.698   4.798  11.081 -0.1183  0.0023  0.1631
  101OSM    C1S10133   3.760   4.774  10.757 -0.1325 -0.1128  1.0593
  101OSM    H1S10134   3.685   4.694  10.778 -0.1067 -0.4384 -0.0349
  101OSM    H1T10135   3.853   4.719  10.734 -1.1300 -1.9438  1.1523
  101OSM     NF10136   3.681   4.720  10.535 -0.5873  0.2996 -0.3480
  101OSM    HNF10137   3.753   4.693  10.471  1.2306 -2.5012  2.5363
  101OSM    C2S10138   3.702   4.829  10.624 -0.0016 -0.9535 -0.4273
  101OSM    H2S10139   3.603   4.879  10.636  0.0772 -0.8996  0.0240
  101OSM    C3S10140   3.802   4.942  10.572 -0.8400 -0.4086  0.2070
  101OSM    H3S10141   3.900   4.893  10.555 -1.2115 -1.2487  0.4517
  101OSM     O310142   3.829   5.052  10.658 -0.9498 -0.0660  0.5298
  101OSM    HO310143   3.788   5.014  10.736 -1.8879 -1.8516 -0.7537
  101OSM    C4S10144   3.754   4.998  10.442  0.1464  0.1128  0.4325
  101OSM    H4S10145   3.668   5.065  10.457 -0.4025 -0.5173  0.1653
  101OSM    C5S10146   3.805   4.981  10.322 -0.3731 -0.8770  0.4395
  101OSM    H5S10147   3.896   4.920  10.307  0.3339  0.0679  0.7974
  101OSM    C6S10148   3.765   5.044  10.190 -0.3273  0.2564 -0.0542
  101OSM    H6S10149   3.848   5.095  10.137 -1.2676 -0.2036 -2.0883
  101OSM    H6T10150   3.687   5.123  10.197 -2.1267 -1.2918 -1.5026
  101OSM    C7S10151   3.706   4.931  10.102 -0.4332 -0.8306  0.2291
  101OSM    H7S10152   3.612   4.900  10.152 -1.3720  0.2350 -0.8306
  101OSM    H7T10153   3.766   4.840  10.080  2.6527  1.3269 -0.8819
  101OSM    C8S10154   3.670   4.976   9.962  0.5136 -1.0118  1.0715
  101OSM    H8S10155   3.757   5.021   9.910 -2.0793  1.1927 -1.7365
  101OSM    H8T10156   3.598   5.061   9.968  0.4913 -0.9251 -0.2206
  101OSM    C9S10157   3.602   4.863   9.882  0.0550 -0.0604 -0.2477
  101OSM    H9S10158   3.498   4.844   9.917 -0.3312 -0.0397 -1.3738
  101OSM    H9T10159   3.661   4.771   9.904  0.7971  0.6554  0.8775
  101OSM   C10S10160   3.592   4.900   9.734 -0.2512 -0.4738 -0.2715
  101OSM   H10S10161   3.674   4.966   9.700  0.7352 -0.0262  2.7016
  101OSM   H10T10162   3.502   4.965   9.725 -0.1456 -0.3783 -0.6699
  101OSM   C11S10163   3.577   4.768   9.648 -0.6308  0.3944 -0.6015
  101OSM   H11S10164   3.480   4.724   9.679 -0.7542  0.9876 -0.1225
  101OSM   H11T10165   3.665   4.710   9.682 -0.1246  0.8878 -1.0607
  101OSM   C12S10166   3.570   4.805   9.501 -0.1086  0.8089 -0.7706
  101OSM   H12S10167   3.661   4.861   9.472  0.7810 -0.6559 -0.9023
  101OSM   H12T10168   3.480   4.868   9.482  0.3599  1.9554  0.5682
  101OSM   C13S10169   3.552   4.681   9.411  0.2414 -0.0703  1.0454
  101OSM   H13S10170   3.503   4.713   9.317  1.2832  0.7297  0.7502
  101OSM   H13T10171   3.497   4.598   9.460  0.2689 -1.0020 -0.4422
  101OSM   C14S10172   3.683   4.615   9.370  0.1499  0.7715  0.5815
  101OSM   H14S10173   3.758   4.587   9.447  0.2967 -1.3502 -0.2646
  101OSM   H14T10174   3.743   4.693   9.318  3.1463 -0.6049  1.7337
  101OSM   C15S10175   3.670   4.486   9.299 -0.1304  0.3331 -0.1945
  101OSM   H15S10176   3.600   4.506   9.215  0.3933 -0.6170 -0.8765
  101OSM   H15T10177   3.624   4.412   9.368  0.6127 -2.5411 -2.5715
  101OSM   C16S10178   3.801   4.418   9.253 -0.2777  0.3421 -0.0661
  101OSM   H16S10179   3.862   4.399   9.344  0.2323 -1.0841 -0.6741
  101OSM   H16T10180   3.856   4.497   9.197  0.7380 -0.1245  0.2437
  101OSM   C17S10181   3.783   4.290   9.169 -0.6132 -0.0990  0.0481
  101OSM   H17S10182   3.747   4.205   9.230  2.9249 -1.6249  0.2671
  101OSM   H17T10183   3.884   4.253   9.140 -0.7062  0.1674 -0.6412
  101OSM   C18S10184   3.702   4.312   9.044 -0.0767 -0.0732  0.0464
  101OSM   H18S10185   3.722   4.240   8.962  0.9139  1.3269 -0.9974
  101OSM   H18T10186   3.720   4.412   8.999 -0.1110  0.4925  1.2333
  101OSM   H18U10187   3.594   4.299   9.066  0.2491  1.5966  3.1733
  101OSM    C1F10188   3.586   4.627  10.545  0.6935 -0.1719 -0.5088
  101OSM     OF10189   3.487   4.642  10.619 -0.1195 -0.1397 -0.2186
  101OSM    C2F10190   3.605   4.506  10.458  0.1438 -0.2058  0.1281
  101OSM    H2F10191   3.549   4.424  10.507 -1.7629  0.8856 -0.1189
  101OSM    H2G10192   3.713   4.483  10.457 -0.1430 -1.6234  0.0410
  101OSM    C3F10193   3.566   4.540  10.314 -0.5613  0.1150  0.4497
  101OSM    H3F10194   3.579   4.444  10.259 -2.8891 -0.9954  1.6861
  101OSM    H3G10195   3.635   4.615  10.268 -0.7243  2.1187  3.2367
  101OSM    C4F10196   3.423   4.577  10.282  0.2445 -0.1782  0.2505
  101OSM    H4F10197   3.418   4.687  10.299 -0.6995 -0.1193 -0.3636
  101OSM    H4G10198   3.355   4.525  10.353  1.4772  0.1023  1.7043
  101OSM    C5F10199   3.397   4.563  10.136 -0.3662  0.0200  0.1356
  101OSM    H5F10200   3.387   4.457  10.104 -0.8925  0.0778  0.0901
  101OSM    H5G10201   3.480   4.616  10.086  0.2646  0.6998  1.8576
  101OSM    C6F10202   3.260   4.630  10.091 -0.2432  0.8650 -0.1924
  101OSM    H6F10203   3.183   4.574  10.149 -0.4000 -0.8121 -1.9106
  101OSM    H6G10204   3.267   4.736  10.122  2.3943  0.8135 -0.4188
  101OSM    C7F10205   3.215   4.604   9.944  0.6161  0.2570 -1.0861
  101OSM    H7F10206   3.230   4.500   9.908 -1.0367  0.4806 -2.5690
  101OSM    H7G10207   3.278   4.667   9.879  0.4920  2.6782  0.9961
  101OSM    C8F10208   3.064   4.630   9.917  0.0061  0.4920  0.0742
  101OSM    H8F10209   2.999   4.562   9.975 -1.5419  0.7678 -1.2359
  101OSM    H8G10210   3.041   4.593   9.814 -0.1691 -1.8918  0.9147
  101OSM    C9F10211   3.025   4.777   9.923  0.0167  0.0698 -0.6286
  101OSM    H9F10212   3.066   4.829  10.011  1.4338 -0.0246 -1.1980
  101OSM   C10F10213   2.961   4.849   9.826  0.0883 -0.3534  0.1506
  101OSM   H10F10214   2.923   4.951   9.844  1.3227  0.4614 -1.6065
  101OSM   C11F10215   2.910   4.798   9.693 -0.2071 -0.6420  0.6321
  101OSM   H11F10216   2.813   4.845   9.666 -1.0378 -1.8097  1.4610
  101OSM   H11G10217   2.895   4.688   9.697 -0.2246 -0.6294  0.9466
  101OSM   C12F10218   3.018   4.817   9.585  0.3777 -0.3980  0.2425
  101OSM   H12F10219   3.100   4.748   9.616  1.9473  1.3809  0.2093
  101OSM   H12G10220   3.052   4.923   9.579  0.1076 -0.3577 -0.7673
  101OSM   C13F10221   2.970   4.771   9.446 -0.6195 -0.0515 -0.1629
  101OSM   H13F10222   2.893   4.843   9.408 -1.5618 -1.6180 -1.3778
  101OSM   H13G10223   2.920   4.672   9.440 -1.6688  0.4603 -0.1131
  101OSM   C14F10224   3.085   4.764   9.353 -0.6277  0.3273  0.4134
  101OSM   H14F10225   3.041   4.739   9.254 -1.5462 -2.4001  1.4153
  101OSM   H14G10226   3.157   4.688   9.388  2.3914  3.7846  2.4062
  101OSM   C15F10227   3.170   4.890   9.332  0.2778 -0.5395 -0.2456
  101OSM   H15F10228   3.258   4.868   9.268  0.9561  0.0390  0.4657
  101OSM   H15G10229   3.212   4.908   9.433 -0.9174 -0.4741  0.2492
  101OSM   C16F10230   3.111   5.016   9.281 -0.5173 -0.2849 -0.1453
  101OSM   H16F10231   3.178   5.104   9.287 -1.9364  0.7422  1.1462
  101OSM   H16G10232   3.026   5.039   9.349  0.3972  1.3379  0.5102
  101OSM   C17F10233   3.056   5.007   9.137  0.5565  1.0280  0.7025
  101OSM   H17F10234   2.991   4.918   9.130 -0.7175  1.8810  1.4165
  101OSM   H17G10235   3.136   5.016   9.060 -0.0025  1.3215  0.1492
  101OSM   C18F10236   2.963   5.127   9.107  0.6755 -0.3787  0.1234
  101OSM   H18F10237   3.022   5.220   9.123  0.3996 -0.5665  2.7881
  101OSM   H18G10238   2.870   5.121   9.168  0.0559 -0.1307 -0.7783
  101OSM   H18H10239   2.931   5.132   9.001 -0.4583  1.1729  0.5024
  102OSM      N10240   0.333   4.838  10.655 -0.9144 -0.4655  0.0393
  102OSM    C1510241   0.396   4.823  10.520  0.6610  0.1492  0.1498
  102OSM   H15A10242   0.361   4.733  10.471  2.1546 -1.6932  2.2232
  102OSM   H15B10243   0.503   4.810  10.526  0.6157 -1.3948 -1.4075
  102OSM   H15C10244   0.381   4.911  10.460  1.3775  1.6848  2.1158
  102OSM    C1410245   0.365   4.718  10.740  0.5667 -0.3526 -0.0592
  102OSM   H14A10246   0.471   4.715  10.760  0.7006 -1.3855 -0.8487
  102OSM   H14B10247   0.335   4.625  10.693  1.6425  0.9768 -3.6930
  102OSM   H14C10248   0.320   4.730  10.837 -0.8638 -2.8448 -0.3152
  102OSM    C1310249   0.384   4.967  10.712 -0.0350 -0.7184  0.4492
  102OSM   H13A10250   0.490   4.970  10.693 -0.3136 -3.2354 -2.1551
  102OSM   H13B10251   0.362   4.967  10.818 -0.8131 -0.3654  0.2981
  102OSM   H13C10252   0.336   5.060  10.683 -1.5311 -1.1755  1.3371
  102OSM    C1210253   0.184   4.828  10.631  0.2740 -0.3144  0.6100
  102OSM   H12A10254   0.156   4.730  10.595 -1.0411 -0.1437  1.1279
  102OSM   H12B10255   0.151   4.887  10.546  0.2662  0.2143  0.9793
  102OSM    C1110256   0.077   4.867  10.751  0.5069  0.1273 -0.8770
  102OSM   H11A10257   0.097   4.801  10.838  0.4310  0.2582 -0.7585
  102OSM   H11B10258  -0.030   4.851  10.726  0.3535  2.2641 -1.7983
  102OSM      P10259   0.064   5.130  10.725 -0.2683 -0.1196  0.4415
  102OSM    O1310260  -0.022   5.214  10.809 -0.2738 -0.1583 -0.2729
  102OSM    O1410261   0.189   5.198  10.684  0.4547  0.1882 -0.4228
  102OSM    O1110262  -0.014   5.091  10.589 -0.2725 -0.3017 -0.7473
  102OSM    O1210263   0.092   5.000  10.804  0.0053  0.5038 -0.4936
  102OSM    C1S10264  -0.032   5.182  10.479 -0.4115  0.3011 -0.1050
  102OSM    H1S10265   0.053   5.254  10.476 -0.2704  0.1642  0.5385
  102OSM    H1T10266  -0.124   5.242  10.495 -1.8055 -1.9696  0.9476
  102OSM     NF10267  -0.046   5.200  10.233  0.0347 -0.0014 -0.1120
  102OSM    HNF10268  -0.127   5.210  10.177  0.1234  0.2092 -0.2025
  102OSM    C2S10269  -0.055   5.105  10.344  0.2934 -0.2953 -0.3711
  102OSM    H2S10270   0.030   5.033  10.337 -0.0086 -0.5612 -1.6038
  102OSM    C3S10271  -0.193   5.034  10.359  0.3652 -0.8696  0.2540
  102OSM    H3S10272  -0.266   5.117  10.372  0.1394 -0.9235 -0.6532
  102OSM     O310273  -0.196   4.949  10.475 -0.0153 -0.3493  0.1457
  102OSM    HO310274  -0.111   4.970  10.514  0.4700 -0.6988 -0.7079
  102OSM    C4S10275  -0.239   4.956  10.238 -0.9845 -1.2569  0.2743
  102OSM    H4S10276  -0.288   5.020  10.164 -0.1586 -1.6234 -0.6058
  102OSM    C5S10277  -0.228   4.821  10.207 -0.5193 -0.8460  0.8887
  102OSM    H5S10278  -0.176   4.756  10.278  0.1376  0.4267  1.6138
  102OSM    C6S10279  -0.273   4.756  10.079 -0.2680  0.0140  0.4923
  102OSM    H6S10280  -0.323   4.664  10.114 -0.4116  0.0906  0.4958
  102OSM    H6T10281  -0.181   4.737  10.019  1.1238  1.2298  2.1400
  102OSM    C7S10282  -0.364   4.844   9.988  0.3375  0.0493  0.1420
  102OSM    H7S10283  -0.348   4.954   9.981 -0.8945  0.2641  0.5211
  102OSM    H7T10284  -0.463   4.847  10.036 -0.2424 -2.1560 -0.7704
  102OSM    C8S10285  -0.379   4.795   9.838  0.5174  0.6227 -1.0309
  102OSM    H8S10286  -0.417   4.691   9.838 -3.9291  2.0253  1.1830
  102OSM    H8T10287  -0.273   4.801   9.805  0.7168  1.3152 -0.3173
  102OSM    C9S10288  -0.470   4.883   9.748 -0.7231 -0.0140 -0.0303
  102OSM    H9S10289  -0.426   4.985   9.760 -1.6446  0.4881 -0.7519
  102OSM    H9T10290  -0.573   4.884   9.790 -0.9772 -1.9690 -0.5504
  102OSM   C10S10291  -0.463   4.842   9.600 -0.4952  1.1779 -0.4873
  102OSM   H10S10292  -0.488   4.734   9.600 -1.0760  1.3145 -0.0877
  102OSM   H10T10293  -0.358   4.866   9.569  1.0878 -0.1532  3.2600
  102OSM   C11S10294  -0.548   4.935   9.506 -0.7159 -0.6493 -0.0195
  102OSM   H11S10295  -0.511   5.040   9.502 -2.6443  0.0477 -0.9970
  102OSM   H11T10296  -0.651   4.932   9.549 -0.4267 -1.4333  0.6415
  102OSM   C12S10297  -0.554   4.887   9.365 -0.4231 -0.2911  0.1493
  102OSM   H12S10298  -0.628   4.806   9.347 -0.9092  0.5396 -1.9984
  102OSM   H12T10299  -0.454   4.850   9.333 -1.3169 -1.9035 -0.9161
  102OSM   C13S10300  -0.607   4.994   9.265 -0.2658 -0.1725  0.1553
  102OSM   H13S10301  -0.539   5.081   9.252  0.1327 -0.8416 -2.7439
  102OSM   H13T10302  -0.704   5.026   9.308 -0.8752  1.2230 -2.1342
  102OSM   C14S10303  -0.643   4.933   9.133  0.1463 -0.6241 -0.1418
  102OSM   H14S10304  -0.724   4.858   9.146  1.3534 -2.2861 -1.8481
  102OSM   H14T10305  -0.551   4.881   9.100  0.1046 -0.3270 -0.7294
  102OSM   C15S10306  -0.693   5.031   9.025 -0.2634  0.3654 -0.4076
  102OSM   H15S10307  -0.628   5.122   9.023 -0.2225  0.3236 -1.5716
  102OSM   H15T10308  -0.799   5.059   9.043 -0.5657 -0.7954 -0.3666
  102OSM   C16S10309  -0.703   4.983   8.883 -0.0196  0.1824  0.1540
  102OSM   H16S10310  -0.788   4.915   8.860 -1.8753  2.8023 -1.3274
  102OSM   H16T10311  -0.609   4.928   8.863 -1.3924 -1.8567 -0.9808
  102OSM   C17S10312  -0.722   5.096   8.781  0.6875  0.7236 -0.0044
  102OSM   H17S10313  -0.621   5.141   8.772  0.6009  0.6289 -1.7002
  102OSM   H17T10314  -0.795   5.174   8.814 -0.0566  0.0355  0.0270
  102OSM   C18S10315  -0.775   5.061   8.637  0.3419  0.4799 -0.0948
  102OSM   H18S10316  -0.877   5.018   8.638 -0.2352  1.7944  0.8067
  102OSM   H18T10317  -0.705   4.982   8.602  0.8177  0.0469  1.7623
  102OSM   H18U10318  -0.760   5.151   8.573  0.1133  0.3240 -0.3685
  102OSM    C1F10319   0.065   5.273  10.208 -0.3497  0.0373 -0.2629
  102OSM     OF10320   0.172   5.259  10.268  0.0765 -0.5090  0.0267
  102OSM    C2F10321   0.035   5.381  10.109 -0.2185 -0.9055  0.2942
  102OSM    H2F10322  -0.015   5.468  10.157  0.2004 -1.6742  2.2082
  102OSM    H2G10323  -0.033   5.330  10.037  2.0055 -0.6127 -2.1704
  102OSM    C3F10324   0.166   5.422  10.045 -0.3511 -0.3124  0.0516
  102OSM    H3F10325   0.214   5.333   9.999 -0.6110 -0.8026  0.7064
  102OSM    H3G10326   0.230   5.468  10.123  1.8254 -0.4783 -1.5433
  102OSM    C4F10327   0.148   5.519   9.925 -0.4082 -0.0235 -0.1768
  102OSM    H4F10328   0.249   5.557   9.897 -0.5865  0.1496 -0.5947
  102OSM    H4G10329   0.096   5.615   9.941  2.0230  1.2983  0.2886
  102OSM    C5F10330   0.080   5.453   9.802 -0.2348 -0.3122 -0.2302
  102OSM    H5F10331  -0.010   5.395   9.832 -0.4234  0.5072  0.8629
  102OSM    H5G10332   0.154   5.376   9.770  1.7863  1.5159 -0.1443
  102OSM    C6F10333   0.060   5.537   9.672 -0.1334  0.6067  0.1304
  102OSM    H6F10334   0.040   5.457   9.598  2.6851  0.0461 -0.1354
  102OSM    H6G10335   0.160   5.578   9.645  0.2711 -0.4624 -0.0226
  102OSM    C7F10336  -0.045   5.647   9.677  0.3907 -0.6692  0.0991
  102OSM    H7F10337  -0.008   5.726   9.745 -1.0477 -0.8521  1.1498
  102OSM    H7G10338  -0.144   5.615   9.717  0.0820 -0.7284 -0.6942
  102OSM    C8F10339  -0.076   5.709   9.538 -0.3125 -0.2441  0.2161
  102OSM    H8F10340  -0.136   5.801   9.558 -1.4910 -0.3013 -2.6692
  102OSM    H8G10341  -0.142   5.636   9.486 -0.2293 -1.2870  1.5002
  102OSM    C9F10342   0.045   5.743   9.466 -0.5641 -0.0349  0.3109
  102OSM    H9F10343   0.111   5.799   9.534 -0.3887 -1.3499  1.2437
  102OSM   C10F10344   0.081   5.715   9.342  0.1901 -0.0227  0.3240
  102OSM   H10F10345   0.175   5.762   9.310 -1.0636  2.0642 -0.4799
  102OSM   C11F10346   0.004   5.644   9.242  0.6075  0.5498 -0.7785
  102OSM   H11F10347  -0.104   5.667   9.259 -0.3394 -2.8770 -1.3737
  102OSM   H11G10348   0.020   5.536   9.263 -1.8380  0.5334  1.5857
  102OSM   C12F10349   0.039   5.673   9.098  0.3925  0.4030  1.2051
  102OSM   H12F10350   0.033   5.782   9.078 -1.4391 -0.2820 -2.9137
  102OSM   H12G10351  -0.037   5.642   9.023  1.5813 -0.3151  0.2645
  102OSM   C13F10352   0.177   5.611   9.051  0.5313 -1.0959 -0.3910
  102OSM   H13F10353   0.192   5.509   9.093  0.4905 -1.5605 -1.4804
  102OSM   H13G10354   0.255   5.679   9.091  0.3077  0.6197 -2.6662
  102OSM   C14F10355   0.214   5.612   8.898  0.3095  0.2275 -0.1520
  102OSM   H14F10356   0.154   5.537   8.842  0.9322 -0.5201  0.1757
  102OSM   H14G10357   0.321   5.583   8.893  0.5370  1.1507 -1.0074
  102OSM   C15F10358   0.199   5.759   8.848  0.1473  0.3262  0.1486
  102OSM   H15F10359   0.277   5.816   8.902  1.8372 -0.2353 -1.5710
  102OSM   H15G10360   0.096   5.798   8.855  0.2324  0.7261 -0.6807
  102OSM   C16F10361   0.232   5.766   8.697  0.4109 -0.1100  0.4247
  102OSM   H16F10362   0.169   5.691   8.644  0.5524  1.1297 -1.6396
  102OSM   H16G10363   0.339   5.741   8.678  0.0429  0.6993 -3.6000
  102OSM   C17F10364   0.194   5.893   8.629  0.2687  0.1446 -0.2037
  102OSM   H17F10365   0.104   5.934   8.681  0.2689 -2.1449  1.7667
  102OSM   H17G10366   0.169   5.889   8.521 -0.4192  1.2040 -0.0969
  102OSM   C18F10367   0.305   5.994   8.649 -0.4374 -0.6060  0.2225
  102OSM   H18F10368   0.344   5.996   8.753  1.4432 -1.7144 -0.4206
  102OSM   H18G10369   0.292   6.095   8.606  2.9849 -1.1111 -2.4676
  102OSM   H18H10370   0.390   5.962   8.585  2.0150  1.1049  2.4231
  103OSM      N10371   2.351   6.414  10.944  0.4167 -0.3146 -0.2232
  103OSM    C1510372   2.317   6.369  10.807 -0.6286  0.1812  0.0375
  103OSM   H15A10373   2.318   6.446  10.732  0.2395 -1.7600 -2.0822
  103OSM   H15B10374   2.219   6.323  10.812 -0.7463  0.4489  0.2228
  103OSM   H15C10375   2.388   6.290  10.786  1.2096  1.3148  1.5960
  103OSM    C1410376   2.253   6.504  11.009 -0.3932  0.2138  0.4594
  103OSM   H14A10377   2.289   6.544  11.102 -0.8882  1.6620  0.0545
  103OSM   H14B10378   2.152   6.468  11.019 -1.5168  2.6465 -1.0742
  103OSM   H14C10379   2.242   6.584  10.937 -0.2974 -1.6227 -1.6957
  103OSM    C1310380   2.355   6.287  11.025  0.0439 -0.3966  0.2805
  103OSM   H13A10381   2.257   6.241  11.018 -0.2454  0.2288  0.1174
  103OSM   H13B10382   2.361   6.318  11.129  0.5181 -1.0274  0.4404
  103OSM   H13C10383   2.446   6.233  11.004  1.2681 -0.6930  5.0650
  103OSM    C1210384   2.497   6.462  10.933 -0.3094 -0.8511 -0.3851
  103OSM   H12A10385   2.563   6.388  10.891  2.0402  0.9150  0.0054
  103OSM   H12B10386   2.537   6.468  11.033 -2.7897  0.8567  0.6012
  103OSM    C1110387   2.527   6.592  10.844  0.4695  0.1410 -0.2880
  103OSM   H11A10388   2.498   6.574  10.738  1.3684  3.6434 -1.2937
  103OSM   H11B10389   2.637   6.608  10.849  0.3533  1.1146 -0.6069
  103OSM      P10390   2.536   6.827  10.958  0.0135 -0.3857  0.0913
  103OSM    O1310391   2.430   6.902  11.033 -0.0161 -0.3051  0.2521
  103OSM    O1410392   2.657   6.774  11.029 -0.7791 -0.5086  0.7992
  103OSM    O1110393   2.566   6.906  10.828 -0.8305 -0.2078 -0.0586
  103OSM    O1210394   2.452   6.699  10.898  0.3639 -0.0336 -0.5001
  103OSM    C1S10395   2.475   6.909  10.721  0.9028 -0.1540  1.0450
  103OSM    H1S10396   2.370   6.910  10.758 -0.0091 -0.4053 -1.3489
  103OSM    H1T10397   2.493   6.819  10.659 -0.3808  0.1067  0.2537
  103OSM     NF10398   2.390   7.030  10.526  0.0278 -0.0440  0.1029
  103OSM    HNF10399   2.422   6.987  10.442 -0.0699  1.1717 -0.5756
  103OSM    C2S10400   2.481   7.042  10.635  0.3963  0.4378 -0.3557
  103OSM    H2S10401   2.443   7.127  10.697 -1.5651 -0.0332 -0.8375
  103OSM    C3S10402   2.630   7.061  10.592 -0.4664 -0.1101  0.1038
  103OSM    H3S10403   2.647   6.982  10.516 -0.2611  1.4481 -1.5223
  103OSM     O310404   2.740   7.051  10.688  0.8217  0.5022  0.2119
  103OSM    HO310405   2.705   7.008  10.767  0.3725  1.8020  0.7532
  103OSM    C4S10406   2.646   7.188  10.513  0.8136 -0.5059 -0.5139
  103OSM    H4S10407   2.631   7.173  10.405 -1.4460 -3.5183  0.0671
  103OSM    C5S10408   2.664   7.315  10.551  0.5234  0.0654 -0.1443
  103OSM    H5S10409   2.681   7.339  10.657 -2.3858 -0.4775  0.5223
  103OSM    C6S10410   2.680   7.432  10.458  0.9266  0.0430 -0.2020
  103OSM    H6S10411   2.780   7.480  10.469 -0.3642  2.5499  2.2107
  103OSM    H6T10412   2.623   7.517  10.502  3.9052  1.6915  0.7449
  103OSM    C7S10413   2.636   7.416  10.312  0.2856  0.8398  0.0354
  103OSM    H7S10414   2.533   7.376  10.304  1.3414 -1.9464 -0.5945
  103OSM    H7T10415   2.691   7.339  10.254 -1.4541  1.0498 -2.0027
  103OSM    C8S10416   2.671   7.546  10.240  0.3973 -0.0622 -0.6221
  103OSM    H8S10417   2.782   7.546  10.226  0.4940 -1.4658 -0.0186
  103OSM    H8T10418   2.644   7.629  10.309 -0.0299 -0.0390 -0.8143
  103OSM    C9S10419   2.585   7.573  10.113 -0.1057  0.0291 -0.0799
  103OSM    H9S10420   2.608   7.677  10.081 -2.5590  0.8653  0.5844
  103OSM    H9T10421   2.476   7.568  10.136 -0.3637  0.4700 -1.1300
  103OSM   C10S10422   2.622   7.482  10.003 -0.0861  0.1913  0.2199
  103OSM   H10S10423   2.585   7.382  10.031  1.6025 -0.3218  0.7513
  103OSM   H10T10424   2.733   7.483   9.993 -0.2268 -1.2050 -2.2512
  103OSM   C11S10425   2.575   7.547   9.870  0.6261  0.2407 -0.2831
  103OSM   H11S10426   2.631   7.640   9.848 -0.1980  0.0913 -3.4380
  103OSM   H11T10427   2.474   7.587   9.894  0.0223 -1.2799 -0.1973
  103OSM   C12S10428   2.579   7.460   9.740  0.4326 -0.1804 -0.3088
  103OSM   H12S10429   2.510   7.373   9.748  1.4014 -1.3016 -2.9150
  103OSM   H12T10430   2.683   7.419   9.740  0.0776 -1.1306 -1.3482
  103OSM   C13S10431   2.576   7.543   9.616  0.4044 -0.2061  0.5575
  103OSM   H13S10432   2.653   7.622   9.619 -0.4340  0.7303 -1.1194
  103OSM   H13T10433   2.478   7.594   9.625  0.7980  0.3842  1.6026
  103OSM   C14S10434   2.583   7.458   9.490  0.1584 -0.4577 -0.3454
  103OSM   H14S10435   2.507   7.378   9.504 -0.1769 -0.1906 -0.6219
  103OSM   H14T10436   2.686   7.415   9.488  0.0780 -0.7600  1.0691
  103OSM   C15S10437   2.545   7.534   9.365  0.0636 -0.4828 -0.1567
  103OSM   H15S10438   2.614   7.621   9.371  0.6367 -0.9707  0.5223
  103OSM   H15T10439   2.444   7.576   9.384  0.4076 -0.4969  1.9679
  103OSM   C16S10440   2.579   7.459   9.235 -0.4797 -0.0101  0.2966
  103OSM   H16S10441   2.485   7.401   9.220 -0.7165  0.3711  0.3178
  103OSM   H16T10442   2.664   7.394   9.267  1.4447  2.5961  0.7547
  103OSM   C17S10443   2.614   7.548   9.113  0.1491  0.3826  0.1505
  103OSM   H17S10444   2.649   7.481   9.032  0.4024  1.1739 -0.4021
  103OSM   H17T10445   2.702   7.609   9.143  2.9899 -3.2936  0.0058
  103OSM   C18S10446   2.507   7.637   9.052 -0.4449  0.4314  0.5332
  103OSM   H18S10447   2.426   7.569   9.019  0.7973 -0.2931 -1.1996
  103OSM   H18T10448   2.536   7.703   8.967 -1.0051 -1.6943 -1.4244
  103OSM   H18U10449   2.479   7.715   9.126 -1.4365 -0.7480  1.4408
  103OSM    C1F10450   2.260   7.036  10.549  0.0525  0.3619 -0.4948
  103OSM     OF10451   2.215   7.072  10.660 -0.1804  0.6119 -0.6113
  103OSM    C2F10452   2.172   6.976  10.446  0.2130 -0.4952  0.1014
  103OSM    H2F10453   2.168   7.035  10.352  2.9397  0.3220  0.4117
  103OSM    H2G10454   2.066   6.973  10.479 -0.3393  0.4759 -1.4967
  103OSM    C3F10455   2.211   6.833  10.427  0.1979  0.5659  0.5656
  103OSM    H3F10456   2.198   6.782  10.525  0.9567  0.2491  0.5105
  103OSM    H3G10457   2.313   6.809  10.391  0.2666  0.0187  1.1139
  103OSM    C4F10458   2.108   6.756  10.342  0.2527  0.4023  0.6877
  103OSM    H4F10459   2.136   6.782  10.238  0.7454 -2.4104  0.0582
  103OSM    H4G10460   2.005   6.784  10.372 -0.0454 -1.7223  1.8623
  103OSM    C5F10461   2.108   6.606  10.361  0.3885 -0.2589  0.0392
  103OSM    H5F10462   2.100   6.573  10.467 -1.6442 -0.0666  0.0005
  103OSM    H5G10463   2.204   6.569  10.320  0.2971 -1.0556  0.5215
  103OSM    C6F10464   1.980   6.537  10.298 -0.5155  0.6681 -0.0965
  103OSM    H6F10465   1.885   6.553  10.352 -0.1460  1.2068  0.4008
  103OSM    H6G10466   2.004   6.429  10.289  2.8016  1.2677  0.0531
  103OSM    C7F10467   1.956   6.586  10.150  0.3038 -0.1907 -0.5723
  103OSM    H7F10468   2.057   6.611  10.111 -0.9383  3.3544 -1.8987
  103OSM    H7G10469   1.913   6.687  10.167  2.5323  0.6546  0.4708
  103OSM    C8F10470   1.871   6.496  10.063  0.7268  0.2708 -0.0946
  103OSM    H8F10471   1.771   6.465  10.101  1.2852  0.9948  2.1031
  103OSM    H8G10472   1.932   6.404  10.053  0.1484 -0.0903 -0.3576
  103OSM    C9F10473   1.855   6.577   9.935 -1.0734 -0.1765  0.0563
  103OSM    H9F10474   1.808   6.674   9.957  1.2785  0.5196  2.5653
  103OSM   C10F10475   1.894   6.539   9.816  0.0983  0.0724 -0.4295
  103OSM   H10F10476   1.891   6.610   9.732 -0.3687  1.0229  0.3775
  103OSM   C11F10477   1.970   6.417   9.786  0.3983 -1.0506  0.3413
  103OSM   H11F10478   2.022   6.373   9.874  0.0775 -1.3997  0.3563
  103OSM   H11G10479   2.056   6.444   9.721 -0.2471  2.3331  0.6731
  103OSM   C12F10480   1.877   6.308   9.728  0.5966  0.5723  0.2104
  103OSM   H12F10481   1.794   6.291   9.799  1.4211 -0.6191  0.9353
  103OSM   H12G10482   1.936   6.214   9.724  0.4210  0.4932 -0.7055
  103OSM   C13F10483   1.829   6.347   9.590 -0.2906 -0.0279  0.0743
  103OSM   H13F10484   1.759   6.432   9.596 -1.1954 -0.6954 -0.7156
  103OSM   H13G10485   1.760   6.270   9.549 -0.0775  0.0276 -0.3900
  103OSM   C14F10486   1.926   6.385   9.487  0.3238  0.2817 -0.7169
  103OSM   H14F10487   1.970   6.284   9.469  2.0601  0.5683  1.4005
  103OSM   H14G10488   1.998   6.464   9.515  1.2888 -0.8362  0.0893
  103OSM   C15F10489   1.874   6.433   9.351  0.1739 -0.3321  0.0252
  103OSM   H15F10490   1.806   6.519   9.370 -0.4119 -0.9572  0.8618
  103OSM   H15G10491   1.813   6.348   9.314 -0.2828 -0.2688  0.6042
  103OSM   C16F10492   1.986   6.463   9.248  0.2855  0.6504  0.7849
  103OSM   H16F10493   2.054   6.378   9.270 -0.0201  0.5208  1.2461
  103OSM   H16G10494   2.037   6.554   9.286  0.3129  0.2813  1.6661
  103OSM   C17F10495   1.932   6.459   9.105 -0.8624 -0.0522 -0.2569
  103OSM   H17F10496   1.891   6.357   9.090  1.7885 -1.1076 -0.7982
  103OSM   H17G10497   2.028   6.455   9.050  0.8476 -0.1647  2.5174
  103OSM   C18F10498   1.834   6.572   9.072 -0.1584 -0.1420  0.5342
  103OSM   H18F10499   1.787   6.544   8.975 -0.5031  0.0264  0.6494
  103OSM   H18G10500   1.885   6.670   9.064 -1.9107  0.6865 -1.5113
  103OSM   H18H10501   1.759   6.568   9.154  1.5378 -0.3829  2.1385
  104OSM      N10502   6.184   0.582  10.933  0.5900  0.1058  0.2462
  104OSM    C1510503   6.122   0.448  10.953  0.2167 -0.2403  0.1923
  104OSM   H15A10504   6.190   0.378  10.905  2.5855  0.7887  1.8260
  104OSM   H15B10505   6.023   0.439  10.913 -0.1856 -0.4034  1.1869
  104OSM   H15C10506   6.125   0.417  11.057  0.9370 -0.1598  0.2024
  104OSM    C1410507   6.196   0.609  10.787 -0.7106 -1.4057 -0.6166
  104OSM   H14A10508   6.249   0.702  10.775 -0.7601 -1.2272  0.4281
  104OSM   H14B10509   6.111   0.605  10.721 -1.3958 -0.1272  0.1448
  104OSM   H14C10510   6.273   0.543  10.748 -0.0909 -0.9100 -0.2625
  104OSM    C1310511   6.087   0.686  10.990  0.0743 -0.4548  0.1849
  104OSM   H13A10512   6.068   0.668  11.094  1.8523 -0.7294  0.4887
  104OSM   H13B10513   6.001   0.696  10.925  0.3824 -0.6777 -0.2630
  104OSM   H13C10514   6.134   0.783  10.986  0.7375 -0.7965 -0.7791
  104OSM    C1210515   6.315   0.592  11.001 -0.4706 -0.0193 -0.0931
  104OSM   H12A10516   6.308   0.572  11.107  2.2960 -1.5117 -0.0757
  104OSM   H12B10517   6.350   0.692  10.982 -0.5935 -0.1499 -1.0510
  104OSM    C1110518   6.426   0.498  10.952 -1.1995 -0.1625 -0.4020
  104OSM   H11A10519   6.389   0.394  10.938  1.8648 -1.1316 -2.5307
  104OSM   H11B10520   6.507   0.492  11.028 -1.7252  1.8033  0.3518
  104OSM      P10521   6.625   0.615  10.826  0.0455  0.0883  0.5602
  104OSM    O1310522   6.638   0.702  10.941 -0.1334 -0.7121 -0.0705
  104OSM    O1410523   6.738   0.520  10.796 -0.1743  0.3384  0.3180
  104OSM    O1110524   6.591   0.700  10.699  0.7103  0.1307 -0.0272
  104OSM    O1210525   6.487   0.538  10.832  0.0328  0.4998 -0.3828
  104OSM    C1S10526   6.496   0.661  10.597 -0.3454 -0.1684 -0.4377
  104OSM    H1S10527   6.392   0.691  10.620 -0.4553  1.1078 -2.3245
  104OSM    H1T10528   6.487   0.551  10.586 -1.6799 -0.0219 -1.0230
  104OSM     NF10529   6.427   0.682  10.365  0.1151 -0.0143 -0.0091
  104OSM    HNF10530   6.438   0.601  10.308 -1.7531 -0.5648  0.3433
  104OSM    C2S10531   6.531   0.715  10.456 -0.5875 -0.8619 -0.3498
  104OSM    H2S10532   6.526   0.826  10.466 -1.5596 -0.8078 -1.2646
  104OSM    C3S10533   6.664   0.671  10.398  0.1392 -0.4323 -0.3219
  104OSM    H3S10534   6.657   0.562  10.379  0.1111 -0.4827 -0.0333
  104OSM     O310535   6.770   0.683  10.488  0.6138  0.0195 -0.2917
  104OSM    HO310536   6.723   0.684  10.571  0.9806  0.4834 -0.0864
  104OSM    C4S10537   6.694   0.744  10.266 -0.2925  0.4227  0.0325
  104OSM    H4S10538   6.628   0.704  10.187 -1.0124  0.1895  0.7379
  104OSM    C5S10539   6.781   0.841  10.244  0.5745  0.4037  0.4557
  104OSM    H5S10540   6.847   0.883  10.321  0.5909  1.3576 -0.0623
  104OSM    C6S10541   6.801   0.909  10.110  0.2697 -0.3567  0.1213
  104OSM    H6S10542   6.909   0.898  10.087  0.7305  0.8566  1.4970
  104OSM    H6T10543   6.791   1.019  10.118  0.2467 -0.3633  0.1877
  104OSM    C7S10544   6.721   0.872   9.981 -0.0325  0.2860 -0.4711
  104OSM    H7S10545   6.618   0.873  10.023  1.2758 -1.3938  3.2521
  104OSM    H7T10546   6.740   0.764   9.963  1.0182  0.4653 -0.5083
  104OSM    C8S10547   6.756   0.942   9.849 -0.4198 -0.2703 -1.0822
  104OSM    H8S10548   6.861   0.909   9.830  0.3422 -0.5271  2.6479
  104OSM    H8T10549   6.739   1.050   9.864  0.5232 -0.3441  0.8778
  104OSM    C9S10550   6.679   0.906   9.730 -0.7093 -0.1137  0.1812
  104OSM    H9S10551   6.578   0.948   9.743 -0.6875 -0.6388  2.3959
  104OSM    H9T10552   6.684   0.797   9.706 -1.9190  0.1014 -1.1557
  104OSM   C10S10553   6.751   0.977   9.612  0.7990  0.3437 -0.1208
  104OSM   H10S10554   6.852   0.939   9.587  0.3392  0.3261 -2.0673
  104OSM   H10T10555   6.765   1.085   9.636 -1.4132  0.3456  1.6063
  104OSM   C11S10556   6.662   0.961   9.477 -0.7690  0.2431 -0.3146
  104OSM   H11S10557   6.658   1.060   9.427  1.4173  0.4833 -0.0766
  104OSM   H11T10558   6.559   0.929   9.506 -0.5051  0.8583  1.4167
  104OSM   C12S10559   6.725   0.860   9.383  0.3836  0.1640  0.1620
  104OSM   H12S10560   6.753   0.774   9.447 -1.3291  0.2260  1.0614
  104OSM   H12T10561   6.819   0.904   9.342 -0.4887  0.9165 -1.0945
  104OSM   C13S10562   6.640   0.813   9.267 -0.7077 -0.1646  0.2425
  104OSM   H13S10563   6.576   0.733   9.308  0.0497  0.6382  3.2137
  104OSM   H13T10564   6.705   0.760   9.194  0.9103 -0.5306  1.8734
  104OSM   C14S10565   6.569   0.919   9.189  0.3198 -0.5106 -0.0401
  104OSM   H14S10566   6.493   0.959   9.259  0.8374  0.3065  0.0828
  104OSM   H14T10567   6.510   0.879   9.104 -0.9499  1.6221 -0.2355
  104OSM   C15S10568   6.653   1.040   9.139 -0.1449 -0.1846 -0.0219
  104OSM   H15S10569   6.710   0.985   9.061 -1.0785  0.9333 -1.5441
  104OSM   H15T10570   6.718   1.081   9.219 -0.2979 -1.8336  0.9995
  104OSM   C16S10571   6.565   1.140   9.067 -0.1955  0.2612  0.0064
  104OSM   H16S10572   6.517   1.208   9.141 -4.4617 -2.8002  0.3848
  104OSM   H16T10573   6.476   1.089   9.026  0.8788 -0.9898 -0.8456
  104OSM   C17S10574   6.634   1.206   8.957  0.3784  0.1755  0.2596
  104OSM   H17S10575   6.557   1.265   8.902 -0.7892 -1.3414  0.1966
  104OSM   H17T10576   6.651   1.122   8.885 -0.0131  0.9297 -0.7367
  104OSM   C18S10577   6.763   1.274   8.998 -0.3656 -0.0083  0.5554
  104OSM   H18S10578   6.755   1.334   9.091 -1.5613  2.6415 -1.1285
  104OSM   H18T10579   6.781   1.340   8.910  1.8793  0.9192  1.6298
  104OSM   H18U10580   6.856   1.217   9.017 -0.7914 -0.6805  0.6286
  104OSM    C1F10581   6.306   0.732  10.368  0.1369  0.0209 -0.0379
  104OSM     OF10582   6.266   0.827  10.437 -0.1931 -0.0984  0.8515
  104OSM    C2F10583   6.197   0.669  10.287  0.2766 -0.0728  0.3031
  104OSM    H2F10584   6.110   0.643  10.351 -0.6106  0.5891 -0.5913
  104OSM    H2G10585   6.228   0.582  10.225 -1.9425 -1.1622  0.5975
  104OSM    C3F10586   6.132   0.768  10.184  0.3205 -0.5051 -0.4272
  104OSM    H3F10587   6.205   0.819  10.117  0.6426  0.3081  0.5235
  104OSM    H3G10588   6.082   0.844  10.248  1.3508 -1.4842  1.6267
  104OSM    C4F10589   6.015   0.705  10.096 -0.2371 -0.1715 -0.3322
  104OSM    H4F10590   5.934   0.668  10.163 -0.1964 -0.4312 -0.4248
  104OSM    H4G10591   6.059   0.615  10.049  0.6383  1.3286 -2.5411
  104OSM    C5F10592   5.968   0.802   9.992 -0.4203  0.5461 -1.2145
  104OSM    H5F10593   6.058   0.841   9.940  1.5657  1.4400  2.5231
  104OSM    H5G10594   5.931   0.898  10.034 -0.0953  0.3223 -0.3797
  104OSM    C6F10595   5.865   0.739   9.888 -0.5136  0.2210 -0.7100
  104OSM    H6F10596   5.833   0.823   9.824  0.0327  1.4327  0.5459
  104OSM    H6G10597   5.789   0.686   9.950  1.0037 -0.2559  0.8449
  104OSM    C7F10598   5.920   0.629   9.800  0.3800 -0.0771  0.0785
  104OSM    H7F10599   5.836   0.586   9.741 -0.7557  1.7589  0.2902
  104OSM    H7G10600   5.954   0.544   9.863 -1.2558 -0.5410  0.3994
  104OSM    C8F10601   6.039   0.665   9.710 -0.2327 -0.2562  0.4864
  104OSM    H8F10602   6.132   0.709   9.752 -0.0043  0.7497 -0.9905
  104OSM    H8G10603   6.002   0.752   9.652 -0.0435 -0.7059 -0.3362
  104OSM    C9F10604   6.076   0.550   9.614 -0.3291 -0.1733 -0.7165
  104OSM    H9F10605   6.169   0.500   9.643 -0.4221 -0.4008 -0.8052
  104OSM   C10F10606   6.030   0.539   9.492  0.5224 -0.1066  0.2983
  104OSM   H10F10607   6.060   0.449   9.436 -0.7755 -0.5053  0.2112
  104OSM   C11F10608   5.933   0.630   9.422 -0.0191  0.2452 -0.2449
  104OSM   H11F10609   5.973   0.712   9.359 -0.1843 -0.1615 -0.8983
  104OSM   H11G10610   5.861   0.674   9.494 -3.5979 -0.6890 -2.9277
  104OSM   C12F10611   5.829   0.546   9.346  0.0811 -0.4567 -0.1765
  104OSM   H12F10612   5.744   0.613   9.324 -0.7052 -1.9064 -1.7352
  104OSM   H12G10613   5.795   0.460   9.407  1.7346 -1.6429 -0.8619
  104OSM   C13F10614   5.887   0.504   9.209 -0.0709 -0.6611  0.5649
  104OSM   H13F10615   5.966   0.426   9.219  2.7820  1.7956 -1.1459
  104OSM   H13G10616   5.942   0.583   9.154  0.6890 -1.0651  0.7235
  104OSM   C14F10617   5.780   0.441   9.117  0.6100  0.4469  0.1048
  104OSM   H14F10618   5.715   0.389   9.191  0.0196  0.6181 -0.2818
  104OSM   H14G10619   5.815   0.362   9.047 -2.1532 -1.5976  0.8446
  104OSM   C15F10620   5.699   0.547   9.038  0.1458  0.2624 -0.0790
  104OSM   H15F10621   5.740   0.577   8.940  0.5537 -0.2852 -0.0829
  104OSM   H15G10622   5.694   0.635   9.105 -0.2544 -0.9404  1.5528
  104OSM   C16F10623   5.552   0.496   9.009  0.5447  0.7051  0.0632
  104OSM   H16F10624   5.478   0.574   8.979  0.4168 -0.1897 -2.1659
  104OSM   H16G10625   5.501   0.456   9.099 -1.1032 -0.2517 -1.2290
  104OSM   C17F10626   5.543   0.385   8.909 -0.2358 -0.3782  0.4701
  104OSM   H17F10627   5.435   0.362   8.899 -0.3633  0.5532 -0.4305
  104OSM   H17G10628   5.586   0.291   8.950  0.1580 -0.1165  0.6667
  104OSM   C18F10629   5.582   0.422   8.762 -0.1449  0.2327  0.1776
  104OSM   H18F10630   5.686   0.460   8.766 -0.2306  0.3498  2.2783
  104OSM   H18G10631   5.516   0.503   8.723 -3.0005 -1.0899  1.9221
  104OSM   H18H10632   5.569   0.333   8.697 -0.7963  1.5865 -1.6454
  105OSM      N10633   3.117   4.733  10.911  0.4476  0.5286 -0.5174
  105OSM    C1510634   3.188   4.755  11.043  0.0552  0.5834  0.3169
  105OSM   H15A10635   3.214   4.658  11.083 -2.3235 -0.1759  0.1988
  105OSM   H15B10636   3.123   4.789  11.122  0.9507 -1.0249  1.8229
  105OSM   H15C10637   3.276   4.817  11.047  0.7805 -0.3457 -0.6866
  105OSM    C1410638   3.226   4.708  10.818  0.4719 -0.2038 -0.0539
  105OSM   H14A10639   3.273   4.612  10.837 -0.5937 -0.3946  1.8346
  105OSM   H14B10640   3.307   4.780  10.825  0.4464 -0.1791 -0.0108
  105OSM   H14C10641   3.186   4.712  10.718 -1.5272  0.8432  0.7319
  105OSM    C1310642   3.021   4.616  10.925 -0.2072  0.3511 -0.3175
  105OSM   H13A10643   3.065   4.528  10.969  1.0437  1.3352  0.4763
  105OSM   H13B10644   2.971   4.595  10.832  0.7551  0.1034 -0.7857
  105OSM   H13C10645   2.941   4.652  10.988 -2.2501  0.1282 -2.6353
  105OSM    C1210646   3.052   4.868  10.869 -0.0788 -0.4784 -0.9390
  105OSM   H12A10647   3.133   4.937  10.856 -1.2127  0.9387 -0.6686
  105OSM   H12B10648   2.982   4.890  10.948  0.5182 -1.0474 -0.2364
  105OSM    C1110649   2.974   4.868  10.733  0.0881  0.1262 -0.5916
  105OSM   H11A10650   3.037   4.816  10.657  1.7972  0.2506  0.6762
  105OSM   H11B10651   2.947   4.973  10.708  2.1744  0.5203 -1.4365
  105OSM      P10652   2.734   4.842  10.820 -0.1001 -0.1316 -0.4872
  105OSM    O1310653   2.652   4.724  10.856 -0.1059 -0.6452 -0.4613
  105OSM    O1410654   2.769   4.934  10.927 -0.6471  0.2629  0.2816
  105OSM    O1110655   2.656   4.925  10.705 -0.4263 -0.2396  0.3996
  105OSM    O1210656   2.860   4.788  10.749  0.1590 -0.3861 -0.0408
  105OSM    C1S10657   2.634   4.861  10.579  0.0793 -0.3402 -0.5890
  105OSM    H1S10658   2.534   4.813  10.577 -0.9463  1.6896 -0.9277
  105OSM    H1T10659   2.712   4.785  10.554  0.2062 -0.5835  0.5058
  105OSM     NF10660   2.619   4.883  10.336 -0.6242  0.2547  0.5628
  105OSM    HNF10661   2.703   4.868  10.285 -0.9049 -0.1057  0.2024
  105OSM    C2S10662   2.623   4.958  10.459  0.6260 -0.3960 -0.3582
  105OSM    H2S10663   2.532   5.022  10.465  0.5701 -0.5008 -0.0816
  105OSM    C3S10664   2.743   5.064  10.460  0.5840  0.9913 -0.6380
  105OSM    H3S10665   2.842   5.013  10.453  0.2385  0.3291 -0.7691
  105OSM     O310666   2.736   5.148  10.578  0.0177  0.3894 -0.3961
  105OSM    HO310667   2.674   5.106  10.638  1.1363  1.3648  1.5318
  105OSM    C4S10668   2.732   5.152  10.337 -0.7957  0.6028 -0.2111
  105OSM    H4S10669   2.672   5.243  10.353  0.0726  1.0082  0.8629
  105OSM    C5S10670   2.798   5.131  10.218  0.1424 -0.2939  0.2664
  105OSM    H5S10671   2.862   5.041  10.208 -1.7906 -1.8135  1.0386
  105OSM    C6S10672   2.793   5.224  10.103  0.1856  0.2723  0.1046
  105OSM    H6S10673   2.896   5.252  10.074  0.8882 -2.0691  0.1340
  105OSM    H6T10674   2.741   5.317  10.137  2.0666  0.8453  1.5477
  105OSM    C7S10675   2.730   5.152   9.983 -0.3023  0.0522 -0.6489
  105OSM    H7S10676   2.628   5.112  10.001 -1.2171  1.6934 -1.8746
  105OSM    H7T10677   2.788   5.063   9.949  0.1799 -0.4647  1.3758
  105OSM    C8S10678   2.726   5.259   9.864 -0.6691 -0.0625 -0.2015
  105OSM    H8S10679   2.817   5.323   9.864 -1.1122  0.5906 -0.7750
  105OSM    H8T10680   2.640   5.327   9.882 -0.7848 -0.6898  1.8658
  105OSM    C9S10681   2.717   5.198   9.725  0.1795  0.2060 -0.1865
  105OSM    H9S10682   2.621   5.145   9.706  1.0854 -0.8327 -2.2522
  105OSM    H9T10683   2.789   5.114   9.715 -2.1454 -2.1599  1.3837
  105OSM   C10S10684   2.744   5.297   9.607  0.1328 -0.2643  0.5199
  105OSM   H10S10685   2.852   5.321   9.612  0.4424 -1.5044  0.2429
  105OSM   H10T10686   2.681   5.387   9.627 -0.8016 -0.8035  0.0890
  105OSM   C11S10687   2.701   5.226   9.475 -0.0701 -0.6975  0.4341
  105OSM   H11S10688   2.591   5.212   9.468 -0.1289 -0.1659  0.2921
  105OSM   H11T10689   2.757   5.130   9.479  2.1213  0.5735  1.9626
  105OSM   C12S10690   2.760   5.312   9.354  0.1345  0.1164  0.1188
  105OSM   H12S10691   2.730   5.261   9.260 -3.5502 -1.9230  2.1742
  105OSM   H12T10692   2.870   5.318   9.371  0.2752 -0.2551 -0.5942
  105OSM   C13S10693   2.681   5.443   9.342 -0.8618 -0.2221  1.0046
  105OSM   H13S10694   2.702   5.510   9.428  0.8238  0.2628  0.2449
  105OSM   H13T10695   2.574   5.414   9.347 -0.8271 -0.3572  0.9706
  105OSM   C14S10696   2.710   5.529   9.219 -0.5558 -0.2309 -0.4327
  105OSM   H14S10697   2.819   5.534   9.201 -0.2711 -2.7792  0.2473
  105OSM   H14T10698   2.667   5.631   9.232 -2.4076 -1.1638  1.4636
  105OSM   C15S10699   2.655   5.462   9.092  0.2536  0.1394  0.3586
  105OSM   H15S10700   2.544   5.462   9.100  0.1429 -1.5109 -0.7551
  105OSM   H15T10701   2.689   5.357   9.086  1.2017  0.5018 -3.5156
  105OSM   C16S10702   2.687   5.534   8.957 -0.0142 -0.5613 -0.2849
  105OSM   H16S10703   2.797   5.546   8.949 -0.0907  0.6204  0.3128
  105OSM   H16T10704   2.652   5.639   8.969  0.7783 -0.3457  0.2045
  105OSM   C17S10705   2.642   5.461   8.828  0.2971 -0.1339 -0.1784
  105OSM   H17S10706   2.532   5.446   8.840 -0.0880  0.5676 -2.2945
  105OSM   H17T10707   2.685   5.358   8.831 -0.2935 -0.3900 -0.3102
  105OSM   C18S10708   2.679   5.527   8.690 -0.1874 -0.4763  0.7362
  105OSM   H18S10709   2.627   5.622   8.667  3.0183  1.4022  0.5585
  105OSM   H18T10710   2.652   5.461   8.605 -0.1143  1.7303 -1.0950
  105OSM   H18U10711   2.790   5.536   8.685 -0.3771  2.0860 -0.5699
  105OSM    C1F10712   2.508   4.817  10.299  0.4125  0.5317 -0.8110
  105OSM     OF10713   2.409   4.804  10.372 -0.0568 -0.2004 -0.2485
  105OSM    C2F10714   2.517   4.752  10.169 -0.5021 -0.1007 -0.8441
  105OSM    H2F10715   2.416   4.711  10.149 -0.0849 -0.9256 -1.3309
  105OSM    H2G10716   2.576   4.658  10.183 -0.0872  0.0108 -1.7608
  105OSM    C3F10717   2.597   4.836  10.069 -0.1209  0.0879 -0.3728
  105OSM    H3F10718   2.694   4.876  10.105  0.6944 -1.4445 -0.7965
  105OSM    H3G10719   2.529   4.923  10.052  0.3291  0.5554  0.1912
  105OSM    C4F10720   2.624   4.780   9.932 -0.3114 -0.4530 -0.1607
  105OSM    H4F10721   2.693   4.694   9.949 -0.3933  0.1054  3.8148
  105OSM    H4G10722   2.678   4.854   9.869 -1.6224  1.0475  0.4251
  105OSM    C5F10723   2.484   4.740   9.858 -0.1693 -0.1972  0.1441
  105OSM    H5F10724   2.409   4.822   9.867  0.7169  0.6611 -0.0915
  105OSM    H5G10725   2.446   4.654   9.917  1.0994  0.5611  2.1999
  105OSM    C6F10726   2.497   4.707   9.710  1.1481  0.1566  0.2750
  105OSM    H6F10727   2.408   4.654   9.672  1.4341 -0.6665  0.7283
  105OSM    H6G10728   2.584   4.641   9.690 -0.7551 -2.9022  1.3137
  105OSM    C7F10729   2.522   4.828   9.626 -0.2922 -0.3042 -0.9007
  105OSM    H7F10730   2.621   4.874   9.651 -1.2286  0.6869  1.2212
  105OSM    H7G10731   2.450   4.910   9.645  0.2107 -0.1931  0.7213
  105OSM    C8F10732   2.531   4.784   9.472  0.5232  0.3158  0.2377
  105OSM    H8F10733   2.433   4.747   9.435  1.2215 -1.2060 -0.1734
  105OSM    H8G10734   2.607   4.703   9.458  1.3735  1.3814 -1.6419
  105OSM    C9F10735   2.585   4.891   9.389 -0.2906  0.1243  0.0728
  105OSM    H9F10736   2.615   4.982   9.444  2.0255  0.7548 -2.0367
  105OSM   C10F10737   2.594   4.883   9.256 -0.3213  0.8247 -0.1657
  105OSM   H10F10738   2.631   4.967   9.195  1.6749 -0.3265 -0.6238
  105OSM   C11F10739   2.550   4.757   9.167  0.2943 -0.2721  0.3228
  105OSM   H11F10740   2.489   4.784   9.078  2.0016  2.2782 -0.2058
  105OSM   H11G10741   2.493   4.680   9.224  0.2464 -0.0464  0.5820
  105OSM   C12F10742   2.675   4.687   9.113  0.6646  0.2426  0.4108
  105OSM   H12F10743   2.735   4.633   9.189  0.8810 -1.0779 -0.6658
  105OSM   H12G10744   2.730   4.766   9.057 -1.8303  0.6419 -1.7038
  105OSM   C13F10745   2.629   4.588   9.006 -0.3425 -0.2007 -0.1018
  105OSM   H13F10746   2.568   4.647   8.934 -2.6099 -1.3104  0.8101
  105OSM   H13G10747   2.564   4.507   9.045  0.1507 -0.5759 -0.0366
  105OSM   C14F10748   2.737   4.517   8.932  0.4031  0.0042  0.4258
  105OSM   H14F10749   2.695   4.416   8.910  1.1847  0.2189 -2.5567
  105OSM   H14G10750   2.839   4.502   8.974  2.0295 -0.8341 -3.3223
  105OSM   C15F10751   2.748   4.580   8.793 -0.0100  0.4303  0.3425
  105OSM   H15F10752   2.770   4.688   8.805 -1.5187  0.7280  0.6418
  105OSM   H15G10753   2.650   4.569   8.742 -0.7100 -5.2471  2.2545
  105OSM   C16F10754   2.844   4.506   8.703 -0.5219  0.2268  0.1302
  105OSM   H16F10755   2.843   4.557   8.605  2.5158 -2.2825 -1.4079
  105OSM   H16G10756   2.810   4.402   8.683  1.5705 -0.3674 -0.6089
  105OSM   C17F10757   2.985   4.491   8.761 -0.0016 -0.1868 -0.0922
  105OSM   H17F10758   2.981   4.416   8.843  1.9572  0.5975  0.7918
  105OSM   H17G10759   3.020   4.582   8.815 -1.6178 -0.4928  1.5654
  105OSM   C18F10760   3.086   4.450   8.649 -0.1651 -0.4884  0.9186
  105OSM   H18F10761   3.186   4.455   8.698  0.3470 -0.6515 -0.0632
  105OSM   H18G10762   3.088   4.524   8.566 -3.0983 -2.6627 -1.3007
  105OSM   H18H10763   3.066   4.346   8.618  0.9988  0.0010 -1.8153
  106OSM      N10764   0.497   5.344  10.952 -0.4661  0.4211  0.1988
  106OSM    C1510765   0.472   5.469  11.034  0.1289  0.2808 -0.4254
  106OSM   H15A10766   0.402   5.441  11.112 -1.1066 -0.2035 -1.6777
  106OSM   H15B10767   0.443   5.558  10.979 -0.1922 -1.5456 -3.4208
  106OSM   H15C10768   0.567   5.498  11.077 -0.6187  1.7941  0.2851
  106OSM    C1410769   0.546   5.236  11.042  0.5990  0.1345 -0.3454
  106OSM   H14A10770   0.542   5.136  11.001  2.1900 -0.5071  0.9803
  106OSM   H14B10771   0.473   5.244  11.121  0.1177  2.6397 -0.9571
  106OSM   H14C10772   0.641   5.248  11.092  0.4725 -1.6859  0.4276
  106OSM    C1310773   0.368   5.305  10.891 -0.0903  0.1411  0.1558
  106OSM   H13A10774   0.393   5.225  10.823 -0.4585  1.9760 -2.2495
  106OSM   H13B10775   0.322   5.389  10.841 -1.1435  0.8149  2.1358
  106OSM   H13C10776   0.302   5.265  10.966 -1.1982  1.8300  0.1148
  106OSM    C1210777   0.600   5.372  10.832  0.0111 -0.3309  0.3516
  106OSM   H12A10778   0.617   5.283  10.774  1.5078 -1.2433  2.0587
  106OSM   H12B10779   0.692   5.407  10.877 -0.5325  0.4159  0.9123
  106OSM    C1110780   0.559   5.487  10.737  0.5309 -1.1749 -0.7177
  106OSM   H11A10781   0.460   5.454  10.700 -0.3267  0.0762  0.3819
  106OSM   H11B10782   0.622   5.486  10.645 -0.0872 -1.2708 -1.1458
  106OSM      P10783   0.674   5.706  10.788 -0.0537 -0.0532 -0.0597
  106OSM    O1310784   0.649   5.831  10.869  0.1730  0.1952  0.5837
  106OSM    O1410785   0.793   5.626  10.835  0.2789  0.3815 -0.3379
  106OSM    O1110786   0.698   5.757  10.645 -0.2415 -0.2270 -0.1897
  106OSM    O1210787   0.547   5.618  10.800 -0.7333 -0.1626  0.3381
  106OSM    C1S10788   0.593   5.738  10.545 -0.7415 -0.8139 -0.1421
  106OSM    H1S10789   0.495   5.717  10.593 -1.3182  1.1046 -0.4228
  106OSM    H1T10790   0.628   5.655  10.480  1.8024 -1.2861  1.6739
  106OSM     NF10791   0.479   5.822  10.351 -0.4296 -0.1665  0.2222
  106OSM    HNF10792   0.527   5.793  10.269 -0.8585  0.4399 -0.2538
  106OSM    C2S10793   0.573   5.865  10.449 -0.7761 -0.9234 -0.1577
  106OSM    H2S10794   0.523   5.934  10.521  0.9753  0.9317 -0.6059
  106OSM    C3S10795   0.709   5.910  10.398 -0.4776  0.5069  0.5722
  106OSM    H3S10796   0.766   5.833  10.343 -0.5599 -0.5255  1.8852
  106OSM     O310797   0.809   5.939  10.497  0.5125 -0.0322  0.0217
  106OSM    HO310798   0.799   5.876  10.569  2.9961  1.0952  1.4977
  106OSM    C4S10799   0.689   6.033  10.313  0.2810 -0.3331 -0.5155
  106OSM    H4S10800   0.669   6.025  10.205 -0.7584  0.8472 -0.4318
  106OSM    C5S10801   0.656   6.153  10.367  0.2410 -0.4860 -0.1849
  106OSM    H5S10802   0.647   6.157  10.476 -0.3854  1.5423 -0.2690
  106OSM    C6S10803   0.615   6.275  10.284  0.3163  0.4302  0.8638
  106OSM    H6S10804   0.706   6.338  10.297  2.0390 -2.0165  1.3966
  106OSM    H6T10805   0.541   6.334  10.342 -2.1232 -0.7624 -0.8461
  106OSM    C7S10806   0.572   6.260  10.133  0.0873 -0.0120 -0.6391
  106OSM    H7S10807   0.465   6.233  10.147 -0.1455  1.8415  2.0693
  106OSM    H7T10808   0.639   6.189  10.079 -0.3716 -0.0527 -1.1592
  106OSM    C8S10809   0.573   6.400  10.072  0.1240  0.5537  0.3908
  106OSM    H8S10810   0.675   6.440  10.094  0.3865 -0.2244  0.6119
  106OSM    H8T10811   0.501   6.466  10.124  1.3628 -0.2180  3.3009
  106OSM    C9S10812   0.556   6.407   9.917 -0.2953 -0.3284  0.4204
  106OSM    H9S10813   0.465   6.350   9.890  0.3236 -1.1267 -0.0150
  106OSM    H9T10814   0.645   6.351   9.883  2.0144  2.3556  1.6306
  106OSM   C10S10815   0.567   6.547   9.856 -0.8058 -0.3064 -0.3263
  106OSM   H10S10816   0.639   6.602   9.920  0.9344 -1.8421 -0.8839
  106OSM   H10T10817   0.471   6.596   9.883 -0.7015  1.1393 -2.3489
  106OSM   C11S10818   0.623   6.548   9.713  0.1618 -0.4722 -0.1308
  106OSM   H11S10819   0.706   6.474   9.707 -1.0718 -1.9512  0.3037
  106OSM   H11T10820   0.666   6.645   9.683 -0.1327  0.1436  1.3551
  106OSM   C12S10821   0.522   6.497   9.609 -0.6109  0.5336  1.1012
  106OSM   H12S10822   0.418   6.529   9.633 -1.0015  1.4013 -1.4532
  106OSM   H12T10823   0.519   6.386   9.606 -1.4282  0.5189 -2.7651
  106OSM   C13S10824   0.549   6.526   9.458 -0.3582 -0.8773 -0.0180
  106OSM   H13S10825   0.574   6.635   9.460  3.0913 -1.5197  2.7004
  106OSM   H13T10826   0.456   6.507   9.402  0.9392 -0.7741 -2.3348
  106OSM   C14S10827   0.676   6.462   9.406  0.4478  0.2278  0.2850
  106OSM   H14S10828   0.669   6.351   9.412 -0.4510  0.3264  1.3333
  106OSM   H14T10829   0.759   6.495   9.472  1.8784  2.2425 -2.3422
  106OSM   C15S10830   0.708   6.494   9.260  0.2845 -0.2451  0.4067
  106OSM   H15S10831   0.720   6.604   9.253 -1.6771  0.1631  2.4937
  106OSM   H15T10832   0.613   6.474   9.207  0.4397  0.5557 -0.1977
  106OSM   C16S10833   0.821   6.411   9.208 -0.4376  0.1045  0.2967
  106OSM   H16S10834   0.794   6.303   9.213 -1.0667  0.2896  1.0856
  106OSM   H16T10835   0.903   6.430   9.280  0.5252  0.9079 -0.9637
  106OSM   C17S10836   0.857   6.449   9.061 -0.3807 -0.4850  0.3447
  106OSM   H17S10837   0.774   6.455   8.987  0.7887  0.0284 -0.9802
  106OSM   H17T10838   0.931   6.378   9.018  0.1818  1.3198 -1.8545
  106OSM   C18S10839   0.939   6.580   9.058 -0.1938 -0.1408  0.0136
  106OSM   H18S10840   0.883   6.668   9.096 -1.8932 -0.7659 -0.9743
  106OSM   H18T10841   0.975   6.601   8.955 -1.0060 -2.9132 -0.9357
  106OSM   H18U10842   1.030   6.571   9.121 -0.7364  1.0191  1.0007
  106OSM    C1F10843   0.348   5.829  10.382  0.7718 -0.3141  0.6946
  106OSM     OF10844   0.307   5.877  10.487 -0.1462  0.2149  0.5835
  106OSM    C2F10845   0.249   5.786  10.273  0.0884  0.7582 -1.5317
  106OSM    H2F10846   0.185   5.726  10.341  0.6145  1.2606 -0.5742
  106OSM    H2G10847   0.297   5.728  10.191  0.8512 -1.4661  0.3770
  106OSM    C3F10848   0.167   5.902  10.215 -0.6449 -0.0652 -0.8770
  106OSM    H3F10849   0.129   5.966  10.297 -0.5046 -2.4501  1.1710
  106OSM    H3G10850   0.087   5.853  10.156 -2.3123  2.2859 -0.7235
  106OSM    C4F10851   0.245   5.990  10.117 -0.0474 -0.0117  0.3347
  106OSM    H4F10852   0.327   6.036  10.176  0.7947 -2.0008  0.8008
  106OSM    H4G10853   0.183   6.070  10.071  0.3693 -0.0134 -0.2382
  106OSM    C5F10854   0.311   5.909  10.000 -0.4354 -0.2649 -0.0306
  106OSM    H5F10855   0.245   5.825   9.970  1.7317 -1.1793 -2.6787
  106OSM    H5G10856   0.406   5.870  10.040 -1.6348 -0.8633  2.4387
  106OSM    C6F10857   0.349   6.000   9.882  0.3736  0.3898  0.2936
  106OSM    H6F10858   0.414   6.085   9.910 -0.9058  1.0045  1.4887
  106OSM    H6G10859   0.255   6.038   9.837 -0.1215 -0.6222  0.4456
  106OSM    C7F10860   0.419   5.925   9.765  0.0055  0.0732 -0.7667
  106OSM    H7F10861   0.365   5.832   9.737  0.8379 -0.9008  0.7187
  106OSM    H7G10862   0.516   5.889   9.805 -0.0509  0.0942 -0.6097
  106OSM    C8F10863   0.466   5.998   9.644  0.1298  0.3042  0.4673
  106OSM    H8F10864   0.541   5.940   9.587 -2.9518 -0.9781 -2.6123
  106OSM    H8G10865   0.522   6.087   9.680  1.5639 -0.8123  1.0851
  106OSM    C9F10866   0.355   6.030   9.550  0.2610  0.3774  0.3928
  106OSM    H9F10867   0.260   6.059   9.597  0.3823 -1.2931  1.7494
  106OSM   C10F10868   0.353   6.012   9.414  0.0670 -0.6122  0.4273
  106OSM   H10F10869   0.255   6.030   9.367  0.0896  0.3244  0.7204
  106OSM   C11F10870   0.457   5.958   9.320  0.3799 -0.0161  0.3607
  106OSM   H11F10871   0.474   5.850   9.340 -2.0958 -0.3174  1.1117
  106OSM   H11G10872   0.556   6.007   9.336 -0.4613  2.0526 -0.4680
  106OSM   C12F10873   0.433   5.980   9.171  0.0423 -0.6157  0.7460
  106OSM   H12F10874   0.329   5.946   9.154 -0.1712  0.1260  0.5344
  106OSM   H12G10875   0.512   5.923   9.117 -0.3354 -1.8719  1.4733
  106OSM   C13F10876   0.432   6.134   9.143 -0.5147 -0.1075  0.2756
  106OSM   H13F10877   0.525   6.165   9.195  0.2369  1.1791 -1.7007
  106OSM   H13G10878   0.343   6.182   9.189  0.1698  0.1788  1.3313
  106OSM   C14F10879   0.454   6.148   8.995 -0.4837  0.9726 -0.6259
  106OSM   H14F10880   0.352   6.148   8.952 -0.2623  1.9862 -1.1786
  106OSM   H14G10881   0.507   6.060   8.951 -0.8605  1.2395 -1.6465
  106OSM   C15F10882   0.537   6.268   8.947  0.3112 -0.2486 -0.4774
  106OSM   H15F10883   0.639   6.252   8.987  0.9109 -0.9290 -2.1847
  106OSM   H15G10884   0.479   6.353   8.988  0.0671 -1.6983  2.4982
  106OSM   C16F10885   0.545   6.271   8.799  0.5322 -0.1499 -0.1702
  106OSM   H16F10886   0.449   6.247   8.749 -1.3675 -0.2376  3.1955
  106OSM   H16G10887   0.615   6.190   8.773  0.5869 -0.7325  1.6369
  106OSM   C17F10888   0.590   6.401   8.732  0.7356 -0.3204  0.6038
  106OSM   H17F10889   0.686   6.417   8.786  1.1506 -2.0502  0.4307
  106OSM   H17G10890   0.524   6.489   8.750 -0.5131 -0.9751 -0.6058
  106OSM   C18F10891   0.610   6.386   8.579 -0.0727 -0.7335  0.6967
  106OSM   H18F10892   0.655   6.479   8.537  0.1580 -2.0874 -2.3487
  106OSM   H18G10893   0.515   6.360   8.528  0.7838 -3.3024  0.2546
  106OSM   H18H10894   0.675   6.298   8.560  0.5763 -0.2259  0.5217
  107OSM      N10895   3.667   1.396  11.204 -0.3168  0.1232  1.1275
  107OSM    C1510896   3.546   1.467  11.199  0.6122 -0.2810 -1.3071
  107OSM   H15A10897   3.480   1.440  11.280  1.3975  0.7642 -0.2734
  107OSM   H15B10898   3.489   1.470  11.108 -1.9202  0.1912  0.2061
  107OSM   H15C10899   3.561   1.571  11.224 -1.6986 -0.2183  0.1633
  107OSM    C1410900   3.709   1.391  11.346 -0.3119 -0.7233  0.2403
  107OSM   H14A10901   3.784   1.314  11.352  0.5551  0.0582 -0.3119
  107OSM   H14B10902   3.624   1.384  11.412 -0.5372 -0.9546 -0.0700
  107OSM   H14C10903   3.751   1.487  11.374 -1.8748  0.3602 -0.9558
  107OSM    C1310904   3.632   1.256  11.159 -0.2651  0.4239  1.4182
  107OSM   H13A10905   3.728   1.207  11.163  0.2870  1.3915  0.4086
  107OSM   H13B10906   3.592   1.254  11.059  3.4637 -1.6913 -0.2490
  107OSM   H13C10907   3.559   1.203  11.219 -1.3211 -0.2834 -0.3973
  107OSM    C1210908   3.769   1.458  11.110  0.2976 -0.5157  0.2675
  107OSM   H12A10909   3.859   1.400  11.117  2.3399  2.6265  3.1797
  107OSM   H12B10910   3.798   1.557  11.141 -2.2172  0.1113  0.8966
  107OSM    C1110911   3.745   1.463  10.954  0.6700  0.0200  0.0848
  107OSM   H11A10912   3.749   1.361  10.911  0.4297  0.7959 -1.9220
  107OSM   H11B10913   3.828   1.516  10.903  1.6604 -0.0224  1.5760
  107OSM      P10914   3.618   1.681  10.871 -0.1148  0.1566  0.2062
  107OSM    O1310915   3.480   1.724  10.847 -0.3111 -0.0873 -0.3095
  107OSM    O1410916   3.700   1.784  10.945  0.3137 -0.9736 -0.1201
  107OSM    O1110917   3.684   1.673  10.726  0.5277  0.2587 -0.7932
  107OSM    O1210918   3.629   1.529  10.916 -0.1125  0.4736 -1.0732
  107OSM    C1S10919   3.817   1.718  10.702 -0.0202  0.6625  0.6528
  107OSM    H1S10920   3.894   1.662  10.759 -1.3631 -1.7686  0.2376
  107OSM    H1T10921   3.829   1.820  10.742  0.6101  0.9392 -0.2160
  107OSM     NF10922   3.992   1.733  10.526  0.6959  0.0288  0.0659
  107OSM    HNF10923   4.030   1.816  10.485  1.2403 -0.7509 -1.0861
  107OSM    C2S10924   3.850   1.719  10.549  0.4796 -0.4135 -0.1889
  107OSM    H2S10925   3.813   1.628  10.498 -0.4707  0.8046 -1.7714
  107OSM    C3S10926   3.763   1.829  10.479  0.1941 -0.0647 -0.1779
  107OSM    H3S10927   3.801   1.928  10.513  0.0321 -0.7694  2.1887
  107OSM     O310928   3.626   1.843  10.516  0.0428  0.2471  0.2954
  107OSM    HO310929   3.607   1.764  10.567 -1.6237 -0.4028 -1.1904
  107OSM    C4S10930   3.783   1.821  10.329  0.2500 -0.3179  0.4956
  107OSM    H4S10931   3.839   1.909  10.293 -0.5724  0.4558  1.0705
  107OSM    C5S10932   3.708   1.740  10.256 -0.0249 -0.0368 -0.3253
  107OSM    H5S10933   3.627   1.684  10.304 -2.2674  1.2211 -2.4062
  107OSM    C6S10934   3.708   1.725  10.107 -0.0670  0.1668  1.1476
  107OSM    H6S10935   3.601   1.702  10.086  0.4120 -1.3947  0.2279
  107OSM    H6T10936   3.774   1.643  10.072 -0.1109  0.9361 -0.8708
  107OSM    C7S10937   3.754   1.845  10.025  0.0459 -0.7281  0.5968
  107OSM    H7S10938   3.855   1.878  10.059  0.6947 -1.7781 -0.2633
  107OSM    H7T10939   3.686   1.930  10.045  0.8916 -0.0688  0.7431
  107OSM    C8S10940   3.773   1.822   9.876  0.4132 -0.4410 -0.2394
  107OSM    H8S10941   3.687   1.873   9.827  0.5193  1.3518  1.3304
  107OSM    H8T10942   3.773   1.712   9.861 -2.2074 -0.2966 -1.9023
  107OSM    C9S10943   3.890   1.897   9.797  0.0932 -0.3458  0.2436
  107OSM    H9S10944   3.982   1.836   9.795  0.3520  0.0533 -0.2079
  107OSM    H9T10945   3.913   1.992   9.852 -0.5103 -0.8504  1.3959
  107OSM   C10S10946   3.854   1.930   9.651  0.3128 -0.2125 -0.0028
  107OSM   H10S10947   3.935   1.996   9.615 -0.5437  0.4530 -0.7550
  107OSM   H10T10948   3.764   1.994   9.664 -0.3088 -1.0502 -0.1120
  107OSM   C11S10949   3.824   1.804   9.560 -0.1930  0.0887  0.3184
  107OSM   H11S10950   3.731   1.751   9.591  0.7543 -3.6292 -2.4778
  107OSM   H11T10951   3.902   1.727   9.575 -0.6936 -1.4480 -3.7498
  107OSM   C12S10952   3.808   1.846   9.411 -0.4080 -0.2595 -0.2970
  107OSM   H12S10953   3.777   1.754   9.357 -2.5750  0.1064  0.2248
  107OSM   H12T10954   3.904   1.876   9.365  0.2513  0.6442  1.5630
  107OSM   C13S10955   3.705   1.961   9.380 -0.5650  0.3067  0.2760
  107OSM   H13S10956   3.720   2.059   9.431  1.4780 -0.6248  1.6199
  107OSM   H13T10957   3.608   1.925   9.422 -1.1343  0.4737 -0.8625
  107OSM   C14S10958   3.680   1.969   9.229 -0.3859 -0.9540  0.5663
  107OSM   H14S10959   3.625   1.875   9.206 -0.6829 -0.3753 -1.2604
  107OSM   H14T10960   3.780   1.974   9.181 -1.4357  0.4379 -1.6435
  107OSM   C15S10961   3.591   2.079   9.165 -0.7451  0.0482 -0.1246
  107OSM   H15S10962   3.652   2.172   9.172  1.4676 -1.4183  1.3364
  107OSM   H15T10963   3.499   2.108   9.219 -2.0489  0.4499 -2.4346
  107OSM   C16S10964   3.564   2.056   9.017  0.2116 -1.0305  0.3970
  107OSM   H16S10965   3.474   1.993   9.002 -0.3848 -0.0548 -0.2689
  107OSM   H16T10966   3.660   2.033   8.965  0.1635 -0.4969  0.0616
  107OSM   C17S10967   3.528   2.194   8.939 -0.5228  0.0572  0.2442
  107OSM   H17S10968   3.534   2.186   8.828 -2.9738  3.9692 -0.3983
  107OSM   H17T10969   3.608   2.268   8.959 -0.1701  0.5348 -2.5661
  107OSM   C18S10970   3.387   2.255   8.968  0.4190  0.2562 -0.2070
  107OSM   H18S10971   3.361   2.267   9.075  0.3536 -0.8545 -0.0881
  107OSM   H18T10972   3.315   2.179   8.934  1.1665  0.9703 -3.7910
  107OSM   H18U10973   3.353   2.343   8.909 -0.7411 -0.0925 -0.0792
  107OSM    C1F10974   4.071   1.628  10.559 -0.0509 -0.5150  0.1989
  107OSM     OF10975   4.015   1.524  10.596  0.4664 -0.7525  0.3715
  107OSM    C2F10976   4.213   1.649  10.552  0.0668  0.0615 -0.0383
  107OSM    H2F10977   4.243   1.643  10.659  1.8615 -2.7121 -0.5693
  107OSM    H2G10978   4.239   1.748  10.509  0.1993 -0.3354 -0.8955
  107OSM    C3F10979   4.285   1.522  10.494 -0.1236 -0.0203 -0.0086
  107OSM    H3F10980   4.265   1.434  10.559 -2.6879 -0.2821 -1.0522
  107OSM    H3G10981   4.391   1.554  10.490  0.1871 -0.5088  2.6065
  107OSM    C4F10982   4.228   1.491  10.354 -0.3309  0.1971  0.0338
  107OSM    H4F10983   4.121   1.464  10.369 -0.8777  2.7749  1.5307
  107OSM    H4G10984   4.284   1.400  10.324  1.7487  1.0068  1.2405
  107OSM    C5F10985   4.240   1.607  10.250 -0.2737 -0.0008  1.1105
  107OSM    H5F10986   4.347   1.638  10.245 -0.4468  0.7709  1.9302
  107OSM    H5G10987   4.193   1.705  10.274  0.1357  0.4670  0.0541
  107OSM    C6F10988   4.178   1.563  10.116 -0.2063  0.0084 -0.8209
  107OSM    H6F10989   4.069   1.550  10.131 -0.4759 -0.4673 -2.9614
  107OSM    H6G10990   4.230   1.465  10.104 -0.2119  0.2415 -3.0996
  107OSM    C7F10991   4.215   1.639   9.995 -0.6337 -0.0755  0.8626
  107OSM    H7F10992   4.324   1.637   9.974 -0.2763 -0.6604  2.5583
  107OSM    H7G10993   4.180   1.744   9.994  1.7993  0.8040  1.0940
  107OSM    C8F10994   4.147   1.573   9.870 -0.0582  1.0594  0.9025
  107OSM    H8F10995   4.039   1.574   9.897 -0.1398  3.6424  0.6993
  107OSM    H8G10996   4.171   1.465   9.856 -2.0280  0.8859 -2.2706
  107OSM    C9F10997   4.196   1.654   9.749  0.1558 -0.8062 -0.3199
  107OSM    H9F10998   4.234   1.756   9.765 -3.3800  0.6484 -0.3157
  107OSM   C10F10999   4.195   1.607   9.623 -0.1623  0.2807  0.7022
  107OSM   H10F11000   4.242   1.663   9.541 -0.5193  1.2177  1.1329
  107OSM   C11F11001   4.145   1.474   9.575 -0.9380  0.3555 -0.3080
  107OSM   H11F11002   4.043   1.449   9.611  0.0978 -1.1329  1.8542
  107OSM   H11G11003   4.204   1.404   9.639  0.1185  1.2350 -0.2825
  107OSM   C12F11004   4.162   1.444   9.428 -0.6545 -0.6162  0.4811
  107OSM   H12F11005   4.161   1.335   9.406  0.9457 -0.1878 -2.1160
  107OSM   H12G11006   4.259   1.471   9.380 -0.8810 -1.1495 -0.2990
  107OSM   C13F11007   4.052   1.522   9.346  0.3088 -0.6232 -0.2593
  107OSM   H13F11008   4.079   1.629   9.349  0.0959 -0.5165 -1.7751
  107OSM   H13G11009   3.950   1.507   9.389  0.0372  1.6244 -0.0213
  107OSM   C14F11010   4.047   1.478   9.206 -0.1311  0.5577 -0.2360
  107OSM   H14F11011   3.964   1.526   9.150 -0.3267  1.7751  1.0647
  107OSM   H14G11012   4.031   1.368   9.213 -1.9355  0.7092 -1.3101
  107OSM   C15F11013   4.177   1.509   9.128  0.3393  0.4511  1.1275
  107OSM   H15F11014   4.260   1.442   9.158  0.3864  0.3789  0.8443
  107OSM   H15G11015   4.204   1.616   9.139  0.4985  0.5976 -0.4058
  107OSM   C16F11016   4.163   1.482   8.974 -0.2270 -0.3868  0.0773
  107OSM   H16F11017   4.254   1.488   8.910 -1.1799  0.1183 -1.2725
  107OSM   H16G11018   4.085   1.547   8.931  1.5995  0.5094 -2.0854
  107OSM   C17F11019   4.118   1.340   8.945 -0.6942 -0.1498  0.6539
  107OSM   H17F11020   4.013   1.327   8.977 -1.3965  3.0469 -0.0507
  107OSM   H17G11021   4.183   1.266   8.996 -2.0552 -1.5616  0.4050
  107OSM   C18F11022   4.126   1.305   8.795 -0.3725  0.3255  0.1787
  107OSM   H18F11023   4.212   1.357   8.747 -1.9000  0.9371 -2.0741
  107OSM   H18G11024   4.029   1.317   8.742 -1.3956 -1.8096  1.4544
  107OSM   H18H11025   4.155   1.198   8.791  1.4894  0.8123 -1.6930
  108OSM      N11026   1.761   2.933  11.111 -0.5321  0.4290 -0.5082
  108OSM    C1511027   1.747   3.069  11.060  0.1293 -1.0649 -0.4601
  108OSM   H15A11028   1.642   3.090  11.056 -0.4351 -3.5702 -0.8522
  108OSM   H15B11029   1.798   3.075  10.965 -1.6283 -0.3038 -1.4032
  108OSM   H15C11030   1.795   3.141  11.124  1.2151 -2.6323  0.5646
  108OSM    C1411031   1.724   2.937  11.254  0.1988  0.0471 -0.3963
  108OSM   H14A11032   1.798   2.989  11.312 -2.3298  1.7281  1.5521
  108OSM   H14B11033   1.727   2.842  11.306  0.6653  0.3898  0.2157
  108OSM   H14C11034   1.629   2.985  11.271 -0.1875 -0.5896 -0.6955
  108OSM    C1311035   1.664   2.847  11.033 -0.7638 -0.3596  0.2474
  108OSM   H13A11036   1.565   2.883  11.058 -0.0193  0.5320  2.1371
  108OSM   H13B11037   1.678   2.745  11.067 -1.4875 -0.3866  0.4722
  108OSM   H13C11038   1.684   2.848  10.927  0.9321 -2.1906  0.4975
  108OSM    C1211039   1.904   2.886  11.103  0.2585  0.4558 -0.4563
  108OSM   H12A11040   1.919   2.798  11.164 -1.9718  0.4326  0.1699
  108OSM   H12B11041   1.966   2.962  11.147  1.2070  0.4886 -1.7898
  108OSM    C1111042   1.961   2.856  10.963  0.0787  0.0151 -0.0003
  108OSM   H11A11043   1.899   2.775  10.922  1.1562 -0.7056 -0.2382
  108OSM   H11B11044   2.063   2.817  10.981 -0.7168 -2.3207 -0.2980
  108OSM      P11045   2.044   2.979  10.735  0.5036 -0.0869  0.2557
  108OSM    O1311046   1.986   3.066  10.638  0.3234  0.4171 -0.0968
  108OSM    O1411047   2.176   3.022  10.788  0.0396  0.3400 -0.4797
  108OSM    O1111048   2.055   2.829  10.692  0.4002 -0.4418  0.9431
  108OSM    O1211049   1.962   2.971  10.873 -0.2084  0.8155 -0.2292
  108OSM    C1S11050   1.942   2.757  10.638 -0.2244  0.2289 -0.3349
  108OSM    H1S11051   1.853   2.823  10.639 -1.4145 -1.3169  0.8087
  108OSM    H1T11052   1.926   2.673  10.709  1.5967  0.0637 -0.0554
  108OSM     NF11053   1.842   2.640  10.442 -0.1149  0.0656  0.1152
  108OSM    HNF11054   1.834   2.542  10.460  1.5782 -0.3447 -1.2065
  108OSM    C2S11055   1.961   2.701  10.496  1.1133  0.0793 -0.1385
  108OSM    H2S11056   1.972   2.791  10.433  0.8877 -0.9637 -1.7166
  108OSM    C3S11057   2.081   2.606  10.487 -0.4622 -0.2255 -0.0482
  108OSM    H3S11058   2.054   2.524  10.557 -0.1779  0.6345  1.1112
  108OSM     O311059   2.196   2.665  10.546 -0.1213  0.0816  0.2344
  108OSM    HO311060   2.166   2.726  10.613  1.1437 -0.4189  1.2905
  108OSM    C4S11061   2.116   2.560  10.348 -0.2664 -0.0753  0.1306
  108OSM    H4S11062   2.082   2.457  10.332  1.5293 -1.3379  3.3819
  108OSM    C5S11063   2.198   2.615  10.252  0.1539 -0.0723 -0.1834
  108OSM    H5S11064   2.250   2.710  10.275  2.3120 -1.2243 -0.0920
  108OSM    C6S11065   2.224   2.555  10.120 -0.4017  0.2056  0.3480
  108OSM    H6S11066   2.334   2.553  10.104 -0.2283 -0.0031  1.4959
  108OSM    H6T11067   2.184   2.627  10.045 -0.9148  0.1778  0.5888
  108OSM    C7S11068   2.151   2.423  10.087  0.2267 -0.2623 -0.1437
  108OSM    H7S11069   2.049   2.428  10.129  0.5137 -1.2892  0.7296
  108OSM    H7T11070   2.211   2.335  10.117  1.0410 -0.2516 -1.6285
  108OSM    C8S11071   2.134   2.406   9.930 -0.0337 -0.5320  0.0304
  108OSM    H8S11072   2.232   2.404   9.878  0.7062  0.2437  1.3694
  108OSM    H8T11073   2.081   2.498   9.895  2.6529  0.5218 -1.5402
  108OSM    C9S11074   2.044   2.280   9.894 -0.2037 -0.1977 -0.0372
  108OSM    H9S11075   1.963   2.261   9.968  0.1220 -2.5595 -0.2035
  108OSM    H9T11076   2.099   2.186   9.915  0.8304  0.7168  1.5692
  108OSM   C10S11077   2.002   2.279   9.749 -0.3676 -0.6321 -0.4710
  108OSM   H10S11078   1.987   2.380   9.706 -3.0687 -0.6757  0.1633
  108OSM   H10T11079   1.903   2.229   9.741 -0.6500  0.1449 -2.1972
  108OSM   C11S11080   2.107   2.197   9.669  0.2990 -0.0334  1.0398
  108OSM   H11S11081   2.104   2.095   9.713 -0.5721 -0.9314 -0.9563
  108OSM   H11T11082   2.210   2.237   9.679  0.7073 -0.2134 -1.5976
  108OSM   C12S11083   2.064   2.193   9.523  0.2594 -0.2650 -0.3043
  108OSM   H12S11084   2.050   2.294   9.481 -3.2882 -0.7490 -0.5942
  108OSM   H12T11085   1.960   2.156   9.527  0.6372 -1.6211 -1.6888
  108OSM   C13S11086   2.150   2.094   9.434 -0.3178  0.0882  0.0086
  108OSM   H13S11087   2.169   1.998   9.487 -1.4258  0.0262  0.3271
  108OSM   H13T11088   2.249   2.137   9.411 -0.2301 -0.3924 -0.5286
  108OSM   C14S11089   2.083   2.058   9.302 -1.0086 -0.1562  0.9015
  108OSM   H14S11090   2.042   2.149   9.255  0.0296  0.0999  0.4613
  108OSM   H14T11091   2.003   1.981   9.309 -1.1837 -0.2485 -1.2908
  108OSM   C15S11092   2.174   1.979   9.199 -0.4222  0.1649 -0.3916
  108OSM   H15S11093   2.217   1.893   9.255  1.7924  0.7349 -1.1181
  108OSM   H15T11094   2.247   2.056   9.168 -1.8482  2.8801  2.4295
  108OSM   C16S11095   2.092   1.919   9.078  0.1582  0.1215  0.4511
  108OSM   H16S11096   2.020   1.994   9.040 -1.9605 -1.5761  0.9054
  108OSM   H16T11097   2.024   1.838   9.113 -0.3407  0.3315 -0.0140
  108OSM   C17S11098   2.192   1.854   8.977 -0.7703  0.2839 -0.6406
  108OSM   H17S11099   2.251   1.780   9.035 -2.7730 -1.8602 -1.1857
  108OSM   H17T11100   2.256   1.940   8.946 -0.4766  1.1675  2.1329
  108OSM   C18S11101   2.137   1.786   8.854  0.4772  0.0394 -0.2008
  108OSM   H18S11102   2.219   1.750   8.789 -0.7886  0.6070 -2.2204
  108OSM   H18T11103   2.087   1.862   8.790 -0.0698 -0.0391  0.1223
  108OSM   H18U11104   2.069   1.702   8.879  1.5583 -0.8633 -0.2509
  108OSM    C1F11105   1.726   2.706  10.414 -0.1228  0.8347 -0.0511
  108OSM     OF11106   1.710   2.825  10.424 -0.2108 -0.4647 -0.5323
  108OSM    C2F11107   1.605   2.617  10.382  0.5247 -0.1738 -0.7253
  108OSM    H2F11108   1.529   2.640  10.460  1.0398  0.7408 -0.4836
  108OSM    H2G11109   1.633   2.516  10.417  1.5226  0.2803 -0.1710
  108OSM    C3F11110   1.559   2.623  10.242  0.6609  0.0010  0.0124
  108OSM    H3F11111   1.539   2.726  10.207  1.9611  1.5396  3.4105
  108OSM    H3G11112   1.467   2.561  10.240  1.2293 -0.8613 -0.4503
  108OSM    C4F11113   1.656   2.552  10.141  0.0870 -0.0836 -0.3834
  108OSM    H4F11114   1.686   2.458  10.192 -0.4101 -0.3636 -0.5925
  108OSM    H4G11115   1.748   2.612  10.124 -1.4883  1.4335 -5.0765
  108OSM    C5F11116   1.582   2.548  10.001  0.1087 -0.1141  0.2648
  108OSM    H5F11117   1.596   2.648   9.955 -0.1521  0.8971  2.2497
  108OSM    H5G11118   1.476   2.539  10.034  0.2955  2.3708  1.8143
  108OSM    C6F11119   1.635   2.432   9.923  0.0963 -0.1020 -0.2759
  108OSM    H6F11120   1.640   2.346   9.993 -0.3987 -1.5386 -1.9433
  108OSM    H6G11121   1.742   2.453   9.904  0.3261 -0.2087  0.8368
  108OSM    C7F11122   1.552   2.413   9.801 -0.0745 -0.2178  0.2063
  108OSM    H7F11123   1.550   2.510   9.747 -0.8944 -0.3763 -0.0698
  108OSM    H7G11124   1.444   2.400   9.824 -0.1127 -1.5257 -0.6066
  108OSM    C8F11125   1.599   2.288   9.724 -0.3598 -0.0623 -0.0104
  108OSM    H8F11126   1.614   2.218   9.809  0.5867  1.3045  1.0081
  108OSM    H8G11127   1.698   2.309   9.678 -0.2594  1.3462  0.7763
  108OSM    C9F11128   1.496   2.236   9.622 -0.0968 -0.2017  0.0706
  108OSM    H9F11129   1.394   2.223   9.660 -0.1691 -1.0507 -0.3857
  108OSM   C10F11130   1.521   2.193   9.494  0.0333  0.5188 -0.8758
  108OSM   H10F11131   1.440   2.151   9.433  0.2578 -0.9247 -0.2195
  108OSM   C11F11132   1.653   2.198   9.426  0.5347 -0.7003 -0.3266
  108OSM   H11F11133   1.735   2.152   9.485  1.7582 -0.7264 -1.9709
  108OSM   H11G11134   1.675   2.305   9.410 -1.1657 -0.2876 -0.0632
  108OSM   C12F11135   1.670   2.131   9.285  0.3294 -0.0247  0.0911
  108OSM   H12F11136   1.645   2.023   9.285  0.6233 -0.1089 -1.0735
  108OSM   H12G11137   1.776   2.131   9.251 -0.1026  1.7779 -1.4360
  108OSM   C13F11138   1.592   2.208   9.176 -0.6144 -0.4124  0.7292
  108OSM   H13F11139   1.485   2.229   9.199 -1.2754 -2.6899  0.0522
  108OSM   H13G11140   1.581   2.147   9.083 -1.7951  1.2085 -0.2515
  108OSM   C14F11141   1.668   2.337   9.136  0.4713 -0.1794 -0.1324
  108OSM   H14F11142   1.771   2.318   9.099 -0.1300 -2.2747 -0.8399
  108OSM   H14G11143   1.665   2.416   9.214  2.5464  0.8343 -0.9984
  108OSM   C15F11144   1.609   2.400   9.010  0.6708  0.3581  0.0766
  108OSM   H15F11145   1.500   2.418   9.023  1.1529  1.8066  3.1375
  108OSM   H15G11146   1.623   2.325   8.930 -2.3913  0.2912 -0.5175
  108OSM   C16F11147   1.667   2.538   8.966  0.1411 -0.2736 -0.3239
  108OSM   H16F11148   1.775   2.519   8.954 -0.1458 -1.7377 -0.7410
  108OSM   H16G11149   1.647   2.617   9.042  0.5135  0.3830 -0.9039
  108OSM   C17F11150   1.610   2.579   8.835  0.0443  0.2224 -0.1397
  108OSM   H17F11151   1.500   2.565   8.831  0.1126 -1.3105  1.9857
  108OSM   H17G11152   1.655   2.507   8.763  1.2147  2.3089 -1.6168
  108OSM   C18F11153   1.642   2.722   8.794  0.4799  0.1158  0.2062
  108OSM   H18F11154   1.751   2.733   8.779  0.3351 -0.4429 -1.3881
  108OSM   H18G11155   1.596   2.794   8.865 -1.0896  1.3056 -1.9098
  108OSM   H18H11156   1.605   2.750   8.693  0.5926 -1.3327 -0.2460
  109OSM      N11157   1.107   1.195  11.147 -0.0193  0.1857 -0.2950
  109OSM    C1511158   1.041   1.320  11.198  0.3006 -0.4153 -0.4688
  109OSM   H15A11159   0.952   1.293  11.254  0.3088  1.9605  0.8534
  109OSM   H15B11160   1.004   1.381  11.117 -0.2787  0.3838  0.3702
  109OSM   H15C11161   1.105   1.373  11.268 -2.1038  1.8796  0.1863
  109OSM    C1411162   1.176   1.135  11.267 -0.6169 -0.0346 -0.1156
  109OSM   H14A11163   1.233   1.049  11.235 -2.8841 -3.2085  3.5058
  109OSM   H14B11164   1.115   1.087  11.342 -0.7755  1.2345  0.5931
  109OSM   H14C11165   1.228   1.206  11.329  0.9899  0.8703 -2.3542
  109OSM    C1311166   0.997   1.103  11.106  0.7944 -0.0215  0.3506
  109OSM   H13A11167   1.037   1.037  11.030 -0.7638  0.1659 -0.6779
  109OSM   H13B11168   0.918   1.155  11.054 -0.3307  0.3863  2.3557
  109OSM   H13C11169   0.954   1.043  11.184 -1.2096 -0.5905 -1.1083
  109OSM    C1211170   1.202   1.225  11.038  0.0268 -0.2746 -0.6621
  109OSM   H12A11171   1.262   1.137  11.018  2.6508  1.5090 -1.2046
  109OSM   H12B11172   1.281   1.286  11.078  1.1652 -2.1682  0.1402
  109OSM    C1111173   1.153   1.284  10.900 -0.4769  0.6028 -0.0702
  109OSM   H11A11174   1.064   1.223  10.873  0.2232  0.2625 -1.8019
  109OSM   H11B11175   1.233   1.267  10.824  1.0733  0.8266  1.4458
  109OSM      P11176   1.216   1.527  10.926  0.0989  0.0199 -0.0718
  109OSM    O1311177   1.156   1.659  10.946  0.4149 -0.3052 -1.1878
  109OSM    O1411178   1.311   1.493  11.036  0.1338  0.0779  0.1472
  109OSM    O1111179   1.296   1.532  10.790 -0.2347 -0.1535  0.3500
  109OSM    O1211180   1.100   1.419  10.911  0.2116 -0.2337  0.0882
  109OSM    C1S11181   1.225   1.557  10.667 -0.4436  0.8944  0.2636
  109OSM    H1S11182   1.194   1.664  10.668 -1.4951  0.6787 -2.1519
  109OSM    H1T11183   1.136   1.491  10.658  0.6747 -0.4406 -1.5433
  109OSM     NF11184   1.221   1.584  10.430 -0.4209  0.9733 -0.3403
  109OSM    HNF11185   1.156   1.521  10.389  1.3366 -1.8798  0.9423
  109OSM    C2S11186   1.310   1.535  10.538  0.2519 -0.0323  0.0819
  109OSM    H2S11187   1.389   1.613  10.545 -0.7162  0.8795  1.2674
  109OSM    C3S11188   1.372   1.386  10.526 -0.6948 -0.0737 -0.1821
  109OSM    H3S11189   1.288   1.314  10.535  1.3782 -2.9574 -2.0218
  109OSM     O311190   1.459   1.353  10.638 -0.0797  0.0298 -0.3959
  109OSM    HO311191   1.442   1.417  10.707  0.3400 -0.8308  0.5206
  109OSM    C4S11192   1.439   1.365  10.394 -0.4933  0.1924  0.6658
  109OSM    H4S11193   1.371   1.350  10.309  0.2988  2.8463 -0.5472
  109OSM    C5S11194   1.572   1.384  10.364 -0.0139  0.6046  0.2822
  109OSM    H5S11195   1.644   1.419  10.439 -0.8961 -1.1718  2.0814
  109OSM    C6S11196   1.635   1.367  10.228  0.4722  0.1085  0.4123
  109OSM    H6S11197   1.727   1.305  10.236  0.2458 -1.0997 -3.9815
  109OSM    H6T11198   1.667   1.467  10.190  3.0603 -0.6222  0.4417
  109OSM    C7S11199   1.548   1.300  10.122 -0.7121 -0.0127 -0.5371
  109OSM    H7S11200   1.459   1.358  10.087  1.0757  3.2714 -0.0275
  109OSM    H7T11201   1.525   1.193  10.144 -1.3139  0.3819  0.8755
  109OSM    C8S11202   1.631   1.284   9.993 -0.5843 -0.1201  0.6828
  109OSM    H8S11203   1.703   1.199   9.989 -0.8074 -0.2536 -1.2640
  109OSM    H8T11204   1.692   1.376   9.991 -1.9195  0.8059  0.7610
  109OSM    C9S11205   1.541   1.277   9.866 -0.0517  0.3380  0.0293
  109OSM    H9S11206   1.481   1.370   9.855 -0.6284 -0.0687 -0.2929
  109OSM    H9T11207   1.469   1.195   9.889 -0.6483  1.6278  3.3274
  109OSM   C10S11208   1.623   1.250   9.744  0.4311  0.0958 -0.4847
  109OSM   H10S11209   1.689   1.162   9.762 -1.3945 -1.1090  0.6249
  109OSM   H10T11210   1.691   1.332   9.711  1.8542 -1.6123 -2.0709
  109OSM   C11S11211   1.532   1.215   9.624  0.4628 -0.0058 -0.2022
  109OSM   H11S11212   1.479   1.120   9.644  0.0990  0.5369  1.5898
  109OSM   H11T11213   1.601   1.196   9.539  0.4709  1.5371 -0.5773
  109OSM   C12S11214   1.420   1.312   9.590 -0.8163  0.1705 -0.3975
  109OSM   H12S11215   1.457   1.416   9.580 -0.6605  0.2623  0.9619
  109OSM   H12T11216   1.355   1.307   9.680  0.0186 -1.5119  0.1612
  109OSM   C13S11217   1.347   1.261   9.469 -0.2689 -0.1087  0.3699
  109OSM   H13S11218   1.245   1.307   9.466  0.1204  0.8366  0.9698
  109OSM   H13T11219   1.347   1.150   9.461 -1.1184 -0.1731  1.0656
  109OSM   C14S11220   1.410   1.305   9.332  0.2694  0.7923  0.0187
  109OSM   H14S11221   1.521   1.302   9.326  0.4436 -2.4374  2.2725
  109OSM   H14T11222   1.376   1.410   9.321  0.6184  0.9314  0.2366
  109OSM   C15S11223   1.362   1.205   9.226  0.3175 -0.5193 -0.8918
  109OSM   H15S11224   1.251   1.200   9.230  0.3050 -1.5757 -2.0319
  109OSM   H15T11225   1.404   1.105   9.250 -0.6038 -1.4366 -2.8691
  109OSM   C16S11226   1.420   1.250   9.091 -0.3331  0.2617 -0.3291
  109OSM   H16S11227   1.528   1.229   9.078 -0.1438  0.4292  0.8759
  109OSM   H16T11228   1.403   1.360   9.094 -2.7701 -0.0869  1.9189
  109OSM   C17S11229   1.352   1.173   8.979  0.1308 -0.6161 -0.1230
  109OSM   H17S11230   1.381   1.212   8.879  0.7695  0.6020  0.5255
  109OSM   H17T11231   1.242   1.178   8.998  0.4618  2.6561  1.6447
  109OSM   C18S11232   1.389   1.022   8.978 -0.6363  0.2499  0.2120
  109OSM   H18S11233   1.338   0.983   8.888 -1.1608  2.4994 -0.5418
  109OSM   H18T11234   1.372   0.961   9.069 -1.8629  0.7060  0.3056
  109OSM   H18U11235   1.497   1.006   8.957 -0.6856  1.0130 -0.6806
  109OSM    C1F11236   1.193   1.710  10.397 -0.2104  0.4135  0.3062
  109OSM     OF11237   1.284   1.792  10.416  0.0108  0.0662  0.3340
  109OSM    C2F11238   1.064   1.740  10.337 -1.0297  0.8434 -0.2043
  109OSM    H2F11239   0.987   1.725  10.415 -0.2373 -0.0826  0.4281
  109OSM    H2G11240   1.043   1.653  10.272 -0.3608 -2.4395  3.5905
  109OSM    C3F11241   1.061   1.871  10.262 -0.2708 -0.4658  0.3050
  109OSM    H3F11242   1.146   1.888  10.193  1.4970 -1.0829  2.2172
  109OSM    H3G11243   1.073   1.960  10.328  0.1132 -0.0028 -0.3808
  109OSM    C4F11244   0.936   1.900  10.180 -0.2366  0.1369 -0.5015
  109OSM    H4F11245   0.940   1.996  10.125 -2.4067 -0.4207 -1.7527
  109OSM    H4G11246   0.852   1.899  10.253 -0.2221 -1.7546 -0.4610
  109OSM    C5F11247   0.899   1.789  10.068 -0.5069 -0.1636  0.1194
  109OSM    H5F11248   0.866   1.693  10.112 -0.4714 -0.0741  0.3434
  109OSM    H5G11249   0.999   1.784  10.019  0.6912 -0.8209  2.4929
  109OSM    C6F11250   0.801   1.844   9.967  0.9658  0.5367 -0.5792
  109OSM    H6F11251   0.831   1.947   9.939 -1.3653  2.0318  1.9462
  109OSM    H6G11252   0.708   1.864  10.024  1.2809  1.2405 -0.2944
  109OSM    C7F11253   0.757   1.749   9.852 -0.3087  0.8856  0.5615
  109OSM    H7F11254   0.761   1.646   9.894 -1.6566  0.5680 -0.0354
  109OSM    H7G11255   0.831   1.744   9.769  2.1483 -1.1294  2.6843
  109OSM    C8F11256   0.614   1.770   9.798 -0.2460  1.0295 -0.3386
  109OSM    H8F11257   0.598   1.880   9.796 -1.0489  0.9396  0.3841
  109OSM    H8G11258   0.536   1.729   9.866 -0.9447 -2.2985 -2.8674
  109OSM    C9F11259   0.574   1.706   9.662 -0.1453 -0.3405 -1.3461
  109OSM    H9F11260   0.504   1.625   9.688  1.1053 -1.0346  0.0551
  109OSM   C10F11261   0.624   1.729   9.541  0.9662 -0.0954 -0.2101
  109OSM   H10F11262   0.574   1.684   9.454 -2.1917  2.3311  0.1845
  109OSM   C11F11263   0.726   1.835   9.511  0.0040 -0.1638 -0.0198
  109OSM   H11F11264   0.813   1.806   9.448 -0.0906  2.6418 -1.6217
  109OSM   H11G11265   0.756   1.885   9.605 -0.5058  0.3773 -0.1387
  109OSM   C12F11266   0.657   1.933   9.410  0.0438 -0.5842 -0.4933
  109OSM   H12F11267   0.725   2.021   9.407 -1.3556  0.5146 -2.7004
  109OSM   H12G11268   0.569   1.981   9.456  0.8659  0.2504  0.2555
  109OSM   C13F11269   0.617   1.870   9.279  0.3969 -0.1267  0.1532
  109OSM   H13F11270   0.528   1.805   9.289  0.3885 -0.5377 -1.9916
  109OSM   H13G11271   0.698   1.801   9.246 -0.8414 -1.8702  0.6524
  109OSM   C14F11272   0.591   1.970   9.158  0.3425 -0.0828 -0.5475
  109OSM   H14F11273   0.507   2.038   9.184  0.4201 -1.2352  3.4205
  109OSM   H14G11274   0.569   1.909   9.068  3.0982  0.6092 -1.8055
  109OSM   C15F11275   0.705   2.068   9.122  0.1868  0.2044  0.0193
  109OSM   H15F11276   0.797   2.007   9.112  0.4159  0.5705 -0.1711
  109OSM   H15G11277   0.725   2.152   9.193 -0.1187 -0.0787  0.4461
  109OSM   C16F11278   0.675   2.126   8.984 -0.1076 -0.2066 -0.0593
  109OSM   H16F11279   0.621   2.054   8.919 -1.9962 -0.6284  1.8527
  109OSM   H16G11280   0.765   2.159   8.928  1.3105 -2.4896  0.7372
  109OSM   C17F11281   0.590   2.253   8.996 -0.0479  0.1052 -0.4720
  109OSM   H17F11282   0.636   2.326   9.066 -2.5127  1.3825 -0.0554
  109OSM   H17G11283   0.490   2.234   9.041  0.1166  0.9914  0.3064
  109OSM   C18F11284   0.559   2.306   8.862  0.3638 -0.1883  0.6178
  109OSM   H18F11285   0.493   2.394   8.878 -0.7878 -1.0673  0.7812
  109OSM   H18G11286   0.501   2.237   8.798  0.8392  0.3160 -0.3879
  109OSM   H18H11287   0.660   2.333   8.823  0.0610  0.6703  0.3956
  110OSM      N11288   0.872   6.113  10.836 -0.0977 -0.0448  0.2023
  110OSM    C1511289   0.935   5.981  10.843 -0.0675 -0.1107  0.7031
  110OSM   H15A11290   0.933   5.922  10.753 -0.2640 -1.4307  1.5451
  110OSM   H15B11291   0.889   5.921  10.920 -1.5515  0.0053 -0.0639
  110OSM   H15C11292   1.036   5.981  10.881  0.6861 -2.3614 -1.0560
  110OSM    C1411293   0.884   6.173  10.973  0.4148 -0.6400  0.1337
  110OSM   H14A11294   0.989   6.181  10.997  0.7581  1.3984 -1.7412
  110OSM   H14B11295   0.825   6.123  11.048 -2.5734  1.0552 -0.9532
  110OSM   H14C11296   0.830   6.267  10.972 -4.2229 -3.0116 -2.0653
  110OSM    C1311297   0.949   6.192  10.741  0.1085 -0.4522 -0.1764
  110OSM   H13A11298   1.054   6.200  10.765  0.2456  2.2655 -1.3269
  110OSM   H13B11299   0.901   6.288  10.734  1.1796  0.0607 -0.6699
  110OSM   H13C11300   0.955   6.146  10.644  1.1038  1.5763 -1.1122
  110OSM    C1211301   0.723   6.105  10.789 -0.0371 -0.1371 -0.5887
  110OSM   H12A11302   0.668   6.042  10.858 -0.8222  1.2075  0.0515
  110OSM   H12B11303   0.723   6.053  10.695 -1.5610  0.2644 -0.8331
  110OSM    C1111304   0.641   6.237  10.769  0.0159  0.1294 -0.0683
  110OSM   H11A11305   0.556   6.199  10.708 -0.3496 -2.4047  1.8476
  110OSM   H11B11306   0.693   6.311  10.705 -1.6714  1.7230  0.2891
  110OSM      P11307   0.454   6.263  10.961  0.6377  0.2407  0.0603
  110OSM    O1311308   0.453   6.122  11.016 -0.2635  0.6508  0.0277
  110OSM    O1411309   0.417   6.378  11.051  0.0991  0.1473  0.0657
  110OSM    O1111310   0.366   6.264  10.830  0.3798  0.0180 -0.0650
  110OSM    O1211311   0.593   6.295  10.899 -0.6642 -0.1240  0.1483
  110OSM    C1S11312   0.307   6.392  10.789 -0.7368 -0.1374 -0.3083
  110OSM    H1S11313   0.374   6.480  10.802 -2.3373  1.0229  0.3905
  110OSM    H1T11314   0.209   6.416  10.836 -0.6713  1.0885 -0.7688
  110OSM     NF11315   0.200   6.523  10.617 -0.3602  0.2002 -0.2353
  110OSM    HNF11316   0.101   6.528  10.611 -0.3310  1.8274  0.0911
  110OSM    C2S11317   0.257   6.389  10.647 -0.1211 -1.3789  0.1515
  110OSM    H2S11318   0.343   6.386  10.576 -0.8844 -1.2422 -0.8051
  110OSM    C3S11319   0.164   6.265  10.614  0.2778  0.0581 -0.3808
  110OSM    H3S11320   0.068   6.275  10.670 -0.5659  0.3868 -1.8533
  110OSM     O311321   0.217   6.138  10.648  0.1403  0.3435  0.1575
  110OSM    HO311322   0.289   6.163  10.707  0.8612  2.8337 -1.6175
  110OSM    C4S11323   0.147   6.267  10.469  0.3977 -0.3786  0.4830
  110OSM    H4S11324   0.232   6.231  10.408  1.2182 -2.0974  2.4993
  110OSM    C5S11325   0.037   6.312  10.407  0.3962 -0.0855  0.8670
  110OSM    H5S11326  -0.043   6.352  10.471  1.4026  1.3728  1.2685
  110OSM    C6S11327  -0.003   6.321  10.260 -0.0972  0.0780  0.5200
  110OSM    H6S11328  -0.103   6.366  10.240 -0.7724 -0.8980  1.6094
  110OSM    H6T11329  -0.009   6.217  10.221 -0.4386  0.6129 -0.9287
  110OSM    C7S11330   0.110   6.399  10.175  0.1064  0.7251 -0.2648
  110OSM    H7S11331   0.203   6.339  10.186  0.7024  1.5182 -0.8397
  110OSM    H7T11332   0.142   6.500  10.209  1.9010  0.1155 -0.0418
  110OSM    C8S11333   0.080   6.398  10.021 -0.3817  0.4277  0.7376
  110OSM    H8S11334   0.023   6.490   9.998 -2.2340 -1.0793 -1.1519
  110OSM    H8T11335   0.028   6.309   9.979  1.5498 -0.1972 -0.5217
  110OSM    C9S11336   0.207   6.412   9.934 -0.4829 -0.2565  0.0194
  110OSM    H9S11337   0.254   6.312   9.927  0.5150  0.3090 -2.4260
  110OSM    H9T11338   0.276   6.490   9.972 -2.1882  0.5626  1.5875
  110OSM   C10S11339   0.170   6.455   9.787  0.5876  0.0194 -0.5835
  110OSM   H10S11340   0.248   6.511   9.731 -0.4368  0.7350 -1.3176
  110OSM   H10T11341   0.089   6.530   9.790  1.7453  1.3255 -0.7293
  110OSM   C11S11342   0.134   6.342   9.704  0.3480  0.8018 -0.4898
  110OSM   H11S11343   0.029   6.317   9.731  0.7902  0.1553  0.7287
  110OSM   H11T11344   0.186   6.247   9.732 -1.0856 -0.0159 -0.4766
  110OSM   C12S11345   0.115   6.375   9.555  0.3401 -0.3264  0.6351
  110OSM   H12S11346   0.215   6.391   9.510 -0.2256 -0.8281 -0.8518
  110OSM   H12T11347   0.068   6.476   9.549  0.5530 -0.1880  1.1959
  110OSM   C13S11348   0.031   6.273   9.470 -0.1131  0.3292  0.2231
  110OSM   H13S11349  -0.075   6.272   9.503  0.0603 -1.0948  0.7901
  110OSM   H13T11350   0.082   6.178   9.494  2.9622  1.3318 -1.7406
  110OSM   C14S11351   0.049   6.291   9.314  0.0930 -0.4453  0.0432
  110OSM   H14S11352   0.157   6.270   9.298  0.1182  0.1959 -0.6418
  110OSM   H14T11353   0.035   6.398   9.289  2.3672  0.5270  2.4438
  110OSM   C15S11354  -0.033   6.204   9.219 -0.0565 -0.1179 -0.4685
  110OSM   H15S11355  -0.139   6.225   9.245  0.4702  2.2038  0.0746
  110OSM   H15T11356  -0.003   6.100   9.242 -0.2303 -0.1005 -0.1580
  110OSM   C16S11357  -0.017   6.235   9.069  0.2049 -0.2062  0.1941
  110OSM   H16S11358   0.087   6.217   9.034  0.5463  0.2616  0.9220
  110OSM   H16T11359  -0.037   6.343   9.056 -1.3086 -0.2896  1.4995
  110OSM   C17S11360  -0.111   6.147   8.983 -0.4040 -0.4664  0.4487
  110OSM   H17S11361  -0.199   6.143   9.051 -1.1131 -0.3974 -0.4538
  110OSM   H17T11362  -0.074   6.043   8.977 -1.1344 -0.8041  1.4854
  110OSM   C18S11363  -0.151   6.208   8.851 -0.0191 -0.7762  0.3893
  110OSM   H18S11364  -0.072   6.196   8.774 -0.2585  1.3647 -0.2566
  110OSM   H18T11365  -0.172   6.317   8.859  1.6711 -0.2357 -1.6455
  110OSM   H18U11366  -0.240   6.155   8.810  0.3527  0.2316 -1.8976
  110OSM    C1F11367   0.271   6.638  10.610 -0.0970 -0.1284 -0.1052
  110OSM     OF11368   0.386   6.644  10.637 -0.2817  0.1397  0.0785
  110OSM    C2F11369   0.207   6.757  10.555 -1.2421 -0.2439 -0.1074
  110OSM    H2F11370   0.177   6.837  10.626  0.6422  0.8610 -0.5002
  110OSM    H2G11371   0.125   6.734  10.483 -2.0008 -0.4969  0.8092
  110OSM    C3F11372   0.316   6.825  10.458 -0.0896 -0.2252  0.5498
  110OSM    H3F11373   0.403   6.844  10.525 -1.1209  1.8513  1.3703
  110OSM    H3G11374   0.280   6.921  10.416 -0.5714 -1.8335 -3.1567
  110OSM    C4F11375   0.349   6.738  10.338  0.5775 -0.4510 -0.8760
  110OSM    H4F11376   0.264   6.677  10.301  1.8332 -1.6336 -1.9414
  110OSM    H4G11377   0.436   6.675  10.367 -0.3264 -1.3766 -0.0740
  110OSM    C5F11378   0.388   6.824  10.214  0.1487  0.6072 -0.0088
  110OSM    H5F11379   0.430   6.915  10.261 -0.4949 -0.2839  2.3993
  110OSM    H5G11380   0.298   6.852  10.154  0.6171 -2.0269 -2.1779
  110OSM    C6F11381   0.496   6.761  10.132 -0.1480 -0.1425 -0.0166
  110OSM    H6F11382   0.448   6.694  10.057 -1.2086 -1.2815  1.6075
  110OSM    H6G11383   0.547   6.692  10.203 -2.4984 -1.3898  0.5464
  110OSM    C7F11384   0.586   6.859  10.072  0.4303  0.4272  0.0422
  110OSM    H7F11385   0.672   6.816  10.016  1.0246  2.5649 -0.8335
  110OSM    H7G11386   0.629   6.919  10.155  0.6049 -0.3197  0.5004
  110OSM    C8F11387   0.518   6.941   9.965 -0.0432 -0.0634 -0.6311
  110OSM    H8F11388   0.585   7.025   9.938  1.2090 -0.1650  1.8530
  110OSM    H8G11389   0.430   6.989  10.013 -1.3499  1.2218 -3.9904
  110OSM    C9F11390   0.458   6.875   9.841 -0.2947 -0.0477  0.0339
  110OSM    H9F11391   0.375   6.804   9.853  2.3470 -3.5333 -0.5546
  110OSM   C10F11392   0.520   6.875   9.727  0.2053 -0.5255  0.8384
  110OSM   H10F11393   0.477   6.814   9.646 -0.0736  1.3328 -0.4827
  110OSM   C11F11394   0.643   6.954   9.693 -0.4935 -0.1382  0.5049
  110OSM   H11F11395   0.730   6.899   9.735  2.2930  2.1314 -1.8946
  110OSM   H11G11396   0.636   7.060   9.725  0.1171  0.1574 -0.3146
  110OSM   C12F11397   0.674   6.972   9.541  0.7628 -0.3021 -0.8952
  110OSM   H12F11398   0.658   6.875   9.489 -0.4001 -0.2146 -0.7369
  110OSM   H12G11399   0.783   6.992   9.528  0.6114  1.4723  0.2449
  110OSM   C13F11400   0.591   7.090   9.480 -0.2522 -0.3365  0.4906
  110OSM   H13F11401   0.603   7.193   9.521 -0.1788  0.9827 -2.6159
  110OSM   H13G11402   0.482   7.068   9.487 -0.3152  0.2420  1.6617
  110OSM   C14F11403   0.615   7.109   9.326 -0.5933  0.3799  0.3568
  110OSM   H14F11404   0.722   7.124   9.302 -1.3869  2.4727 -2.3488
  110OSM   H14G11405   0.551   7.185   9.276  0.7827  2.1939  1.2573
  110OSM   C15F11406   0.570   6.977   9.253 -0.1071 -0.4671 -0.3986
  110OSM   H15F11407   0.495   6.920   9.312 -0.0459 -1.0940 -0.9007
  110OSM   H15G11408   0.655   6.906   9.244  2.1369  2.0533 -0.3521
  110OSM   C16F11409   0.509   7.003   9.121  0.3695 -0.5137  0.7198
  110OSM   H16F11410   0.567   7.070   9.054 -1.7217  0.6790 -0.0150
  110OSM   H16G11411   0.417   7.058   9.150  1.8946  1.5690  1.7961
  110OSM   C17F11412   0.461   6.885   9.030 -0.0349 -0.5618 -0.1101
  110OSM   H17F11413   0.413   6.937   8.944 -1.0599  0.1875  0.8826
  110OSM   H17G11414   0.390   6.832   9.096  0.8478  1.6904  2.8767
  110OSM   C18F11415   0.568   6.794   8.982  0.1020  0.2888  0.5826
  110OSM   H18F11416   0.652   6.790   9.054 -0.8942  0.7693  1.8015
  110OSM   H18G11417   0.607   6.840   8.888 -0.8207  1.1718  0.6079
  110OSM   H18H11418   0.530   6.691   8.964 -0.6823  0.7168 -0.3349
  111OSM      N11419   2.542   5.193  11.115  0.1170  0.2876 -0.3946
  111OSM    C1511420   2.577   5.167  11.255 -0.6778 -0.6691 -0.1156
  111OSM   H15A11421   2.678   5.135  11.276  0.2439  2.2095  0.2884
  111OSM   H15B11422   2.509   5.094  11.295  0.5356 -0.8892  1.6763
  111OSM   H15C11423   2.557   5.250  11.321 -0.4569  0.0114 -0.8899
  111OSM    C1411424   2.535   5.060  11.048  0.1035 -0.3862 -0.2810
  111OSM   H14A11425   2.633   5.013  11.050  0.0506 -0.5588  3.0862
  111OSM   H14B11426   2.493   5.072  10.949  0.1407 -0.3959 -0.2982
  111OSM   H14C11427   2.460   4.997  11.092 -0.9639  1.3559  0.5256
  111OSM    C1311428   2.407   5.256  11.119  0.0567 -0.3881 -0.6145
  111OSM   H13A11429   2.365   5.264  11.019 -0.5067 -1.0256 -0.4341
  111OSM   H13B11430   2.406   5.355  11.160 -3.5654  0.1542 -1.6014
  111OSM   H13C11431   2.334   5.199  11.175 -0.3055 -0.1313 -0.8162
  111OSM    C1211432   2.632   5.288  11.044 -0.6694  0.7140 -0.4236
  111OSM   H12A11433   2.735   5.256  11.055 -0.4182  0.9652 -1.7704
  111OSM   H12B11434   2.622   5.381  11.098  0.9581  0.4248  0.4316
  111OSM    C1111435   2.616   5.307  10.891 -0.1817  0.0449  0.2686
  111OSM   H11A11436   2.633   5.202  10.857 -0.7601 -0.6889  2.1399
  111OSM   H11B11437   2.697   5.381  10.872 -0.8838  0.4604 -1.2887
  111OSM      P11438   2.452   5.497  10.838  0.1829 -0.1435 -0.0826
  111OSM    O1311439   2.308   5.518  10.868  0.1619  0.4306  0.4259
  111OSM    O1411440   2.538   5.590  10.912  0.4397 -0.0323 -0.2250
  111OSM    O1111441   2.481   5.509  10.688 -0.4121 -0.1976 -0.0525
  111OSM    O1211442   2.483   5.347  10.856  0.1986 -0.2588 -0.2096
  111OSM    C1S11443   2.458   5.420  10.580  0.2023 -0.8649 -0.6402
  111OSM    H1S11444   2.362   5.368  10.597 -0.8468  1.7123  2.3816
  111OSM    H1T11445   2.539   5.344  10.578  1.6617  0.6227 -0.1722
  111OSM     NF11446   2.442   5.408  10.337 -0.2147  0.7490 -0.2283
  111OSM    HNF11447   2.502   5.426  10.260  0.3534  0.1338  0.0610
  111OSM    C2S11448   2.459   5.501  10.453 -0.5219 -0.6930 -0.1381
  111OSM    H2S11449   2.367   5.561  10.436  0.0672 -0.4680 -3.0409
  111OSM    C3S11450   2.581   5.600  10.426  1.1735  0.6107 -1.1464
  111OSM    H3S11451   2.672   5.536  10.426  0.1664 -1.0365  2.1778
  111OSM     O311452   2.613   5.691  10.534  0.2280  0.1532 -0.0306
  111OSM    HO311453   2.581   5.649  10.614  0.4493  1.7061  0.9151
  111OSM    C4S11454   2.559   5.673  10.295  0.2719  0.7490  0.0801
  111OSM    H4S11455   2.501   5.766  10.297 -0.0401  0.5701 -0.3802
  111OSM    C5S11456   2.615   5.635  10.180 -0.5306 -1.5422  0.3210
  111OSM    H5S11457   2.669   5.539  10.180  0.0994 -1.2514  2.3692
  111OSM    C6S11458   2.600   5.716  10.054  0.5020  0.2701 -0.0282
  111OSM    H6S11459   2.698   5.754  10.018  0.6553 -0.0968 -0.0039
  111OSM    H6T11460   2.542   5.810  10.067 -0.6628 -0.4400  0.0143
  111OSM    C7S11461   2.534   5.635   9.933  0.1019 -0.2648 -0.1639
  111OSM    H7S11462   2.426   5.618   9.955 -0.2583  0.4796 -1.2691
  111OSM    H7T11463   2.585   5.536   9.928  1.4075  0.4295 -1.5659
  111OSM    C8S11464   2.547   5.705   9.802 -0.2921  0.3090 -0.0294
  111OSM    H8S11465   2.653   5.698   9.768  0.3296  0.5810  1.7263
  111OSM    H8T11466   2.524   5.813   9.815 -1.2194  0.0866  0.2365
  111OSM    C9S11467   2.447   5.655   9.700  0.9503 -0.2393  0.7854
  111OSM    H9S11468   2.343   5.669   9.735  0.1677 -0.9882 -1.0738
  111OSM    H9T11469   2.463   5.546   9.680  1.9729  0.1086 -0.4199
  111OSM   C10S11470   2.453   5.719   9.561  0.5310  0.8481 -0.0128
  111OSM   H10S11471   2.556   5.709   9.520  0.7257  0.3107  0.5801
  111OSM   H10T11472   2.436   5.827   9.576 -0.8160  0.9490 -1.9637
  111OSM   C11S11473   2.353   5.673   9.453  0.0889  0.1999  0.7185
  111OSM   H11S11474   2.253   5.676   9.503  0.7401  3.7146  2.1609
  111OSM   H11T11475   2.377   5.568   9.426  0.4723  0.3864  0.3208
  111OSM   C12S11476   2.356   5.759   9.327  0.1409 -0.0675  0.8099
  111OSM   H12S11477   2.461   5.772   9.294 -0.0847  0.9503  0.4294
  111OSM   H12T11478   2.316   5.858   9.357  0.2015  0.5189 -0.9157
  111OSM   C13S11479   2.280   5.712   9.200  0.2969 -0.5341  0.0216
  111OSM   H13S11480   2.174   5.696   9.230 -0.0437  0.3772 -0.6566
  111OSM   H13T11481   2.323   5.612   9.177  1.1918 -0.1197 -0.1430
  111OSM   C14S11482   2.294   5.797   9.071 -0.3434  0.3309 -0.7301
  111OSM   H14S11483   2.404   5.794   9.060 -0.2115 -0.5444  0.6148
  111OSM   H14T11484   2.253   5.899   9.089  2.9522  2.1349 -2.5794
  111OSM   C15S11485   2.204   5.749   8.962 -0.7313 -0.1844  0.0259
  111OSM   H15S11486   2.198   5.824   8.880  1.9320  0.6375  0.4993
  111OSM   H15T11487   2.098   5.729   8.989 -0.4772  0.3825  1.5179
  111OSM   C16S11488   2.258   5.623   8.896 -0.3497  0.0048 -0.2554
  111OSM   H16S11489   2.280   5.550   8.976 -0.6599  0.5257  0.3140
  111OSM   H16T11490   2.354   5.666   8.860 -0.0077  0.3278  0.9989
  111OSM   C17S11491   2.186   5.561   8.773 -0.0073 -0.4134 -0.3403
  111OSM   H17S11492   2.100   5.513   8.825  0.2404  0.3904  0.8471
  111OSM   H17T11493   2.241   5.480   8.722  0.1032 -1.4771  1.3898
  111OSM   C18S11494   2.152   5.672   8.666  0.6113  0.1304  0.0122
  111OSM   H18S11495   2.242   5.716   8.619  1.1985  1.8259  2.5181
  111OSM   H18T11496   2.099   5.756   8.715  0.3198 -0.8249  1.4053
  111OSM   H18U11497   2.090   5.627   8.586  1.6302 -0.9329 -0.2198
  111OSM    C1F11498   2.343   5.315  10.321 -0.4477  0.2954  0.3889
  111OSM     OF11499   2.238   5.333  10.377 -0.4088  0.0436  0.0384
  111OSM    C2F11500   2.374   5.190  10.232  0.0167  0.1075  0.1563
  111OSM    H2F11501   2.386   5.104  10.301  1.1676  1.5909  1.9180
  111OSM    H2G11502   2.478   5.195  10.193 -0.1133  3.5663 -0.0596
  111OSM    C3F11503   2.286   5.184  10.109  0.1432  0.0497 -0.2684
  111OSM    H3F11504   2.177   5.194  10.128  0.1966 -1.6129  1.1703
  111OSM    H3G11505   2.298   5.083  10.065 -1.8128  0.1005 -1.0534
  111OSM    C4F11506   2.317   5.290  10.000 -0.0714 -0.2972  0.0417
  111OSM    H4F11507   2.426   5.291   9.978  0.2214  1.8355  1.2422
  111OSM    H4G11508   2.277   5.392  10.021  0.3520 -0.0839 -0.1843
  111OSM    C5F11509   2.255   5.234   9.872 -0.6083  0.2448 -0.9988
  111OSM    H5F11510   2.151   5.201   9.896  0.3022 -1.0934  1.4623
  111OSM    H5G11511   2.304   5.142   9.834  0.7894  0.0560  1.0902
  111OSM    C6F11512   2.259   5.348   9.766 -0.1798 -0.8226  0.2986
  111OSM    H6F11513   2.363   5.377   9.737 -0.7651 -0.4566 -1.5797
  111OSM    H6G11514   2.212   5.441   9.806  0.0830 -0.7762  0.5001
  111OSM    C7F11515   2.184   5.309   9.638 -0.4553 -0.0018  0.1259
  111OSM    H7F11516   2.137   5.399   9.592 -1.4313  0.0044  1.0967
  111OSM    H7G11517   2.098   5.250   9.675 -2.3753  2.6119  0.1747
  111OSM    C8F11518   2.270   5.240   9.538 -0.1309  0.0635  0.7661
  111OSM    H8F11519   2.333   5.162   9.586  2.6979  1.6666 -0.0627
  111OSM    H8G11520   2.342   5.317   9.501 -1.2741  0.1999 -1.3368
  111OSM    C9F11521   2.172   5.189   9.438  0.2664  0.0103 -0.6613
  111OSM    H9F11522   2.088   5.125   9.471 -1.6624  1.3721 -2.6240
  111OSM   C10F11523   2.168   5.212   9.307  0.8032 -0.4454  0.0371
  111OSM   H10F11524   2.085   5.155   9.262 -0.3307 -2.2497  3.8773
  111OSM   C11F11525   2.264   5.296   9.230 -0.7567  0.3634  0.0825
  111OSM   H11F11526   2.370   5.291   9.262 -0.5396  0.6361 -0.5736
  111OSM   H11G11527   2.233   5.402   9.238  0.1126  0.5323  1.4682
  111OSM   C12F11528   2.269   5.258   9.076  0.4015 -0.1454 -0.2601
  111OSM   H12F11529   2.317   5.331   9.008 -2.0416 -0.2303 -2.1989
  111OSM   H12G11530   2.163   5.244   9.046  0.8431 -0.1498 -1.8719
  111OSM   C13F11531   2.341   5.122   9.053  0.9195 -0.0164  0.4854
  111OSM   H13F11532   2.268   5.047   9.090 -0.0022  0.1456 -0.9345
  111OSM   H13G11533   2.433   5.128   9.116  0.4461  1.7123  1.0632
  111OSM   C14F11534   2.360   5.090   8.902 -0.1574  0.6139 -0.0999
  111OSM   H14F11535   2.438   5.160   8.864  0.9065 -0.1706  0.5802
  111OSM   H14G11536   2.261   5.107   8.855 -1.5413 -0.2085  2.3654
  111OSM   C15F11537   2.431   4.960   8.857 -1.0195  0.1989  0.1132
  111OSM   H15F11538   2.376   4.871   8.895 -0.0919  0.0930  1.2752
  111OSM   H15G11539   2.529   4.936   8.904  0.3777  0.8982 -2.2689
  111OSM   C16F11540   2.462   4.964   8.704  0.4230  0.8778  0.1962
  111OSM   H16F11541   2.523   5.054   8.680  0.1915  1.5110  1.8388
  111OSM   H16G11542   2.367   4.977   8.647  1.4313  0.4022 -1.6540
  111OSM   C17F11543   2.532   4.833   8.668  0.1917 -0.1938 -0.2763
  111OSM   H17F11544   2.460   4.755   8.698 -1.1407  2.0142  2.8063
  111OSM   H17G11545   2.623   4.812   8.730 -0.8508 -0.2008  1.3122
  111OSM   C18F11546   2.567   4.827   8.526  0.6842 -0.6558  0.2371
  111OSM   H18F11547   2.645   4.898   8.492 -1.3277  1.4008 -0.3333
  111OSM   H18G11548   2.482   4.837   8.456  0.8720 -0.3876  0.0455
  111OSM   H18H11549   2.607   4.726   8.504 -0.0953 -0.7526 -0.8217
  112OSM      N11550   0.317   3.041  10.886 -0.1388  0.4117 -0.1796
  112OSM    C1511551   0.410   2.938  10.947 -0.2776 -0.0892 -0.1540
  112OSM   H15A11552   0.385   2.907  11.047 -1.8695 -1.9391 -1.0564
  112OSM   H15B11553   0.510   2.977  10.939 -0.9832  1.5143 -1.9249
  112OSM   H15C11554   0.412   2.845  10.893  1.3635  0.9131 -1.9469
  112OSM    C1411555   0.178   2.984  10.902 -0.7427 -0.7062 -0.4761
  112OSM   H14A11556   0.105   3.046  10.852 -0.0439 -0.1522 -0.8320
  112OSM   H14B11557   0.139   2.964  11.001 -3.1127 -0.5913 -1.3146
  112OSM   H14C11558   0.170   2.892  10.847  0.1156 -1.5971  0.8397
  112OSM    C1311559   0.345   3.172  10.945  0.0742 -0.1045 -0.1843
  112OSM   H13A11560   0.448   3.185  10.976 -0.6383  3.3936  1.1558
  112OSM   H13B11561   0.287   3.187  11.035  2.7401  0.0931  1.6201
  112OSM   H13C11562   0.300   3.241  10.877 -1.9613 -0.2061  0.9839
  112OSM    C1211563   0.346   3.050  10.737  0.7888  0.0678 -0.3777
  112OSM   H12A11564   0.357   2.948  10.703  0.3839 -0.2495  0.4153
  112OSM   H12B11565   0.439   3.104  10.732  0.3848  1.0859  1.7130
  112OSM    C1111566   0.246   3.132  10.638  0.4987  0.3716 -0.6772
  112OSM   H11A11567   0.153   3.073  10.622  0.0079  0.7049  0.8525
  112OSM   H11B11568   0.297   3.131  10.539 -0.5478 -1.7941 -1.2655
  112OSM      P11569   0.104   3.343  10.713  0.3590 -0.0347 -0.1221
  112OSM    O1311570   0.044   3.281  10.832  0.4236 -0.4375 -0.1418
  112OSM    O1411571   0.138   3.489  10.726 -0.0041 -0.0212 -0.6896
  112OSM    O1111572   0.010   3.314  10.586  0.0606  0.1593  0.0074
  112OSM    O1211573   0.235   3.270  10.675  0.1672 -0.8091  0.2346
  112OSM    C1S11574   0.029   3.394  10.466 -0.3750 -0.2939 -0.4640
  112OSM    H1S11575   0.105   3.474  10.478 -1.3165  1.0038 -2.5327
  112OSM    H1T11576  -0.072   3.437  10.445 -1.0263  0.0610  2.8654
  112OSM     NF11577   0.096   3.397  10.218  0.4081 -0.0089  0.3454
  112OSM    HNF11578   0.027   3.409  10.146  1.4731 -0.7457 -0.8347
  112OSM    C2S11579   0.065   3.311  10.336 -0.1684  0.1413 -0.1097
  112OSM    H2S11580   0.158   3.256  10.360  0.4928  0.8885 -0.9190
  112OSM    C3S11581  -0.045   3.198  10.312 -0.0752 -0.4207 -0.3242
  112OSM    H3S11582  -0.146   3.240  10.293 -0.0754  0.9131  2.2040
  112OSM     O311583  -0.072   3.116  10.428  0.0751  0.0203  0.2786
  112OSM    HO311584  -0.058   3.177  10.501  1.2210 -0.6238  0.6233
  112OSM    C4S11585  -0.012   3.113  10.193  0.6929  0.4697  1.1375
  112OSM    H4S11586   0.079   3.052  10.199 -1.0598 -2.6179 -0.8861
  112OSM    C5S11587  -0.083   3.096  10.078  0.6341  0.8787  0.3641
  112OSM    H5S11588  -0.182   3.143  10.071 -0.1391 -0.4482  1.8688
  112OSM    C6S11589  -0.039   3.002   9.965  0.0164 -0.3390  0.7756
  112OSM    H6S11590  -0.076   2.898   9.979  1.1614 -0.7003  1.2545
  112OSM    H6T11591   0.072   2.995   9.955  0.1745  0.9937  1.4251
  112OSM    C7S11592  -0.074   3.063   9.831  0.4895  0.3249 -0.4950
  112OSM    H7S11593  -0.023   3.161   9.820  1.7571 -0.2984 -0.3531
  112OSM    H7T11594  -0.184   3.074   9.819  0.5420 -0.3107 -1.7240
  112OSM    C8S11595  -0.030   2.980   9.712  0.6544  0.6872  0.0030
  112OSM    H8S11596  -0.095   2.891   9.725 -0.0662  1.5156  3.0149
  112OSM    H8T11597   0.073   2.945   9.733  0.0012 -3.3446 -2.4624
  112OSM    C9S11598  -0.052   3.046   9.574 -0.2627 -0.2455  0.3398
  112OSM    H9S11599   0.018   3.132   9.572  2.3372 -2.2359 -0.0562
  112OSM    H9T11600  -0.161   3.064   9.559 -0.0803  2.4857  1.7782
  112OSM   C10S11601  -0.010   2.960   9.460  0.2819 -0.1837  1.2587
  112OSM   H10S11602  -0.074   2.870   9.452  2.4745 -1.7328  0.0017
  112OSM   H10T11603   0.098   2.935   9.476  0.9377  2.8643  2.3288
  112OSM   C11S11604  -0.027   3.040   9.326  0.1977 -0.2391 -0.0224
  112OSM   H11S11605   0.032   3.134   9.336  2.2773 -1.7310  3.6246
  112OSM   H11T11606  -0.130   3.067   9.296  1.4654  0.7959 -4.1254
  112OSM   C12S11607   0.033   2.955   9.213 -0.0828 -0.7437 -0.1615
  112OSM   H12S11608  -0.005   2.851   9.219  1.1905 -1.1883  0.5932
  112OSM   H12T11609   0.138   2.942   9.246 -0.1731  2.2467  1.7329
  112OSM   C13S11610   0.026   3.019   9.069  0.3155  0.2948 -0.2245
  112OSM   H13S11611   0.087   2.967   8.993  0.8286 -2.7793  2.0639
  112OSM   H13T11612   0.078   3.117   9.073 -0.7072  0.8427 -0.1963
  112OSM   C14S11613  -0.117   3.047   9.026  0.2702  0.5563 -0.4216
  112OSM   H14S11614  -0.176   3.108   9.097 -1.2540 -2.8054  1.4546
  112OSM   H14T11615  -0.172   2.950   9.022  0.7057  0.3063 -0.3673
  112OSM   C15S11616  -0.136   3.115   8.891 -1.0554  0.2971  1.1507
  112OSM   H15S11617  -0.063   3.199   8.884  1.6937 -1.7358  3.1209
  112OSM   H15T11618  -0.242   3.147   8.890 -1.9710 -2.4618  1.5660
  112OSM   C16S11619  -0.099   3.034   8.767  0.9345 -0.0410 -0.7111
  112OSM   H16S11620  -0.155   2.938   8.756  0.6720  0.0372 -0.0853
  112OSM   H16T11621   0.005   2.995   8.775  0.2211 -2.1662 -1.0937
  112OSM   C17S11622  -0.135   3.112   8.637  0.7661 -0.0650 -0.1064
  112OSM   H17S11623  -0.241   3.144   8.634  1.1364  1.1499 -2.2613
  112OSM   H17T11624  -0.121   3.056   8.543  0.2193  0.8941 -0.7774
  112OSM   C18S11625  -0.062   3.248   8.627  0.3543 -0.3165 -0.6050
  112OSM   H18S11626  -0.082   3.304   8.533  0.9301 -0.5424 -0.8683
  112OSM   H18T11627   0.046   3.233   8.608 -0.0703 -2.2365 -1.7423
  112OSM   H18U11628  -0.084   3.323   8.706  2.2578 -1.2719  0.8853
  112OSM    C1F11629   0.203   3.470  10.217  0.3547  0.2329 -0.4642
  112OSM     OF11630   0.286   3.452  10.306  0.1879  0.3374  0.2043
  112OSM    C2F11631   0.221   3.568  10.108  0.0807  0.0302 -0.4537
  112OSM    H2F11632   0.194   3.672  10.139  0.4436  0.6621 -2.1578
  112OSM    H2G11633   0.153   3.547  10.023 -0.4627 -0.3464  0.0656
  112OSM    C3F11634   0.363   3.562  10.044 -0.5473 -1.2407  0.3171
  112OSM    H3F11635   0.383   3.468   9.988  1.3623 -0.0560 -1.1155
  112OSM    H3G11636   0.439   3.572  10.125 -0.6979 -0.2867  0.3532
  112OSM    C4F11637   0.373   3.678   9.939 -0.2901 -0.0885  0.0348
  112OSM    H4F11638   0.346   3.773   9.989 -0.3622  0.2639 -0.6610
  112OSM    H4G11639   0.299   3.657   9.858 -0.6551 -0.9546  0.5804
  112OSM    C5F11640   0.511   3.681   9.873  0.1002  0.2417 -0.3630
  112OSM    H5F11641   0.532   3.581   9.829  2.0122  0.0753  0.7651
  112OSM    H5G11642   0.585   3.683   9.956  0.7913 -1.0030 -0.9256
  112OSM    C6F11643   0.541   3.798   9.779  0.3479  0.7043 -0.1223
  112OSM    H6F11644   0.638   3.788   9.728 -0.8447 -0.0218 -2.3815
  112OSM    H6G11645   0.546   3.890   9.841  0.5782  0.5665  0.0650
  112OSM    C7F11646   0.435   3.815   9.662  0.4405  0.0420  0.0712
  112OSM    H7F11647   0.339   3.843   9.712 -0.4960 -0.5318 -1.3410
  112OSM    H7G11648   0.433   3.712   9.620  2.6186 -0.8314  1.9233
  112OSM    C8F11649   0.472   3.930   9.563  0.1402  0.2882  0.3449
  112OSM    H8F11650   0.472   4.026   9.618 -0.7094  0.4300  0.1128
  112OSM    H8G11651   0.388   3.943   9.492 -0.7980 -1.6278  1.0257
  112OSM    C9F11652   0.594   3.895   9.478 -0.0815  0.0740 -0.4862
  112OSM    H9F11653   0.673   3.843   9.535 -2.1162 -1.6238  0.9515
  112OSM   C10F11654   0.626   3.938   9.355 -0.7976 -0.6643  0.5123
  112OSM   H10F11655   0.724   3.902   9.321  0.0137  2.2349 -0.5808
  112OSM   C11F11656   0.548   4.026   9.258  0.2913  0.4736 -0.0994
  112OSM   H11F11657   0.620   4.103   9.223  0.8347  0.1452  0.2729
  112OSM   H11G11658   0.453   4.061   9.302  0.0674 -1.0044  0.6632
  112OSM   C12F11659   0.509   3.937   9.139  0.0284 -0.7289  0.5359
  112OSM   H12F11660   0.448   3.850   9.172 -1.7534 -0.2757 -1.4176
  112OSM   H12G11661   0.598   3.898   9.085 -0.8146 -0.5104 -1.0475
  112OSM   C13F11662   0.433   4.030   9.047 -0.0440  0.2511  0.1166
  112OSM   H13F11663   0.492   4.121   9.024  0.3628  0.5996  2.3196
  112OSM   H13G11664   0.343   4.062   9.104  0.6523 -0.3858  1.6173
  112OSM   C14F11665   0.385   3.980   8.904 -0.0052  0.2901  0.8346
  112OSM   H14F11666   0.356   3.874   8.917  1.9601 -0.1189  2.5962
  112OSM   H14G11667   0.472   3.964   8.836  0.4048 -3.0904  1.9792
  112OSM   C15F11668   0.288   4.079   8.822 -0.7679  0.6074  0.1454
  112OSM   H15F11669   0.276   4.032   8.722  1.1702  1.2975 -0.4590
  112OSM   H15G11670   0.357   4.164   8.805  1.4079 -1.0441  0.1812
  112OSM   C16F11671   0.166   4.113   8.897  0.6741 -0.2266 -0.5826
  112OSM   H16F11672   0.186   4.172   8.989  0.6502 -1.3303  0.1507
  112OSM   H16G11673   0.107   4.027   8.935  0.3702  0.9473  1.7913
  112OSM   C17F11674   0.058   4.189   8.810 -0.1448  0.0813  0.0551
  112OSM   H17F11675  -0.045   4.199   8.849 -0.7244 -1.3228 -1.0514
  112OSM   H17G11676   0.063   4.153   8.705 -0.4540  0.6583 -0.1594
  112OSM   C18F11677   0.099   4.334   8.794  0.1970  0.0503  0.0648
  112OSM   H18F11678   0.016   4.382   8.737  0.8594 -2.3399 -3.2069
  112OSM   H18G11679   0.188   4.344   8.728 -0.1622  0.0016 -0.4368
  112OSM   H18H11680   0.114   4.381   8.893  0.5988 -1.1786  0.6064
  113OSM      N11681   1.666   1.467  11.073 -0.2160 -0.8339  0.6972
  113OSM    C1511682   1.821   1.473  11.064 -0.7559 -0.4955 -0.1894
  113OSM   H15A11683   1.868   1.470  11.161 -0.8931 -0.9984 -0.1322
  113OSM   H15B11684   1.842   1.564  11.012 -0.7364 -1.3128 -1.6576
  113OSM   H15C11685   1.856   1.393  11.001 -2.0661 -1.2973  0.0512
  113OSM    C1411686   1.621   1.336  11.140 -0.3041  0.8045 -0.5351
  113OSM   H14A11687   1.657   1.257  11.075  0.1820 -0.8032  1.5565
  113OSM   H14B11688   1.514   1.327  11.145 -0.3381  0.9945 -0.9082
  113OSM   H14C11689   1.674   1.325  11.234 -3.3871 -1.1273  1.1572
  113OSM    C1311690   1.626   1.571  11.171  0.0545 -0.3176 -0.2810
  113OSM   H13A11691   1.525   1.559  11.206  1.1732 -5.6148  2.0137
  113OSM   H13B11692   1.645   1.668  11.127 -0.6968 -0.3072 -0.5903
  113OSM   H13C11693   1.695   1.575  11.254 -0.9617  1.3323  0.5412
  113OSM    C1211694   1.593   1.474  10.948 -0.4016  0.0689 -0.4884
  113OSM   H12A11695   1.492   1.498  10.975  0.3911  1.2925  1.6150
  113OSM   H12B11696   1.591   1.377  10.900  1.5421  0.5109 -1.5879
  113OSM    C1111697   1.637   1.573  10.839 -0.8515  0.2397 -0.4131
  113OSM   H11A11698   1.572   1.552  10.751 -0.8859  0.9357 -0.5634
  113OSM   H11B11699   1.742   1.546  10.816 -1.4028 -0.7243 -1.9454
  113OSM      P11700   1.727   1.816  10.904 -0.5239  0.1142 -0.0724
  113OSM    O1311701   1.665   1.931  10.970 -0.7068  0.3267 -0.0915
  113OSM    O1411702   1.858   1.763  10.955  0.4216 -0.4680  0.1327
  113OSM    O1111703   1.738   1.849  10.741 -0.1807  0.3126 -0.7264
  113OSM    O1211704   1.615   1.699  10.897 -0.0294 -0.8564 -0.0933
  113OSM    C1S11705   1.618   1.903  10.689  0.2614 -0.1701  0.2981
  113OSM    H1S11706   1.594   2.006  10.721  0.2736 -0.6257  1.8845
  113OSM    H1T11707   1.532   1.834  10.708 -0.2098  0.7534  1.6700
  113OSM     NF11708   1.497   1.982  10.479  0.0189  0.4690 -0.2034
  113OSM    HNF11709   1.431   1.923  10.434  1.2329  0.3855 -1.9599
  113OSM    C2S11710   1.625   1.919  10.534  0.1855 -0.1364  0.5377
  113OSM    H2S11711   1.703   1.993  10.506  0.1271 -0.7606 -1.4793
  113OSM    C3S11712   1.646   1.781  10.478 -0.5275 -0.1100 -0.5964
  113OSM    H3S11713   1.557   1.723  10.510 -0.3639  0.4074  0.8733
  113OSM     O311714   1.759   1.705  10.525  0.2777  0.3349  0.0162
  113OSM    HO311715   1.787   1.755  10.602  3.2505  0.5273 -1.0685
  113OSM    C4S11716   1.652   1.799  10.326 -0.2489 -0.4859  0.9969
  113OSM    H4S11717   1.744   1.849  10.290 -0.7311  0.5815  1.2120
  113OSM    C5S11718   1.569   1.746  10.232 -0.0784 -1.4322  0.3784
  113OSM    H5S11719   1.480   1.689  10.263 -1.0402 -0.4218 -0.4291
  113OSM    C6S11720   1.599   1.773  10.084 -0.0045  0.0322 -0.1696
  113OSM    H6S11721   1.688   1.709  10.065 -0.0578 -0.6136  1.5922
  113OSM    H6T11722   1.629   1.878  10.063  1.5899 -0.4945 -0.6616
  113OSM    C7S11723   1.487   1.733   9.991  0.1793  0.2682  0.1005
  113OSM    H7S11724   1.404   1.805  10.006 -0.2937 -0.3839  0.5948
  113OSM    H7T11725   1.456   1.638  10.037  0.0993  1.4161  2.5567
  113OSM    C8S11726   1.516   1.735   9.837 -0.4720 -0.1603 -0.8711
  113OSM    H8S11727   1.596   1.661   9.819  1.2564  1.0803  1.1400
  113OSM    H8T11728   1.563   1.833   9.812 -1.0430  0.0802 -1.0133
  113OSM    C9S11729   1.401   1.685   9.753  0.5357 -0.3635 -0.4809
  113OSM    H9S11730   1.326   1.766   9.759 -0.7540 -1.5504  0.2926
  113OSM    H9T11731   1.360   1.594   9.803 -0.7120  1.7843  2.7539
  113OSM   C10S11732   1.426   1.666   9.602 -0.0244  0.1901 -0.6355
  113OSM   H10S11733   1.353   1.601   9.548  0.8878 -1.2748 -0.1748
  113OSM   H10T11734   1.527   1.632   9.573  0.1355 -0.1434  0.2782
  113OSM   C11S11735   1.409   1.802   9.524  0.2358 -0.4648  0.1471
  113OSM   H11S11736   1.493   1.865   9.558 -0.0887 -0.0261  0.1390
  113OSM   H11T11737   1.314   1.848   9.559 -0.2014 -0.9808 -0.3274
  113OSM   C12S11738   1.387   1.788   9.376 -0.4128 -0.0470  0.3481
  113OSM   H12S11739   1.469   1.727   9.333 -0.3353  0.9393 -0.9716
  113OSM   H12T11740   1.393   1.890   9.333  0.7160 -0.8424 -1.5077
  113OSM   C13S11741   1.261   1.716   9.340 -0.4701 -0.2415 -0.0084
  113OSM   H13S11742   1.186   1.754   9.414 -0.8112 -0.8851 -0.0183
  113OSM   H13T11743   1.256   1.606   9.355 -0.1390 -0.0382  1.8074
  113OSM   C14S11744   1.201   1.743   9.207 -0.3886  0.3264  0.3499
  113OSM   H14S11745   1.233   1.843   9.171  2.6168 -0.2337  1.2319
  113OSM   H14T11746   1.091   1.738   9.224 -0.6624  0.6539 -1.1881
  113OSM   C15S11747   1.235   1.643   9.106 -0.2613  0.5817 -0.2353
  113OSM   H15S11748   1.207   1.545   9.151 -2.6917  1.8724  1.3192
  113OSM   H15T11749   1.342   1.653   9.078 -0.5891 -0.9739 -2.2590
  113OSM   C16S11750   1.160   1.658   8.975  0.4106  0.8046 -0.2631
  113OSM   H16S11751   1.198   1.749   8.924  0.4676  0.3703 -1.0045
  113OSM   H16T11752   1.056   1.683   9.004  0.5186 -1.5491  2.6348
  113OSM   C17S11753   1.175   1.536   8.889 -0.3936  0.0850 -0.1132
  113OSM   H17S11754   1.140   1.443   8.938  0.6779  0.1805  0.8657
  113OSM   H17T11755   1.282   1.519   8.869 -1.0071 -2.9154 -1.3110
  113OSM   C18S11756   1.116   1.540   8.747  0.2702  0.5218 -0.4499
  113OSM   H18S11757   1.140   1.453   8.681 -0.8822  1.1891 -1.8099
  113OSM   H18T11758   1.153   1.631   8.695 -0.2150  0.2208 -1.3497
  113OSM   H18U11759   1.005   1.546   8.748  0.2625  0.4037 -0.5171
  113OSM    C1F11760   1.459   2.110  10.497 -0.5606 -0.0917  0.1591
  113OSM     OF11761   1.522   2.188  10.570 -0.2053  0.1352  0.3233
  113OSM    C2F11762   1.340   2.151  10.419 -0.8273  0.4190 -0.6994
  113OSM    H2F11763   1.268   2.194  10.491  0.4816  2.2352 -0.3936
  113OSM    H2G11764   1.300   2.066  10.361 -1.0414  0.5854 -0.7950
  113OSM    C3F11765   1.366   2.267  10.320 -0.0812  0.4311 -0.0732
  113OSM    H3F11766   1.414   2.348  10.379 -0.7994  0.7142  0.1302
  113OSM    H3G11767   1.274   2.311  10.276 -0.7024 -1.1562 -0.4331
  113OSM    C4F11768   1.449   2.212  10.198 -0.2760 -0.5612  0.1296
  113OSM    H4F11769   1.544   2.175  10.240 -0.3938 -0.5462  0.4087
  113OSM    H4G11770   1.471   2.287  10.118  1.0358 -1.7829 -0.7081
  113OSM    C5F11771   1.373   2.102  10.115  0.3773  0.0004 -0.1167
  113OSM    H5F11772   1.359   2.008  10.172 -0.2215 -1.1546 -2.0844
  113OSM    H5G11773   1.449   2.075  10.038 -0.6762  1.1266 -1.6259
  113OSM    C6F11774   1.251   2.158  10.037  0.3687  0.3550 -0.0738
  113OSM    H6F11775   1.282   2.247   9.977  1.4039 -0.1094 -0.2552
  113OSM    H6G11776   1.172   2.181  10.111  1.7166 -0.9008  1.8618
  113OSM    C7F11777   1.201   2.045   9.941 -0.5020 -0.0355  0.7068
  113OSM    H7F11778   1.169   1.955   9.998  1.5902 -1.1167  0.2933
  113OSM    H7G11779   1.276   2.016   9.864 -2.7807 -0.6201 -1.4502
  113OSM    C8F11780   1.073   2.090   9.858  0.2967 -0.3368 -0.6069
  113OSM    H8F11781   0.994   2.121   9.929 -0.4827  0.5791 -1.8197
  113OSM    H8G11782   1.040   2.006   9.793  1.0189 -1.4310  0.4012
  113OSM    C9F11783   1.112   2.199   9.767  0.0266  0.0270  0.3931
  113OSM    H9F11784   1.182   2.271   9.812  0.5598  0.7409 -1.5115
  113OSM   C10F11785   1.073   2.215   9.641  0.4021 -0.0090 -0.1531
  113OSM   H10F11786   1.129   2.294   9.588 -0.1454 -0.5736 -1.6154
  113OSM   C11F11787   0.980   2.136   9.556  0.0368 -0.4409  0.0864
  113OSM   H11F11788   0.897   2.207   9.538 -0.5588 -0.9660  0.7282
  113OSM   H11G11789   0.933   2.045   9.598 -0.1335  0.3779  1.7432
  113OSM   C12F11790   1.024   2.089   9.421 -0.1389 -0.3618 -0.1475
  113OSM   H12F11791   0.941   2.031   9.374 -1.9537 -0.0916  2.4927
  113OSM   H12G11792   1.113   2.022   9.426 -0.6180 -0.9254  1.4284
  113OSM   C13F11793   1.068   2.203   9.327 -0.3120  0.2003 -0.5093
  113OSM   H13F11794   1.135   2.279   9.373  0.5022 -1.1061  0.5247
  113OSM   H13G11795   0.976   2.264   9.312 -2.0470 -2.6746 -2.3849
  113OSM   C14F11796   1.130   2.154   9.194 -0.0030 -1.0841  0.3518
  113OSM   H14F11797   1.061   2.087   9.139 -0.9300 -1.1474  1.5494
  113OSM   H14G11798   1.212   2.088   9.231  0.5617 -0.5845  0.0096
  113OSM   C15F11799   1.171   2.269   9.105 -0.1165  0.0492  0.5441
  113OSM   H15F11800   1.234   2.348   9.151  0.4319  0.3168 -0.6442
  113OSM   H15G11801   1.075   2.313   9.071 -0.1540  0.9291  1.7424
  113OSM   C16F11802   1.234   2.224   8.971  0.0829  0.3140  0.5081
  113OSM   H16F11803   1.183   2.136   8.927 -0.7986  0.9214  0.2947
  113OSM   H16G11804   1.337   2.185   8.983  0.6587  1.8101  0.7114
  113OSM   C17F11805   1.249   2.350   8.883 -0.2748 -0.3705  0.5646
  113OSM   H17F11806   1.279   2.437   8.946 -0.3404 -2.7728  4.2415
  113OSM   H17G11807   1.141   2.369   8.862 -0.3703  0.9007  1.9519
  113OSM   C18F11808   1.326   2.338   8.753 -0.0385 -0.4818  0.5472
  113OSM   H18F11809   1.296   2.425   8.691 -0.5681 -1.1791 -0.1851
  113OSM   H18G11810   1.296   2.245   8.701  0.6336 -0.4834  0.1444
  113OSM   H18H11811   1.436   2.335   8.771  0.0062 -2.1307  0.1211
  114OSM      N11812   1.348   0.650  11.403  0.0697 -0.2454  0.2884
  114OSM    C1511813   1.451   0.737  11.337 -0.4762 -0.0698  1.1600
  114OSM   H15A11814   1.534   0.684  11.293 -2.1403  0.4757 -3.1571
  114OSM   H15B11815   1.482   0.815  11.405  0.6154 -0.7863  1.5086
  114OSM   H15C11816   1.403   0.780  11.250  1.9022  0.3930 -0.0196
  114OSM    C1411817   1.408   0.570  11.511  0.0666  0.1035 -0.1643
  114OSM   H14A11818   1.338   0.506  11.563 -1.2178  0.9950 -0.7379
  114OSM   H14B11819   1.456   0.636  11.582  2.2687 -2.5989  1.0458
  114OSM   H14C11820   1.489   0.506  11.479  1.0825  0.9389  0.6816
  114OSM    C1311821   1.257   0.756  11.462  0.0624 -0.3801 -0.0895
  114OSM   H13A11822   1.324   0.830  11.502 -0.2271 -0.7496  1.1073
  114OSM   H13B11823   1.201   0.718  11.546 -1.3750  0.5707 -0.5888
  114OSM   H13C11824   1.192   0.806  11.392 -0.3413  0.5225  0.9025
  114OSM    C1211825   1.281   0.558  11.296 -0.1588  0.5134  0.7521
  114OSM   H12A11826   1.196   0.515  11.346 -0.2848 -1.3109 -0.9031
  114OSM   H12B11827   1.348   0.475  11.279 -0.6428 -0.0521  1.5318
  114OSM    C1111828   1.241   0.619  11.153 -0.0028  0.4839  0.4861
  114OSM   H11A11829   1.182   0.549  11.089 -0.9878  0.6596  1.1813
  114OSM   H11B11830   1.329   0.662  11.100 -0.0721  0.4800  0.3677
  114OSM      P11831   1.010   0.711  11.214 -0.2119  0.2916 -0.4118
  114OSM    O1311832   0.994   0.604  11.310 -0.1563 -0.2171  0.0233
  114OSM    O1411833   0.948   0.835  11.258  0.0525  0.6628  0.0855
  114OSM    O1111834   0.946   0.662  11.079  0.5450 -0.0642  0.5293
  114OSM    O1211835   1.159   0.729  11.174 -0.2234 -0.0805 -0.0247
  114OSM    C1S11836   0.957   0.754  10.965 -0.1661 -0.3004 -0.1220
  114OSM    H1S11837   1.006   0.850  10.990 -1.7302  0.6187 -0.4677
  114OSM    H1T11838   0.852   0.784  10.947  0.4044  1.1206 -1.3234
  114OSM     NF11839   1.020   0.792  10.739  0.6620  0.2213 -0.3322
  114OSM    HNF11840   0.934   0.807  10.690  0.5206  1.5218  0.2610
  114OSM    C2S11841   1.018   0.689  10.841  0.2839  0.0135 -0.0319
  114OSM    H2S11842   1.123   0.658  10.860  0.3912  0.7779  0.6824
  114OSM    C3S11843   0.923   0.564  10.803 -0.1956 -0.0587 -0.5286
  114OSM    H3S11844   0.818   0.599  10.810  0.3950  1.6359  0.8305
  114OSM     O311845   0.930   0.458  10.894  0.6768  0.1339 -0.4748
  114OSM    HO311846   0.967   0.492  10.976  2.7979 -1.4900 -0.6849
  114OSM    C4S11847   0.966   0.518  10.669 -0.1583 -0.1805 -0.5366
  114OSM    H4S11848   0.906   0.579  10.601 -2.9536 -1.1643  0.8937
  114OSM    C5S11849   1.040   0.417  10.630 -0.4858 -0.1976 -0.8319
  114OSM    H5S11850   1.071   0.347  10.709 -1.6182  0.3174  0.0922
  114OSM    C6S11851   1.072   0.372  10.486 -0.0554 -0.6824 -0.3360
  114OSM    H6S11852   0.992   0.302  10.455 -0.4664  0.1508 -1.1729
  114OSM    H6T11853   1.158   0.302  10.496  1.1546  0.6672 -1.0285
  114OSM    C7S11854   1.110   0.486  10.391  0.4788 -0.2045 -0.0766
  114OSM    H7S11855   1.164   0.564  10.450 -1.3463  0.6048  0.6347
  114OSM    H7T11856   1.015   0.543  10.379 -0.7172 -1.9621  0.5711
  114OSM    C8S11857   1.168   0.447  10.258 -0.2458  0.3822  0.3521
  114OSM    H8S11858   1.135   0.520  10.180 -1.0429 -0.8709 -0.5132
  114OSM    H8T11859   1.136   0.346  10.225  0.9762  0.6334 -1.8354
  114OSM    C9S11860   1.321   0.440  10.257  0.5145  0.3758 -0.2981
  114OSM    H9S11861   1.337   0.362  10.335 -0.5374 -0.3239 -0.7594
  114OSM    H9T11862   1.354   0.540  10.292  1.4409 -0.7158  2.2408
  114OSM   C10S11863   1.384   0.394  10.121  0.6979 -0.1485 -0.3364
  114OSM   H10S11864   1.490   0.425  10.133  0.3027  0.6843  1.3608
  114OSM   H10T11865   1.338   0.461  10.045 -2.0811 -0.5044  0.8926
  114OSM   C11S11866   1.366   0.249  10.082 -0.1722 -0.2041 -0.6698
  114OSM   H11S11867   1.261   0.220  10.060  0.1765 -1.0592 -1.2608
  114OSM   H11T11868   1.400   0.178  10.161 -1.7481  1.3356  1.5188
  114OSM   C12S11869   1.458   0.204   9.964 -0.3005  0.0062  0.7154
  114OSM   H12S11870   1.565   0.233   9.976  0.1057 -1.1808  0.1289
  114OSM   H12T11871   1.430   0.267   9.877 -0.6328  3.0073  2.8250
  114OSM   C13S11872   1.445   0.056   9.936 -0.0926  0.5440 -0.3766
  114OSM   H13S11873   1.338   0.037   9.915 -0.5396  0.3846  1.8076
  114OSM   H13T11874   1.461   0.017  10.040 -1.1672  2.4633  0.5553
  114OSM   C14S11875   1.533  -0.002   9.827  0.2505  0.4640 -1.2564
  114OSM   H14S11876   1.539  -0.113   9.832  0.7526  0.5252 -0.1310
  114OSM   H14T11877   1.637   0.027   9.850  0.7764 -0.8813 -1.8336
  114OSM   C15S11878   1.500   0.039   9.679 -0.8649 -0.3700 -0.2702
  114OSM   H15S11879   1.507   0.148   9.658 -4.0036  0.1179  0.7271
  114OSM   H15T11880   1.391   0.022   9.669 -1.0662  0.1436  0.8563
  114OSM   C16S11881   1.558  -0.051   9.573 -0.1079  0.5562 -0.3308
  114OSM   H16S11882   1.540  -0.160   9.587 -0.3296  0.5905 -0.3582
  114OSM   H16T11883   1.668  -0.033   9.570  0.0710  0.1028  1.8596
  114OSM   C17S11884   1.491  -0.019   9.440  0.2837 -0.8556 -1.2130
  114OSM   H17S11885   1.514   0.088   9.419 -1.0506 -0.5014 -0.9527
  114OSM   H17T11886   1.381  -0.014   9.453  0.4497  0.5860 -0.0824
  114OSM   C18S11887   1.527  -0.108   9.329 -0.3520  0.0681  0.9623
  114OSM   H18S11888   1.637  -0.123   9.339 -0.3933 -1.3149 -0.3544
  114OSM   H18T11889   1.504  -0.066   9.229  1.3270  1.4420  1.0964
  114OSM   H18U11890   1.488  -0.211   9.338 -2.1607  0.7100  0.7779
  114OSM    C1F11891   1.100   0.897  10.725 -0.0542 -1.3973 -0.3598
  114OSM     OF11892   1.208   0.897  10.778 -0.2557 -0.1137  0.5965
  114OSM    C2F11893   1.035   1.015  10.644 -0.4923 -0.2303  0.1159
  114OSM    H2F11894   0.978   1.076  10.717 -0.3052  0.9198 -0.6785
  114OSM    H2G11895   0.971   0.954  10.576 -0.6273 -1.0035  0.9211
  114OSM    C3F11896   1.134   1.096  10.556  0.5031  0.4754 -0.1293
  114OSM    H3F11897   1.197   1.149  10.631  2.4938 -1.6576 -0.1509
  114OSM    H3G11898   1.079   1.174  10.499 -1.4425  1.2646  2.6156
  114OSM    C4F11899   1.216   1.010  10.462  0.1920  0.0718 -0.1723
  114OSM    H4F11900   1.272   0.930  10.516 -2.3661 -1.3621  0.5334
  114OSM    H4G11901   1.291   1.083  10.424  0.3161 -0.1440 -0.3480
  114OSM    C5F11902   1.148   0.959  10.333 -0.1533  0.3547 -0.1215
  114OSM    H5F11903   1.077   1.031  10.288 -1.4937 -1.4927 -1.0690
  114OSM    H5G11904   1.091   0.869  10.363 -3.0951  1.8081 -1.0021
  114OSM    C6F11905   1.239   0.908  10.215 -0.5515 -0.2144  0.1861
  114OSM    H6F11906   1.327   0.859  10.261  1.0402  2.1225 -0.2266
  114OSM    H6G11907   1.290   0.995  10.169  0.7800 -1.4550 -0.7829
  114OSM    C7F11908   1.165   0.830  10.104  0.4642  0.5359  0.2027
  114OSM    H7F11909   1.073   0.880  10.066 -1.2565 -2.8150 -0.5037
  114OSM    H7G11910   1.138   0.732  10.149  2.0610 -1.8155 -3.5301
  114OSM    C8F11911   1.255   0.794   9.978  0.0469 -0.5305 -0.4592
  114OSM    H8F11912   1.208   0.714   9.917  1.5063  0.9119 -3.7374
  114OSM    H8G11913   1.351   0.750  10.012  0.5557  0.4744 -0.5471
  114OSM    C9F11914   1.285   0.922   9.896 -0.0031 -0.6898  0.2864
  114OSM    H9F11915   1.340   0.994   9.958 -0.0140 -0.8437  0.4763
  114OSM   C10F11916   1.273   0.933   9.762 -0.2570 -0.5494 -0.0554
  114OSM   H10F11917   1.296   1.037   9.737 -3.0273  0.0054 -0.5865
  114OSM   C11F11918   1.204   0.840   9.666  0.7909  0.1068 -0.1045
  114OSM   H11F11919   1.190   0.742   9.716 -1.4965 -0.1731 -1.1161
  114OSM   H11G11920   1.267   0.822   9.576 -1.3908 -0.3281 -1.6237
  114OSM   C12F11921   1.067   0.887   9.616  0.9945 -0.2758  0.0686
  114OSM   H12F11922   1.070   0.997   9.605 -0.2763 -0.0912  1.2284
  114OSM   H12G11923   0.983   0.869   9.687  1.6648 -0.3345  0.8602
  114OSM   C13F11924   1.025   0.830   9.481  0.8435  0.6997  0.1892
  114OSM   H13F11925   0.918   0.855   9.465  0.2961 -1.0182  0.8416
  114OSM   H13G11926   1.019   0.720   9.497 -2.3560  0.9968  1.8267
  114OSM   C14F11927   1.111   0.866   9.368 -0.6830 -0.3379 -0.5060
  114OSM   H14F11928   1.221   0.867   9.384 -0.6984  1.1820 -0.4034
  114OSM   H14G11929   1.098   0.975   9.355  2.3046  0.0316 -1.1564
  114OSM   C15F11930   1.061   0.802   9.243 -0.1767  0.0046  0.1698
  114OSM   H15F11931   0.957   0.839   9.241  0.1301  0.9750  1.0451
  114OSM   H15G11932   1.051   0.693   9.259 -1.9339  0.6329  5.0185
  114OSM   C16F11933   1.142   0.837   9.118  0.0283 -0.0566  0.6806
  114OSM   H16F11934   1.251   0.819   9.124  0.2716  0.7332 -0.8521
  114OSM   H16G11935   1.129   0.946   9.099  1.9347 -0.0853 -1.0156
  114OSM   C17F11936   1.102   0.768   8.985  0.0748 -0.4446  0.0663
  114OSM   H17F11937   1.131   0.661   8.979  0.2756 -0.3660 -0.4305
  114OSM   H17G11938   1.167   0.805   8.904  3.5452 -1.6479  2.1030
  114OSM   C18F11939   0.955   0.776   8.955 -0.3232  0.6744 -0.3962
  114OSM   H18F11940   0.897   0.836   9.028 -2.1821  1.5228 -2.4738
  114OSM   H18G11941   0.919   0.671   8.949 -0.9683  0.9231 -1.0128
  114OSM   H18H11942   0.927   0.825   8.860  0.0191 -0.6617 -1.2163
  115OSM      N11943   3.744   5.694   5.751  0.9481  0.4784 -0.5744
  115OSM    C1511944   3.723   5.675   5.606  0.4862 -0.8209 -1.0459
  115OSM   H15A11945   3.784   5.746   5.551 -1.2732  0.6581 -1.1584
  115OSM   H15B11946   3.623   5.675   5.566 -0.5260 -0.7996  1.3270
  115OSM   H15C11947   3.759   5.578   5.575  0.6322 -0.3491 -2.3991
  115OSM    C1411948   3.879   5.645   5.787 -0.4035  0.2891 -0.3124
  115OSM   H14A11949   3.884   5.540   5.761 -3.8927 -0.8154  2.6197
  115OSM   H14B11950   3.889   5.650   5.894 -2.5120 -1.5582  0.0555
  115OSM   H14C11951   3.953   5.705   5.737  0.2184 -0.6728 -0.5877
  115OSM    C1311952   3.726   5.841   5.783 -0.0023 -0.3695 -0.4643
  115OSM   H13A11953   3.813   5.891   5.742  0.5142 -1.4244 -0.6856
  115OSM   H13B11954   3.721   5.849   5.891 -1.5672  1.5641 -0.6079
  115OSM   H13C11955   3.634   5.873   5.735  0.6443  0.4594 -1.1827
  115OSM    C1211956   3.634   5.609   5.814 -0.0764 -0.2029 -0.2793
  115OSM   H12A11957   3.638   5.511   5.768 -0.3465 -0.6104  0.5457
  115OSM   H12B11958   3.536   5.640   5.781 -0.8958 -2.1859  0.1561
  115OSM    C1111959   3.638   5.586   5.971  0.0401 -0.6794 -0.2086
  115OSM   H11A11960   3.709   5.509   6.008  0.3922  1.0521  3.1781
  115OSM   H11B11961   3.539   5.565   6.018 -0.3276  0.3143 -0.5081
  115OSM      P11962   3.766   5.736   6.147 -0.1611  0.1784  0.0218
  115OSM    O1311963   3.902   5.710   6.095  0.6186 -0.3859 -0.3297
  115OSM    O1411964   3.744   5.870   6.203  0.1704  0.1211  0.4558
  115OSM    O1111965   3.732   5.620   6.252  0.8930 -0.6590  0.2169
  115OSM    O1211966   3.663   5.711   6.037  0.0802  0.1793  0.5712
  115OSM    C1S11967   3.791   5.649   6.375 -0.1348 -0.0974 -0.4995
  115OSM    H1S11968   3.749   5.739   6.425  0.2159 -0.9111  1.3328
  115OSM    H1T11969   3.902   5.656   6.378 -0.2357  2.3015  0.9237
  115OSM     NF11970   3.818   5.572   6.612 -0.5748  0.0083 -0.0063
  115OSM    HNF11971   3.909   5.541   6.638 -0.0609  1.7398  0.4221
  115OSM    C2S11972   3.769   5.532   6.481 -0.2800  0.0995 -0.4659
  115OSM    H2S11973   3.663   5.499   6.491 -0.3123  0.1809 -0.5344
  115OSM    C3S11974   3.856   5.412   6.419  0.0588 -0.1807  0.1543
  115OSM    H3S11975   3.966   5.424   6.427 -0.2114  1.1946  3.5303
  115OSM     O311976   3.826   5.374   6.283  0.4128 -0.2713 -0.2378
  115OSM    HO311977   3.750   5.431   6.270 -0.7240 -1.5263  0.5878
  115OSM    C4S11978   3.830   5.290   6.501  0.3369  0.0236 -0.6776
  115OSM    H4S11979   3.723   5.265   6.499  0.4202 -0.6700  1.2160
  115OSM    C5S11980   3.913   5.218   6.579 -0.8490 -0.1825  0.2262
  115OSM    H5S11981   4.017   5.250   6.569 -0.8986 -0.3849 -1.0936
  115OSM    C6S11982   3.895   5.096   6.669  0.2132 -0.4896 -0.7523
  115OSM    H6S11983   3.941   5.120   6.767 -5.1215  0.6678  1.8367
  115OSM    H6T11984   3.949   5.010   6.624  0.4531  0.5379 -2.5225
  115OSM    C7S11985   3.747   5.057   6.697  0.1508 -0.1321 -0.8128
  115OSM    H7S11986   3.705   5.008   6.606 -0.9150 -0.8469  0.0388
  115OSM    H7T11987   3.696   5.155   6.706  0.3349 -0.0087 -1.0980
  115OSM    C8S11988   3.729   4.972   6.827 -0.1091 -0.1128 -0.7318
  115OSM    H8S11989   3.786   4.878   6.815 -2.4971 -1.8826  0.7867
  115OSM    H8T11990   3.620   4.949   6.833  0.3368 -2.1050  0.6876
  115OSM    C9S11991   3.767   5.045   6.959  0.7282 -0.7622  0.1983
  115OSM    H9S11992   3.711   5.140   6.966  0.6833 -0.8845  1.9501
  115OSM    H9T11993   3.874   5.072   6.946  0.9328 -1.8237 -0.4915
  115OSM   C10S11994   3.739   4.967   7.090 -0.0300 -0.1713  0.1463
  115OSM   H10S11995   3.630   4.967   7.114  0.1078  1.6833  0.9153
  115OSM   H10T11996   3.771   5.037   7.170 -0.2898  2.8235 -2.1632
  115OSM   C11S11997   3.806   4.834   7.099  0.0904  0.0463  0.0430
  115OSM   H11S11998   3.915   4.851   7.111  0.1164 -0.1318  0.0599
  115OSM   H11T11999   3.790   4.790   6.998 -1.5206 -1.6569  0.9842
  115OSM   C12S12000   3.754   4.743   7.210  0.5685  0.7023 -0.4302
  115OSM   H12S12001   3.792   4.639   7.207  0.2299  0.4947  1.2771
  115OSM   H12T12002   3.644   4.752   7.198  0.6286  0.4771 -1.1674
  115OSM   C13S12003   3.787   4.782   7.359  0.3862  0.6817  0.4433
  115OSM   H13S12004   3.729   4.720   7.430  2.3553 -1.2167  0.5211
  115OSM   H13T12005   3.755   4.888   7.370  1.4941  0.9541  1.2710
  115OSM   C14S12006   3.939   4.769   7.381 -0.9385 -0.4366  0.3076
  115OSM   H14S12007   3.995   4.828   7.305  1.7174 -2.2413  0.7041
  115OSM   H14T12008   3.962   4.661   7.367  0.5927 -0.0216 -0.6243
  115OSM   C15S12009   3.993   4.806   7.519 -1.0086 -0.4095 -1.3743
  115OSM   H15S12010   3.967   4.911   7.544  0.3902 -0.4225  0.2767
  115OSM   H15T12011   4.103   4.789   7.518 -0.4977  2.2383  0.5544
  115OSM   C16S12012   3.921   4.723   7.620  0.8434  0.3776 -0.0290
  115OSM   H16S12013   3.890   4.622   7.586 -1.0943  0.5954  0.9561
  115OSM   H16T12014   3.824   4.771   7.642  0.1351 -1.1850  0.3750
  115OSM   C17S12015   4.011   4.719   7.744  0.0309  0.2321 -0.2731
  115OSM   H17S12016   4.108   4.682   7.702  0.6669  1.0422  0.4487
  115OSM   H17T12017   3.970   4.644   7.815  2.1370 -2.2275 -1.4711
  115OSM   C18S12018   4.036   4.857   7.811  0.2706  0.3879 -0.2816
  115OSM   H18S12019   4.025   4.943   7.743 -0.7604  0.9771  0.5918
  115OSM   H18T12020   4.133   4.851   7.866  1.0259 -1.0287 -1.6865
  115OSM   H18U12021   3.973   4.860   7.903  0.0357 -2.8937 -0.2035
  115OSM    C1F12022   3.755   5.662   6.687  0.4709 -0.1110 -0.5901
  115OSM     OF12023   3.644   5.702   6.656  0.0573  0.0607  0.4167
  115OSM    C2F12024   3.823   5.722   6.808 -0.7398  0.0878  0.1265
  115OSM    H2F12025   3.909   5.779   6.766  0.2203 -1.5129 -0.1408
  115OSM    H2G12026   3.867   5.635   6.860  2.9192  1.4158 -0.4076
  115OSM    C3F12027   3.741   5.800   6.913  0.0845 -0.7001  0.6722
  115OSM    H3F12028   3.655   5.732   6.927 -0.5269  0.1067  0.9330
  115OSM    H3G12029   3.699   5.889   6.861 -1.4140 -0.9583  1.4017
  115OSM    C4F12030   3.819   5.834   7.038  0.0579 -0.6025  0.1457
  115OSM    H4F12031   3.759   5.902   7.103  1.5679  2.7937 -1.7564
  115OSM    H4G12032   3.907   5.894   7.008 -1.2622  2.0121  1.1521
  115OSM    C5F12033   3.854   5.710   7.130 -0.4129 -0.1383  0.9966
  115OSM    H5F12034   3.920   5.638   7.076  1.1706  0.2798  2.3098
  115OSM    H5G12035   3.760   5.652   7.138 -0.1760 -0.4065  1.9513
  115OSM    C6F12036   3.924   5.741   7.262  0.2188  0.2271  0.0788
  115OSM    H6F12037   3.882   5.834   7.307  0.3796  0.0530  0.5984
  115OSM    H6G12038   4.028   5.773   7.239  0.1215  1.6323  1.3835
  115OSM    C7F12039   3.942   5.621   7.354  0.5161  0.1183  0.3315
  115OSM    H7F12040   4.029   5.640   7.419 -0.1106 -0.2472  1.3036
  115OSM    H7G12041   3.968   5.529   7.297 -1.6822 -0.1286 -0.3975
  115OSM    C8F12042   3.814   5.581   7.421 -0.1373 -0.3995 -1.0286
  115OSM    H8F12043   3.830   5.488   7.478  0.8682  0.0212 -0.5950
  115OSM    H8G12044   3.737   5.543   7.350 -3.1554 -1.2647  2.4061
  115OSM    C9F12045   3.744   5.681   7.505  0.2665  0.3619  0.2440
  115OSM    H9F12046   3.672   5.748   7.456 -1.8244 -1.3366  0.8530
  115OSM   C10F12047   3.766   5.702   7.632  0.1253  0.7426  0.1154
  115OSM   H10F12048   3.703   5.773   7.688 -0.6995  0.1941 -0.1153
  115OSM   C11F12049   3.864   5.633   7.726  0.4903  0.4403  0.1244
  115OSM   H11F12050   3.921   5.554   7.672  2.3045  2.6593 -1.3734
  115OSM   H11G12051   3.802   5.584   7.804 -0.6275  1.3847 -0.1502
  115OSM   C12F12052   3.956   5.740   7.791 -0.2911  0.3114 -0.7276
  115OSM   H12F12053   3.886   5.811   7.840 -0.7248  0.7883 -1.9851
  115OSM   H12G12054   4.002   5.803   7.712 -1.1946  3.1974  0.9123
  115OSM   C13F12055   4.065   5.673   7.876 -0.6411 -0.1047  0.2187
  115OSM   H13F12056   4.144   5.647   7.803  1.2436  2.6819  1.1094
  115OSM   H13G12057   4.030   5.575   7.916 -0.6379 -0.9449 -1.7349
  115OSM   C14F12058   4.123   5.769   7.977 -1.3022 -0.1844  0.0871
  115OSM   H14F12059   4.044   5.810   8.043  0.7991  1.2796  1.8204
  115OSM   H14G12060   4.165   5.856   7.922 -1.5235  0.2383  0.5833
  115OSM   C15F12061   4.231   5.714   8.072  0.1848 -0.0776  0.3458
  115OSM   H15F12062   4.307   5.656   8.015 -0.2332 -1.5213  1.2160
  115OSM   H15G12063   4.192   5.640   8.145  0.8735 -0.6277  0.1675
  115OSM   C16F12064   4.307   5.824   8.148  0.3302 -0.8392 -0.0976
  115OSM   H16F12065   4.235   5.891   8.200  2.2507  1.0458  0.2878
  115OSM   H16G12066   4.368   5.875   8.071 -0.3640 -1.3846 -1.0205
  115OSM   C17F12067   4.396   5.754   8.247  0.7199  0.2159  0.3012
  115OSM   H17F12068   4.463   5.688   8.188 -1.5777 -3.1164  1.1236
  115OSM   H17G12069   4.335   5.684   8.308 -0.3023  0.0442 -0.8650
  115OSM   C18F12070   4.470   5.843   8.347  0.2219  0.0888  0.1540
  115OSM   H18F12071   4.543   5.792   8.414 -0.4253  1.4049  1.9281
  115OSM   H18G12072   4.413   5.912   8.412  1.0273  0.5157  0.4161
  115OSM   H18H12073   4.543   5.906   8.292  0.2016  1.3354  1.4976
  116OSM      N12074   3.656   1.279   5.862 -0.5034 -0.0493  0.3700
  116OSM    C1512075   3.707   1.417   5.816 -0.6622 -0.1508  0.1497
  116OSM   H15A12076   3.793   1.447   5.873 -1.0059 -0.5029  0.8716
  116OSM   H15B12077   3.625   1.481   5.846 -0.4661 -0.9492  2.7026
  116OSM   H15C12078   3.722   1.417   5.710 -1.6175 -0.7281  0.0023
  116OSM    C1412079   3.523   1.263   5.795 -0.5463 -0.2161  0.1221
  116OSM   H14A12080   3.530   1.242   5.689  1.3286 -0.8637  0.3406
  116OSM   H14B12081   3.464   1.354   5.793 -1.3376 -0.7261 -1.2850
  116OSM   H14C12082   3.468   1.180   5.836 -1.5843  0.1363 -0.4922
  116OSM    C1312083   3.750   1.172   5.807 -0.3144 -0.1933 -0.3336
  116OSM   H13A12084   3.770   1.202   5.705  1.1492 -1.6581 -0.5068
  116OSM   H13B12085   3.700   1.076   5.808 -2.4632  0.8526 -0.6567
  116OSM   H13C12086   3.842   1.170   5.862  0.2645  1.0054 -1.2070
  116OSM    C1212087   3.641   1.279   6.012  0.5958 -0.2978 -0.0900
  116OSM   H12A12088   3.573   1.357   6.042 -0.3681 -1.1566 -0.0192
  116OSM   H12B12089   3.732   1.300   6.067 -0.2128 -1.5514  1.8163
  116OSM    C1112090   3.584   1.150   6.074 -0.1554  0.0325 -0.5562
  116OSM   H11A12091   3.488   1.124   6.024 -0.8709  1.9453 -0.2315
  116OSM   H11B12092   3.553   1.177   6.177 -0.2973 -1.6447 -0.1146
  116OSM      P12093   3.789   1.033   6.182  0.4711  0.0677  0.2177
  116OSM    O1312094   3.877   0.919   6.141 -0.3293 -0.0743 -0.1125
  116OSM    O1412095   3.854   1.164   6.190 -0.4760 -0.0655 -0.2942
  116OSM    O1112096   3.733   0.996   6.323 -0.1012  0.0303  0.1991
  116OSM    O1212097   3.673   1.034   6.074 -0.4353 -0.0051 -0.2830
  116OSM    C1S12098   3.632   0.897   6.336 -0.0353 -0.7691 -0.2980
  116OSM    H1S12099   3.665   0.800   6.291  2.6220 -1.9705  3.7268
  116OSM    H1T12100   3.535   0.936   6.300 -0.3259 -0.8362  0.4193
  116OSM     NF12101   3.508   0.755   6.505  0.1491  0.8360  0.3638
  116OSM    HNF12102   3.422   0.781   6.548 -0.0122  1.3322 -0.2451
  116OSM    C2S12103   3.615   0.857   6.488  0.2585 -0.3482  0.1961
  116OSM    H2S12104   3.716   0.816   6.512  0.3012 -1.7819 -2.1048
  116OSM    C3S12105   3.585   0.980   6.581 -0.9857 -0.1959 -0.5904
  116OSM    H3S12106   3.500   1.043   6.547  0.6701  1.2507 -2.1807
  116OSM     O312107   3.694   1.075   6.580 -0.0416 -0.1894 -0.0575
  116OSM    HO312108   3.743   1.051   6.501  0.8675  1.6877 -0.1346
  116OSM    C4S12109   3.556   0.948   6.728  0.1565 -0.2229  0.3205
  116OSM    H4S12110   3.456   0.979   6.763  0.7440  4.5857 -1.3643
  116OSM    C5S12111   3.639   0.889   6.815 -0.5314 -0.0908 -0.0162
  116OSM    H5S12112   3.739   0.862   6.780 -1.3749 -0.3542 -2.3676
  116OSM    C6S12113   3.607   0.851   6.960  0.4607  0.1595 -0.2593
  116OSM    H6S12114   3.670   0.922   7.018 -0.6909  1.9206 -1.0415
  116OSM    H6T12115   3.633   0.746   6.984  1.6388  0.1752 -1.3951
  116OSM    C7S12116   3.457   0.867   7.012  0.3659  0.2499  0.1162
  116OSM    H7S12117   3.381   0.825   6.942  0.6200  2.5228 -1.6469
  116OSM    H7T12118   3.434   0.975   7.024 -1.7675 -0.3154  1.6430
  116OSM    C8S12119   3.441   0.810   7.150  0.2663 -0.2215 -0.2331
  116OSM    H8S12120   3.495   0.714   7.148 -0.9445 -0.9120 -1.1408
  116OSM    H8T12121   3.338   0.776   7.174  0.9960 -2.1773  0.2911
  116OSM    C9S12122   3.492   0.907   7.260  0.3620  0.5123  0.1175
  116OSM    H9S12123   3.403   0.968   7.286  0.9961  2.6441 -2.2866
  116OSM    H9T12124   3.560   0.979   7.210  1.4953  0.1243  1.0368
  116OSM   C10S12125   3.539   0.844   7.389 -0.3036  0.1374  0.2087
  116OSM   H10S12126   3.615   0.767   7.365  0.1487  0.3531  0.9335
  116OSM   H10T12127   3.451   0.793   7.435  0.9896 -0.1918  2.4394
  116OSM   C11S12128   3.580   0.953   7.499 -0.2127  0.0823  0.5575
  116OSM   H11S12129   3.496   1.020   7.529  0.1820  0.1417  1.5365
  116OSM   H11T12130   3.656   1.020   7.454  1.1426 -0.3814  2.0965
  116OSM   C12S12131   3.636   0.891   7.632  0.5683 -0.2553  0.0584
  116OSM   H12S12132   3.686   0.793   7.614 -1.1418 -1.1484 -0.0245
  116OSM   H12T12133   3.543   0.858   7.682 -1.5283  1.9987 -2.0816
  116OSM   C13S12134   3.707   0.995   7.728  0.4710 -0.0612 -0.0542
  116OSM   H13S12135   3.650   1.088   7.749  0.9898  0.8466 -2.3773
  116OSM   H13T12136   3.805   1.028   7.690 -0.0027 -0.1230 -1.3897
  116OSM   C14S12137   3.737   0.926   7.861  0.3858 -0.9127  0.3886
  116OSM   H14S12138   3.830   0.962   7.910 -1.5162  2.2572  2.0014
  116OSM   H14T12139   3.747   0.817   7.842 -0.3778 -0.9390  0.0802
  116OSM   C15S12140   3.618   0.938   7.974 -0.2366 -0.3672  0.4012
  116OSM   H15S12141   3.539   0.876   7.928 -0.6351  2.2971 -2.8412
  116OSM   H15T12142   3.588   1.044   7.977 -0.2993 -0.4007  1.6144
  116OSM   C16S12143   3.663   0.902   8.114  1.3182  0.1303  0.4126
  116OSM   H16S12144   3.764   0.941   8.139  1.0116  0.1943  1.6500
  116OSM   H16T12145   3.684   0.794   8.105  0.2545  0.0200 -1.1660
  116OSM   C17S12146   3.568   0.940   8.237  0.5814  0.1780 -0.3707
  116OSM   H17S12147   3.573   1.050   8.247  0.6828  0.0098  1.8253
  116OSM   H17T12148   3.605   0.908   8.336 -1.9953  2.9669  1.6797
  116OSM   C18S12149   3.427   0.888   8.218  0.1514 -0.7949 -0.1229
  116OSM   H18S12150   3.376   0.948   8.140  0.0836 -0.5788  0.0880
  116OSM   H18T12151   3.366   0.901   8.310 -0.3497 -0.4983 -0.4937
  116OSM   H18U12152   3.426   0.780   8.189 -1.1377 -1.5973  2.5627
  116OSM    C1F12153   3.523   0.633   6.453  0.1530 -0.4297 -0.2611
  116OSM     OF12154   3.630   0.590   6.419 -0.3726  0.4114  0.1549
  116OSM    C2F12155   3.392   0.551   6.436 -0.5118  0.6437 -0.1926
  116OSM    H2F12156   3.381   0.524   6.329 -3.6378 -0.9581  0.4247
  116OSM    H2G12157   3.303   0.611   6.462  1.1042  4.7554 -3.1359
  116OSM    C3F12158   3.398   0.415   6.509  0.3449  0.3118 -0.6074
  116OSM    H3F12159   3.490   0.360   6.480 -0.8381 -3.4431  2.0148
  116OSM    H3G12160   3.317   0.348   6.473 -0.0736  0.3215  0.2848
  116OSM    C4F12161   3.400   0.436   6.665 -0.0338  0.3052  0.0335
  116OSM    H4F12162   3.475   0.517   6.683 -0.4593  0.4065  1.4821
  116OSM    H4G12163   3.439   0.346   6.717 -0.9527  0.3829  0.8801
  116OSM    C5F12164   3.262   0.466   6.719 -0.2230 -0.2391  0.5681
  116OSM    H5F12165   3.194   0.379   6.704 -1.1024  0.2913  1.3596
  116OSM    H5G12166   3.224   0.554   6.663  1.3121 -0.1941 -0.4802
  116OSM    C6F12167   3.261   0.493   6.872  0.4858 -0.0982 -0.1675
  116OSM    H6F12168   3.157   0.487   6.911  0.8398  1.2914  1.0695
  116OSM    H6G12169   3.297   0.597   6.888 -1.2912  0.3831  1.0554
  116OSM    C7F12170   3.345   0.400   6.960  0.4338  0.3266 -0.7266
  116OSM    H7F12171   3.448   0.425   6.927  0.3524 -1.3845 -2.4680
  116OSM    H7G12172   3.329   0.291   6.945 -1.7278  0.1138  2.3384
  116OSM    C8F12173   3.348   0.422   7.117 -0.0889  0.2356 -0.1705
  116OSM    H8F12174   3.400   0.515   7.149  1.5066 -0.2419 -1.2616
  116OSM    H8G12175   3.414   0.340   7.152  1.2504  0.8700 -1.1018
  116OSM    C9F12176   3.213   0.424   7.185  0.0423  0.2065 -0.1224
  116OSM    H9F12177   3.122   0.435   7.125  0.5407  0.6474 -0.7993
  116OSM   C10F12178   3.214   0.413   7.318  0.2728  0.5369 -0.5104
  116OSM   H10F12179   3.121   0.401   7.375  0.9124  1.4486  0.7534
  116OSM   C11F12180   3.331   0.401   7.409 -0.0322  0.3069 -1.2149
  116OSM   H11F12181   3.403   0.483   7.390  2.2136 -1.3438 -0.4254
  116OSM   H11G12182   3.380   0.301   7.400 -0.6360 -0.0676 -0.5233
  116OSM   C12F12183   3.303   0.429   7.562 -0.1860 -0.0645 -0.0497
  116OSM   H12F12184   3.256   0.334   7.595  2.0892 -0.7184  1.6039
  116OSM   H12G12185   3.235   0.515   7.577  0.4601  0.8129 -1.8484
  116OSM   C13F12186   3.426   0.444   7.652  0.0386 -0.2167  0.0286
  116OSM   H13F12187   3.488   0.532   7.624 -2.1073  1.3458 -0.0839
  116OSM   H13G12188   3.476   0.347   7.634 -1.6749 -0.9716 -0.8793
  116OSM   C14F12189   3.405   0.457   7.802  0.2356  0.0336 -0.0169
  116OSM   H14F12190   3.500   0.453   7.860  0.9459  0.9356 -1.0938
  116OSM   H14G12191   3.348   0.368   7.837  0.8785 -1.1315 -1.7783
  116OSM   C15F12192   3.323   0.583   7.855  0.0783 -0.0176 -0.8060
  116OSM   H15F12193   3.255   0.619   7.776 -0.1916  0.9759 -0.1429
  116OSM   H15G12194   3.395   0.662   7.886 -1.0962  0.9735 -0.5158
  116OSM   C16F12195   3.241   0.556   7.983  0.3898  0.5307 -0.3332
  116OSM   H16F12196   3.295   0.528   8.076  2.2355  0.3999 -1.3886
  116OSM   H16G12197   3.182   0.465   7.960  2.9001 -1.9409  2.1601
  116OSM   C17F12198   3.152   0.674   8.033 -0.5683 -0.3936 -0.1270
  116OSM   H17F12199   3.092   0.714   7.948  0.7343  1.5845 -0.1792
  116OSM   H17G12200   3.215   0.759   8.067 -1.5288  0.2207  0.1603
  116OSM   C18F12201   3.060   0.645   8.157 -0.9008 -0.2055  0.1227
  116OSM   H18F12202   3.121   0.647   8.250  0.6660 -0.8229 -0.8346
  116OSM   H18G12203   2.995   0.555   8.157 -0.4894 -0.5144  1.0781
  116OSM   H18H12204   2.990   0.730   8.168 -1.4012 -0.5995  0.0061
  117OSM      N12205   0.215   4.395   6.238  0.2104 -0.0313  0.1128
  117OSM    C1512206   0.228   4.352   6.384  0.0049 -0.4130 -0.4307
  117OSM   H15A12207   0.333   4.338   6.404 -0.2790 -1.4933  0.4289
  117OSM   H15B12208   0.174   4.259   6.394  0.1264 -0.7441 -2.5208
  117OSM   H15C12209   0.189   4.427   6.451  2.5252  1.2246 -0.6336
  117OSM    C1412210   0.248   4.275   6.155  0.3859  0.1446  0.8276
  117OSM   H14A12211   0.194   4.187   6.186  0.4443  0.0389  0.6241
  117OSM   H14B12212   0.354   4.252   6.157  1.3113  3.6083 -0.4118
  117OSM   H14C12213   0.226   4.290   6.051  0.0703 -1.4623  0.6387
  117OSM    C1312214   0.072   4.424   6.221  0.8387  0.1715 -0.0083
  117OSM   H13A12215   0.011   4.347   6.265  1.0294  1.1936  2.1720
  117OSM   H13B12216   0.037   4.428   6.119 -1.0314  1.0418  0.6272
  117OSM   H13C12217   0.037   4.515   6.268  1.5832  1.2099 -1.3858
  117OSM    C1212218   0.290   4.516   6.204  0.1058  0.3535  0.2004
  117OSM   H12A12219   0.239   4.603   6.244  0.7201  0.2362  1.2787
  117OSM   H12B12220   0.295   4.522   6.097  0.7893 -0.6810  0.1622
  117OSM    C1112221   0.439   4.535   6.251  0.5026 -0.6020 -0.1067
  117OSM   H11A12222   0.428   4.544   6.361 -2.5277 -0.4947 -0.3286
  117OSM   H11B12223   0.476   4.637   6.225 -1.3739 -0.1232 -1.1352
  117OSM      P12224   0.603   4.328   6.278 -0.0249 -0.0282  0.6119
  117OSM    O1312225   0.579   4.197   6.211 -0.1185  0.1335  0.4557
  117OSM    O1412226   0.744   4.373   6.295  0.0368 -0.1394  0.3966
  117OSM    O1112227   0.544   4.332   6.428 -0.1197  0.4845 -0.0285
  117OSM    O1212228   0.517   4.428   6.199 -0.1489 -0.3508  0.0908
  117OSM    C1S12229   0.548   4.222   6.516 -0.1570  0.3061 -0.3077
  117OSM    H1S12230   0.628   4.152   6.483 -1.5086 -1.3967 -0.1194
  117OSM    H1T12231   0.450   4.171   6.507  0.4374 -0.5851 -2.3442
  117OSM     NF12232   0.611   4.149   6.748  0.4447  0.3660 -0.1731
  117OSM    HNF12233   0.573   4.149   6.840 -1.5511  0.3545 -0.9467
  117OSM    C2S12234   0.584   4.258   6.663  0.1177 -0.6139 -0.3907
  117OSM    H2S12235   0.680   4.314   6.652 -0.1497 -0.4209 -2.0545
  117OSM    C3S12236   0.473   4.345   6.719 -0.2902 -0.1259  0.2671
  117OSM    H3S12237   0.385   4.291   6.760  0.5726 -0.9122  1.1257
  117OSM     O312238   0.417   4.432   6.622 -0.0402  0.3654 -0.3891
  117OSM    HO312239   0.467   4.413   6.543  1.1274 -0.8968  0.5963
  117OSM    C4S12240   0.521   4.444   6.828 -0.0119  0.2913 -0.5745
  117OSM    H4S12241   0.574   4.536   6.801  1.0453 -0.3437 -0.7387
  117OSM    C5S12242   0.487   4.442   6.959 -0.8966  0.5313 -0.9578
  117OSM    H5S12243   0.417   4.366   6.999 -1.1186  0.3807 -1.6234
  117OSM    C6S12244   0.526   4.557   7.045 -0.4870 -0.9493  0.1489
  117OSM    H6S12245   0.444   4.630   7.052  0.6540  0.2028  3.3002
  117OSM    H6T12246   0.611   4.609   6.995 -1.7193 -1.0352 -2.1645
  117OSM    C7S12247   0.571   4.530   7.194 -0.2720  1.2619 -0.1481
  117OSM    H7S12248   0.636   4.440   7.194 -1.8648  0.0664  0.9228
  117OSM    H7T12249   0.478   4.501   7.247 -0.1678 -1.0904 -1.1521
  117OSM    C8S12250   0.634   4.659   7.270 -0.4384  0.7913 -0.5027
  117OSM    H8S12251   0.546   4.726   7.280 -2.3559 -1.7645  0.8553
  117OSM    H8T12252   0.714   4.699   7.204 -1.2131  0.0565 -1.9321
  117OSM    C9S12253   0.696   4.609   7.402  0.5276  0.4476  0.2736
  117OSM    H9S12254   0.782   4.675   7.427  1.0910  0.0772 -0.6335
  117OSM    H9T12255   0.740   4.509   7.381 -1.1882 -0.3938  0.5284
  117OSM   C10S12256   0.591   4.613   7.515 -0.0656  0.6352  0.2721
  117OSM   H10S12257   0.503   4.570   7.463  1.4466 -1.0194 -1.0293
  117OSM   H10T12258   0.565   4.718   7.542 -0.3526  0.7456 -0.4138
  117OSM   C11S12259   0.641   4.535   7.635  0.4668 -0.2866 -0.9468
  117OSM   H11S12260   0.733   4.576   7.681  0.3647 -0.8693 -0.2126
  117OSM   H11T12261   0.673   4.442   7.584 -0.9704 -1.6035  0.4199
  117OSM   C12S12262   0.528   4.504   7.731  0.0839 -0.0554 -0.1812
  117OSM   H12S12263   0.570   4.462   7.824  1.5358  0.8473 -0.4070
  117OSM   H12T12264   0.456   4.428   7.693  0.6137 -0.2803 -0.7434
  117OSM   C13S12265   0.460   4.632   7.778  0.1677 -0.5041 -0.1791
  117OSM   H13S12266   0.391   4.676   7.703  0.2002  2.5148  1.4119
  117OSM   H13T12267   0.535   4.713   7.790  1.8798 -2.1580  1.0316
  117OSM   C14S12268   0.378   4.613   7.906 -0.4871  0.1338 -0.0099
  117OSM   H14S12269   0.436   4.550   7.976 -1.9010 -1.0505  0.1545
  117OSM   H14T12270   0.287   4.558   7.872 -0.6755 -1.0339  2.2422
  117OSM   C15S12271   0.330   4.742   7.978  0.1486  0.0731 -0.5123
  117OSM   H15S12272   0.248   4.790   7.919 -1.0544  0.2670  1.2249
  117OSM   H15T12273   0.411   4.817   7.990  0.6366 -0.7484  1.6678
  117OSM   C16S12274   0.264   4.707   8.118  0.0865  1.1955  0.6163
  117OSM   H16S12275   0.331   4.633   8.167  0.1842  1.8092  1.4152
  117OSM   H16T12276   0.171   4.650   8.096  1.9839 -1.6680 -0.6806
  117OSM   C17S12277   0.232   4.819   8.211 -0.0749 -0.7549  0.3125
  117OSM   H17S12278   0.211   4.765   8.306  1.0668 -0.0497  0.9884
  117OSM   H17T12279   0.145   4.879   8.178  0.2002 -1.2672 -1.4418
  117OSM   C18S12280   0.358   4.897   8.238 -0.3085  0.2881 -0.4614
  117OSM   H18S12281   0.368   4.962   8.148 -1.0919 -1.4252 -1.8543
  117OSM   H18T12282   0.451   4.838   8.245  0.2725  1.2881  0.5789
  117OSM   H18U12283   0.349   4.960   8.329  3.4750  1.7893 -0.9754
  117OSM    C1F12284   0.691   4.042   6.723  0.2843 -0.0901  0.1640
  117OSM     OF12285   0.771   4.042   6.631 -0.1672 -0.6418  0.7122
  117OSM    C2F12286   0.674   3.927   6.804 -0.0047 -0.1642 -0.2762
  117OSM    H2F12287   0.585   3.862   6.799 -0.4966  0.2583  1.8451
  117OSM    H2G12288   0.669   3.971   6.906  1.2985  0.6853 -0.5587
  117OSM    C3F12289   0.798   3.842   6.799  0.0423  0.6905 -0.8465
  117OSM    H3F12290   0.889   3.899   6.825  0.4246  0.4487 -1.6508
  117OSM    H3G12291   0.815   3.803   6.697  2.0324 -0.3573 -0.1701
  117OSM    C4F12292   0.796   3.721   6.895  0.2058  0.5068  0.4413
  117OSM    H4F12293   0.876   3.648   6.868 -1.1341 -0.3902 -1.3024
  117OSM    H4G12294   0.710   3.652   6.878  1.9067 -1.4509 -0.7790
  117OSM    C5F12295   0.807   3.759   7.042  0.6874 -0.7140  0.2165
  117OSM    H5F12296   0.720   3.821   7.071  0.1926 -2.0928  1.8258
  117OSM    H5G12297   0.894   3.827   7.054  1.0983 -1.1116 -0.4931
  117OSM    C6F12298   0.812   3.639   7.134  0.6930 -0.5992 -0.9306
  117OSM    H6F12299   0.908   3.583   7.129 -0.2441 -2.6304  1.5111
  117OSM    H6G12300   0.734   3.565   7.105  0.5869 -1.2151  0.7731
  117OSM    C7F12301   0.768   3.676   7.280 -0.0807  0.1043 -0.4206
  117OSM    H7F12302   0.756   3.572   7.319  1.5143  0.1142  0.1546
  117OSM    H7G12303   0.671   3.730   7.279  0.4413  1.0700  0.0258
  117OSM    C8F12304   0.880   3.752   7.360 -0.1009 -0.2732 -0.3364
  117OSM    H8F12305   0.830   3.794   7.449  0.6928 -0.0398  0.0050
  117OSM    H8G12306   0.904   3.839   7.294 -1.5727  0.5249  0.1277
  117OSM    C9F12307   1.007   3.670   7.385 -0.2896  0.4943 -0.0425
  117OSM    H9F12308   1.065   3.650   7.294  1.8662  0.8735  1.1719
  117OSM   C10F12309   1.052   3.616   7.501  0.0240 -0.3010  0.5785
  117OSM   H10F12310   1.142   3.553   7.499  0.5097  0.3877 -0.4005
  117OSM   C11F12311   0.979   3.622   7.636  0.4328 -0.1243 -0.3610
  117OSM   H11F12312   0.872   3.649   7.631  0.3214 -0.4555  0.2826
  117OSM   H11G12313   1.028   3.704   7.694 -3.4277  1.6361  0.7160
  117OSM   C12F12314   0.999   3.489   7.711  0.6969  0.6455  0.2160
  117OSM   H12F12315   1.089   3.437   7.674 -0.4269 -0.2942 -1.3257
  117OSM   H12G12316   0.912   3.425   7.685  0.8711  0.2918  0.4864
  117OSM   C13F12317   0.991   3.502   7.862 -0.4194  0.2437  0.2416
  117OSM   H13F12318   0.916   3.581   7.883  2.7123  4.0113 -1.5396
  117OSM   H13G12319   1.089   3.545   7.895  0.9256 -0.8343 -2.1010
  117OSM   C14F12320   0.965   3.366   7.933  0.2198  0.2156  0.1035
  117OSM   H14F12321   1.002   3.289   7.863 -1.5369 -0.5174 -0.0372
  117OSM   H14G12322   0.857   3.343   7.937  0.4202 -0.5732  2.1780
  117OSM   C15F12323   1.026   3.349   8.066 -0.0281  0.1857  0.4189
  117OSM   H15F12324   0.986   3.427   8.135  0.2208  1.0888 -0.4345
  117OSM   H15G12325   1.135   3.367   8.057 -0.1569  0.2736 -1.2928
  117OSM   C16F12326   1.002   3.203   8.110  0.3228 -0.2157  0.5283
  117OSM   H16F12327   1.075   3.186   8.192  0.8973  2.3557  0.6426
  117OSM   H16G12328   1.021   3.139   8.021  1.0080 -1.2195  1.3729
  117OSM   C17F12329   0.847   3.176   8.147 -0.2050 -0.4883 -0.0819
  117OSM   H17F12330   0.784   3.168   8.056 -1.0788 -0.1873  0.4800
  117OSM   H17G12331   0.846   3.078   8.199 -2.1351  0.0833  1.0684
  117OSM   C18F12332   0.792   3.276   8.257  0.4197  0.3979 -0.2153
  117OSM   H18F12333   0.786   3.379   8.217  1.8435  0.2398 -0.9169
  117OSM   H18G12334   0.865   3.271   8.340  1.1658 -1.3671 -0.9279
  117OSM   H18H12335   0.696   3.229   8.290  1.5413 -0.0868  2.6310
  118OSM      N12336   4.474   6.645   6.273  0.6223 -0.5044 -0.2351
  118OSM    C1512337   4.529   6.745   6.172  0.3161 -0.0410 -0.3816
  118OSM   H15A12338   4.562   6.833   6.226 -2.0794 -1.0279  3.0566
  118OSM   H15B12339   4.459   6.775   6.096  2.3479 -0.7478 -2.6741
  118OSM   H15C12340   4.612   6.700   6.119  0.1076  1.7711 -2.3489
  118OSM    C1412341   4.341   6.688   6.332  0.4854 -0.0734  0.2110
  118OSM   H14A12342   4.295   6.605   6.384  0.9059 -1.3778 -1.4050
  118OSM   H14B12343   4.275   6.716   6.251 -0.9707  1.2081  1.7747
  118OSM   H14C12344   4.348   6.774   6.397 -0.3788  0.1094  0.0684
  118OSM    C1312345   4.460   6.520   6.192  0.5982  0.5948 -0.7458
  118OSM   H13A12346   4.378   6.528   6.124 -2.2767  1.0184  2.4842
  118OSM   H13B12347   4.431   6.439   6.257 -1.6749  0.2188 -2.1494
  118OSM   H13C12348   4.554   6.502   6.142  0.3854 -0.3875 -0.8027
  118OSM    C1212349   4.580   6.628   6.380 -0.3222  1.3646  0.3059
  118OSM   H12A12350   4.661   6.583   6.324 -2.0138 -1.4215 -0.0599
  118OSM   H12B12351   4.544   6.549   6.443 -1.0700  0.9276 -0.6489
  118OSM    C1112352   4.614   6.757   6.463  0.4090  0.3283 -0.4590
  118OSM   H11A12353   4.652   6.725   6.562  0.4627 -1.2465 -0.9691
  118OSM   H11B12354   4.530   6.828   6.475  2.2318  2.3444  1.4092
  118OSM      P12355   4.854   6.796   6.358 -0.1706 -0.1559 -0.2504
  118OSM    O1312356   4.879   6.662   6.416 -0.0307  0.0156  0.6616
  118OSM    O1412357   4.883   6.813   6.213 -0.2902 -0.7222 -0.1212
  118OSM    O1112358   4.932   6.902   6.448  0.1242 -0.3928  0.8931
  118OSM    O1212359   4.702   6.833   6.383  0.0658 -0.2298  0.6745
  118OSM    C1S12360   4.883   6.934   6.575  0.0159  0.5603  0.2360
  118OSM    H1S12361   4.903   6.848   6.643  1.6593 -1.4418 -2.5669
  118OSM    H1T12362   4.778   6.968   6.573  0.0796  1.0788  2.5958
  118OSM     NF12363   4.954   7.082   6.772 -0.1203 -0.3584  0.2606
  118OSM    HNF12364   4.895   7.160   6.793 -0.7827 -1.2386  1.8068
  118OSM    C2S12365   4.964   7.061   6.624 -0.0824  0.1702 -0.4966
  118OSM    H2S12366   5.069   7.033   6.603  0.0205 -0.9563  1.2661
  118OSM    C3S12367   4.924   7.182   6.528 -0.7323  0.2563  0.4034
  118OSM    H3S12368   4.815   7.198   6.535 -0.7389  0.5234 -0.2354
  118OSM     O312369   4.948   7.153   6.387 -0.2747 -0.2043 -0.3635
  118OSM    HO312370   4.938   7.058   6.379  0.5598 -0.3225 -0.1319
  118OSM    C4S12371   5.013   7.300   6.569  0.3793 -0.8017  0.0844
  118OSM    H4S12372   5.118   7.307   6.536  0.5897  1.3271  0.9737
  118OSM    C5S12373   4.966   7.399   6.645  0.4131 -0.2293  0.0963
  118OSM    H5S12374   4.861   7.420   6.672 -0.2035 -2.3916 -0.4089
  118OSM    C6S12375   5.061   7.509   6.681 -0.3760 -0.6408  0.2023
  118OSM    H6S12376   5.006   7.605   6.683 -2.0752 -1.5596 -0.4146
  118OSM    H6T12377   5.148   7.521   6.613  0.5173 -3.0284  0.8502
  118OSM    C7S12378   5.122   7.478   6.820  0.0793  0.1796  0.1008
  118OSM    H7S12379   5.211   7.542   6.839  0.4178 -0.3434  0.2897
  118OSM    H7T12380   5.155   7.374   6.842 -0.7368 -0.5646 -1.9846
  118OSM    C8S12381   5.029   7.524   6.936  0.9826 -0.3080  0.0220
  118OSM    H8S12382   4.940   7.457   6.932  2.2733 -2.0510 -2.0249
  118OSM    H8T12383   5.011   7.632   6.921 -0.6092 -0.5509 -0.0908
  118OSM    C9S12384   5.093   7.495   7.070 -0.5006  0.3376  0.6978
  118OSM    H9S12385   5.192   7.547   7.071  0.3687 -1.1650 -1.1568
  118OSM    H9T12386   5.107   7.385   7.076 -0.0843  0.4512  2.4925
  118OSM   C10S12387   5.013   7.553   7.184 -0.1810 -0.1569  0.0802
  118OSM   H10S12388   4.934   7.477   7.204 -0.8965  0.8894  1.4855
  118OSM   H10T12389   4.957   7.644   7.154 -0.4588 -0.5190 -0.5250
  118OSM   C11S12390   5.084   7.576   7.320  0.5633  0.1787 -0.3052
  118OSM   H11S12391   5.159   7.658   7.329 -0.7583  1.1977  3.4513
  118OSM   H11T12392   5.140   7.481   7.338  1.0065  0.3982 -0.5036
  118OSM   C12S12393   4.990   7.598   7.441  0.4387 -0.1466 -0.1704
  118OSM   H12S12394   4.903   7.529   7.438  0.2324  0.0711  0.4751
  118OSM   H12T12395   4.957   7.704   7.443  1.7921  0.3953 -2.7062
  118OSM   C13S12396   5.058   7.565   7.570  1.0591 -0.4445 -0.2942
  118OSM   H13S12397   5.165   7.596   7.567  1.4613 -1.7246  0.2733
  118OSM   H13T12398   5.046   7.455   7.562  1.0198 -0.4502 -0.1571
  118OSM   C14S12399   5.006   7.613   7.702  0.5976  0.1768  0.4980
  118OSM   H14S12400   4.916   7.560   7.739  0.1372  1.3579  1.1173
  118OSM   H14T12401   4.977   7.720   7.702 -1.1996 -0.2581 -0.3764
  118OSM   C15S12402   5.106   7.603   7.822  0.3176 -0.0747  0.0991
  118OSM   H15S12403   5.212   7.624   7.797 -0.1342  0.3424 -1.6308
  118OSM   H15T12404   5.112   7.497   7.855  2.0385 -0.6401 -1.8073
  118OSM   C16S12405   5.063   7.679   7.946 -0.0965 -0.6795  0.5963
  118OSM   H16S12406   4.962   7.650   7.984 -1.2708  1.7690 -0.4264
  118OSM   H16T12407   5.067   7.784   7.911  2.3751 -0.9747 -0.1991
  118OSM   C17S12408   5.173   7.664   8.054 -0.0314  0.1416  0.8985
  118OSM   H17S12409   5.274   7.698   8.022  0.6807 -1.6720  1.0478
  118OSM   H17T12410   5.192   7.555   8.070 -2.2097 -0.5291 -0.6604
  118OSM   C18S12411   5.118   7.730   8.183 -0.1140  0.4313  0.3422
  118OSM   H18S12412   5.177   7.724   8.277  0.1224  0.1025  0.1747
  118OSM   H18T12413   5.025   7.682   8.219 -0.2602  1.3003  1.1711
  118OSM   H18U12414   5.082   7.832   8.160 -1.0639  0.0641  0.1743
  118OSM    C1F12415   5.025   7.000   6.857  0.2182  0.2667  0.2316
  118OSM     OF12416   5.114   6.934   6.809  0.5198 -0.1604  0.5527
  118OSM    C2F12417   5.007   7.020   7.001  0.9321 -0.0604  0.1434
  118OSM    H2F12418   4.903   7.027   7.038  0.1568 -2.9079 -1.1838
  118OSM    H2G12419   5.072   7.100   7.043 -1.2104  0.6728  2.2554
  118OSM    C3F12420   5.050   6.894   7.079  0.7032 -0.2408  0.8922
  118OSM    H3F12421   5.145   6.853   7.039  0.0085 -2.1137  1.0945
  118OSM    H3G12422   4.986   6.807   7.056  0.7823 -0.9061  2.9820
  118OSM    C4F12423   5.053   6.921   7.230  0.4633 -0.7112 -0.5890
  118OSM    H4F12424   4.958   6.968   7.261  2.7817  2.3129  2.9045
  118OSM    H4G12425   5.135   6.989   7.263 -0.6606 -0.6686  2.3964
  118OSM    C5F12426   5.067   6.793   7.312  0.1139  0.4072  0.6682
  118OSM    H5F12427   5.160   6.740   7.282  0.2248  0.9321  0.0743
  118OSM    H5G12428   4.978   6.730   7.290 -0.2194  1.0102  0.2676
  118OSM    C6F12429   5.078   6.824   7.461  0.2278 -0.0686  0.2804
  118OSM    H6F12430   4.976   6.842   7.500 -0.0388 -1.0978  0.1072
  118OSM    H6G12431   5.150   6.904   7.488  1.9018 -1.4413  0.1039
  118OSM    C7F12432   5.120   6.697   7.540 -0.9175  0.4388  0.2295
  118OSM    H7F12433   5.216   6.668   7.491 -1.2972 -0.5205  0.0295
  118OSM    H7G12434   5.065   6.602   7.521  1.4074 -0.6560 -1.6915
  118OSM    C8F12435   5.133   6.715   7.692 -0.1593 -0.3846 -0.2453
  118OSM    H8F12436   5.198   6.802   7.714 -0.6655  0.5358 -2.1596
  118OSM    H8G12437   5.191   6.630   7.735  0.4707  0.5258  0.7472
  118OSM    C9F12438   4.996   6.740   7.744 -0.2508  0.6573 -0.1449
  118OSM    H9F12439   4.934   6.650   7.750 -1.1652  1.1437 -1.7065
  118OSM   C10F12440   4.944   6.852   7.791  0.0856 -0.5049  0.4620
  118OSM   H10F12441   4.839   6.856   7.823  0.6666 -1.3628  2.6651
  118OSM   C11F12442   5.016   6.989   7.791 -0.4646 -0.0156 -1.0559
  118OSM   H11F12443   4.936   7.060   7.759 -0.8722  1.0591  1.9540
  118OSM   H11G12444   5.102   6.997   7.721  1.5622  0.3362  1.3334
  118OSM   C12F12445   5.059   7.038   7.930  0.3447  0.8418  0.3149
  118OSM   H12F12446   5.111   7.135   7.918  0.3714  1.0499  1.9276
  118OSM   H12G12447   5.129   6.957   7.960  0.8907  1.0921 -0.2722
  118OSM   C13F12448   4.938   7.072   8.020  0.0439  0.4997  0.1019
  118OSM   H13F12449   4.874   6.981   8.025  1.3076 -0.5441 -1.6136
  118OSM   H13G12450   4.880   7.150   7.966  1.5197  0.3539 -1.8195
  118OSM   C14F12451   4.980   7.112   8.159 -0.4298 -0.1020 -0.0414
  118OSM   H14F12452   5.038   7.205   8.137 -1.3525  0.1657 -1.5310
  118OSM   H14G12453   5.050   7.039   8.204 -0.5956 -1.0256 -1.2208
  118OSM   C15F12454   4.855   7.133   8.248  0.1198  0.3027  0.2310
  118OSM   H15F12455   4.780   7.059   8.214 -0.1609  0.9235 -0.5467
  118OSM   H15G12456   4.803   7.227   8.220  0.1754  0.2621 -0.0136
  118OSM   C16F12457   4.883   7.130   8.401  0.1883 -0.3944  0.3990
  118OSM   H16F12458   4.947   7.219   8.414  0.4382 -0.3280 -1.0530
  118OSM   H16G12459   4.942   7.041   8.430  0.5465 -0.5663 -0.7728
  118OSM   C17F12460   4.760   7.131   8.479  0.0709  0.7389  0.3866
  118OSM   H17F12461   4.702   7.225   8.464  0.9095  1.1776 -0.1872
  118OSM   H17G12462   4.782   7.123   8.588  1.2780 -0.3048  0.0829
  118OSM   C18F12463   4.663   7.016   8.450 -0.1389  0.2450 -0.1730
  118OSM   H18F12464   4.583   6.996   8.524  0.2739 -1.1939 -0.0917
  118OSM   H18G12465   4.728   6.927   8.453 -2.3578 -1.4513  2.5634
  118OSM   H18H12466   4.624   7.015   8.346  1.2087  3.0849 -0.8135
  119OSM      N12467   4.123   4.114   5.963 -0.1560  0.0168 -0.2956
  119OSM    C1512468   4.035   4.081   5.848 -0.2494  0.5663  0.4997
  119OSM   H15A12469   4.014   3.975   5.855 -0.5249  0.6381  0.8500
  119OSM   H15B12470   4.084   4.099   5.754  0.3032 -1.4849  0.3536
  119OSM   H15C12471   3.942   4.133   5.868 -1.9658 -1.8323 -0.7728
  119OSM    C1412472   4.255   4.059   5.919  0.0035 -0.2384 -0.4884
  119OSM   H14A12473   4.250   3.952   5.905 -2.4065 -0.0961 -1.1395
  119OSM   H14B12474   4.338   4.075   5.986 -0.4181  2.4040 -0.5134
  119OSM   H14C12475   4.286   4.091   5.820 -0.1880 -1.2644 -0.8994
  119OSM    C1312476   4.131   4.261   5.977  0.3835 -0.3876 -0.2414
  119OSM   H13A12477   4.131   4.311   5.881 -1.9589  1.4977  0.6318
  119OSM   H13B12478   4.217   4.284   6.038 -0.8676  1.6395  0.8661
  119OSM   H13C12479   4.054   4.310   6.035  1.2550  1.3343 -0.4764
  119OSM    C1212480   4.077   4.060   6.097  0.4897 -0.2723  0.2271
  119OSM   H12A12481   3.980   4.103   6.116  1.5647  1.6152  1.7829
  119OSM   H12B12482   4.144   4.089   6.177 -0.5889 -0.0952  1.0958
  119OSM    C1112483   4.076   3.906   6.113  0.2406 -0.2349 -0.5445
  119OSM   H11A12484   4.087   3.901   6.224  0.3749  2.0213 -0.4089
  119OSM   H11B12485   4.168   3.862   6.070 -0.3918 -1.6300 -0.5250
  119OSM      P12486   3.821   3.881   6.142 -0.1218  0.0115  0.1680
  119OSM    O1312487   3.774   4.020   6.120 -0.1258 -0.0753 -0.2255
  119OSM    O1412488   3.723   3.779   6.123 -0.0891 -0.4761  0.0021
  119OSM    O1112489   3.873   3.865   6.287  0.4843  0.1873 -0.4935
  119OSM    O1212490   3.953   3.853   6.057  0.2615 -0.2432 -0.4361
  119OSM    C1S12491   3.830   3.955   6.388  0.2781  0.1305  0.3067
  119OSM    H1S12492   3.719   3.946   6.391  0.1676  0.8046  4.4842
  119OSM    H1T12493   3.866   4.056   6.362  0.3653 -0.1502 -0.7287
  119OSM     NF12494   3.844   4.012   6.616  0.1706  0.0056  0.3821
  119OSM    HNF12495   3.906   4.090   6.620 -2.7165  2.5170  0.0910
  119OSM    C2S12496   3.875   3.901   6.529  0.1770  0.1825  0.0381
  119OSM    H2S12497   3.811   3.821   6.571 -2.6124  2.6660  0.9228
  119OSM    C3S12498   4.026   3.858   6.532  0.4941  0.1476 -0.8273
  119OSM    H3S12499   4.099   3.936   6.503 -0.1390  1.2590  0.4134
  119OSM     O312500   4.058   3.749   6.441  0.7426  0.1091 -0.0879
  119OSM    HO312501   3.987   3.755   6.377  1.5763 -0.7061 -1.1172
  119OSM    C4S12502   4.065   3.825   6.681  0.3962  0.3749 -0.0897
  119OSM    H4S12503   4.096   3.920   6.728  0.2334  1.4821 -2.0948
  119OSM    C5S12504   4.059   3.700   6.743 -0.0429 -0.0723 -0.7869
  119OSM    H5S12505   4.037   3.614   6.678  0.0264 -0.2294 -0.6030
  119OSM    C6S12506   4.096   3.672   6.887  0.3046 -0.2817  0.3912
  119OSM    H6S12507   4.188   3.611   6.895  0.5553 -0.0523 -0.6325
  119OSM    H6T12508   4.003   3.624   6.925 -0.1947 -1.4084 -2.0581
  119OSM    C7S12509   4.116   3.801   6.988  0.0632  0.3730  0.1900
  119OSM    H7S12510   4.019   3.848   7.014 -0.7244  0.5534 -2.8015
  119OSM    H7T12511   4.174   3.880   6.937  1.1215  0.4070  1.4056
  119OSM    C8S12512   4.185   3.765   7.125  0.0988  0.6052  0.5824
  119OSM    H8S12513   4.295   3.760   7.108  0.0187  2.2931 -0.8644
  119OSM    H8T12514   4.141   3.678   7.177 -1.2214  1.0932  0.3210
  119OSM    C9S12515   4.157   3.882   7.220 -0.1216 -0.0233 -0.3163
  119OSM    H9S12516   4.047   3.900   7.220 -0.2487 -0.7141  0.5276
  119OSM    H9T12517   4.195   3.979   7.183 -1.9435  0.7822 -0.1874
  119OSM   C10S12518   4.193   3.846   7.364  0.1055 -0.5970  0.4334
  119OSM   H10S12519   4.300   3.817   7.370 -0.7544 -3.9485  2.4388
  119OSM   H10T12520   4.131   3.761   7.399 -0.7032 -1.0500 -1.9126
  119OSM   C11S12521   4.161   3.961   7.457 -0.5101 -0.2697  0.8047
  119OSM   H11S12522   4.053   3.982   7.441  0.1732  2.6395 -0.6163
  119OSM   H11T12523   4.203   4.054   7.413  0.2804 -0.6885  0.6515
  119OSM   C12S12524   4.200   3.950   7.605 -0.3867 -0.0128  0.1531
  119OSM   H12S12525   4.162   3.855   7.649 -1.2038  0.7064  1.0478
  119OSM   H12T12526   4.158   4.042   7.651  0.9728  2.9979 -4.0129
  119OSM   C13S12527   4.354   3.947   7.633 -0.0238 -0.0491  0.1065
  119OSM   H13S12528   4.409   4.042   7.616  1.4690 -1.0340 -0.7750
  119OSM   H13T12529   4.405   3.872   7.569  0.9646  0.5936  0.1208
  119OSM   C14S12530   4.380   3.927   7.784 -0.2440  0.3339 -0.6043
  119OSM   H14S12531   4.285   3.954   7.834 -0.4122 -1.6879  0.2586
  119OSM   H14T12532   4.472   3.973   7.828  0.3437 -0.5832 -0.8535
  119OSM   C15S12533   4.404   3.778   7.809 -0.5375 -0.6035 -0.1857
  119OSM   H15S12534   4.478   3.738   7.735 -1.6518 -2.5955 -0.2935
  119OSM   H15T12535   4.308   3.731   7.779 -1.2360  0.7832 -0.2033
  119OSM   C16S12536   4.425   3.735   7.952  1.0255  0.6024  1.0265
  119OSM   H16S12537   4.328   3.740   8.006  1.0383 -1.8357  1.3800
  119OSM   H16T12538   4.500   3.792   8.010  2.4945 -0.4067  0.1797
  119OSM   C17S12539   4.458   3.580   7.966  0.7512 -0.9976  0.2873
  119OSM   H17S12540   4.459   3.557   8.074  0.0515  0.1322  0.5491
  119OSM   H17T12541   4.559   3.573   7.919  0.7874  0.4748  0.0941
  119OSM   C18S12542   4.362   3.494   7.890  0.4603  0.3326 -0.9880
  119OSM   H18S12543   4.368   3.509   7.780 -1.4482 -0.3517 -1.2353
  119OSM   H18T12544   4.257   3.515   7.922  0.7072 -1.3056  1.1587
  119OSM   H18U12545   4.382   3.386   7.906 -0.3042  0.4862  1.3809
  119OSM    C1F12546   3.719   4.051   6.654  0.2705  0.3682 -0.0400
  119OSM     OF12547   3.611   3.998   6.622 -0.6510  0.5286 -0.2061
  119OSM    C2F12548   3.710   4.182   6.731 -0.7166 -0.2099 -0.5944
  119OSM    H2F12549   3.627   4.239   6.684 -3.3608 -1.7821  1.8151
  119OSM    H2G12550   3.807   4.233   6.715  1.0260 -3.0686  0.1934
  119OSM    C3F12551   3.700   4.167   6.882  0.0252 -0.0236  0.1666
  119OSM    H3F12552   3.618   4.095   6.899 -2.1170  1.7346 -2.1262
  119OSM    H3G12553   3.688   4.262   6.938 -1.5099 -0.6727  0.9957
  119OSM    C4F12554   3.826   4.109   6.948 -0.0117  0.4834  0.0765
  119OSM    H4F12555   3.834   4.001   6.922 -1.5301 -0.0767  1.7532
  119OSM    H4G12556   3.817   4.093   7.058 -2.6901  1.8168  0.1330
  119OSM    C5F12557   3.961   4.170   6.917 -0.5062 -0.3397  0.0300
  119OSM    H5F12558   3.978   4.137   6.812 -0.2665  0.0759 -0.0657
  119OSM    H5G12559   4.037   4.121   6.981  2.4475  2.0683 -1.3993
  119OSM    C6F12560   3.983   4.318   6.941 -0.0439  0.2329  0.5350
  119OSM    H6F12561   4.003   4.332   7.049  0.6810  0.3123  0.4019
  119OSM    H6G12562   3.896   4.378   6.907  0.4882 -0.2257 -1.8215
  119OSM    C7F12563   4.105   4.374   6.869 -0.7411  0.0265  0.5366
  119OSM    H7F12564   4.089   4.372   6.759  0.3937  1.3836  0.3158
  119OSM    H7G12565   4.197   4.316   6.889  0.4117  0.7984 -2.1103
  119OSM    C8F12566   4.140   4.517   6.904  0.0697  0.4862  0.1528
  119OSM    H8F12567   4.234   4.547   6.854 -0.4577 -0.6711 -1.6323
  119OSM    H8G12568   4.175   4.534   7.008  3.8185  0.8988 -1.0308
  119OSM    C9F12569   4.046   4.629   6.869 -0.0188  0.5040 -0.2663
  119OSM    H9F12570   3.962   4.608   6.801  0.1523 -0.7747 -0.1085
  119OSM   C10F12571   4.059   4.758   6.911  0.1000  0.0108 -0.2509
  119OSM   H10F12572   3.998   4.833   6.859  0.4945 -0.1511 -0.9580
  119OSM   C11F12573   4.161   4.813   7.006 -0.4367  0.8140 -0.1527
  119OSM   H11F12574   4.151   4.764   7.105 -1.5627  1.1653 -0.0756
  119OSM   H11G12575   4.125   4.914   7.035 -1.6494  0.0585  1.0853
  119OSM   C12F12576   4.303   4.828   6.961  0.6508 -0.2178  0.1414
  119OSM   H12F12577   4.306   4.896   6.874  3.4909  0.6797  0.8187
  119OSM   H12G12578   4.358   4.736   6.933  1.6420  0.9444 -1.9658
  119OSM   C13F12579   4.400   4.880   7.074  0.3033  1.0617 -0.5488
  119OSM   H13F12580   4.340   4.968   7.108  0.5389  1.1802 -0.4386
  119OSM   H13G12581   4.497   4.907   7.028  0.9809 -0.9267 -0.3776
  119OSM   C14F12582   4.419   4.778   7.192  0.3165 -0.3527 -0.1358
  119OSM   H14F12583   4.505   4.716   7.158  1.6003  2.2848 -1.9942
  119OSM   H14G12584   4.338   4.703   7.202  0.5276 -0.7697 -1.4139
  119OSM   C15F12585   4.471   4.837   7.325  0.1422  0.4685 -0.7282
  119OSM   H15F12586   4.391   4.906   7.357  0.9937  0.7317  0.9845
  119OSM   H15G12587   4.564   4.890   7.293  1.2885 -1.3234 -0.5616
  119OSM   C16F12588   4.488   4.731   7.436  0.4610  0.1057  0.1476
  119OSM   H16F12589   4.564   4.658   7.401  0.8917 -0.3192  1.8590
  119OSM   H16G12590   4.394   4.672   7.444 -0.0068  0.6372 -1.1587
  119OSM   C17F12591   4.535   4.801   7.559  0.1954 -0.1214  0.3006
  119OSM   H17F12592   4.475   4.894   7.571  1.6139  0.8438  0.0795
  119OSM   H17G12593   4.641   4.822   7.534  1.6579 -5.5995  0.5074
  119OSM   C18F12594   4.522   4.708   7.679  0.5479 -0.0263 -0.4201
  119OSM   H18F12595   4.590   4.622   7.661  0.5897 -0.6547  2.2707
  119OSM   H18G12596   4.428   4.661   7.716  1.9183 -4.5320 -1.9517
  119OSM   H18H12597   4.574   4.757   7.763  2.0236  1.6347 -2.2023
  120OSM      N12598   3.789   2.089   6.333  0.7605 -0.3288 -0.0074
  120OSM    C1512599   3.690   2.114   6.441 -0.7663 -0.1396  0.3975
  120OSM   H15A12600   3.701   2.033   6.512 -3.4722 -1.3225 -0.4121
  120OSM   H15B12601   3.591   2.130   6.403  0.0850 -0.1916 -2.0447
  120OSM   H15C12602   3.718   2.208   6.487 -0.6367 -0.0119  0.0586
  120OSM    C1412603   3.739   1.966   6.256  0.2256 -0.6340  0.0403
  120OSM   H14A12604   3.632   1.972   6.241  0.0233 -1.0756  1.2025
  120OSM   H14B12605   3.757   1.877   6.316 -2.1284 -0.5880  0.9360
  120OSM   H14C12606   3.794   1.952   6.164  0.0997  0.0999 -0.1529
  120OSM    C1312607   3.783   2.198   6.229  0.6173 -0.6155  0.1734
  120OSM   H13A12608   3.685   2.222   6.190  0.9294  0.4491  0.0147
  120OSM   H13B12609   3.848   2.176   6.146 -0.2967 -0.5509 -0.5730
  120OSM   H13C12610   3.824   2.286   6.276  0.5660 -0.3781 -0.2305
  120OSM    C1212611   3.934   2.061   6.385  0.0912 -0.2476  0.2877
  120OSM   H12A12612   3.987   2.030   6.296 -0.4815  2.6709 -1.2235
  120OSM   H12B12613   3.933   1.981   6.456  1.8750  1.1033  1.9263
  120OSM    C1112614   4.019   2.168   6.460 -0.0953 -0.3163 -0.1136
  120OSM   H11A12615   4.117   2.120   6.479 -0.9790 -1.6787  1.2637
  120OSM   H11B12616   3.986   2.205   6.560  2.7002  0.9498  0.4358
  120OSM      P12617   4.148   2.295   6.273 -0.0433  0.2120  0.1343
  120OSM    O1312618   4.140   2.177   6.184 -0.4179  0.7494  0.1686
  120OSM    O1412619   4.141   2.431   6.215 -0.1032 -0.3388 -0.5151
  120OSM    O1112620   4.285   2.287   6.361  0.0425  0.1645 -0.3564
  120OSM    O1212621   4.036   2.283   6.377  0.5524  0.4883 -0.0533
  120OSM    C1S12622   4.300   2.400   6.452 -0.4461 -0.6635  0.0415
  120OSM    H1S12623   4.203   2.422   6.502 -0.2611 -0.8647  0.4866
  120OSM    H1T12624   4.324   2.495   6.398 -1.3947 -0.5965 -0.2854
  120OSM     NF12625   4.464   2.508   6.615  0.5731 -0.0065 -0.4451
  120OSM    HNF12626   4.546   2.548   6.575  0.3669  0.4692 -0.3943
  120OSM    C2S12627   4.427   2.384   6.545  0.5329  0.1895 -0.3134
  120OSM    H2S12628   4.399   2.310   6.622 -0.7988  1.6151  0.6474
  120OSM    C3S12629   4.543   2.320   6.465 -0.5975 -0.1237 -0.2276
  120OSM    H3S12630   4.574   2.376   6.374 -0.5694  1.0575  0.4821
  120OSM     O312631   4.519   2.189   6.417  0.3934 -0.2744  0.0282
  120OSM    HO312632   4.423   2.185   6.416  0.2331  2.1647 -1.4920
  120OSM    C4S12633   4.657   2.306   6.557  0.0766 -0.6474  0.1514
  120OSM    H4S12634   4.631   2.233   6.635 -0.9231 -0.0932  0.3556
  120OSM    C5S12635   4.774   2.372   6.541 -0.5732  0.3157  0.1572
  120OSM    H5S12636   4.793   2.440   6.457 -0.6021  0.4822  0.2845
  120OSM    C6S12637   4.876   2.349   6.654 -0.7880 -0.7572 -0.8676
  120OSM    H6S12638   4.975   2.357   6.606  0.4753  1.9081  1.8420
  120OSM    H6T12639   4.877   2.244   6.689 -0.1671 -0.9960 -1.5840
  120OSM    C7S12640   4.872   2.457   6.768 -0.0661  0.1142 -0.6215
  120OSM    H7S12641   4.876   2.557   6.722  1.2639  0.3466 -0.0378
  120OSM    H7T12642   4.963   2.442   6.830 -1.3564  0.7404  1.5067
  120OSM    C8S12643   4.755   2.453   6.867 -0.3414 -0.1147 -0.3221
  120OSM    H8S12644   4.740   2.350   6.905  1.4105  0.4486  2.1753
  120OSM    H8T12645   4.670   2.498   6.812 -0.5356 -0.3231 -0.1917
  120OSM    C9S12646   4.782   2.534   6.991 -0.3580  0.3700  1.0373
  120OSM    H9S12647   4.803   2.636   6.952 -0.3569 -0.0098  0.0175
  120OSM    H9T12648   4.868   2.484   7.041  0.0935 -2.2004 -2.0015
  120OSM   C10S12649   4.658   2.545   7.076  0.3197  0.1540  0.3020
  120OSM   H10S12650   4.576   2.470   7.070  1.1720 -0.8337  0.7142
  120OSM   H10T12651   4.616   2.647   7.076 -0.0235  0.0131 -0.2122
  120OSM   C11S12652   4.711   2.545   7.219 -0.0817 -0.7171 -0.4238
  120OSM   H11S12653   4.809   2.596   7.214 -0.6153  0.2618 -1.2543
  120OSM   H11T12654   4.739   2.443   7.254 -1.6631 -0.6004  1.3482
  120OSM   C12S12655   4.613   2.616   7.323 -0.0677  0.3364  0.6752
  120OSM   H12S12656   4.528   2.545   7.332 -0.2153  0.5385  0.9060
  120OSM   H12T12657   4.587   2.719   7.290 -0.0015  0.0423 -0.3072
  120OSM   C13S12658   4.696   2.622   7.456 -0.2130  0.4180 -0.1355
  120OSM   H13S12659   4.754   2.528   7.470 -1.5688 -0.3112  0.8049
  120OSM   H13T12660   4.623   2.631   7.540  0.2004  1.3365  0.1374
  120OSM   C14S12661   4.792   2.739   7.461  0.1688 -0.0335  0.0429
  120OSM   H14S12662   4.752   2.842   7.447  0.8505  0.0224 -1.7674
  120OSM   H14T12663   4.857   2.729   7.372  0.3208 -0.2186  0.1724
  120OSM   C15S12664   4.874   2.742   7.589 -0.2211 -0.5575 -1.4721
  120OSM   H15S12665   4.953   2.820   7.582  0.4300 -1.0888 -0.4489
  120OSM   H15T12666   4.922   2.641   7.587  0.5051 -0.2832  0.2365
  120OSM   C16S12667   4.793   2.763   7.712  1.0982  0.6243 -0.7137
  120OSM   H16S12668   4.730   2.672   7.724  1.8766 -0.3248 -3.0399
  120OSM   H16T12669   4.721   2.846   7.699  0.0204 -0.3203 -0.9778
  120OSM   C17S12670   4.885   2.796   7.830 -0.2189 -0.2944  0.0228
  120OSM   H17S12671   4.824   2.834   7.914  1.9628  2.4914  0.5167
  120OSM   H17T12672   4.951   2.877   7.791  1.0648 -0.6877  1.3020
  120OSM   C18S12673   4.979   2.683   7.869 -0.5711  0.2862 -0.0195
  120OSM   H18S12674   5.050   2.710   7.950  2.0431 -1.4878 -1.5635
  120OSM   H18T12675   5.036   2.642   7.783 -2.1089  0.4913 -1.1832
  120OSM   H18U12676   4.928   2.592   7.907 -0.5065 -0.2470 -1.1672
  120OSM    C1F12677   4.388   2.555   6.717  0.2091 -0.1296  0.4126
  120OSM     OF12678   4.292   2.492   6.759 -0.0957  0.0854  0.1505
  120OSM    C2F12679   4.428   2.690   6.781 -0.3487  0.8427 -0.1300
  120OSM    H2F12680   4.385   2.771   6.719  0.9369 -0.4250 -2.8014
  120OSM    H2G12681   4.539   2.700   6.775  0.0054 -2.6808 -1.5283
  120OSM    C3F12682   4.378   2.701   6.930  0.2705 -0.4044  0.6831
  120OSM    H3F12683   4.460   2.752   6.984  1.5308 -0.6292 -0.9624
  120OSM    H3G12684   4.357   2.606   6.983 -2.7889 -0.6109 -0.6711
  120OSM    C4F12685   4.256   2.802   6.939  0.2759  0.2888  0.1490
  120OSM    H4F12686   4.186   2.775   6.857 -1.6301  2.3227  1.0191
  120OSM    H4G12687   4.303   2.901   6.920  1.1237 -0.2037 -0.3997
  120OSM    C5F12688   4.186   2.778   7.077  0.2718 -0.2035  0.7375
  120OSM    H5F12689   4.264   2.776   7.155  0.3020  1.0657  0.7573
  120OSM    H5G12690   4.132   2.681   7.084 -2.2770  1.0509  0.0200
  120OSM    C6F12691   4.074   2.889   7.103  0.2744 -0.6806 -0.5354
  120OSM    H6F12692   4.021   2.891   7.006  1.7589 -0.2527 -1.3714
  120OSM    H6G12693   4.124   2.986   7.125 -2.4534  0.3555  1.6308
  120OSM    C7F12694   3.977   2.874   7.220  0.1731  0.0380 -0.3173
  120OSM    H7F12695   3.895   2.949   7.219  0.4132  0.3611  1.2150
  120OSM    H7G12696   4.041   2.892   7.309 -1.1770  0.5411  0.5854
  120OSM    C8F12697   3.925   2.732   7.234 -0.3315  0.1741  0.0494
  120OSM    H8F12698   4.002   2.673   7.289 -1.2058 -0.8242  0.2310
  120OSM    H8G12699   3.909   2.693   7.131 -1.4203  0.3204  0.1569
  120OSM    C9F12700   3.793   2.710   7.306  0.4777 -0.7112 -0.0466
  120OSM    H9F12701   3.722   2.661   7.239  0.3263  0.7429 -0.9833
  120OSM   C10F12702   3.758   2.751   7.437 -0.7697 -0.3564 -0.1155
  120OSM   H10F12703   3.655   2.734   7.472 -0.5099 -0.9461  0.3806
  120OSM   C11F12704   3.842   2.839   7.529  0.2330  0.2219  0.2701
  120OSM   H11F12705   3.779   2.911   7.584  0.9547 -0.0864  1.5335
  120OSM   H11G12706   3.928   2.890   7.480  1.0502 -0.9615  0.4216
  120OSM   C12F12707   3.894   2.740   7.640  0.8037 -0.4506  0.2612
  120OSM   H12F12708   3.962   2.796   7.706  1.9146 -2.3651  0.8254
  120OSM   H12G12709   3.954   2.658   7.594  3.0866  0.4546  1.5012
  120OSM   C13F12710   3.788   2.675   7.730  0.9181 -0.2531  0.6592
  120OSM   H13F12711   3.728   2.601   7.673  2.0810 -1.1623  0.5812
  120OSM   H13G12712   3.720   2.757   7.764 -0.3144  0.5093 -3.1463
  120OSM   C14F12713   3.851   2.605   7.857 -0.2403  0.1798  0.7245
  120OSM   H14F12714   3.918   2.671   7.916  0.3423 -0.3840  0.6966
  120OSM   H14G12715   3.913   2.517   7.832 -1.1937 -0.2710 -0.1211
  120OSM   C15F12716   3.743   2.571   7.967  0.3806 -0.3712 -0.4330
  120OSM   H15F12717   3.668   2.504   7.918  2.3241 -1.5655 -1.9068
  120OSM   H15G12718   3.699   2.670   7.992  1.4643  0.1999 -0.7363
  120OSM   C16F12719   3.806   2.517   8.096  0.2082  0.8310  0.2460
  120OSM   H16F12720   3.881   2.590   8.133  0.4602  1.4640 -1.4346
  120OSM   H16G12721   3.867   2.427   8.072 -0.4140 -0.0627  1.8037
  120OSM   C17F12722   3.696   2.507   8.200 -0.7734 -0.2576 -0.5328
  120OSM   H17F12723   3.619   2.442   8.153 -2.6920 -0.3286  2.4245
  120OSM   H17G12724   3.658   2.607   8.230 -1.2597 -1.1249  1.9633
  120OSM   C18F12725   3.743   2.428   8.322  0.0835  0.4594 -1.0871
  120OSM   H18F12726   3.847   2.448   8.356 -0.7559  0.2447  1.9388
  120OSM   H18G12727   3.737   2.319   8.305 -0.3488 -0.2423  2.6429
  120OSM   H18H12728   3.677   2.440   8.411  0.6763 -1.6718 -0.3170
  121OSM      N12729   5.495   4.487   6.022  0.0726  0.3035  0.3272
  121OSM    C1512730   5.490   4.609   6.110 -0.7155 -0.2679  0.1485
  121OSM   H15A12731   5.576   4.671   6.088  0.1621 -0.7172  2.1544
  121OSM   H15B12732   5.499   4.566   6.209 -1.3983  0.6919  0.6395
  121OSM   H15C12733   5.404   4.674   6.116 -0.4115  0.0211  1.6445
  121OSM    C1412734   5.363   4.423   6.031 -0.8293 -0.6035  0.1691
  121OSM   H14A12735   5.357   4.342   5.958  0.0717  0.9369 -1.6965
  121OSM   H14B12736   5.284   4.494   6.010 -1.0360 -0.1553  2.2787
  121OSM   H14C12737   5.349   4.392   6.133 -1.0535  1.7709  0.9108
  121OSM    C1312738   5.516   4.532   5.879  0.0167 -0.3840  0.0320
  121OSM   H13A12739   5.481   4.455   5.811 -0.5078  0.0348 -0.1823
  121OSM   H13B12740   5.617   4.562   5.861  0.0400 -1.5935 -2.1668
  121OSM   H13C12741   5.456   4.621   5.865  1.0518  0.0535 -2.0123
  121OSM    C1212742   5.603   4.389   6.056 -0.7676 -0.1956 -0.1482
  121OSM   H12A12743   5.699   4.438   6.060 -0.7788 -0.2398  1.8970
  121OSM   H12B12744   5.610   4.318   5.975 -0.9775 -1.7650  1.1587
  121OSM    C1112745   5.603   4.317   6.193  0.5702  0.0433 -0.2298
  121OSM   H11A12746   5.601   4.393   6.274  1.8082 -0.4790  0.3374
  121OSM   H11B12747   5.696   4.257   6.209 -0.2450 -1.9520 -2.3549
  121OSM      P12748   5.496   4.082   6.137 -0.3621 -0.1711  0.3574
  121OSM    O1312749   5.356   4.052   6.101  0.6096 -0.4105 -0.3977
  121OSM    O1412750   5.599   4.074   6.027  0.0308 -0.0008 -0.2849
  121OSM    O1112751   5.547   3.984   6.253 -0.3059  0.0674 -0.1480
  121OSM    O1212752   5.496   4.225   6.204 -0.1554  0.0424  0.8083
  121OSM    C1S12753   5.558   4.018   6.388  0.1605 -0.4278  0.3347
  121OSM    H1S12754   5.600   4.120   6.398 -0.0154 -0.3155 -0.0719
  121OSM    H1T12755   5.639   3.953   6.428  0.9128 -0.5368 -1.2891
  121OSM     NF12756   5.477   4.041   6.620 -0.3609 -0.0343 -0.0853
  121OSM    HNF12757   5.479   3.961   6.679  0.9759  0.3083  0.3807
  121OSM    C2S12758   5.435   4.018   6.481  0.1247 -0.3813 -0.4857
  121OSM    H2S12759   5.372   4.102   6.444  0.1413  0.3122  0.9896
  121OSM    C3S12760   5.363   3.879   6.476  0.7008 -0.0903  0.3032
  121OSM    H3S12761   5.433   3.800   6.507 -0.2923  0.0574  3.2453
  121OSM     O312762   5.298   3.856   6.349  0.1299 -0.1655  0.7807
  121OSM    HO312763   5.331   3.922   6.288  0.3878 -1.4875 -0.5784
  121OSM    C4S12764   5.260   3.866   6.587 -0.1734  0.1234  0.4085
  121OSM    H4S12765   5.305   3.810   6.671  0.3388  0.9276  0.6799
  121OSM    C5S12766   5.137   3.907   6.594 -0.3142 -0.6826 -0.4660
  121OSM    H5S12767   5.113   3.984   6.519  0.3676 -0.5532 -0.5564
  121OSM    C6S12768   5.041   3.903   6.713  0.1724 -0.2883  0.1240
  121OSM    H6S12769   4.944   3.941   6.675 -1.0004 -1.1646  2.0404
  121OSM    H6T12770   5.077   3.978   6.786 -0.0356  0.6136 -0.6893
  121OSM    C7S12771   5.027   3.761   6.762  0.3204 -0.2630  0.6255
  121OSM    H7S12772   5.124   3.717   6.793  1.3340  0.1491 -1.7474
  121OSM    H7T12773   4.996   3.690   6.682  1.0123 -2.3442  2.1071
  121OSM    C8S12774   4.915   3.754   6.871  0.3859 -0.4895  0.6246
  121OSM    H8S12775   4.823   3.796   6.825  0.9488  0.7024  0.5453
  121OSM    H8T12776   4.944   3.836   6.941  1.9605  0.5300 -1.1039
  121OSM    C9S12777   4.893   3.618   6.926 -0.1611 -0.1688  0.1599
  121OSM    H9S12778   4.988   3.576   6.964  0.3311  0.5902 -0.2000
  121OSM    H9T12779   4.845   3.548   6.853 -0.3794  2.2612 -2.1693
  121OSM   C10S12780   4.784   3.614   7.041 -1.0210 -0.4588  0.2425
  121OSM   H10S12781   4.754   3.510   7.067  2.4837 -2.5758 -3.1230
  121OSM   H10T12782   4.697   3.656   6.985  0.7108  0.1675 -2.1362
  121OSM   C11S12783   4.799   3.713   7.157  0.3063 -0.3116  0.2723
  121OSM   H11S12784   4.823   3.811   7.111 -0.3600 -0.4988 -0.4981
  121OSM   H11T12785   4.878   3.674   7.224  1.3313 -2.9670 -2.2799
  121OSM   C12S12786   4.661   3.725   7.233  0.0668  0.6861 -0.0956
  121OSM   H12S12787   4.592   3.779   7.165 -1.1461 -0.2351  0.3849
  121OSM   H12T12788   4.665   3.779   7.330 -2.6895 -0.7570  0.9233
  121OSM   C13S12789   4.594   3.597   7.283 -0.3474 -0.5580 -0.5344
  121OSM   H13S12790   4.584   3.525   7.199 -1.6306  0.1311 -0.9996
  121OSM   H13T12791   4.485   3.611   7.298 -0.3797 -1.4066  0.1291
  121OSM   C14S12792   4.649   3.547   7.414 -0.3784 -0.4299 -0.6039
  121OSM   H14S12793   4.640   3.629   7.488  0.2076 -1.4918  0.6746
  121OSM   H14T12794   4.754   3.513   7.402 -0.1316 -0.7908  2.0623
  121OSM   C15S12795   4.565   3.427   7.461  0.1394  0.5650  0.1715
  121OSM   H15S12796   4.603   3.338   7.406 -0.2597  0.6974 -0.3260
  121OSM   H15T12797   4.458   3.433   7.433  0.2079 -0.3227 -0.3095
  121OSM   C16S12798   4.570   3.403   7.613  0.2843 -0.0229  0.0293
  121OSM   H16S12799   4.472   3.360   7.642 -0.6588  1.5361 -0.7475
  121OSM   H16T12800   4.570   3.506   7.654  1.5851 -0.4713  1.2486
  121OSM   C17S12801   4.699   3.323   7.661  0.2216  0.0227 -0.1166
  121OSM   H17S12802   4.706   3.325   7.772  0.0549 -2.1686 -0.0318
  121OSM   H17T12803   4.780   3.390   7.624  0.0849  1.3026  1.7452
  121OSM   C18S12804   4.714   3.184   7.613  0.4538  0.7597  0.4306
  121OSM   H18S12805   4.813   3.133   7.624  0.0968 -0.2658 -0.8816
  121OSM   H18T12806   4.696   3.178   7.504  0.7631 -1.8240  0.4519
  121OSM   H18U12807   4.642   3.114   7.660 -0.9978  0.2347 -2.4055
  121OSM    C1F12808   5.525   4.155   6.670  0.5965  0.6470  0.5070
  121OSM     OF12809   5.518   4.257   6.600 -0.0377 -0.0353 -0.1774
  121OSM    C2F12810   5.567   4.150   6.800 -0.0325  0.3102 -0.2864
  121OSM    H2F12811   5.609   4.050   6.826 -0.6435 -0.0317 -0.6087
  121OSM    H2G12812   5.476   4.159   6.863  0.4461  0.6025  0.3872
  121OSM    C3F12813   5.675   4.253   6.850 -0.8218 -0.6050  0.5677
  121OSM    H3F12814   5.643   4.356   6.824 -0.2534 -0.9738 -1.8211
  121OSM    H3G12815   5.761   4.226   6.785 -0.8328 -2.1502  1.1423
  121OSM    C4F12816   5.723   4.223   6.991 -0.2802  0.1953 -0.3358
  121OSM    H4F12817   5.770   4.122   6.995  1.4453  0.7942 -2.8963
  121OSM    H4G12818   5.621   4.220   7.034 -0.3845 -0.3809 -0.6035
  121OSM    C5F12819   5.817   4.334   7.052 -0.1631  0.5837  0.0247
  121OSM    H5F12820   5.756   4.424   7.076  0.3323  0.5944  1.3502
  121OSM    H5G12821   5.900   4.362   6.983  1.1694  0.6396  1.5658
  121OSM    C6F12822   5.888   4.296   7.187 -0.1370  0.2186 -0.2191
  121OSM    H6F12823   5.957   4.374   7.225 -1.1138  0.2583  1.5622
  121OSM    H6G12824   5.948   4.203   7.177 -1.6636 -0.9457  1.0032
  121OSM    C7F12825   5.788   4.268   7.302  0.3954  0.2655 -0.3129
  121OSM    H7F12826   5.714   4.191   7.272  1.7061 -2.4480  2.7267
  121OSM    H7G12827   5.722   4.353   7.327  0.4192  0.5853 -1.3082
  121OSM    C8F12828   5.862   4.217   7.435 -0.0775 -0.2077  0.4756
  121OSM    H8F12829   5.946   4.285   7.462  0.3793 -0.8302  0.6406
  121OSM    H8G12830   5.910   4.123   7.400  2.4876  1.8582 -2.0284
  121OSM    C9F12831   5.781   4.173   7.551  0.2292 -0.5485 -0.3907
  121OSM    H9F12832   5.728   4.078   7.534  1.1994 -1.1662 -0.0626
  121OSM   C10F12833   5.769   4.235   7.673  0.5812  0.8917  0.2523
  121OSM   H10F12834   5.706   4.196   7.754  2.1807  0.3919  1.3160
  121OSM   C11F12835   5.840   4.364   7.708 -0.3702  0.1145  1.1414
  121OSM   H11F12836   5.769   4.448   7.723  0.4139  1.0917 -0.2721
  121OSM   H11G12837   5.905   4.393   7.622  0.3109 -1.7445  0.9896
  121OSM   C12F12838   5.906   4.332   7.839 -0.4483 -1.1662 -0.3756
  121OSM   H12F12839   5.962   4.428   7.853 -1.2225 -0.5762 -1.2482
  121OSM   H12G12840   5.978   4.249   7.821 -0.1203 -0.8382 -0.6247
  121OSM   C13F12841   5.816   4.319   7.961  0.2727 -0.0779  0.0525
  121OSM   H13F12842   5.881   4.269   8.036  0.2465 -2.8725 -1.6437
  121OSM   H13G12843   5.727   4.253   7.956 -1.3523  1.9899  0.2571
  121OSM   C14F12844   5.776   4.455   8.014  0.0231  0.1156  0.1702
  121OSM   H14F12845   5.728   4.504   7.927  3.5819 -1.2202 -2.8025
  121OSM   H14G12846   5.858   4.512   8.064  1.0342  1.1084 -2.4698
  121OSM   C15F12847   5.671   4.449   8.120  0.4947 -0.2126 -0.3639
  121OSM   H15F12848   5.697   4.384   8.206 -2.4691 -0.6251  0.3377
  121OSM   H15G12849   5.576   4.405   8.081 -1.1035  0.9271  2.0122
  121OSM   C16F12850   5.623   4.587   8.181  0.4214 -0.1925  0.5651
  121OSM   H16F12851   5.557   4.640   8.109 -0.2383 -0.0494  1.2675
  121OSM   H16G12852   5.722   4.635   8.198 -0.6396  2.4383 -0.2264
  121OSM   C17F12853   5.539   4.566   8.305 -0.1711  0.1438  0.0970
  121OSM   H17F12854   5.544   4.658   8.367  1.5850  0.2235 -0.1108
  121OSM   H17G12855   5.600   4.492   8.361  2.4235  0.4120 -2.1343
  121OSM   C18F12856   5.399   4.524   8.268 -0.4540 -0.2972  0.5061
  121OSM   H18F12857   5.342   4.600   8.210  1.0495  0.2242 -0.3274
  121OSM   H18G12858   5.335   4.510   8.358 -2.2922  3.0360 -0.1319
  121OSM   H18H12859   5.400   4.429   8.211  0.2192 -1.0414  1.7194
  122OSM      N12860   5.550   6.667   5.832  0.4057 -0.1249 -0.1108
  122OSM    C1512861   5.620   6.802   5.809  0.2244 -0.2191  0.8789
  122OSM   H15A12862   5.648   6.841   5.906  0.2025 -0.5068  1.0013
  122OSM   H15B12863   5.567   6.879   5.755  2.4741 -0.1935 -1.4974
  122OSM   H15C12864   5.706   6.773   5.751 -2.0545 -3.3395 -1.2697
  122OSM    C1412865   5.457   6.635   5.720 -0.2516 -0.9343 -0.0898
  122OSM   H14A12866   5.402   6.544   5.741 -3.4989  0.9555  0.1216
  122OSM   H14B12867   5.515   6.618   5.630 -1.6427 -0.4005 -1.1220
  122OSM   H14C12868   5.392   6.717   5.694  0.1171 -0.3450  0.7927
  122OSM    C1312869   5.659   6.564   5.848  0.2770  0.1058 -0.1855
  122OSM   H13A12870   5.620   6.466   5.867 -2.1288  0.5072 -2.4379
  122OSM   H13B12871   5.711   6.598   5.937 -1.0842 -0.5050  0.8787
  122OSM   H13C12872   5.724   6.561   5.762 -0.7626 -0.2510 -0.9764
  122OSM    C1212873   5.484   6.672   5.965  0.9797 -0.0754 -0.1313
  122OSM   H12A12874   5.454   6.568   5.976  0.9020 -0.1967 -1.3580
  122OSM   H12B12875   5.396   6.733   5.953 -0.1830 -1.6642 -0.0051
  122OSM    C1112876   5.565   6.734   6.086  0.2849 -0.0315  0.5658
  122OSM   H11A12877   5.672   6.704   6.080  0.2008 -0.1396 -0.6102
  122OSM   H11B12878   5.533   6.693   6.184 -3.0303  2.0137  0.5109
  122OSM      P12879   5.482   6.973   6.172 -0.1872 -0.3114 -0.2718
  122OSM    O1312880   5.580   7.081   6.191 -0.1762  0.0263  0.1211
  122OSM    O1412881   5.353   7.011   6.125  0.0993  0.5300 -0.2451
  122OSM    O1112882   5.478   6.890   6.307 -0.7594  0.2479 -0.0251
  122OSM    O1212883   5.557   6.872   6.079 -0.3959  0.2428  0.0553
  122OSM    C1S12884   5.354   6.848   6.372  0.6162  0.3381  0.5546
  122OSM    H1S12885   5.326   6.748   6.331  0.5965 -0.0641  1.5344
  122OSM    H1T12886   5.270   6.917   6.348 -0.6668 -1.7795 -1.6512
  122OSM     NF12887   5.238   6.774   6.597 -0.4542 -0.1175 -0.0835
  122OSM    HNF12888   5.200   6.840   6.661  0.2376  0.2973 -0.0954
  122OSM    C2S12889   5.364   6.826   6.531 -0.7512 -0.0343  0.3537
  122OSM    H2S12890   5.440   6.746   6.543 -2.2048 -1.4006  0.7807
  122OSM    C3S12891   5.420   6.953   6.601 -0.4883  0.0616 -0.2344
  122OSM    H3S12892   5.335   7.024   6.616 -2.0785 -1.6213 -0.8398
  122OSM     O312893   5.524   7.020   6.528 -0.0524 -0.1876  0.1984
  122OSM    HO312894   5.529   6.965   6.449  1.1917  0.6955 -0.3574
  122OSM    C4S12895   5.454   6.916   6.744 -1.1895 -0.6162  0.1934
  122OSM    H4S12896   5.383   6.932   6.826  2.0862 -0.6712  3.3371
  122OSM    C5S12897   5.574   6.867   6.790 -0.0941  0.3118  0.3207
  122OSM    H5S12898   5.658   6.850   6.721  1.1557 -0.7327  2.0197
  122OSM    C6S12899   5.622   6.828   6.929  0.4707 -0.3239  0.0032
  122OSM    H6S12900   5.705   6.895   6.958 -0.4585  1.2856 -0.9329
  122OSM    H6T12901   5.666   6.726   6.927  1.3438 -0.0457  2.3984
  122OSM    C7S12902   5.513   6.821   7.046 -0.4658 -0.3642  0.7684
  122OSM    H7S12903   5.439   6.744   7.017  1.2373 -1.4786 -0.8571
  122OSM    H7T12904   5.460   6.919   7.039  0.7201  0.2266 -0.4808
  122OSM    C8S12905   5.583   6.796   7.172  0.3997 -0.3204  1.1483
  122OSM    H8S12906   5.662   6.872   7.190  1.5655 -1.0054 -0.7687
  122OSM    H8T12907   5.637   6.699   7.164  0.6352 -0.2973  2.3025
  122OSM    C9S12908   5.490   6.795   7.292 -0.2513 -0.1356  0.0680
  122OSM    H9S12909   5.437   6.697   7.293  0.3468 -0.4633  1.3770
  122OSM    H9T12910   5.417   6.876   7.272 -0.2708 -0.5213 -1.6066
  122OSM   C10S12911   5.567   6.806   7.429  0.5076 -0.6200  0.2376
  122OSM   H10S12912   5.614   6.907   7.433 -1.2166  0.1825  3.2334
  122OSM   H10T12913   5.650   6.732   7.433  1.0110 -0.0105  1.5256
  122OSM   C11S12914   5.485   6.780   7.553  0.3995  0.9850 -0.0356
  122OSM   H11S12915   5.451   6.675   7.557 -1.3641  1.2215 -3.7202
  122OSM   H11T12916   5.395   6.844   7.541  0.2644  1.2124  1.9320
  122OSM   C12S12917   5.562   6.823   7.679  0.4872  0.6401  0.1448
  122OSM   H12S12918   5.596   6.929   7.676  1.8837  0.2905  2.0195
  122OSM   H12T12919   5.651   6.761   7.701  0.4886  0.6442  0.1523
  122OSM   C13S12920   5.475   6.801   7.808 -0.0606 -0.1516  0.7642
  122OSM   H13S12921   5.435   6.698   7.800 -2.2504  0.7973 -1.6741
  122OSM   H13T12922   5.389   6.870   7.798 -2.0952 -2.7115 -0.6606
  122OSM   C14S12923   5.554   6.853   7.930  0.1311  0.0701 -0.0986
  122OSM   H14S12924   5.483   6.852   8.016 -1.3692 -0.2425 -1.2837
  122OSM   H14T12925   5.580   6.961   7.920 -0.8663  0.2400 -1.0628
  122OSM   C15S12926   5.672   6.775   7.977 -0.3225  0.3914  1.1923
  122OSM   H15S12927   5.742   6.814   8.054  1.2715 -0.1216  0.0582
  122OSM   H15T12928   5.740   6.751   7.893 -0.7498 -1.9559  1.4275
  122OSM   C16S12929   5.638   6.631   8.023 -0.6834  0.2667  0.8265
  122OSM   H16S12930   5.731   6.571   8.019 -1.2569 -0.6218  0.6308
  122OSM   H16T12931   5.575   6.581   7.947 -1.3787  3.0560 -0.5841
  122OSM   C17S12932   5.582   6.632   8.164  0.9097  0.4596 -0.0660
  122OSM   H17S12933   5.480   6.674   8.154  0.7035 -0.2056 -0.8684
  122OSM   H17T12934   5.639   6.697   8.234  2.8210 -0.9180 -0.2324
  122OSM   C18S12935   5.562   6.496   8.234  0.1279 -0.0663  0.3905
  122OSM   H18S12936   5.662   6.453   8.257 -0.1809 -0.6737  0.6400
  122OSM   H18T12937   5.499   6.425   8.176  0.4364  0.1631 -0.2331
  122OSM   H18U12938   5.502   6.510   8.327 -2.8944 -1.8317 -1.1114
  122OSM    C1F12939   5.194   6.648   6.587 -0.0110 -0.3669  0.6500
  122OSM     OF12940   5.259   6.568   6.520  0.5381 -0.0060 -0.2596
  122OSM    C2F12941   5.074   6.613   6.666  0.0857  0.1542  0.5375
  122OSM    H2F12942   5.000   6.548   6.614 -0.0682  0.1289  0.7856
  122OSM    H2G12943   5.026   6.709   6.695  0.6090 -0.2999  3.2005
  122OSM    C3F12944   5.123   6.555   6.793 -0.1570 -0.7269  0.7270
  122OSM    H3F12945   5.195   6.632   6.828  0.2357 -0.5399 -0.4598
  122OSM    H3G12946   5.182   6.461   6.780  0.6555 -0.1771  0.3753
  122OSM    C4F12947   5.018   6.539   6.903 -0.0399 -1.0075  0.1350
  122OSM    H4F12948   4.931   6.476   6.875  0.9242 -2.7925  0.9590
  122OSM    H4G12949   4.986   6.642   6.929  0.7340 -0.5671 -0.5920
  122OSM    C5F12950   5.087   6.464   7.020  0.1040  0.2863 -0.4902
  122OSM    H5F12951   5.165   6.532   7.060 -0.1102  1.1591 -1.4843
  122OSM    H5G12952   5.130   6.368   6.984  0.2582  0.8331 -1.8322
  122OSM    C6F12953   5.000   6.439   7.139  0.0203 -0.5374  0.1796
  122OSM    H6F12954   4.957   6.534   7.179 -1.5484 -1.4245  0.6820
  122OSM    H6G12955   5.061   6.408   7.226  0.8914  0.5268 -0.0284
  122OSM    C7F12956   4.888   6.341   7.120  0.0329  0.0811  0.5921
  122OSM    H7F12957   4.913   6.277   7.033 -0.3125 -1.0308  1.2810
  122OSM    H7G12958   4.793   6.389   7.087 -0.5824 -2.0232 -0.9392
  122OSM    C8F12959   4.859   6.252   7.237 -0.1531  0.4511 -0.5436
  122OSM    H8F12960   4.937   6.174   7.225  0.6575  0.9587  1.0877
  122OSM    H8G12961   4.761   6.201   7.226 -0.4818  0.4052  2.0307
  122OSM    C9F12962   4.860   6.319   7.372  0.6550  1.0178 -0.0377
  122OSM    H9F12963   4.789   6.402   7.384 -1.0254  0.6049 -4.8506
  122OSM   C10F12964   4.942   6.271   7.467  0.3171 -0.2184  0.5548
  122OSM   H10F12965   4.946   6.320   7.565  0.0666  0.1355  0.3898
  122OSM   C11F12966   5.036   6.156   7.447  0.9100  0.8158 -0.2526
  122OSM   H11F12967   5.131   6.187   7.398  1.5502 -2.0773 -1.0614
  122OSM   H11G12968   4.998   6.064   7.398 -0.3187  0.6322  0.9926
  122OSM   C12F12969   5.085   6.102   7.584  0.0272  0.3689  0.7676
  122OSM   H12F12970   5.112   6.192   7.643 -0.8020  1.2530 -0.1587
  122OSM   H12G12971   5.173   6.033   7.583 -1.4256 -1.5944  1.1866
  122OSM   C13F12972   4.983   6.020   7.675  0.1276  0.6138 -0.5396
  122OSM   H13F12973   4.958   5.923   7.627 -2.3369  0.8196  0.1764
  122OSM   H13G12974   4.889   6.081   7.678  0.2376  0.9698 -2.4859
  122OSM   C14F12975   5.030   5.998   7.818 -0.2161  1.0764  0.0199
  122OSM   H14F12976   4.963   5.924   7.865  0.6649 -0.1788 -0.6504
  122OSM   H14G12977   5.037   6.096   7.872  3.6530  1.0690 -0.1266
  122OSM   C15F12978   5.173   5.933   7.826  0.0789  0.2028  0.1751
  122OSM   H15F12979   5.247   6.007   7.787 -0.4588  0.6800  0.0484
  122OSM   H15G12980   5.171   5.844   7.761  0.4726  0.7860 -0.6514
  122OSM   C16F12981   5.207   5.876   7.966 -0.0396 -0.9268  0.1773
  122OSM   H16F12982   5.282   5.795   7.966  0.9783 -0.0034  0.0830
  122OSM   H16G12983   5.115   5.823   7.999 -1.7168  2.5595  1.5972
  122OSM   C17F12984   5.254   5.972   8.079 -0.8868 -0.6279 -0.2647
  122OSM   H17F12985   5.181   6.056   8.084  0.9030  0.9650  0.4548
  122OSM   H17G12986   5.351   6.014   8.044 -1.4714  0.4563 -0.6582
  122OSM   C18F12987   5.255   5.905   8.217  0.5430 -0.1792  0.6266
  122OSM   H18F12988   5.342   5.838   8.232  0.1287 -0.8325  0.1667
  122OSM   H18G12989   5.159   5.853   8.233 -0.8309  1.7467 -0.8609
  122OSM   H18H12990   5.254   5.992   8.286 -2.0190  1.4424 -1.2822
  123OSM      N12991   1.876   1.318   6.157  0.4780  0.0878  0.1160
  123OSM    C1512992   1.852   1.471   6.152  0.0691  0.9791 -0.1220
  123OSM   H15A12993   1.899   1.512   6.063  3.2375 -0.8531  0.5264
  123OSM   H15B12994   1.888   1.514   6.244 -2.6611  1.9262  0.5846
  123OSM   H15C12995   1.748   1.497   6.149 -0.0159  0.6098 -2.4595
  123OSM    C1412996   1.804   1.253   6.043  0.0559  0.5687  0.3436
  123OSM   H14A12997   1.799   1.147   6.067  3.4147  0.4841  1.2489
  123OSM   H14B12998   1.852   1.263   5.947 -0.5550  0.8386  0.0630
  123OSM   H14C12999   1.706   1.298   6.041  0.2221  0.9317  0.3831
  123OSM    C1313000   2.022   1.286   6.148 -0.0866  0.8786  0.0451
  123OSM   H13A13001   2.034   1.179   6.136  2.0082  1.1482 -0.8146
  123OSM   H13B13002   2.076   1.325   6.233  0.1232 -3.2425  2.0571
  123OSM   H13C13003   2.061   1.328   6.057  0.2028  1.1834  0.3102
  123OSM    C1213004   1.811   1.264   6.286 -0.0233 -0.2051  0.0427
  123OSM   H12A13005   1.802   1.157   6.285 -0.2318 -0.3498  3.7824
  123OSM   H12B13006   1.709   1.298   6.294  0.4119  1.5530 -1.1862
  123OSM    C1113007   1.859   1.299   6.427 -0.5837  0.3666  0.2915
  123OSM   H11A13008   1.792   1.255   6.504  0.6203  1.3185  1.9447
  123OSM   H11B13009   1.859   1.409   6.436 -0.8092  0.4361 -0.4263
  123OSM      P13010   2.024   1.141   6.545  0.0454 -0.1724 -0.2576
  123OSM    O1313011   1.957   1.146   6.677  0.4486  0.1314  0.0020
  123OSM    O1413012   2.000   1.021   6.464  0.6305  0.6885 -0.1439
  123OSM    O1113013   2.178   1.162   6.558  0.3083  0.3024 -0.4132
  123OSM    O1213014   1.991   1.260   6.453 -0.3016 -0.0598  0.2528
  123OSM    C1S13015   2.236   1.266   6.643 -0.6984  0.4274  0.3184
  123OSM    H1S13016   2.160   1.342   6.671  0.8181  1.4210  1.8862
  123OSM    H1T13017   2.320   1.309   6.584  1.0360 -1.2780  1.4231
  123OSM     NF13018   2.336   1.322   6.851 -0.0530  0.1047  0.6477
  123OSM    HNF13019   2.429   1.320   6.886  0.3298 -1.5714 -0.3742
  123OSM    C2S13020   2.294   1.209   6.771 -0.1728 -0.4588 -0.6284
  123OSM    H2S13021   2.215   1.146   6.816  1.2113 -2.3791 -0.7281
  123OSM    C3S13022   2.417   1.118   6.732  0.2511 -0.4676  0.4967
  123OSM    H3S13023   2.498   1.164   6.672 -0.3781 -0.2208 -0.1687
  123OSM     O313024   2.382   1.017   6.642  1.2364 -0.4612  0.7515
  123OSM    HO313025   2.292   1.041   6.617  1.1743  0.4319  1.7851
  123OSM    C4S13026   2.476   1.058   6.856 -0.5160  0.7557 -0.7873
  123OSM    H4S13027   2.570   1.106   6.889 -1.0078  1.8469 -0.9153
  123OSM    C5S13028   2.442   0.949   6.925 -0.6334 -0.0570  0.3871
  123OSM    H5S13029   2.348   0.898   6.898  0.2927 -1.4801 -0.2936
  123OSM    C6S13030   2.516   0.893   7.041 -0.4120  0.4028 -0.5728
  123OSM    H6S13031   2.602   0.957   7.068  0.6144 -0.4591 -1.7201
  123OSM    H6T13032   2.551   0.792   7.012 -1.3830 -0.5894  1.5116
  123OSM    C7S13033   2.427   0.872   7.168  0.0767 -0.3576  0.3140
  123OSM    H7S13034   2.348   0.798   7.143 -0.3939  0.2739 -0.1208
  123OSM    H7T13035   2.387   0.969   7.204 -3.8641 -1.5297 -0.3845
  123OSM    C8S13036   2.513   0.801   7.278  0.0141  0.7645  0.4646
  123OSM    H8S13037   2.606   0.857   7.299 -0.4612  0.9200  2.3702
  123OSM    H8T13038   2.542   0.698   7.247  0.5094  1.5990 -2.0210
  123OSM    C9S13039   2.435   0.801   7.416  0.0079  0.2303 -0.1521
  123OSM    H9S13040   2.336   0.755   7.398  1.0831 -1.3584 -2.4564
  123OSM    H9T13041   2.405   0.901   7.454  1.1367  0.0883  1.2129
  123OSM   C10S13042   2.511   0.740   7.529 -0.2989 -0.5161 -0.4061
  123OSM   H10S13043   2.613   0.784   7.532 -0.8130  0.7227 -0.7473
  123OSM   H10T13044   2.514   0.631   7.507 -0.7485 -0.5271 -0.4135
  123OSM   C11S13045   2.429   0.760   7.667 -0.1033 -0.1837 -0.2600
  123OSM   H11S13046   2.323   0.752   7.636 -0.1298  0.3519 -0.3205
  123OSM   H11T13047   2.440   0.863   7.708  3.6187 -1.2968  2.0970
  123OSM   C12S13048   2.491   0.668   7.783  0.2000  0.4046 -0.1535
  123OSM   H12S13049   2.502   0.569   7.733 -1.5633  0.6976 -1.2205
  123OSM   H12T13050   2.417   0.663   7.865  0.4750 -2.9083  0.0263
  123OSM   C13S13051   2.624   0.709   7.840  0.0448 -0.3169 -0.3762
  123OSM   H13S13052   2.602   0.756   7.938  1.0851  1.4456 -0.9375
  123OSM   H13T13053   2.656   0.801   7.786  1.7911  0.5531  1.9464
  123OSM   C14S13054   2.738   0.594   7.858  0.8480  0.4260  0.3181
  123OSM   H14S13055   2.683   0.518   7.917 -0.1697  0.4936 -0.5209
  123OSM   H14T13056   2.827   0.619   7.920  1.4824  1.1765 -0.8639
  123OSM   C15S13057   2.780   0.516   7.734  0.1275 -0.6255  1.1573
  123OSM   H15S13058   2.688   0.496   7.674 -0.3648  2.2664  0.7847
  123OSM   H15T13059   2.844   0.433   7.770  1.2385  0.2689  1.2756
  123OSM   C16S13060   2.867   0.602   7.630  1.2047  0.5835  0.1870
  123OSM   H16S13061   2.952   0.638   7.691  0.8231 -1.4511  2.0333
  123OSM   H16T13062   2.814   0.696   7.601  2.6941  0.5997 -2.8784
  123OSM   C17S13063   2.905   0.520   7.502  0.2451 -0.0146 -0.2881
  123OSM   H17S13064   2.923   0.413   7.525 -0.4443 -0.2603 -0.8321
  123OSM   H17T13065   2.999   0.577   7.486 -0.3327  1.3326  0.8245
  123OSM   C18S13066   2.803   0.534   7.396  0.3028  0.2508  0.3790
  123OSM   H18S13067   2.798   0.632   7.343  0.0565 -0.5622 -1.1830
  123OSM   H18T13068   2.706   0.517   7.448  0.2724 -4.3851 -0.7704
  123OSM   H18U13069   2.812   0.458   7.316 -0.1436  0.4338  0.1467
  123OSM    C1F13070   2.254   1.407   6.917  0.7647  0.1385 -0.2670
  123OSM     OF13071   2.131   1.400   6.906 -0.5769  0.0664 -0.2187
  123OSM    C2F13072   2.323   1.511   7.000  0.0393 -0.0416 -0.1605
  123OSM    H2F13073   2.414   1.553   6.951  2.4804 -2.2267  2.1579
  123OSM    H2G13074   2.363   1.440   7.075  0.2658 -1.0032 -1.1594
  123OSM    C3F13075   2.232   1.620   7.067 -0.6737 -1.1507  0.0370
  123OSM    H3F13076   2.136   1.588   7.115 -0.4237  2.1843  3.1772
  123OSM    H3G13077   2.209   1.704   6.998  1.3853  0.1804  0.8987
  123OSM    C4F13078   2.313   1.701   7.180  0.0445 -0.7258  0.4547
  123OSM    H4F13079   2.380   1.774   7.131  0.4003 -1.5254 -0.2931
  123OSM    H4G13080   2.379   1.627   7.230  2.2632  2.0029  1.8127
  123OSM    C5F13081   2.223   1.788   7.272  0.2660  0.3960 -0.0253
  123OSM    H5F13082   2.155   1.729   7.338 -1.1019  1.2121 -0.6782
  123OSM    H5G13083   2.161   1.853   7.208  0.2690 -0.1946 -0.6348
  123OSM    C6F13084   2.294   1.886   7.366  0.1527  0.3453 -0.6117
  123OSM    H6F13085   2.208   1.936   7.418 -1.7155 -2.2946 -0.9401
  123OSM    H6G13086   2.349   1.966   7.312 -1.3319  4.0688  2.7728
  123OSM    C7F13087   2.384   1.817   7.463  0.3205  0.1534  0.8634
  123OSM    H7F13088   2.461   1.882   7.509  2.8869 -1.9061 -0.2256
  123OSM    H7G13089   2.439   1.740   7.404 -0.1733 -0.0422  0.6500
  123OSM    C8F13090   2.304   1.751   7.585 -0.2715  0.7805 -0.4063
  123OSM    H8F13091   2.381   1.681   7.625  1.8115  2.5300 -1.1721
  123OSM    H8G13092   2.217   1.691   7.550 -1.6502  3.4437 -1.8391
  123OSM    C9F13093   2.257   1.865   7.670  0.3844  0.4569 -0.0812
  123OSM    H9F13094   2.189   1.937   7.621  2.2770  3.2970  1.1874
  123OSM   C10F13095   2.297   1.898   7.796 -0.8146 -0.2604  0.0104
  123OSM   H10F13096   2.272   1.998   7.836  1.9665  0.0954  1.0817
  123OSM   C11F13097   2.392   1.826   7.899  0.7537 -0.3346 -0.0403
  123OSM   H11F13098   2.409   1.889   7.989  0.1361  0.2811 -0.3477
  123OSM   H11G13099   2.484   1.809   7.840  0.1567  3.7965 -2.4895
  123OSM   C12F13100   2.346   1.695   7.952 -0.5431 -0.0545  0.2405
  123OSM   H12F13101   2.429   1.623   7.938 -0.8082 -1.0116  3.0617
  123OSM   H12G13102   2.258   1.656   7.896 -0.9803  0.6413  0.4277
  123OSM   C13F13103   2.316   1.694   8.096  0.1067  0.3254 -1.0101
  123OSM   H13F13104   2.244   1.774   8.124  0.1185  0.2610 -0.7983
  123OSM   H13G13105   2.409   1.730   8.144 -0.0908  1.4727 -1.4532
  123OSM   C14F13106   2.277   1.559   8.156  0.2520  0.5089 -0.4552
  123OSM   H14F13107   2.356   1.496   8.109 -0.4856 -1.7948  1.1980
  123OSM   H14G13108   2.180   1.512   8.130  0.3166 -0.3077  0.6829
  123OSM   C15F13109   2.286   1.571   8.308 -0.1937 -0.2925 -0.4488
  123OSM   H15F13110   2.231   1.666   8.323  0.3604  0.0762 -0.6862
  123OSM   H15G13111   2.393   1.586   8.335  0.3413 -0.6099 -2.2198
  123OSM   C16F13112   2.223   1.450   8.385  0.1265  0.6164  0.0963
  123OSM   H16F13113   2.286   1.362   8.360  2.4886  1.8834  1.2110
  123OSM   H16G13114   2.120   1.427   8.348 -0.6640  1.5023  1.6673
  123OSM   C17F13115   2.234   1.469   8.535  0.3471  0.1998  0.3837
  123OSM   H17F13116   2.335   1.502   8.568  0.6366  0.9805 -1.1988
  123OSM   H17G13117   2.210   1.368   8.575  1.3160 -0.1613  0.0738
  123OSM   C18F13118   2.139   1.578   8.585  0.2697 -0.0591  0.2217
  123OSM   H18F13119   2.042   1.553   8.536  0.0033 -0.5358  0.9748
  123OSM   H18G13120   2.181   1.679   8.566  1.0997 -0.2259  1.0882
  123OSM   H18H13121   2.135   1.569   8.696  2.3198  0.0459  0.3423
  124OSM      N13122   1.879   2.916   5.668 -0.8875 -0.4319 -0.1072
  124OSM    C1513123   2.002   2.899   5.758  0.4718  0.3403  0.4492
  124OSM   H15A13124   1.978   2.835   5.841 -1.1975 -0.3098 -0.4865
  124OSM   H15B13125   2.052   2.993   5.775 -1.3901  2.0819 -2.6849
  124OSM   H15C13126   2.075   2.841   5.703 -0.6792  0.3615 -1.1692
  124OSM    C1413127   1.918   2.963   5.535  0.3800  0.5909  0.9978
  124OSM   H14A13128   1.983   3.049   5.550 -0.8627  1.6232  0.6024
  124OSM   H14B13129   1.833   2.981   5.472  1.6118 -1.1754 -1.3158
  124OSM   H14C13130   1.975   2.883   5.490  0.3406  0.5946  0.9418
  124OSM    C1313131   1.810   2.785   5.648  0.2122  0.6100  0.4065
  124OSM   H13A13132   1.736   2.801   5.572 -0.7731  2.3870  1.6724
  124OSM   H13B13133   1.767   2.749   5.741 -0.4418  2.2205  0.7523
  124OSM   H13C13134   1.875   2.705   5.614 -1.6012 -1.2722  1.1425
  124OSM    C1213135   1.775   3.011   5.723 -0.1411 -0.4741 -0.1406
  124OSM   H12A13136   1.705   2.954   5.782  0.3792 -1.9722 -0.9188
  124OSM   H12B13137   1.714   3.057   5.646 -0.9437  0.5562  1.0593
  124OSM    C1113138   1.829   3.116   5.826  0.7307 -0.0767 -0.5539
  124OSM   H11A13139   1.760   3.202   5.833  1.1907  0.3599 -1.2256
  124OSM   H11B13140   1.926   3.145   5.781  0.4036  1.0723 -0.5316
  124OSM      P13141   1.736   3.008   6.047 -0.1328  0.3331 -0.1884
  124OSM    O1313142   1.628   2.965   5.959 -0.2816 -0.1987 -0.5784
  124OSM    O1413143   1.782   2.913   6.149 -0.0641 -0.3033  0.4410
  124OSM    O1113144   1.684   3.136   6.126  0.3507  0.1688 -0.1119
  124OSM    O1213145   1.858   3.059   5.960  0.0299 -0.0468 -0.3857
  124OSM    C1S13146   1.582   3.141   6.226 -0.2709 -0.2649 -0.0108
  124OSM    H1S13147   1.607   3.067   6.305 -0.2229 -0.3001 -0.0582
  124OSM    H1T13148   1.478   3.132   6.188  0.1225 -1.1470 -0.9293
  124OSM     NF13149   1.495   3.279   6.407  0.9376  0.6521 -0.0527
  124OSM    HNF13150   1.402   3.311   6.395  0.9503  1.6516  2.0657
  124OSM    C2S13151   1.588   3.282   6.294 -0.2600  0.1652 -0.5867
  124OSM    H2S13152   1.689   3.303   6.334 -0.4625 -1.1645  0.7119
  124OSM    C3S13153   1.554   3.390   6.189 -0.2917 -0.5534 -0.2596
  124OSM    H3S13154   1.454   3.364   6.148 -0.5685 -1.4164  0.9159
  124OSM     O313155   1.651   3.393   6.088  0.1189  0.2850  0.3824
  124OSM    HO313156   1.672   3.303   6.064 -2.2949  0.1269 -1.6438
  124OSM    C4S13157   1.537   3.528   6.249 -0.2120  0.6952  0.2293
  124OSM    H4S13158   1.446   3.535   6.311 -0.6525 -0.2503 -0.2987
  124OSM    C5S13159   1.625   3.628   6.259  0.0252 -0.4008 -0.1733
  124OSM    H5S13160   1.730   3.606   6.234  0.5807  0.1499  1.5462
  124OSM    C6S13161   1.605   3.761   6.334  1.2646  0.0676 -0.3518
  124OSM    H6S13162   1.593   3.836   6.253 -1.4703 -1.4686 -1.4932
  124OSM    H6T13163   1.695   3.784   6.396  1.2817  0.8204 -0.6451
  124OSM    C7S13164   1.481   3.777   6.417  0.0314 -0.5739 -0.2372
  124OSM    H7S13165   1.495   3.734   6.519  0.0352 -0.1490 -0.0564
  124OSM    H7T13166   1.385   3.744   6.371 -0.4759  1.9888 -1.1799
  124OSM    C8S13167   1.454   3.924   6.428  0.4594  0.6164  0.1394
  124OSM    H8S13168   1.407   3.955   6.333 -0.2014 -4.0606 -1.3127
  124OSM    H8T13169   1.547   3.982   6.447  1.2030 -0.4759 -0.0721
  124OSM    C9S13170   1.342   3.962   6.535 -0.4795 -0.6383 -0.4001
  124OSM    H9S13171   1.250   3.914   6.496 -1.5384  0.7897  0.2323
  124OSM    H9T13172   1.312   4.069   6.535 -1.5511 -0.9242  0.3647
  124OSM   C10S13173   1.395   3.925   6.675  0.6645 -0.4340  0.4491
  124OSM   H10S13174   1.493   3.973   6.692  0.5371 -0.5185  1.5063
  124OSM   H10T13175   1.411   3.816   6.685  3.0134 -0.3107 -1.1281
  124OSM   C11S13176   1.288   3.973   6.779  0.5062  0.3488  0.2024
  124OSM   H11S13177   1.187   3.927   6.769  0.3453  0.6458  0.4583
  124OSM   H11T13178   1.288   4.083   6.765  1.3132  0.3306  0.0016
  124OSM   C12S13179   1.332   3.950   6.926 -0.2730 -0.5987  0.4686
  124OSM   H12S13180   1.289   3.850   6.949  1.2561 -1.3558  0.1810
  124OSM   H12T13181   1.292   4.017   7.005 -2.0987 -1.7560  0.5873
  124OSM   C13S13182   1.486   3.957   6.939 -0.4416 -0.2317 -0.6371
  124OSM   H13S13183   1.527   4.050   6.895 -0.0175  0.0922  0.4170
  124OSM   H13T13184   1.532   3.864   6.900  0.8897  0.2274 -0.2136
  124OSM   C14S13185   1.525   3.954   7.090  0.0899 -0.6833  0.7097
  124OSM   H14S13186   1.497   4.048   7.142 -1.0879 -0.5145 -0.2135
  124OSM   H14T13187   1.636   3.956   7.093  0.1023 -0.9031  0.4019
  124OSM   C15S13188   1.474   3.830   7.168 -0.0574  0.0388 -0.3543
  124OSM   H15S13189   1.516   3.739   7.118 -1.5825 -1.8708  1.6278
  124OSM   H15T13190   1.363   3.832   7.156 -0.0417 -1.0151 -0.8608
  124OSM   C16S13191   1.493   3.826   7.315 -0.4269 -0.3815 -0.3528
  124OSM   H16S13192   1.451   3.741   7.373  2.4112 -1.9657 -0.4517
  124OSM   H16T13193   1.456   3.920   7.361  2.7913  1.2037 -0.7678
  124OSM   C17S13194   1.643   3.823   7.365  1.0252  0.0105  0.0733
  124OSM   H17S13195   1.689   3.918   7.331  0.8241  0.4038  0.8668
  124OSM   H17T13196   1.691   3.730   7.327  2.4318  0.6048  0.3475
  124OSM   C18S13197   1.659   3.822   7.527 -0.1816  0.1096  0.1041
  124OSM   H18S13198   1.613   3.912   7.573  1.2782  0.7461  0.3633
  124OSM   H18T13199   1.765   3.815   7.559 -0.3871  0.0846  0.7760
  124OSM   H18U13200   1.616   3.726   7.561  0.3755 -1.2478 -2.7275
  124OSM    C1F13201   1.525   3.222   6.525  0.2225 -0.1335  0.3504
  124OSM     OF13202   1.639   3.187   6.553  0.1083  0.2512  0.2251
  124OSM    C2F13203   1.421   3.227   6.631 -0.5063 -0.0813 -0.5062
  124OSM    H2F13204   1.325   3.178   6.605 -1.0360 -0.6312  2.1814
  124OSM    H2G13205   1.402   3.335   6.649  0.1835 -0.5956  4.8553
  124OSM    C3F13206   1.470   3.152   6.759  0.6417  0.2491 -0.0826
  124OSM    H3F13207   1.545   3.215   6.812  0.8891 -1.2638  1.4341
  124OSM    H3G13208   1.527   3.059   6.740  0.4225  0.1264 -0.1312
  124OSM    C4F13209   1.360   3.131   6.862  1.1499  0.1345 -0.1974
  124OSM    H4F13210   1.398   3.075   6.950 -0.8702  0.1605  0.7578
  124OSM    H4G13211   1.278   3.066   6.824 -1.9095  2.0673  2.5699
  124OSM    C5F13212   1.302   3.263   6.904  0.0693  0.1240  0.3972
  124OSM    H5F13213   1.253   3.304   6.813  1.2027  0.4577 -0.0830
  124OSM    H5G13214   1.389   3.328   6.929  0.0804 -0.0923  0.9394
  124OSM    C6F13215   1.187   3.253   7.002  0.4496  0.2362  0.1433
  124OSM    H6F13216   1.124   3.180   6.946  1.4840  0.7715 -1.8079
  124OSM    H6G13217   1.132   3.350   7.004 -2.1635 -1.1462  0.0686
  124OSM    C7F13218   1.218   3.211   7.144 -0.2493 -0.5805  0.4334
  124OSM    H7F13219   1.305   3.142   7.154  0.2102  0.1548  1.8030
  124OSM    H7G13220   1.132   3.149   7.177 -0.4242 -0.6762 -0.1886
  124OSM    C8F13221   1.234   3.323   7.256  0.3270  0.7571 -0.5312
  124OSM    H8F13222   1.255   3.271   7.352 -1.4104 -0.4762 -0.7719
  124OSM    H8G13223   1.145   3.385   7.278 -0.3289 -0.2102 -0.3843
  124OSM    C9F13224   1.338   3.421   7.219  0.6846  0.3440 -1.4632
  124OSM    H9F13225   1.303   3.502   7.154  0.5933  2.1107  0.6541
  124OSM   C10F13226   1.451   3.440   7.271 -0.7631 -0.5630 -0.1299
  124OSM   H10F13227   1.522   3.507   7.219 -0.3871 -1.4209 -0.7403
  124OSM   C11F13228   1.517   3.365   7.380  0.0406  0.3139 -0.2511
  124OSM   H11F13229   1.620   3.338   7.347 -0.2014 -0.0760 -0.6917
  124OSM   H11G13230   1.462   3.274   7.413  0.3902  1.0651  2.7172
  124OSM   C12F13231   1.525   3.457   7.509 -0.4798  0.0457  0.0045
  124OSM   H12F13232   1.583   3.546   7.478 -1.4234  0.6051 -0.1756
  124OSM   H12G13233   1.586   3.393   7.577 -1.3262 -0.0041  0.7374
  124OSM   C13F13234   1.384   3.489   7.565  0.1311 -0.6046  0.0690
  124OSM   H13F13235   1.322   3.397   7.572  1.8173 -1.9648 -1.9072
  124OSM   H13G13236   1.339   3.547   7.481  0.9796  1.2275  0.8061
  124OSM   C14F13237   1.379   3.578   7.688 -0.1571 -0.3970  0.4216
  124OSM   H14F13238   1.272   3.587   7.717 -0.5054 -1.1891 -0.5553
  124OSM   H14G13239   1.412   3.681   7.664 -1.4121  0.5487  2.4222
  124OSM   C15F13240   1.452   3.525   7.810  0.2597  0.1172 -0.7070
  124OSM   H15F13241   1.444   3.608   7.883 -2.1771 -0.9980  0.4209
  124OSM   H15G13242   1.561   3.508   7.806  0.3497  0.3232  0.5884
  124OSM   C16F13243   1.386   3.395   7.865  0.1811  0.6472 -0.1564
  124OSM   H16F13244   1.394   3.306   7.799 -0.2114 -0.3497  1.0913
  124OSM   H16G13245   1.280   3.427   7.868 -0.2488 -0.7559  0.5713
  124OSM   C17F13246   1.451   3.354   7.998  0.0296 -0.9606  0.7251
  124OSM   H17F13247   1.425   3.436   8.068  0.1272 -2.4078  2.5391
  124OSM   H17G13248   1.561   3.343   7.987 -0.0386 -2.3793  1.2638
  124OSM   C18F13249   1.397   3.224   8.055  0.4182 -0.6303 -0.9395
  124OSM   H18F13250   1.421   3.211   8.163  1.7063  0.9920 -0.9886
  124OSM   H18G13251   1.439   3.136   8.002  3.6526 -0.5394  1.1607
  124OSM   H18H13252   1.286   3.223   8.056  0.3741 -1.6783 -2.5432
  125OSM      N13253   6.193   2.633   6.290 -0.2076  0.4443  0.5451
  125OSM    C1513254   6.122   2.739   6.199 -0.5051  0.2107  0.1301
  125OSM   H15A13255   6.023   2.702   6.179 -1.3815  1.5548  1.7466
  125OSM   H15B13256   6.178   2.749   6.107  0.2086  1.0655  0.6438
  125OSM   H15C13257   6.122   2.833   6.252  1.8126 -1.6039  3.8054
  125OSM    C1413258   6.110   2.602   6.404  0.2006 -0.3550 -0.0501
  125OSM   H14A13259   6.009   2.575   6.379 -0.7198  2.3100  0.4035
  125OSM   H14B13260   6.089   2.693   6.459 -1.0030 -1.4910  1.4341
  125OSM   H14C13261   6.149   2.538   6.482  1.5378  1.5755  0.9961
  125OSM    C1313262   6.216   2.506   6.215 -0.3800  0.0176 -0.4261
  125OSM   H13A13263   6.243   2.430   6.287  1.9921 -0.1518 -1.4106
  125OSM   H13B13264   6.291   2.519   6.138  0.0417 -0.0418 -0.0259
  125OSM   H13C13265   6.128   2.468   6.165 -0.0201  0.5904 -1.5373
  125OSM    C1213266   6.324   2.698   6.328 -0.3475 -1.5214 -0.5628
  125OSM   H12A13267   6.357   2.754   6.242 -1.8090 -0.8328 -0.7001
  125OSM   H12B13268   6.400   2.635   6.373  0.0766 -0.8373 -0.2957
  125OSM    C1113269   6.331   2.815   6.434  0.5978 -0.2436  0.6392
  125OSM   H11A13270   6.438   2.841   6.447 -0.2116  2.0708  3.9194
  125OSM   H11B13271   6.294   2.777   6.531 -0.1711 -0.6306  0.2057
  125OSM      P13272   6.310   3.048   6.312  0.3363 -0.3821  0.5909
  125OSM    O1313273   6.413   2.997   6.219 -0.3386  0.4936  0.0066
  125OSM    O1413274   6.198   3.125   6.253  0.1676  1.0378  0.0479
  125OSM    O1113275   6.373   3.125   6.432  0.2223 -0.5713  0.0259
  125OSM    O1213276   6.249   2.927   6.388  0.2035  0.3212 -0.6971
  125OSM    C1S13277   6.290   3.181   6.531  0.0230  0.8180 -0.9713
  125OSM    H1S13278   6.185   3.206   6.504 -0.6701  0.8374  1.4949
  125OSM    H1T13279   6.331   3.278   6.565  0.1328  0.2589  0.5311
  125OSM     NF13280   6.204   3.148   6.768 -0.5092  0.4043  0.1553
  125OSM    HNF13281   6.242   3.189   6.850  0.8494 -2.4929  1.0958
  125OSM    C2S13282   6.289   3.091   6.668 -0.1333 -0.0242  0.8521
  125OSM    H2S13283   6.237   2.999   6.634 -0.3962 -0.3312  2.0573
  125OSM    C3S13284   6.434   3.069   6.714 -0.0499  0.9254 -0.2858
  125OSM    H3S13285   6.475   3.172   6.724 -0.6502  1.2570 -1.1520
  125OSM     O313286   6.522   3.001   6.627 -0.0224 -0.0010 -0.0806
  125OSM    HO313287   6.464   2.985   6.552  1.6940 -1.1716 -1.2439
  125OSM    C4S13288   6.431   2.996   6.843  0.1198 -0.8922  0.0021
  125OSM    H4S13289   6.418   3.066   6.927 -1.8517  0.3717 -1.2809
  125OSM    C5S13290   6.442   2.862   6.873  0.6060 -0.3275 -0.2956
  125OSM    H5S13291   6.443   2.790   6.789 -1.8772  1.5536 -2.1074
  125OSM    C6S13292   6.429   2.802   7.006  0.3155  0.0440  0.4547
  125OSM    H6S13293   6.517   2.735   7.018 -0.4810 -1.4575 -1.5343
  125OSM    H6T13294   6.338   2.740   7.019 -0.8374  1.6167  0.1336
  125OSM    C7S13295   6.428   2.890   7.135 -0.2773 -0.4087 -0.0009
  125OSM    H7S13296   6.331   2.941   7.149  0.0086 -0.4022  2.2616
  125OSM    H7T13297   6.504   2.969   7.116 -1.6311  0.7186 -0.9313
  125OSM    C8S13298   6.469   2.823   7.270  0.7559 -0.1203  0.3392
  125OSM    H8S13299   6.565   2.767   7.263  0.9938  0.1844  1.0609
  125OSM    H8T13300   6.393   2.744   7.292  0.8480 -0.1041  0.7273
  125OSM    C9S13301   6.506   2.925   7.376  0.3297  1.1341 -0.2630
  125OSM    H9S13302   6.436   3.011   7.380 -0.9477  0.4590 -3.9040
  125OSM    H9T13303   6.606   2.966   7.352  1.1755 -1.1925 -1.0511
  125OSM   C10S13304   6.526   2.866   7.517 -0.6546  0.0786  0.6938
  125OSM   H10S13305   6.577   2.768   7.507 -1.7895 -0.5034  0.4398
  125OSM   H10T13306   6.429   2.850   7.568 -0.8281 -2.5661 -0.3240
  125OSM   C11S13307   6.605   2.966   7.606  0.5524 -0.3406  0.7284
  125OSM   H11S13308   6.574   3.072   7.598  0.1167 -0.5805 -1.1821
  125OSM   H11T13309   6.708   2.968   7.564  1.1500 -1.3253  2.0745
  125OSM   C12S13310   6.623   2.916   7.745  0.2332 -0.1955  0.0721
  125OSM   H12S13311   6.719   2.958   7.784  2.1152 -1.0508 -3.2188
  125OSM   H12T13312   6.640   2.806   7.737  0.8931  0.0356 -2.9317
  125OSM   C13S13313   6.503   2.936   7.839  0.3280  0.5150 -0.0950
  125OSM   H13S13314   6.427   2.860   7.810 -0.0217 -0.3129  2.6693
  125OSM   H13T13315   6.456   3.036   7.828  1.3447  1.0227  0.0568
  125OSM   C14S13316   6.543   2.918   7.985 -0.0148 -0.0158  0.1307
  125OSM   H14S13317   6.591   3.016   8.008  1.6671 -0.8713  0.3821
  125OSM   H14T13318   6.611   2.833   8.006  1.3848  1.0643  0.1132
  125OSM   C15S13319   6.417   2.906   8.071 -0.5434 -0.7033  0.7406
  125OSM   H15S13320   6.349   2.823   8.045  0.8825 -1.1220 -2.0658
  125OSM   H15T13321   6.361   3.002   8.063 -3.1167 -2.1855  0.0654
  125OSM   C16S13322   6.447   2.901   8.226  0.4744  0.5764  0.4033
  125OSM   H16S13323   6.475   3.000   8.268 -0.4710  0.3379  1.6604
  125OSM   H16T13324   6.532   2.833   8.247  0.4341  0.3707 -0.0672
  125OSM   C17S13325   6.324   2.858   8.302  0.6066  0.2321 -0.5256
  125OSM   H17S13326   6.299   2.754   8.272 -2.5041  0.3841  1.0710
  125OSM   H17T13327   6.239   2.920   8.266  0.1364  0.1632  0.4247
  125OSM   C18S13328   6.340   2.876   8.457 -0.6071 -0.5986 -0.0968
  125OSM   H18S13329   6.369   2.977   8.492  0.6914 -0.0404 -2.5270
  125OSM   H18T13330   6.415   2.809   8.504 -1.2200 -0.1138  1.6230
  125OSM   H18U13331   6.246   2.840   8.504 -1.3984  0.3476 -0.9279
  125OSM    C1F13332   6.073   3.152   6.754 -0.2107 -0.0435 -0.8972
  125OSM     OF13333   6.025   3.106   6.656 -0.1856 -0.0883  0.0678
  125OSM    C2F13334   6.003   3.220   6.869  0.3692 -0.3134 -0.1372
  125OSM    H2F13335   6.052   3.319   6.880 -1.5438  0.5773  0.8959
  125OSM    H2G13336   6.019   3.155   6.957 -1.7278  0.2669  0.7504
  125OSM    C3F13337   5.852   3.259   6.828  0.8881 -0.4053  0.5435
  125OSM    H3F13338   5.803   3.167   6.790  0.4627  0.7886 -2.0173
  125OSM    H3G13339   5.857   3.335   6.747 -0.1855  0.0316  0.8677
  125OSM    C4F13340   5.759   3.301   6.937  0.5687  0.0666 -0.4131
  125OSM    H4F13341   5.661   3.343   6.908  0.0652  0.5227  1.7252
  125OSM    H4G13342   5.804   3.385   6.994 -0.2489  0.0394  0.3083
  125OSM    C5F13343   5.736   3.184   7.031 -0.2476 -0.1065 -0.0793
  125OSM    H5F13344   5.833   3.157   7.078  0.2968 -1.7944 -2.0570
  125OSM    H5G13345   5.692   3.103   6.970  0.5884  0.0046 -0.8701
  125OSM    C6F13346   5.634   3.225   7.139  0.4786  0.1056  0.3043
  125OSM    H6F13347   5.594   3.138   7.195 -0.3656 -0.6151 -1.3700
  125OSM    H6G13348   5.555   3.270   7.076  0.4267 -1.8606 -1.1132
  125OSM    C7F13349   5.687   3.329   7.252 -0.2388  0.4793 -0.0147
  125OSM    H7F13350   5.606   3.375   7.314  0.9128 -0.8102  2.5847
  125OSM    H7G13351   5.722   3.412   7.187 -2.0072  0.4387 -1.0978
  125OSM    C8F13352   5.805   3.276   7.330  0.4370  0.0133  0.3386
  125OSM    H8F13353   5.849   3.346   7.405  0.6662 -1.1463  1.3026
  125OSM    H8G13354   5.890   3.238   7.270  0.6849  1.0931 -0.0338
  125OSM    C9F13355   5.778   3.153   7.415 -0.3842  0.2563  0.0046
  125OSM    H9F13356   5.794   3.052   7.375 -1.0141  0.5495 -1.0511
  125OSM   C10F13357   5.721   3.168   7.538  0.3249  0.7477  0.4245
  125OSM   H10F13358   5.698   3.084   7.605 -0.2217 -0.7726 -1.5645
  125OSM   C11F13359   5.681   3.301   7.595  0.3918  0.1871 -0.1864
  125OSM   H11F13360   5.577   3.295   7.633  0.1189 -0.5380 -1.0186
  125OSM   H11G13361   5.680   3.380   7.518 -2.5403  0.9313  0.4843
  125OSM   C12F13362   5.765   3.347   7.714 -0.2456 -0.5755  0.1976
  125OSM   H12F13363   5.714   3.436   7.757 -1.9315 -0.3513 -2.0643
  125OSM   H12G13364   5.864   3.376   7.672 -0.6664  1.4711  0.5212
  125OSM   C13F13365   5.785   3.235   7.822  0.5815 -0.4133  0.1878
  125OSM   H13F13366   5.857   3.284   7.892  0.9063  2.0642 -1.7457
  125OSM   H13G13367   5.838   3.152   7.770  0.2930 -0.3261 -0.2430
  125OSM   C14F13368   5.655   3.182   7.889 -0.6573 -0.8857 -0.0976
  125OSM   H14F13369   5.632   3.078   7.858  0.5824 -0.8771 -1.1187
  125OSM   H14G13370   5.568   3.245   7.863  0.5380  0.8537 -0.0254
  125OSM   C15F13371   5.652   3.188   8.040 -0.1054 -0.4649  0.2995
  125OSM   H15F13372   5.682   3.294   8.055 -0.3770  0.5855 -4.7298
  125OSM   H15G13373   5.729   3.123   8.086 -0.2522 -1.6174 -1.0208
  125OSM   C16F13374   5.519   3.144   8.091  0.8583  0.4731  0.1506
  125OSM   H16F13375   5.483   3.047   8.052 -0.2637  0.6793  0.6237
  125OSM   H16G13376   5.445   3.220   8.057  0.6831  0.0051 -0.5254
  125OSM   C17F13377   5.522   3.136   8.250  0.1873  0.2753 -0.2754
  125OSM   H17F13378   5.576   3.222   8.296 -1.5413  0.7026  1.0721
  125OSM   H17G13379   5.567   3.043   8.289 -1.4703  0.0616  1.2430
  125OSM   C18F13380   5.373   3.135   8.296  0.3952  0.0824 -0.5106
  125OSM   H18F13381   5.318   3.050   8.250 -0.1939  0.7458 -1.0664
  125OSM   H18G13382   5.327   3.233   8.270  2.4547  0.7851 -1.6970
  125OSM   H18H13383   5.373   3.124   8.407  0.5506 -0.4740 -0.5668
  126OSM      N13384   2.672   0.190   6.172 -0.5944  0.4571  0.5842
  126OSM    C1513385   2.574   0.077   6.165 -0.3186  0.0972 -0.3446
  126OSM   H15A13386   2.477   0.101   6.123 -0.6076 -0.3251  0.0792
  126OSM   H15B13387   2.561   0.033   6.263  0.8353 -2.5426 -1.2879
  126OSM   H15C13388   2.616   0.008   6.093  0.4505  0.3489 -0.1413
  126OSM    C1413389   2.690   0.240   6.032  0.6942  0.5312  0.3588
  126OSM   H14A13390   2.719   0.344   6.029  1.4540  0.3099 -0.7013
  126OSM   H14B13391   2.594   0.232   5.983  1.3150 -1.3456 -0.6408
  126OSM   H14C13392   2.758   0.184   5.970  0.6152  1.7120 -0.8704
  126OSM    C1313393   2.616   0.302   6.254 -0.2313 -0.1137  0.4366
  126OSM   H13A13394   2.543   0.349   6.189  2.2056 -0.3902 -2.7730
  126OSM   H13B13395   2.685   0.371   6.300  0.4147 -1.3837  1.4322
  126OSM   H13C13396   2.560   0.273   6.342 -3.4623  0.9285 -1.1066
  126OSM    C1213397   2.806   0.151   6.222 -0.6049  0.5619 -0.2901
  126OSM   H12A13398   2.892   0.212   6.201  1.3914 -1.3799  1.6711
  126OSM   H12B13399   2.846   0.068   6.165 -1.0530 -0.0219  0.2278
  126OSM    C1113400   2.816   0.119   6.374  0.2081  0.3286 -0.1820
  126OSM   H11A13401   2.734   0.051   6.406  0.5250 -0.4044 -0.8959
  126OSM   H11B13402   2.807   0.206   6.442  1.3480 -1.1794  2.0382
  126OSM      P13403   3.061   0.118   6.480 -0.1945 -0.0481 -0.2124
  126OSM    O1313404   3.177   0.031   6.455  0.3482  0.1133 -0.2564
  126OSM    O1413405   3.071   0.267   6.448 -0.1394 -0.2931  0.4185
  126OSM    O1113406   3.034   0.098   6.635 -0.5787 -0.1512  0.1949
  126OSM    O1213407   2.934   0.054   6.405  0.0261 -0.0726 -0.2846
  126OSM    C1S13408   2.947   0.003   6.692  0.1983 -0.2445 -0.6262
  126OSM    H1S13409   2.989  -0.099   6.686  1.3010  0.1639 -0.1018
  126OSM    H1T13410   2.849  -0.014   6.641  0.7689  1.3276 -2.3575
  126OSM     NF13411   2.840  -0.100   6.891  0.2286 -0.6932 -0.0203
  126OSM    HNF13412   2.744  -0.081   6.907  0.4280 -0.3213  0.8186
  126OSM    C2S13413   2.919   0.017   6.846 -0.1659  0.3764 -0.5832
  126OSM    H2S13414   3.018   0.025   6.896 -0.5991  3.8342 -0.0364
  126OSM    C3S13415   2.851   0.146   6.884 -0.0692 -0.1603  0.1519
  126OSM    H3S13416   2.746   0.150   6.849 -0.1789 -3.2607 -0.1786
  126OSM     O313417   2.921   0.254   6.820 -0.0543  0.2072 -0.4757
  126OSM    HO313418   2.982   0.218   6.755  2.5334  0.7957  1.4792
  126OSM    C4S13419   2.846   0.154   7.037 -0.1339 -0.5866 -0.0316
  126OSM    H4S13420   2.749   0.123   7.079  0.0493 -1.4486 -0.2232
  126OSM    C5S13421   2.938   0.203   7.121  0.0606  0.1870  0.6326
  126OSM    H5S13422   3.036   0.231   7.079 -0.5073 -1.0878 -1.6968
  126OSM    C6S13423   2.920   0.197   7.264 -0.7746 -0.6146  1.1349
  126OSM    H6S13424   2.814   0.193   7.295 -1.4293  3.1269 -0.1362
  126OSM    H6T13425   2.965   0.288   7.310  2.1997 -0.5727 -1.5045
  126OSM    C7S13426   2.981   0.071   7.326  0.0982  0.1779 -0.2440
  126OSM    H7S13427   3.091   0.062   7.313  0.2429 -0.5752  1.2661
  126OSM    H7T13428   2.929  -0.015   7.278 -0.8263  0.0100  1.0174
  126OSM    C8S13429   2.947   0.072   7.474  0.1589 -0.1306 -0.2361
  126OSM    H8S13430   2.941  -0.033   7.511 -0.4957  0.4882  1.4797
  126OSM    H8T13431   2.844   0.112   7.480  0.9467  2.2583 -1.4090
  126OSM    C9S13432   3.032   0.147   7.575 -0.1417 -0.4184  0.4578
  126OSM    H9S13433   3.070   0.238   7.524 -2.5296 -0.1567 -0.9935
  126OSM    H9T13434   3.122   0.083   7.586  0.7625 -0.0319 -3.2233
  126OSM   C10S13435   2.967   0.187   7.707  0.4146  0.0812 -0.4477
  126OSM   H10S13436   2.929   0.089   7.743 -1.8242  0.7326 -0.9185
  126OSM   H10T13437   2.876   0.249   7.691  1.0084  1.1974  0.3050
  126OSM   C11S13438   3.054   0.239   7.819 -0.0223  0.2775  0.1270
  126OSM   H11S13439   3.101   0.337   7.797 -2.1440  1.1614 -0.7778
  126OSM   H11T13440   3.138   0.170   7.841 -0.7098 -1.5220 -2.4407
  126OSM   C12S13441   2.974   0.253   7.947  0.6655 -0.0748  0.1666
  126OSM   H12S13442   2.873   0.297   7.930 -0.8389 -3.9239 -2.2434
  126OSM   H12T13443   3.028   0.315   8.021  1.5721 -2.1986  1.3567
  126OSM   C13S13444   2.951   0.119   8.022  0.5179  0.5307  0.2298
  126OSM   H13S13445   3.036   0.048   8.020 -1.8065 -2.4400  0.5665
  126OSM   H13T13446   2.876   0.067   7.960  0.6083 -1.3088  1.5942
  126OSM   C14S13447   2.898   0.135   8.170 -0.2283  0.0009  0.2147
  126OSM   H14S13448   2.844   0.042   8.195 -1.5046  0.4510 -0.7962
  126OSM   H14T13449   2.826   0.219   8.160 -0.9012 -0.6955 -1.0698
  126OSM   C15S13450   3.003   0.178   8.269  0.0183 -1.0833  0.8356
  126OSM   H15S13451   3.075   0.241   8.212  0.2901  0.6235  2.9260
  126OSM   H15T13452   3.057   0.090   8.307 -0.7068 -0.6139  3.0906
  126OSM   C16S13453   2.945   0.249   8.386  1.0901 -0.2041  0.2159
  126OSM   H16S13454   2.880   0.180   8.443 -1.8919  1.6260 -0.7598
  126OSM   H16T13455   2.875   0.328   8.353 -0.2395  0.1850  3.5941
  126OSM   C17S13456   3.051   0.301   8.484 -0.3567 -1.1192  0.2337
  126OSM   H17S13457   3.129   0.361   8.433  0.0118 -2.3450 -0.6816
  126OSM   H17T13458   3.109   0.215   8.523 -0.7967 -1.4739  0.1204
  126OSM   C18S13459   2.990   0.382   8.602  0.6317 -0.0071  0.0238
  126OSM   H18S13460   3.077   0.416   8.663  2.3223 -0.2250 -2.1318
  126OSM   H18T13461   2.912   0.324   8.656 -1.7737  0.5059 -2.6577
  126OSM   H18U13462   2.953   0.474   8.552 -0.9533 -1.0708 -0.8565
  126OSM    C1F13463   2.884  -0.220   6.893 -0.5829  0.0696 -0.2575
  126OSM     OF13464   3.000  -0.249   6.877  0.1760 -0.6650  0.4467
  126OSM    C2F13465   2.779  -0.324   6.912 -0.5376 -0.3708  0.2246
  126OSM    H2F13466   2.762  -0.377   6.816  1.1638 -0.8186  0.1434
  126OSM    H2G13467   2.680  -0.280   6.939 -1.1427 -0.4442 -1.7585
  126OSM    C3F13468   2.821  -0.436   7.013  0.2152 -1.2190  0.6389
  126OSM    H3F13469   2.891  -0.508   6.965  0.8276 -0.2199 -0.0157
  126OSM    H3G13470   2.724  -0.487   7.029 -0.1699 -0.8842 -0.5252
  126OSM    C4F13471   2.892  -0.377   7.141 -0.3186 -0.3782  0.1505
  126OSM    H4F13472   2.833  -0.290   7.177  0.5555  0.6201 -0.8020
  126OSM    H4G13473   2.992  -0.335   7.117  0.2342 -1.7520 -0.0701
  126OSM    C5F13474   2.907  -0.482   7.256 -0.3958  0.1094 -0.4862
  126OSM    H5F13475   3.013  -0.515   7.258 -0.3978  0.1361  0.8618
  126OSM    H5G13476   2.829  -0.562   7.254 -1.1110  0.5157  3.3817
  126OSM    C6F13477   2.875  -0.413   7.389  0.0942 -0.2083  0.5500
  126OSM    H6F13478   2.765  -0.415   7.400 -0.0709  1.4524 -0.4778
  126OSM    H6G13479   2.902  -0.305   7.388  2.0229 -0.6236  1.8592
  126OSM    C7F13480   2.926  -0.486   7.506 -0.2479 -0.2429 -0.2718
  126OSM    H7F13481   3.036  -0.476   7.499 -0.3591  2.3091  0.5360
  126OSM    H7G13482   2.909  -0.596   7.508 -1.9529 -0.0103 -0.0412
  126OSM    C8F13483   2.877  -0.422   7.640  0.5841  0.6833 -1.1682
  126OSM    H8F13484   2.769  -0.444   7.651  1.1387 -1.6541  0.2479
  126OSM    H8G13485   2.899  -0.314   7.652  0.2377  0.6211  0.1406
  126OSM    C9F13486   2.936  -0.503   7.752  0.0669  0.1953  0.2243
  126OSM    H9F13487   2.930  -0.611   7.732 -2.4116  0.2696  0.2566
  126OSM   C10F13488   2.997  -0.451   7.863  0.2741 -0.8887 -0.4201
  126OSM   H10F13489   3.019  -0.521   7.945 -0.7850  0.3898  1.0163
  126OSM   C11F13490   3.009  -0.304   7.909 -0.0533 -0.1892 -1.3434
  126OSM   H11F13491   2.927  -0.279   7.980 -1.4217 -1.7240 -2.2930
  126OSM   H11G13492   3.007  -0.233   7.823  1.0879  0.9194 -0.4903
  126OSM   C12F13493   3.142  -0.272   7.984  0.1954  0.2401  0.5841
  126OSM   H12F13494   3.157  -0.163   7.994  1.2156  0.1397  0.1742
  126OSM   H12G13495   3.230  -0.311   7.929 -0.2650 -0.4745  0.3357
  126OSM   C13F13496   3.144  -0.329   8.131 -0.4574  0.6833 -0.1556
  126OSM   H13F13497   3.149  -0.439   8.138  1.8960  0.7225 -0.4187
  126OSM   H13G13498   3.062  -0.289   8.196  0.8955  0.6846  1.6315
  126OSM   C14F13499   3.273  -0.273   8.199 -0.5238 -0.4916 -0.7869
  126OSM   H14F13500   3.277  -0.162   8.205  0.6539 -0.6246  2.5495
  126OSM   H14G13501   3.363  -0.296   8.138  0.0683 -0.7340  0.1609
  126OSM   C15F13502   3.273  -0.317   8.341  0.2347  0.2877  0.3163
  126OSM   H15F13503   3.325  -0.415   8.329 -0.7665 -0.0969 -1.1259
  126OSM   H15G13504   3.171  -0.313   8.384 -0.4363 -0.0242 -1.1868
  126OSM   C16F13505   3.345  -0.215   8.426 -0.0192  0.0720  0.1831
  126OSM   H16F13506   3.342  -0.254   8.530  0.5140 -1.0899 -0.2245
  126OSM   H16G13507   3.280  -0.125   8.422  0.8486  0.7267  0.5433
  126OSM   C17F13508   3.490  -0.182   8.393 -0.1187 -0.3482  0.2218
  126OSM   H17F13509   3.502  -0.145   8.289 -1.5027  0.9833  0.5129
  126OSM   H17G13510   3.552  -0.274   8.409 -0.1635 -0.2744  0.8425
  126OSM   C18F13511   3.555  -0.058   8.461  0.4436 -0.2068 -0.0789
  126OSM   H18F13512   3.507   0.029   8.410 -1.9716 -1.5976 -0.3212
  126OSM   H18G13513   3.663  -0.065   8.438  0.0514 -2.0890 -1.5824
  126OSM   H18H13514   3.525  -0.066   8.568  1.0001 -1.1464  0.0116
  127OSM      N13515   2.081   6.517   6.424 -0.2004 -0.9830 -0.1159
  127OSM    C1513516   2.099   6.629   6.512  0.1089 -0.3924 -0.5736
  127OSM   H15A13517   2.094   6.614   6.619  1.8477 -1.5711 -0.6150
  127OSM   H15B13518   2.026   6.705   6.490 -0.2350 -0.2053  1.0354
  127OSM   H15C13519   2.192   6.680   6.490  0.6229 -0.8526  0.4586
  127OSM    C1413520   1.947   6.454   6.456 -0.0847  0.3739  0.4832
  127OSM   H14A13521   1.922   6.382   6.379  0.2195 -0.0211  0.7479
  127OSM   H14B13522   1.872   6.532   6.455  2.0710  2.5784 -0.1977
  127OSM   H14C13523   1.959   6.410   6.553  2.5794  0.8129  0.4332
  127OSM    C1313524   2.085   6.561   6.282  0.1311 -0.0792  0.5115
  127OSM   H13A13525   2.011   6.638   6.269  0.1210 -0.1857 -0.1069
  127OSM   H13B13526   2.062   6.476   6.219 -0.8788  0.2010  0.4859
  127OSM   H13C13527   2.185   6.600   6.269 -0.2588  1.1261  0.9803
  127OSM    C1213528   2.185   6.403   6.445  0.2748  0.2893 -0.2446
  127OSM   H12A13529   2.159   6.315   6.388 -1.4432 -0.6837  1.8940
  127OSM   H12B13530   2.186   6.369   6.547  1.3520 -2.4721 -1.0847
  127OSM    C1113531   2.332   6.440   6.410  0.5415  0.4207 -0.7017
  127OSM   H11A13532   2.339   6.467   6.302 -1.1353  2.1427 -0.4327
  127OSM   H11B13533   2.394   6.350   6.427 -2.3895 -1.5880  0.0708
  127OSM      P13534   2.525   6.601   6.464 -0.1459  0.4566  0.2911
  127OSM    O1313535   2.615   6.493   6.503 -0.4404 -0.4388 -0.0932
  127OSM    O1413536   2.540   6.649   6.322 -0.2016  0.0964  0.0922
  127OSM    O1113537   2.539   6.723   6.555 -0.3537  0.2070  0.1967
  127OSM    O1213538   2.377   6.552   6.485  0.3117 -0.3675 -0.0765
  127OSM    C1S13539   2.481   6.723   6.683 -0.3921  0.2810  1.0787
  127OSM    H1S13540   2.542   6.656   6.748  0.7971 -1.1573 -1.3545
  127OSM    H1T13541   2.377   6.685   6.690 -1.1137  2.4029  3.2771
  127OSM     NF13542   2.420   6.871   6.880 -0.2898 -0.3087 -0.9219
  127OSM    HNF13543   2.326   6.889   6.907  0.5081 -0.2748  2.3130
  127OSM    C2S13544   2.470   6.865   6.743 -0.4931 -0.8754 -0.3918
  127OSM    H2S13545   2.573   6.907   6.743 -1.4195  1.5672  0.3222
  127OSM    C3S13546   2.392   6.962   6.646  0.5845 -0.7381  0.0483
  127OSM    H3S13547   2.284   6.938   6.659  0.9147 -1.9026  0.8546
  127OSM     O313548   2.426   6.942   6.512 -0.2277 -0.5103 -0.5876
  127OSM    HO313549   2.513   6.902   6.516 -0.1068 -0.1659  1.4816
  127OSM    C4S13550   2.408   7.105   6.689  0.0817  0.0010  0.2511
  127OSM    H4S13551   2.313   7.142   6.730  0.5199  0.6542  0.6811
  127OSM    C5S13552   2.513   7.188   6.683 -1.0554 -0.0336 -0.7194
  127OSM    H5S13553   2.606   7.154   6.637 -0.0685  0.5703  0.7502
  127OSM    C6S13554   2.521   7.336   6.724 -0.2709  1.5566  0.5412
  127OSM    H6S13555   2.429   7.379   6.770 -2.3141 -0.8035 -1.0788
  127OSM    H6T13556   2.545   7.403   6.639  1.3614 -1.4142 -1.5348
  127OSM    C7S13557   2.630   7.357   6.834  0.1184 -0.1991 -0.3794
  127OSM    H7S13558   2.621   7.466   6.856  4.8517  0.0905  1.4500
  127OSM    H7T13559   2.733   7.337   6.797  1.4743  1.8931  1.9088
  127OSM    C8S13560   2.616   7.265   6.953 -0.5777 -0.2731  0.1013
  127OSM    H8S13561   2.700   7.287   7.023 -1.0030 -0.3187  0.6347
  127OSM    H8T13562   2.627   7.159   6.920  1.2913 -0.5171  1.3554
  127OSM    C9S13563   2.493   7.289   7.040 -0.3601  0.6102  0.2615
  127OSM    H9S13564   2.403   7.246   6.992 -0.8139  1.7622  0.0448
  127OSM    H9T13565   2.476   7.397   7.059  0.0613  0.6405  0.4982
  127OSM   C10S13566   2.502   7.220   7.175 -0.4279  0.2908  0.3533
  127OSM   H10S13567   2.590   7.258   7.230 -0.6633  1.2552  0.0935
  127OSM   H10T13568   2.508   7.110   7.165 -1.6101  0.3235 -1.0993
  127OSM   C11S13569   2.379   7.263   7.261  0.1975  0.7690  0.4899
  127OSM   H11S13570   2.279   7.246   7.216  0.0850  1.7815  0.3258
  127OSM   H11T13571   2.393   7.372   7.280 -1.2361  1.1429 -0.4496
  127OSM   C12S13572   2.385   7.212   7.407  0.8928  0.6353  0.0438
  127OSM   H12S13573   2.478   7.244   7.460  0.0444  0.2545  1.8184
  127OSM   H12T13574   2.392   7.102   7.396  0.1281  0.5270  0.6219
  127OSM   C13S13575   2.258   7.252   7.480 -0.3542 -0.1639  0.2978
  127OSM   H13S13576   2.167   7.243   7.417 -1.7564  0.7430  2.1309
  127OSM   H13T13577   2.285   7.357   7.504  3.2083 -0.7186 -0.6308
  127OSM   C14S13578   2.216   7.185   7.612  0.6671 -0.1455  1.1450
  127OSM   H14S13579   2.297   7.156   7.682  1.4268 -0.0517  0.3265
  127OSM   H14T13580   2.160   7.092   7.589  2.1550 -0.5157 -1.3574
  127OSM   C15S13581   2.114   7.283   7.675 -0.0920 -0.5793 -0.2868
  127OSM   H15S13582   2.020   7.290   7.616  0.3417 -1.8007 -1.1728
  127OSM   H15T13583   2.156   7.385   7.680  2.2994 -1.4634 -0.9581
  127OSM   C16S13584   2.075   7.234   7.816  0.2446  0.3947 -0.3525
  127OSM   H16S13585   2.167   7.215   7.875  1.0799  0.8080 -1.4736
  127OSM   H16T13586   2.022   7.138   7.801 -0.2696  0.9570 -2.4573
  127OSM   C17S13587   1.982   7.343   7.877  0.2739  0.6550 -0.1283
  127OSM   H17S13588   1.949   7.300   7.974  0.1802  1.3286  0.1393
  127OSM   H17T13589   1.885   7.360   7.825  0.1116  0.4647  0.1105
  127OSM   C18S13590   2.061   7.472   7.911  0.0550 -0.1373 -0.0033
  127OSM   H18S13591   2.087   7.527   7.818 -0.3964  1.3003  0.6927
  127OSM   H18T13592   2.159   7.452   7.959 -0.8613  3.1089  3.7530
  127OSM   H18U13593   2.007   7.535   7.985 -0.3963  0.5648 -0.9018
  127OSM    C1F13594   2.483   6.820   6.986  0.3172 -0.3667  0.7947
  127OSM     OF13595   2.593   6.776   6.971 -0.2344 -0.4600 -0.1080
  127OSM    C2F13596   2.416   6.812   7.127  0.0166  0.7968  0.0219
  127OSM    H2F13597   2.330   6.744   7.109 -2.0697  3.7039 -1.9528
  127OSM    H2G13598   2.378   6.913   7.157 -0.6944  0.3336  0.7150
  127OSM    C3F13599   2.507   6.739   7.237  0.4926 -0.4143  0.1520
  127OSM    H3F13600   2.600   6.799   7.224  0.2877 -0.2160 -0.4410
  127OSM    H3G13601   2.540   6.640   7.197  0.7705  0.0242 -0.7240
  127OSM    C4F13602   2.455   6.734   7.380 -0.4235 -0.6952 -0.3462
  127OSM    H4F13603   2.372   6.661   7.392 -0.4713 -0.4744  0.7613
  127OSM    H4G13604   2.413   6.833   7.408 -1.5554 -1.3643  0.3948
  127OSM    C5F13605   2.564   6.715   7.490  0.2892 -0.0172 -0.0400
  127OSM    H5F13606   2.652   6.782   7.478 -0.2204  0.9080  1.2183
  127OSM    H5G13607   2.602   6.612   7.476 -0.5454 -0.0714 -2.2682
  127OSM    C6F13608   2.507   6.739   7.624  0.0309  0.0812 -0.5634
  127OSM    H6F13609   2.576   6.694   7.699 -1.0322 -0.6271  0.0224
  127OSM    H6G13610   2.414   6.679   7.629 -0.0144  0.1888  0.0703
  127OSM    C7F13611   2.486   6.882   7.662 -0.8849 -0.5003 -0.6164
  127OSM    H7F13612   2.379   6.894   7.687 -1.3913 -0.8823 -2.4592
  127OSM    H7G13613   2.505   6.939   7.569  1.2183 -1.0171 -0.5694
  127OSM    C8F13614   2.576   6.935   7.778 -0.2306  0.2190  0.0676
  127OSM    H8F13615   2.681   6.913   7.749 -0.7323  0.2685 -1.9412
  127OSM    H8G13616   2.548   6.865   7.860  1.2891 -0.4679  0.0339
  127OSM    C9F13617   2.547   7.080   7.809 -0.1902 -0.3607 -0.3121
  127OSM    H9F13618   2.538   7.150   7.724  3.3945 -0.6118 -1.0316
  127OSM   C10F13619   2.518   7.133   7.933  1.0399  0.0004  0.0777
  127OSM   H10F13620   2.506   7.242   7.938  0.5622  0.2506 -3.6342
  127OSM   C11F13621   2.511   7.051   8.058  0.9226 -0.4582  0.4000
  127OSM   H11F13622   2.611   7.009   8.084  1.7785 -0.1344 -2.0672
  127OSM   H11G13623   2.443   6.964   8.050  0.9805 -0.4760  0.0622
  127OSM   C12F13624   2.459   7.128   8.176 -0.5070 -0.2327  0.6355
  127OSM   H12F13625   2.442   7.062   8.264 -1.1650 -1.8741 -0.6580
  127OSM   H12G13626   2.357   7.172   8.171  0.0503  1.0757  0.3286
  127OSM   C13F13627   2.566   7.227   8.228 -0.5326 -0.7192 -0.0698
  127OSM   H13F13628   2.586   7.298   8.145  0.9732  0.6654  1.4055
  127OSM   H13G13629   2.661   7.182   8.264 -0.2586  0.8450  1.2819
  127OSM   C14F13630   2.517   7.288   8.356 -0.4450 -0.2525  0.1928
  127OSM   H14F13631   2.505   7.197   8.419 -4.0815 -0.7430 -0.9603
  127OSM   H14G13632   2.422   7.345   8.339  0.0552  0.5655  0.0995
  127OSM   C15F13633   2.614   7.389   8.429 -0.6443  0.5850 -0.1391
  127OSM   H15F13634   2.635   7.467   8.352  1.3599 -1.7801 -2.1699
  127OSM   H15G13635   2.714   7.341   8.432 -0.8673  0.0073 -1.3311
  127OSM   C16F13636   2.553   7.432   8.566 -0.5733 -0.4288  0.5326
  127OSM   H16F13637   2.444   7.443   8.547 -0.5117  2.2524  1.3462
  127OSM   H16G13638   2.605   7.524   8.600  2.1653 -1.3058 -0.9959
  127OSM   C17F13639   2.586   7.330   8.670  0.2485 -0.6487 -0.6862
  127OSM   H17F13640   2.692   7.295   8.674  0.2118 -0.8986 -1.5703
  127OSM   H17G13641   2.530   7.236   8.652  0.6345 -0.8017 -1.1496
  127OSM   C18F13642   2.547   7.383   8.809  0.4480  0.0178 -0.6447
  127OSM   H18F13643   2.607   7.476   8.822  2.2300 -1.2664  0.9154
  127OSM   H18G13644   2.573   7.302   8.881 -1.2621  0.2506  0.2945
  127OSM   H18H13645   2.437   7.401   8.810  0.3141 -0.5347  1.7609
  128OSM      N13646   1.503   4.812   6.411 -0.3302  0.1674  0.3829
  128OSM    C1513647   1.640   4.764   6.371  0.9156  0.2291  0.1306
  128OSM   H15A13648   1.644   4.658   6.353  0.1586  0.3889 -1.0883
  128OSM   H15B13649   1.721   4.788   6.438  0.7515  0.6493  0.1788
  128OSM   H15C13650   1.677   4.808   6.280  0.5484  0.2587 -0.0045
  128OSM    C1413651   1.407   4.794   6.295  0.6109 -0.4057  0.3648
  128OSM   H14A13652   1.407   4.698   6.247  0.5961 -0.3466  0.2447
  128OSM   H14B13653   1.422   4.869   6.219 -1.3254 -1.0738 -0.7529
  128OSM   H14C13654   1.306   4.811   6.331  0.4752  0.6157 -0.4408
  128OSM    C1313655   1.452   4.729   6.530 -0.2066  0.0789  0.2048
  128OSM   H13A13656   1.528   4.730   6.606  1.0181 -3.4603 -0.7650
  128OSM   H13B13657   1.433   4.624   6.509 -1.1359  0.4731 -1.0143
  128OSM   H13C13658   1.354   4.762   6.562  0.0029  1.7092 -0.7389
  128OSM    C1213659   1.505   4.960   6.444  0.2653  0.4861 -0.5485
  128OSM   H12A13660   1.557   4.974   6.538 -0.0296  2.0816 -0.6019
  128OSM   H12B13661   1.403   4.979   6.474 -0.0612 -0.4095 -1.0472
  128OSM    C1113662   1.545   5.064   6.338  0.6646 -0.0826  0.3689
  128OSM   H11A13663   1.642   5.038   6.291  2.2477  1.4034  2.6205
  128OSM   H11B13664   1.561   5.158   6.394  2.4995  0.2212 -0.6002
  128OSM      P13665   1.316   5.150   6.245  0.0091 -0.0010  0.1487
  128OSM    O1313666   1.319   5.280   6.177 -0.1344  0.2353 -0.0531
  128OSM    O1413667   1.218   5.047   6.204 -0.1150 -0.2360 -0.5292
  128OSM    O1113668   1.305   5.182   6.397  0.0340 -0.2879 -0.5623
  128OSM    O1213669   1.447   5.081   6.230 -0.5132  0.1256 -0.5109
  128OSM    C1S13670   1.178   5.232   6.447  0.1968  0.3230 -0.9882
  128OSM    H1S13671   1.094   5.159   6.450 -1.7076  2.2266 -3.5914
  128OSM    H1T13672   1.145   5.322   6.391  0.9623  1.7500  0.7576
  128OSM     NF13673   1.069   5.276   6.676  0.3820  0.3259 -0.5890
  128OSM    HNF13674   1.041   5.362   6.718  0.7208  0.7433 -1.2114
  128OSM    C2S13675   1.191   5.275   6.598  0.5675  0.0601  0.2004
  128OSM    H2S13676   1.262   5.202   6.643 -0.5458 -0.7396  0.6897
  128OSM    C3S13677   1.272   5.411   6.595 -0.2462 -1.0695  0.0958
  128OSM    H3S13678   1.203   5.491   6.560  0.5313  0.7514  2.5292
  128OSM     O313679   1.389   5.417   6.505  0.0883  0.0442  0.1112
  128OSM    HO313680   1.372   5.347   6.442  2.3721  2.3381 -3.3640
  128OSM    C4S13681   1.309   5.462   6.734  0.1354  0.2541  0.1778
  128OSM    H4S13682   1.239   5.540   6.769  1.0203  0.8050  0.7671
  128OSM    C5S13683   1.425   5.438   6.797 -0.1867  0.1449  0.1360
  128OSM    H5S13684   1.491   5.362   6.752  1.6551  1.7687 -0.0087
  128OSM    C6S13685   1.455   5.484   6.933 -0.2379  0.4304 -0.4150
  128OSM    H6S13686   1.431   5.405   7.007  2.3484 -1.4574 -1.4519
  128OSM    H6T13687   1.406   5.577   6.969 -2.0787 -0.5805 -0.1787
  128OSM    C7S13688   1.602   5.527   6.952  0.4950 -0.0279  0.3159
  128OSM    H7S13689   1.645   5.570   6.860 -2.5050  0.4212 -1.0155
  128OSM    H7T13690   1.650   5.429   6.972  0.1650 -0.1473  0.5503
  128OSM    C8S13691   1.631   5.623   7.060 -0.1883 -0.6304  0.3154
  128OSM    H8S13692   1.584   5.720   7.034  1.3572  0.0140 -0.2431
  128OSM    H8T13693   1.739   5.648   7.066  0.0568 -0.8611 -2.1672
  128OSM    C9S13694   1.599   5.579   7.206 -0.4630  0.3214  0.2311
  128OSM    H9S13695   1.647   5.486   7.245 -0.0892  0.3160 -0.2363
  128OSM    H9T13696   1.490   5.560   7.214 -0.1905 -1.4869  0.0256
  128OSM   C10S13697   1.634   5.685   7.305 -0.2016  0.1984 -0.2234
  128OSM   H10S13698   1.573   5.775   7.282  1.6236  1.7526  0.7575
  128OSM   H10T13699   1.742   5.712   7.301  0.3609 -1.4437  2.1055
  128OSM   C11S13700   1.594   5.642   7.447 -0.1112 -0.1233  0.9121
  128OSM   H11S13701   1.642   5.544   7.470 -0.7588 -0.5630  0.4230
  128OSM   H11T13702   1.484   5.625   7.447 -0.1326 -0.0514 -0.2682
  128OSM   C12S13703   1.615   5.753   7.545 -0.3094  0.3005 -0.2686
  128OSM   H12S13704   1.576   5.848   7.502 -1.6218 -0.2780 -0.4149
  128OSM   H12T13705   1.725   5.760   7.558 -0.4263  1.2870  0.3414
  128OSM   C13S13706   1.556   5.734   7.681  0.3099 -0.0076 -0.6256
  128OSM   H13S13707   1.445   5.740   7.673  0.0898 -1.1293  1.1289
  128OSM   H13T13708   1.589   5.817   7.747 -0.3634  1.5844 -2.1912
  128OSM   C14S13709   1.604   5.604   7.754 -0.0086  0.3322 -0.3501
  128OSM   H14S13710   1.715   5.597   7.753 -0.0105  0.4037 -1.3154
  128OSM   H14T13711   1.573   5.511   7.702  0.6097  1.4993 -2.9598
  128OSM   C15S13712   1.551   5.592   7.900  0.0188 -0.4183 -0.2306
  128OSM   H15S13713   1.564   5.488   7.937 -1.5084 -0.8854 -0.9103
  128OSM   H15T13714   1.442   5.603   7.881  0.4238  1.3773 -1.8992
  128OSM   C16S13715   1.607   5.693   8.005  0.0278  1.2320 -0.6090
  128OSM   H16S13716   1.602   5.797   7.966  1.8072  1.2512 -0.8285
  128OSM   H16T13717   1.715   5.674   8.019  0.0169 -0.0840 -2.0616
  128OSM   C17S13718   1.532   5.689   8.137 -0.6989 -0.5879  0.9148
  128OSM   H17S13719   1.597   5.734   8.214 -1.6042 -0.1033  1.4100
  128OSM   H17T13720   1.535   5.583   8.168 -1.3805 -0.8366  0.1580
  128OSM   C18S13721   1.388   5.749   8.139 -0.0698 -0.4134  0.0448
  128OSM   H18S13722   1.350   5.772   8.241  1.5064 -2.9241  1.3088
  128OSM   H18T13723   1.323   5.675   8.087 -0.7317  1.1863 -1.4784
  128OSM   H18U13724   1.390   5.846   8.087 -0.3992 -0.8220 -0.7411
  128OSM    C1F13725   0.975   5.183   6.697 -0.0926 -0.0057  0.1175
  128OSM     OF13726   0.997   5.063   6.668  0.3082 -0.5720  0.2895
  128OSM    C2F13727   0.858   5.233   6.778 -0.5149  0.6297  0.7090
  128OSM    H2F13728   0.819   5.322   6.725 -2.5646 -0.7103 -0.2048
  128OSM    H2G13729   0.897   5.268   6.876 -1.2321  0.7688  0.9553
  128OSM    C3F13730   0.751   5.127   6.798  0.4505  0.5398  0.8618
  128OSM    H3F13731   0.796   5.031   6.829 -0.6536  0.2146  1.5097
  128OSM    H3G13732   0.701   5.117   6.699  0.4102 -3.0547  1.1305
  128OSM    C4F13733   0.644   5.156   6.897 -0.3380 -0.0325  0.4537
  128OSM    H4F13734   0.564   5.081   6.881 -1.3418  1.3159 -1.2438
  128OSM    H4G13735   0.599   5.257   6.881  0.9915  0.9057  2.2755
  128OSM    C5F13736   0.696   5.145   7.042  0.5799  0.1340 -0.5355
  128OSM    H5F13737   0.730   5.244   7.079  0.9538 -0.8035  1.7533
  128OSM    H5G13738   0.784   5.077   7.049  0.0401 -0.4044  1.3206
  128OSM    C6F13739   0.588   5.087   7.136 -0.1102 -0.0583  0.6632
  128OSM    H6F13740   0.570   4.982   7.104 -1.4604  0.6573 -1.1370
  128OSM    H6G13741   0.492   5.141   7.117  0.5372  1.2501  1.0065
  128OSM    C7F13742   0.621   5.090   7.286  0.3785  0.1846  0.3968
  128OSM    H7F13743   0.668   5.190   7.301  0.1413  0.7331 -2.0218
  128OSM    H7G13744   0.702   5.020   7.314 -0.2824 -1.2446 -1.0740
  128OSM    C8F13745   0.503   5.077   7.387 -0.7208  0.4444 -0.0742
  128OSM    H8F13746   0.541   5.048   7.487  0.3298  0.2829 -0.5017
  128OSM    H8G13747   0.433   4.998   7.354  0.1481  0.3185 -1.7409
  128OSM    C9F13748   0.431   5.202   7.415  1.2867 -0.2065 -0.5763
  128OSM    H9F13749   0.340   5.217   7.354  2.1532 -2.7898 -2.7425
  128OSM   C10F13750   0.469   5.291   7.514  0.1587  0.5272  0.2042
  128OSM   H10F13751   0.405   5.378   7.536 -0.1561  0.2371  0.4472
  128OSM   C11F13752   0.579   5.276   7.618  0.0833 -0.2661 -0.0823
  128OSM   H11F13753   0.609   5.375   7.657 -0.1245 -1.1867  2.6615
  128OSM   H11G13754   0.665   5.220   7.576 -1.7620 -2.8243 -0.7203
  128OSM   C12F13755   0.550   5.186   7.734  0.7787  0.0271 -0.6060
  128OSM   H12F13756   0.468   5.116   7.707 -0.1046 -0.0496  1.9866
  128OSM   H12G13757   0.506   5.245   7.818 -1.0673 -0.9733 -0.8055
  128OSM   C13F13758   0.677   5.110   7.784  0.2188 -0.5326 -0.7651
  128OSM   H13F13759   0.754   5.182   7.819  0.7634 -1.5756  0.2408
  128OSM   H13G13760   0.717   5.065   7.691  1.1893 -0.2487 -0.4914
  128OSM   C14F13761   0.657   5.007   7.900 -0.5748  0.1720 -0.4705
  128OSM   H14F13762   0.559   4.960   7.878 -0.1876 -1.0514  0.3587
  128OSM   H14G13763   0.655   5.062   7.996  1.3455 -0.5711  0.0336
  128OSM   C15F13764   0.760   4.893   7.910  0.0833  0.0479  0.7148
  128OSM   H15F13765   0.864   4.930   7.905 -0.0903  0.4096 -0.7665
  128OSM   H15G13766   0.755   4.831   7.817 -0.0513  1.9135 -0.5779
  128OSM   C16F13767   0.736   4.821   8.038 -1.6526  0.5254 -0.1381
  128OSM   H16F13768   0.629   4.806   8.063 -1.0273 -1.6540  1.5164
  128OSM   H16G13769   0.781   4.880   8.120  1.0937 -1.7021  0.1286
  128OSM   C17F13770   0.819   4.692   8.025 -0.0517 -0.6104 -0.5207
  128OSM   H17F13771   0.926   4.719   8.015 -0.5858  0.8757 -3.2204
  128OSM   H17G13772   0.790   4.631   7.936  0.6533 -2.2776  0.3403
  128OSM   C18F13773   0.792   4.609   8.150  0.0008  0.3196  0.6260
  128OSM   H18F13774   0.683   4.590   8.156  0.1329 -0.3840  0.9689
  128OSM   H18G13775   0.818   4.658   8.246 -0.0641 -0.6537  1.1568
  128OSM   H18H13776   0.845   4.511   8.147 -1.4829 -0.5432  1.3307
  129OSM      N13777   5.477   0.662   5.984  0.1518 -0.1889  0.0160
  129OSM    C1513778   5.609   0.595   5.977  0.2447  0.0872 -0.3484
  129OSM   H15A13779   5.680   0.676   5.975 -0.5743  0.8259 -1.9507
  129OSM   H15B13780   5.617   0.531   5.891  1.7465  0.3711 -0.4505
  129OSM   H15C13781   5.632   0.530   6.060 -1.1191  1.4706  1.1846
  129OSM    C1413782   5.462   0.754   5.866  0.6606  0.0806 -0.1100
  129OSM   H14A13783   5.451   0.707   5.770  0.7244 -1.2140  0.4873
  129OSM   H14B13784   5.534   0.835   5.871 -0.9940  1.7045 -1.4237
  129OSM   H14C13785   5.366   0.802   5.878  0.7556  0.5806 -1.2626
  129OSM    C1313786   5.381   0.553   5.964 -0.3785  0.5647 -0.6409
  129OSM   H13A13787   5.409   0.467   6.023 -1.6010  0.3590 -0.3305
  129OSM   H13B13788   5.384   0.519   5.861 -0.2630  1.2616 -0.8708
  129OSM   H13C13789   5.278   0.570   5.994 -0.3148 -1.3149  0.8146
  129OSM    C1213790   5.446   0.726   6.117 -0.4873 -0.1068  0.4139
  129OSM   H12A13791   5.428   0.650   6.191 -1.3391 -0.6416 -0.3339
  129OSM   H12B13792   5.345   0.762   6.107 -0.6622 -0.6651  0.1298
  129OSM    C1113793   5.549   0.824   6.179  0.0631  0.0581  0.2925
  129OSM   H11A13794   5.641   0.765   6.200 -0.4730 -1.2411 -0.8538
  129OSM   H11B13795   5.520   0.849   6.283  1.2885 -0.3446  0.7515
  129OSM      P13796   5.708   0.996   6.075  0.1390  0.3952 -0.0923
  129OSM    O1313797   5.780   0.919   5.970 -0.5290  0.0089  0.8951
  129OSM    O1413798   5.695   1.136   6.049 -0.9220  0.0149 -0.4708
  129OSM    O1113799   5.781   0.979   6.215 -0.1225  0.1451  0.6457
  129OSM    O1213800   5.564   0.933   6.099  0.1996  0.2432  0.7369
  129OSM    C1S13801   5.896   1.047   6.247 -0.9493 -0.3554 -0.6875
  129OSM    H1S13802   5.889   1.154   6.219 -1.6226  0.5546  2.5004
  129OSM    H1T13803   5.986   1.005   6.198 -1.9981 -0.8877 -2.2054
  129OSM     NF13804   6.014   1.126   6.443  0.2876 -0.5585  0.4278
  129OSM    HNF13805   6.098   1.073   6.450  0.0929 -1.2011 -1.3488
  129OSM    C2S13806   5.912   1.036   6.399  0.0937 -0.7334  0.1492
  129OSM    H2S13807   5.813   1.078   6.426  0.4111  0.1185  0.0237
  129OSM    C3S13808   5.916   0.897   6.452  0.3386  0.6134 -0.4124
  129OSM    H3S13809   6.012   0.864   6.405 -0.5918 -2.2574 -0.4607
  129OSM     O313810   5.805   0.809   6.416 -0.4003  0.5799 -0.2041
  129OSM    HO313811   5.767   0.845   6.336 -1.3094 -0.4350 -0.2521
  129OSM    C4S13812   5.939   0.886   6.602  0.1422  0.5870 -0.1312
  129OSM    H4S13813   5.898   0.963   6.668 -0.9783  1.0065 -1.2745
  129OSM    C5S13814   6.012   0.786   6.659 -0.0171 -0.1295 -0.0887
  129OSM    H5S13815   6.057   0.708   6.596  1.2798  0.1008  0.5103
  129OSM    C6S13816   6.051   0.770   6.806  0.0808  0.3214  0.1509
  129OSM    H6S13817   6.158   0.797   6.825 -0.5173  2.3332  0.8839
  129OSM    H6T13818   6.034   0.666   6.841  0.5029  0.6630  1.4289
  129OSM    C7S13819   5.960   0.847   6.907 -0.4701 -0.3773 -0.3469
  129OSM    H7S13820   5.856   0.813   6.887  0.5668 -3.2032 -1.5445
  129OSM    H7T13821   5.968   0.954   6.877 -2.2485 -0.0582  0.2059
  129OSM    C8S13822   6.000   0.846   7.059 -0.0960  0.7056 -0.4998
  129OSM    H8S13823   5.940   0.925   7.108  2.1268  1.6297  0.8566
  129OSM    H8T13824   6.103   0.886   7.070 -0.2488  1.2294 -0.8864
  129OSM    C9S13825   5.988   0.704   7.129 -0.2960 -0.3241  0.8031
  129OSM    H9S13826   6.032   0.623   7.066  0.9975  0.3714  0.7752
  129OSM    H9T13827   5.878   0.687   7.133 -0.6663  0.3865 -2.5961
  129OSM   C10S13828   6.054   0.692   7.268  0.2656 -0.7062 -1.3071
  129OSM   H10S13829   6.151   0.746   7.275 -0.1303 -0.1318  0.0354
  129OSM   H10T13830   6.078   0.587   7.298  1.5377  0.0500  0.4348
  129OSM   C11S13831   5.962   0.763   7.364 -0.7738 -0.1170 -0.4158
  129OSM   H11S13832   5.859   0.722   7.352 -0.3365 -0.9223 -1.6416
  129OSM   H11T13833   5.956   0.873   7.347 -2.0015 -0.1441 -0.2529
  129OSM   C12S13834   6.002   0.732   7.517 -0.0039 -0.0556  0.4267
  129OSM   H12S13835   6.106   0.765   7.539  1.3867 -1.7069 -2.9503
  129OSM   H12T13836   6.004   0.625   7.546 -0.5906  0.5305  2.9247
  129OSM   C13S13837   5.899   0.805   7.599 -0.0023 -0.6152  0.2200
  129OSM   H13S13838   5.799   0.756   7.598 -0.4055  0.1881 -0.2493
  129OSM   H13T13839   5.883   0.900   7.544  0.2076 -1.0761 -0.6620
  129OSM   C14S13840   5.936   0.816   7.746 -0.2138 -0.0030  0.5522
  129OSM   H14S13841   6.006   0.901   7.760  0.6085 -0.2806 -1.4694
  129OSM   H14T13842   5.977   0.724   7.792  1.6689  0.8420  0.6770
  129OSM   C15S13843   5.809   0.855   7.833  0.0580  0.4367 -0.2631
  129OSM   H15S13844   5.748   0.762   7.830 -1.4578  1.2979  1.4831
  129OSM   H15T13845   5.757   0.946   7.795 -0.1736  0.0367 -0.9161
  129OSM   C16S13846   5.843   0.881   7.981  0.9186 -0.4623  0.0349
  129OSM   H16S13847   5.928   0.952   7.976  0.0545  0.5329 -0.7809
  129OSM   H16T13848   5.862   0.788   8.039 -2.4658 -0.7578  0.9151
  129OSM   C17S13849   5.714   0.940   8.047  0.2778  0.7353  0.4158
  129OSM   H17S13850   5.672   1.033   8.004 -3.5216 -1.0444 -0.1015
  129OSM   H17T13851   5.735   0.958   8.155 -1.0799  1.9999  0.4904
  129OSM   C18S13852   5.593   0.846   8.034  0.0818  0.2092  0.4172
  129OSM   H18S13853   5.511   0.874   8.104 -0.4956 -0.6216  0.0814
  129OSM   H18T13854   5.624   0.743   8.063 -0.0451 -0.3103 -1.1898
  129OSM   H18U13855   5.558   0.840   7.929  1.2920  0.4924 -0.0253
  129OSM    C1F13856   5.999   1.263   6.450 -0.2134  0.6689  0.2684
  129OSM     OF13857   5.893   1.316   6.412 -0.0227  0.4104  0.0296
  129OSM    C2F13858   6.118   1.348   6.484 -0.0347 -0.3146  0.4757
  129OSM    H2F13859   6.104   1.457   6.472  2.5836 -0.0711 -0.9597
  129OSM    H2G13860   6.207   1.337   6.419  0.6705 -0.4732  1.4382
  129OSM    C3F13861   6.170   1.337   6.625 -0.2900  0.7166 -0.3241
  129OSM    H3F13862   6.260   1.403   6.628 -0.3620  0.9322 -2.0105
  129OSM    H3G13863   6.208   1.236   6.650 -1.4413 -0.0413 -1.5137
  129OSM    C4F13864   6.062   1.383   6.729 -0.0147  0.6443 -0.2010
  129OSM    H4F13865   5.970   1.328   6.700  0.5620 -0.1253 -0.6281
  129OSM    H4G13866   6.051   1.493   6.726  1.6619  0.8237 -0.4159
  129OSM    C5F13867   6.095   1.367   6.876  0.0259 -0.3419 -0.1516
  129OSM    H5F13868   5.999   1.382   6.930 -1.5383 -0.5993 -2.6986
  129OSM    H5G13869   6.173   1.438   6.911  1.1140 -0.9686 -1.2260
  129OSM    C6F13870   6.135   1.223   6.913 -0.4129  0.1905  1.0728
  129OSM    H6F13871   6.243   1.213   6.891 -0.5049  0.0859  0.6641
  129OSM    H6G13872   6.083   1.147   6.852  1.2809  0.3032 -0.6111
  129OSM    C7F13873   6.124   1.184   7.056 -0.3161 -0.3919  0.1109
  129OSM    H7F13874   6.170   1.083   7.055  1.4589  0.3842 -0.7125
  129OSM    H7G13875   6.019   1.177   7.092 -0.8205 -1.9279 -1.5474
  129OSM    C8F13876   6.189   1.282   7.160 -0.4849  0.2002 -0.8953
  129OSM    H8F13877   6.130   1.376   7.168 -0.4695  0.0524  2.6163
  129OSM    H8G13878   6.295   1.309   7.141  0.1691 -0.8343  1.0355
  129OSM    C9F13879   6.196   1.221   7.301  0.2460 -0.3037 -0.3783
  129OSM    H9F13880   6.290   1.171   7.329 -0.1463 -1.2576 -0.7092
  129OSM   C10F13881   6.096   1.204   7.384  0.1446 -0.3783 -1.2514
  129OSM   H10F13882   6.109   1.150   7.479 -3.5593  1.1687  0.3437
  129OSM   C11F13883   5.949   1.238   7.367 -0.1157 -0.2341  0.3837
  129OSM   H11F13884   5.899   1.140   7.355  1.8444 -1.1885 -0.4590
  129OSM   H11G13885   5.922   1.301   7.279 -0.2701  0.3926  0.8673
  129OSM   C12F13886   5.881   1.305   7.493  0.5357  0.2377  0.0195
  129OSM   H12F13887   5.781   1.327   7.449  1.5283  0.1087 -2.4922
  129OSM   H12G13888   5.937   1.398   7.515  1.4979 -0.2126 -0.4642
  129OSM   C13F13889   5.880   1.216   7.623  0.3944 -0.4441  0.0032
  129OSM   H13F13890   5.989   1.210   7.644  0.4647  0.6468  0.0151
  129OSM   H13G13891   5.834   1.115   7.610  0.6922 -0.6870  0.7610
  129OSM   C14F13892   5.821   1.274   7.749  0.0862  0.5256 -0.0146
  129OSM   H14F13893   5.856   1.224   7.842 -1.2356  0.0798  0.2656
  129OSM   H14G13894   5.712   1.252   7.759 -0.0389  1.1642  0.1251
  129OSM   C15F13895   5.833   1.428   7.760  0.0524 -0.1906 -0.9637
  129OSM   H15F13896   5.801   1.482   7.669 -0.3085  0.8519 -0.2376
  129OSM   H15G13897   5.943   1.445   7.761 -0.0585  0.7790  1.2462
  129OSM   C16F13898   5.763   1.472   7.888 -0.1684 -0.0800  0.0066
  129OSM   H16F13899   5.786   1.401   7.971  0.0848 -0.1782 -0.1483
  129OSM   H16G13900   5.655   1.464   7.864 -0.0137  1.7744 -1.5142
  129OSM   C17F13901   5.799   1.611   7.939 -0.0753  0.4515 -0.4123
  129OSM   H17F13902   5.787   1.686   7.859  1.5678 -1.1983 -2.3100
  129OSM   H17G13903   5.902   1.608   7.980 -0.8243  0.2425  1.6187
  129OSM   C18F13904   5.726   1.669   8.060  0.5432 -0.5207 -0.7936
  129OSM   H18F13905   5.789   1.736   8.122 -0.0405 -2.6829  2.3401
  129OSM   H18G13906   5.695   1.589   8.130 -0.0225  0.8513  0.5613
  129OSM   H18H13907   5.643   1.734   8.024 -0.8594 -2.7109 -1.7131
  130OSM      N13908   0.403   2.953   6.177 -1.0170 -0.2033  0.1911
  130OSM    C1513909   0.357   3.073   6.105  0.4420 -0.7673 -0.2995
  130OSM   H15A13910   0.279   3.046   6.035  0.1049 -3.5145  1.0308
  130OSM   H15B13911   0.444   3.123   6.065  0.4175 -0.5121 -0.0366
  130OSM   H15C13912   0.302   3.134   6.176  1.2173 -0.4715  0.0513
  130OSM    C1413913   0.284   2.875   6.222 -0.1411 -0.4302 -0.0789
  130OSM   H14A13914   0.224   2.858   6.134 -0.0597 -0.0131 -0.2133
  130OSM   H14B13915   0.223   2.929   6.294  2.3991  0.9034  1.2004
  130OSM   H14C13916   0.323   2.781   6.259 -0.1979 -0.1910  0.6014
  130OSM    C1313917   0.482   2.866   6.093 -0.0198  0.3804  0.0207
  130OSM   H13A13918   0.520   2.781   6.149 -2.0806  0.9318  2.4845
  130OSM   H13B13919   0.568   2.922   6.058  0.9480  0.6279  2.5248
  130OSM   H13C13920   0.433   2.823   6.007  2.4449 -1.7574 -0.4518
  130OSM    C1213921   0.481   2.996   6.299  0.1390  0.1316 -0.3747
  130OSM   H12A13922   0.557   3.070   6.280 -1.3157  1.4598 -1.2732
  130OSM   H12B13923   0.529   2.908   6.340  0.3169  0.2474 -0.3330
  130OSM    C1113924   0.408   3.070   6.413  0.6228  0.8058 -0.8035
  130OSM   H11A13925   0.478   3.083   6.497  0.9686  2.0157 -1.2611
  130OSM   H11B13926   0.330   3.004   6.456  0.4918  2.4945  1.7200
  130OSM      P13927   0.449   3.327   6.393  0.4493 -0.0405 -0.2667
  130OSM    O1313928   0.590   3.293   6.369  0.0100  0.0429  0.2111
  130OSM    O1413929   0.388   3.426   6.302 -0.7107  0.0704  0.2445
  130OSM    O1113930   0.420   3.364   6.550  0.0330 -0.2377  0.2350
  130OSM    O1213931   0.358   3.195   6.367  0.0298 -0.5138 -0.3718
  130OSM    C1S13932   0.286   3.348   6.598 -0.2298  0.0824 -0.4089
  130OSM    H1S13933   0.260   3.240   6.611  1.6075 -0.6203 -2.0341
  130OSM    H1T13934   0.212   3.383   6.522 -1.3068 -0.8358  0.1710
  130OSM     NF13935   0.119   3.391   6.774 -0.4623 -0.0810 -0.4902
  130OSM    HNF13936   0.067   3.473   6.795  0.2470  0.5894 -1.2601
  130OSM    C2S13937   0.260   3.404   6.743 -0.4742  0.0376  0.0048
  130OSM    H2S13938   0.307   3.347   6.825 -1.2838 -0.6783 -0.0168
  130OSM    C3S13939   0.312   3.553   6.755  0.0187 -0.4189  0.0771
  130OSM    H3S13940   0.241   3.616   6.698 -1.2218 -0.2503  1.7248
  130OSM     O313941   0.444   3.581   6.713 -0.3850  0.4952  0.1512
  130OSM    HO313942   0.464   3.504   6.658  1.2948  0.1431  1.1822
  130OSM    C4S13943   0.296   3.604   6.901  0.3159  0.6864  0.6757
  130OSM    H4S13944   0.195   3.647   6.917  0.3234 -0.1670  3.5953
  130OSM    C5S13945   0.385   3.605   6.996 -0.0291  0.1216  0.1621
  130OSM    H5S13946   0.472   3.543   6.971 -2.0719 -2.4995 -0.9266
  130OSM    C6S13947   0.369   3.658   7.133 -0.1059 -0.2186 -0.8511
  130OSM    H6S13948   0.299   3.744   7.131 -0.6900 -0.5592  1.7855
  130OSM    H6T13949   0.465   3.697   7.172 -0.8681  0.3770  0.5124
  130OSM    C7S13950   0.323   3.550   7.233  0.1577 -0.7759  0.2860
  130OSM    H7S13951   0.390   3.463   7.214 -0.4612 -1.1369 -0.3186
  130OSM    H7T13952   0.225   3.513   7.196  0.9025 -0.0585 -2.6448
  130OSM    C8S13953   0.309   3.588   7.374  0.3413 -0.3611 -0.0050
  130OSM    H8S13954   0.268   3.500   7.427 -0.3365  0.3145  0.6231
  130OSM    H8T13955   0.241   3.674   7.389 -0.8635 -0.8547 -2.2253
  130OSM    C9S13956   0.450   3.617   7.447  0.0391  0.2238  0.1649
  130OSM    H9S13957   0.488   3.703   7.388 -0.8054 -0.9576 -2.2294
  130OSM    H9T13958   0.526   3.536   7.450  0.0559  0.2595  2.5886
  130OSM   C10S13959   0.436   3.666   7.587  0.1483  0.0272  1.0087
  130OSM   H10S13960   0.365   3.751   7.591 -1.8854 -1.4492 -1.0376
  130OSM   H10T13961   0.536   3.700   7.620  0.4894  1.7255 -1.4972
  130OSM   C11S13962   0.372   3.559   7.685 -0.4777 -0.4135  0.0612
  130OSM   H11S13963   0.356   3.470   7.620 -1.3289 -0.9999  1.0473
  130OSM   H11T13964   0.267   3.584   7.711 -0.6891  0.1460 -1.2493
  130OSM   C12S13965   0.446   3.530   7.819 -0.2478 -0.4334  0.2816
  130OSM   H12S13966   0.439   3.617   7.887  1.8330  1.3934 -1.6915
  130OSM   H12T13967   0.546   3.504   7.779  0.2936  1.2395  0.4717
  130OSM   C13S13968   0.376   3.421   7.909 -0.6558 -0.6767  0.7657
  130OSM   H13S13969   0.394   3.324   7.858  0.4586  0.4420 -1.0450
  130OSM   H13T13970   0.265   3.433   7.916 -0.9239 -3.0814  1.5905
  130OSM   C14S13971   0.431   3.410   8.053 -0.3498 -0.3044  0.5823
  130OSM   H14S13972   0.520   3.476   8.062  0.1629 -0.7078 -1.2236
  130OSM   H14T13973   0.459   3.304   8.069  1.6761  0.0861 -0.1204
  130OSM   C15S13974   0.337   3.449   8.162  0.0278  0.4912  0.2530
  130OSM   H15S13975   0.250   3.387   8.131 -1.1120  1.7118  0.9011
  130OSM   H15T13976   0.317   3.557   8.145 -0.2487  0.2871 -0.7804
  130OSM   C16S13977   0.384   3.437   8.311  0.5210  0.1092  0.0308
  130OSM   H16S13978   0.470   3.505   8.327  0.9667 -0.2058 -0.9378
  130OSM   H16T13979   0.430   3.336   8.324 -1.7280 -0.7205  2.6908
  130OSM   C17S13980   0.268   3.445   8.409 -0.4775 -0.2002 -0.3726
  130OSM   H17S13981   0.289   3.454   8.518 -2.0627  0.7030 -0.0935
  130OSM   H17T13982   0.215   3.348   8.415  1.1571 -1.0580  1.1334
  130OSM   C18S13983   0.160   3.552   8.382  0.2255 -0.0211  0.2846
  130OSM   H18S13984   0.211   3.650   8.368  2.4306 -1.0246  0.8215
  130OSM   H18T13985   0.099   3.552   8.474  0.6400  0.9484  0.5800
  130OSM   H18U13986   0.102   3.536   8.289  0.8433  1.8948 -0.4937
  130OSM    C1F13987   0.046   3.281   6.776  0.0371  0.1556  0.9004
  130OSM     OF13988   0.089   3.168   6.753  0.0483  0.1163  0.2543
  130OSM    C2F13989  -0.098   3.287   6.798  0.0067  0.5168 -0.4335
  130OSM    H2F13990  -0.151   3.230   6.719  2.2498 -2.1147 -0.1930
  130OSM    H2G13991  -0.125   3.394   6.802  1.0979  0.9298 -2.4865
  130OSM    C3F13992  -0.144   3.230   6.936  0.1102  0.2591  0.2500
  130OSM    H3F13993  -0.097   3.131   6.952  0.5777  0.4424  0.0427
  130OSM    H3G13994  -0.253   3.214   6.945  0.2889 -0.8219  0.6574
  130OSM    C4F13995  -0.098   3.322   7.048 -0.1286  0.1673  0.2474
  130OSM    H4F13996  -0.161   3.414   7.048  0.9419  0.9527  1.3080
  130OSM    H4G13997   0.008   3.352   7.033 -0.2175  0.1789 -0.3612
  130OSM    C5F13998  -0.120   3.255   7.188 -0.4415  0.1623  0.6347
  130OSM    H5F13999  -0.057   3.165   7.210 -0.4813 -0.0846 -0.2330
  130OSM    H5G14000  -0.226   3.221   7.190 -0.2081 -0.7420 -0.8673
  130OSM    C6F14001  -0.120   3.366   7.299  0.0068  0.1218  0.1953
  130OSM    H6F14002  -0.177   3.454   7.263 -0.6318 -0.9846 -1.6478
  130OSM    H6G14003  -0.013   3.392   7.313 -0.6340  3.2540 -0.0080
  130OSM    C7F14004  -0.181   3.328   7.438  0.2956  0.2012  0.6204
  130OSM    H7F14005  -0.148   3.228   7.471  0.2572 -0.5969 -1.5755
  130OSM    H7G14006  -0.291   3.342   7.427  0.4827  2.0209  0.7062
  130OSM    C8F14007  -0.147   3.438   7.542 -0.0317  0.3792 -0.0216
  130OSM    H8F14008  -0.220   3.440   7.626 -1.2269  1.4815 -1.0459
  130OSM    H8G14009  -0.166   3.526   7.477  2.0568 -0.2114 -1.5213
  130OSM    C9F14010  -0.002   3.432   7.594  0.2602  0.1290  0.7390
  130OSM    H9F14011   0.075   3.478   7.531  1.1929 -2.4726 -0.1885
  130OSM   C10F14012   0.033   3.363   7.703 -0.1326  0.6147  0.2653
  130OSM   H10F14013   0.141   3.362   7.724  0.4488 -0.9971 -2.3042
  130OSM   C11F14014  -0.059   3.282   7.795  0.2156  0.2782  0.1755
  130OSM   H11F14015  -0.016   3.181   7.814  0.4420  0.5097  0.9262
  130OSM   H11G14016  -0.165   3.275   7.762  0.4493  1.8039 -1.0182
  130OSM   C12F14017  -0.061   3.356   7.925  0.0376 -0.5549  0.1411
  130OSM   H12F14018  -0.100   3.460   7.914  0.1310 -0.5965 -0.7027
  130OSM   H12G14019   0.037   3.363   7.976  2.3480 -0.4829 -3.8483
  130OSM   C13F14020  -0.157   3.292   8.019  0.1827  0.2020  0.1681
  130OSM   H13F14021  -0.126   3.191   8.052  1.3549  0.0879 -1.2315
  130OSM   H13G14022  -0.253   3.277   7.963  1.2804  1.6646 -2.2588
  130OSM   C14F14023  -0.195   3.385   8.135 -0.6663  0.5527  0.3954
  130OSM   H14F14024  -0.262   3.465   8.098  1.6339  1.5952 -1.8167
  130OSM   H14G14025  -0.099   3.433   8.164  0.8390 -1.4148 -1.0555
  130OSM   C15F14026  -0.258   3.313   8.252 -0.4296 -0.4208 -0.9103
  130OSM   H15F14027  -0.195   3.228   8.286  0.4782  0.5615 -0.0379
  130OSM   H15G14028  -0.360   3.275   8.231 -0.2110 -2.4915  1.3615
  130OSM   C16F14029  -0.255   3.406   8.380  0.1612  0.6225  0.5268
  130OSM   H16F14030  -0.158   3.454   8.403  0.1389 -0.1929  2.4928
  130OSM   H16G14031  -0.280   3.334   8.460 -0.3330  1.2582  0.9566
  130OSM   C17F14032  -0.373   3.510   8.384 -0.1006  0.1609 -0.3559
  130OSM   H17F14033  -0.359   3.605   8.329  0.5178  1.0566  1.2512
  130OSM   H17G14034  -0.383   3.544   8.490  0.9690 -0.7688  0.0679
  130OSM   C18F14035  -0.510   3.452   8.356 -0.7700 -0.1832  0.0594
  130OSM   H18F14036  -0.536   3.360   8.413 -1.6288 -1.0183 -1.5813
  130OSM   H18G14037  -0.511   3.419   8.249 -1.2634 -0.4655  0.1460
  130OSM   H18H14038  -0.593   3.522   8.377 -0.3811  0.6269 -1.0015
  131OSM      N14039   6.196   1.980   6.257 -0.2839  0.6764 -0.5236
  131OSM    C1514040   6.282   2.090   6.200  1.1524 -0.0719  0.3113
  131OSM   H15A14041   6.319   2.156   6.276  0.8932 -0.8383  1.1290
  131OSM   H15B14042   6.215   2.144   6.135 -0.4756 -0.1136  1.8590
  131OSM   H15C14043   6.366   2.047   6.148  0.6821  0.4728 -0.9314
  131OSM    C1414044   6.098   2.046   6.337  0.2335 -0.0200 -0.1749
  131OSM   H14A14045   6.044   2.123   6.284  0.7015  0.2167 -0.3170
  131OSM   H14B14046   6.143   2.092   6.424  1.4010 -0.8453 -0.3039
  131OSM   H14C14047   6.024   1.977   6.374  1.5111 -1.7030 -0.6061
  131OSM    C1314048   6.119   1.920   6.139 -0.1386  0.2952  0.5747
  131OSM   H13A14049   6.045   1.853   6.179 -1.2461  0.7534 -0.6351
  131OSM   H13B14050   6.184   1.863   6.075  0.3418  1.8269 -0.3540
  131OSM   H13C14051   6.062   1.994   6.084 -0.2617 -1.0492 -1.1829
  131OSM    C1214052   6.275   1.877   6.344  0.2685  0.8734  0.2253
  131OSM   H12A14053   6.317   1.932   6.428  0.9534  2.7014 -1.2380
  131OSM   H12B14054   6.363   1.833   6.298  0.1861  0.2944  0.6071
  131OSM    C1114055   6.208   1.745   6.388 -0.0900 -0.4845  0.0849
  131OSM   H11A14056   6.111   1.771   6.436  0.6912  1.3959  0.7364
  131OSM   H11B14057   6.267   1.701   6.472  0.0174  0.5729  0.5829
  131OSM      P14058   6.311   1.555   6.235  0.4136 -0.1496 -0.1952
  131OSM    O1314059   6.246   1.434   6.181 -0.3901  0.1631  0.4101
  131OSM    O1414060   6.401   1.636   6.137 -0.1206  0.7834 -0.2680
  131OSM    O1114061   6.388   1.524   6.377  0.1641  0.3719 -0.0406
  131OSM    O1214062   6.190   1.657   6.275 -0.1259  0.3491  0.0790
  131OSM    C1S14063   6.515   1.583   6.390 -0.0406  0.3707 -0.3035
  131OSM    H1S14064   6.513   1.690   6.361 -1.4707 -0.1062 -2.1932
  131OSM    H1T14065   6.597   1.538   6.330  0.7212 -1.8126  2.1859
  131OSM     NF14066   6.671   1.659   6.578  0.2122  0.2417  0.1570
  131OSM    HNF14067   6.767   1.633   6.580  0.9613  2.5928  3.4189
  131OSM    C2S14068   6.562   1.570   6.545 -0.1503 -0.0191 -0.1207
  131OSM    H2S14069   6.467   1.598   6.596  0.6291  1.6334  0.4733
  131OSM    C3S14070   6.604   1.424   6.567  0.3462 -0.3050  0.2666
  131OSM    H3S14071   6.697   1.394   6.514 -0.3028 -0.7746 -0.6351
  131OSM     O314072   6.519   1.323   6.513  0.4958  0.6254 -0.5610
  131OSM    HO314073   6.473   1.383   6.454 -2.0721  1.2866  1.8725
  131OSM    C4S14074   6.628   1.404   6.714  0.2822  0.3050  0.7544
  131OSM    H4S14075   6.734   1.420   6.740 -0.0848  1.7879  1.4855
  131OSM    C5S14076   6.540   1.374   6.809  0.4166 -0.4519 -0.4385
  131OSM    H5S14077   6.438   1.354   6.774 -0.2329  0.5841  0.7805
  131OSM    C6S14078   6.578   1.354   6.955  0.0134 -0.3939  0.1040
  131OSM    H6S14079   6.687   1.346   6.971  0.5305 -1.6895 -3.2255
  131OSM    H6T14080   6.539   1.251   6.970  1.0348 -0.9144 -0.6887
  131OSM    C7S14081   6.516   1.455   7.051  0.0954  0.4235  0.3981
  131OSM    H7S14082   6.406   1.448   7.040  0.1757 -1.2564  0.3747
  131OSM    H7T14083   6.560   1.557   7.042  0.3807  0.4019  1.4501
  131OSM    C8S14084   6.546   1.409   7.192 -0.1654  0.1357  0.7196
  131OSM    H8S14085   6.657   1.402   7.191 -0.2589 -2.3726 -1.6720
  131OSM    H8T14086   6.523   1.302   7.205  2.1429 -0.4790  0.3028
  131OSM    C9S14087   6.490   1.492   7.308 -0.0758  0.1711 -0.2122
  131OSM    H9S14088   6.379   1.489   7.302 -0.0682 -0.5293 -0.1181
  131OSM    H9T14089   6.518   1.597   7.288  2.2392 -0.2832  0.3147
  131OSM   C10S14090   6.541   1.433   7.447 -0.1923  0.2824 -0.2581
  131OSM   H10S14091   6.648   1.418   7.422 -0.6912  0.7661 -2.9723
  131OSM   H10T14092   6.487   1.340   7.474  0.1070 -0.0003 -0.6274
  131OSM   C11S14093   6.511   1.538   7.550 -0.2590  0.5733 -0.2675
  131OSM   H11S14094   6.404   1.537   7.581 -0.1155  2.0579  0.3748
  131OSM   H11T14095   6.531   1.640   7.509  0.1555  0.9421  0.8279
  131OSM   C12S14096   6.610   1.520   7.671 -0.2279 -0.3495  0.7258
  131OSM   H12S14097   6.701   1.579   7.646  0.5667 -1.7366  0.2601
  131OSM   H12T14098   6.635   1.414   7.690 -1.5487 -0.9013 -0.3914
  131OSM   C13S14099   6.567   1.577   7.800 -0.2826 -0.0595  0.4808
  131OSM   H13S14100   6.463   1.540   7.814  0.2107 -1.4085  0.7944
  131OSM   H13T14101   6.568   1.687   7.815  1.0924 -0.2209  1.8845
  131OSM   C14S14102   6.667   1.529   7.912  0.1394  0.0649 -1.4682
  131OSM   H14S14103   6.766   1.552   7.867  0.0487  2.2384 -0.6587
  131OSM   H14T14104   6.667   1.420   7.936  0.5840  0.4816  0.6359
  131OSM   C15S14105   6.659   1.604   8.048  0.5044  0.1120  0.4191
  131OSM   H15S14106   6.571   1.562   8.100  0.8308 -0.5398  0.4511
  131OSM   H15T14107   6.632   1.711   8.032  2.6229  0.3806 -2.0845
  131OSM   C16S14108   6.786   1.587   8.133  0.0256 -0.0901 -0.2235
  131OSM   H16S14109   6.876   1.628   8.083 -0.5578  1.0218 -0.3923
  131OSM   H16T14110   6.795   1.476   8.142  0.0604  0.0600  2.3397
  131OSM   C17S14111   6.776   1.647   8.273 -0.0278 -0.4480  0.1363
  131OSM   H17S14112   6.741   1.751   8.256 -0.1833 -0.5678 -0.2838
  131OSM   H17T14113   6.870   1.654   8.333  0.1332  2.0514 -0.3033
  131OSM   C18S14114   6.690   1.556   8.358 -0.2417  0.4793 -0.2722
  131OSM   H18S14115   6.745   1.464   8.386  2.9368  3.2323  3.6640
  131OSM   H18T14116   6.594   1.523   8.313 -0.1730 -0.3109  0.1572
  131OSM   H18U14117   6.666   1.600   8.457 -0.5680  1.8838 -0.9351
  131OSM    C1F14118   6.657   1.793   6.594  0.3851  0.5170 -0.2034
  131OSM     OF14119   6.554   1.852   6.563 -0.0011 -0.2944  0.3297
  131OSM    C2F14120   6.769   1.875   6.653 -0.4142  0.3870  0.7512
  131OSM    H2F14121   6.812   1.932   6.568 -1.7156  0.2679 -0.0200
  131OSM    H2G14122   6.846   1.806   6.691  0.0501  1.8147  2.5417
  131OSM    C3F14123   6.732   1.960   6.779  0.1856  0.1749  0.3042
  131OSM    H3F14124   6.703   1.895   6.865  0.8641  0.3394  0.6686
  131OSM    H3G14125   6.642   2.007   6.735  0.0680  0.3133  0.6827
  131OSM    C4F14126   6.834   2.069   6.818 -0.5911 -0.1917  0.9804
  131OSM    H4F14127   6.850   2.124   6.722  0.0451 -2.6828 -0.4412
  131OSM    H4G14128   6.925   2.019   6.857  0.2911 -0.6761 -1.5249
  131OSM    C5F14129   6.792   2.187   6.905  1.0410 -0.4899  0.5811
  131OSM    H5F14130   6.686   2.218   6.889  1.1853  0.1825  0.9142
  131OSM    H5G14131   6.855   2.278   6.897 -0.8332  0.7316 -1.2402
  131OSM    C6F14132   6.789   2.140   7.056  0.2784  0.2560 -0.3211
  131OSM    H6F14133   6.889   2.100   7.085 -1.2077 -3.4276  0.3659
  131OSM    H6G14134   6.724   2.049   7.058  1.0838 -0.3574 -1.3144
  131OSM    C7F14135   6.748   2.248   7.159  0.0316 -0.3982 -0.2457
  131OSM    H7F14136   6.824   2.330   7.157 -1.5632  1.1607  0.7676
  131OSM    H7G14137   6.768   2.192   7.253  1.3717 -1.8203 -1.3257
  131OSM    C8F14138   6.610   2.318   7.150 -0.8024 -0.4759  0.2605
  131OSM    H8F14139   6.525   2.247   7.141  0.2741 -1.5587 -3.1939
  131OSM    H8G14140   6.596   2.358   7.047  0.1177 -0.2748  0.2034
  131OSM    C9F14141   6.604   2.433   7.250  0.8502 -0.4581 -0.3744
  131OSM    H9F14142   6.684   2.503   7.222 -0.9431  1.7689 -0.2164
  131OSM   C10F14143   6.525   2.461   7.359  0.0390  0.4990  0.0457
  131OSM   H10F14144   6.543   2.558   7.408  1.6046  0.2081  0.0873
  131OSM   C11F14145   6.416   2.380   7.416 -0.0543  0.1326 -0.5795
  131OSM   H11F14146   6.387   2.295   7.350 -0.1593  1.9290 -2.9964
  131OSM   H11G14147   6.330   2.449   7.406 -2.2902 -2.3270  0.6101
  131OSM   C12F14148   6.431   2.333   7.557 -0.9942 -0.1846  0.2789
  131OSM   H12F14149   6.521   2.269   7.548  0.1828  1.5050 -0.4039
  131OSM   H12G14150   6.349   2.261   7.577  0.7501 -2.2874  0.2574
  131OSM   C13F14151   6.453   2.436   7.665  0.2679  0.5271  0.1991
  131OSM   H13F14152   6.371   2.510   7.656 -0.9881 -0.7577  0.6563
  131OSM   H13G14153   6.556   2.474   7.646  0.7828 -0.9270 -0.0892
  131OSM   C14F14154   6.447   2.375   7.808 -0.0894 -0.0714  0.1913
  131OSM   H14F14155   6.538   2.310   7.813 -0.0801 -0.1806 -1.1116
  131OSM   H14G14156   6.350   2.323   7.822  0.0593 -0.5705 -0.5658
  131OSM   C15F14157   6.478   2.480   7.927  1.1454  0.8071  0.1087
  131OSM   H15F14158   6.407   2.565   7.925  2.0211  1.5443 -0.6481
  131OSM   H15G14159   6.584   2.511   7.909  0.5840  1.7839 -1.7006
  131OSM   C16F14160   6.447   2.413   8.061 -0.2865  0.0623 -0.1485
  131OSM   H16F14161   6.491   2.311   8.068 -0.3851  0.0503  0.3105
  131OSM   H16G14162   6.339   2.397   8.078 -0.7297  0.7247 -2.1025
  131OSM   C17F14163   6.492   2.485   8.179  0.2346 -0.3641 -0.4070
  131OSM   H17F14164   6.441   2.582   8.190  1.6624  0.2925  0.6976
  131OSM   H17G14165   6.601   2.503   8.170  0.3428  0.3890  1.9103
  131OSM   C18F14166   6.452   2.403   8.304 -0.6523  0.2759 -0.0077
  131OSM   H18F14167   6.467   2.455   8.402 -1.4528  0.1237  0.1958
  131OSM   H18G14168   6.509   2.308   8.300  1.3232  1.3351  1.1845
  131OSM   H18H14169   6.345   2.377   8.293 -0.5172 -1.3490  1.9688
  132OSM      N14170   3.282   4.578   6.151  0.3685 -0.1819 -0.7223
  132OSM    C1514171   3.204   4.592   6.020 -0.2562 -0.1101 -0.3654
  132OSM   H15A14172   3.195   4.695   5.991  0.3774 -0.5208 -2.1528
  132OSM   H15B14173   3.109   4.544   6.038  0.5463 -1.4218  0.5420
  132OSM   H15C14174   3.256   4.537   5.943 -0.7063  0.3882 -1.0392
  132OSM    C1414175   3.330   4.440   6.182  0.1573 -0.1341 -0.2773
  132OSM   H14A14176   3.400   4.413   6.105  0.1579  1.9795 -1.0665
  132OSM   H14B14177   3.254   4.365   6.202 -1.6458  1.3834 -1.1985
  132OSM   H14C14178   3.393   4.447   6.269 -0.2454 -1.4223  0.1442
  132OSM    C1314179   3.404   4.671   6.146 -0.3719  0.6535  0.5171
  132OSM   H13A14180   3.377   4.776   6.140  2.0148  1.3261  0.2814
  132OSM   H13B14181   3.457   4.641   6.056 -3.8057 -3.0799 -0.5712
  132OSM   H13C14182   3.475   4.658   6.227 -0.7560 -1.6642  0.5415
  132OSM    C1214183   3.187   4.617   6.268 -0.3265 -0.4714  0.4993
  132OSM   H12A14184   3.143   4.715   6.255 -1.4493 -1.0596 -0.3061
  132OSM   H12B14185   3.243   4.604   6.360  0.4277 -4.2504 -0.3076
  132OSM    C1114186   3.063   4.526   6.278  0.5722  0.3364 -0.7365
  132OSM   H11A14187   3.019   4.528   6.380  0.0226  0.0569 -0.9666
  132OSM   H11B14188   3.097   4.421   6.266  1.8332  0.6415 -0.0146
  132OSM      P14189   2.857   4.673   6.203  0.1264  0.4042  0.5028
  132OSM    O1314190   2.910   4.802   6.147  0.0515  0.3375 -0.8084
  132OSM    O1414191   2.735   4.610   6.146 -0.1706  0.5408  0.3535
  132OSM    O1114192   2.847   4.687   6.358 -0.6463 -0.3874  0.0750
  132OSM    O1214193   2.965   4.564   6.181  0.5598  0.7619 -0.7063
  132OSM    C1S14194   2.762   4.600   6.434  0.3229  0.2748  0.4732
  132OSM    H1S14195   2.809   4.499   6.433 -1.9854 -0.8685 -0.4409
  132OSM    H1T14196   2.657   4.591   6.400  0.6896  0.0583 -0.6172
  132OSM     NF14197   2.716   4.528   6.661 -0.1968 -0.1557 -0.3801
  132OSM    HNF14198   2.618   4.526   6.680  0.2265  0.3690  2.2017
  132OSM    C2S14199   2.763   4.635   6.583 -0.0063  0.2842 -0.2728
  132OSM    H2S14200   2.870   4.646   6.607  0.7476  2.3163 -3.8087
  132OSM    C3S14201   2.682   4.761   6.612  0.0970 -0.1024  0.3051
  132OSM    H3S14202   2.573   4.753   6.595  0.0331  0.3007  0.5221
  132OSM     O314203   2.728   4.869   6.528  0.0781 -0.3291  0.0886
  132OSM    HO314204   2.776   4.825   6.458  1.3460  2.3480 -0.8419
  132OSM    C4S14205   2.701   4.799   6.758 -0.0550 -0.4263 -0.0137
  132OSM    H4S14206   2.662   4.729   6.833  1.5823  0.3205  1.6103
  132OSM    C5S14207   2.764   4.907   6.811  0.6478 -0.7247  0.2799
  132OSM    H5S14208   2.813   4.982   6.746  0.6859  0.4711  1.6409
  132OSM    C6S14209   2.776   4.945   6.956  0.1878  0.7586 -0.5135
  132OSM    H6S14210   2.696   5.022   6.969  0.6651  1.0577  0.7792
  132OSM    H6T14211   2.868   5.000   6.984 -0.9072  1.6965  1.4341
  132OSM    C7S14212   2.768   4.831   7.063  0.2357 -0.0196 -0.4467
  132OSM    H7S14213   2.853   4.763   7.041  0.2224 -0.7864  1.6048
  132OSM    H7T14214   2.675   4.771   7.058 -0.1103  0.2928  1.3373
  132OSM    C8S14215   2.788   4.875   7.206 -0.4902 -0.6803 -0.7960
  132OSM    H8S14216   2.708   4.947   7.233  0.2389 -0.3154  0.4212
  132OSM    H8T14217   2.888   4.919   7.226 -0.0666 -2.3093  0.9346
  132OSM    C9S14218   2.759   4.760   7.315  0.7636  0.0201 -0.0137
  132OSM    H9S14219   2.800   4.660   7.295  1.8160 -0.1081  2.4046
  132OSM    H9T14220   2.649   4.744   7.327  0.8598  0.0971  1.0925
  132OSM   C10S14221   2.793   4.785   7.464  0.4435 -0.1546  0.1473
  132OSM   H10S14222   2.757   4.885   7.496  0.4016 -0.2115  0.2798
  132OSM   H10T14223   2.903   4.799   7.466  0.4446  0.3605 -1.5453
  132OSM   C11S14224   2.742   4.675   7.561 -0.2967  0.0254 -0.1962
  132OSM   H11S14225   2.803   4.585   7.539  0.9126  1.0670 -1.2191
  132OSM   H11T14226   2.637   4.644   7.539  0.8913 -2.6215 -2.7925
  132OSM   C12S14227   2.759   4.722   7.703  0.0587  0.4982 -0.5980
  132OSM   H12S14228   2.684   4.801   7.722 -0.0464  0.5028 -1.0302
  132OSM   H12T14229   2.863   4.757   7.724  0.1137 -0.3308  0.6080
  132OSM   C13S14230   2.729   4.608   7.803 -0.2079 -0.2712  0.6875
  132OSM   H13S14231   2.799   4.524   7.785 -1.2879 -1.3876  1.4870
  132OSM   H13T14232   2.623   4.582   7.785 -0.5764  1.5989 -0.0435
  132OSM   C14S14233   2.735   4.655   7.952 -0.5341  0.4799  0.6087
  132OSM   H14S14234   2.665   4.742   7.958  0.1915  1.0059  1.8658
  132OSM   H14T14235   2.835   4.687   7.987  1.0251 -0.8731 -2.2648
  132OSM   C15S14236   2.692   4.541   8.050 -0.1055  0.1837 -0.0999
  132OSM   H15S14237   2.761   4.455   8.036 -0.6686 -0.4114  0.6622
  132OSM   H15T14238   2.588   4.516   8.023 -1.0833  3.6888 -0.1115
  132OSM   C16S14239   2.695   4.597   8.197  0.1496  1.0559  0.5509
  132OSM   H16S14240   2.607   4.665   8.191  0.3361  1.2063 -3.5527
  132OSM   H16T14241   2.797   4.637   8.211  2.0963 -3.3559  0.7768
  132OSM   C17S14242   2.674   4.483   8.296  0.4673  0.2727 -0.4317
  132OSM   H17S14243   2.600   4.406   8.267 -0.6217  1.5423 -1.0969
  132OSM   H17T14244   2.619   4.513   8.387 -1.4048 -2.7334 -0.4204
  132OSM   C18S14245   2.807   4.426   8.337 -0.4363  0.1500  0.4298
  132OSM   H18S14246   2.872   4.507   8.377  1.9231 -2.1796  1.6834
  132OSM   H18T14247   2.855   4.361   8.262 -2.8234  0.3831 -1.4054
  132OSM   H18U14248   2.796   4.370   8.432  0.9948  0.5558  0.8536
  132OSM    C1F14249   2.786   4.418   6.683 -0.1357 -0.3328  0.1205
  132OSM     OF14250   2.890   4.404   6.625  0.3108 -0.0097 -0.1383
  132OSM    C2F14251   2.723   4.304   6.761  0.4164  0.7877  0.0080
  132OSM    H2F14252   2.634   4.272   6.703 -0.0966  0.3749  0.9951
  132OSM    H2G14253   2.688   4.361   6.850  1.9456  1.1960  0.3898
  132OSM    C3F14254   2.809   4.180   6.792 -0.1043  0.1057 -0.1991
  132OSM    H3F14255   2.863   4.136   6.705  2.8270  0.6223  1.2627
  132OSM    H3G14256   2.733   4.103   6.818  0.5901 -1.4683 -2.4541
  132OSM    C4F14257   2.910   4.212   6.900 -0.2548  0.2934 -0.0638
  132OSM    H4F14258   2.971   4.299   6.868 -0.5109 -0.2247 -2.1081
  132OSM    H4G14259   2.969   4.119   6.912  0.0292  0.7170  2.2795
  132OSM    C5F14260   2.847   4.228   7.041  0.4718 -0.2222 -0.3070
  132OSM    H5F14261   2.770   4.149   7.053  0.8807 -0.2887  2.5357
  132OSM    H5G14262   2.787   4.321   7.041  1.2149  0.2949  1.3149
  132OSM    C6F14263   2.944   4.240   7.157  0.2413  0.7970  1.0026
  132OSM    H6F14264   3.037   4.299   7.143  0.6932  0.1512  1.2298
  132OSM    H6G14265   2.982   4.137   7.174 -0.6640 -0.3937 -3.1901
  132OSM    C7F14266   2.876   4.283   7.292 -0.6915  0.4795 -0.0074
  132OSM    H7F14267   2.787   4.220   7.309 -1.6973  1.3373 -1.8790
  132OSM    H7G14268   2.847   4.389   7.280 -0.2032  0.6376  0.1474
  132OSM    C8F14269   2.971   4.277   7.415 -0.8448 -0.0519 -0.0300
  132OSM    H8F14270   2.939   4.323   7.511 -1.2013 -0.6043  0.1207
  132OSM    H8G14271   3.069   4.320   7.385 -0.5488  0.7617  1.9771
  132OSM    C9F14272   2.980   4.131   7.441  0.2072  0.0360  0.5702
  132OSM    H9F14273   2.922   4.073   7.368  2.1701  0.5315 -1.5135
  132OSM   C10F14274   3.063   4.079   7.536 -0.2179  0.5505 -0.1196
  132OSM   H10F14275   3.058   3.974   7.571 -0.6846  1.1506  1.7461
  132OSM   C11F14276   3.148   4.169   7.624  0.2499  0.5291  0.2014
  132OSM   H11F14277   3.194   4.249   7.562  1.9359 -1.8633 -1.8639
  132OSM   H11G14278   3.231   4.101   7.654  0.4728  1.1674  1.0776
  132OSM   C12F14279   3.085   4.224   7.748 -0.7186  0.1577  0.0041
  132OSM   H12F14280   3.028   4.155   7.813 -2.0533  2.4514  1.4344
  132OSM   H12G14281   3.014   4.304   7.716 -0.6104  0.2070 -0.1155
  132OSM   C13F14282   3.194   4.289   7.838 -0.4754 -0.2850 -0.2670
  132OSM   H13F14283   3.250   4.376   7.798  0.4118 -0.8518 -0.2910
  132OSM   H13G14284   3.264   4.210   7.873 -1.4431 -1.6059 -1.1873
  132OSM   C14F14285   3.127   4.343   7.967  0.3664  0.1894  0.0580
  132OSM   H14F14286   3.065   4.264   8.015 -0.0524 -0.0089 -0.7815
  132OSM   H14G14287   3.060   4.427   7.938  0.7158  0.1995 -0.7471
  132OSM   C15F14288   3.232   4.383   8.075 -0.0038  0.0977 -0.8341
  132OSM   H15F14289   3.300   4.462   8.036 -0.9070  1.3680  0.0723
  132OSM   H15G14290   3.290   4.291   8.093 -0.6804 -0.0407  0.8098
  132OSM   C16F14291   3.179   4.438   8.208  0.2153 -0.5726  0.1695
  132OSM   H16F14292   3.142   4.353   8.269 -1.2976  0.8036  1.2458
  132OSM   H16G14293   3.091   4.504   8.190 -0.3496 -1.4652 -0.4485
  132OSM   C17F14294   3.287   4.515   8.286 -0.0715  0.1121  0.2521
  132OSM   H17F14295   3.235   4.544   8.380  0.2134  2.8819 -0.3388
  132OSM   H17G14296   3.314   4.614   8.242  0.2106 -0.5203 -1.0132
  132OSM   C18F14297   3.411   4.445   8.327 -0.1498 -0.3364 -0.7049
  132OSM   H18F14298   3.479   4.431   8.241  1.6823  3.7204 -0.1425
  132OSM   H18G14299   3.385   4.345   8.368  0.2384 -0.0685  0.1967
  132OSM   H18H14300   3.466   4.500   8.405  0.6944 -0.4459 -1.2161
  133SAPE     N14301   5.989   3.246  11.195 -0.4703  0.5819  0.4269
  133SAPE   HN114302   5.998   3.174  11.269  1.5314 -0.3098 -0.6062
  133SAPE   HN214303   6.088   3.275  11.180  0.1472  0.2765  3.3638
  133SAPE   HN314304   5.951   3.334  11.235 -0.7863  1.7542 -2.2441
  133SAPE   C1214305   5.931   3.196  11.068 -0.0491  0.5422  0.4624
  133SAPE  H12A14306   5.848   3.126  11.094  0.7862 -0.0161  1.6711
  133SAPE  H12B14307   6.013   3.145  11.012 -3.7094 -4.7371 -0.9071
  133SAPE   C1114308   5.871   3.315  10.986  0.3906  0.1550  0.4235
  133SAPE  H11A14309   5.853   3.281  10.881  0.5555 -0.6019  0.6384
  133SAPE  H11B14310   5.957   3.382  10.964 -0.3315  0.9846  0.0763
  133SAPE     P14311   5.606   3.320  11.042  0.2369 -0.4652 -0.1389
  133SAPE   O1314312   5.596   3.168  11.057 -0.2936  0.9062  0.0273
  133SAPE   O1414313   5.512   3.395  11.134 -0.6132  0.1199 -0.0301
  133SAPE   O1214314   5.757   3.382  11.049 -0.1894 -0.4677 -0.1709
  133SAPE   O1114315   5.558   3.357  10.897 -0.3002 -0.3871  0.1324
  133SAPE    C114316   5.613   3.470  10.819 -0.3808 -0.2511  0.4789
  133SAPE    HA14317   5.595   3.564  10.877  3.2287 -0.0433  1.4827
  133SAPE    HB14318   5.722   3.460  10.803 -0.2584  1.1572  0.2622
  133SAPE    C214319   5.552   3.468  10.679  0.7735 -0.5420  0.0008
  133SAPE    HS14320   5.442   3.451  10.688  0.2609  2.1953 -0.2948
  133SAPE   O2114321   5.615   3.360  10.595 -0.2553 -0.0564 -0.4636
  133SAPE   C2114322   5.551   3.253  10.600  0.0093 -0.1833  0.4973
  133SAPE   O2214323   5.442   3.227  10.658  0.2123  0.4388  0.1117
  133SAPE   C2214324   5.632   3.150  10.513 -0.4940 -0.4756 -0.0348
  133SAPE   H2R14325   5.601   3.045  10.528  0.0560 -0.6462 -0.0852
  133SAPE   H2S14326   5.599   3.171  10.408 -0.2334  0.0217 -0.0211
  133SAPE    C314327   5.566   3.607  10.609 -0.0016  0.1059  0.1919
  133SAPE    HX14328   5.672   3.635  10.624  0.0294 -0.1497  0.4669
  133SAPE    HY14329   5.498   3.678  10.660  1.3874  2.1642 -0.6587
  133SAPE   O3114330   5.527   3.607  10.469 -0.5464 -0.2005 -0.3019
  133SAPE   C3114331   5.564   3.722  10.409  0.0204 -0.3332 -0.2452
  133SAPE   O3214332   5.614   3.822  10.466  0.4313 -0.4336  0.0444
  133SAPE   C3214333   5.545   3.711  10.257  0.2751  0.9776 -0.5015
  133SAPE   H2X14334   5.439   3.687  10.232  0.9368 -2.2366 -0.7356
  133SAPE   H2Y14335   5.597   3.617  10.230 -0.2630  0.2496  0.8904
  133SAPE   C2314336   5.787   3.149  10.522  0.0566 -0.4101 -0.3509
  133SAPE   H3R14337   5.824   3.113  10.620 -0.5390 -1.5575 -0.5312
  133SAPE   H3S14338   5.811   3.253  10.491 -2.4996 -0.4010 -2.6415
  133SAPE   C2414339   5.840   3.054  10.411 -0.0217  0.5553 -0.1019
  133SAPE   H4R14340   5.950   3.058  10.401  0.0302 -1.5091 -0.7995
  133SAPE   H4S14341   5.792   3.088  10.316 -2.8533  1.3907  1.5010
  133SAPE   C2514342   5.816   2.905  10.433 -0.0808  0.6827 -0.0755
  133SAPE   H5R14343   5.858   2.862  10.525 -2.2058  1.4374  1.3223
  133SAPE   C2614344   5.752   2.826  10.348  0.3983  0.3396  0.5534
  133SAPE   H6R14345   5.731   2.726  10.388  1.4669 -1.0058 -2.0528
  133SAPE   C2714346   5.677   2.854  10.216 -0.6175  0.4306 -0.6802
  133SAPE   H7R14347   5.682   2.760  10.157 -0.7281  1.0842 -1.7632
  133SAPE   H7S14348   5.728   2.943  10.174 -3.8731  3.5106  1.2387
  133SAPE   C2814349   5.533   2.874  10.238 -0.3294  0.2117 -0.1880
  133SAPE   H8R14350   5.521   2.932  10.331 -0.8436 -0.4694  0.1760
  133SAPE   C2914351   5.421   2.847  10.170 -0.0290  0.1957  0.3611
  133SAPE   H9R14352   5.331   2.884  10.222 -0.6382  0.9833 -1.2038
  133SAPE  C21014353   5.411   2.765  10.040 -0.1459  0.2713  0.5234
  133SAPE  H10R14354   5.517   2.737  10.020 -0.1534  0.9986 -0.6366
  133SAPE  H10S14355   5.373   2.834   9.961 -0.0434  0.0646  0.2941
  133SAPE  C21114356   5.326   2.638  10.042  0.2656 -0.1021  0.2982
  133SAPE  H11R14357   5.296   2.614  10.145 -2.0027 -4.0468 -1.0788
  133SAPE  C21214358   5.297   2.551   9.945  0.0915  0.1127 -0.1598
  133SAPE  H12R14359   5.236   2.461   9.966 -0.8800  0.8615  0.3463
  133SAPE  C21314360   5.333   2.560   9.800  0.6553  0.4358  0.4364
  133SAPE  H13R14361   5.382   2.467   9.762  2.1509  1.3306  0.0775
  133SAPE  H13S14362   5.404   2.643   9.783  0.2584  0.9345  1.1848
  133SAPE  C21414363   5.212   2.591   9.714 -0.3808 -0.3086 -0.2383
  133SAPE  H14R14364   5.113   2.585   9.763 -1.2957  0.9685 -1.8355
  133SAPE  C21514365   5.211   2.644   9.595 -0.0384  0.0117  0.2005
  133SAPE  H15R14366   5.115   2.664   9.547 -0.9259 -0.1039  1.8688
  133SAPE  C21614367   5.339   2.673   9.511  0.5199 -0.1386 -0.1687
  133SAPE  H16R14368   5.434   2.664   9.570  0.5981 -2.3295 -0.5466
  133SAPE  H16S14369   5.321   2.777   9.478  1.1626  1.2133  3.2697
  133SAPE  C21714370   5.356   2.583   9.393 -0.2370  0.2594 -0.4311
  133SAPE  H17R14371   5.364   2.473   9.411  1.0698  0.0795 -1.9442
  133SAPE  H17S14372   5.449   2.615   9.341 -1.7403  2.6209 -1.8133
  133SAPE  C21814373   5.253   2.599   9.282 -0.1941  0.0215 -0.2647
  133SAPE  H18R14374   5.258   2.703   9.243  1.8090 -0.2100 -0.7611
  133SAPE  H18S14375   5.154   2.597   9.332 -0.1733  0.6739 -0.2000
  133SAPE  C21914376   5.275   2.498   9.166 -0.1169 -0.5009  0.1694
  133SAPE  H19R14377   5.264   2.393   9.200  1.8568 -0.6100  0.5680
  133SAPE  H19S14378   5.378   2.511   9.126 -0.0669 -1.0006  0.1305
  133SAPE  C22014379   5.177   2.522   9.045 -0.3108 -0.9622  0.3761
  133SAPE  H20R14380   5.218   2.464   8.960  0.3607  0.3180 -0.1917
  133SAPE  H20S14381   5.182   2.630   9.021  0.1837 -0.6671  1.7233
  133SAPE  H20T14382   5.070   2.500   9.068 -0.9688  0.6123 -0.9878
  133SAPE   C3314383   5.597   3.834  10.185 -0.1305 -0.5291  0.2247
  133SAPE   H3X14384   5.707   3.851  10.182 -0.5081  2.2950 -1.6023
  133SAPE   H3Y14385   5.539   3.917  10.230 -0.5209 -0.7689  0.1631
  133SAPE   C3414386   5.549   3.828  10.038 -0.1838  0.0883  0.2491
  133SAPE   H4X14387   5.542   3.935  10.010  3.7439  1.1390  2.5201
  133SAPE   H4Y14388   5.441   3.805  10.028 -1.4362  3.5625  3.5926
  133SAPE   C3514389   5.632   3.746   9.940  0.1696 -0.4427  1.2186
  133SAPE   H5X14390   5.652   3.641   9.973 -0.5218 -1.1481 -0.4780
  133SAPE   H5Y14391   5.733   3.791   9.943 -0.2020  0.4923  0.2410
  133SAPE   C3614392   5.580   3.755   9.797 -0.1154  0.7095 -0.7515
  133SAPE   H6X14393   5.553   3.861   9.776 -0.4423  0.6781 -0.5081
  133SAPE   H6Y14394   5.485   3.697   9.801  0.3016  0.0319 -0.6153
  133SAPE   C3714395   5.666   3.685   9.683 -0.0084  0.3156 -0.1673
  133SAPE   H7X14396   5.775   3.708   9.692  0.3295  0.6407 -3.6862
  133SAPE   H7Y14397   5.638   3.706   9.577  0.5232 -0.3018 -0.4380
  133SAPE   C3814398   5.654   3.527   9.686 -0.2414 -0.4252 -0.0658
  133SAPE   H8X14399   5.567   3.502   9.621  0.0004  0.0779 -0.5969
  133SAPE   H8Y14400   5.644   3.496   9.792 -1.8708 -0.6279 -0.2472
  133SAPE   C3914401   5.766   3.450   9.610  0.0578 -0.8586 -0.4137
  133SAPE   H9X14402   5.741   3.343   9.621 -1.0996 -0.5124  0.6469
  133SAPE   H9Y14403   5.859   3.460   9.670  0.7976  0.7001 -1.7422
  133SAPE  C31014404   5.787   3.490   9.464  0.2245 -0.1289 -0.2424
  133SAPE  H10X14405   5.802   3.599   9.448  1.8975 -0.5392 -1.7751
  133SAPE  H10Y14406   5.695   3.460   9.409  0.6509  1.7626 -2.1076
  133SAPE  C31114407   5.903   3.408   9.403  0.0857  0.2969 -0.3699
  133SAPE  H11X14408   5.880   3.300   9.396  3.3726 -0.5738  0.5873
  133SAPE  H11Y14409   5.988   3.440   9.468  1.5330 -0.2131 -1.9314
  133SAPE  C31214410   5.939   3.455   9.267 -0.0959 -0.4283 -0.3153
  133SAPE  H12X14411   5.999   3.549   9.273  2.6842 -2.0865 -0.3363
  133SAPE  H12Y14412   5.850   3.457   9.200  0.4071  0.4377 -0.9812
  133SAPE  C31314413   6.032   3.352   9.199  0.1550 -0.2520  0.0124
  133SAPE  H13X14414   5.971   3.259   9.194 -3.8166  2.0442  1.0051
  133SAPE  H13Y14415   6.126   3.337   9.256 -0.4577  2.8212  2.0921
  133SAPE  C31414416   6.074   3.403   9.068 -0.2638  0.3612 -0.0858
  133SAPE  H14X14417   6.136   3.493   9.087  3.0017 -1.7673 -0.0009
  133SAPE  H14Y14418   5.989   3.431   9.002  0.9105 -0.0562 -1.8352
  133SAPE  C31514419   6.164   3.302   8.985 -0.5574 -0.4258 -0.4770
  133SAPE  H15X14420   6.096   3.214   8.977 -2.8010  1.0169  1.4213
  133SAPE  H15Y14421   6.251   3.290   9.052 -1.2749 -0.4626  0.4678
  133SAPE  C31614422   6.194   3.357   8.846  0.4949  0.4255 -0.1727
  133SAPE  H16X14423   6.239   3.458   8.860 -0.8783  1.0802 -0.2956
  133SAPE  H16Y14424   6.099   3.384   8.795  0.3826  0.3870  0.0135
  133SAPE  C31714425   6.270   3.267   8.748 -0.0392 -0.0504  0.4166
  133SAPE  H17X14426   6.325   3.188   8.803  0.3238 -0.2462 -0.2161
  133SAPE  H17Y14427   6.344   3.324   8.689 -0.5434 -2.4003 -2.7292
  133SAPE  C31814428   6.174   3.201   8.637  0.1759  0.8263 -0.3138
  133SAPE  H18X14429   6.229   3.164   8.547  0.7779 -0.3078  0.5093
  133SAPE  H18Y14430   6.086   3.264   8.611 -0.0337  0.5294 -0.3224
  133SAPE  H18Z14431   6.133   3.107   8.678 -0.3918  1.8335  1.5165
  134SAPE     N14432   2.105   4.370  10.641 -0.0241 -0.4210 -0.0404
  134SAPE   HN114433   2.035   4.446  10.655 -0.4160 -0.6891 -0.5057
  134SAPE   HN214434   2.172   4.368  10.720 -1.6443  1.7752  1.5213
  134SAPE   HN314435   2.146   4.376  10.545  0.8026  2.8670  0.4192
  134SAPE   C1214436   2.037   4.240  10.639 -0.0076 -0.1521  0.5284
  134SAPE  H12A14437   2.110   4.161  10.666  0.1978 -1.0186 -2.2781
  134SAPE  H12B14438   2.002   4.221  10.535  2.3454 -1.3054 -0.1239
  134SAPE   C1114439   1.913   4.247  10.735  0.1123 -0.0261  0.2212
  134SAPE  H11A14440   1.936   4.234  10.843 -2.3844 -2.5389  0.5674
  134SAPE  H11B14441   1.850   4.160  10.706  0.5103 -0.0033 -0.7330
  134SAPE     P14442   1.720   4.389  10.623 -0.1349 -0.0601 -0.0295
  134SAPE   O1314443   1.614   4.287  10.656 -0.3176 -0.1806  0.2187
  134SAPE   O1414444   1.687   4.535  10.622  0.2047 -0.3698 -0.1846
  134SAPE   O1214445   1.838   4.372  10.726  0.3845 -0.2166 -0.2732
  134SAPE   O1114446   1.782   4.349  10.486  0.1306 -0.3974  0.4149
  134SAPE    C114447   1.853   4.448  10.410  0.3639 -0.3179  0.7843
  134SAPE    HA14448   1.899   4.524  10.476  0.3966  0.5465 -0.2165
  134SAPE    HB14449   1.939   4.401  10.356 -0.1285 -1.2506  0.7853
  134SAPE    C214450   1.763   4.531  10.309  0.6763  0.3006 -0.0022
  134SAPE    HS14451   1.681   4.570  10.372  0.5698 -0.4842  0.3593
  134SAPE   O2114452   1.722   4.444  10.206 -0.0322 -0.5976 -0.2656
  134SAPE   C2114453   1.612   4.482  10.146  0.4859  0.0384 -0.4330
  134SAPE   O2214454   1.539   4.570  10.185  0.7423 -1.1532  0.3891
  134SAPE   C2214455   1.591   4.410  10.006 -0.8453 -0.8923  0.1154
  134SAPE   H2R14456   1.656   4.320  10.006 -2.5834 -2.2090  0.7525
  134SAPE   H2S14457   1.482   4.386  10.001 -0.2906 -3.2591 -2.6253
  134SAPE    C314458   1.835   4.661  10.261 -0.2175  0.0933  0.8253
  134SAPE    HX14459   1.879   4.710  10.350  0.0718  2.0914 -0.3437
  134SAPE    HY14460   1.762   4.728  10.209  1.5870  0.9826 -0.6768
  134SAPE   O3114461   1.941   4.626  10.165 -0.0716 -0.2408 -0.3813
  134SAPE   C3114462   2.001   4.731  10.111  0.3333  0.0465  0.3269
  134SAPE   O3214463   1.967   4.844  10.146 -0.4092  0.8838  0.2188
  134SAPE   C3214464   2.108   4.693  10.003 -0.9919 -0.8853  0.4592
  134SAPE   H2X14465   2.132   4.585  10.013  3.3955 -0.3642 -2.2946
  134SAPE   H2Y14466   2.198   4.752  10.027 -1.7759  0.1973  0.8202
  134SAPE   C2314467   1.608   4.502   9.879  0.0416 -0.1654 -0.2206
  134SAPE   H3R14468   1.581   4.608   9.901 -1.5000 -0.4996 -0.3784
  134SAPE   H3S14469   1.543   4.461   9.799 -0.0490  0.9065 -0.7104
  134SAPE   C2414470   1.756   4.511   9.828  0.7649  0.1802 -0.6180
  134SAPE   H4R14471   1.818   4.556   9.909 -1.1586  0.8467  0.5491
  134SAPE   H4S14472   1.762   4.587   9.747 -3.6697 -1.2216 -2.5844
  134SAPE   C2514473   1.820   4.380   9.778 -0.6198  0.1180 -0.6192
  134SAPE   H5R14474   1.868   4.319   9.856 -0.3372  0.1197 -0.7901
  134SAPE   C2614475   1.820   4.344   9.653  0.5311  0.3526  1.1804
  134SAPE   H6R14476   1.859   4.244   9.629 -0.8236 -0.3247  1.6635
  134SAPE   C2714477   1.764   4.422   9.537  0.8164 -0.0327  0.3411
  134SAPE   H7R14478   1.820   4.377   9.451  0.1475  0.9572 -0.6461
  134SAPE   H7S14479   1.788   4.530   9.547  0.0512  0.2480 -0.6824
  134SAPE   C2814480   1.616   4.402   9.506  0.2803  0.7789 -0.7122
  134SAPE   H8R14481   1.561   4.319   9.551  0.5817  1.4712  0.9790
  134SAPE   C2914482   1.559   4.476   9.414  0.3840 -0.2067  0.2325
  134SAPE   H9R14483   1.457   4.439   9.394  1.0411 -3.0726  1.6301
  134SAPE  C21014484   1.608   4.579   9.318 -0.7254  0.0797 -0.1448
  134SAPE  H10R14485   1.690   4.636   9.367 -1.2933 -0.8568  2.0169
  134SAPE  H10S14486   1.525   4.648   9.290  0.2549  0.9091 -1.0917
  134SAPE  C21114487   1.654   4.499   9.195  0.2590  0.1965  0.3858
  134SAPE  H11R14488   1.753   4.452   9.204 -0.1948 -0.9593 -0.3449
  134SAPE  C21214489   1.591   4.479   9.077  0.0530 -0.4463 -0.9616
  134SAPE  H12R14490   1.641   4.416   9.002 -0.7634  0.5631 -2.4023
  134SAPE  C21314491   1.452   4.514   9.043  0.0194 -0.2576 -0.4352
  134SAPE  H13R14492   1.448   4.573   8.948 -1.8153  0.3303 -0.0372
  134SAPE  H13S14493   1.414   4.575   9.128  0.3646  0.6789 -0.9304
  134SAPE  C21414494   1.369   4.389   9.039 -0.3366 -0.2814  0.2406
  134SAPE  H14R14495   1.367   4.336   9.136 -1.6494  0.9569  0.9233
  134SAPE  C21514496   1.291   4.348   8.945 -0.0658 -0.1990  0.1762
  134SAPE  H15R14497   1.239   4.252   8.960 -0.1277  0.0169  1.3953
  134SAPE  C21614498   1.267   4.414   8.808 -0.6170  0.1683 -0.3538
  134SAPE  H16R14499   1.247   4.330   8.739  0.1078 -1.2691  1.1183
  134SAPE  H16S14500   1.360   4.465   8.776  1.0501 -1.9741  0.8128
  134SAPE  C21714501   1.139   4.505   8.812  0.2009 -0.3383  0.0225
  134SAPE  H17R14502   1.165   4.584   8.885  1.2360  0.1455 -0.8250
  134SAPE  H17S14503   1.048   4.450   8.841  0.4558 -0.0624  1.4212
  134SAPE  C21814504   1.122   4.576   8.674 -1.1537 -1.1063  0.3787
  134SAPE  H18R14505   1.117   4.500   8.594  0.1288 -0.3393 -0.4611
  134SAPE  H18S14506   1.212   4.632   8.641 -1.6597 -0.5163 -0.0143
  134SAPE  C21914507   1.011   4.680   8.689 -0.2240 -0.7546 -0.0475
  134SAPE  H19R14508   0.920   4.630   8.728 -0.1728 -0.7552  0.0716
  134SAPE  H19S14509   0.987   4.715   8.586  0.3923 -3.8638 -1.3390
  134SAPE  C22014510   1.037   4.794   8.790  0.2600  0.2813 -0.0762
  134SAPE  H20R14511   1.136   4.842   8.776  0.8015 -0.8470 -0.2678
  134SAPE  H20S14512   1.035   4.743   8.888 -2.7194  0.2924 -0.0222
  134SAPE  H20T14513   0.966   4.880   8.787  1.2857  1.1385 -0.1925
  134SAPE   C3314514   2.074   4.725   9.855 -0.2426 -0.3724  0.0088
  134SAPE   H3X14515   1.964   4.730   9.841 -0.3053  0.1840  0.6394
  134SAPE   H3Y14516   2.118   4.642   9.796  1.9117  2.1751 -2.2181
  134SAPE   C3414517   2.111   4.863   9.803 -0.1825 -0.2503  0.1079
  134SAPE   H4X14518   2.222   4.867   9.802 -0.1522 -0.4287  1.1077
  134SAPE   H4Y14519   2.072   4.940   9.873 -2.6629 -1.3381  0.0250
  134SAPE   C3514520   2.079   4.884   9.652  0.2220  0.3057  0.0569
  134SAPE   H5X14521   2.124   4.984   9.630  1.6863 -0.7278 -1.8623
  134SAPE   H5Y14522   1.970   4.905   9.646  0.5099  1.7922 -0.4723
  134SAPE   C3614523   2.119   4.766   9.548  0.0993 -0.6499 -1.2262
  134SAPE   H6X14524   2.063   4.673   9.569 -2.7128  1.2089  0.2668
  134SAPE   H6Y14525   2.227   4.744   9.565  0.3311 -0.1008 -1.8970
  134SAPE   C3714526   2.094   4.812   9.403 -0.0233  0.0499 -0.0237
  134SAPE   H7X14527   2.151   4.905   9.382  0.3268 -0.3163 -0.7120
  134SAPE   H7Y14528   1.988   4.847   9.400 -0.1283 -0.1137  1.2656
  134SAPE   C3814529   2.135   4.707   9.299  0.7051  0.8639 -0.1553
  134SAPE   H8X14530   2.074   4.620   9.332 -0.8875  2.1040  0.2634
  134SAPE   H8Y14531   2.243   4.680   9.309  1.0657  2.2215 -0.2511
  134SAPE   C3914532   2.100   4.729   9.147 -0.2328  0.1914 -1.0332
  134SAPE   H9X14533   2.158   4.815   9.109  1.5565 -1.4797 -2.3112
  134SAPE   H9Y14534   1.994   4.759   9.142  0.2661  2.5712  0.9866
  134SAPE  C31014535   2.130   4.600   9.059 -0.8883  0.3094 -0.8597
  134SAPE  H10X14536   2.237   4.569   9.066 -1.4676 -1.5477  0.4939
  134SAPE  H10Y14537   2.100   4.634   8.958  0.6526  0.6089 -1.2546
  134SAPE  C31114538   2.032   4.483   9.104  0.0585  0.1544  0.6714
  134SAPE  H11X14539   1.928   4.522   9.098  0.1024  0.1429 -0.4162
  134SAPE  H11Y14540   2.061   4.444   9.204 -1.2465 -3.2217 -0.1617
  134SAPE  C31214541   2.038   4.368   8.998 -0.2580  0.0977 -0.0815
  134SAPE  H12X14542   1.962   4.293   9.029  0.7153 -0.9530 -0.1818
  134SAPE  H12Y14543   2.135   4.314   8.995 -1.5069 -2.2042 -1.7877
  134SAPE  C31314544   2.011   4.408   8.856 -0.3798  0.0820 -0.0466
  134SAPE  H13X14545   2.101   4.458   8.816  0.8319  0.1035  2.4903
  134SAPE  H13Y14546   1.925   4.479   8.858  0.4121  1.1020 -0.9514
  134SAPE  C31414547   1.988   4.295   8.750 -0.1902  0.2623 -0.1953
  134SAPE  H14X14548   1.894   4.238   8.771 -0.6477  0.1055 -2.3988
  134SAPE  H14Y14549   2.075   4.226   8.752 -0.0928  0.4005  0.6273
  134SAPE  C31514550   1.977   4.341   8.606 -0.6985 -0.0697  0.1284
  134SAPE  H15X14551   2.082   4.352   8.573 -0.7518  2.5977  0.6002
  134SAPE  H15Y14552   1.947   4.448   8.610 -0.4967 -0.0299  0.5469
  134SAPE  C31614553   1.911   4.249   8.506  0.0092 -1.0110 -0.1690
  134SAPE  H16X14554   1.931   4.294   8.407 -0.9057  1.1209  0.5405
  134SAPE  H16Y14555   1.802   4.253   8.527  0.3833 -0.4089  1.9231
  134SAPE  C31714556   1.953   4.107   8.514  0.4542 -0.9165 -0.2449
  134SAPE  H17X14557   1.936   4.064   8.615 -0.5136  0.8405  0.3852
  134SAPE  H17Y14558   2.062   4.110   8.496 -0.0319  0.5800 -3.6489
  134SAPE  C31814559   1.881   4.016   8.414 -0.3226 -0.2720  0.0699
  134SAPE  H18X14560   1.920   4.036   8.312  0.6442 -0.1529  0.4574
  134SAPE  H18Y14561   1.772   4.032   8.430  0.1472  0.4991  3.2895
  134SAPE  H18Z14562   1.899   3.910   8.442  4.5448  0.6308  1.2345
  135SAPE     N14563   6.664   3.695  10.790  0.4284  0.2011  0.5926
  135SAPE   HN114564   6.582   3.679  10.853 -0.2550  1.8763  0.1945
  135SAPE   HN214565   6.750   3.657  10.834  0.0751  0.6100  1.6713
  135SAPE   HN314566   6.675   3.794  10.761  2.1857 -0.8229 -2.6555
  135SAPE   C1214567   6.640   3.618  10.669 -0.2741  0.4367  0.0031
  135SAPE  H12A14568   6.613   3.514  10.697  1.4162 -0.0940 -0.1991
  135SAPE  H12B14569   6.737   3.610  10.615  1.6932 -2.8615  3.4918
  135SAPE   C1114570   6.536   3.673  10.569  0.4128  0.3338 -1.2246
  135SAPE  H11A14571   6.435   3.656  10.612  0.7179 -1.8932 -1.2769
  135SAPE  H11B14572   6.530   3.613  10.476  0.9034 -2.0411  0.1884
  135SAPE     P14573   6.612   3.892  10.426 -0.2039  0.3853 -0.0157
  135SAPE   O1314574   6.491   3.960  10.371 -0.2333 -0.4351  0.3741
  135SAPE   O1414575   6.731   3.976  10.463 -0.4998  0.2294  0.6981
  135SAPE   O1214576   6.544   3.812  10.549 -0.1229 -0.0896 -0.0589
  135SAPE   O1114577   6.667   3.788  10.316 -0.0038  0.0999  0.0088
  135SAPE    C114578   6.787   3.804  10.236  0.1501 -0.9620 -0.0870
  135SAPE    HA14579   6.881   3.796  10.294  0.6055 -4.1385 -1.0597
  135SAPE    HB14580   6.802   3.726  10.158 -0.0494 -0.7212 -0.3710
  135SAPE    C214581   6.787   3.945  10.164 -0.2808 -0.1764 -0.8172
  135SAPE    HS14582   6.806   4.018  10.246  0.9434 -1.2946 -0.0725
  135SAPE   O2114583   6.656   3.979  10.105 -0.6903 -0.4320 -0.1725
  135SAPE   C2114584   6.631   4.105  10.101  0.0548  0.5039 -0.9262
  135SAPE   O2214585   6.704   4.191  10.147 -0.4340  0.4546 -0.2634
  135SAPE   C2214586   6.491   4.116  10.043  0.3840  0.5136  1.0436
  135SAPE   H2R14587   6.474   4.034   9.969 -2.7094  0.7461  1.3707
  135SAPE   H2S14588   6.414   4.105  10.122  0.7952  0.4360  1.4334
  135SAPE    C314589   6.898   3.946  10.057  0.9219 -0.0393 -1.1244
  135SAPE    HX14590   6.998   3.935  10.103  0.2640 -3.0640 -0.1218
  135SAPE    HY14591   6.891   4.048  10.015 -1.3005  0.5951  0.5752
  135SAPE   O3114592   6.885   3.834   9.976  0.1833 -0.2927 -0.6746
  135SAPE   C3114593   6.909   3.856   9.846 -0.9570 -0.1267 -0.6834
  135SAPE   O3214594   6.957   3.956   9.802  0.3583  0.1874 -0.4293
  135SAPE   C3214595   6.859   3.732   9.767 -0.4513 -0.2538  0.6079
  135SAPE   H2X14596   6.937   3.655   9.779 -1.7058 -1.4894  1.0723
  135SAPE   H2Y14597   6.869   3.754   9.658 -0.3742 -1.5930  0.3301
  135SAPE   C2314598   6.481   4.254   9.980  0.0825 -0.1901 -0.1259
  135SAPE   H3R14599   6.495   4.335  10.055  0.6140 -0.4535  0.0643
  135SAPE   H3S14600   6.375   4.273   9.954 -0.1908 -0.2801  0.8617
  135SAPE   C2414601   6.557   4.276   9.845  0.0486 -1.0489 -0.0839
  135SAPE   H4R14602   6.664   4.261   9.871  0.2499  1.3453  0.6378
  135SAPE   H4S14603   6.550   4.386   9.836  0.7111 -1.0798 -1.2746
  135SAPE   C2514604   6.521   4.200   9.718 -0.5186 -0.4180 -0.0281
  135SAPE   H5R14605   6.568   4.102   9.700  0.5778  0.2142 -0.7161
  135SAPE   C2614606   6.420   4.234   9.634  0.4055  0.0048  0.2866
  135SAPE   H6R14607   6.403   4.182   9.539 -0.0985  1.3525 -0.3760
  135SAPE   C2714608   6.337   4.359   9.639  0.4008  0.1111 -0.4196
  135SAPE   H7R14609   6.361   4.421   9.550 -1.0193 -0.1416 -1.0030
  135SAPE   H7S14610   6.352   4.425   9.727  0.2505 -1.0813  0.5218
  135SAPE   C2814611   6.192   4.320   9.622 -0.8481 -0.5627 -1.0056
  135SAPE   H8R14612   6.142   4.280   9.712 -2.4271 -0.8107 -1.9476
  135SAPE   C2914613   6.109   4.338   9.514 -0.0321 -0.3025 -0.1388
  135SAPE   H9R14614   6.005   4.303   9.519  0.4096 -1.5804  1.0145
  135SAPE  C21014615   6.150   4.410   9.381 -0.0488  0.2668 -0.8277
  135SAPE  H10R14616   6.231   4.481   9.407 -1.8726  1.4572  2.0567
  135SAPE  H10S14617   6.068   4.465   9.332 -1.6744 -2.0156 -0.8165
  135SAPE  C21114618   6.191   4.297   9.284 -0.5626  0.1176 -0.1817
  135SAPE  H11R14619   6.224   4.200   9.322  0.2026 -0.6483 -2.6363
  135SAPE  C21214620   6.164   4.296   9.153  0.6822  0.2098 -0.2333
  135SAPE  H12R14621   6.193   4.210   9.092  2.1198 -1.4133  2.5333
  135SAPE  C21314622   6.094   4.400   9.066 -0.6540 -0.0236 -0.0751
  135SAPE  H13R14623   6.140   4.499   9.086 -0.1855 -0.6744  2.3497
  135SAPE  H13S14624   5.992   4.407   9.109 -0.3177 -0.5583  0.8414
  135SAPE  C21414625   6.078   4.376   8.915  0.0042  0.7519 -0.3187
  135SAPE  H14R14626   5.974   4.388   8.880 -0.4271 -1.2053  0.1363
  135SAPE  C21514627   6.176   4.353   8.822  0.0807 -0.5227 -0.3880
  135SAPE  H15R14628   6.147   4.325   8.719 -1.0643  0.9535 -0.4964
  135SAPE  C21614629   6.326   4.354   8.854 -0.0947 -0.4977  0.0097
  135SAPE  H16R14630   6.339   4.422   8.940  0.4122 -0.3615 -0.1707
  135SAPE  H16S14631   6.386   4.392   8.768  0.7001 -0.1638  0.6946
  135SAPE  C21714632   6.382   4.212   8.881 -0.4285  0.1248  0.1480
  135SAPE  H17R14633   6.394   4.161   8.783 -1.6006  1.6036 -0.8148
  135SAPE  H17S14634   6.299   4.162   8.935 -0.6997  1.2461  0.7767
  135SAPE  C21814635   6.512   4.217   8.964  0.1079 -0.2684  0.8511
  135SAPE  H18R14636   6.480   4.278   9.052  3.5516  0.4800  1.7341
  135SAPE  H18S14637   6.597   4.272   8.919 -0.8307  2.1686  1.8352
  135SAPE  C21914638   6.558   4.088   9.014  0.2739  0.5300  0.7413
  135SAPE  H19R14639   6.651   4.089   9.076  0.0932  0.0793  1.0269
  135SAPE  H19S14640   6.593   4.045   8.918 -0.5423  0.7785  0.3323
  135SAPE  C22014641   6.451   3.989   9.065  0.0922 -0.6073  0.0476
  135SAPE  H20R14642   6.418   4.024   9.166  3.1601  0.0486  0.9163
  135SAPE  H20S14643   6.502   3.891   9.069  1.1726 -0.0558  0.1025
  135SAPE  H20T14644   6.366   3.978   8.994  0.2452  1.2860 -0.4696
  135SAPE   C3314645   6.719   3.674   9.809  0.3009 -0.3703  0.7625
  135SAPE   H3X14646   6.643   3.754   9.810  0.3891 -0.2579 -0.1905
  135SAPE   H3Y14647   6.733   3.638   9.913 -1.2573  0.5091  1.3075
  135SAPE   C3414648   6.673   3.550   9.720  0.4608 -0.0492  0.5820
  135SAPE   H4X14649   6.763   3.485   9.726  0.3807 -0.3490 -1.0229
  135SAPE   H4Y14650   6.679   3.574   9.612 -0.8157 -0.8784  0.3070
  135SAPE   C3514651   6.545   3.467   9.757 -0.0536 -0.1965  0.0523
  135SAPE   H5X14652   6.462   3.541   9.757  0.2674  0.1795 -0.8046
  135SAPE   H5Y14653   6.548   3.433   9.863 -0.5480 -0.4999 -0.0280
  135SAPE   C3614654   6.528   3.347   9.669 -0.7250 -0.7471 -0.2989
  135SAPE   H6X14655   6.595   3.268   9.710  1.2304  0.5597 -0.8029
  135SAPE   H6Y14656   6.558   3.372   9.565 -1.1828  0.0460 -0.2526
  135SAPE   C3714657   6.393   3.278   9.684  0.0128 -0.3720 -0.1789
  135SAPE   H7X14658   6.313   3.349   9.655  0.6055  0.2473 -0.3401
  135SAPE   H7Y14659   6.370   3.257   9.790 -0.2778  3.0274  0.5592
  135SAPE   C3814660   6.387   3.153   9.603 -0.0271  0.2546 -0.1767
  135SAPE   H8X14661   6.299   3.100   9.643  1.3211 -1.0855  1.1479
  135SAPE   H8Y14662   6.471   3.090   9.640 -0.6011  0.5622  1.7446
  135SAPE   C3914663   6.370   3.171   9.452  0.3930 -0.1808  0.1061
  135SAPE   H9X14664   6.466   3.213   9.415 -1.1206  3.2751 -0.2549
  135SAPE   H9Y14665   6.295   3.248   9.425  0.7849  0.1537 -0.0361
  135SAPE  C31014666   6.319   3.040   9.382 -0.2982 -0.1492 -0.2939
  135SAPE  H10X14667   6.213   3.022   9.408 -0.1248 -1.7453 -0.5580
  135SAPE  H10Y14668   6.373   2.959   9.436 -1.0781  0.5505  1.5806
  135SAPE  C31114669   6.336   3.040   9.234 -0.2155 -0.0293 -0.1766
  135SAPE  H11X14670   6.446   3.037   9.218  0.0611 -3.0571  1.6245
  135SAPE  H11Y14671   6.297   3.135   9.191 -0.7623 -0.6289 -1.0294
  135SAPE  C31214672   6.268   2.918   9.166 -0.2493  0.8489  0.4088
  135SAPE  H12X14673   6.163   2.922   9.200  0.1127  2.9870  1.4666
  135SAPE  H12Y14674   6.307   2.821   9.203 -0.9669 -0.0074 -1.0060
  135SAPE  C31314675   6.272   2.914   9.015 -0.1611 -0.9070 -0.0861
  135SAPE  H13X14676   6.378   2.893   8.989 -0.4663  1.5267 -4.2708
  135SAPE  H13Y14677   6.251   3.011   8.965  1.1752 -0.6487 -0.1912
  135SAPE  C31414678   6.195   2.792   8.958 -0.4760 -0.2342 -0.2929
  135SAPE  H14X14679   6.091   2.808   8.993 -0.3451 -0.5632  0.2543
  135SAPE  H14Y14680   6.235   2.694   8.991  2.1958  0.9705  0.3897
  135SAPE  C31514681   6.194   2.794   8.807  0.0338  0.2764 -1.0814
  135SAPE  H15X14682   6.296   2.825   8.777  0.4574  1.3785  1.2657
  135SAPE  H15Y14683   6.126   2.877   8.779  0.0832  0.1505 -1.5656
  135SAPE  C31614684   6.142   2.667   8.742  0.7741  0.0070 -0.5792
  135SAPE  H16X14685   6.171   2.574   8.795  0.7838  0.7708  0.8199
  135SAPE  H16Y14686   6.176   2.656   8.637  0.3942  0.0712 -0.7085
  135SAPE  C31714687   5.984   2.664   8.736  0.2146 -0.5354  0.0949
  135SAPE  H17X14688   5.949   2.754   8.681  1.1095  0.0777  0.5173
  135SAPE  H17Y14689   5.938   2.670   8.837 -1.4422  3.5351 -0.7183
  135SAPE  C31814690   5.936   2.541   8.662  0.3125 -0.0194  0.0129
  135SAPE  H18X14691   5.830   2.518   8.686  0.2085  1.0137  0.6236
  135SAPE  H18Y14692   5.995   2.453   8.694  1.3239  0.5840 -0.1653
  135SAPE  H18Z14693   5.947   2.556   8.553 -2.3939 -0.9431 -0.4627
  136SAPE     N14694   2.685   4.104  10.700 -0.0498  1.1479 -0.3623
  136SAPE   HN114695   2.743   4.162  10.636  1.3106 -0.9963 -1.2050
  136SAPE   HN214696   2.582   4.100  10.687  0.0410 -1.7619 -0.9570
  136SAPE   HN314697   2.701   4.130  10.800 -1.4931  0.1408  0.1701
  136SAPE   C1214698   2.724   3.958  10.699 -0.4953 -0.0112 -0.0547
  136SAPE  H12A14699   2.692   3.913  10.602  2.3293  1.3233 -1.7196
  136SAPE  H12B14700   2.679   3.911  10.789  0.7784 -1.1584  0.0122
  136SAPE   C1114701   2.875   3.937  10.690  0.2230  0.1811  0.1818
  136SAPE  H11A14702   2.911   3.976  10.593  1.9341 -1.1658  0.2357
  136SAPE  H11B14703   2.901   3.829  10.682  0.2290  0.3270 -3.1351
  136SAPE     P14704   3.090   4.030  10.789  0.0828 -0.0391 -0.0518
  136SAPE   O1314705   3.112   4.136  10.886  0.0434 -0.4377  0.1171
  136SAPE   O1414706   3.164   3.903  10.807 -0.2535  0.2659  0.3899
  136SAPE   O1214707   2.935   4.007  10.789 -0.2164 -0.3214  0.1914
  136SAPE   O1114708   3.136   4.081  10.646  0.2408  0.0859  0.5216
  136SAPE    C114709   3.207   4.195  10.608 -0.0124  0.2684 -0.0583
  136SAPE    HA14710   3.143   4.285  10.615 -0.5770  0.1348 -2.4799
  136SAPE    HB14711   3.299   4.204  10.670 -0.7619  0.5103  1.0323
  136SAPE    C214712   3.257   4.178  10.463 -0.1395 -0.4167  0.7257
  136SAPE    HS14713   3.305   4.267  10.418 -0.1352 -0.3587  0.8449
  136SAPE   O2114714   3.147   4.137  10.379 -0.7665 -0.5901 -0.2569
  136SAPE   C2114715   3.103   4.234  10.299  0.5257  0.0830  0.1571
  136SAPE   O2214716   3.147   4.347  10.290 -0.9551  0.5644  0.5627
  136SAPE   C2214717   3.003   4.176  10.191 -0.3114 -0.2031 -0.1431
  136SAPE   H2R14718   3.078   4.146  10.115  2.5240  1.8830  1.6523
  136SAPE   H2S14719   2.963   4.083  10.238  0.1088 -0.4465 -0.2625
  136SAPE    C314720   3.360   4.070  10.464 -0.6024  0.0433  0.4036
  136SAPE    HX14721   3.316   3.978  10.509 -0.4293 -1.5229 -2.3767
  136SAPE    HY14722   3.437   4.122  10.526 -0.0344 -1.0142  0.6166
  136SAPE   O3114723   3.402   4.034  10.326  0.0136  0.5598 -0.4920
  136SAPE   C3114724   3.508   4.111  10.285  0.0811  0.4068  0.3357
  136SAPE   O3214725   3.558   4.208  10.337  0.1888  0.4420 -0.3332
  136SAPE   C3214726   3.562   4.050  10.152  0.5158  0.1944  0.4452
  136SAPE   H2X14727   3.528   3.944  10.155 -0.8670  0.5871 -0.4237
  136SAPE   H2Y14728   3.671   4.066  10.164  0.0721  3.2714  1.1694
  136SAPE   C2314729   2.904   4.290  10.145  0.6531  0.1262  0.7580
  136SAPE   H3R14730   2.964   4.358  10.082 -0.4580  1.4343  1.0570
  136SAPE   H3S14731   2.874   4.347  10.236  1.5482 -0.1635  1.2452
  136SAPE   C2414732   2.775   4.236  10.073  0.3981  0.1119 -0.8140
  136SAPE   H4R14733   2.719   4.163  10.136 -0.9938  0.1940 -1.9083
  136SAPE   H4S14734   2.810   4.190   9.979  2.3934  0.3509 -0.2392
  136SAPE   C2514735   2.677   4.350  10.040  0.2039  0.6436  0.3961
  136SAPE   H5R14736   2.620   4.399  10.121  0.3602 -0.8901  1.5025
  136SAPE   C2614737   2.664   4.410   9.921 -0.7423 -0.6525  0.1477
  136SAPE   H6R14738   2.586   4.480   9.891  0.8912  0.5749 -1.4130
  136SAPE   C2714739   2.752   4.383   9.800 -0.3137 -0.1978  0.2299
  136SAPE   H7R14740   2.857   4.355   9.821  0.1464  0.5564 -0.9845
  136SAPE   H7S14741   2.763   4.467   9.729 -0.1934 -1.7160 -1.6231
  136SAPE   C2814742   2.689   4.271   9.724 -0.2275  0.2919 -0.5154
  136SAPE   H8R14743   2.639   4.195   9.786  0.8576  0.3984  0.5317
  136SAPE   C2914744   2.712   4.241   9.594 -0.2770 -0.0625 -0.2035
  136SAPE   H9R14745   2.657   4.158   9.547 -1.5951  1.3444 -1.2074
  136SAPE  C21014746   2.795   4.326   9.504 -0.1699  0.0673  0.5789
  136SAPE  H10R14747   2.889   4.269   9.488 -0.9174 -1.0130 -0.0687
  136SAPE  H10S14748   2.832   4.423   9.542  3.7642 -0.6702 -0.9546
  136SAPE  C21114749   2.731   4.354   9.371 -0.0456  0.4164 -0.3696
  136SAPE  H11R14750   2.641   4.415   9.390  0.1074  0.5399 -0.0264
  136SAPE  C21214751   2.762   4.300   9.243 -0.1923 -0.3948 -0.6933
  136SAPE  H12R14752   2.702   4.340   9.160 -0.1238  0.7198 -0.2246
  136SAPE  C21314753   2.868   4.211   9.208 -0.6435 -0.0854 -0.3170
  136SAPE  H13R14754   2.939   4.197   9.293 -1.5231  1.4436  0.7132
  136SAPE  H13S14755   2.920   4.250   9.118 -3.3146  0.7809 -1.5952
  136SAPE  C21414756   2.803   4.075   9.183 -0.3603 -0.4709 -0.2549
  136SAPE  H14R14757   2.751   4.041   9.274  1.6363  2.0606  2.0222
  136SAPE  C21514758   2.796   4.004   9.065 -0.3356  0.0571 -0.0602
  136SAPE  H15R14759   2.743   3.908   9.067  1.3233 -0.8988 -0.6949
  136SAPE  C21614760   2.847   4.048   8.928  0.2030  0.0066 -0.1847
  136SAPE  H16R14761   2.873   4.156   8.932 -1.4756  0.6126 -2.9605
  136SAPE  H16S14762   2.764   4.048   8.855  0.2677 -0.7491 -0.2569
  136SAPE  C21714763   2.956   3.943   8.882  0.5555 -0.1780 -0.0252
  136SAPE  H17R14764   3.040   3.941   8.955  1.9555 -1.9695 -1.5850
  136SAPE  H17S14765   2.984   3.976   8.780  0.4123  0.2013  0.0550
  136SAPE  C21814766   2.903   3.805   8.869 -0.1261 -0.1101 -0.1773
  136SAPE  H18R14767   2.799   3.813   8.831 -1.0267 -1.6745  1.7705
  136SAPE  H18S14768   2.893   3.760   8.971 -1.0132 -0.4471 -0.4065
  136SAPE  C21914769   2.997   3.726   8.783 -0.1546  0.5804 -0.0406
  136SAPE  H19R14770   3.089   3.716   8.845  0.3150 -0.9995 -0.9269
  136SAPE  H19S14771   3.020   3.779   8.688 -1.3186 -0.0518 -0.6986
  136SAPE  C22014772   2.945   3.583   8.742 -0.7800 -0.1773  0.1141
  136SAPE  H20R14773   3.009   3.529   8.669 -1.7054 -1.5322  0.2733
  136SAPE  H20S14774   2.841   3.594   8.706 -0.4460  0.4825 -0.6727
  136SAPE  H20T14775   2.951   3.512   8.828  2.4625  0.2269  0.3559
  136SAPE   C3314776   3.513   4.115  10.016 -0.7306  0.0412 -0.6180
  136SAPE   H3X14777   3.598   4.115   9.945 -0.0753  0.2504  0.1534
  136SAPE   H3Y14778   3.485   4.220  10.038  0.3895 -0.0858  1.7602
  136SAPE   C3414779   3.409   4.027   9.955 -0.1365 -0.4928 -0.3476
  136SAPE   H4X14780   3.322   4.009  10.022 -0.4166 -1.8919 -1.0431
  136SAPE   H4Y14781   3.446   3.924   9.937  0.2716 -0.8958  2.3622
  136SAPE   C3514782   3.353   4.080   9.829 -0.6443  0.7075  0.7632
  136SAPE   H5X14783   3.314   3.992   9.774  1.2884  0.2480  0.0407
  136SAPE   H5Y14784   3.429   4.119   9.758 -0.7349  1.0363  0.8419
  136SAPE   C3614785   3.248   4.188   9.848 -0.1462  0.3084  0.9917
  136SAPE   H6X14786   3.302   4.279   9.881 -0.1477  0.6970 -0.0269
  136SAPE   H6Y14787   3.168   4.161   9.921 -0.2204 -0.1577  0.7484
  136SAPE   C3714788   3.177   4.221   9.716 -0.1806 -1.3434  0.0565
  136SAPE   H7X14789   3.114   4.311   9.734  2.4354  0.3644  1.0839
  136SAPE   H7Y14790   3.114   4.136   9.682 -2.3091  0.2934 -0.3489
  136SAPE   C3814791   3.265   4.269   9.596 -0.0515  0.1763 -0.6111
  136SAPE   H8X14792   3.347   4.195   9.583 -0.3427 -0.6810  1.8793
  136SAPE   H8Y14793   3.315   4.363   9.629 -0.9948  0.9130 -1.2172
  136SAPE   C3914794   3.192   4.283   9.471  0.1023  0.2046  0.3497
  136SAPE   H9X14795   3.094   4.326   9.501  0.5236 -0.0723  2.2829
  136SAPE   H9Y14796   3.170   4.183   9.429  1.2673 -0.3220  0.9524
  136SAPE  C31014797   3.248   4.381   9.372 -0.8180  0.3134 -0.2985
  136SAPE  H10X14798   3.350   4.348   9.340 -0.8324 -1.2341  1.0897
  136SAPE  H10Y14799   3.268   4.475   9.427  0.5991 -0.6162  0.8841
  136SAPE  C31114800   3.168   4.400   9.244 -0.3571  0.8769 -0.4888
  136SAPE  H11X14801   3.066   4.439   9.264  0.3619  2.4146  0.3246
  136SAPE  H11Y14802   3.144   4.303   9.195 -1.1479  0.9836 -0.3237
  136SAPE  C31214803   3.229   4.499   9.146 -0.4039 -0.8716  0.1664
  136SAPE  H12X14804   3.302   4.556   9.207 -0.7615 -0.4426  0.2010
  136SAPE  H12Y14805   3.151   4.571   9.113  1.1884  0.4605 -0.8588
  136SAPE  C31314806   3.289   4.434   9.025  1.0820  0.3225  0.3271
  136SAPE  H13X14807   3.207   4.418   8.953 -1.3585  0.4646  2.9088
  136SAPE  H13Y14808   3.329   4.333   9.047 -0.3003 -1.2537 -3.6193
  136SAPE  C31414809   3.396   4.521   8.948 -0.1600 -0.1069 -0.2056
  136SAPE  H14X14810   3.432   4.466   8.859 -0.8944  0.9235 -1.1881
  136SAPE  H14Y14811   3.479   4.540   9.019 -1.0033 -0.2742  0.8508
  136SAPE  C31514812   3.340   4.657   8.904 -0.3340  0.1901 -0.1554
  136SAPE  H15X14813   3.315   4.717   8.994  0.8601 -2.9064  2.4590
  136SAPE  H15Y14814   3.243   4.636   8.855 -1.0181  0.0106  1.2324
  136SAPE  C31614815   3.424   4.736   8.808  0.4624 -0.3864 -0.0384
  136SAPE  H16X14816   3.528   4.713   8.839  0.3276 -2.8545 -1.2200
  136SAPE  H16Y14817   3.389   4.841   8.806 -2.4437 -1.2425  1.4386
  136SAPE  C31714818   3.411   4.688   8.664 -0.1339 -0.0690  0.5799
  136SAPE  H17X14819   3.307   4.693   8.627  0.3360 -0.6134 -0.8679
  136SAPE  H17Y14820   3.430   4.580   8.648 -1.6049 -0.1365 -1.0479
  136SAPE  C31814821   3.502   4.762   8.563  0.2165  0.3084 -0.5781
  136SAPE  H18X14822   3.457   4.863   8.551  0.1375  0.5589  1.5552
  136SAPE  H18Y14823   3.519   4.699   8.473  1.9987 -0.1740  0.0574
  136SAPE  H18Z14824   3.605   4.783   8.599 -0.2654 -0.3601  1.2867
  137SAPE     N14825   2.142   0.882  11.004  0.1816  0.4389  0.4418
  137SAPE   HN114826   2.068   0.869  11.076 -1.2532  1.6780 -0.7574
  137SAPE   HN214827   2.191   0.790  11.000 -2.0455 -0.8182  0.5310
  137SAPE   HN314828   2.214   0.952  11.029 -0.0823  0.0328  2.5128
  137SAPE   C1214829   2.086   0.906  10.864  0.0911 -0.0120  0.8371
  137SAPE  H12A14830   2.163   0.940  10.792 -0.2388 -0.7739  0.1091
  137SAPE  H12B14831   2.031   1.000  10.884  0.0554 -0.2125  1.7482
  137SAPE   C1114832   1.997   0.794  10.814  0.0452  0.4530  1.2309
  137SAPE  H11A14833   2.064   0.712  10.778 -0.8883 -0.3123  1.1731
  137SAPE  H11B14834   1.937   0.829  10.727  0.0885  1.5159  1.6172
  137SAPE     P14835   1.900   0.593  10.957 -0.1665 -0.4162  0.3052
  137SAPE   O1314836   2.033   0.555  11.006 -0.2216 -0.7202 -0.4381
  137SAPE   O1414837   1.787   0.578  11.051 -0.2296 -0.0575 -0.7428
  137SAPE   O1214838   1.904   0.749  10.910  0.0065  0.3749  0.9054
  137SAPE   O1114839   1.850   0.514  10.823 -0.0340 -0.3668  0.3276
  137SAPE    C114840   1.740   0.556  10.745  0.2299  0.7020 -0.0629
  137SAPE    HA14841   1.645   0.501  10.765 -0.0316  0.6461 -1.3880
  137SAPE    HB14842   1.721   0.665  10.746 -2.5774  0.3142 -1.3469
  137SAPE    C214843   1.766   0.531  10.590  0.4652 -1.1022 -0.6640
  137SAPE    HS14844   1.854   0.583  10.547  0.8597 -0.1658  1.1788
  137SAPE   O2114845   1.642   0.561  10.512 -0.2995  0.5717 -0.8216
  137SAPE   C2114846   1.633   0.686  10.485 -0.2386  0.0213 -0.4878
  137SAPE   O2214847   1.707   0.775  10.534 -0.5323 -0.0403 -0.3120
  137SAPE   C2214848   1.518   0.716  10.396  0.6100 -0.8401  0.2790
  137SAPE   H2R14849   1.442   0.639  10.421 -0.7682  0.3485 -0.1492
  137SAPE   H2S14850   1.474   0.810  10.434  0.7415 -0.8681  0.5019
  137SAPE    C314851   1.818   0.386  10.564 -0.2781  0.4227  0.2240
  137SAPE    HX14852   1.747   0.319  10.617  0.6588 -0.6086  0.2127
  137SAPE    HY14853   1.918   0.383  10.612  0.0220  0.3775 -0.3881
  137SAPE   O3114854   1.834   0.359  10.420  0.1663  0.3504  0.3231
  137SAPE   C3114855   1.719   0.309  10.368 -0.1181  0.6706 -0.2907
  137SAPE   O3214856   1.610   0.299  10.422  0.1202  0.1196 -0.4240
  137SAPE   C3214857   1.738   0.260  10.229 -0.9966 -0.1683 -0.7615
  137SAPE   H2X14858   1.720   0.348  10.163 -1.5652  0.3385  0.0579
  137SAPE   H2Y14859   1.653   0.190  10.217  0.0494 -1.7517  0.6343
  137SAPE   C2314860   1.549   0.730  10.242  0.1570  0.1973 -0.2827
  137SAPE   H3R14861   1.451   0.711  10.193 -0.4304 -2.6979  1.7149
  137SAPE   H3S14862   1.614   0.646  10.209 -0.8344 -0.3014 -1.0064
  137SAPE   C2414863   1.596   0.870  10.204 -0.5998  0.0652 -0.6488
  137SAPE   H4R14864   1.547   0.945  10.270  1.7758  1.4079 -0.3226
  137SAPE   H4S14865   1.565   0.889  10.099 -0.8152  0.5180 -0.5048
  137SAPE   C2514866   1.743   0.900  10.213  0.1178  0.0677  0.5157
  137SAPE   H5R14867   1.784   0.898  10.315  1.3007 -4.2737  0.1613
  137SAPE   C2614868   1.826   0.926  10.110  0.2502 -0.0368  0.4778
  137SAPE   H6R14869   1.933   0.947  10.129  0.7618 -0.3490 -1.7550
  137SAPE   C2714870   1.795   0.926   9.963 -0.5323 -0.3718  0.1915
  137SAPE   H7R14871   1.852   1.010   9.917 -1.2993  1.3322  2.1408
  137SAPE   H7S14872   1.697   0.978   9.952  0.4994  1.7985  0.6909
  137SAPE   C2814873   1.806   0.796   9.897 -0.7109 -0.5031  0.8751
  137SAPE   H8R14874   1.848   0.709   9.950 -0.6595 -0.5690  0.7256
  137SAPE   C2914875   1.769   0.775   9.768 -0.6860  0.0030 -0.1553
  137SAPE   H9R14876   1.787   0.674   9.728  1.3873  0.8256 -1.5024
  137SAPE  C21014877   1.712   0.884   9.675  0.2560 -0.1292 -0.9811
  137SAPE  H10R14878   1.658   0.953   9.744 -1.5382 -2.0232 -0.3484
  137SAPE  H10S14879   1.623   0.845   9.620 -0.7144  1.0183 -0.2854
  137SAPE  C21114880   1.821   0.954   9.595 -0.2762  0.5616 -0.2800
  137SAPE  H11R14881   1.905   0.991   9.655 -0.4192 -0.8508  0.8581
  137SAPE  C21214882   1.824   0.979   9.463 -0.2603  0.0638 -0.1855
  137SAPE  H12R14883   1.913   1.031   9.425 -0.9795  1.1292 -0.4416
  137SAPE  C21314884   1.723   0.936   9.365 -0.1426  0.0493  0.1078
  137SAPE  H13R14885   1.624   0.942   9.416  0.2494 -0.9918  1.0506
  137SAPE  H13S14886   1.739   0.826   9.357 -1.4712 -0.1985  0.4784
  137SAPE  C21414887   1.719   1.017   9.234  0.5283 -0.1985 -0.4471
  137SAPE  H14R14888   1.686   1.118   9.263  0.2190 -0.8751  1.7595
  137SAPE  C21514889   1.742   0.983   9.108  0.4639  0.2419 -0.1201
  137SAPE  H15R14890   1.710   1.045   9.023 -0.1828 -3.3035 -2.6442
  137SAPE  C21614891   1.776   0.842   9.064  0.3159  0.1092 -0.3117
  137SAPE  H16R14892   1.810   0.780   9.150 -0.7360  2.0637  1.6380
  137SAPE  H16S14893   1.863   0.855   8.996  0.7174 -0.5861  0.0557
  137SAPE  C21714894   1.644   0.783   9.007  0.7270 -0.4970  0.4658
  137SAPE  H17R14895   1.595   0.849   8.932  0.2422  0.9570  1.9995
  137SAPE  H17S14896   1.569   0.759   9.086 -0.5128 -0.3770 -0.6375
  137SAPE  C21814897   1.670   0.633   8.957  0.1795 -0.7195  0.0542
  137SAPE  H18R14898   1.672   0.562   9.042 -0.8870 -0.8521 -0.0163
  137SAPE  H18S14899   1.764   0.624   8.900 -0.4319  0.4798 -1.2238
  137SAPE  C21914900   1.567   0.586   8.860 -0.0028  0.0088  0.1514
  137SAPE  H19R14901   1.575   0.475   8.858  0.5762 -0.0653  2.8457
  137SAPE  H19S14902   1.589   0.616   8.756 -0.2479 -2.3273 -0.6237
  137SAPE  C22014903   1.418   0.628   8.881 -0.3324 -0.1255 -0.3002
  137SAPE  H20R14904   1.375   0.591   8.976  0.8567  0.6299  0.5637
  137SAPE  H20S14905   1.350   0.579   8.807 -0.1208  0.8277 -1.1433
  137SAPE  H20T14906   1.414   0.737   8.863 -1.4100 -0.0994  0.0556
  137SAPE   C3314907   1.871   0.184  10.198  0.1329 -0.3728  0.2041
  137SAPE   H3X14908   1.883   0.108  10.278  0.9086  0.7236  1.1575
  137SAPE   H3Y14909   1.954   0.256  10.209 -1.2858  1.1864  1.2457
  137SAPE   C3414910   1.862   0.129  10.053  0.9303 -0.9371  0.1691
  137SAPE   H4X14911   1.763   0.080  10.037 -0.3994  1.3709  0.7881
  137SAPE   H4Y14912   1.933   0.047  10.030  0.6919 -0.9576 -0.5045
  137SAPE   C3514913   1.890   0.235   9.945  0.8189  0.0048  0.1801
  137SAPE   H5X14914   2.000   0.233   9.928  1.0329  1.6751  1.1903
  137SAPE   H5Y14915   1.846   0.334   9.969 -0.2951 -0.3429 -0.3377
  137SAPE   C3614916   1.826   0.195   9.813  0.1879  0.2316 -0.0113
  137SAPE   H6X14917   1.721   0.232   9.813 -0.7295 -2.0180  2.5290
  137SAPE   H6Y14918   1.816   0.084   9.807 -1.6121  0.3875 -0.4541
  137SAPE   C3714919   1.899   0.260   9.692  0.1992 -0.3543  0.4207
  137SAPE   H7X14920   2.007   0.234   9.690  0.5063  0.8545 -2.0809
  137SAPE   H7Y14921   1.883   0.369   9.706 -0.8797 -0.0864 -2.3292
  137SAPE   C3814922   1.837   0.224   9.557  0.1064 -0.2106 -0.0439
  137SAPE   H8X14923   1.729   0.240   9.578  0.3097 -0.0356  0.9556
  137SAPE   H8Y14924   1.853   0.116   9.538 -1.2566 -0.4043 -0.2318
  137SAPE   C3914925   1.878   0.316   9.443 -0.9790 -0.3447 -0.2956
  137SAPE   H9X14926   1.986   0.294   9.426 -1.1773 -1.0684 -0.6719
  137SAPE   H9Y14927   1.855   0.420   9.475  0.7055  1.0896 -3.2061
  137SAPE  C31014928   1.806   0.288   9.307 -0.6561  0.4287 -0.4735
  137SAPE  H10X14929   1.810   0.388   9.259  0.1822  0.6548  0.0386
  137SAPE  H10Y14930   1.698   0.269   9.327 -0.5859  2.1994  2.0258
  137SAPE  C31114931   1.868   0.180   9.220  0.3431 -0.1661  0.1898
  137SAPE  H11X14932   1.903   0.103   9.292  1.5019  2.1379  2.2155
  137SAPE  H11Y14933   1.958   0.213   9.165 -1.1897  1.2729 -1.6052
  137SAPE  C31214934   1.769   0.126   9.118  0.3924  0.2382 -0.3423
  137SAPE  H12X14935   1.676   0.099   9.172 -0.2802  1.5400 -0.7963
  137SAPE  H12Y14936   1.807   0.035   9.068  1.3771  0.1321  0.5618
  137SAPE  C31314937   1.730   0.233   9.012 -0.9065 -0.1824  0.2022
  137SAPE  H13X14938   1.820   0.256   8.952 -0.6426 -2.1986 -0.2520
  137SAPE  H13Y14939   1.676   0.324   9.046 -0.1181  0.8318 -1.1744
  137SAPE  C31414940   1.641   0.164   8.907 -0.2002 -0.1492 -0.4442
  137SAPE  H14X14941   1.688   0.070   8.871  0.0355 -0.1269 -0.1982
  137SAPE  H14Y14942   1.624   0.239   8.826 -1.3715 -3.2324 -3.2617
  137SAPE  C31514943   1.502   0.128   8.973  0.1355 -0.3062 -0.0028
  137SAPE  H15X14944   1.453   0.223   9.003 -3.0603 -0.9485 -2.6370
  137SAPE  H15Y14945   1.508   0.062   9.062 -0.5424 -2.0891 -1.2128
  137SAPE  C31614946   1.419   0.062   8.864  0.3180  0.3467  0.0186
  137SAPE  H16X14947   1.479  -0.018   8.817  0.7094  2.0179 -2.5186
  137SAPE  H16Y14948   1.417   0.142   8.786  0.0809  0.6616  0.3431
  137SAPE  C31714949   1.278   0.009   8.903 -0.1536  0.3921 -0.2172
  137SAPE  H17X14950   1.242  -0.068   8.832  1.1600 -0.6984  0.2601
  137SAPE  H17Y14951   1.204   0.091   8.896 -0.4563  0.0016 -2.4192
  137SAPE  C31814952   1.276  -0.059   9.043 -1.4103 -0.3619 -0.4541
  137SAPE  H18X14953   1.174  -0.098   9.064 -0.7901 -1.0504  1.5744
  137SAPE  H18Y14954   1.301   0.018   9.120  2.6413  1.1068 -2.9575
  137SAPE  H18Z14955   1.343  -0.147   9.046 -0.3408  0.4491  0.5091
  138SAPE     N14956   3.813   5.286  10.928  0.3728  0.2952  0.0242
  138SAPE   HN114957   3.805   5.350  11.010 -1.4682 -1.3898  1.2672
  138SAPE   HN214958   3.746   5.328  10.860  1.3259 -0.9148 -1.7061
  138SAPE   HN314959   3.774   5.202  10.976 -1.9521  1.9162  1.1836
  138SAPE   C1214960   3.953   5.296  10.874  0.7128 -0.2424  0.4293
  138SAPE  H12A14961   3.952   5.233  10.783  0.0183 -0.0730  0.3139
  138SAPE  H12B14962   4.025   5.252  10.946  0.1136 -1.1385  0.5036
  138SAPE   C1114963   3.989   5.441  10.842  0.2760 -0.0103 -0.2414
  138SAPE  H11A14964   4.088   5.433  10.792 -0.0853 -0.4039 -0.9192
  138SAPE  H11B14965   4.014   5.503  10.931  3.2070  1.8746 -2.1757
  138SAPE     P14966   3.909   5.607  10.647  0.0878  0.0172 -0.0808
  138SAPE   O1314967   3.794   5.697  10.657  0.3230  0.1856 -0.5341
  138SAPE   O1414968   4.041   5.668  10.677  0.7618 -0.6532 -0.3241
  138SAPE   O1214969   3.888   5.491  10.748 -0.1751 -0.8581  0.0788
  138SAPE   O1114970   3.900   5.533  10.512  0.1010  0.4307  0.2053
  138SAPE    C114971   3.831   5.413  10.502 -0.3499 -0.4835 -0.1299
  138SAPE    HA14972   3.894   5.323  10.519  2.2663  1.2482 -0.0372
  138SAPE    HB14973   3.740   5.406  10.566 -0.7141 -1.7516 -0.7664
  138SAPE    C214974   3.788   5.393  10.354  0.4572 -0.0948  0.5666
  138SAPE    HS14975   3.746   5.291  10.342 -2.0598  0.7902  1.2002
  138SAPE   O2114976   3.883   5.435  10.250  0.1359  0.2860 -0.6663
  138SAPE   C2114977   3.996   5.385  10.259 -0.0396  0.2282 -0.3106
  138SAPE   O2214978   4.032   5.305  10.347 -0.5557  0.6353  0.8464
  138SAPE   C2214979   4.082   5.431  10.136 -0.6304  0.3620 -0.5273
  138SAPE   H2R14980   4.033   5.510  10.075 -0.6656  0.5366 -0.2738
  138SAPE   H2S14981   4.166   5.485  10.185 -0.5765  0.6084 -0.8863
  138SAPE    C314982   3.648   5.476  10.330 -0.3265 -0.1218 -0.5305
  138SAPE    HX14983   3.673   5.576  10.374  0.7154 -0.4415 -0.3744
  138SAPE    HY14984   3.563   5.437  10.389 -1.1070 -0.9884 -2.1768
  138SAPE   O3114985   3.613   5.495  10.192  0.3611 -1.2527 -0.2753
  138SAPE   C3114986   3.490   5.539  10.171  0.4270 -0.1540  0.2226
  138SAPE   O3214987   3.406   5.550  10.261 -0.4281  0.5631  1.1137
  138SAPE   C3214988   3.456   5.558  10.025 -0.9824  0.3110 -0.2813
  138SAPE   H2X14989   3.441   5.668  10.025 -1.0704  0.3053  0.5078
  138SAPE   H2Y14990   3.357   5.514  10.002 -0.0476 -1.8434 -0.3785
  138SAPE   C2314991   4.140   5.314  10.053 -0.3800 -0.0478  0.0666
  138SAPE   H3R14992   4.110   5.214  10.094  1.5720 -0.7404 -0.0816
  138SAPE   H3S14993   4.249   5.315  10.073  0.2144  0.2967 -2.8246
  138SAPE   C2414994   4.090   5.322   9.908  0.4341 -0.4125  0.0693
  138SAPE   H4R14995   4.143   5.251   9.840  2.8339  1.4334 -0.1009
  138SAPE   H4S14996   4.117   5.416   9.856 -0.9591 -1.1050 -2.0367
  138SAPE   C2514997   3.938   5.293   9.893  0.5672  0.5200  0.0455
  138SAPE   H5R14998   3.882   5.309   9.986 -1.6470  0.5244 -1.2237
  138SAPE   C2614999   3.870   5.246   9.786 -0.4707 -1.1267  0.1097
  138SAPE   H6R15000   3.760   5.242   9.792 -0.6206  1.9507  0.8965
  138SAPE   C2715001   3.932   5.235   9.656  0.2921  0.2625 -0.0232
  138SAPE   H7R15002   4.017   5.163   9.661 -1.7570 -2.5013 -1.6148
  138SAPE   H7S15003   3.976   5.332   9.625  0.4636 -0.7558 -3.4863
  138SAPE   C2815004   3.834   5.199   9.547  0.3945 -0.1192  0.5694
  138SAPE   H8R15005   3.729   5.179   9.573  0.5506  0.1838  1.4799
  138SAPE   C2915006   3.888   5.181   9.425 -0.4716 -0.0941 -0.3921
  138SAPE   H9R15007   3.818   5.146   9.348  0.1508 -2.2666 -0.0385
  138SAPE  C21015008   4.031   5.195   9.374 -0.1633  0.0818 -0.2452
  138SAPE  H10R15009   4.080   5.113   9.431 -0.2278  1.1489  1.4062
  138SAPE  H10S15010   4.069   5.295   9.404 -1.5272  0.4878  0.1807
  138SAPE  C21115011   4.049   5.183   9.228  0.3315  0.3050  0.3715
  138SAPE  H11R15012   4.088   5.268   9.169 -0.7060  0.0884 -0.6606
  138SAPE  C21215013   4.019   5.079   9.155  0.1306 -0.3000  0.0104
  138SAPE  H12R15014   4.022   5.094   9.046 -0.2019  0.0007  0.0429
  138SAPE  C21315015   3.985   4.940   9.216  0.1438  0.5793 -0.2434
  138SAPE  H13R15016   3.875   4.945   9.234 -0.3517 -0.1487 -2.7074
  138SAPE  H13S15017   4.030   4.942   9.318 -0.1894  1.2709 -0.1027
  138SAPE  C21415018   4.025   4.806   9.156  0.0170  0.1761 -0.1895
  138SAPE  H14R15019   4.125   4.777   9.192  0.5380  2.1206  0.0608
  138SAPE  C21515020   3.954   4.740   9.066  0.3199 -0.4947  0.6761
  138SAPE  H15R15021   3.996   4.650   9.019 -0.3003 -0.3305 -0.2048
  138SAPE  C21615022   3.819   4.788   9.005  0.2244  0.6351 -0.4237
  138SAPE  H16R15023   3.810   4.898   9.011 -0.2122  0.8563 -3.5359
  138SAPE  H16S15024   3.738   4.728   9.051  0.6132 -0.1264 -0.7115
  138SAPE  C21715025   3.822   4.759   8.856 -0.1985  0.0343  0.1741
  138SAPE  H17R15026   3.732   4.788   8.799  0.8287 -2.0944 -2.7522
  138SAPE  H17S15027   3.827   4.649   8.844  0.7858 -0.0003  0.6944
  138SAPE  C21815028   3.935   4.824   8.778  0.6794 -1.0757  0.2295
  138SAPE  H18R15029   4.024   4.760   8.792  1.1580 -0.9761 -1.9203
  138SAPE  H18S15030   3.953   4.926   8.817  0.6138  0.1709 -2.7046
  138SAPE  C21915031   3.890   4.833   8.634 -0.3261 -0.1275  0.5057
  138SAPE  H19R15032   3.964   4.896   8.582  0.8072 -1.6866  0.1431
  138SAPE  H19S15033   3.791   4.882   8.627 -1.3915 -2.1557  0.4321
  138SAPE  C22015034   3.892   4.696   8.568 -0.4348 -0.4453  0.0624
  138SAPE  H20R15035   3.822   4.629   8.623  1.5441 -1.7174  1.1913
  138SAPE  H20S15036   3.992   4.650   8.584 -0.0773 -0.2852 -1.6019
  138SAPE  H20T15037   3.883   4.710   8.458 -0.5886 -2.3629 -0.2067
  138SAPE   C3315038   3.570   5.514   9.923 -0.6300 -0.0715 -0.3801
  138SAPE   H3X15039   3.610   5.411   9.938  1.2283  0.7258  0.3508
  138SAPE   H3Y15040   3.655   5.577   9.954  0.3444 -1.0919 -0.8892
  138SAPE   C3415041   3.536   5.542   9.779  0.1377 -0.5752  0.3177
  138SAPE   H4X15042   3.491   5.643   9.767 -2.3958 -1.6253  0.4846
  138SAPE   H4Y15043   3.465   5.463   9.747 -2.0353  1.8743 -1.3504
  138SAPE   C3515044   3.662   5.537   9.684  0.0735 -0.2677 -0.4360
  138SAPE   H5X15045   3.701   5.433   9.682  1.0097  0.0621 -0.1049
  138SAPE   H5Y15046   3.748   5.591   9.728 -0.7658 -1.4335  2.9073
  138SAPE   C3615047   3.626   5.578   9.535 -0.3642 -0.0882 -0.6714
  138SAPE   H6X15048   3.585   5.682   9.533  1.0006  0.4762 -0.6122
  138SAPE   H6Y15049   3.564   5.495   9.497  0.2099  0.3022 -2.5840
  138SAPE   C3715050   3.754   5.585   9.448 -0.2138 -0.9429  0.3474
  138SAPE   H7X15051   3.790   5.479   9.456 -2.2691 -1.6946  0.1192
  138SAPE   H7Y15052   3.820   5.660   9.497 -0.8557 -0.1207 -0.0253
  138SAPE   C3815053   3.720   5.635   9.305  0.6232 -0.7673 -0.2559
  138SAPE   H8X15054   3.653   5.723   9.311  0.5532 -0.7820 -0.8176
  138SAPE   H8Y15055   3.654   5.556   9.263  1.1132 -1.1693 -0.2863
  138SAPE   C3915056   3.836   5.661   9.215 -0.8468  0.1350 -0.6080
  138SAPE   H9X15057   3.902   5.574   9.197 -0.1473  0.6453 -0.5424
  138SAPE   H9Y15058   3.902   5.738   9.262  1.1897 -0.5457 -2.2027
  138SAPE  C31015059   3.794   5.713   9.083  0.0999 -0.7484 -0.3274
  138SAPE  H10X15060   3.773   5.822   9.085  0.6567 -0.6388 -0.3530
  138SAPE  H10Y15061   3.698   5.665   9.053 -0.0341  0.0424 -1.2224
  138SAPE  C31115062   3.897   5.682   8.976 -0.8000  0.6511  0.3017
  138SAPE  H11X15063   3.902   5.574   8.953  1.3229  0.9170 -0.6575
  138SAPE  H11Y15064   3.995   5.707   9.022 -1.4586  0.3025  1.9790
  138SAPE  C31215065   3.877   5.747   8.842  0.0217  0.2027 -0.0961
  138SAPE  H12X15066   3.868   5.856   8.864 -0.5033  0.1566 -0.0657
  138SAPE  H12Y15067   3.779   5.725   8.795  0.6088  0.5717 -1.5528
  138SAPE  C31315068   3.998   5.726   8.749  0.5820  0.6929  0.2795
  138SAPE  H13X15069   4.027   5.621   8.725 -0.0337  0.8354 -1.2400
  138SAPE  H13Y15070   4.087   5.765   8.803  0.6120  0.3930  0.4533
  138SAPE  C31415071   3.993   5.793   8.613 -0.6221 -0.0899  0.2305
  138SAPE  H14X15072   3.904   5.752   8.560 -0.3831 -0.9282  0.4541
  138SAPE  H14Y15073   4.081   5.758   8.555 -1.5618 -0.1845 -1.1756
  138SAPE  C31515074   3.982   5.950   8.605 -0.2666  0.2355 -0.2120
  138SAPE  H15X15075   4.059   6.002   8.665 -0.4777 -0.4120  0.6345
  138SAPE  H15Y15076   3.887   5.974   8.657  0.6398  0.9274  1.1858
  138SAPE  C31615077   3.992   6.004   8.464  0.2527 -0.1198  0.1912
  138SAPE  H16X15078   4.097   6.017   8.429  0.3118 -1.7012 -0.3192
  138SAPE  H16Y15079   3.946   6.105   8.472  2.6432  0.9223  2.2843
  138SAPE  C31715080   3.908   5.926   8.360 -0.2884 -0.0115  0.3559
  138SAPE  H17X15081   3.814   5.893   8.410  0.4086 -2.9464 -0.0606
  138SAPE  H17Y15082   3.949   5.825   8.341 -2.2349 -1.2617  2.2683
  138SAPE  C31815083   3.883   6.015   8.237  0.3748 -0.5889  0.6707
  138SAPE  H18X15084   3.963   6.005   8.161  2.2155 -1.4628  2.5905
  138SAPE  H18Y15085   3.875   6.123   8.263  1.0289  0.3093 -2.4430
  138SAPE  H18Z15086   3.786   5.990   8.189  1.4071 -0.2466 -1.6889
  139SAPE     N15087   4.080   5.939  10.701 -0.3570 -0.2438 -0.6363
  139SAPE   HN115088   4.163   5.973  10.754 -0.7292  1.4966 -1.1355
  139SAPE   HN215089   3.994   5.973  10.748 -0.8693 -1.2260 -0.8256
  139SAPE   HN315090   4.077   5.835  10.706 -0.9031 -0.2672 -1.3989
  139SAPE   C1215091   4.084   6.003  10.564 -0.0831  0.5589 -0.3947
  139SAPE  H12A15092   4.100   5.932  10.479  1.8609  1.3867 -0.7760
  139SAPE  H12B15093   4.179   6.058  10.577  0.8191 -1.2534  1.1401
  139SAPE   C1115094   3.978   6.115  10.560 -0.8210 -0.0100 -0.3477
  139SAPE  H11A15095   3.978   6.139  10.451  1.4659  1.2684 -0.1300
  139SAPE  H11B15096   3.998   6.211  10.612 -2.6285  0.9211 -1.2691
  139SAPE     P15097   3.710   6.127  10.564  0.2035 -0.3795  0.3473
  139SAPE   O1315098   3.605   6.032  10.611 -0.7159  0.1176 -0.1064
  139SAPE   O1415099   3.700   6.260  10.624 -0.0466 -0.5660  0.1537
  139SAPE   O1215100   3.850   6.070  10.598  0.7686 -0.0262  0.4811
  139SAPE   O1115101   3.708   6.137  10.408 -0.6857  0.4885 -0.5516
  139SAPE    C115102   3.689   6.024  10.324  0.3465  0.4037 -0.2188
  139SAPE    HA15103   3.607   5.956  10.355  0.6474  1.0255  2.1399
  139SAPE    HB15104   3.663   6.072  10.227  0.3932  0.6306 -0.1197
  139SAPE    C215105   3.814   5.941  10.292 -0.0338  0.0931 -0.0129
  139SAPE    HS15106   3.860   5.930  10.392 -1.9134 -0.0620  0.8832
  139SAPE   O2115107   3.899   6.024  10.206  0.1423 -0.5600 -0.6030
  139SAPE   C2115108   4.030   5.975  10.204 -0.7684 -0.3279  0.3811
  139SAPE   O2215109   4.076   5.888  10.269  0.2160 -0.1620 -0.1875
  139SAPE   C2215110   4.106   6.069  10.111  0.2871 -0.5825 -0.1896
  139SAPE   H2R15111   4.061   6.051  10.011  1.1233  1.1664 -0.9240
  139SAPE   H2S15112   4.091   6.171  10.153 -0.6506 -0.5379 -0.6158
  139SAPE    C315113   3.774   5.812  10.214  0.1344  0.6491  0.8219
  139SAPE    HX15114   3.696   5.755  10.268  0.1771  0.5429  0.7736
  139SAPE    HY15115   3.861   5.743  10.208  0.8729  1.3028  3.1488
  139SAPE   O3115116   3.707   5.844  10.088  0.1480  0.0227 -0.4407
  139SAPE   C3115117   3.788   5.841   9.990  0.0615 -0.0202 -0.6723
  139SAPE   O3215118   3.904   5.805   9.989 -0.2893  0.1336  0.1964
  139SAPE   C3215119   3.717   5.888   9.861 -0.0983  0.0710  0.0840
  139SAPE   H2X15120   3.652   5.971   9.897 -0.0835  0.3527 -0.5222
  139SAPE   H2Y15121   3.655   5.804   9.824  2.7407 -1.4633 -1.4859
  139SAPE   C2315122   4.258   6.039  10.106  0.4916  0.2148  0.5823
  139SAPE   H3R15123   4.293   6.014  10.209 -2.0607 -0.9024  1.2677
  139SAPE   H3S15124   4.303   6.137  10.079 -2.1905  1.3202 -0.2024
  139SAPE   C2415125   4.321   5.940  10.001 -0.4507  0.3606  0.0335
  139SAPE   H4R15126   4.424   5.979   9.986  0.0653 -1.0056 -0.1257
  139SAPE   H4S15127   4.253   5.952   9.914 -0.2213 -1.1173 -0.3748
  139SAPE   C2515128   4.314   5.790  10.046  0.0919 -0.1475  0.4561
  139SAPE   H5R15129   4.338   5.771  10.152  0.2807 -2.7674  0.0036
  139SAPE   C2615130   4.309   5.678   9.968  0.0451  0.7238 -0.1930
  139SAPE   H6R15131   4.304   5.581  10.020 -0.7159 -0.1295 -1.8057
  139SAPE   C2715132   4.300   5.667   9.820 -0.3509  0.7989 -0.2091
  139SAPE   H7R15133   4.321   5.563   9.786 -4.6495  0.0226 -1.0993
  139SAPE   H7S15134   4.374   5.733   9.771  0.0491  0.4410 -0.0973
  139SAPE   C2815135   4.156   5.685   9.770 -0.6856  0.2088 -0.4154
  139SAPE   H8R15136   4.094   5.752   9.831 -1.3766  0.2905 -1.1948
  139SAPE   C2915137   4.102   5.637   9.654  0.7129  0.2402  0.7540
  139SAPE   H9R15138   4.006   5.675   9.617  0.9902 -0.8652 -1.2901
  139SAPE  C21015139   4.161   5.551   9.544  0.3336  0.1657 -0.0230
  139SAPE  H10R15140   4.079   5.532   9.471  0.7409  0.4700 -0.5636
  139SAPE  H10S15141   4.164   5.449   9.587  0.3410  0.5079  0.7960
  139SAPE  C21115142   4.290   5.592   9.479  0.3587 -0.9167  0.0764
  139SAPE  H11R15143   4.363   5.634   9.550  1.4688 -2.5442 -0.0405
  139SAPE  C21215144   4.324   5.587   9.344  0.6185 -0.9408  0.0149
  139SAPE  H12R15145   4.415   5.636   9.307 -0.7499  1.6666 -0.1123
  139SAPE  C21315146   4.223   5.547   9.238  0.2482  0.0106  0.2840
  139SAPE  H13R15147   4.121   5.590   9.255  0.4027  0.3156  0.4422
  139SAPE  H13S15148   4.199   5.438   9.234  1.4099 -0.2972  1.3060
  139SAPE  C21415149   4.272   5.604   9.107  0.0770 -0.0557 -0.3033
  139SAPE  H14R15150   4.270   5.714   9.096  2.3724 -0.1429 -2.8035
  139SAPE  C21515151   4.307   5.537   8.999 -0.4115 -0.6799  0.4827
  139SAPE  H15R15152   4.344   5.600   8.917 -2.5080 -0.1625 -0.1126
  139SAPE  C21615153   4.305   5.386   8.983 -0.2208  0.4840 -0.6096
  139SAPE  H16R15154   4.291   5.345   9.086  1.0453  0.8801 -0.2703
  139SAPE  H16S15155   4.396   5.340   8.941 -0.7262 -1.1976  0.0461
  139SAPE  C21715156   4.190   5.325   8.896  0.0840 -0.4869  0.5507
  139SAPE  H17R15157   4.089   5.363   8.922  0.5033  2.1733 -1.3076
  139SAPE  H17S15158   4.188   5.215   8.911  1.1588 -0.5952 -0.0823
  139SAPE  C21815159   4.218   5.354   8.749 -0.4956  0.0871 -0.0364
  139SAPE  H18R15160   4.323   5.337   8.719 -0.6133 -2.7135  0.8705
  139SAPE  H18S15161   4.213   5.464   8.734  2.9163  0.4543  0.7119
  139SAPE  C21915162   4.124   5.286   8.654 -0.5046 -0.4980  0.7229
  139SAPE  H19R15163   4.026   5.333   8.672  1.5782  3.7609  2.3632
  139SAPE  H19S15164   4.121   5.176   8.673 -2.5263 -0.7750 -0.9379
  139SAPE  C22015165   4.172   5.309   8.506  0.5731  0.6411  0.2234
  139SAPE  H20R15166   4.170   5.419   8.486  1.7814  0.8439  1.0860
  139SAPE  H20S15167   4.104   5.253   8.439  0.0523 -0.0688  1.3347
  139SAPE  H20T15168   4.271   5.264   8.484  0.8936  1.1512  0.5808
  139SAPE   C3315169   3.811   5.925   9.747 -0.1432  0.0694 -0.1253
  139SAPE   H3X15170   3.877   5.842   9.715 -1.0743 -0.7469 -0.0004
  139SAPE   H3Y15171   3.875   6.003   9.793 -0.7751 -0.4965  1.7921
  139SAPE   C3415172   3.732   5.997   9.629  0.6102 -0.3005  0.3359
  139SAPE   H4X15173   3.703   6.102   9.652 -0.2986  0.0516 -2.0914
  139SAPE   H4Y15174   3.640   5.940   9.606 -1.1395  2.5324 -0.1165
  139SAPE   C3515175   3.824   6.011   9.510 -0.0442 -0.3550  0.6494
  139SAPE   H5X15176   3.881   5.918   9.486  0.4954  0.5425 -1.8755
  139SAPE   H5Y15177   3.894   6.093   9.534 -0.2111 -0.5040  1.6676
  139SAPE   C3615178   3.746   6.074   9.396  0.9658 -0.0475 -0.1645
  139SAPE   H6X15179   3.698   6.167   9.435 -1.1349 -1.0199 -0.2722
  139SAPE   H6Y15180   3.659   6.008   9.374  0.5133 -0.6889  3.0259
  139SAPE   C3715181   3.834   6.116   9.275 -0.7914 -0.4779  0.4257
  139SAPE   H7X15182   3.889   6.026   9.239 -0.2695 -0.9679  2.3339
  139SAPE   H7Y15183   3.915   6.185   9.306 -1.7211  1.2054 -0.7550
  139SAPE   C3815184   3.757   6.192   9.160  0.1238  0.5266 -0.2015
  139SAPE   H8X15185   3.826   6.252   9.098 -1.6728  0.9714 -1.8767
  139SAPE   H8Y15186   3.682   6.264   9.200 -0.1500  0.3950 -0.4753
  139SAPE   C3915187   3.669   6.097   9.066  0.9772 -0.0179 -0.3939
  139SAPE   H9X15188   3.565   6.086   9.104  2.0569  1.6802  3.5776
  139SAPE   H9Y15189   3.724   6.000   9.073  0.1555 -0.3819  2.9107
  139SAPE  C31015190   3.665   6.149   8.920  0.4959  0.0542 -0.3344
  139SAPE  H10X15191   3.769   6.170   8.887  0.4522  1.7195  0.4582
  139SAPE  H10Y15192   3.606   6.243   8.915 -0.8025 -0.5388  2.2024
  139SAPE  C31115193   3.597   6.049   8.829 -0.0080 -0.2490 -0.0290
  139SAPE  H11X15194   3.489   6.060   8.855 -0.0284  0.6759 -0.4574
  139SAPE  H11Y15195   3.628   5.945   8.851  0.5684 -0.5601 -2.0968
  139SAPE  C31215196   3.627   6.072   8.682  0.1677 -0.3157 -0.2214
  139SAPE  H12X15197   3.638   5.973   8.634 -0.0005  1.0901 -3.4011
  139SAPE  H12Y15198   3.723   6.126   8.666 -0.5450  0.6256 -1.5530
  139SAPE  C31315199   3.510   6.145   8.609  0.2051 -0.3587  0.3160
  139SAPE  H13X15200   3.511   6.242   8.663  2.0587  0.3402 -0.8499
  139SAPE  H13Y15201   3.417   6.086   8.623  0.1951 -0.0163  1.7631
  139SAPE  C31415202   3.533   6.175   8.463  0.3724 -0.4670 -0.2460
  139SAPE  H14X15203   3.433   6.206   8.427  0.2986  0.0465  0.3873
  139SAPE  H14Y15204   3.548   6.075   8.417  0.1851 -0.3604 -0.5368
  139SAPE  C31515205   3.654   6.266   8.428  0.1256  0.0322 -0.2225
  139SAPE  H15X15206   3.750   6.221   8.461 -0.7236  0.3971  3.1626
  139SAPE  H15Y15207   3.637   6.363   8.480  0.6264 -0.8957  1.7717
  139SAPE  C31615208   3.656   6.294   8.278  0.7477  0.0782 -0.7422
  139SAPE  H16X15209   3.677   6.202   8.220 -0.9737 -1.8744  1.5678
  139SAPE  H16Y15210   3.556   6.328   8.245 -0.0709 -1.8727 -0.3941
  139SAPE  C31715211   3.738   6.410   8.227 -0.2303  0.4436 -0.0791
  139SAPE  H17X15212   3.690   6.509   8.244 -2.0576 -0.5317  0.7045
  139SAPE  H17Y15213   3.745   6.408   8.116  2.1083  1.8761 -0.0283
  139SAPE  C31815214   3.876   6.422   8.288  0.2574  0.4935  0.0818
  139SAPE  H18X15215   3.940   6.487   8.225 -2.4280  2.4574 -0.7957
  139SAPE  H18Y15216   3.929   6.324   8.289  0.7374  0.6901 -1.7881
  139SAPE  H18Z15217   3.867   6.449   8.395 -1.5624 -1.8442  0.6160
  140SAPE     N15218   6.568   2.145  10.852  0.4096 -0.5828  0.5912
  140SAPE   HN115219   6.472   2.150  10.894  0.0421  2.5128 -0.3573
  140SAPE   HN215220   6.630   2.066  10.880  2.6125  0.1471 -1.8425
  140SAPE   HN315221   6.615   2.232  10.884 -1.9665  1.5813 -1.4194
  140SAPE   C1215222   6.559   2.143  10.699 -0.1040 -0.3732 -0.1001
  140SAPE  H12A15223   6.479   2.069  10.674  0.4069  0.2058 -4.2678
  140SAPE  H12B15224   6.654   2.115  10.648 -0.3164 -1.5104  0.0879
  140SAPE   C1115225   6.524   2.280  10.653 -0.1010 -0.7261  0.3125
  140SAPE  H11A15226   6.418   2.304  10.673 -0.8388 -3.6991  0.3766
  140SAPE  H11B15227   6.539   2.280  10.543 -0.4145  0.4549  0.2559
  140SAPE     P15228   6.599   2.511  10.763  0.3037  0.0816  0.1047
  140SAPE   O1315229   6.467   2.510  10.827 -0.0183 -0.6387  0.1172
  140SAPE   O1415230   6.721   2.536  10.836  0.4930 -0.3160  0.0057
  140SAPE   O1215231   6.622   2.365  10.709 -0.2888 -0.1627  0.3903
  140SAPE   O1115232   6.598   2.599  10.632  1.0284 -0.0043 -0.2813
  140SAPE    C115233   6.717   2.600  10.549 -0.3102  0.5627 -0.7735
  140SAPE    HA15234   6.799   2.648  10.608 -0.8533  0.6412 -0.0687
  140SAPE    HB15235   6.737   2.500  10.504 -0.1293  1.4857 -2.8844
  140SAPE    C215236   6.694   2.690  10.433  0.1070  0.5365 -0.6203
  140SAPE    HS15237   6.654   2.784  10.478  0.7244 -0.8005  3.0819
  140SAPE   O2115238   6.607   2.620  10.347 -0.8412  0.5848 -0.2413
  140SAPE   C2115239   6.552   2.684  10.251 -0.4282  0.1944  0.2737
  140SAPE   O2215240   6.547   2.804  10.236  0.0314  0.2621  0.2073
  140SAPE   C2215241   6.485   2.584  10.154  0.5399 -0.2889 -0.1867
  140SAPE   H2R15242   6.549   2.494  10.155  0.8683 -0.0582  0.1788
  140SAPE   H2S15243   6.381   2.565  10.187  0.1434  2.6644  0.6340
  140SAPE    C315244   6.826   2.727  10.350 -0.0851  0.4545  0.3827
  140SAPE    HX15245   6.885   2.781  10.427 -1.0707 -1.2597  2.4400
  140SAPE    HY15246   6.777   2.795  10.277 -2.2097 -0.7712  0.5858
  140SAPE   O3115247   6.899   2.615  10.293 -0.1821  0.2455  0.0370
  140SAPE   C3115248   6.996   2.651  10.212  0.0646 -0.8488 -0.3896
  140SAPE   O3215249   7.031   2.769  10.203 -0.0603 -0.4237  0.0653
  140SAPE   C3215250   7.067   2.538  10.146  0.5761  0.2884 -0.9908
  140SAPE   H2X15251   7.023   2.440  10.175  0.3490  0.5300 -0.5195
  140SAPE   H2Y15252   7.173   2.540  10.179  0.5761  1.8796 -1.0252
  140SAPE   C2315253   6.489   2.635  10.003  0.3541  0.1267 -0.4645
  140SAPE   H3R15254   6.596   2.659   9.987  0.6779 -0.8785  0.0998
  140SAPE   H3S15255   6.434   2.731   9.989 -0.7604 -0.6189 -1.3903
  140SAPE   C2415256   6.450   2.536   9.891 -0.5841 -0.3363 -0.1531
  140SAPE   H4R15257   6.347   2.494   9.902 -0.8127  0.4192  0.7243
  140SAPE   H4S15258   6.511   2.445   9.906 -0.1453 -0.1099 -0.5372
  140SAPE   C2515259   6.444   2.589   9.753  0.1177  0.4050 -0.3950
  140SAPE   H5R15260   6.377   2.674   9.733 -1.4660 -0.4125  1.1952
  140SAPE   C2615261   6.504   2.538   9.647 -0.0727  0.0347  0.5483
  140SAPE   H6R15262   6.466   2.572   9.549 -1.8867 -2.1995  0.4073
  140SAPE   C2715263   6.589   2.414   9.643 -0.4826 -0.1368  0.1463
  140SAPE   H7R15264   6.536   2.329   9.597 -1.6919  0.5601  0.2150
  140SAPE   H7S15265   6.611   2.371   9.743  1.4485 -0.3193 -0.3159
  140SAPE   C2815266   6.715   2.427   9.554 -0.4216  0.6727 -0.2912
  140SAPE   H8R15267   6.809   2.439   9.609 -0.5290  1.5178 -0.2861
  140SAPE   C2915268   6.720   2.453   9.421  0.3198 -0.1932  0.2439
  140SAPE   H9R15269   6.811   2.461   9.358 -0.2314  0.4121 -0.4852
  140SAPE  C21015270   6.602   2.457   9.326 -0.0504  0.6349  0.0755
  140SAPE  H10R15271   6.515   2.408   9.374  0.8162 -0.2866  0.7419
  140SAPE  H10S15272   6.634   2.384   9.249  4.2621  0.2660  1.9230
  140SAPE  C21115273   6.546   2.586   9.270 -0.5980  0.3432  0.4282
  140SAPE  H11R15274   6.490   2.647   9.342 -0.2818  1.7023 -0.4305
  140SAPE  C21215275   6.564   2.646   9.147 -0.0569 -0.3366 -0.7065
  140SAPE  H12R15276   6.499   2.732   9.125 -3.6583 -2.5505  0.2459
  140SAPE  C21315277   6.645   2.602   9.027 -0.5860  0.0971 -0.1934
  140SAPE  H13R15278   6.708   2.519   9.065 -2.7162 -1.7742 -0.5497
  140SAPE  H13S15279   6.710   2.684   8.989  0.6261 -0.9647 -0.4891
  140SAPE  C21415280   6.558   2.546   8.915 -0.2463  0.6370 -0.1347
  140SAPE  H14R15281   6.455   2.510   8.932 -0.2104 -0.8512 -2.5846
  140SAPE  C21515282   6.587   2.551   8.781  0.3940 -0.3292 -0.5963
  140SAPE  H15R15283   6.510   2.520   8.709 -1.4911  1.9175  0.3381
  140SAPE  C21615284   6.704   2.624   8.728 -0.2395  0.0552 -0.3620
  140SAPE  H16R15285   6.803   2.583   8.758 -0.4539 -0.9967 -1.0256
  140SAPE  H16S15286   6.690   2.727   8.768  0.7357  0.5721 -1.2954
  140SAPE  C21715287   6.716   2.632   8.576  0.5686 -0.1815  0.6162
  140SAPE  H17R15288   6.623   2.676   8.534  0.5436 -0.5799  0.2447
  140SAPE  H17S15289   6.741   2.530   8.540  0.9946 -0.2159  0.9905
  140SAPE  C21815290   6.832   2.725   8.537  0.3816  0.2076 -0.1943
  140SAPE  H18R15291   6.927   2.667   8.534 -0.5748 -1.3823 -1.3979
  140SAPE  H18S15292   6.854   2.805   8.611  0.4746 -0.1117  0.1271
  140SAPE  C21915293   6.796   2.778   8.395  0.1214 -0.4268 -0.4754
  140SAPE  H19R15294   6.705   2.841   8.393 -1.1992 -2.2504 -0.8449
  140SAPE  H19S15295   6.787   2.693   8.325  1.3364  0.2498 -1.4893
  140SAPE  C22015296   6.910   2.858   8.336 -0.7945 -0.0323 -0.4454
  140SAPE  H20R15297   6.990   2.784   8.313  1.0185  1.2530  1.2826
  140SAPE  H20S15298   6.960   2.924   8.411  1.5661  0.8400 -2.6339
  140SAPE  H20T15299   6.873   2.913   8.247  0.8191  2.1571  0.1423
  140SAPE   C3315300   7.062   2.549   9.995 -0.4562  0.8919  0.1046
  140SAPE   H3X15301   6.962   2.587   9.962 -1.6565 -0.9787  1.3753
  140SAPE   H3Y15302   7.057   2.452   9.942 -0.5336  0.2204  1.3089
  140SAPE   C3415303   7.164   2.642   9.940 -0.7022 -1.3381 -0.0947
  140SAPE   H4X15304   7.265   2.598   9.932  1.2605  2.1745  2.4939
  140SAPE   H4Y15305   7.178   2.726  10.012  0.6540 -2.7631  1.3761
  140SAPE   C3515306   7.135   2.710   9.804 -0.2825  0.6246  0.1797
  140SAPE   H5X15307   7.217   2.785   9.800  1.5927 -1.3771 -0.1305
  140SAPE   H5Y15308   7.038   2.765   9.807 -0.1907  0.8762 -1.0840
  140SAPE   C3615309   7.136   2.614   9.681 -0.5574  0.4240  0.1205
  140SAPE   H6X15310   7.057   2.538   9.700  0.2998 -0.0429  2.1116
  140SAPE   H6Y15311   7.236   2.565   9.673 -0.6971 -0.0112  0.8833
  140SAPE   C3715312   7.103   2.690   9.553  0.0154  0.4048 -0.5567
  140SAPE   H7X15313   7.185   2.760   9.525  2.5265 -2.2344 -0.2668
  140SAPE   H7Y15314   7.011   2.749   9.574 -0.4061 -0.4329 -0.0392
  140SAPE   C3815315   7.073   2.596   9.434 -0.4173  0.3169 -0.4586
  140SAPE   H8X15316   6.983   2.533   9.450  0.8888 -1.3861  0.5936
  140SAPE   H8Y15317   7.155   2.522   9.420 -2.1640 -1.6970 -0.5276
  140SAPE   C3915318   7.044   2.671   9.302 -0.7627  0.2101 -0.5391
  140SAPE   H9X15319   7.116   2.753   9.282 -1.4254  1.7788  2.7804
  140SAPE   H9Y15320   6.945   2.718   9.320 -0.7256 -0.6616  2.6820
  140SAPE  C31015321   7.046   2.581   9.172 -0.1077 -0.0520  0.2009
  140SAPE  H10X15322   6.958   2.514   9.172  1.0990 -1.6840 -0.4475
  140SAPE  H10Y15323   7.137   2.518   9.176  0.9307  1.3786 -0.0559
  140SAPE  C31115324   7.039   2.652   9.033  0.4923 -0.2717  0.0772
  140SAPE  H11X15325   6.974   2.741   9.043  1.2437  0.1122  1.9218
  140SAPE  H11Y15326   6.997   2.575   8.965 -0.4334  1.3526 -1.2528
  140SAPE  C31215327   7.176   2.694   8.988  0.3863  0.1866  0.5910
  140SAPE  H12X15328   7.245   2.611   9.014  1.2671  0.9362  0.7007
  140SAPE  H12Y15329   7.213   2.780   9.048  0.9994  0.1250  0.3046
  140SAPE  C31315330   7.186   2.727   8.834  0.2445 -0.8104  0.3551
  140SAPE  H13X15331   7.141   2.646   8.773  0.6747 -2.8341  2.5536
  140SAPE  H13Y15332   7.296   2.735   8.822  0.1845  0.4638  0.4794
  140SAPE  C31415333   7.124   2.855   8.792  0.4261  0.1492 -0.2065
  140SAPE  H14X15334   7.157   2.938   8.858 -0.4486  0.0540  0.3599
  140SAPE  H14Y15335   7.014   2.845   8.801  0.2454  2.3988  0.6859
  140SAPE  C31515336   7.163   2.903   8.651 -0.1546  0.0050 -0.4303
  140SAPE  H15X15337   7.114   2.830   8.584 -1.0979 -0.9581  1.2435
  140SAPE  H15Y15338   7.273   2.893   8.643  0.0899 -1.9753  3.2069
  140SAPE  C31615339   7.121   3.052   8.627  0.0275 -0.3361 -0.6651
  140SAPE  H16X15340   7.012   3.063   8.645 -0.0383 -0.8901 -0.7121
  140SAPE  H16Y15341   7.143   3.059   8.519  1.2065  1.0460 -0.3749
  140SAPE  C31715342   7.193   3.160   8.708 -0.2253 -0.0097 -0.1431
  140SAPE  H17X15343   7.156   3.159   8.813  1.2838 -1.7054  0.4233
  140SAPE  H17Y15344   7.169   3.265   8.681 -2.1739 -0.9198 -2.2464
  140SAPE  C31815345   7.340   3.138   8.726  0.0568 -0.0435 -0.3030
  140SAPE  H18X15346   7.376   3.038   8.761  1.0870 -0.2196 -1.7871
  140SAPE  H18Y15347   7.367   3.202   8.813 -0.6917 -2.5448  1.9249
  140SAPE  H18Z15348   7.401   3.152   8.635  0.0589 -1.1596 -0.4860
  141SAPE     N15349   1.057   3.381  11.161  0.7689 -0.4931 -0.0245
  141SAPE   HN115350   1.076   3.417  11.066 -0.2474 -0.7125 -0.3233
  141SAPE   HN215351   0.959   3.412  11.177 -0.3489 -4.1758  1.2565
  141SAPE   HN315352   1.124   3.421  11.230  0.7819 -2.1167  0.9559
  141SAPE   C1215353   1.050   3.236  11.142  0.4114 -0.6495 -0.0896
  141SAPE  H12A15354   1.090   3.185  11.232  1.4209 -0.5337 -0.4652
  141SAPE  H12B15355   1.118   3.201  11.061  0.5187  0.4750 -0.4965
  141SAPE   C1115356   0.909   3.185  11.121 -0.2995  0.8022 -0.1396
  141SAPE  H11A15357   0.841   3.205  11.206 -0.3386  0.5233 -0.1057
  141SAPE  H11B15358   0.908   3.075  11.104 -1.2281  1.0760 -2.0157
  141SAPE     P15359   0.693   3.225  10.968  0.0312 -0.2337 -0.0035
  141SAPE   O1315360   0.618   3.232  11.094 -0.0422 -0.4695 -0.2321
  141SAPE   O1415361   0.665   3.320  10.858 -0.3395  0.1320 -0.5928
  141SAPE   O1215362   0.848   3.245  11.009 -0.5021  0.2020  0.4760
  141SAPE   O1115363   0.684   3.081  10.915 -0.1824  0.1905 -0.4044
  141SAPE    C115364   0.793   3.008  10.856 -0.0998 -0.0249 -0.0419
  141SAPE    HA15365   0.883   3.072  10.843 -0.1931  0.1474  0.1557
  141SAPE    HB15366   0.817   2.931  10.932  2.6298 -0.4668 -1.2309
  141SAPE    C215367   0.759   2.947  10.718 -0.0300 -0.1843  0.7364
  141SAPE    HS15368   0.861   2.932  10.676  0.8096  2.9415  1.3580
  141SAPE   O2115369   0.682   3.043  10.639  0.8271  1.1521 -0.1802
  141SAPE   C2115370   0.737   3.143  10.590 -0.3018 -0.4680 -0.0618
  141SAPE   O2215371   0.859   3.154  10.578 -0.8627 -0.1437 -0.4395
  141SAPE   C2215372   0.635   3.232  10.515 -0.7270  0.0453 -0.0608
  141SAPE   H2R15373   0.535   3.185  10.525  0.0142 -1.4833  0.6272
  141SAPE   H2S15374   0.626   3.328  10.570  1.8535 -0.5850  1.7059
  141SAPE    C315375   0.696   2.806  10.711  0.3397  0.1334 -0.7957
  141SAPE    HX15376   0.600   2.814  10.766  0.1960  5.5754 -1.2742
  141SAPE    HY15377   0.762   2.735  10.766 -1.0224 -1.5238 -1.2091
  141SAPE   O3115378   0.683   2.748  10.582 -0.8608 -0.2919 -0.4446
  141SAPE   C3115379   0.574   2.765  10.512  0.3583 -0.7119 -0.6038
  141SAPE   O3215380   0.473   2.818  10.559  0.0092 -0.2869 -0.2500
  141SAPE   C3215381   0.580   2.722  10.367 -0.5702  0.0116 -0.6745
  141SAPE   H2X15382   0.518   2.796  10.311 -1.6291  0.3784  0.9335
  141SAPE   H2Y15383   0.536   2.623  10.346  1.6916 -1.0317 -0.8217
  141SAPE   C2315384   0.667   3.272  10.362 -0.4481  0.1159  0.9642
  141SAPE   H3R15385   0.775   3.299  10.354 -0.0861 -1.1326  1.3832
  141SAPE   H3S15386   0.608   3.357  10.324 -0.4764 -0.2049  0.2786
  141SAPE   C2415387   0.651   3.147  10.278 -0.0239  0.3944  0.5033
  141SAPE   H4R15388   0.725   3.066  10.297  0.2823 -0.7109 -4.1404
  141SAPE   H4S15389   0.670   3.178  10.173 -1.8837  2.4600  0.7091
  141SAPE   C2515390   0.507   3.092  10.281  0.2520  0.4196 -0.0759
  141SAPE   H5R15391   0.487   3.036  10.373  0.1450 -0.8695 -0.8535
  141SAPE   C2615392   0.409   3.093  10.192  0.0278 -0.3951 -0.2530
  141SAPE   H6R15393   0.310   3.065  10.228  0.0403 -1.6705 -1.1308
  141SAPE   C2715394   0.409   3.144  10.057  0.0880 -0.0748  0.7450
  141SAPE   H7R15395   0.515   3.152  10.027 -0.5627  0.6584 -1.5575
  141SAPE   H7S15396   0.369   3.247  10.068  1.3127  0.4468  0.4220
  141SAPE   C2815397   0.324   3.067   9.963  0.7240  0.6706  0.6597
  141SAPE   H8R15398   0.274   2.978  10.005 -0.5818  1.3266  0.5363
  141SAPE   C2915399   0.297   3.098   9.838 -0.5638 -0.3608 -0.4466
  141SAPE   H9R15400   0.249   3.023   9.773  0.3779  0.4353 -2.1372
  141SAPE  C21015401   0.349   3.220   9.760  0.4117  0.0572  1.0820
  141SAPE  H10R15402   0.368   3.181   9.658 -2.5910 -0.1699  0.4950
  141SAPE  H10S15403   0.447   3.258   9.796  1.5562 -0.6696 -1.0911
  141SAPE  C21115404   0.238   3.324   9.765  0.7274  0.1353  0.3987
  141SAPE  H11R15405   0.185   3.328   9.861  4.2681 -2.0167  2.6281
  141SAPE  C21215406   0.216   3.414   9.671  0.1427  0.5788 -0.1342
  141SAPE  H12R15407   0.134   3.483   9.693  0.0076  0.3076  0.2326
  141SAPE  C21315408   0.284   3.431   9.540  0.3370  0.3928  0.3356
  141SAPE  H13R15409   0.379   3.374   9.534 -0.0368 -0.5663  2.6300
  141SAPE  H13S15410   0.310   3.539   9.538 -2.1519  1.0632  0.6250
  141SAPE  C21415411   0.199   3.391   9.425  0.0612  0.1784  0.7856
  141SAPE  H14R15412   0.223   3.294   9.378  1.0510  0.6203  0.3527
  141SAPE  C21515413   0.097   3.460   9.378  0.1808 -0.5220  0.0192
  141SAPE  H15R15414   0.038   3.410   9.299  0.1658 -3.0189  1.4914
  141SAPE  C21615415   0.062   3.600   9.425 -0.1534 -0.2240  0.1795
  141SAPE  H16R15416   0.090   3.627   9.529 -1.5711  1.0068  0.2789
  141SAPE  H16S15417  -0.046   3.625   9.417 -0.7028 -2.2819  0.4891
  141SAPE  C21715418   0.151   3.699   9.344 -0.3194  0.0664  1.1319
  141SAPE  H17R15419   0.143   3.692   9.233 -0.7631  0.1856  1.1535
  141SAPE  H17S15420   0.252   3.663   9.370  0.1367  2.1276  2.4275
  141SAPE  C21815421   0.144   3.843   9.383 -0.0294  0.4039 -0.6621
  141SAPE  H18R15422   0.218   3.890   9.314  0.8944  0.8480  0.5911
  141SAPE  H18S15423   0.184   3.842   9.487 -2.6347 -1.3828  0.4185
  141SAPE  C21915424   0.009   3.917   9.383 -0.0444  0.1736 -0.1356
  141SAPE  H19R15425  -0.059   3.877   9.462  0.0502 -0.3536 -0.3131
  141SAPE  H19S15426  -0.042   3.901   9.286  1.1654  1.5598 -1.0379
  141SAPE  C22015427   0.030   4.067   9.406  0.1002  0.1017  0.2503
  141SAPE  H20R15428   0.119   4.101   9.349  1.0533  0.3674  1.8318
  141SAPE  H20S15429   0.052   4.081   9.514  1.5720 -0.9467  0.1154
  141SAPE  H20T15430  -0.060   4.128   9.380 -0.6549 -2.7309 -5.3901
  141SAPE   C3315431   0.723   2.733  10.302  0.0492  0.2819 -0.1503
  141SAPE   H3X15432   0.770   2.648  10.355 -0.8644  0.7638  1.5155
  141SAPE   H3Y15433   0.778   2.827  10.323 -0.8778  0.5615  1.1083
  141SAPE   C3415434   0.723   2.702  10.154  0.1429 -0.2710 -0.1648
  141SAPE   H4X15435   0.656   2.616  10.134  0.2135 -0.3233 -0.1805
  141SAPE   H4Y15436   0.825   2.671  10.121  0.4870  1.1995 -0.5426
  141SAPE   C3515437   0.679   2.819  10.071  0.7663 -0.3247 -0.2758
  141SAPE   H5X15438   0.730   2.915  10.093 -1.5457  1.0933 -0.7954
  141SAPE   H5Y15439   0.569   2.832  10.086  0.2247 -3.0122 -1.3504
  141SAPE   C3615440   0.700   2.802   9.924 -0.0370  1.0854  0.1245
  141SAPE   H6X15441   0.656   2.712   9.876  0.5525  2.3002 -2.9546
  141SAPE   H6Y15442   0.808   2.793   9.898 -0.7500 -1.7870 -2.4650
  141SAPE   C3715443   0.648   2.921   9.840 -0.4873  0.6690 -0.4416
  141SAPE   H7X15444   0.707   3.012   9.864 -0.3057  0.4276  0.0342
  141SAPE   H7Y15445   0.542   2.938   9.868 -0.5224 -0.0729 -0.1164
  141SAPE   C3815446   0.662   2.883   9.690  0.1431  0.1281 -0.1660
  141SAPE   H8X15447   0.614   2.785   9.670 -1.2340  0.8041 -0.3011
  141SAPE   H8Y15448   0.767   2.869   9.659  0.6700  2.2112  0.5436
  141SAPE   C3915449   0.594   2.995   9.611  0.7816  0.0060 -0.5102
  141SAPE   H9X15450   0.647   3.091   9.631  0.7636  0.3491 -1.9781
  141SAPE   H9Y15451   0.495   3.022   9.652  0.4943 -1.0280 -0.5182
  141SAPE  C31015452   0.593   2.964   9.462  0.6301 -0.3722 -0.4767
  141SAPE  H10X15453   0.540   2.869   9.437 -0.1587  0.1909 -0.9832
  141SAPE  H10Y15454   0.701   2.956   9.438  1.2157  1.8116  1.1882
  141SAPE  C31115455   0.532   3.076   9.379  1.2365 -0.0244 -0.1785
  141SAPE  H11X15456   0.596   3.166   9.397  2.5991 -1.0500  0.2701
  141SAPE  H11Y15457   0.439   3.104   9.433  2.4878  0.9934  1.5646
  141SAPE  C31215458   0.499   3.038   9.239 -0.5255 -0.6135 -0.1588
  141SAPE  H12X15459   0.452   2.938   9.227  0.3880 -1.0821  0.0935
  141SAPE  H12Y15460   0.594   3.037   9.181 -1.1627 -1.9384 -1.2369
  141SAPE  C31315461   0.405   3.138   9.170 -0.0595  0.0233  0.0169
  141SAPE  H13X15462   0.312   3.146   9.230 -1.3784 -1.7649 -1.6689
  141SAPE  H13Y15463   0.366   3.099   9.073  0.6628  0.9469 -0.6691
  141SAPE  C31415464   0.466   3.277   9.135 -0.0270  0.7942  0.0038
  141SAPE  H14X15465   0.549   3.246   9.069 -0.7064  2.2657 -1.6101
  141SAPE  H14Y15466   0.500   3.335   9.224  0.5783 -0.0507  0.3442
  141SAPE  C31515467   0.371   3.358   9.065 -0.7256 -0.1910 -0.0788
  141SAPE  H15X15468   0.272   3.358   9.117 -1.2790  2.4251 -0.9772
  141SAPE  H15Y15469   0.352   3.306   8.969  1.9195  0.4966 -1.0470
  141SAPE  C31615470   0.420   3.498   9.041  0.0646 -0.2240 -0.7078
  141SAPE  H16X15471   0.503   3.494   8.968  1.0958  0.1309  0.4193
  141SAPE  H16Y15472   0.443   3.549   9.136 -0.0704  1.0287 -1.3250
  141SAPE  C31715473   0.317   3.603   8.979  0.2293 -0.7512 -0.1254
  141SAPE  H17X15474   0.391   3.678   8.943  1.6603 -2.4218 -0.7689
  141SAPE  H17Y15475   0.255   3.656   9.055  0.1925  0.0727 -0.7072
  141SAPE  C31815476   0.237   3.551   8.857 -0.3520 -0.2067 -0.4020
  141SAPE  H18X15477   0.198   3.633   8.793 -1.2205 -0.8069 -0.6656
  141SAPE  H18Y15478   0.149   3.495   8.897 -0.4106  0.4747  0.4631
  141SAPE  H18Z15479   0.298   3.487   8.791 -0.9279 -0.6584 -0.5063
  142SAPE     N15480   1.297   2.122  11.005 -0.2080  0.3362  0.2192
  142SAPE   HN115481   1.268   2.209  11.056 -1.3507  0.7265 -1.0429
  142SAPE   HN215482   1.231   2.047  11.034 -1.8899 -0.4817 -4.8410
  142SAPE   HN315483   1.398   2.109  11.025 -0.1175 -0.2703 -0.6240
  142SAPE   C1215484   1.281   2.140  10.853  0.0432 -0.1647  0.5137
  142SAPE  H12A15485   1.172   2.125  10.833  0.1328  1.5123 -1.5272
  142SAPE  H12B15486   1.348   2.061  10.814  0.3030 -0.7300  2.0409
  142SAPE   C1115487   1.320   2.284  10.811  0.0201 -0.4279  0.4536
  142SAPE  H11A15488   1.327   2.293  10.701 -0.7793 -2.2422  0.2276
  142SAPE  H11B15489   1.426   2.302  10.841 -0.4665 -1.5369  3.2002
  142SAPE     P15490   1.268   2.471  10.985 -0.0060  0.5269  0.0528
  142SAPE   O1315491   1.250   2.385  11.102 -0.4120 -0.1775  0.0848
  142SAPE   O1415492   1.393   2.544  10.961 -0.3633 -0.2608 -0.2234
  142SAPE   O1215493   1.235   2.388  10.853 -0.0117 -0.5258  0.4527
  142SAPE   O1115494   1.150   2.573  10.973 -0.7489 -0.0222  0.0086
  142SAPE    C115495   1.048   2.571  10.875 -0.1467 -0.3321  0.0196
  142SAPE    HA15496   1.004   2.473  10.848  0.9341 -1.1714  1.2214
  142SAPE    HB15497   0.964   2.630  10.918 -1.3463 -1.5156 -0.5955
  142SAPE    C215498   1.106   2.627  10.740  0.0875 -0.0792  0.9097
  142SAPE    HS15499   1.203   2.581  10.713  0.1052 -0.0501  0.9236
  142SAPE   O2115500   1.124   2.769  10.747 -0.8714  0.0305 -0.1614
  142SAPE   C2115501   1.248   2.816  10.711  0.0666 -0.6558  0.1482
  142SAPE   O2215502   1.343   2.746  10.679 -0.3300 -0.4030 -0.4685
  142SAPE   C2215503   1.234   2.970  10.696  0.0553 -0.1997  0.9072
  142SAPE   H2R15504   1.127   2.997  10.693 -0.3868 -1.9332 -0.4203
  142SAPE   H2S15505   1.273   3.006  10.794  1.7846  0.5123 -0.0075
  142SAPE    C315506   1.004   2.594  10.632 -0.5925 -0.7599  0.9390
  142SAPE    HX15507   0.907   2.640  10.660 -0.7501 -0.3970 -0.1236
  142SAPE    HY15508   0.994   2.483  10.634  1.1442 -1.0922 -2.0742
  142SAPE   O3115509   1.035   2.637  10.497  0.2484 -0.3464  0.0184
  142SAPE   C3115510   1.098   2.569  10.409 -0.5291  0.4315  0.3429
  142SAPE   O3215511   1.137   2.452  10.422 -0.4081  0.0379  0.0051
  142SAPE   C3215512   1.121   2.645  10.284 -0.0284  0.7031 -0.0683
  142SAPE   H2X15513   1.193   2.728  10.299  0.8970  0.2902 -1.8730
  142SAPE   H2Y15514   1.023   2.690  10.257  0.6797  1.6225 -1.2311
  142SAPE   C2315515   1.315   3.037  10.577 -0.2441 -0.4392 -0.0746
  142SAPE   H3R15516   1.356   2.969  10.499  0.4305 -0.6053  0.4184
  142SAPE   H3S15517   1.398   3.103  10.608 -0.1160  0.4738 -2.1501
  142SAPE   C2415518   1.227   3.131  10.494  0.4331  0.2338  0.4917
  142SAPE   H4R15519   1.285   3.211  10.444  2.3850 -0.2248  1.8809
  142SAPE   H4S15520   1.173   3.199  10.564 -0.1401  1.1480 -0.8042
  142SAPE   C2515521   1.145   3.050  10.396  1.1353 -0.3348  0.3305
  142SAPE   H5R15522   1.050   3.014  10.438  1.1587  0.4014  1.0512
  142SAPE   C2615523   1.158   3.040  10.261 -0.5320 -0.5567 -0.0882
  142SAPE   H6R15524   1.087   2.974  10.209  1.6470 -1.5629 -1.9999
  142SAPE   C2715525   1.264   3.098  10.172 -0.0756 -0.0290  0.3082
  142SAPE   H7R15526   1.314   3.003  10.141  0.7946  1.0217 -1.7007
  142SAPE   H7S15527   1.334   3.166  10.225  0.0295  0.9701 -1.0480
  142SAPE   C2815528   1.197   3.183  10.065  0.3474  0.1511  0.0454
  142SAPE   H8R15529   1.214   3.291  10.082  1.5310  0.2791 -1.6934
  142SAPE   C2915530   1.157   3.140   9.945 -0.3132 -0.7422  0.7239
  142SAPE   H9R15531   1.124   3.217   9.873 -0.1790 -0.2769  1.1524
  142SAPE  C21015532   1.151   3.000   9.882 -0.0693 -0.3464  0.3959
  142SAPE  H10R15533   1.045   2.983   9.855  0.1682 -1.9078  0.3646
  142SAPE  H10S15534   1.182   2.918   9.950 -2.1527  0.8036  2.9432
  142SAPE  C21115535   1.235   2.991   9.753  0.4272 -0.1226 -0.0344
  142SAPE  H11R15536   1.342   2.967   9.767  0.4261 -0.7635 -1.0616
  142SAPE  C21215537   1.195   3.008   9.626  0.2429  0.0875 -0.1826
  142SAPE  H12R15538   1.283   3.008   9.561 -1.1888 -1.2700 -2.2266
  142SAPE  C21315539   1.063   3.048   9.574  0.5343 -0.2011 -0.3866
  142SAPE  H13R15540   1.068   3.130   9.499  2.3189  2.2416  2.1889
  142SAPE  H13S15541   1.003   3.083   9.661  0.9747 -0.5529  0.0591
  142SAPE  C21415542   0.991   2.925   9.520  0.3973 -0.6795  0.0398
  142SAPE  H14R15543   0.965   2.855   9.601 -0.0239  1.1214  1.5333
  142SAPE  C21515544   0.959   2.900   9.388 -0.2245 -0.2612  0.1027
  142SAPE  H15R15545   0.911   2.808   9.353  1.9152 -0.8946 -1.3660
  142SAPE  C21615546   0.997   3.000   9.276  0.6742 -0.0541 -0.0506
  142SAPE  H16R15547   1.102   2.984   9.244  0.4372  0.3040 -1.0354
  142SAPE  H16S15548   0.996   3.105   9.314 -1.9788 -0.1390  0.2905
  142SAPE  C21715549   0.910   2.994   9.152  1.1537 -0.7757 -0.3087
  142SAPE  H17R15550   0.804   3.009   9.182  1.6811  2.6334  0.2879
  142SAPE  H17S15551   0.921   2.895   9.104  0.3415 -1.2366  0.4105
  142SAPE  C21815552   0.948   3.108   9.051  0.0211 -0.3194  0.1967
  142SAPE  H18R15553   1.056   3.100   9.026 -0.1179 -1.5479 -0.0677
  142SAPE  H18S15554   0.932   3.197   9.116 -0.4257 -3.0680  4.2312
  142SAPE  C21915555   0.845   3.107   8.941 -0.0042  0.1421  0.0588
  142SAPE  H19R15556   0.743   3.114   8.984 -1.8864  0.2909 -3.9176
  142SAPE  H19S15557   0.858   3.008   8.892  1.1346  1.0356 -1.5536
  142SAPE  C22015558   0.853   3.225   8.839  0.4195  0.0876 -0.0230
  142SAPE  H20R15559   0.952   3.244   8.793 -0.4374 -1.1174 -2.5907
  142SAPE  H20S15560   0.825   3.318   8.893 -1.1824 -1.9457  2.9245
  142SAPE  H20T15561   0.780   3.203   8.758 -2.2685  3.0484  1.3520
  142SAPE   C3315562   1.168   2.569  10.161 -0.2750  0.4239 -0.0041
  142SAPE   H3X15563   1.109   2.475  10.145  0.6268  0.1015 -1.6551
  142SAPE   H3Y15564   1.272   2.532  10.170  0.2986  1.1746 -2.7089
  142SAPE   C3415565   1.162   2.661  10.038 -0.5373  0.0023  0.3515
  142SAPE   H4X15566   1.249   2.730  10.045  0.1363 -0.8034  0.1974
  142SAPE   H4Y15567   1.077   2.732  10.041 -1.2906 -0.0865 -5.9264
  142SAPE   C3515568   1.166   2.575   9.911  0.1553 -0.4916  0.4850
  142SAPE   H5X15569   1.078   2.507   9.916  0.4036 -0.9299 -0.8096
  142SAPE   H5Y15570   1.261   2.518   9.900  1.0525  1.1688 -0.8055
  142SAPE   C3615571   1.183   2.658   9.784 -0.1817  0.1058  0.6351
  142SAPE   H6X15572   1.263   2.731   9.806 -1.2046  1.3364  0.4135
  142SAPE   H6Y15573   1.096   2.722   9.758 -0.1007  0.5968  1.5304
  142SAPE   C3715574   1.227   2.568   9.665 -0.5475 -0.0233 -0.9208
  142SAPE   H7X15575   1.151   2.490   9.643  0.4770 -1.2075 -0.4062
  142SAPE   H7Y15576   1.321   2.516   9.696 -1.9947 -0.9330  2.4124
  142SAPE   C3815577   1.236   2.645   9.526  0.3316  0.2629  0.6650
  142SAPE   H8X15578   1.300   2.735   9.520 -0.3383  0.6866 -0.5370
  142SAPE   H8Y15579   1.131   2.679   9.512 -0.1651 -0.8361  1.5029
  142SAPE   C3915580   1.279   2.549   9.406  0.0779  0.6734  0.1998
  142SAPE   H9X15581   1.188   2.487   9.393  1.6481 -1.6772  0.0118
  142SAPE   H9Y15582   1.364   2.483   9.432  0.7128  1.2379 -0.3940
  142SAPE  C31015583   1.320   2.613   9.274 -0.0237  0.1296 -0.3601
  142SAPE  H10X15584   1.386   2.541   9.220 -0.7779 -0.2038 -0.8480
  142SAPE  H10Y15585   1.387   2.694   9.311 -0.1228  1.5931 -3.0716
  142SAPE  C31115586   1.223   2.675   9.181 -0.1487  0.3127  0.0275
  142SAPE  H11X15587   1.156   2.748   9.231  0.7491 -0.2868  2.2450
  142SAPE  H11Y15588   1.156   2.598   9.137  0.4313  0.2844 -0.8148
  142SAPE  C31215589   1.295   2.744   9.069 -0.2022 -0.0158  0.2247
  142SAPE  H12X15590   1.364   2.677   9.012  1.0602  1.9174 -0.6494
  142SAPE  H12Y15591   1.361   2.822   9.114  1.1876  0.2427 -2.0521
  142SAPE  C31315592   1.209   2.815   8.966  0.7409 -0.3221 -0.3202
  142SAPE  H13X15593   1.141   2.881   9.023  1.6195 -1.0784  1.7000
  142SAPE  H13Y15594   1.148   2.736   8.918  0.8531 -0.3885 -0.3544
  142SAPE  C31415595   1.285   2.903   8.865 -0.2002  0.1530 -0.4408
  142SAPE  H14X15596   1.344   2.837   8.798 -0.0291  0.4292 -0.5618
  142SAPE  H14Y15597   1.364   2.964   8.913  0.7081 -1.8430  0.7393
  142SAPE  C31515598   1.197   2.984   8.769 -0.3001  0.5102 -0.2635
  142SAPE  H15X15599   1.132   3.047   8.833  1.2585  3.0978 -1.0511
  142SAPE  H15Y15600   1.142   2.899   8.722  0.7378  0.0204 -0.6264
  142SAPE  C31615601   1.279   3.053   8.661 -0.1557 -0.3636 -0.1678
  142SAPE  H16X15602   1.334   2.976   8.604  2.0133  0.6797  0.3948
  142SAPE  H16Y15603   1.355   3.118   8.709 -0.7951  0.6401 -0.4678
  142SAPE  C31715604   1.197   3.138   8.566  0.9026 -0.2037 -0.0504
  142SAPE  H17X15605   1.131   3.211   8.619  1.8310  0.6959 -0.1043
  142SAPE  H17Y15606   1.122   3.070   8.520  1.0362 -1.0549  0.9515
  142SAPE  C31815607   1.278   3.202   8.455  0.0497 -0.1688  0.1214
  142SAPE  H18X15608   1.338   3.288   8.493  0.7599  0.5350 -2.4537
  142SAPE  H18Y15609   1.212   3.241   8.375 -0.3209  0.4578  0.7098
  142SAPE  H18Z15610   1.340   3.122   8.410  0.2922 -1.8065  3.0709
  143SAPE     N15611   2.519   3.365  10.828 -0.0739  0.3949  0.3702
  143SAPE   HN115612   2.576   3.324  10.751  0.9924  0.2658  1.1998
  143SAPE   HN215613   2.559   3.309  10.905  1.4573  1.2888  0.2545
  143SAPE   HN315614   2.416   3.350  10.820  0.0264 -1.3644  1.8727
  143SAPE   C1215615   2.556   3.508  10.852  0.2230  0.7869  0.3043
  143SAPE  H12A15616   2.620   3.515  10.943  2.1627  2.4280 -1.0924
  143SAPE  H12B15617   2.467   3.568  10.882  0.2018  1.2759 -0.6880
  143SAPE   C1115618   2.610   3.570  10.729 -0.2364 -0.4701  0.0737
  143SAPE  H11A15619   2.636   3.672  10.763  0.6027 -0.1969 -1.2727
  143SAPE  H11B15620   2.536   3.568  10.646  0.7012 -2.0662 -0.8013
  143SAPE     P15621   2.869   3.537  10.758 -0.0050 -0.2754 -0.2419
  143SAPE   O1315622   2.843   3.640  10.858  0.5985 -0.4051  0.1306
  143SAPE   O1415623   2.932   3.412  10.808 -0.2780  0.2290 -0.6199
  143SAPE   O1215624   2.729   3.495  10.693 -0.9450  0.1153 -0.1296
  143SAPE   O1115625   2.948   3.605  10.641 -0.3020  0.6914 -0.2489
  143SAPE    C115626   2.893   3.611  10.511  0.8682  0.5078 -0.5089
  143SAPE    HA15627   2.790   3.649  10.527  1.1436  1.8458 -1.6133
  143SAPE    HB15628   2.953   3.686  10.454  1.1753 -0.4876 -1.5292
  143SAPE    C215629   2.911   3.481  10.425  0.1281  0.4017 -0.3583
  143SAPE    HS15630   2.872   3.398  10.489 -0.3222  0.9139  0.0395
  143SAPE   O2115631   3.051   3.460  10.391 -0.0805 -0.5876 -0.3145
  143SAPE   C2115632   3.097   3.346  10.356  0.5574  0.0347  0.3036
  143SAPE   O2215633   3.028   3.242  10.367 -0.7105  0.8970  0.3380
  143SAPE   C2215634   3.252   3.351  10.332  0.1079 -0.5548  0.2937
  143SAPE   H2R15635   3.264   3.430  10.255  0.6998 -0.6521  0.2802
  143SAPE   H2S15636   3.288   3.383  10.432 -0.3313 -0.0848  0.3050
  143SAPE    C315637   2.824   3.493  10.296 -0.1617  0.5366  0.1929
  143SAPE    HX15638   2.865   3.573  10.231  1.1743  0.9826  1.5234
  143SAPE    HY15639   2.719   3.512  10.327  0.4479  0.6384  2.3222
  143SAPE   O3115640   2.826   3.370  10.213  0.4388 -0.0593  0.4632
  143SAPE   C3115641   2.732   3.276  10.251 -0.2330 -0.4565  0.1753
  143SAPE   O3215642   2.647   3.297  10.337 -0.7195 -0.5932  0.1682
  143SAPE   C3215643   2.755   3.147  10.167  0.1690 -0.2153 -0.3014
  143SAPE   H2X15644   2.677   3.071  10.186  0.9434 -0.8338  0.5184
  143SAPE   H2Y15645   2.853   3.114  10.210  0.5729  2.2591  0.8543
  143SAPE   C2315646   3.318   3.219  10.287 -0.8434 -0.6119  0.4125
  143SAPE   H3R15647   3.282   3.197  10.185 -0.7422  1.3754 -0.0926
  143SAPE   H3S15648   3.283   3.135  10.351 -0.7597 -2.3682 -1.7661
  143SAPE   C2415649   3.472   3.228  10.298 -0.2191  0.5026 -0.0409
  143SAPE   H4R15650   3.512   3.130  10.267 -0.2594  0.5268 -0.1703
  143SAPE   H4S15651   3.502   3.235  10.405 -0.5075 -1.7995  0.2428
  143SAPE   C2515652   3.527   3.340  10.217  0.7285 -0.0701  0.4566
  143SAPE   H5R15653   3.541   3.433  10.275  3.3717 -1.0683  1.6141
  143SAPE   C2615654   3.561   3.334  10.084  0.3529 -0.7935 -0.8753
  143SAPE   H6R15655   3.591   3.430  10.040 -1.0207  0.1574  0.2202
  143SAPE   C2715656   3.541   3.216   9.999 -0.2285  0.7032  0.2702
  143SAPE   H7R15657   3.481   3.142  10.056 -1.3376 -0.4731 -2.2461
  143SAPE   H7S15658   3.637   3.160   9.989 -2.0538 -2.4663 -0.9462
  143SAPE   C2815659   3.481   3.247   9.861 -0.5993 -0.4278 -0.7116
  143SAPE   H8R15660   3.420   3.338   9.858  0.1818  0.1410  0.2855
  143SAPE   C2915661   3.497   3.173   9.752 -0.0648 -0.0664  0.3586
  143SAPE   H9R15662   3.463   3.213   9.655 -2.1355 -0.0583  1.0400
  143SAPE  C21015663   3.575   3.044   9.733 -0.3119  0.1984 -0.0133
  143SAPE  H10R15664   3.631   3.009   9.822  1.6497  1.7169 -0.5568
  143SAPE  H10S15665   3.655   3.062   9.658 -1.1732 -1.7754 -1.5084
  143SAPE  C21115666   3.474   2.939   9.700  0.5971 -0.4144 -0.2881
  143SAPE  H11R15667   3.415   2.907   9.787  0.2379  3.4535  1.0797
  143SAPE  C21215668   3.439   2.902   9.574 -0.2703 -0.1688  0.1872
  143SAPE  H12R15669   3.371   2.817   9.554 -1.9165  1.2987 -0.6882
  143SAPE  C21315670   3.504   2.956   9.449  0.0545  0.2954  0.4637
  143SAPE  H13R15671   3.590   2.888   9.430  1.1058  2.0942 -1.6414
  143SAPE  H13S15672   3.553   3.053   9.468 -0.5319  0.3894  1.5664
  143SAPE  C21415673   3.413   2.971   9.326  0.3775 -0.6106  0.3809
  143SAPE  H14R15674   3.304   2.976   9.345  0.7429  1.7167  2.3873
  143SAPE  C21515675   3.463   2.976   9.204 -0.4230 -0.3321  0.2619
  143SAPE  H15R15676   3.390   2.974   9.122 -2.1792  0.2976  1.7485
  143SAPE  C21615677   3.608   2.967   9.168  0.1033 -0.1344 -0.4112
  143SAPE  H16R15678   3.643   2.866   9.200  2.3150  1.1005  1.2870
  143SAPE  H16S15679   3.662   3.029   9.242  1.8787 -1.5744 -0.4289
  143SAPE  C21715680   3.650   3.003   9.025 -0.3013 -0.2849 -0.5808
  143SAPE  H17R15681   3.622   3.104   8.988  0.5214  0.0908 -0.1899
  143SAPE  H17S15682   3.600   2.933   8.954  0.2071 -1.9674  0.6636
  143SAPE  C21815683   3.802   2.982   9.002  0.3289 -0.3402  0.4313
  143SAPE  H18R15684   3.816   2.873   9.013  1.5829 -0.7804 -3.7386
  143SAPE  H18S15685   3.872   3.039   9.068  1.8405 -1.9500  0.2930
  143SAPE  C21915686   3.829   3.003   8.854 -0.2109  0.4108 -0.1275
  143SAPE  H19R15687   3.782   3.099   8.824  0.2695  0.8776  0.5896
  143SAPE  H19S15688   3.766   2.928   8.800 -1.6348  0.7430  1.0159
  143SAPE  C22015689   3.974   2.993   8.812  0.8308 -0.1115  0.3804
  143SAPE  H20R15690   4.021   2.909   8.867 -1.3916 -1.9842 -0.4112
  143SAPE  H20S15691   4.032   3.086   8.824  2.0043 -0.5435 -1.5267
  143SAPE  H20T15692   3.990   2.982   8.703 -1.6674 -0.5947 -0.0105
  143SAPE   C3315693   2.768   3.191  10.022  0.2033 -0.0571  0.1590
  143SAPE   H3X15694   2.796   3.110   9.951 -0.0795 -0.8446  0.9257
  143SAPE   H3Y15695   2.859   3.254  10.008  1.1423 -1.9706 -3.7342
  143SAPE   C3415696   2.632   3.237   9.972 -0.3655 -0.0023 -0.1164
  143SAPE   H4X15697   2.595   3.323  10.033 -0.2881 -0.4881  0.6239
  143SAPE   H4Y15698   2.556   3.158   9.981 -0.4640  0.1856  0.8027
  143SAPE   C3515699   2.627   3.293   9.830  0.5122  0.3934 -0.0658
  143SAPE   H5X15700   2.718   3.354   9.812 -0.9854  2.7861 -0.0168
  143SAPE   H5Y15701   2.535   3.355   9.838 -1.8761 -3.0723  1.8312
  143SAPE   C3615702   2.610   3.181   9.717 -0.0146  0.6341  0.1487
  143SAPE   H6X15703   2.517   3.121   9.726 -0.1207  0.5713 -1.2024
  143SAPE   H6Y15704   2.697   3.112   9.716 -1.1596 -0.8563 -0.2053
  143SAPE   C3715705   2.599   3.253   9.583 -0.0571  0.0969 -1.0289
  143SAPE   H7X15706   2.686   3.320   9.567 -1.1759  2.0917  0.7453
  143SAPE   H7Y15707   2.505   3.311   9.576 -2.5138 -3.1938  1.2851
  143SAPE   C3815708   2.590   3.148   9.468  0.2987 -0.1211  0.4940
  143SAPE   H8X15709   2.501   3.084   9.486 -2.2768  2.3294 -2.4120
  143SAPE   H8Y15710   2.670   3.071   9.467  1.9902  1.5577 -1.0676
  143SAPE   C3915711   2.590   3.213   9.328 -0.1298 -0.6592  0.0425
  143SAPE   H9X15712   2.690   3.255   9.301 -0.7944  1.3232  0.4932
  143SAPE   H9Y15713   2.526   3.304   9.325  0.9443  0.1340  0.1414
  143SAPE  C31015714   2.536   3.110   9.231  0.1671  0.3050 -0.5401
  143SAPE  H10X15715   2.435   3.070   9.258 -0.8048  1.7720 -1.8157
  143SAPE  H10Y15716   2.610   3.028   9.236 -0.0022  0.1524 -0.5218
  143SAPE  C31115717   2.548   3.150   9.087 -0.2308 -0.3278 -0.0440
  143SAPE  H11X15718   2.521   3.061   9.026 -1.9413 -0.1732  0.4534
  143SAPE  H11Y15719   2.651   3.176   9.052 -1.2008 -0.0390 -2.9313
  143SAPE  C31215720   2.449   3.264   9.047  0.0627  0.0493  0.1942
  143SAPE  H12X15721   2.441   3.324   9.140 -0.3736  1.4006 -0.6885
  143SAPE  H12Y15722   2.344   3.233   9.027  0.5602 -0.5255 -1.7404
  143SAPE  C31315723   2.505   3.346   8.929  0.0514 -0.6389 -0.1691
  143SAPE  H13X15724   2.425   3.415   8.896  1.1194  1.0455  0.6310
  143SAPE  H13Y15725   2.537   3.284   8.843  1.5352  0.5565 -0.5289
  143SAPE  C31415726   2.629   3.429   8.961  0.6467 -0.5813 -1.1648
  143SAPE  H14X15727   2.637   3.511   8.887  0.6960 -0.4256 -0.9899
  143SAPE  H14Y15728   2.722   3.369   8.956  0.6046 -0.7586 -0.1747
  143SAPE  C31515729   2.614   3.502   9.098 -0.1407  0.1091  0.2965
  143SAPE  H15X15730   2.629   3.428   9.180 -0.9482 -1.5518 -0.9803
  143SAPE  H15Y15731   2.510   3.538   9.108 -0.4134 -0.9044  1.3976
  143SAPE  C31615732   2.718   3.611   9.122 -0.6380 -0.2457  0.3265
  143SAPE  H16X15733   2.721   3.679   9.034 -0.6803 -0.6857 -0.0139
  143SAPE  H16Y15734   2.821   3.572   9.130 -1.2265 -1.7745  0.7804
  143SAPE  C31715735   2.677   3.696   9.239  0.0630  0.0938 -0.8830
  143SAPE  H17X15736   2.582   3.749   9.214  0.4136  0.7293 -0.8882
  143SAPE  H17Y15737   2.749   3.774   9.273  0.1651  0.3954 -1.7842
  143SAPE  C31815738   2.655   3.617   9.380 -0.5473  0.4666 -0.2998
  143SAPE  H18X15739   2.658   3.686   9.467 -0.5444 -1.3972  1.2392
  143SAPE  H18Y15740   2.745   3.552   9.392  0.2672  1.2345 -1.9127
  143SAPE  H18Z15741   2.563   3.556   9.387 -0.5739  0.6402  1.0390
  144SAPE     N15742   3.621   0.754  10.684 -0.1494 -0.6525  0.5442
  144SAPE   HN115743   3.657   0.771  10.588 -1.1077  1.4013  0.4932
  144SAPE   HN215744   3.521   0.782  10.690  0.2676  1.4766 -1.1109
  144SAPE   HN315745   3.665   0.808  10.762 -1.5127  1.1242  0.1617
  144SAPE   C1215746   3.631   0.603  10.711 -0.3608  0.3643 -0.2163
  144SAPE  H12A15747   3.560   0.543  10.651  1.9620 -1.1635 -1.5955
  144SAPE  H12B15748   3.614   0.585  10.819 -0.4680 -0.9604 -0.4456
  144SAPE   C1115749   3.771   0.558  10.661  1.2588  0.1652  0.6772
  144SAPE  H11A15750   3.763   0.570  10.551 -0.0985  3.8755  0.9953
  144SAPE  H11B15751   3.793   0.457  10.701  0.4758  0.9446  3.3802
  144SAPE     P15752   4.011   0.602  10.765 -0.0155  0.4534 -0.0782
  144SAPE   O1315753   4.003   0.550  10.905  0.1318 -0.0760  0.1046
  144SAPE   O1415754   4.081   0.515  10.670 -0.6830 -0.6537 -0.4044
  144SAPE   O1215755   3.870   0.650  10.710  0.3154  0.1667  0.5841
  144SAPE   O1115756   4.100   0.732  10.779  0.1318 -0.3272 -0.0301
  144SAPE    C115757   4.070   0.859  10.727  0.6812 -0.3662  0.3769
  144SAPE    HA15758   3.983   0.905  10.778 -0.0405 -0.5274 -0.6745
  144SAPE    HB15759   4.157   0.926  10.748  0.9486 -0.1834 -1.1970
  144SAPE    C215760   4.074   0.872  10.568  0.3849  0.4752 -0.0191
  144SAPE    HS15761   3.991   0.810  10.528  0.7007  0.1872 -0.2311
  144SAPE   O2115762   4.198   0.819  10.516 -0.4826  0.1853  0.7861
  144SAPE   C2115763   4.189   0.767  10.397 -0.0595  0.0066 -0.3188
  144SAPE   O2215764   4.080   0.759  10.338  0.5278 -0.6890 -0.0305
  144SAPE   C2215765   4.325   0.719  10.354  0.4779  0.3296 -0.2414
  144SAPE   H2R15766   4.391   0.809  10.356 -1.1832  1.6361  3.0254
  144SAPE   H2S15767   4.372   0.651  10.428  1.2499 -0.4110 -1.3754
  144SAPE    C315768   4.059   1.024  10.536  0.2650 -0.3679  0.6901
  144SAPE    HX15769   4.137   1.078  10.593 -0.8026  0.4821  1.3920
  144SAPE    HY15770   3.961   1.058  10.576  0.3286  0.9843 -0.2430
  144SAPE   O3115771   4.062   1.048  10.392  0.2702  0.3764  0.0193
  144SAPE   C3115772   4.171   1.095  10.340 -0.4964  0.5336  0.4684
  144SAPE   O3215773   4.261   1.145  10.405 -0.8636  0.2292  0.2206
  144SAPE   C3215774   4.162   1.077  10.182  0.1506  0.1942 -0.2426
  144SAPE   H2X15775   4.096   1.159  10.145  0.9283  0.3024 -1.4495
  144SAPE   H2Y15776   4.104   0.984  10.159  0.8665 -0.4031  0.3231
  144SAPE   C2315777   4.317   0.659  10.209 -1.1480 -0.4975 -0.2171
  144SAPE   H3R15778   4.255   0.727  10.147  1.6360  0.7064 -1.8766
  144SAPE   H3S15779   4.251   0.570  10.222 -1.1816 -0.5723 -0.8620
  144SAPE   C2415780   4.451   0.635  10.147  0.1948  0.9108 -0.6701
  144SAPE   H4R15781   4.525   0.581  10.210 -1.1227 -2.0593 -1.4809
  144SAPE   H4S15782   4.501   0.731  10.121  0.4389  0.6017 -1.3421
  144SAPE   C2515783   4.427   0.546  10.037  0.8687 -0.4087 -0.1572
  144SAPE   H5R15784   4.389   0.445  10.056  0.3669 -0.1311  0.3284
  144SAPE   C2615785   4.452   0.585   9.909  0.2078  0.0292 -0.3220
  144SAPE   H6R15786   4.448   0.509   9.830  1.6253 -0.5102  0.1010
  144SAPE   C2715787   4.511   0.712   9.853  0.0339 -0.2923  0.4051
  144SAPE   H7R15788   4.576   0.771   9.921 -1.0113 -0.3557  1.4887
  144SAPE   H7S15789   4.427   0.780   9.828  2.0534  2.2533  0.1292
  144SAPE   C2815790   4.599   0.692   9.732 -0.0842  0.2255  0.1612
  144SAPE   H8R15791   4.705   0.711   9.757  0.2352 -2.0117  0.7276
  144SAPE   C2915792   4.566   0.661   9.597  0.4069 -0.7006 -0.9299
  144SAPE   H9R15793   4.654   0.639   9.534  1.1739 -1.8578  0.4707
  144SAPE  C21015794   4.425   0.647   9.539 -0.0274 -0.3409  0.4592
  144SAPE  H10R15795   4.353   0.658   9.623 -0.1306 -0.3275  0.3683
  144SAPE  H10S15796   4.398   0.547   9.500 -2.1367 -0.1743  1.3614
  144SAPE  C21115797   4.399   0.771   9.449 -0.4884 -0.7923  0.6604
  144SAPE  H11R15798   4.399   0.868   9.501 -0.7584  0.0188 -0.7919
  144SAPE  C21215799   4.392   0.774   9.313  0.2283  0.0200 -0.2999
  144SAPE  H12R15800   4.388   0.873   9.265  4.1184  0.3552 -0.2297
  144SAPE  C21315801   4.410   0.655   9.216 -0.2267 -0.2498 -0.2113
  144SAPE  H13R15802   4.316   0.604   9.189  0.8772 -2.1357 -0.7050
  144SAPE  H13S15803   4.476   0.588   9.276 -0.6469 -0.9672 -0.5360
  144SAPE  C21415804   4.487   0.696   9.092  0.1370 -0.0747  0.7506
  144SAPE  H14R15805   4.592   0.666   9.099  0.5450  1.4178  1.4788
  144SAPE  C21515806   4.442   0.744   8.972  0.7338  0.3144  1.0126
  144SAPE  H15R15807   4.510   0.773   8.891 -1.9424 -0.0651 -1.5314
  144SAPE  C21615808   4.295   0.773   8.945 -0.8484 -0.1789  0.2190
  144SAPE  H16R15809   4.278   0.882   8.948  0.0139 -0.0239 -0.1210
  144SAPE  H16S15810   4.235   0.721   9.023 -2.2538 -1.0144 -1.3491
  144SAPE  C21715811   4.242   0.711   8.811 -0.0117 -0.3398 -0.2860
  144SAPE  H17R15812   4.220   0.604   8.835 -1.7860 -0.1933 -1.0941
  144SAPE  H17S15813   4.323   0.703   8.736 -0.7371  0.7125 -1.2060
  144SAPE  C21815814   4.112   0.768   8.744  0.4467 -0.5184 -0.0358
  144SAPE  H18R15815   4.030   0.764   8.819 -0.4853 -2.6214 -1.1022
  144SAPE  H18S15816   4.091   0.697   8.662 -0.0920  1.2352 -1.4875
  144SAPE  C21915817   4.128   0.912   8.686  0.6690  0.1692  0.3011
  144SAPE  H19R15818   4.215   0.899   8.618  0.9292  1.0857  0.4368
  144SAPE  H19S15819   4.170   0.978   8.765  0.1938  0.9728 -0.0989
  144SAPE  C22015820   4.013   0.981   8.617 -0.6600  0.1508 -0.2684
  144SAPE  H20R15821   4.048   1.064   8.552 -1.6502  1.0464  0.3112
  144SAPE  H20S15822   3.941   1.034   8.682  0.5761  1.3820  0.1465
  144SAPE  H20T15823   3.949   0.902   8.571 -0.4912 -0.1057 -0.0708
  144SAPE   C3315824   4.296   1.087  10.108 -0.1848  0.8094 -0.0269
  144SAPE   H3X15825   4.383   1.044  10.163  0.4823 -1.0937 -2.3722
  144SAPE   H3Y15826   4.314   1.196  10.096 -1.0494  0.9455 -0.1419
  144SAPE   C3415827   4.298   1.028   9.969 -0.8794 -0.2660 -0.1618
  144SAPE   H4X15828   4.303   0.919   9.990  1.2166 -0.7106 -2.4693
  144SAPE   H4Y15829   4.390   1.046   9.909 -0.2626  1.0794  1.1332
  144SAPE   C3515830   4.175   1.065   9.877 -0.3936 -0.2847  0.3594
  144SAPE   H5X15831   4.183   1.171   9.844 -2.1442 -0.2180  0.0214
  144SAPE   H5Y15832   4.084   1.042   9.937  0.9501  2.1896  3.6479
  144SAPE   C3615833   4.196   0.985   9.751 -0.2588  0.6377 -0.6322
  144SAPE   H6X15834   4.189   0.875   9.764 -1.3309  0.3269 -3.3007
  144SAPE   H6Y15835   4.295   0.996   9.703  0.0488  0.3249 -0.0835
  144SAPE   C3715836   4.089   1.035   9.650 -0.2442 -0.1065  0.0506
  144SAPE   H7X15837   4.107   1.142   9.628 -0.1208 -0.3075 -0.8466
  144SAPE   H7Y15838   3.991   1.037   9.704 -1.2155  1.2136 -1.6640
  144SAPE   C3815839   4.087   0.951   9.528  0.6049 -0.3310  0.5849
  144SAPE   H8X15840   4.057   0.846   9.549  1.3802 -0.4108  1.3141
  144SAPE   H8Y15841   4.181   0.955   9.469  0.4910 -2.7576  0.1196
  144SAPE   C3915842   3.984   1.008   9.430  0.6196  0.6139  0.3200
  144SAPE   H9X15843   4.006   1.115   9.408 -1.5965  0.6628 -2.1522
  144SAPE   H9Y15844   3.882   1.002   9.474  0.1390  0.9697 -0.6982
  144SAPE  C31015845   3.977   0.937   9.293  0.1263  0.8117 -0.1879
  144SAPE  H10X15846   3.915   0.846   9.306  0.7425  0.6220  1.9175
  144SAPE  H10Y15847   4.078   0.897   9.272  1.1182  2.2547  1.5601
  144SAPE  C31115848   3.922   1.022   9.181 -0.0364  0.2263 -0.2635
  144SAPE  H11X15849   3.992   1.105   9.159  0.1768 -0.4444 -2.3697
  144SAPE  H11Y15850   3.827   1.061   9.223 -1.0005 -0.8352 -1.3667
  144SAPE  C31215851   3.879   0.959   9.042 -0.0444  0.4485 -0.7277
  144SAPE  H12X15852   3.956   0.887   9.011 -0.1450 -0.4665  1.0015
  144SAPE  H12Y15853   3.876   1.035   8.961 -1.0337  0.9572 -0.2326
  144SAPE  C31315854   3.745   0.904   9.045  0.1039 -0.0007 -0.8185
  144SAPE  H13X15855   3.661   0.969   9.076 -0.0232 -0.4363 -0.2179
  144SAPE  H13Y15856   3.748   0.816   9.114 -0.0807 -0.4295 -1.3540
  144SAPE  C31415857   3.708   0.847   8.906 -0.5650 -0.2286 -0.4363
  144SAPE  H14X15858   3.796   0.806   8.852  0.8399  0.7632  1.0230
  144SAPE  H14Y15859   3.688   0.930   8.835  3.0702  0.7272 -0.5377
  144SAPE  C31515860   3.596   0.739   8.913  0.2378 -0.5837 -0.2575
  144SAPE  H15X15861   3.533   0.788   8.990  2.5599  0.0381  1.3809
  144SAPE  H15Y15862   3.625   0.639   8.952  0.4691  0.8164  3.5915
  144SAPE  C31615863   3.514   0.723   8.783  0.0578 -0.0453  0.4471
  144SAPE  H16X15864   3.587   0.721   8.698 -0.9218  3.2322 -0.6406
  144SAPE  H16Y15865   3.452   0.811   8.755  2.2411  1.0382 -1.3689
  144SAPE  C31715866   3.419   0.601   8.782  0.4249  0.3056  0.2484
  144SAPE  H17X15867   3.343   0.605   8.863  4.2557 -1.8840  4.3984
  144SAPE  H17Y15868   3.486   0.520   8.817  0.8929  0.9491  0.8703
  144SAPE  C31815869   3.359   0.570   8.641  0.7442 -0.2908 -0.9220
  144SAPE  H18X15870   3.329   0.463   8.633 -1.5653  0.2440 -0.2948
  144SAPE  H18Y15871   3.427   0.595   8.557 -1.1311 -0.3661 -2.5573
  144SAPE  H18Z15872   3.266   0.627   8.618  1.4703  1.1183 -0.4520
  145SAPE     N15873   0.634   0.517  11.430 -0.3065 -0.4215  0.2285
  145SAPE   HN115874   0.659   0.609  11.472 -1.4975  1.1291 -2.2699
  145SAPE   HN215875   0.546   0.481  11.472  0.5595 -1.6869  1.0375
  145SAPE   HN315876   0.704   0.449  11.466 -1.6048 -1.6564  0.4936
  145SAPE   C1215877   0.638   0.513  11.275 -0.2113 -0.2092 -0.4481
  145SAPE  H12A15878   0.585   0.426  11.231 -3.8055  1.8554 -0.5719
  145SAPE  H12B15879   0.746   0.496  11.254 -0.7728 -1.2861 -2.6379
  145SAPE   C1115880   0.602   0.652  11.212  0.2403 -0.1427  0.5650
  145SAPE  H11A15881   0.639   0.646  11.108 -1.1664 -1.1075  0.0851
  145SAPE  H11B15882   0.661   0.728  11.268 -0.3037  2.2589 -1.9284
  145SAPE     P15883   0.411   0.803  11.138  0.2335  0.4539  0.1932
  145SAPE   O1315884   0.276   0.842  11.186 -0.5442  0.2388 -0.1438
  145SAPE   O1415885   0.518   0.904  11.145 -0.4804  0.5140 -0.0207
  145SAPE   O1215886   0.461   0.675  11.225 -0.4580 -0.2682 -0.0577
  145SAPE   O1115887   0.399   0.739  10.994  0.3486 -0.4310 -0.5350
  145SAPE    C115888   0.307   0.626  10.983 -0.1007  0.3054 -0.2745
  145SAPE    HA15889   0.322   0.552  11.065 -1.7327 -0.0040 -0.2135
  145SAPE    HB15890   0.202   0.656  11.007 -0.5001 -1.8433  0.9540
  145SAPE    C215891   0.309   0.558  10.849  0.2700  0.2446  0.1410
  145SAPE    HS15892   0.232   0.478  10.858  1.7208 -0.9691  3.0686
  145SAPE   O2115893   0.441   0.502  10.811 -0.0395 -0.1388 -0.4730
  145SAPE   C2115894   0.469   0.379  10.850 -1.0907 -1.5072  0.4823
  145SAPE   O2215895   0.403   0.293  10.899 -0.0802  0.0213  0.1831
  145SAPE   C2215896   0.614   0.353  10.796 -0.3027 -0.1598  0.1130
  145SAPE   H2R15897   0.656   0.455  10.786 -2.0271  0.6069  0.2967
  145SAPE   H2S15898   0.671   0.294  10.871  1.9202  3.5024  1.5827
  145SAPE    C315899   0.257   0.653  10.735 -0.4905 -0.5037  0.2329
  145SAPE    HX15900   0.320   0.744  10.735 -1.1957 -0.0085  0.9910
  145SAPE    HY15901   0.155   0.688  10.762 -1.0382 -0.8111 -1.2890
  145SAPE   O3115902   0.254   0.585  10.602  0.2815  0.6301 -0.1641
  145SAPE   C3115903   0.295   0.664  10.499  0.5614 -0.1988  0.6010
  145SAPE   O3215904   0.335   0.778  10.523 -0.3027  0.1994  0.7459
  145SAPE   C3215905   0.286   0.602  10.360 -0.4715  0.0921 -0.7840
  145SAPE   H2X15906   0.178   0.579  10.348 -1.1135  1.6924  1.3827
  145SAPE   H2Y15907   0.341   0.505  10.358  1.2664  0.9604  1.4129
  145SAPE   C2315908   0.614   0.283  10.663 -0.7557 -0.2510  0.2121
  145SAPE   H3R15909   0.567   0.183  10.672  0.3788 -0.6718  2.1255
  145SAPE   H3S15910   0.719   0.270  10.631 -0.0577  2.6044  1.0601
  145SAPE   C2415911   0.542   0.344  10.544 -0.3590  0.7286 -0.4322
  145SAPE   H4R15912   0.437   0.362  10.576  0.0984  1.2468  0.8667
  145SAPE   H4S15913   0.534   0.273  10.459  0.4833 -1.0760  0.9417
  145SAPE   C2515914   0.601   0.478  10.497  0.0965  0.2392 -0.6835
  145SAPE   H5R15915   0.582   0.560  10.567 -0.6805  0.1153 -0.7364
  145SAPE   C2615916   0.675   0.499  10.387  0.1579  0.0832 -0.2799
  145SAPE   H6R15917   0.713   0.596  10.352  1.2054 -0.8106 -1.7193
  145SAPE   C2715918   0.714   0.398  10.284  0.3834  0.8619 -0.1226
  145SAPE   H7R15919   0.674   0.296  10.298 -0.2852  1.2090  0.5878
  145SAPE   H7S15920   0.823   0.382  10.277  0.3272 -0.7304  1.9001
  145SAPE   C2815921   0.662   0.447  10.150  0.0232  0.1439  0.3164
  145SAPE   H8R15922   0.558   0.481  10.160 -0.7970 -1.3165 -2.3234
  145SAPE   C2915923   0.725   0.443  10.028 -0.5449  0.1265  0.3644
  145SAPE   H9R15924   0.685   0.491   9.938  0.3380 -1.4026 -0.8891
  145SAPE  C21015925   0.869   0.388  10.002 -0.0932 -0.1649  0.0886
  145SAPE  H10R15926   0.924   0.353  10.092  1.0090  2.7476  0.6629
  145SAPE  H10S15927   0.935   0.474   9.977 -2.1017  1.3697 -0.2042
  145SAPE  C21115928   0.889   0.280   9.901  0.0671 -0.3077  0.0073
  145SAPE  H11R15929   0.810   0.204   9.911 -0.1769 -0.1029 -0.3286
  145SAPE  C21215930   0.991   0.261   9.816  0.3410 -0.1595 -0.1383
  145SAPE  H12R15931   0.999   0.161   9.770 -0.7954 -0.7502  0.9056
  145SAPE  C21315932   1.106   0.353   9.801 -0.1092  0.1581  0.5323
  145SAPE  H13R15933   1.202   0.297   9.792  0.8598  2.0925 -3.1029
  145SAPE  H13S15934   1.121   0.420   9.889  0.8088  2.3202 -1.1705
  145SAPE  C21415935   1.083   0.440   9.685 -0.2112  0.6941  0.6177
  145SAPE  H14R15936   1.003   0.513   9.707 -1.9723 -0.8610 -0.3513
  145SAPE  C21515937   1.135   0.430   9.564 -1.0724 -0.7573 -0.0223
  145SAPE  H15R15938   1.114   0.516   9.499  1.3058  0.7911  1.1089
  145SAPE  C21615939   1.244   0.343   9.516 -0.9263  0.4598 -0.0468
  145SAPE  H16R15940   1.218   0.328   9.409 -2.3665  0.5934  0.2618
  145SAPE  H16S15941   1.225   0.240   9.553  1.3153  0.1955  0.4911
  145SAPE  C21715942   1.392   0.382   9.550 -0.6127 -0.2172 -0.0924
  145SAPE  H17R15943   1.470   0.324   9.496 -0.0025 -0.4690  1.0375
  145SAPE  H17S15944   1.403   0.346   9.654 -0.1599  1.7461  0.5872
  145SAPE  C21815945   1.445   0.524   9.527  0.5433 -1.0929  0.0855
  145SAPE  H18R15946   1.551   0.540   9.557  0.3762 -0.2038  0.2264
  145SAPE  H18S15947   1.400   0.588   9.606  2.8346  0.1592  0.4682
  145SAPE  C21915948   1.407   0.585   9.391  0.2197  0.1437  0.3792
  145SAPE  H19R15949   1.432   0.693   9.395  0.1777  0.1498  0.5103
  145SAPE  H19S15950   1.296   0.583   9.386  0.2761 -0.9799 -1.3239
  145SAPE  C22015951   1.475   0.527   9.270  0.0061  0.7725 -0.1089
  145SAPE  H20R15952   1.584   0.528   9.289 -0.2660 -0.6438  1.9386
  145SAPE  H20S15953   1.451   0.571   9.171 -1.6347 -1.0627 -0.5828
  145SAPE  H20T15954   1.471   0.416   9.263 -1.4664  0.8465 -0.8082
  145SAPE   C3315955   0.326   0.705  10.247  0.2512  0.4174 -0.2147
  145SAPE   H3X15956   0.437   0.714  10.258  0.6049 -2.0786 -0.9029
  145SAPE   H3Y15957   0.273   0.801  10.256 -3.6358 -1.6767  1.6740
  145SAPE   C3415958   0.300   0.638  10.112  0.7634  0.3600  0.1524
  145SAPE   H4X15959   0.189   0.637  10.105  0.7806 -0.6331 -0.0558
  145SAPE   H4Y15960   0.330   0.531  10.113 -0.9597 -0.1429  0.4235
  145SAPE   C3515961   0.348   0.714   9.989  0.0562 -0.5449 -0.0259
  145SAPE   H5X15962   0.457   0.736   9.998  0.1491 -0.8690 -0.3055
  145SAPE   H5Y15963   0.303   0.814   9.975  0.2388 -0.4923 -0.2562
  145SAPE   C3615964   0.327   0.625   9.861  0.1319  0.1808 -0.0309
  145SAPE   H6X15965   0.302   0.523   9.898  2.6785 -0.9409 -1.1001
  145SAPE   H6Y15966   0.427   0.608   9.814 -0.5198 -1.5898 -0.9011
  145SAPE   C3715967   0.223   0.684   9.756 -0.8650 -0.7228  0.1790
  145SAPE   H7X15968   0.244   0.793   9.764  0.8048 -0.9680 -0.5085
  145SAPE   H7Y15969   0.119   0.673   9.795 -0.5033 -1.0246  1.0972
  145SAPE   C3815970   0.228   0.630   9.618 -0.4529 -0.3450  0.0981
  145SAPE   H8X15971   0.333   0.634   9.582 -0.0997 -0.3565  1.0865
  145SAPE   H8Y15972   0.158   0.692   9.558  2.7648  3.3390 -0.2686
  145SAPE   C3915973   0.208   0.479   9.607 -0.1922 -0.2869  0.5591
  145SAPE   H9X15974   0.121   0.466   9.676 -0.5015  0.6243  0.3451
  145SAPE   H9Y15975   0.291   0.408   9.625 -0.5408 -1.2151 -1.2857
  145SAPE  C31015976   0.145   0.445   9.468 -1.1329  0.0639 -0.2940
  145SAPE  H10X15977   0.050   0.502   9.455  0.2000  2.1795 -1.4068
  145SAPE  H10Y15978   0.119   0.337   9.468 -2.5030  0.3722  0.2420
  145SAPE  C31115979   0.231   0.472   9.338  0.8809  0.1141 -0.2298
  145SAPE  H11X15980   0.314   0.398   9.332  1.0351  0.2970 -0.3741
  145SAPE  H11Y15981   0.283   0.570   9.350  2.5570 -0.9503  1.7753
  145SAPE  C31215982   0.147   0.454   9.217 -0.2371 -0.4390  0.3203
  145SAPE  H12X15983   0.058   0.520   9.204 -0.4762 -0.9893 -1.0139
  145SAPE  H12Y15984   0.115   0.348   9.219  0.9903 -0.8598 -0.7609
  145SAPE  C31315985   0.210   0.474   9.080  0.0066  0.1272  0.1400
  145SAPE  H13X15986   0.310   0.425   9.077 -0.2175 -0.4105  0.9924
  145SAPE  H13Y15987   0.230   0.583   9.071 -0.6073  0.1255 -1.6197
  145SAPE  C31415988   0.125   0.427   8.964  0.4498 -0.1746 -0.4471
  145SAPE  H14X15989   0.170   0.482   8.879  1.8814  0.0915  0.4483
  145SAPE  H14Y15990   0.023   0.470   8.970  1.1670  1.8326 -1.6465
  145SAPE  C31515991   0.137   0.280   8.930 -0.2974  0.1519 -0.3336
  145SAPE  H15X15992   0.071   0.221   8.998  2.0126 -2.3717 -0.0728
  145SAPE  H15Y15993   0.238   0.247   8.965 -0.0956  0.9060 -0.1807
  145SAPE  C31615994   0.106   0.233   8.796  0.8619 -0.3140  0.1903
  145SAPE  H16X15995   0.164   0.140   8.776  0.6164  0.4602 -5.9482
  145SAPE  H16Y15996   0.144   0.313   8.730 -2.6525  0.5723 -0.9726
  145SAPE  C31715997  -0.037   0.199   8.752  0.2169  0.0836  0.4636
  145SAPE  H17X15998  -0.108   0.267   8.804 -1.2822 -0.6413 -0.5940
  145SAPE  H17Y15999  -0.046   0.096   8.791  0.2071 -0.0952 -0.0036
  145SAPE  C31816000  -0.059   0.209   8.598  0.7030  0.5050 -0.3180
  145SAPE  H18X16001  -0.118   0.301   8.577  0.0268 -0.4764 -3.0656
  145SAPE  H18Y16002  -0.135   0.135   8.567  0.8329  0.0436  0.4571
  145SAPE  H18Z16003   0.028   0.204   8.529 -1.4360 -2.2057 -3.1078
  146SAPE     N16004   0.156   4.012  10.556 -0.6929  0.1605 -0.0495
  146SAPE   HN116005   0.149   4.046  10.654  1.4882 -0.8076  0.5078
  146SAPE   HN216006   0.062   3.983  10.523 -1.0142  2.7264 -1.7001
  146SAPE   HN316007   0.225   3.935  10.565 -1.7715 -0.6319  2.3135
  146SAPE   C1216008   0.213   4.126  10.479  0.1070 -0.6540 -0.3205
  146SAPE  H12A16009   0.141   4.210  10.488  0.2444 -0.4847 -0.7778
  146SAPE  H12B16010   0.210   4.100  10.371  0.1282 -1.8677 -0.0448
  146SAPE   C1116011   0.360   4.150  10.519 -0.1806 -0.6678  0.4897
  146SAPE  H11A16012   0.412   4.235  10.470  0.6073 -1.4406 -0.0405
  146SAPE  H11B16013   0.421   4.073  10.468 -0.6224  0.1305 -1.3351
  146SAPE     P16014   0.354   4.298  10.734 -0.4882 -0.1663  0.3356
  146SAPE   O1316015   0.206   4.321  10.741  0.2629 -0.0718  0.2989
  146SAPE   O1416016   0.427   4.302  10.864  0.2522  0.4099  0.3615
  146SAPE   O1216017   0.382   4.162  10.660 -0.1198 -0.4465  0.0853
  146SAPE   O1116018   0.414   4.406  10.643 -0.3416 -0.3375  0.0450
  146SAPE    C116019   0.555   4.407  10.611  0.4052 -0.0946  0.0653
  146SAPE    HA16020   0.606   4.450  10.699 -0.4759  1.6341 -0.2323
  146SAPE    HB16021   0.600   4.307  10.594  0.2125  0.0614 -1.5370
  146SAPE    C216022   0.581   4.502  10.491 -0.2053  0.6859 -0.4689
  146SAPE    HS16023   0.526   4.595  10.518 -1.4824  0.1377 -1.1058
  146SAPE   O2116024   0.513   4.439  10.380 -0.1633 -0.2744  0.5707
  146SAPE   C2116025   0.472   4.512  10.277 -0.6966 -0.4920 -0.1824
  146SAPE   O2216026   0.463   4.634  10.279  0.6360  0.3570 -0.4541
  146SAPE   C2216027   0.430   4.426  10.159  0.0755  0.3974  0.1401
  146SAPE   H2R16028   0.513   4.353  10.147  0.5413  0.4217  2.7299
  146SAPE   H2S16029   0.333   4.380  10.187  0.5835 -0.5407  0.3957
  146SAPE    C316030   0.741   4.534  10.466  0.3130 -0.1586 -0.5868
  146SAPE    HX16031   0.803   4.442  10.476 -0.1552 -0.3375  1.0075
  146SAPE    HY16032   0.776   4.602  10.547 -0.3668  0.6621 -0.9649
  146SAPE   O3116033   0.763   4.590  10.335 -0.0692  0.1358 -0.0943
  146SAPE   C3116034   0.752   4.715  10.318 -0.5216 -0.4760 -0.2276
  146SAPE   O3216035   0.742   4.796  10.411  0.1892  0.2477  0.3574
  146SAPE   C3216036   0.757   4.748  10.168  0.3555 -0.2504 -0.3910
  146SAPE   H2X16037   0.675   4.685  10.127 -1.3660  0.3157  1.9919
  146SAPE   H2Y16038   0.860   4.728  10.133 -0.0746 -1.0063 -1.3017
  146SAPE   C2316039   0.414   4.501  10.019  0.3650 -0.4954 -0.3158
  146SAPE   H3R16040   0.455   4.604  10.031  1.7693 -0.8361 -1.8778
  146SAPE   H3S16041   0.305   4.505   9.997  0.5512 -0.8595 -1.3598
  146SAPE   C2416042   0.494   4.433   9.909 -0.2768 -1.0743  0.5540
  146SAPE   H4R16043   0.602   4.437   9.934 -0.6263 -1.7278  2.3073
  146SAPE   H4S16044   0.487   4.490   9.814 -0.6362  1.7042  2.1212
  146SAPE   C2516045   0.462   4.287   9.886  0.2010 -0.2483  0.3376
  146SAPE   H5R16046   0.542   4.212   9.889 -0.8374 -1.5114 -1.7945
  146SAPE   C2616047   0.334   4.246   9.848 -0.3983 -0.5834 -0.5146
  146SAPE   H6R16048   0.316   4.137   9.846  0.6875 -0.7755 -1.3784
  146SAPE   C2716049   0.215   4.330   9.821  0.3094 -0.4375  0.2684
  146SAPE   H7R16050   0.250   4.425   9.774 -0.2421 -1.0931 -1.5052
  146SAPE   H7S16051   0.150   4.334   9.911  0.2982 -1.0011  0.2878
  146SAPE   C2816052   0.128   4.271   9.716 -1.1839 -0.3855  0.2667
  146SAPE   H8R16053   0.117   4.161   9.713 -0.2074 -0.5645  1.8000
  146SAPE   C2916054   0.050   4.346   9.631 -0.5494  0.3759  0.0089
  146SAPE   H9R16055  -0.014   4.288   9.563  1.4204 -1.8168 -0.1356
  146SAPE  C21016056   0.044   4.499   9.632 -0.7373  0.3831  0.3205
  146SAPE  H10R16057   0.100   4.525   9.539  0.3673  1.2929  1.2104
  146SAPE  H10S16058   0.104   4.538   9.717 -0.6020  1.9363 -0.4455
  146SAPE  C21116059  -0.105   4.547   9.641 -0.2859 -0.0115  0.6580
  146SAPE  H11R16060  -0.160   4.558   9.735 -2.8410  2.0707 -0.9232
  146SAPE  C21216061  -0.185   4.571   9.536  0.4183  0.3980  0.0295
  146SAPE  H12R16062  -0.287   4.602   9.562  0.2132  0.2470 -0.5765
  146SAPE  C21316063  -0.147   4.570   9.388  0.6465 -0.2510 -0.2270
  146SAPE  H13R16064  -0.042   4.538   9.370  0.5301 -2.3553  2.1957
  146SAPE  H13S16065  -0.139   4.675   9.354  0.6998  0.2368  1.2479
  146SAPE  C21416066  -0.263   4.513   9.301 -0.9069 -0.2115 -0.5405
  146SAPE  H14R16067  -0.337   4.455   9.358 -2.1747  1.2831 -0.5891
  146SAPE  C21516068  -0.291   4.539   9.172  0.1341  1.4845  0.3668
  146SAPE  H15R16069  -0.383   4.499   9.128  1.6358 -0.4326 -1.1654
  146SAPE  C21616070  -0.214   4.643   9.094  1.1578  0.0357 -0.2510
  146SAPE  H16R16071  -0.106   4.652   9.116  1.3451 -3.2439  0.7199
  146SAPE  H16S16072  -0.245   4.748   9.113  1.2099  0.2158 -1.1352
  146SAPE  C21716073  -0.221   4.607   8.941 -1.3226  0.2564  0.3129
  146SAPE  H17R16074  -0.322   4.589   8.898 -0.7967 -1.6142 -0.1966
  146SAPE  H17S16075  -0.156   4.522   8.912 -3.5550 -0.9100 -1.6606
  146SAPE  C21816076  -0.164   4.734   8.865 -0.7547  0.0804  0.0411
  146SAPE  H18R16077  -0.064   4.761   8.904 -1.3298 -0.5613  2.0899
  146SAPE  H18S16078  -0.234   4.812   8.900  1.2582  1.1970  1.8155
  146SAPE  C21916079  -0.174   4.723   8.715 -0.2126  0.4499  0.1807
  146SAPE  H19R16080  -0.281   4.707   8.690 -0.3831 -0.6423  1.4880
  146SAPE  H19S16081  -0.117   4.632   8.689 -1.3558  0.1782 -1.5255
  146SAPE  C22016082  -0.129   4.850   8.632 -0.4393 -0.5103  0.1429
  146SAPE  H20R16083  -0.045   4.901   8.683 -1.2021  1.5584 -0.5179
  146SAPE  H20S16084  -0.214   4.921   8.624  0.1709  0.3216  0.8327
  146SAPE  H20T16085  -0.078   4.821   8.538 -0.8820 -0.7181 -0.0385
  146SAPE   C3316086   0.708   4.891  10.134  0.3563 -0.5811 -0.1480
  146SAPE   H3X16087   0.782   4.971  10.154  1.4899 -1.7445  0.4689
  146SAPE   H3Y16088   0.621   4.908  10.201  0.5920 -0.5113  0.1417
  146SAPE   C3416089   0.657   4.885   9.985 -0.3418  0.2118  0.1195
  146SAPE   H4X16090   0.614   4.984   9.957  0.5442  0.3350 -0.8641
  146SAPE   H4Y16091   0.578   4.808   9.979  0.2097 -0.4429  1.0166
  146SAPE   C3516092   0.757   4.840   9.878 -0.2747  0.3159 -0.1262
  146SAPE   H5X16093   0.776   4.731   9.887  0.6287  0.5697  1.3844
  146SAPE   H5Y16094   0.859   4.883   9.893 -0.7366  1.5456 -0.3984
  146SAPE   C3616095   0.719   4.867   9.732  0.0039 -0.1572  0.3560
  146SAPE   H6X16096   0.804   4.837   9.667 -0.7410 -0.5752 -0.4492
  146SAPE   H6Y16097   0.705   4.974   9.706  0.0192 -0.4901 -1.1277
  146SAPE   C3716098   0.601   4.785   9.685  0.3369  0.2515 -0.5431
  146SAPE   H7X16099   0.517   4.812   9.752  1.4124  2.1414  0.1098
  146SAPE   H7Y16100   0.602   4.674   9.699  1.5975  0.3840  0.6519
  146SAPE   C3816101   0.560   4.818   9.540 -0.0327 -0.4203 -0.1361
  146SAPE   H8X16102   0.644   4.792   9.472 -0.0597  2.5818 -1.4707
  146SAPE   H8Y16103   0.547   4.928   9.536 -0.5913 -0.5077 -0.8806
  146SAPE   C3916104   0.429   4.760   9.493 -0.0209 -0.1484 -0.2638
  146SAPE   H9X16105   0.348   4.788   9.563  0.1913 -0.1680 -0.0085
  146SAPE   H9Y16106   0.430   4.650   9.480  1.1482  0.1860 -4.2722
  146SAPE  C31016107   0.388   4.823   9.354  0.2100  0.3587 -0.4790
  146SAPE  H10X16108   0.486   4.827   9.302  1.7450 -2.1094  1.9593
  146SAPE  H10Y16109   0.352   4.926   9.377 -2.1465 -0.4395 -0.3899
  146SAPE  C31116110   0.283   4.747   9.271  0.0112 -0.6369 -0.0239
  146SAPE  H11X16111   0.191   4.736   9.333  1.2611 -0.0685  2.0473
  146SAPE  H11Y16112   0.310   4.643   9.245  0.2827 -0.9332  1.3504
  146SAPE  C31216113   0.270   4.817   9.132 -0.0881 -0.3650  0.2183
  146SAPE  H12X16114   0.243   4.922   9.154  1.4767 -0.4139  2.7180
  146SAPE  H12Y16115   0.196   4.772   9.062 -1.4361  0.1340  1.2857
  146SAPE  C31316116   0.408   4.826   9.064  0.2379  0.1856  1.3421
  146SAPE  H13X16117   0.454   4.725   9.077  1.0584  0.7309  2.9217
  146SAPE  H13Y16118   0.483   4.898   9.103  2.3545 -1.2060  0.0901
  146SAPE  C31416119   0.387   4.873   8.915  0.0781 -0.3791 -1.2350
  146SAPE  H14X16120   0.325   4.799   8.860 -0.8175 -0.8947  0.3815
  146SAPE  H14Y16121   0.488   4.882   8.869  0.2446  0.0528 -0.8014
  146SAPE  C31516122   0.311   5.007   8.909  1.1150  0.2081  0.7055
  146SAPE  H15X16123   0.364   5.086   8.966  0.6473  0.3257  0.9812
  146SAPE  H15Y16124   0.216   5.010   8.966  0.0672  2.2424 -1.0530
  146SAPE  C31616125   0.295   5.049   8.763 -0.4654  0.4779 -0.0711
  146SAPE  H16X16126   0.222   4.990   8.704 -1.6154  0.5713  1.2152
  146SAPE  H16Y16127   0.396   5.042   8.716 -0.9446 -0.4325 -1.0055
  146SAPE  C31716128   0.255   5.200   8.748  0.0001 -0.3291 -0.5125
  146SAPE  H17X16129   0.344   5.260   8.779 -0.0045 -0.8308  0.5200
  146SAPE  H17Y16130   0.171   5.235   8.811 -0.3160 -0.9119 -0.6100
  146SAPE  C31816131   0.233   5.241   8.608  0.3871 -1.1851  0.1673
  146SAPE  H18X16132   0.140   5.196   8.566 -0.4598  1.6685 -1.2636
  146SAPE  H18Y16133   0.316   5.203   8.546  0.3329  0.5972 -1.0487
  146SAPE  H18Z16134   0.223   5.350   8.592 -0.3249 -0.9262  2.0365
  147SAPE     N16135   3.325   6.030   6.138  1.1317 -0.1802 -0.0309
  147SAPE   HN116136   3.384   6.032   6.052  1.6928 -1.6807  0.2849
  147SAPE   HN216137   3.305   6.126   6.172  1.4235  0.1244 -0.7028
  147SAPE   HN316138   3.389   5.993   6.211  0.6844 -0.4582  0.2216
  147SAPE   C1216139   3.205   5.942   6.111 -0.6997  0.3675  0.4173
  147SAPE  H12A16140   3.236   5.864   6.038 -0.2906  1.3763 -0.5027
  147SAPE  H12B16141   3.126   5.999   6.058  0.6302  1.1431 -0.7773
  147SAPE   C1116142   3.133   5.888   6.233  0.7870  0.0692 -0.2668
  147SAPE  H11A16143   3.205   5.827   6.292  0.4621  0.3373  0.4148
  147SAPE  H11B16144   3.060   5.815   6.195 -0.6643  1.0310  0.5750
  147SAPE     P16145   2.922   5.986   6.360 -0.0454 -0.1754  0.0122
  147SAPE   O1316146   2.897   6.096   6.458  0.8602  0.2092 -0.3430
  147SAPE   O1416147   2.833   5.983   6.240 -0.3161  0.0304  0.2459
  147SAPE   O1216148   3.076   5.991   6.315  0.6232  0.3523  0.3470
  147SAPE   O1116149   2.897   5.856   6.445  0.4729  0.3955 -0.3748
  147SAPE    C116150   2.998   5.825   6.540 -0.0459  0.3989  0.1826
  147SAPE    HA16151   2.997   5.714   6.542  1.7130  0.2413 -2.5738
  147SAPE    HB16152   3.102   5.846   6.507 -0.8715  3.1961 -0.9656
  147SAPE    C216153   2.964   5.876   6.677  1.2416  0.3060  0.3954
  147SAPE    HS16154   2.992   5.983   6.688 -0.6101  0.8504  0.0322
  147SAPE   O2116155   3.033   5.784   6.767 -0.0930 -0.6780  0.2810
  147SAPE   C2116156   3.163   5.818   6.795  0.3300  0.7262  0.0485
  147SAPE   O2216157   3.221   5.910   6.743  0.1332  0.2648  0.0996
  147SAPE   C2216158   3.220   5.723   6.894 -0.2192  0.4776  0.9410
  147SAPE   H2R16159   3.224   5.623   6.845  1.1417  0.1844  1.5992
  147SAPE   H2S16160   3.323   5.757   6.920  0.2483 -0.5784  0.5427
  147SAPE    C316161   2.809   5.877   6.702  0.5268 -0.2678  0.7069
  147SAPE    HX16162   2.772   5.777   6.672  0.9435  0.5919 -3.2414
  147SAPE    HY16163   2.760   5.953   6.637  0.6616  0.1117  1.0453
  147SAPE   O3116164   2.781   5.896   6.842 -0.1019 -0.1558  0.4995
  147SAPE   C3116165   2.775   6.020   6.887 -0.1384  0.6047 -0.3794
  147SAPE   O3216166   2.790   6.117   6.815  0.3251 -0.1454  0.0365
  147SAPE   C3216167   2.756   6.015   7.040  0.0435 -0.2543 -0.0118
  147SAPE   H2X16168   2.660   5.961   7.054 -1.2648  2.1712  0.8707
  147SAPE   H2Y16169   2.740   6.116   7.083 -0.8777 -0.2700 -0.2954
  147SAPE   C2316170   3.136   5.713   7.029 -0.1149 -0.1307 -0.3184
  147SAPE   H3R16171   3.031   5.693   6.997  0.3924  0.6495 -2.6370
  147SAPE   H3S16172   3.140   5.812   7.078 -0.3110  0.0041 -0.5725
  147SAPE   C2416173   3.192   5.602   7.127 -0.7203  0.8441 -0.0999
  147SAPE   H4R16174   3.229   5.521   7.060 -2.4607  0.5250 -0.7300
  147SAPE   H4S16175   3.113   5.549   7.185  1.2288  0.4684  2.3608
  147SAPE   C2516176   3.301   5.648   7.224  0.1984 -0.2520 -0.4363
  147SAPE   H5R16177   3.377   5.710   7.175 -1.0880  2.2155  0.4998
  147SAPE   C2616178   3.308   5.631   7.362 -0.1107  0.0936  0.8027
  147SAPE   H6R16179   3.400   5.671   7.408  0.7479  0.1827 -0.8960
  147SAPE   C2716180   3.207   5.559   7.453  0.2653  0.4519  0.4536
  147SAPE   H7R16181   3.108   5.548   7.404 -0.1946  0.4170  1.3621
  147SAPE   H7S16182   3.193   5.640   7.528 -0.3922  0.0069  0.8245
  147SAPE   C2816183   3.255   5.428   7.507 -0.8738  0.0460 -0.0375
  147SAPE   H8R16184   3.249   5.347   7.432 -0.4493 -1.3928  1.4268
  147SAPE   C2916185   3.296   5.404   7.630 -1.0515 -0.4776 -0.1589
  147SAPE   H9R16186   3.319   5.301   7.661  2.8256  0.0346 -0.8090
  147SAPE  C21016187   3.299   5.500   7.748 -0.4905 -0.5213  0.1064
  147SAPE  H10R16188   3.196   5.498   7.790 -1.4099  0.2113 -1.9951
  147SAPE  H10S16189   3.296   5.607   7.718  1.2272 -0.2586  0.7676
  147SAPE  C21116190   3.411   5.485   7.849 -0.4643  0.1763 -0.4960
  147SAPE  H11R16191   3.509   5.517   7.811  2.0343 -1.1766  3.9370
  147SAPE  C21216192   3.411   5.416   7.966  0.1976 -0.4273  0.9478
  147SAPE  H12R16193   3.507   5.412   8.018 -0.4544  0.0204  2.2230
  147SAPE  C21316194   3.296   5.341   8.030 -0.1895  0.0818 -0.5791
  147SAPE  H13R16195   3.200   5.348   7.974 -0.0251 -0.9098 -1.0085
  147SAPE  H13S16196   3.287   5.383   8.132  1.7226  2.4694 -1.3236
  147SAPE  C21416197   3.330   5.198   8.039 -0.6486  0.1415 -0.4448
  147SAPE  H14R16198   3.322   5.141   7.945 -1.1800 -1.0036  0.2610
  147SAPE  C21516199   3.355   5.125   8.150 -0.7207  0.6045 -0.2036
  147SAPE  H15R16200   3.362   5.019   8.122 -1.3599  0.7492 -0.9326
  147SAPE  C21616201   3.378   5.165   8.291  0.3199  0.4012  0.2447
  147SAPE  H16R16202   3.285   5.149   8.350 -0.4271  0.5633 -0.8632
  147SAPE  H16S16203   3.405   5.272   8.300  2.9803 -0.1002 -1.0151
  147SAPE  C21716204   3.484   5.080   8.362 -0.8447  0.3920 -0.2210
  147SAPE  H17R16205   3.445   4.977   8.361  0.3128 -0.0541 -0.9454
  147SAPE  H17S16206   3.503   5.123   8.463  2.6956 -1.2363 -0.0345
  147SAPE  C21816207   3.620   5.083   8.292 -0.0460 -0.7320 -0.4053
  147SAPE  H18R16208   3.637   5.187   8.259 -2.4918 -0.6353 -1.5740
  147SAPE  H18S16209   3.620   5.027   8.196  0.2244  0.4576 -1.1168
  147SAPE  C21916210   3.738   5.018   8.363 -0.5772  0.1847 -0.2087
  147SAPE  H19R16211   3.722   4.911   8.388  1.0401  0.1991  1.0507
  147SAPE  H19S16212   3.750   5.073   8.459  0.8514 -1.2178  0.4540
  147SAPE  C22016213   3.872   5.037   8.285 -0.5863  0.3596  0.1066
  147SAPE  H20R16214   3.955   5.006   8.351  0.1536  0.7574 -0.6254
  147SAPE  H20S16215   3.890   5.146   8.270 -1.5099  0.5522  0.3304
  147SAPE  H20T16216   3.863   4.995   8.183  1.0169  0.6069 -0.1619
  147SAPE   C3316217   2.858   5.919   7.099 -0.1011 -0.3524  0.0961
  147SAPE   H3X16218   2.949   5.929   7.035  0.3158  0.8375  0.8437
  147SAPE   H3Y16219   2.821   5.815   7.091 -0.8491 -0.0009 -1.3641
  147SAPE   C3416220   2.889   5.957   7.243 -0.6451  0.0891 -0.0231
  147SAPE   H4X16221   2.790   5.959   7.293 -1.1877 -1.7839 -0.9018
  147SAPE   H4Y16222   2.929   6.060   7.239  1.4643 -0.6371  1.0328
  147SAPE   C3516223   2.991   5.868   7.318 -0.0933 -0.2190 -0.1242
  147SAPE   H5X16224   3.093   5.897   7.284 -0.7988  3.3086  0.4412
  147SAPE   H5Y16225   2.964   5.763   7.292  0.6852 -0.9338  1.7759
  147SAPE   C3616226   2.992   5.888   7.471 -0.1834  0.4704 -0.0332
  147SAPE   H6X16227   3.011   5.995   7.491 -0.5917  0.5584 -0.1136
  147SAPE   H6Y16228   3.068   5.822   7.518  1.2165  1.4126 -0.8842
  147SAPE   C3716229   2.854   5.855   7.536  0.4999 -0.5431  0.2320
  147SAPE   H7X16230   2.821   5.754   7.503  1.6718 -0.5816 -0.9165
  147SAPE   H7Y16231   2.791   5.935   7.491  2.6351  1.4858  0.6208
  147SAPE   C3816232   2.839   5.848   7.690 -0.0154  0.2308  0.6489
  147SAPE   H8X16233   2.731   5.841   7.715  0.3321 -0.6378  2.0527
  147SAPE   H8Y16234   2.881   5.945   7.724 -0.4754  0.9441 -0.7271
  147SAPE   C3916235   2.916   5.731   7.750 -0.2780 -0.2378 -0.1820
  147SAPE   H9X16236   3.021   5.759   7.728 -0.7919  1.1205 -0.9913
  147SAPE   H9Y16237   2.898   5.634   7.698 -1.2095 -0.3121  0.2590
  147SAPE  C31016238   2.879   5.722   7.898 -0.4409  0.3540  0.1230
  147SAPE  H10X16239   2.779   5.674   7.894  0.6485 -1.9715 -1.4874
  147SAPE  H10Y16240   2.857   5.822   7.942 -2.6938  0.1439 -0.4207
  147SAPE  C31116241   2.973   5.634   7.976 -0.2148  0.0995 -0.6144
  147SAPE  H11X16242   3.068   5.689   7.983 -0.7979  1.0511  0.0086
  147SAPE  H11Y16243   2.997   5.544   7.914 -0.8904 -0.1677 -0.5083
  147SAPE  C31216244   2.926   5.605   8.117  0.4954 -0.5781  0.0027
  147SAPE  H12X16245   2.820   5.573   8.123  0.3659 -0.0317  0.7019
  147SAPE  H12Y16246   2.939   5.698   8.176 -3.2779  0.3710 -0.3991
  147SAPE  C31316247   3.003   5.492   8.183 -0.4746  0.2563  0.9224
  147SAPE  H13X16248   3.110   5.521   8.192 -0.1477 -0.1543 -1.1186
  147SAPE  H13Y16249   2.994   5.397   8.127  1.0488  0.6166  0.0153
  147SAPE  C31416250   2.967   5.452   8.329  0.1659 -0.3095 -0.0367
  147SAPE  H14X16251   2.871   5.399   8.315  0.9669 -1.9770  0.5369
  147SAPE  H14Y16252   2.942   5.536   8.397  0.8425 -1.1582  1.2885
  147SAPE  C31516253   3.078   5.373   8.394  0.3282  0.4860 -0.1283
  147SAPE  H15X16254   3.166   5.441   8.388  1.0251 -0.3901 -0.1537
  147SAPE  H15Y16255   3.090   5.274   8.345 -2.0836  0.3477 -0.5337
  147SAPE  C31616256   3.064   5.340   8.545 -0.3364  0.5970 -0.0196
  147SAPE  H16X16257   2.978   5.274   8.569  0.3697 -0.1373  0.5496
  147SAPE  H16Y16258   3.053   5.430   8.608 -0.6038 -0.3848  1.3699
  147SAPE  C31716259   3.199   5.267   8.592  0.5404 -0.6198 -0.3883
  147SAPE  H17X16260   3.285   5.322   8.549  0.1152  0.4554  0.1099
  147SAPE  H17Y16261   3.200   5.162   8.557 -1.0441 -0.7210 -0.1993
  147SAPE  C31816262   3.219   5.257   8.742 -0.1207  0.2013 -0.0004
  147SAPE  H18X16263   3.324   5.262   8.776  0.3956  0.7070 -1.5901
  147SAPE  H18Y16264   3.165   5.170   8.786 -0.2450  0.2354 -0.0869
  147SAPE  H18Z16265   3.175   5.347   8.792 -1.7895 -1.1344  1.0388
  148SAPE     N16266   3.632   3.097   6.392  0.3052  0.0291 -0.4164
  148SAPE   HN116267   3.725   3.132   6.363  1.7816 -3.7593 -0.8736
  148SAPE   HN216268   3.638   2.993   6.381  0.9701  0.1206 -0.9198
  148SAPE   HN316269   3.554   3.132   6.333 -2.0615 -0.3082  2.2317
  148SAPE   C1216270   3.599   3.143   6.535  0.3281  0.5030  0.1686
  148SAPE  H12A16271   3.589   3.254   6.530 -0.5403  0.5071  1.5846
  148SAPE  H12B16272   3.683   3.117   6.602 -0.1060 -1.7459 -0.0927
  148SAPE   C1116273   3.465   3.072   6.586 -0.0317  0.9592 -0.1008
  148SAPE  H11A16274   3.451   3.092   6.695 -0.0414  0.2005  0.0433
  148SAPE  H11B16275   3.486   2.963   6.581 -0.6296  0.8681 -0.7423
  148SAPE     P16276   3.223   3.160   6.554 -0.0081 -0.0387 -0.2301
  148SAPE   O1316277   3.151   3.228   6.448  0.4697 -0.0700 -0.0994
  148SAPE   O1416278   3.160   3.043   6.617  0.0626 -0.1932  0.0014
  148SAPE   O1216279   3.359   3.110   6.500 -0.1418 -0.1825 -0.1719
  148SAPE   O1116280   3.262   3.270   6.660 -0.2983  0.3968 -0.5099
  148SAPE    C116281   3.313   3.400   6.623 -0.2970  0.1212 -0.1280
  148SAPE    HA16282   3.379   3.389   6.535 -0.3878 -1.1325 -0.0608
  148SAPE    HB16283   3.233   3.473   6.596  1.4598  1.9098 -0.7744
  148SAPE    C216284   3.388   3.468   6.740 -0.2686  0.2426  0.5209
  148SAPE    HS16285   3.487   3.419   6.748 -0.3198  0.0826  0.1894
  148SAPE   O2116286   3.315   3.435   6.856  0.3589  0.0343  0.6460
  148SAPE   C2116287   3.383   3.392   6.957 -0.9572  0.3853 -0.4811
  148SAPE   O2216288   3.501   3.358   6.959  0.1083  0.1126 -0.5760
  148SAPE   C2216289   3.288   3.371   7.076 -0.2688  0.3911 -0.0649
  148SAPE   H2R16290   3.223   3.285   7.050  0.8778 -0.4683 -0.1766
  148SAPE   H2S16291   3.346   3.348   7.168 -0.7787  0.5675  0.3060
  148SAPE    C316292   3.404   3.624   6.731 -0.7747 -0.0309 -0.5672
  148SAPE    HX16293   3.304   3.670   6.740 -0.5498  0.1343  1.4154
  148SAPE    HY16294   3.442   3.659   6.633 -1.2007  2.9738  0.2551
  148SAPE   O3116295   3.481   3.677   6.838  0.6861 -0.3351 -0.7712
  148SAPE   C3116296   3.612   3.666   6.830 -0.8117  0.5249 -0.5191
  148SAPE   O3216297   3.674   3.600   6.751 -0.3730  0.3312 -0.4006
  148SAPE   C3216298   3.690   3.748   6.939  0.3841  0.4704 -0.0202
  148SAPE   H2X16299   3.617   3.827   6.967 -2.9838 -2.0518 -0.9312
  148SAPE   H2Y16300   3.783   3.779   6.888 -0.0870  0.1834 -1.0976
  148SAPE   C2316301   3.207   3.504   7.109 -0.5520  0.1885 -0.2503
  148SAPE   H3R16302   3.133   3.491   7.190  1.6999 -0.7725  1.7734
  148SAPE   H3S16303   3.152   3.522   7.014 -0.3811  2.1327 -0.0352
  148SAPE   C2416304   3.289   3.627   7.148  0.6650 -0.1445  0.7024
  148SAPE   H4R16305   3.217   3.711   7.147  1.1841  0.3093 -0.3757
  148SAPE   H4S16306   3.355   3.662   7.065 -2.6626  1.7262 -1.3862
  148SAPE   C2516307   3.373   3.625   7.271  0.0582  0.3684  0.3672
  148SAPE   H5R16308   3.472   3.578   7.259 -0.4044 -0.3570 -0.8371
  148SAPE   C2616309   3.353   3.682   7.390 -0.2988  0.7660  0.1761
  148SAPE   H6R16310   3.427   3.664   7.470  1.9042  2.4917 -1.3760
  148SAPE   C2716311   3.236   3.766   7.445 -0.4384  0.2269  0.1977
  148SAPE   H7R16312   3.167   3.809   7.370 -1.2343  0.0843  0.8309
  148SAPE   H7S16313   3.286   3.861   7.475  0.9601  0.1356 -1.6803
  148SAPE   C2816314   3.153   3.706   7.554  0.1260  0.6427 -0.9006
  148SAPE   H8R16315   3.061   3.656   7.520 -0.0909  1.8467 -2.1745
  148SAPE   C2916316   3.184   3.699   7.684 -0.3919  0.7858  0.3646
  148SAPE   H9R16317   3.120   3.643   7.753  0.2020  0.3664  0.5743
  148SAPE  C21016318   3.308   3.752   7.738 -0.4594 -0.6178  0.6429
  148SAPE  H10R16319   3.290   3.861   7.749  2.5340 -0.0723  0.9097
  148SAPE  H10S16320   3.396   3.747   7.671 -1.5701  0.3428 -0.9328
  148SAPE  C21116321   3.322   3.693   7.878  0.1947 -0.2108  0.0895
  148SAPE  H11R16322   3.370   3.594   7.884 -0.4388 -0.5474 -0.3668
  148SAPE  C21216323   3.264   3.744   7.984  0.0123  0.3990 -0.0600
  148SAPE  H12R16324   3.280   3.693   8.080 -0.9775  0.2505  0.0390
  148SAPE  C21316325   3.176   3.864   7.994 -0.1004 -0.2847 -0.0339
  148SAPE  H13R16326   3.155   3.914   7.897  2.7992  2.3095  0.4995
  148SAPE  H13S16327   3.226   3.942   8.056 -2.6207  2.6265 -1.4137
  148SAPE  C21416328   3.036   3.837   8.042 -1.0324  0.2821 -0.4498
  148SAPE  H14R16329   2.974   3.768   7.982 -0.6853  1.4737 -2.2467
  148SAPE  C21516330   2.982   3.900   8.147 -0.3912  1.2288 -0.5347
  148SAPE  H15R16331   2.881   3.867   8.177  0.0967 -2.0755 -2.1404
  148SAPE  C21616332   3.052   4.001   8.235  0.4155 -0.1789  0.1164
  148SAPE  H16R16333   3.054   4.102   8.189 -0.0007 -0.0082  0.4740
  148SAPE  H16S16334   3.161   3.985   8.249  0.3485 -1.4045 -0.6614
  148SAPE  C21716335   2.995   3.996   8.383  0.4852  0.1288  0.2512
  148SAPE  H17R16336   3.064   4.055   8.448  0.7001 -0.8465  0.9369
  148SAPE  H17S16337   2.989   3.889   8.411 -0.8333 -0.4450 -2.0176
  148SAPE  C21816338   2.857   4.064   8.391 -0.0650  0.2395 -0.1086
  148SAPE  H18R16339   2.792   4.027   8.309  0.6688  0.5562 -0.8549
  148SAPE  H18S16340   2.872   4.171   8.366  0.3030  0.0326 -0.8171
  148SAPE  C21916341   2.785   4.040   8.524 -0.7749  0.1863  0.0446
  148SAPE  H19R16342   2.698   4.109   8.531 -3.2976 -2.5678 -1.8162
  148SAPE  H19S16343   2.855   4.051   8.609  0.6339 -1.8291 -0.7891
  148SAPE  C22016344   2.724   3.896   8.534  0.4118 -0.6864  0.4311
  148SAPE  H20R16345   2.805   3.820   8.522  1.0155  0.2466 -2.2248
  148SAPE  H20S16346   2.647   3.882   8.455 -0.9911  3.2265  0.9063
  148SAPE  H20T16347   2.682   3.876   8.635  3.0421 -2.4767  1.2857
  148SAPE   C3316348   3.719   3.666   7.065  1.1316 -0.0073 -0.1985
  148SAPE   H3X16349   3.795   3.584   7.060 -0.4663 -1.9415  3.3388
  148SAPE   H3Y16350   3.630   3.603   7.086  0.1449  1.1391 -0.8726
  148SAPE   C3416351   3.740   3.746   7.194  0.2870 -0.6209  0.3260
  148SAPE   H4X16352   3.654   3.815   7.205 -0.5985 -1.7175  0.3801
  148SAPE   H4Y16353   3.833   3.803   7.172  0.2488 -0.9618 -0.8125
  148SAPE   C3516354   3.744   3.664   7.321 -0.2254 -0.7701  1.0840
  148SAPE   H5X16355   3.827   3.592   7.305 -0.8093 -1.6662  1.9187
  148SAPE   H5Y16356   3.650   3.604   7.320 -0.1002 -0.9849 -0.4251
  148SAPE   C3616357   3.761   3.738   7.448 -0.2917 -0.6417 -0.1211
  148SAPE   H6X16358   3.868   3.762   7.465 -0.4231 -1.6108  2.4582
  148SAPE   H6Y16359   3.733   3.673   7.533 -1.7857  3.3714  2.7889
  148SAPE   C3716360   3.679   3.872   7.473 -0.2216  0.0575  0.5646
  148SAPE   H7X16361   3.574   3.853   7.444  0.0283  1.5301 -1.5368
  148SAPE   H7Y16362   3.712   3.954   7.405 -1.4512 -1.6310 -2.2661
  148SAPE   C3816363   3.673   3.912   7.623  0.5271  0.4069 -0.3862
  148SAPE   H8X16364   3.771   3.927   7.673  1.2618  0.5483 -1.8075
  148SAPE   H8Y16365   3.613   3.837   7.677  3.1624 -2.1355 -0.7519
  148SAPE   C3916366   3.591   4.037   7.653 -0.1859 -0.5957 -0.2656
  148SAPE   H9X16367   3.493   4.014   7.606 -0.2949 -0.5491 -0.0630
  148SAPE   H9Y16368   3.633   4.131   7.612  0.3722  0.8859  3.2907
  148SAPE  C31016369   3.558   4.072   7.807  0.0842  0.0661 -0.1958
  148SAPE  H10X16370   3.495   4.000   7.862  0.0059  1.2705  1.3476
  148SAPE  H10Y16371   3.498   4.165   7.811 -0.5543 -0.3592  0.3389
  148SAPE  C31116372   3.684   4.098   7.886 -0.3854 -0.5862  0.1284
  148SAPE  H11X16373   3.736   4.184   7.837 -0.4625 -0.4803  0.2300
  148SAPE  H11Y16374   3.748   4.008   7.886 -0.7253 -0.8357  0.5826
  148SAPE  C31216375   3.667   4.130   8.031  0.0598  0.1310 -0.4731
  148SAPE  H12X16376   3.613   4.227   8.040 -0.1089 -0.0142  0.1376
  148SAPE  H12Y16377   3.766   4.141   8.079 -0.3278  0.8274  0.1869
  148SAPE  C31316378   3.595   4.025   8.118  0.0610  0.2825  0.0243
  148SAPE  H13X16379   3.640   3.924   8.103 -1.6753 -0.7768  1.6152
  148SAPE  H13Y16380   3.490   4.024   8.081  0.7724  0.7648 -2.1873
  148SAPE  C31416381   3.586   4.047   8.269  0.8647  0.3598  0.5086
  148SAPE  H14X16382   3.493   4.004   8.311  1.0514  0.0367  0.5954
  148SAPE  H14Y16383   3.571   4.157   8.272  0.0620  0.3715 -1.8552
  148SAPE  C31516384   3.700   3.992   8.358  0.3319 -0.1714  0.1214
  148SAPE  H15X16385   3.798   4.028   8.319 -0.3290  2.7064  0.8832
  148SAPE  H15Y16386   3.683   3.882   8.355 -0.3163 -0.0607 -1.8040
  148SAPE  C31616387   3.679   4.027   8.510 -0.1208  0.3029 -0.2141
  148SAPE  H16X16388   3.741   3.959   8.572 -2.2483 -0.5797  1.0757
  148SAPE  H16Y16389   3.569   4.024   8.527 -0.0561  1.9795  0.6891
  148SAPE  C31716390   3.710   4.167   8.556 -0.5837  0.4593  0.4476
  148SAPE  H17X16391   3.676   4.169   8.662 -0.4955 -1.7202  0.5563
  148SAPE  H17Y16392   3.657   4.245   8.496  0.5068  0.0809 -1.0620
  148SAPE  C31816393   3.860   4.191   8.544 -0.0131 -0.3697 -0.0874
  148SAPE  H18X16394   3.914   4.109   8.596  3.0943  1.7659  0.3328
  148SAPE  H18Y16395   3.897   4.287   8.586 -1.4277  0.7788 -1.3584
  148SAPE  H18Z16396   3.896   4.190   8.439  1.0762  0.9571  0.2552
  149SAPE     N16397   2.296   3.079   6.129 -0.2995  0.5739 -0.5448
  149SAPE   HN116398   2.324   2.981   6.111 -0.4704  0.4153  0.0411
  149SAPE   HN216399   2.216   3.101   6.066 -0.3391  1.0238 -0.3452
  149SAPE   HN316400   2.370   3.151   6.113  0.8753  0.1748  2.5460
  149SAPE   C1216401   2.252   3.093   6.275  0.5132 -0.6364  0.7632
  149SAPE  H12A16402   2.342   3.131   6.327 -0.3970  2.0906  0.4812
  149SAPE  H12B16403   2.212   2.994   6.307 -1.1140 -0.1670  0.2798
  149SAPE   C1116404   2.139   3.196   6.288  0.0772 -0.1262  0.2502
  149SAPE  H11A16405   2.129   3.214   6.397  0.4007 -1.3388  0.5038
  149SAPE  H11B16406   2.042   3.151   6.257  0.8494 -1.8036  0.1069
  149SAPE     P16407   2.255   3.430   6.264 -0.0810  0.1616 -0.0591
  149SAPE   O1316408   2.389   3.411   6.198 -0.0483 -0.1037 -0.2471
  149SAPE   O1416409   2.188   3.554   6.231  0.4438  0.5636 -0.1958
  149SAPE   O1216410   2.164   3.314   6.213 -1.2059 -0.1563  0.5918
  149SAPE   O1116411   2.269   3.408   6.418 -0.0426  0.0595 -0.0221
  149SAPE    C116412   2.359   3.474   6.511 -0.4136 -0.1417  0.5862
  149SAPE    HA16413   2.432   3.534   6.453 -0.2370  2.0620  2.9216
  149SAPE    HB16414   2.308   3.547   6.576 -0.1300 -0.8468  1.6255
  149SAPE    C216415   2.429   3.369   6.614  0.4766  0.0713  0.2798
  149SAPE    HS16416   2.471   3.287   6.552  0.3943  1.3066 -1.4878
  149SAPE   O2116417   2.317   3.320   6.688  0.1411 -0.9229  0.6971
  149SAPE   C2116418   2.265   3.201   6.655 -0.5686  0.0453  0.6264
  149SAPE   O2216419   2.312   3.128   6.568  0.5219  0.1191 -1.0744
  149SAPE   C2216420   2.141   3.166   6.747 -0.7835  0.5569  0.2043
  149SAPE   H2R16421   2.188   3.126   6.839 -2.1974 -2.3894 -0.2391
  149SAPE   H2S16422   2.085   3.258   6.775 -1.9131 -0.5736  1.8673
  149SAPE    C316423   2.539   3.433   6.704  0.1617  0.4647 -0.0659
  149SAPE    HX16424   2.629   3.460   6.644  0.3861  1.1315  0.5573
  149SAPE    HY16425   2.570   3.348   6.768  1.4852  1.5120  0.7134
  149SAPE   O3116426   2.479   3.541   6.778  0.8379  0.1208  0.0418
  149SAPE   C3116427   2.518   3.551   6.898 -0.4237  0.1936  0.1038
  149SAPE   O3216428   2.602   3.483   6.956 -0.1372  0.2531 -0.2358
  149SAPE   C3216429   2.442   3.680   6.951 -0.1107  0.0695 -0.2706
  149SAPE   H2X16430   2.336   3.666   6.919 -0.5031 -0.4846  1.1516
  149SAPE   H2Y16431   2.493   3.764   6.900  1.0017 -0.3853  0.0720
  149SAPE   C2316432   2.043   3.070   6.683  0.0792 -0.2213  0.5404
  149SAPE   H3R16433   2.086   2.989   6.619 -1.0031 -1.8589  1.8048
  149SAPE   H3S16434   1.977   3.127   6.614 -0.4525 -0.0236  1.2051
  149SAPE   C2416435   1.948   3.003   6.783 -0.4435  0.4921  0.1217
  149SAPE   H4R16436   2.021   2.947   6.845 -1.3183 -0.9769 -0.1302
  149SAPE   H4S16437   1.885   2.926   6.734 -1.0432  0.2098  1.2961
  149SAPE   C2516438   1.854   3.087   6.864 -0.1823 -0.0521  0.3352
  149SAPE   H5R16439   1.785   3.146   6.801 -0.5458 -1.5778 -0.7458
  149SAPE   C2616440   1.848   3.102   7.002 -0.0508 -0.3642  0.2323
  149SAPE   H6R16441   1.767   3.156   7.052 -0.3218 -1.5597  1.1348
  149SAPE   C2716442   1.945   3.035   7.097 -0.4508  0.2379  0.6404
  149SAPE   H7R16443   2.041   3.003   7.051  0.2653 -1.0094  2.8367
  149SAPE   H7S16444   1.900   2.942   7.136 -1.7329 -0.3271 -1.9569
  149SAPE   C2816445   1.983   3.135   7.201 -0.4543 -0.3149  0.3912
  149SAPE   H8R16446   2.029   3.228   7.165 -1.8389  0.9593  1.7341
  149SAPE   C2916447   1.956   3.122   7.334  0.2335 -0.1246 -0.2244
  149SAPE   H9R16448   2.004   3.190   7.406 -0.2296 -1.2696  1.1963
  149SAPE  C21016449   1.872   3.014   7.399 -0.0127  0.3530  0.5742
  149SAPE  H10R16450   1.934   2.952   7.467 -2.1654 -1.9958  0.5195
  149SAPE  H10S16451   1.838   2.941   7.323  0.4061 -0.1191  0.8297
  149SAPE  C21116452   1.751   3.070   7.474 -0.1987 -0.1248  0.0865
  149SAPE  H11R16453   1.668   3.077   7.402  0.0129  0.0438 -0.1437
  149SAPE  C21216454   1.734   3.108   7.594  0.1777 -0.5829 -0.3276
  149SAPE  H12R16455   1.633   3.142   7.620  1.9424  3.6399  2.0754
  149SAPE  C21316456   1.834   3.112   7.708 -0.3835  0.1518 -0.2722
  149SAPE  H13R16457   1.774   3.150   7.794  1.7412 -0.1579  1.4173
  149SAPE  H13S16458   1.917   3.186   7.701 -0.0110  0.1165  2.5800
  149SAPE  C21416459   1.879   2.976   7.753 -0.3649 -0.0247  0.1015
  149SAPE  H14R16460   1.859   2.888   7.690 -0.2274 -0.0149  0.0438
  149SAPE  C21516461   1.945   2.949   7.861 -0.4184  0.8986 -0.2620
  149SAPE  H15R16462   1.953   2.842   7.885 -2.3997  0.7558 -0.0392
  149SAPE  C21616463   1.989   3.047   7.969 -1.0100 -0.4487 -0.1948
  149SAPE  H16R16464   1.958   3.152   7.949  3.8738  1.5761  1.3938
  149SAPE  H16S16465   2.100   3.051   7.968 -0.9929 -0.1794  1.1880
  149SAPE  C21716466   1.967   3.006   8.121 -0.4825 -0.5032  0.6154
  149SAPE  H17R16467   2.046   3.060   8.177 -2.0547 -1.4561  4.0426
  149SAPE  H17S16468   1.998   2.900   8.135 -0.8926 -0.7416 -0.2087
  149SAPE  C21816469   1.833   3.014   8.175  0.1526 -0.7025  0.1470
  149SAPE  H18R16470   1.771   3.082   8.114  1.1810  0.4431  0.3261
  149SAPE  H18S16471   1.827   3.072   8.270 -2.2975 -0.2914 -0.2055
  149SAPE  C21916472   1.738   2.891   8.173 -0.0425  0.3417  0.4353
  149SAPE  H19R16473   1.760   2.814   8.250 -2.0012 -0.4314  0.2787
  149SAPE  H19S16474   1.750   2.846   8.072 -2.9112  1.2579 -0.3978
  149SAPE  C22016475   1.591   2.935   8.182 -0.0009 -0.0115  0.4862
  149SAPE  H20R16476   1.547   2.939   8.080  0.7007 -0.7295  0.1420
  149SAPE  H20S16477   1.578   3.036   8.226  0.1156 -0.5672  1.8384
  149SAPE  H20T16478   1.542   2.860   8.247  1.5946 -0.8707  0.7529
  149SAPE   C3316479   2.440   3.699   7.102 -0.6332  0.4866  1.2014
  149SAPE   H3X16480   2.545   3.692   7.135 -1.1399  1.2198  3.1108
  149SAPE   H3Y16481   2.376   3.622   7.152 -0.7651 -0.4400 -0.3411
  149SAPE   C3416482   2.398   3.844   7.156  0.3591  0.1600 -0.3678
  149SAPE   H4X16483   2.290   3.863   7.143  0.3529  2.5827  2.2162
  149SAPE   H4Y16484   2.451   3.925   7.101  1.1228  2.1236  2.9651
  149SAPE   C3516485   2.427   3.874   7.305  0.1163  0.8306 -0.5008
  149SAPE   H5X16486   2.456   3.981   7.307  2.8979  0.2285 -2.5545
  149SAPE   H5Y16487   2.519   3.821   7.337  0.3243  0.0878 -2.2229
  149SAPE   C3616488   2.315   3.834   7.404  0.1850  0.0523  0.7459
  149SAPE   H6X16489   2.318   3.724   7.394  1.3061  0.1583 -0.5035
  149SAPE   H6Y16490   2.223   3.876   7.359  0.9186  0.0022 -0.8981
  149SAPE   C3716491   2.334   3.893   7.540 -0.1504  0.4762  0.0045
  149SAPE   H7X16492   2.313   4.002   7.541  2.3436  1.0545 -1.4165
  149SAPE   H7Y16493   2.442   3.891   7.566  0.9290  0.5690 -3.8584
  149SAPE   C3816494   2.255   3.808   7.642 -0.3255  0.1664 -0.0301
  149SAPE   H8X16495   2.274   3.699   7.639  2.1763  0.5400  0.3814
  149SAPE   H8Y16496   2.147   3.820   7.617 -0.6166  2.6436  2.0238
  149SAPE   C3916497   2.289   3.850   7.792 -0.0543 -0.0778  0.0207
  149SAPE   H9X16498   2.272   3.960   7.797  0.0716  0.1350 -2.6928
  149SAPE   H9Y16499   2.393   3.831   7.823 -0.4759  0.3025  1.7459
  149SAPE  C31016500   2.197   3.771   7.894 -0.1504 -0.3114  0.9944
  149SAPE  H10X16501   2.197   3.663   7.869 -0.4341  0.8109 -5.5587
  149SAPE  H10Y16502   2.095   3.802   7.863 -0.9801 -2.5391  1.3642
  149SAPE  C31116503   2.238   3.810   8.036 -0.4457 -0.1396 -0.1339
  149SAPE  H11X16504   2.206   3.915   8.051  1.3605  0.3523  0.6479
  149SAPE  H11Y16505   2.347   3.823   8.055 -0.8187  2.5672  0.5258
  149SAPE  C31216506   2.171   3.729   8.138 -0.1975  0.0945  0.3504
  149SAPE  H12X16507   2.194   3.622   8.117 -3.4266 -0.9889  1.8450
  149SAPE  H12Y16508   2.063   3.728   8.115 -0.8067 -1.0317  2.9751
  149SAPE  C31316509   2.207   3.761   8.285 -0.4117  0.4270 -0.1204
  149SAPE  H13X16510   2.182   3.867   8.306 -3.6927 -0.1268 -0.6904
  149SAPE  H13Y16511   2.311   3.735   8.313 -0.8770 -0.4692  0.8458
  149SAPE  C31416512   2.124   3.658   8.375  0.5637 -0.5403  0.4237
  149SAPE  H14X16513   2.118   3.555   8.333  1.6759 -2.2448  4.0449
  149SAPE  H14Y16514   2.023   3.704   8.381  0.2764 -1.2663  1.4067
  149SAPE  C31516515   2.163   3.633   8.522  0.0682 -1.0050  0.1882
  149SAPE  H15X16516   2.252   3.567   8.518 -0.2000 -1.4076  0.7807
  149SAPE  H15Y16517   2.087   3.575   8.579  1.5565 -2.0166  1.1969
  149SAPE  C31616518   2.200   3.751   8.605 -0.2778 -0.2956 -0.0276
  149SAPE  H16X16519   2.112   3.819   8.615  0.5364  0.7351  0.3108
  149SAPE  H16Y16520   2.279   3.812   8.556 -1.5457  1.6889  0.2945
  149SAPE  C31716521   2.265   3.725   8.741 -0.4275  0.0457 -0.8757
  149SAPE  H17X16522   2.300   3.822   8.783  1.8830 -1.3904  0.7040
  149SAPE  H17Y16523   2.354   3.663   8.717 -0.9029 -0.7424 -0.6460
  149SAPE  C31816524   2.175   3.638   8.835 -0.5500 -0.1158  0.2671
  149SAPE  H18X16525   2.239   3.601   8.919  0.0390 -3.0945 -1.3577
  149SAPE  H18Y16526   2.152   3.549   8.773  1.1011  0.2187 -0.8892
  149SAPE  H18Z16527   2.095   3.691   8.890  0.0737 -0.8390  1.9525
  150SAPE     N16528   2.252   3.913   6.380 -0.3526  0.6191 -0.1378
  150SAPE   HN116529   2.344   3.867   6.399 -0.0648  0.4237 -1.8805
  150SAPE   HN216530   2.218   3.955   6.469  1.0263 -0.2589  0.8401
  150SAPE   HN316531   2.187   3.835   6.359 -1.0005  1.8771 -3.3459
  150SAPE   C1216532   2.242   4.019   6.274  0.5021  0.8161 -0.5143
  150SAPE  H12A16533   2.157   3.989   6.208  0.5472  0.5237 -0.4388
  150SAPE  H12B16534   2.339   4.027   6.221  0.4781  4.2344 -0.2644
  150SAPE   C1116535   2.214   4.158   6.334  0.1095 -0.2615 -0.2108
  150SAPE  H11A16536   2.119   4.143   6.391 -0.5457 -3.0403 -1.8067
  150SAPE  H11B16537   2.207   4.230   6.249 -0.3181  0.4664  0.4320
  150SAPE     P16538   2.454   4.247   6.396  0.1707 -0.1853 -0.3823
  150SAPE   O1316539   2.553   4.178   6.484  0.2545  0.1140 -0.2799
  150SAPE   O1416540   2.471   4.241   6.248  0.1519  0.3670  0.0075
  150SAPE   O1216541   2.313   4.196   6.432  0.1871 -0.3026  0.1732
  150SAPE   O1116542   2.456   4.402   6.441  0.1254 -0.4982 -0.0177
  150SAPE    C116543   2.351   4.493   6.409 -0.1840  0.0742 -0.4584
  150SAPE    HA16544   2.392   4.545   6.320 -0.7135 -0.6397 -1.1384
  150SAPE    HB16545   2.263   4.440   6.366  0.5736 -1.6098 -0.0515
  150SAPE    C216546   2.294   4.586   6.523 -0.3814  0.0211  0.1490
  150SAPE    HS16547   2.385   4.640   6.556 -0.4010 -0.8683  1.7863
  150SAPE   O2116548   2.241   4.502   6.633 -0.0486  0.3471  0.1360
  150SAPE   C2116549   2.331   4.481   6.735 -0.8071  0.0967  0.5405
  150SAPE   O2216550   2.443   4.527   6.733  0.2326 -0.2044 -0.2785
  150SAPE   C2216551   2.278   4.397   6.847 -0.1081  0.1570 -0.1354
  150SAPE   H2R16552   2.195   4.457   6.890  1.0472  1.2404  0.6596
  150SAPE   H2S16553   2.250   4.298   6.805  3.0446 -1.6503  1.6302
  150SAPE    C316554   2.192   4.684   6.454 -0.7138  0.3948  0.3691
  150SAPE    HX16555   2.112   4.607   6.448  0.2099 -0.6829  1.3120
  150SAPE    HY16556   2.248   4.705   6.360  1.0005  0.2763  1.3315
  150SAPE   O3116557   2.164   4.792   6.545 -0.1321  0.0664  0.1315
  150SAPE   C3116558   2.057   4.864   6.496 -0.7162  0.0581  0.0712
  150SAPE   O3216559   1.990   4.833   6.397  0.1293 -0.6325 -0.3353
  150SAPE   C3216560   2.011   4.965   6.610  0.3402  0.3254 -0.0952
  150SAPE   H2X16561   2.079   5.053   6.612  0.8492 -0.0567 -0.3344
  150SAPE   H2Y16562   2.041   4.920   6.707  2.8131  1.4208 -0.2695
  150SAPE   C2316563   2.376   4.372   6.962  0.0374 -0.8357 -0.9168
  150SAPE   H3R16564   2.476   4.343   6.924  0.4653  0.8992 -1.2104
  150SAPE   H3S16565   2.340   4.284   7.019  0.3445 -0.7833 -0.6402
  150SAPE   C2416566   2.409   4.494   7.052  0.3410 -0.7187  0.2148
  150SAPE   H4R16567   2.325   4.537   7.110  1.1364 -2.8756  3.1718
  150SAPE   H4S16568   2.446   4.584   6.997  2.8454 -0.1278  2.6308
  150SAPE   C2516569   2.519   4.464   7.146 -0.1612 -0.6917 -0.2247
  150SAPE   H5R16570   2.622   4.457   7.107  0.1212 -3.5859  0.7282
  150SAPE   C2616571   2.507   4.434   7.278  0.1172 -0.3000 -0.2612
  150SAPE   H6R16572   2.603   4.420   7.329  1.9792  2.2408 -2.7382
  150SAPE   C2716573   2.382   4.417   7.358 -0.5292  0.1051  0.4848
  150SAPE   H7R16574   2.364   4.308   7.374  0.7490 -0.4301 -1.4544
  150SAPE   H7S16575   2.294   4.442   7.296 -0.8663  0.0856  0.9491
  150SAPE   C2816576   2.389   4.477   7.495 -0.3811 -0.9297 -0.0743
  150SAPE   H8R16577   2.366   4.585   7.496  0.0282 -0.8316 -0.5559
  150SAPE   C2916578   2.415   4.425   7.613  0.8744 -0.2868  0.5061
  150SAPE   H9R16579   2.418   4.485   7.705  1.5797  0.3659  0.0666
  150SAPE  C21016580   2.435   4.275   7.631 -0.0310 -0.6637 -0.0083
  150SAPE  H10R16581   2.372   4.210   7.567 -0.4150 -1.9023  1.5360
  150SAPE  H10S16582   2.396   4.238   7.729  1.1625  0.2800  0.8424
  150SAPE  C21116583   2.570   4.224   7.606  0.4011  0.0400  0.2720
  150SAPE  H11R16584   2.592   4.207   7.500 -0.8669  0.0891 -0.0197
  150SAPE  C21216585   2.673   4.199   7.689  0.0473  0.1977 -0.0836
  150SAPE  H12R16586   2.765   4.151   7.653 -0.9725 -2.0987  0.1822
  150SAPE  C21316587   2.672   4.233   7.837 -1.1299 -0.0639 -0.7730
  150SAPE  H13R16588   2.581   4.292   7.859 -1.8734 -2.4922  4.0117
  150SAPE  H13S16589   2.757   4.301   7.857 -1.8116  0.5286  0.1514
  150SAPE  C21416590   2.682   4.105   7.916 -0.1636 -0.3835 -0.3555
  150SAPE  H14R16591   2.735   4.020   7.870 -1.1704  0.3364 -3.0154
  150SAPE  C21516592   2.621   4.087   8.031  0.2712 -0.6745 -0.2882
  150SAPE  H15R16593   2.629   3.988   8.077 -1.3139 -0.8858 -0.4224
  150SAPE  C21616594   2.530   4.189   8.103 -0.5103  1.0093 -0.4159
  150SAPE  H16R16595   2.532   4.291   8.060 -1.6002  1.0964 -0.2943
  150SAPE  H16S16596   2.566   4.194   8.208 -0.5290 -2.3783 -0.1381
  150SAPE  C21716597   2.380   4.150   8.105  0.0205  0.3718 -0.0499
  150SAPE  H17R16598   2.373   4.048   8.150 -3.5201  0.6850  0.3988
  150SAPE  H17S16599   2.331   4.149   8.005  1.5046 -2.6835 -0.8654
  150SAPE  C21816600   2.307   4.232   8.211  0.6976  0.0355 -0.7259
  150SAPE  H18R16601   2.368   4.222   8.304  1.3202 -2.9080 -1.3444
  150SAPE  H18S16602   2.198   4.215   8.228  0.9246 -0.0925  0.7624
  150SAPE  C21916603   2.298   4.384   8.171 -0.0204 -0.5570  0.4555
  150SAPE  H19R16604   2.396   4.428   8.143 -1.0612  0.9075 -1.1298
  150SAPE  H19S16605   2.251   4.440   8.255 -2.9289 -1.3821 -0.5177
  150SAPE  C22016606   2.221   4.414   8.044 -0.1514 -0.4648  0.1416
  150SAPE  H20R16607   2.122   4.363   8.038 -0.4497  0.1280 -0.1158
  150SAPE  H20S16608   2.268   4.373   7.952 -2.2334  0.2439 -1.3212
  150SAPE  H20T16609   2.194   4.522   8.038  2.1640  0.0891 -2.0286
  150SAPE   C3316610   1.856   4.996   6.591 -0.7222 -0.5244  0.5896
  150SAPE   H3X16611   1.809   4.896   6.592  2.3527 -2.0930  0.9349
  150SAPE   H3Y16612   1.843   5.047   6.493 -0.1740 -1.4363  0.0325
  150SAPE   C3416613   1.801   5.095   6.694  0.0063 -0.9856  0.5228
  150SAPE   H4X16614   1.703   5.136   6.659  0.4287  0.2967  0.8020
  150SAPE   H4Y16615   1.865   5.184   6.706  1.9482 -1.9827 -1.6944
  150SAPE   C3516616   1.785   5.030   6.839  0.0473 -0.6234  0.6016
  150SAPE   H5X16617   1.885   4.996   6.874  1.0113  1.6716  0.2597
  150SAPE   H5Y16618   1.720   4.940   6.832  0.9253 -1.1981 -0.2320
  150SAPE   C3616619   1.743   5.137   6.950  0.1007 -0.6446  0.5739
  150SAPE   H6X16620   1.641   5.176   6.928 -0.1021 -0.8318  1.1702
  150SAPE   H6Y16621   1.824   5.213   6.958  0.8434 -1.2515 -0.8427
  150SAPE   C3716622   1.732   5.083   7.094  0.1929  0.4518 -0.7412
  150SAPE   H7X16623   1.827   5.031   7.120 -0.0840  0.4170  0.2245
  150SAPE   H7Y16624   1.658   5.000   7.092  1.7696 -1.0358 -0.3463
  150SAPE   C3816625   1.706   5.186   7.212 -0.2923 -0.0412  0.1937
  150SAPE   H8X16626   1.617   5.245   7.181 -2.2275 -2.5947  0.6132
  150SAPE   H8Y16627   1.794   5.253   7.228  1.6668 -2.2630 -0.6438
  150SAPE   C3916628   1.671   5.114   7.345  0.2114 -0.1221  0.1907
  150SAPE   H9X16629   1.770   5.073   7.375  0.2665 -0.5635 -0.5793
  150SAPE   H9Y16630   1.609   5.024   7.329  0.3941 -0.4702  1.3380
  150SAPE  C31016631   1.604   5.199   7.457 -0.2024 -0.5278 -0.0467
  150SAPE  H10X16632   1.494   5.199   7.440  0.2875 -0.6855 -4.1533
  150SAPE  H10Y16633   1.644   5.303   7.461 -0.6070 -0.3524 -0.5291
  150SAPE  C31116634   1.619   5.119   7.587  0.2874 -0.2901  0.9451
  150SAPE  H11X16635   1.721   5.076   7.594  0.5000 -0.0972 -0.5520
  150SAPE  H11Y16636   1.554   5.029   7.576 -0.5261  0.5504 -2.1221
  150SAPE  C31216637   1.592   5.189   7.719 -0.1447  0.4438  0.2951
  150SAPE  H12X16638   1.496   5.244   7.703  1.4428  2.9502 -1.3919
  150SAPE  H12Y16639   1.677   5.259   7.733  2.1814 -1.7401 -1.9546
  150SAPE  C31316640   1.585   5.094   7.835 -1.1536 -0.5258 -0.2967
  150SAPE  H13X16641   1.680   5.036   7.841 -1.1546 -0.7569 -2.1414
  150SAPE  H13Y16642   1.500   5.026   7.813 -2.8307  1.4378 -0.2422
  150SAPE  C31416643   1.575   5.160   7.972  0.1550  0.4110  0.7372
  150SAPE  H14X16644   1.473   5.200   7.992 -0.3500 -1.0211  1.0919
  150SAPE  H14Y16645   1.645   5.247   7.972  0.9409 -0.1867  2.3086
  150SAPE  C31516646   1.621   5.079   8.096 -0.1680 -0.0510 -0.5029
  150SAPE  H15X16647   1.730   5.100   8.093  0.4285 -2.8218 -1.7283
  150SAPE  H15Y16648   1.601   4.972   8.071  1.5510 -0.7081  0.7493
  150SAPE  C31616649   1.554   5.133   8.223  0.3481  0.7910 -0.3192
  150SAPE  H16X16650   1.444   5.120   8.212  0.4339 -0.4411  0.0717
  150SAPE  H16Y16651   1.584   5.239   8.230  2.9169  0.1998 -1.2175
  150SAPE  C31716652   1.595   5.060   8.349  0.5845  0.2440 -0.4787
  150SAPE  H17X16653   1.537   5.093   8.438  0.2354  0.4700 -0.7882
  150SAPE  H17Y16654   1.701   5.077   8.377  1.5002 -5.0230  0.3787
  150SAPE  C31816655   1.574   4.907   8.346 -0.9558 -0.3760 -0.0399
  150SAPE  H18X16656   1.576   4.873   8.452  0.6590  1.9532  0.7588
  150SAPE  H18Y16657   1.662   4.853   8.305  1.1852  2.1243  0.9792
  150SAPE  H18Z16658   1.477   4.884   8.297 -0.7776 -0.3405 -0.4154
  151SAPE     N16659   4.304   1.022   6.296  0.3076 -0.5420  0.4446
  151SAPE   HN116660   4.306   0.927   6.337  0.9612 -0.6801  0.1095
  151SAPE   HN216661   4.243   1.019   6.212  0.6019  1.0486  0.1407
  151SAPE   HN316662   4.399   1.062   6.280 -0.0699  0.3091  0.2773
  151SAPE   C1216663   4.236   1.130   6.380  0.2092 -1.0891 -0.1901
  151SAPE  H12A16664   4.295   1.155   6.470  0.9564 -0.2059 -0.9019
  151SAPE  H12B16665   4.134   1.096   6.411 -0.9014  0.8407 -1.4967
  151SAPE   C1116666   4.230   1.255   6.300  0.3649  0.1739  0.2007
  151SAPE  H11A16667   4.181   1.342   6.348 -0.6924 -1.3477  1.9673
  151SAPE  H11B16668   4.151   1.221   6.229 -0.0111  0.2266  0.5892
  151SAPE     P16669   4.465   1.377   6.286  0.1178  0.1958 -0.1904
  151SAPE   O1316670   4.592   1.322   6.230  0.6934  0.0427 -0.1862
  151SAPE   O1416671   4.436   1.517   6.254  0.3466  0.1834  0.1315
  151SAPE   O1216672   4.351   1.282   6.228  0.8915 -0.6592  0.3184
  151SAPE   O1116673   4.471   1.345   6.443  0.1595  0.1733  0.1926
  151SAPE    C116674   4.414   1.446   6.532 -0.2117 -0.2998 -0.1033
  151SAPE    HA16675   4.318   1.491   6.499 -0.8069 -0.2548  1.6104
  151SAPE    HB16676   4.390   1.391   6.625 -1.3091 -0.4136 -0.4360
  151SAPE    C216677   4.514   1.569   6.560 -0.1158  0.1380  0.1476
  151SAPE    HS16678   4.533   1.618   6.462 -0.9124 -0.9226 -0.5675
  151SAPE   O2116679   4.634   1.519   6.618 -0.8121 -0.1004  0.0792
  151SAPE   C2116680   4.745   1.568   6.561  0.1389  0.3860 -0.8151
  151SAPE   O2216681   4.748   1.635   6.461 -0.7911 -0.1092  0.5862
  151SAPE   C2216682   4.871   1.508   6.626  0.4211  0.2307  0.5950
  151SAPE   H2R16683   4.854   1.403   6.656 -1.3882  0.6059  0.9855
  151SAPE   H2S16684   4.947   1.517   6.545 -1.6215  0.6660 -1.3820
  151SAPE    C316685   4.455   1.680   6.646 -0.0954 -0.2191  0.0449
  151SAPE    HX16686   4.349   1.702   6.619  0.3130  0.7492 -0.8488
  151SAPE    HY16687   4.517   1.768   6.618  1.7987 -1.7467 -0.7242
  151SAPE   O3116688   4.461   1.654   6.791 -0.5083 -0.3979  0.5110
  151SAPE   C3116689   4.364   1.579   6.830  0.0302  0.3075  0.5875
  151SAPE   O3216690   4.265   1.544   6.763 -0.7748  0.3156 -0.1756
  151SAPE   C3216691   4.388   1.550   6.978  0.3823  0.2758  0.5394
  151SAPE   H2X16692   4.497   1.537   6.996  1.2103  1.8701 -2.6532
  151SAPE   H2Y16693   4.333   1.455   6.996  1.7713 -0.1406  2.9109
  151SAPE   C2316694   4.926   1.593   6.750 -0.0172  0.4469 -0.0498
  151SAPE   H3R16695   4.874   1.690   6.746 -2.7824 -0.9401 -0.0106
  151SAPE   H3S16696   5.035   1.589   6.728 -0.0616  0.4597 -0.2763
  151SAPE   C2416697   4.895   1.539   6.889  0.6693 -0.2045 -0.1125
  151SAPE   H4R16698   4.961   1.451   6.906  1.7000  0.6349  0.3471
  151SAPE   H4S16699   4.789   1.506   6.895  1.0045 -1.5972 -1.1557
  151SAPE   C2516700   4.921   1.639   6.997 -0.5989  0.0453 -0.0477
  151SAPE   H5R16701   5.004   1.604   7.060 -0.8992 -0.0826  0.2824
  151SAPE   C2616702   4.858   1.752   7.022  0.6224 -0.0391  0.2415
  151SAPE   H6R16703   4.882   1.810   7.112 -0.2073  1.6511 -0.5681
  151SAPE   C2716704   4.731   1.808   6.951  0.0033 -0.2078  0.3243
  151SAPE   H7R16705   4.640   1.787   7.010 -0.4412 -0.6213 -0.4877
  151SAPE   H7S16706   4.714   1.758   6.853 -0.4150  2.0735 -0.8381
  151SAPE   C2816707   4.752   1.954   6.929  0.6056 -0.2146 -0.0788
  151SAPE   H8R16708   4.758   1.997   6.828  1.3835  0.7055  0.3452
  151SAPE   C2916709   4.743   2.043   7.031  0.9877  0.4112  0.2178
  151SAPE   H9R16710   4.753   2.150   7.004 -3.2259  0.4005 -2.2838
  151SAPE  C21016711   4.708   2.017   7.180 -0.2609 -0.1348  0.7150
  151SAPE  H10R16712   4.723   1.911   7.208 -0.2824 -0.7839 -1.5540
  151SAPE  H10S16713   4.600   2.028   7.203  0.3871  1.4935  3.3837
  151SAPE  C21116714   4.803   2.081   7.282 -0.3763 -0.7525 -0.2326
  151SAPE  H11R16715   4.905   2.038   7.275  0.0633  0.3485 -0.7864
  151SAPE  C21216716   4.777   2.167   7.382  0.3973  0.5918 -0.2924
  151SAPE  H12R16717   4.861   2.210   7.439  0.7327  1.3817 -1.3586
  151SAPE  C21316718   4.644   2.227   7.416  0.0607  0.0696 -0.0574
  151SAPE  H13R16719   4.598   2.236   7.315 -0.1654 -3.3204 -0.3947
  151SAPE  H13S16720   4.650   2.331   7.454 -0.9795  0.3145 -0.5147
  151SAPE  C21416721   4.553   2.129   7.490 -0.5109  0.3045 -0.1517
  151SAPE  H14R16722   4.540   2.028   7.448  1.3951 -0.0404  0.0256
  151SAPE  C21516723   4.476   2.152   7.600  0.4688  0.2166 -0.0705
  151SAPE  H15R16724   4.416   2.071   7.642  1.3847 -0.4132  0.0354
  151SAPE  C21616725   4.475   2.282   7.670 -0.2351  0.0538 -0.5936
  151SAPE  H16R16726   4.372   2.319   7.687  0.1559 -0.0246  2.8118
  151SAPE  H16S16727   4.521   2.360   7.606 -2.2245  1.7086 -0.0839
  151SAPE  C21716728   4.558   2.286   7.803  0.1395  0.0171  0.6314
  151SAPE  H17R16729   4.657   2.238   7.786 -0.6516 -0.7813 -2.3484
  151SAPE  H17S16730   4.506   2.231   7.884 -1.4008 -1.1502 -1.0755
  151SAPE  C21816731   4.573   2.425   7.859 -0.1341  0.0583  0.2678
  151SAPE  H18R16732   4.479   2.482   7.845 -2.0487 -2.8261  0.4061
  151SAPE  H18S16733   4.650   2.473   7.795  1.2234 -0.7409  1.2307
  151SAPE  C21916734   4.630   2.422   7.994 -0.1753 -0.2175  0.0598
  151SAPE  H19R16735   4.724   2.363   8.002 -1.0451 -1.7117 -0.2674
  151SAPE  H19S16736   4.555   2.360   8.046 -0.7163 -0.8904 -1.4719
  151SAPE  C22016737   4.641   2.556   8.073 -0.0624 -0.4785  0.0312
  151SAPE  H20R16738   4.628   2.531   8.180 -0.0561  1.6720  0.5714
  151SAPE  H20S16739   4.732   2.614   8.044 -1.0836  1.8305  1.2176
  151SAPE  H20T16740   4.547   2.610   8.052  1.7562  2.6262 -0.7823
  151SAPE   C3316741   4.324   1.654   7.061  0.7984 -0.4124 -0.5649
  151SAPE   H3X16742   4.213   1.655   7.055  0.8023 -1.1156 -0.8701
  151SAPE   H3Y16743   4.368   1.753   7.035  0.6908 -0.0935  0.4045
  151SAPE   C3416744   4.347   1.630   7.206 -0.4439  0.0759 -0.4052
  151SAPE   H4X16745   4.427   1.553   7.219 -2.5243 -1.8180  2.3251
  151SAPE   H4Y16746   4.262   1.580   7.258 -1.1970  1.2239 -0.5049
  151SAPE   C3516747   4.398   1.753   7.284 -0.2142  0.2636  0.3038
  151SAPE   H5X16748   4.325   1.837   7.286 -0.3721  0.1216  1.3437
  151SAPE   H5Y16749   4.484   1.800   7.234 -0.7415  0.6961 -0.2088
  151SAPE   C3616750   4.448   1.732   7.420  0.0211  0.1941 -0.2470
  151SAPE   H6X16751   4.528   1.807   7.434  1.3093 -0.9868 -1.0682
  151SAPE   H6Y16752   4.491   1.631   7.436 -1.3335 -0.1977  1.1633
  151SAPE   C3716753   4.348   1.750   7.536  0.1067  0.2543  1.0397
  151SAPE   H7X16754   4.284   1.659   7.530  1.0974 -0.3878 -1.5666
  151SAPE   H7Y16755   4.285   1.840   7.521  1.8395  1.0791 -2.4670
  151SAPE   C3816756   4.418   1.759   7.677  0.9767 -0.1739 -0.3468
  151SAPE   H8X16757   4.497   1.836   7.664 -0.2699  0.7999 -2.8339
  151SAPE   H8Y16758   4.474   1.667   7.705  3.1629  0.5745 -2.0292
  151SAPE   C3916759   4.320   1.810   7.785 -0.2168 -0.2988 -0.0179
  151SAPE   H9X16760   4.232   1.743   7.800 -1.0612  1.0546  1.3204
  151SAPE   H9Y16761   4.274   1.905   7.751  0.4938 -0.3475 -1.1618
  151SAPE  C31016762   4.378   1.833   7.922  0.4097  0.1653 -0.0399
  151SAPE  H10X16763   4.465   1.902   7.919  0.4858  0.1295  0.9824
  151SAPE  H10Y16764   4.420   1.744   7.973 -0.7169  0.3015  1.1782
  151SAPE  C31116765   4.268   1.867   8.025 -0.1112  0.3789 -0.0287
  151SAPE  H11X16766   4.171   1.815   8.008  0.7613 -0.5561 -2.7311
  151SAPE  H11Y16767   4.241   1.970   7.995 -0.5158 -0.2764 -2.0397
  151SAPE  C31216768   4.315   1.872   8.168  0.9329  0.1530 -0.2455
  151SAPE  H12X16769   4.248   1.935   8.230 -0.9060 -0.1251 -1.8647
  151SAPE  H12Y16770   4.416   1.919   8.170  1.3031 -0.5922 -0.7372
  151SAPE  C31316771   4.323   1.736   8.228 -0.3280 -0.3285 -0.4638
  151SAPE  H13X16772   4.406   1.676   8.185  0.8738  2.1856 -1.8870
  151SAPE  H13Y16773   4.225   1.688   8.209  0.8933 -3.4612  0.5730
  151SAPE  C31416774   4.342   1.743   8.378 -0.4023 -0.8852 -0.9014
  151SAPE  H14X16775   4.265   1.814   8.416 -0.5203 -1.9393  0.9177
  151SAPE  H14Y16776   4.444   1.772   8.413 -1.3740  0.6151  0.8713
  151SAPE  C31516777   4.322   1.605   8.436  0.3408  0.2571  0.0625
  151SAPE  H15X16778   4.402   1.531   8.415  0.6510 -0.2942  2.7523
  151SAPE  H15Y16779   4.228   1.561   8.397  0.7255 -0.4263 -0.1030
  151SAPE  C31616780   4.307   1.612   8.589  1.1305  0.7305 -1.1974
  151SAPE  H16X16781   4.254   1.526   8.634  1.1218  2.9704  3.7736
  151SAPE  H16Y16782   4.245   1.691   8.635  0.8437  0.4461 -1.0957
  151SAPE  C31716783   4.441   1.621   8.669 -0.2319  0.7582 -0.0703
  151SAPE  H17X16784   4.420   1.619   8.778 -0.4119 -0.0269 -0.1170
  151SAPE  H17Y16785   4.488   1.721   8.654 -0.4234  0.5319 -2.6202
  151SAPE  C31816786   4.542   1.507   8.655  0.0291  0.4269  0.4231
  151SAPE  H18X16787   4.622   1.516   8.732 -0.8550 -0.2152  1.4497
  151SAPE  H18Y16788   4.582   1.526   8.553 -1.9898  0.1861 -0.4495
  151SAPE  H18Z16789   4.489   1.410   8.651  2.4301 -0.9305 -0.6991
  152SAPE     N16790   1.235   5.512   6.061  0.3948 -0.1020  0.1701
  152SAPE   HN116791   1.266   5.428   6.114  0.5286  0.3692  0.8479
  152SAPE   HN216792   1.132   5.502   6.067  0.4734 -0.9683  0.3085
  152SAPE   HN316793   1.252   5.493   5.960 -0.1793 -0.3930  0.1242
  152SAPE   C1216794   1.277   5.633   6.125 -0.0632 -0.1872 -0.0235
  152SAPE  H12A16795   1.254   5.723   6.064 -1.5061 -0.5109 -0.0090
  152SAPE  H12B16796   1.385   5.625   6.150  0.2515 -1.3744 -1.6149
  152SAPE   C1116797   1.209   5.658   6.273 -0.5063 -0.2000 -0.2987
  152SAPE  H11A16798   1.268   5.728   6.334 -0.7004 -0.7749  0.5704
  152SAPE  H11B16799   1.208   5.558   6.323 -0.8224  0.2558  0.6248
  152SAPE     P16800   1.059   5.864   6.251 -0.0955  0.4842 -0.1866
  152SAPE   O1316801   1.134   5.910   6.131  0.2037  0.0666 -0.0996
  152SAPE   O1416802   0.915   5.898   6.259 -0.4954  0.5848 -0.1472
  152SAPE   O1216803   1.076   5.707   6.264  0.5037 -0.1534  0.3714
  152SAPE   O1116804   1.137   5.930   6.370  0.3284  0.7465  0.2414
  152SAPE    C116805   1.106   5.876   6.499 -0.4453  0.0785  0.0508
  152SAPE    HA16806   1.057   5.779   6.520  1.1073 -0.5272  1.1399
  152SAPE    HB16807   1.203   5.855   6.549 -1.6791 -1.5517  1.9253
  152SAPE    C216808   1.050   5.987   6.591 -0.3718 -0.6771 -0.3316
  152SAPE    HS16809   0.954   6.012   6.540 -1.3294 -0.6435  1.3845
  152SAPE   O2116810   1.142   6.095   6.582 -0.4717  0.7746 -0.3529
  152SAPE   C2116811   1.086   6.213   6.617 -0.1243 -0.3385 -0.0317
  152SAPE   O2216812   0.970   6.228   6.649 -0.0106 -0.3675  0.7403
  152SAPE   C2216813   1.191   6.318   6.603 -0.0859 -0.5465  0.0202
  152SAPE   H2R16814   1.243   6.315   6.701 -0.5012 -0.4648  0.2434
  152SAPE   H2S16815   1.259   6.298   6.517  1.5508 -2.5707  1.6811
  152SAPE    C316816   1.023   5.941   6.745 -0.4752  0.5225  0.1938
  152SAPE    HX16817   0.939   5.869   6.738 -0.6166  0.3378  2.9225
  152SAPE    HY16818   0.989   6.033   6.797 -1.0052 -0.7528  2.2103
  152SAPE   O3116819   1.139   5.877   6.811  0.6123 -0.2869 -0.0998
  152SAPE   C3116820   1.219   5.962   6.878  0.0928 -0.2547 -0.1017
  152SAPE   O3216821   1.201   6.077   6.893 -0.8186 -0.3641 -0.5813
  152SAPE   C3216822   1.334   5.882   6.942  0.5702 -0.6048 -0.0431
  152SAPE   H2X16823   1.423   5.896   6.877  0.7350 -0.1826  0.2641
  152SAPE   H2Y16824   1.301   5.777   6.959  2.9069 -1.7170 -1.7786
  152SAPE   C2316825   1.132   6.458   6.575 -0.2671 -0.9428  0.1974
  152SAPE   H3R16826   1.063   6.459   6.488  1.8162 -1.3177 -1.5264
  152SAPE   H3S16827   1.223   6.518   6.553  2.1254 -4.4670 -0.3540
  152SAPE   C2416828   1.042   6.531   6.686  0.2950 -0.7181  0.1651
  152SAPE   H4R16829   0.958   6.464   6.713  0.5096 -0.0862  2.5657
  152SAPE   H4S16830   1.001   6.626   6.646  0.3984  0.2450  2.2242
  152SAPE   C2516831   1.132   6.571   6.797  0.0173  0.2338 -0.1493
  152SAPE   H5R16832   1.216   6.640   6.781  0.4927 -0.2527  0.2048
  152SAPE   C2616833   1.124   6.525   6.922  0.3831  0.6712  0.8587
  152SAPE   H6R16834   1.193   6.573   6.993  1.4387 -2.0415  1.8120
  152SAPE   C2716835   1.023   6.433   6.980 -0.5406 -0.1875  0.7901
  152SAPE   H7R16836   0.993   6.356   6.906 -0.2435  0.0861  0.3847
  152SAPE   H7S16837   0.935   6.497   7.005 -0.9253 -0.4249  0.0796
  152SAPE   C2816838   1.076   6.351   7.094 -0.4648  0.1385  0.0485
  152SAPE   H8R16839   1.122   6.257   7.058 -0.4626  0.1585 -0.0016
  152SAPE   C2916840   1.073   6.378   7.226  0.3347 -0.3903 -0.2547
  152SAPE   H9R16841   1.105   6.296   7.293  0.6323 -1.0807 -1.2305
  152SAPE  C21016842   1.014   6.504   7.292 -0.2445 -0.8239 -0.2803
  152SAPE  H10R16843   0.920   6.483   7.348 -0.5549 -1.0076 -0.8640
  152SAPE  H10S16844   0.976   6.576   7.217  0.5723  0.9710  0.9430
  152SAPE  C21116845   1.120   6.584   7.363  0.1403 -0.3619 -0.2217
  152SAPE  H11R16846   1.149   6.677   7.312 -0.2666 -0.9129 -1.5118
  152SAPE  C21216847   1.165   6.567   7.491 -0.4557  0.0975 -0.3138
  152SAPE  H12R16848   1.221   6.653   7.528 -0.6080 -0.2224  0.6960
  152SAPE  C21316849   1.127   6.461   7.592  0.8418 -0.7326  0.3017
  152SAPE  H13R16850   1.215   6.435   7.654  1.1461  1.3342  0.8048
  152SAPE  H13S16851   1.109   6.368   7.534  0.8209 -1.2519  1.1290
  152SAPE  C21416852   1.001   6.499   7.666  0.2714  0.3240  0.2521
  152SAPE  H14R16853   0.910   6.483   7.606 -0.3328 -2.0074  1.6847
  152SAPE  C21516854   0.989   6.541   7.795 -0.1047 -0.2195  0.0775
  152SAPE  H15R16855   0.890   6.569   7.834 -0.2271 -0.5025 -0.0232
  152SAPE  C21616856   1.106   6.570   7.893 -0.2291 -0.1253  0.6767
  152SAPE  H16R16857   1.193   6.516   7.849 -2.4905 -3.6742  0.1527
  152SAPE  H16S16858   1.086   6.531   7.995 -0.6960  0.6146  0.8732
  152SAPE  C21716859   1.126   6.726   7.908 -0.2433 -0.1781 -0.1241
  152SAPE  H17R16860   1.042   6.756   7.973  1.3539  1.7486  1.1724
  152SAPE  H17S16861   1.123   6.781   7.811  1.4361 -1.2632 -0.8471
  152SAPE  C21816862   1.258   6.766   7.985 -0.1936 -0.1900  0.1056
  152SAPE  H18R16863   1.261   6.874   8.009  0.3060 -0.8132  3.3488
  152SAPE  H18S16864   1.349   6.748   7.925 -1.3172 -0.3157 -1.6481
  152SAPE  C21916865   1.263   6.690   8.118  0.1541  0.1104  0.7554
  152SAPE  H19R16866   1.285   6.583   8.097  1.4227  0.4139  0.4815
  152SAPE  H19S16867   1.161   6.681   8.162 -0.5193 -0.0376 -0.7575
  152SAPE  C22016868   1.360   6.730   8.225 -0.2118  0.0093 -0.1860
  152SAPE  H20R16869   1.349   6.656   8.307 -1.6614  1.1675  0.7196
  152SAPE  H20S16870   1.333   6.828   8.270 -0.7593 -1.0835  2.0199
  152SAPE  H20T16871   1.464   6.748   8.192  0.2687  0.7675  1.6191
  152SAPE   C3316872   1.374   5.941   7.081 -0.2527  0.1685  0.2639
  152SAPE   H3X16873   1.379   6.051   7.065  2.6934  0.0575 -0.2354
  152SAPE   H3Y16874   1.476   5.900   7.101 -0.4847 -0.3606  0.3642
  152SAPE   C3416875   1.292   5.905   7.205 -0.0324  0.0367 -0.0989
  152SAPE   H4X16876   1.321   5.800   7.230 -0.3648 -0.2130 -0.7339
  152SAPE   H4Y16877   1.182   5.898   7.205 -0.1475  1.5075  1.4361
  152SAPE   C3516878   1.336   5.985   7.327  0.2577 -0.6442  0.7439
  152SAPE   H5X16879   1.306   6.092   7.324  1.5976 -0.2576 -2.1559
  152SAPE   H5Y16880   1.446   5.978   7.342  0.1456  0.2221  2.1272
  152SAPE   C3616881   1.268   5.938   7.458  0.6137  0.0066  0.1206
  152SAPE   H6X16882   1.281   5.830   7.482 -0.3654 -0.0200  0.5754
  152SAPE   H6Y16883   1.158   5.952   7.446  0.6748  0.8550  0.5073
  152SAPE   C3716884   1.310   6.022   7.573  0.0077 -0.2227 -0.1262
  152SAPE   H7X16885   1.311   6.126   7.535  1.1880 -0.1477  0.0496
  152SAPE   H7Y16886   1.408   6.002   7.623 -1.6155 -0.1510  3.4025
  152SAPE   C3816887   1.225   6.004   7.704  0.1576  0.6981  0.2591
  152SAPE   H8X16888   1.258   5.905   7.742 -0.9619 -0.3671 -1.4661
  152SAPE   H8Y16889   1.116   6.007   7.685  0.1551 -0.4124  0.0903
  152SAPE   C3916890   1.260   6.124   7.803  0.8071 -0.4124 -0.9075
  152SAPE   H9X16891   1.218   6.220   7.765 -0.5688  0.2123  1.9583
  152SAPE   H9Y16892   1.366   6.144   7.778  0.3779  3.2898 -0.3411
  152SAPE  C31016893   1.233   6.101   7.949 -0.1149 -0.3235 -0.5895
  152SAPE  H10X16894   1.316   6.044   7.996 -0.1871  0.7833  0.9470
  152SAPE  H10Y16895   1.151   6.028   7.961 -2.0509  1.8965  0.4790
  152SAPE  C31116896   1.200   6.228   8.034  0.0130 -0.3864  0.4920
  152SAPE  H11X16897   1.118   6.286   7.988  2.5827  3.4850  0.3669
  152SAPE  H11Y16898   1.285   6.299   8.030 -0.5456  0.2903 -3.0291
  152SAPE  C31216899   1.163   6.179   8.177 -0.4857 -0.8896 -0.1211
  152SAPE  H12X16900   1.254   6.119   8.198  0.1048 -1.3881 -3.6016
  152SAPE  H12Y16901   1.085   6.101   8.169 -1.0239 -0.2286 -1.6956
  152SAPE  C31316902   1.131   6.283   8.281 -0.1958 -0.0399 -0.4731
  152SAPE  H13X16903   1.214   6.357   8.280 -0.7061  0.5895  1.1433
  152SAPE  H13Y16904   1.147   6.220   8.371 -0.1615 -2.7108 -2.2235
  152SAPE  C31416905   0.989   6.342   8.272 -0.4611 -1.1235 -0.5093
  152SAPE  H14X16906   0.918   6.257   8.280 -1.3615 -0.4938 -1.6178
  152SAPE  H14Y16907   0.973   6.386   8.172 -0.6794 -0.2192 -0.0927
  152SAPE  C31516908   0.941   6.437   8.385  0.2019 -0.4479  1.0015
  152SAPE  H15X16909   0.945   6.376   8.479 -2.0419  1.8807  2.7536
  152SAPE  H15Y16910   0.837   6.468   8.363  0.7204 -0.0981 -1.1638
  152SAPE  C31616911   1.028   6.563   8.413  0.6834  0.3076  0.4159
  152SAPE  H16X16912   1.037   6.637   8.330 -0.5909  1.5396  1.3071
  152SAPE  H16Y16913   1.129   6.524   8.434  1.2212  1.3817 -0.0790
  152SAPE  C31716914   0.985   6.655   8.528  0.3022  1.2943 -0.2007
  152SAPE  H17X16915   0.996   6.605   8.626  0.3703 -0.7746 -1.2172
  152SAPE  H17Y16916   0.883   6.690   8.499  0.2890  1.1988 -0.2676
  152SAPE  C31816917   1.072   6.783   8.526  0.5305  0.5080 -0.2689
  152SAPE  H18X16918   1.178   6.750   8.533  0.3416  0.1099  0.9266
  152SAPE  H18Y16919   1.057   6.860   8.605 -0.3255 -0.3225  0.3997
  152SAPE  H18Z16920   1.065   6.834   8.427  1.8337  1.4948  0.1224
  153SAPE     N16921   3.381   6.084   6.606  0.0399 -0.3542  0.2958
  153SAPE   HN116922   3.366   5.982   6.619 -1.1156 -0.3504 -0.8725
  153SAPE   HN216923   3.484   6.084   6.590 -0.1024  1.5563 -0.8343
  153SAPE   HN316924   3.366   6.147   6.687  0.6002 -1.4950  1.3343
  153SAPE   C1216925   3.292   6.125   6.493 -0.2383  0.8430  0.2899
  153SAPE  H12A16926   3.195   6.152   6.539 -0.2818 -1.0990  1.4673
  153SAPE  H12B16927   3.283   6.037   6.426 -0.0762  1.1085 -0.0854
  153SAPE   C1116928   3.349   6.248   6.422  0.8414  0.7063  0.0349
  153SAPE  H11A16929   3.352   6.328   6.500 -0.3210  0.2476  0.5764
  153SAPE  H11B16930   3.294   6.288   6.334  2.5121 -0.3105 -1.5202
  153SAPE     P16931   3.598   6.303   6.364 -0.6706  0.0577  0.2626
  153SAPE   O1316932   3.718   6.234   6.422  0.2334 -0.0898  0.4071
  153SAPE   O1416933   3.612   6.342   6.218 -0.4496  0.1919  0.0326
  153SAPE   O1216934   3.473   6.206   6.375 -0.0339 -0.2308 -0.2437
  153SAPE   O1116935   3.561   6.429   6.445 -0.3112  0.6160 -0.0219
  153SAPE    C116936   3.568   6.440   6.586  0.1803 -0.0610  0.0904
  153SAPE    HA16937   3.471   6.475   6.627  0.2053 -2.5058  2.5377
  153SAPE    HB16938   3.575   6.339   6.631  0.2026  0.1190  0.4992
  153SAPE    C216939   3.687   6.533   6.626  0.3083 -0.1428 -0.0094
  153SAPE    HS16940   3.780   6.484   6.590  0.6226 -0.8106  1.6606
  153SAPE   O2116941   3.677   6.533   6.769  0.7218  0.0673  0.1693
  153SAPE   C2116942   3.781   6.572   6.832 -0.3958 -0.3580 -0.6083
  153SAPE   O2216943   3.880   6.626   6.784  0.5997  0.6535 -0.0293
  153SAPE   C2216944   3.766   6.554   6.984 -0.4315  0.8417 -0.0579
  153SAPE   H2R16945   3.660   6.560   7.014 -0.3059  0.2660  0.5075
  153SAPE   H2S16946   3.798   6.451   7.009 -3.7134 -0.9823 -2.6114
  153SAPE    C316947   3.680   6.675   6.578  0.3873 -0.4006  0.6846
  153SAPE    HX16948   3.684   6.675   6.467  1.0465  2.7048  0.6256
  153SAPE    HY16949   3.758   6.743   6.618 -1.4136  2.1254  0.1322
  153SAPE   O3116950   3.552   6.728   6.616  0.4898 -0.0684 -0.2418
  153SAPE   C3116951   3.546   6.836   6.699 -0.3901 -0.0419 -0.1680
  153SAPE   O3216952   3.644   6.898   6.738 -0.6086 -0.1797  0.7922
  153SAPE   C3216953   3.403   6.891   6.733 -1.1018  0.4212  0.0897
  153SAPE   H2X16954   3.344   6.899   6.639 -0.7478  0.5281 -0.1255
  153SAPE   H2Y16955   3.419   6.994   6.771 -0.1116  0.1090  0.5586
  153SAPE   C2316956   3.849   6.660   7.069 -0.4670  0.0143 -0.2645
  153SAPE   H3R16957   3.773   6.741   7.081 -1.2208 -0.4630 -1.5351
  153SAPE   H3S16958   3.940   6.704   7.022  0.5007  0.4820  1.9161
  153SAPE   C2416959   3.888   6.596   7.206 -0.1553 -0.1387  0.0718
  153SAPE   H4R16960   3.946   6.503   7.187 -3.5208 -2.8177  1.7302
  153SAPE   H4S16961   3.789   6.564   7.246 -1.4613  0.1285 -2.6973
  153SAPE   C2516962   3.955   6.697   7.290 -0.5295 -0.3735 -0.1419
  153SAPE   H5R16963   4.030   6.760   7.240  1.4370 -2.0671  0.5178
  153SAPE   C2616964   3.959   6.715   7.427 -0.2205  0.6120 -0.0629
  153SAPE   H6R16965   4.009   6.797   7.480  1.1047 -0.5385  0.5394
  153SAPE   C2716966   3.887   6.638   7.535 -0.0995  0.1124  0.1212
  153SAPE   H7R16967   3.776   6.631   7.523 -0.1412 -0.6453  0.8396
  153SAPE   H7S16968   3.906   6.702   7.624  2.8968  0.7706 -0.8700
  153SAPE   C2816969   3.945   6.505   7.554  0.5114  0.4808 -0.2320
  153SAPE   H8R16970   3.988   6.448   7.470  0.1877  2.5581 -1.8734
  153SAPE   C2916971   3.970   6.446   7.675 -0.3171 -0.5901  0.4206
  153SAPE   H9R16972   4.025   6.351   7.681  0.0957 -0.3017  1.5550
  153SAPE  C21016973   3.946   6.505   7.813  0.8338 -0.1870  0.0596
  153SAPE  H10R16974   3.874   6.448   7.877  0.4016  0.5413  0.2271
  153SAPE  H10S16975   3.883   6.595   7.799 -0.3394 -1.1173 -0.8963
  153SAPE  C21116976   4.076   6.533   7.891  0.0411 -0.0640 -0.6495
  153SAPE  H11R16977   4.166   6.476   7.865  0.3876  0.0929  0.1666
  153SAPE  C21216978   4.092   6.625   7.993  0.1660  0.2772  0.3549
  153SAPE  H12R16979   4.191   6.640   8.038  0.1770  2.3003 -0.2557
  153SAPE  C21316980   3.993   6.722   8.053  0.6379 -0.0100 -0.4053
  153SAPE  H13R16981   3.996   6.713   8.163  2.8821 -0.4366 -0.4548
  153SAPE  H13S16982   3.887   6.698   8.029  0.6221  0.2261 -0.5750
  153SAPE  C21416983   4.027   6.861   7.997 -0.4289 -0.2086  0.0651
  153SAPE  H14R16984   4.040   6.859   7.888 -2.5872 -1.5681 -0.2295
  153SAPE  C21516985   4.032   6.972   8.071  0.1968  0.2640  0.4786
  153SAPE  H15R16986   4.051   7.067   8.020 -0.5091 -0.2097 -0.7206
  153SAPE  C21616987   4.009   6.968   8.218 -0.0216 -0.0811 -0.5074
  153SAPE  H16R16988   3.927   6.898   8.247  0.0077  0.1184  0.0647
  153SAPE  H16S16989   3.976   7.066   8.258 -0.5395  0.0785 -1.3026
  153SAPE  C21716990   4.137   6.927   8.300  0.7463 -0.5614  0.1556
  153SAPE  H17R16991   4.207   7.012   8.281  1.0679 -1.0063 -0.6948
  153SAPE  H17S16992   4.186   6.831   8.275  1.2309 -0.2762 -0.0247
  153SAPE  C21816993   4.123   6.930   8.455 -0.4276 -0.2594  0.0800
  153SAPE  H18R16994   4.111   7.037   8.484  0.1277 -0.3959  0.8701
  153SAPE  H18S16995   4.222   6.909   8.502 -1.8903 -1.1732  3.0307
  153SAPE  C21916996   4.013   6.840   8.518 -0.2136 -0.0198  0.0515
  153SAPE  H19R16997   3.916   6.874   8.474  0.8974  0.2121 -2.3711
  153SAPE  H19S16998   4.016   6.854   8.628 -1.8537 -2.7362  0.5180
  153SAPE  C22016999   4.023   6.693   8.484  0.2458  0.3571 -0.3295
  153SAPE  H20R17000   3.967   6.624   8.551  1.2127  0.3129  0.4461
  153SAPE  H20S17001   4.127   6.656   8.477 -0.5923 -1.7677 -3.6583
  153SAPE  H20T17002   3.972   6.669   8.388  1.6621 -2.6501 -0.4452
  153SAPE   C3317003   3.326   6.800   6.822 -0.8031  0.8382  0.2882
  153SAPE   H3X17004   3.336   6.697   6.782 -2.7334  1.4931 -2.1192
  153SAPE   H3Y17005   3.216   6.819   6.816 -1.2477 -1.1255  1.3184
  153SAPE   C3417006   3.372   6.795   6.972 -0.3939  0.1200 -0.4475
  153SAPE   H4X17007   3.345   6.898   7.003 -2.1283 -0.6648  0.9020
  153SAPE   H4Y17008   3.479   6.776   6.992 -0.6948 -1.6735 -0.3702
  153SAPE   C3517009   3.283   6.713   7.064  0.3321  0.0082  0.1924
  153SAPE   H5X17010   3.253   6.619   7.013 -2.0385  0.4750  0.6044
  153SAPE   H5Y17011   3.181   6.757   7.068  0.2753 -0.2075  1.2243
  153SAPE   C3617012   3.337   6.693   7.209  0.6527  0.1509 -0.6055
  153SAPE   H6X17013   3.356   6.788   7.262 -0.0305  0.1730 -0.3959
  153SAPE   H6Y17014   3.432   6.636   7.212  0.5724  0.0297 -0.3213
  153SAPE   C3717015   3.248   6.609   7.305  0.1762  0.3276  0.7960
  153SAPE   H7X17016   3.217   6.524   7.241  0.7628  0.7276 -0.0320
  153SAPE   H7Y17017   3.161   6.673   7.331  0.0037 -0.1424  1.4047
  153SAPE   C3817018   3.322   6.562   7.425 -0.3897  0.2415  0.2207
  153SAPE   H8X17019   3.425   6.528   7.399 -0.2112  0.3377  0.8037
  153SAPE   H8Y17020   3.270   6.487   7.487 -0.3315  0.2826  0.3192
  153SAPE   C3917021   3.334   6.683   7.525  0.1426 -0.0539  0.8144
  153SAPE   H9X17022   3.235   6.713   7.565  0.0579  0.8919 -0.0676
  153SAPE   H9Y17023   3.380   6.773   7.480  0.7250  0.6447  2.7099
  153SAPE  C31017024   3.435   6.657   7.637 -0.9074 -0.0110 -0.0738
  153SAPE  H10X17025   3.537   6.649   7.592 -0.6031 -1.7965  0.8523
  153SAPE  H10Y17026   3.415   6.558   7.683 -0.2559 -0.2129 -0.2078
  153SAPE  C31117027   3.439   6.771   7.742  0.3357  0.5965  0.4979
  153SAPE  H11X17028   3.332   6.776   7.771  0.2855  0.8896  0.2644
  153SAPE  H11Y17029   3.464   6.866   7.691 -1.1929  0.0845 -1.3327
  153SAPE  C31217030   3.528   6.756   7.859 -0.4393  0.3235  0.1089
  153SAPE  H12X17031   3.632   6.771   7.823  0.4512 -0.2397  2.2522
  153SAPE  H12Y17032   3.523   6.650   7.891 -1.5079 -0.1671 -1.5694
  153SAPE  C31317033   3.504   6.865   7.960  0.2485  0.0594 -0.3095
  153SAPE  H13X17034   3.414   6.851   8.023 -0.5109  2.7553 -0.6640
  153SAPE  H13Y17035   3.488   6.963   7.909  1.4056  0.7894  0.6566
  153SAPE  C31417036   3.616   6.894   8.059  0.3674  0.8160 -0.7033
  153SAPE  H14X17037   3.714   6.859   8.021  0.7441 -1.5343  2.1541
  153SAPE  H14Y17038   3.598   6.830   8.148  0.5609  1.5210 -0.1517
  153SAPE  C31517039   3.628   7.041   8.096  0.6019  0.2121 -0.5295
  153SAPE  H15X17040   3.643   7.102   8.005  3.3936  1.6198  0.7166
  153SAPE  H15Y17041   3.721   7.057   8.155  1.1123 -0.3938 -1.1558
  153SAPE  C31617042   3.507   7.090   8.178  0.2168  0.8544 -0.8283
  153SAPE  H16X17043   3.472   7.016   8.252  3.2970 -0.0020 -0.0633
  153SAPE  H16Y17044   3.417   7.093   8.114 -3.7470 -1.4532  4.0311
  153SAPE  C31717045   3.528   7.227   8.240 -1.1835  0.2190  0.4507
  153SAPE  H17X17046   3.430   7.271   8.270 -1.5848  0.0955 -0.6131
  153SAPE  H17Y17047   3.582   7.292   8.168  1.2542 -0.9666  1.1021
  153SAPE  C31817048   3.613   7.222   8.363 -0.0544  0.3362 -0.7005
  153SAPE  H18X17049   3.719   7.201   8.338 -0.0529  0.2676 -0.6356
  153SAPE  H18Y17050   3.576   7.136   8.422 -0.7713  1.3700  0.4009
  153SAPE  H18Z17051   3.598   7.317   8.417 -0.6736  1.4010 -2.6372
  154SAPE     N17052   2.693   6.261   6.367 -0.1666 -0.0116 -0.3998
  154SAPE   HN117053   2.770   6.195   6.390 -0.2538 -0.1893 -0.6048
  154SAPE   HN217054   2.686   6.328   6.446  4.5484  0.1337  0.1775
  154SAPE   HN317055   2.604   6.209   6.354  0.4619 -1.1718 -0.2540
  154SAPE   C1217056   2.740   6.344   6.250  0.2615 -0.0851  0.0287
  154SAPE  H12A17057   2.851   6.341   6.254  0.3094 -2.7359 -0.9392
  154SAPE  H12B17058   2.695   6.446   6.257  0.3911 -0.1531  3.2355
  154SAPE   C1117059   2.692   6.289   6.113  0.0839  0.2582  0.5534
  154SAPE  H11A17060   2.735   6.187   6.107 -0.7378 -0.1208  0.9387
  154SAPE  H11B17061   2.746   6.345   6.033 -1.8920  1.5549  0.0716
  154SAPE     P17062   2.460   6.183   6.082  0.4816  0.1827 -0.2827
  154SAPE   O1317063   2.320   6.217   6.054  0.2884  0.3774  0.1578
  154SAPE   O1417064   2.525   6.081   5.997  0.2727  0.5829 -0.1949
  154SAPE   O1217065   2.557   6.304   6.078  0.5391 -0.8943 -0.8130
  154SAPE   O1117066   2.476   6.141   6.231  1.3635 -0.9097  0.1010
  154SAPE    C117067   2.366   6.078   6.308 -0.1993  0.1245  0.2252
  154SAPE    HA17068   2.279   6.144   6.326 -0.3864 -0.4915  1.6875
  154SAPE    HB17069   2.329   5.989   6.253 -1.3568  1.3911 -1.1565
  154SAPE    C217070   2.403   6.029   6.448  0.2561 -0.3597 -0.0534
  154SAPE    HS17071   2.305   5.998   6.488  0.1720 -1.9204 -1.3469
  154SAPE   O2117072   2.478   6.136   6.514 -0.2493  1.4499  0.3517
  154SAPE   C2117073   2.438   6.143   6.644  0.5293 -0.6787 -0.2375
  154SAPE   O2217074   2.358   6.064   6.690  0.2537 -0.0281 -0.5330
  154SAPE   C2217075   2.499   6.263   6.711  0.6473 -0.1602 -0.4125
  154SAPE   H2R17076   2.607   6.262   6.685  0.5646  0.1353 -0.7914
  154SAPE   H2S17077   2.456   6.353   6.661  0.2961  0.0670  0.2851
  154SAPE    C317078   2.485   5.893   6.442 -0.5928 -0.1768 -0.2685
  154SAPE    HX17079   2.581   5.916   6.390 -0.0523  0.5201  1.0043
  154SAPE    HY17080   2.434   5.819   6.376  0.5397 -1.0624 -0.1774
  154SAPE   O3117081   2.516   5.837   6.571  0.0370  0.0580 -0.0466
  154SAPE   C3117082   2.426   5.759   6.618  0.3608  0.1375 -0.3247
  154SAPE   O3217083   2.322   5.734   6.563 -1.2692  0.2850 -0.0655
  154SAPE   C3217084   2.458   5.691   6.745 -0.9680 -0.1518  0.2394
  154SAPE   H2X17085   2.565   5.664   6.736 -0.9552  0.4589 -2.1298
  154SAPE   H2Y17086   2.409   5.591   6.747 -1.7753  0.2262 -0.0813
  154SAPE   C2317087   2.476   6.300   6.869  0.8872  0.5475  0.2731
  154SAPE   H3R17088   2.526   6.399   6.884 -0.4085  1.5847 -1.7999
  154SAPE   H3S17089   2.533   6.230   6.934 -2.5948 -0.7670  2.1768
  154SAPE   C2417090   2.338   6.315   6.919  0.3095  0.3124 -0.2052
  154SAPE   H4R17091   2.296   6.215   6.941 -2.1404  1.3899  0.4022
  154SAPE   H4S17092   2.265   6.355   6.845  1.0775 -0.3545 -1.3666
  154SAPE   C2517093   2.329   6.407   7.045 -0.6902  0.3285  0.2975
  154SAPE   H5R17094   2.314   6.512   7.015  0.3671  0.1236 -1.0593
  154SAPE   C2617095   2.344   6.369   7.173  0.7307  0.0631 -0.7134
  154SAPE   H6R17096   2.348   6.445   7.252 -0.2215  0.0746 -0.6647
  154SAPE   C2717097   2.360   6.232   7.228 -0.0658  0.4406 -0.7705
  154SAPE   H7R17098   2.335   6.163   7.144  1.3754 -0.8797 -0.1786
  154SAPE   H7S17099   2.287   6.207   7.308  0.9325  0.2358  0.1039
  154SAPE   C2817100   2.504   6.198   7.262 -0.3741 -0.8238  0.4583
  154SAPE   H8R17101   2.565   6.202   7.171 -3.2787  2.2374 -1.6113
  154SAPE   C2917102   2.556   6.152   7.376 -0.0003 -0.0940  0.0168
  154SAPE   H9R17103   2.659   6.115   7.388 -0.5324 -2.4353 -1.8820
  154SAPE  C21017104   2.485   6.121   7.503 -0.1189 -0.0995 -0.2511
  154SAPE  H10R17105   2.548   6.049   7.560  1.4416  0.6501 -0.9740
  154SAPE  H10S17106   2.384   6.079   7.484 -1.6721  1.2843  3.8424
  154SAPE  C21117107   2.460   6.242   7.588  0.0878 -0.3482  0.9932
  154SAPE  H11R17108   2.378   6.304   7.550  0.3696  0.2425  1.3193
  154SAPE  C21217109   2.515   6.264   7.712  0.6602  0.2379 -0.5657
  154SAPE  H12R17110   2.483   6.355   7.765  0.9703  1.2762 -2.0905
  154SAPE  C21317111   2.617   6.182   7.788 -0.1294 -0.0775 -0.3753
  154SAPE  H13R17112   2.672   6.242   7.864 -0.6704 -0.7115  0.5431
  154SAPE  H13S17113   2.697   6.157   7.716  0.6827 -0.0976  0.5045
  154SAPE  C21417114   2.550   6.060   7.843 -0.0242  0.5653 -0.4840
  154SAPE  H14R17115   2.508   5.983   7.778  0.7743  0.1155 -0.4818
  154SAPE  C21517116   2.512   6.054   7.975  0.1313 -0.4939  0.8100
  154SAPE  H15R17117   2.453   5.964   7.998  0.2107 -0.6004  0.5964
  154SAPE  C21617118   2.532   6.162   8.079 -0.0876 -0.3366  0.4895
  154SAPE  H16R17119   2.621   6.223   8.053 -1.0089  1.0938  0.6097
  154SAPE  H16S17120   2.548   6.110   8.176 -2.6073 -1.3576  0.4224
  154SAPE  C21717121   2.419   6.259   8.085  0.0128 -0.5693 -0.2561
  154SAPE  H17R17122   2.330   6.193   8.091 -0.0099 -0.7565 -2.0193
  154SAPE  H17S17123   2.408   6.309   7.986  1.9807  1.9090  0.6546
  154SAPE  C21817124   2.427   6.361   8.206 -0.6408 -0.6763 -0.0083
  154SAPE  H18R17125   2.506   6.434   8.179 -0.1404 -1.8848 -1.9789
  154SAPE  H18S17126   2.464   6.311   8.298 -0.0648 -1.3071 -0.5774
  154SAPE  C21917127   2.295   6.427   8.233  0.3116 -0.1797  0.6968
  154SAPE  H19R17128   2.224   6.342   8.227  1.9360 -1.4581 -2.7866
  154SAPE  H19S17129   2.264   6.503   8.158  1.6898 -2.4951 -2.4388
  154SAPE  C22017130   2.270   6.498   8.368 -0.2513 -0.9050  0.5233
  154SAPE  H20R17131   2.168   6.541   8.355  0.3427  0.1155 -1.2483
  154SAPE  H20S17132   2.338   6.585   8.379  0.3089 -1.2930  0.1807
  154SAPE  H20T17133   2.276   6.429   8.454  0.7303 -0.9600  0.4209
  154SAPE   C3317134   2.432   5.777   6.873 -0.1431 -0.3474  0.3753
  154SAPE   H3X17135   2.321   5.779   6.881 -0.4609 -1.2070 -2.4575
  154SAPE   H3Y17136   2.457   5.884   6.857 -0.7446 -0.2781 -0.1660
  154SAPE   C3417137   2.495   5.708   6.994  1.2896 -0.0351 -0.2185
  154SAPE   H4X17138   2.606   5.710   6.992  1.2971 -0.1391 -2.6959
  154SAPE   H4Y17139   2.466   5.601   6.982 -0.7938  0.4993 -0.3614
  154SAPE   C3517140   2.448   5.749   7.135 -0.0519 -0.5220  0.0942
  154SAPE   H5X17141   2.340   5.727   7.139 -0.6827  2.4440  2.3283
  154SAPE   H5Y17142   2.470   5.855   7.159 -0.0453 -0.2591 -1.0227
  154SAPE   C3617143   2.510   5.651   7.241 -0.0021 -0.1616 -0.3812
  154SAPE   H6X17144   2.610   5.687   7.271 -1.1856  0.2935  3.7004
  154SAPE   H6Y17145   2.521   5.547   7.205  2.1252 -0.2078  0.2574
  154SAPE   C3717146   2.423   5.659   7.375  0.4640  0.2681  0.5863
  154SAPE   H7X17147   2.317   5.627   7.366  0.6798 -0.4703  0.6667
  154SAPE   H7Y17148   2.415   5.765   7.409  1.8066 -0.2359  2.6881
  154SAPE   C3817149   2.503   5.589   7.483  0.6902 -0.7231  0.8669
  154SAPE   H8X17150   2.614   5.595   7.478  0.6454  2.3041  1.4422
  154SAPE   H8Y17151   2.470   5.483   7.486 -0.4044 -0.5842 -2.3099
  154SAPE   C3917152   2.458   5.652   7.618  0.2793  0.0891  0.3012
  154SAPE   H9X17153   2.347   5.659   7.627  0.1489  1.4330 -1.6676
  154SAPE   H9Y17154   2.490   5.759   7.623  0.3389  0.1908 -1.5653
  154SAPE  C31017155   2.510   5.583   7.743 -0.1122  0.9720 -0.7563
  154SAPE  H10X17156   2.620   5.573   7.728  0.0008  0.0115  0.5186
  154SAPE  H10Y17157   2.470   5.480   7.734  1.5986  0.3206 -1.3169
  154SAPE  C31117158   2.487   5.641   7.885  0.1372 -0.1252 -0.1695
  154SAPE  H11X17159   2.490   5.752   7.881  0.4623 -0.1345 -0.2446
  154SAPE  H11Y17160   2.569   5.622   7.958  0.2457  0.6376 -0.0853
  154SAPE  C31217161   2.358   5.591   7.939  0.1820 -0.1267 -0.8166
  154SAPE  H12X17162   2.363   5.490   7.985  0.1395 -0.2999 -1.1895
  154SAPE  H12Y17163   2.277   5.585   7.862 -1.3773 -0.2767  0.7601
  154SAPE  C31317164   2.296   5.676   8.059 -0.2159  0.5470 -0.9105
  154SAPE  H13X17165   2.195   5.636   8.083 -0.3257  1.0771 -0.4768
  154SAPE  H13Y17166   2.299   5.785   8.038  2.0047  0.9376  1.0699
  154SAPE  C31417167   2.383   5.650   8.190 -0.3318  0.0942 -0.4730
  154SAPE  H14X17168   2.485   5.689   8.168 -0.5219  1.5080  0.9447
  154SAPE  H14Y17169   2.388   5.540   8.201 -0.4045  0.0406 -0.9281
  154SAPE  C31517170   2.314   5.713   8.309 -0.3954 -0.0581  0.0709
  154SAPE  H15X17171   2.391   5.712   8.388 -2.1554 -0.4575  1.8559
  154SAPE  H15Y17172   2.239   5.654   8.366 -0.7139  0.7481  0.4886
  154SAPE  C31617173   2.263   5.854   8.281  0.7052 -0.3465 -0.1543
  154SAPE  H16X17174   2.171   5.834   8.222  0.1167  2.1145 -0.1925
  154SAPE  H16Y17175   2.327   5.916   8.214  1.4894  0.1087  0.9939
  154SAPE  C31717176   2.217   5.943   8.395 -0.1555  0.3626  0.0962
  154SAPE  H17X17177   2.140   5.897   8.460 -1.2794  0.2785 -1.2479
  154SAPE  H17Y17178   2.175   6.030   8.341  1.0473  0.6935 -0.3323
  154SAPE  C31817179   2.320   5.989   8.496 -0.0281 -0.1214 -0.0006
  154SAPE  H18X17180   2.387   5.906   8.528 -0.7773 -0.8083 -0.1651
  154SAPE  H18Y17181   2.271   6.031   8.586  2.6492 -0.0839  1.5390
  154SAPE  H18Z17182   2.379   6.069   8.446 -0.6472 -0.4386 -1.3066
  155SAPE     N17183   4.589   5.355   6.221 -0.1531  0.5108  0.9035
  155SAPE   HN117184   4.585   5.459   6.216 -0.8683  0.4365 -2.4607
  155SAPE   HN217185   4.644   5.319   6.301  2.1775 -1.8869 -1.5631
  155SAPE   HN317186   4.634   5.306   6.141 -0.6121  1.5036 -0.0021
  155SAPE   C1217187   4.445   5.317   6.214  0.5518  0.1056 -0.3649
  155SAPE  H12A17188   4.399   5.361   6.124  1.7148  1.8879 -0.1414
  155SAPE  H12B17189   4.391   5.351   6.305 -0.8367  0.6012 -1.3501
  155SAPE   C1117190   4.427   5.159   6.204  0.0552  0.4652 -0.4947
  155SAPE  H11A17191   4.456   5.129   6.101  1.7244  3.2900 -0.9821
  155SAPE  H11B17192   4.318   5.138   6.211  0.4812 -1.8197 -0.1201
  155SAPE     P17193   4.523   4.937   6.287  0.1181  0.0282 -0.0496
  155SAPE   O1317194   4.433   4.899   6.174  0.5507 -0.3755 -0.0315
  155SAPE   O1417195   4.660   4.900   6.265  0.3426 -0.2459  0.4988
  155SAPE   O1217196   4.504   5.089   6.304 -0.4440  0.2736  0.1978
  155SAPE   O1117197   4.463   4.875   6.426 -0.2225  0.4634 -0.2144
  155SAPE    C117198   4.464   4.941   6.549 -0.3280  0.0174 -0.6100
  155SAPE    HA17199   4.413   5.039   6.533 -0.6810  0.1300  1.0153
  155SAPE    HB17200   4.399   4.883   6.618  0.0893 -0.0354 -0.2573
  155SAPE    C217201   4.610   4.971   6.611 -0.6685  0.4579  0.3299
  155SAPE    HS17202   4.648   5.042   6.535 -0.9985  0.1725 -0.1062
  155SAPE   O2117203   4.689   4.847   6.624 -0.2754 -0.0838  0.1368
  155SAPE   C2117204   4.824   4.854   6.599 -0.3819  0.1479 -0.0029
  155SAPE   O2217205   4.879   4.955   6.556  0.3587 -0.0806  0.1166
  155SAPE   C2217206   4.889   4.716   6.631  0.3283  0.3263 -0.9245
  155SAPE   H2R17207   4.847   4.662   6.719 -0.5557 -0.0325 -1.5510
  155SAPE   H2S17208   4.857   4.648   6.549  2.7078 -0.7015 -1.0882
  155SAPE    C317209   4.593   5.034   6.756 -0.3603  0.3905  0.6630
  155SAPE    HX17210   4.691   5.069   6.795 -0.4477 -0.5622  1.7822
  155SAPE    HY17211   4.572   4.949   6.824  0.9115 -2.0546 -1.7733
  155SAPE   O3117212   4.484   5.136   6.768 -0.3351  0.4481 -0.1303
  155SAPE   C3117213   4.513   5.250   6.713 -0.5737  0.5705  0.6246
  155SAPE   O3217214   4.629   5.283   6.680  0.3599  0.4946  0.8042
  155SAPE   C3217215   4.391   5.341   6.696  0.2500  0.1026 -0.2300
  155SAPE   H2X17216   4.315   5.274   6.651  1.2824 -0.3638 -1.3323
  155SAPE   H2Y17217   4.429   5.420   6.629  1.7376  1.2853  1.8915
  155SAPE   C2317218   5.042   4.736   6.635 -0.7595 -0.1079 -0.4344
  155SAPE   H3R17219   5.061   4.828   6.694 -3.2195  0.6825 -0.7565
  155SAPE   H3S17220   5.101   4.757   6.543  2.1843 -0.2352  1.2768
  155SAPE   C2417221   5.101   4.613   6.706 -0.0798 -0.2516 -0.0164
  155SAPE   H4R17222   5.036   4.597   6.795 -2.1151  1.5920 -1.1117
  155SAPE   H4S17223   5.202   4.633   6.747  0.5918 -2.0177 -0.6806
  155SAPE   C2517224   5.115   4.486   6.625  0.1599  0.4981 -0.1100
  155SAPE   H5R17225   5.141   4.506   6.520  0.7656 -0.9013 -0.2356
  155SAPE   C2617226   5.096   4.358   6.666 -0.5604 -0.2389  0.7692
  155SAPE   H6R17227   5.102   4.276   6.593  0.6843  0.3270  0.1998
  155SAPE   C2717228   5.058   4.308   6.806 -0.0191  0.1140 -0.0722
  155SAPE   H7R17229   4.989   4.221   6.795 -0.1482  0.2428 -0.2896
  155SAPE   H7S17230   5.008   4.383   6.871 -2.3413  0.2612 -1.8909
  155SAPE   C2817231   5.188   4.251   6.873  0.4019 -0.8250  0.2537
  155SAPE   H8R17232   5.285   4.274   6.826  0.2441 -0.1724  0.2352
  155SAPE   C2917233   5.195   4.182   6.993 -1.2232 -0.7651  0.0250
  155SAPE   H9R17234   5.298   4.180   7.034 -0.1748  0.7059 -2.3297
  155SAPE  C21017235   5.070   4.139   7.070  0.2146  0.0685 -0.4975
  155SAPE  H10R17236   5.079   4.038   7.115  0.3875  0.3091  0.0242
  155SAPE  H10S17237   4.982   4.139   7.002 -0.8968  4.4830  0.5826
  155SAPE  C21117238   5.033   4.230   7.180 -0.7609  0.3900 -0.5156
  155SAPE  H11R17239   5.047   4.339   7.171 -1.8956  0.6013  0.2083
  155SAPE  C21217240   5.001   4.191   7.305  0.9496 -0.3025  0.1903
  155SAPE  H12R17241   4.968   4.270   7.374 -1.3548  1.0004 -2.1939
  155SAPE  C21317242   4.981   4.053   7.360 -0.0112 -0.3087 -0.3650
  155SAPE  H13R17243   5.019   4.045   7.464 -0.1959 -0.0549 -0.2768
  155SAPE  H13S17244   5.034   3.976   7.300 -0.1946 -0.5128 -0.2641
  155SAPE  C21417245   4.829   4.013   7.358  0.0431  0.5293  0.7068
  155SAPE  H14R17246   4.785   4.017   7.257 -0.2339  1.0531  0.8472
  155SAPE  C21517247   4.744   3.984   7.462  0.0764 -0.6058 -0.2634
  155SAPE  H15R17248   4.638   3.959   7.448 -0.0427 -0.5996  0.5352
  155SAPE  C21617249   4.766   3.999   7.613 -0.2802 -0.2079 -0.6908
  155SAPE  H16R17250   4.677   4.057   7.644  0.9343  1.4547 -0.1202
  155SAPE  H16S17251   4.853   4.065   7.635 -1.0063 -0.1177  2.3365
  155SAPE  C21717252   4.776   3.872   7.705 -0.2875 -0.4502  0.0508
  155SAPE  H17R17253   4.866   3.811   7.680 -0.7559 -2.1415  2.1987
  155SAPE  H17S17254   4.689   3.805   7.687 -1.5060  0.9386  0.5857
  155SAPE  C21817255   4.774   3.905   7.856 -0.4034 -0.8660  0.4281
  155SAPE  H18R17256   4.671   3.944   7.873  0.7581  2.0526  1.3158
  155SAPE  H18S17257   4.844   3.985   7.887  0.3632 -2.3397  2.7102
  155SAPE  C21917258   4.808   3.778   7.942  0.3550  0.1509  0.0147
  155SAPE  H19R17259   4.911   3.748   7.913  0.1969 -0.7039  0.3073
  155SAPE  H19S17260   4.748   3.689   7.915  0.8057 -0.5173  1.1673
  155SAPE  C22017261   4.812   3.797   8.089  0.5295 -0.8109 -0.2907
  155SAPE  H20R17262   4.710   3.826   8.121  0.0593 -2.6762  0.0118
  155SAPE  H20S17263   4.886   3.879   8.106  1.5916 -1.3802 -1.9578
  155SAPE  H20T17264   4.853   3.709   8.142  0.1973 -0.7059  0.1472
  155SAPE   C3317265   4.345   5.421   6.816  0.8567 -0.5913  0.0146
  155SAPE   H3X17266   4.311   5.524   6.793 -0.1057 -1.4126 -2.5498
  155SAPE   H3Y17267   4.433   5.433   6.883  0.7655 -1.1407  0.2366
  155SAPE   C3417268   4.234   5.344   6.888  0.5654 -0.0241  0.2891
  155SAPE   H4X17269   4.282   5.268   6.953  0.9145  0.4307  0.5683
  155SAPE   H4Y17270   4.186   5.288   6.805 -1.2479  0.1195  1.1912
  155SAPE   C3517271   4.130   5.430   6.983 -0.4376  0.3691 -0.6773
  155SAPE   H5X17272   4.068   5.496   6.919 -3.5626 -1.7585 -0.0818
  155SAPE   H5Y17273   4.194   5.501   7.039  0.0588 -1.2421  0.9144
  155SAPE   C3617274   4.039   5.344   7.072 -0.5951  0.0076  0.4010
  155SAPE   H6X17275   3.989   5.262   7.017  2.5041 -1.5079 -0.3865
  155SAPE   H6Y17276   3.960   5.410   7.115 -0.5476 -0.1024  0.6597
  155SAPE   C3717277   4.114   5.274   7.179 -0.7518  0.8927 -0.7764
  155SAPE   H7X17278   4.183   5.342   7.233 -0.5764 -0.6093  0.9599
  155SAPE   H7Y17279   4.175   5.189   7.142 -3.1132 -1.2339 -0.0984
  155SAPE   C3817280   4.028   5.214   7.295  0.1880  0.8565  0.2633
  155SAPE   H8X17281   3.983   5.123   7.251  0.7235  0.7653 -0.1160
  155SAPE   H8Y17282   3.954   5.286   7.336 -2.7195 -1.6515 -0.2949
  155SAPE   C3917283   4.116   5.167   7.416 -0.2200 -0.1280 -0.4529
  155SAPE   H9X17284   4.201   5.103   7.385  0.2150  0.7812 -1.1543
  155SAPE   H9Y17285   4.045   5.107   7.477 -0.8582  1.4738  0.4378
  155SAPE  C31017286   4.168   5.282   7.507 -0.1255  0.1271 -0.0125
  155SAPE  H10X17287   4.072   5.338   7.517 -0.2332 -0.3691  1.9569
  155SAPE  H10Y17288   4.236   5.356   7.459  1.4125 -0.7891  0.7102
  155SAPE  C31117289   4.225   5.250   7.645 -0.3352 -0.1541 -0.5459
  155SAPE  H11X17290   4.163   5.174   7.697  0.2144 -2.4275 -2.9929
  155SAPE  H11Y17291   4.222   5.347   7.700  2.7296 -0.7757  0.9580
  155SAPE  C31217292   4.368   5.193   7.633 -0.2943  0.1646 -0.5415
  155SAPE  H12X17293   4.435   5.277   7.607  0.8240 -0.8434 -0.9832
  155SAPE  H12Y17294   4.378   5.114   7.556  2.5374 -1.2010  1.0455
  155SAPE  C31317295   4.414   5.139   7.772 -0.2514 -0.1797  0.0093
  155SAPE  H13X17296   4.519   5.103   7.766 -0.4607 -0.5766 -2.5357
  155SAPE  H13Y17297   4.345   5.053   7.790 -1.1621  0.7426  1.0168
  155SAPE  C31417298   4.405   5.235   7.878  0.1066  0.4184  0.2462
  155SAPE  H14X17299   4.296   5.253   7.888 -0.4912  0.7015 -4.4576
  155SAPE  H14Y17300   4.453   5.331   7.848  0.9282 -0.7184 -2.3025
  155SAPE  C31517301   4.466   5.184   8.007 -0.1811  0.0443  0.1415
  155SAPE  H15X17302   4.573   5.173   7.979  0.0419 -1.2278  1.3730
  155SAPE  H15Y17303   4.448   5.083   8.051  1.8022  0.8264  2.9913
  155SAPE  C31617304   4.454   5.276   8.122 -1.0953  0.8370 -0.1718
  155SAPE  H16X17305   4.488   5.233   8.219 -1.9108 -2.4791 -1.2074
  155SAPE  H16Y17306   4.345   5.294   8.134 -1.3983 -1.6231  1.7169
  155SAPE  C31717307   4.511   5.415   8.108 -1.0122  0.4849 -0.1628
  155SAPE  H17X17308   4.484   5.462   8.205 -2.0565  0.9695 -0.6740
  155SAPE  H17Y17309   4.464   5.465   8.020 -0.0410  1.6154 -0.0676
  155SAPE  C31817310   4.662   5.414   8.098 -0.3369  0.1061 -0.0475
  155SAPE  H18X17311   4.684   5.388   7.992  1.8136  1.6692 -0.0645
  155SAPE  H18Y17312   4.708   5.346   8.172 -1.6649 -0.5794  0.1748
  155SAPE  H18Z17313   4.702   5.516   8.115 -3.4909  1.8210 -1.8357
  156SAPE     N17314   0.910   1.544   6.556  0.6209 -0.7645  0.8838
  156SAPE   HN117315   0.922   1.577   6.458  0.0929 -0.7143  0.8290
  156SAPE   HN217316   0.875   1.617   6.622  1.4813 -0.4085  0.9618
  156SAPE   HN317317   1.001   1.522   6.600  1.3198  0.3362  0.0412
  156SAPE   C1217318   0.817   1.428   6.555 -0.1477 -0.0383  0.1499
  156SAPE  H12A17319   0.758   1.428   6.649  0.6613  5.3815  0.9777
  156SAPE  H12B17320   0.892   1.346   6.542 -1.7258 -1.6221  0.6401
  156SAPE   C1117321   0.728   1.436   6.424 -0.1630  0.0019  0.1170
  156SAPE  H11A17322   0.687   1.334   6.407 -0.6649  0.1588  0.3673
  156SAPE  H11B17323   0.800   1.450   6.341  0.1854  0.5861  0.5094
  156SAPE     P17324   0.504   1.530   6.361 -0.0141 -0.4603  0.4601
  156SAPE   O1317325   0.523   1.583   6.226 -0.2204  0.6599  0.0155
  156SAPE   O1417326   0.448   1.394   6.365  0.1620 -0.0536 -0.1912
  156SAPE   O1217327   0.639   1.540   6.449 -0.0541 -0.0240  0.6012
  156SAPE   O1117328   0.404   1.628   6.431  0.0241 -0.3154 -0.0713
  156SAPE    C117329   0.449   1.743   6.502  0.0694 -0.2786 -0.4047
  156SAPE    HA17330   0.531   1.802   6.454  0.4190  1.1355  1.7514
  156SAPE    HB17331   0.372   1.823   6.498  2.2221  1.9955  0.9213
  156SAPE    C217332   0.491   1.717   6.647  0.1882  0.1304 -0.5469
  156SAPE    HS17333   0.550   1.623   6.648 -0.7638 -0.4714  0.4696
  156SAPE   O2117334   0.373   1.706   6.721  0.5363  0.0601 -0.2446
  156SAPE   C2117335   0.350   1.624   6.827 -1.3365  0.2310  0.2404
  156SAPE   O2217336   0.430   1.540   6.870  0.1301  0.6152  0.6168
  156SAPE   C2217337   0.209   1.651   6.884 -0.1476  0.3230 -0.1086
  156SAPE   H2R17338   0.176   1.756   6.865 -0.9160  0.2931  0.9658
  156SAPE   H2S17339   0.146   1.584   6.821  1.0287 -0.4074 -0.5350
  156SAPE    C317340   0.580   1.837   6.699 -0.0013 -0.4029 -0.2462
  156SAPE    HX17341   0.520   1.930   6.702  0.1971 -0.2341 -1.2383
  156SAPE    HY17342   0.655   1.873   6.625 -1.1996  2.4316 -0.2158
  156SAPE   O3117343   0.634   1.823   6.830 -0.6475  0.3965  0.0154
  156SAPE   C3117344   0.741   1.740   6.847  0.4131  0.1654  0.4649
  156SAPE   O3217345   0.800   1.678   6.759 -0.8528 -0.1831 -0.3522
  156SAPE   C3217346   0.782   1.751   6.993 -0.1722 -0.1669  0.5498
  156SAPE   H2X17347   0.798   1.855   7.030  2.1167 -1.4650  3.6578
  156SAPE   H2Y17348   0.890   1.724   6.992 -0.0288  0.3794  0.6372
  156SAPE   C2317349   0.196   1.631   7.033 -0.0290  0.0297 -0.7427
  156SAPE   H3R17350   0.247   1.717   7.081  0.2539 -1.1102  1.0933
  156SAPE   H3S17351   0.250   1.543   7.074  0.0593  1.3917  2.3762
  156SAPE   C2417352   0.047   1.626   7.063  0.4317 -0.2340 -0.2763
  156SAPE   H4R17353  -0.005   1.551   6.998 -1.1143  1.6053 -1.2647
  156SAPE   H4S17354   0.004   1.721   7.025  0.2665 -0.2497 -0.1305
  156SAPE   C2517355   0.012   1.591   7.208 -0.6081 -0.2011  0.6953
  156SAPE   H5R17356   0.033   1.489   7.244  0.6420 -0.3726 -0.4339
  156SAPE   C2617357  -0.027   1.673   7.306  0.2848 -0.1908  0.4082
  156SAPE   H6R17358  -0.056   1.628   7.402 -0.9436 -0.6906 -0.1808
  156SAPE   C2717359  -0.042   1.823   7.287  0.1999 -0.5830 -0.2414
  156SAPE   H7R17360  -0.121   1.856   7.358  2.0302  0.5692  1.3630
  156SAPE   H7S17361  -0.092   1.842   7.190 -1.0310  0.9508  0.6545
  156SAPE   C2817362   0.082   1.913   7.300  0.4899  0.3049  0.5421
  156SAPE   H8R17363   0.153   1.899   7.217  0.0336  0.3389  0.1336
  156SAPE   C2917364   0.096   2.010   7.392  0.2534  0.1330  0.2306
  156SAPE   H9R17365   0.189   2.068   7.378  1.0222 -1.3848 -1.4254
  156SAPE  C21017366   0.004   2.065   7.502 -0.6176 -0.1492  0.4897
  156SAPE  H10R17367  -0.086   2.000   7.495 -0.6002  0.0118 -4.0980
  156SAPE  H10S17368  -0.025   2.168   7.473  1.4925  0.2359 -0.4301
  156SAPE  C21117369   0.074   2.069   7.633 -0.1539 -0.0146 -0.2939
  156SAPE  H11R17370   0.160   2.137   7.641 -0.9219  0.7809  3.1835
  156SAPE  C21217371   0.030   2.012   7.746  0.3065 -0.1394 -0.1993
  156SAPE  H12R17372   0.093   2.026   7.836  0.0896 -0.3232 -0.0187
  156SAPE  C21317373  -0.106   1.933   7.757 -1.0169  0.0633  0.1130
  156SAPE  H13R17374  -0.092   1.847   7.825  1.5154  0.8612  0.7334
  156SAPE  H13S17375  -0.139   1.885   7.663  1.5985  0.8486 -1.3297
  156SAPE  C21417376  -0.211   2.020   7.823  0.5251  0.1980  0.0816
  156SAPE  H14R17377  -0.286   2.055   7.750  0.1139 -0.0159  0.4015
  156SAPE  C21517378  -0.223   2.054   7.951  0.6139  0.3500  0.8786
  156SAPE  H15R17379  -0.319   2.099   7.980  0.2811 -1.3444  2.5856
  156SAPE  C21617380  -0.124   2.030   8.067 -0.7816  0.3510 -0.1258
  156SAPE  H16R17381  -0.027   1.988   8.033  0.2643  1.6265  1.1332
  156SAPE  H16S17382  -0.173   1.973   8.149 -1.1037  0.7471 -0.0378
  156SAPE  C21717383  -0.072   2.161   8.127 -0.3998  0.2163 -0.5824
  156SAPE  H17R17384  -0.155   2.220   8.172 -2.2006 -1.5638 -1.3694
  156SAPE  H17S17385  -0.040   2.211   8.033 -3.3160  0.7992 -1.3777
  156SAPE  C21817386   0.017   2.143   8.246  0.0650  0.0824 -0.5531
  156SAPE  H18R17387   0.065   2.239   8.274 -1.9825  0.5346  1.7866
  156SAPE  H18S17388   0.093   2.064   8.229 -1.4192 -1.3885 -0.6265
  156SAPE  C21917389  -0.054   2.090   8.375  0.6151  0.4881 -0.4998
  156SAPE  H19R17390  -0.109   1.996   8.355 -0.1438  0.9385 -0.5432
  156SAPE  H19S17391  -0.120   2.167   8.421  0.4781 -0.1377  0.3735
  156SAPE  C22017392   0.037   2.042   8.488  0.2219  0.1286 -0.3685
  156SAPE  H20R17393   0.092   1.948   8.464 -0.7620 -0.8774  1.1000
  156SAPE  H20S17394  -0.029   2.023   8.575  3.0964 -0.7092  1.7687
  156SAPE  H20T17395   0.113   2.118   8.516 -1.2543  1.7308 -0.5560
  156SAPE   C3317396   0.695   1.677   7.097 -0.4419 -0.8274  0.2981
  156SAPE   H3X17397   0.769   1.633   7.167  1.9284  1.4647 -0.5734
  156SAPE   H3Y17398   0.657   1.590   7.039  0.0018 -1.0270  0.3056
  156SAPE   C3417399   0.589   1.769   7.169  0.2859  0.5802 -0.6842
  156SAPE   H4X17400   0.530   1.812   7.086  1.4758 -0.3326 -2.0476
  156SAPE   H4Y17401   0.637   1.851   7.227  1.0031  0.8072 -1.5885
  156SAPE   C3517402   0.512   1.677   7.264 -0.3286  1.2211  0.3219
  156SAPE   H5X17403   0.587   1.610   7.311 -2.0997 -1.4516 -0.4616
  156SAPE   H5Y17404   0.440   1.616   7.205  2.3818 -0.5403 -1.3964
  156SAPE   C3617405   0.430   1.760   7.366 -0.0045 -0.1996 -0.0114
  156SAPE   H6X17406   0.341   1.813   7.327  1.0064  1.0811 -0.6608
  156SAPE   H6Y17407   0.497   1.840   7.404  2.3940 -1.4558 -1.3150
  156SAPE   C3717408   0.372   1.661   7.461  0.1960  0.0598  0.2692
  156SAPE   H7X17409   0.451   1.606   7.517 -0.0793 -0.6268 -0.0008
  156SAPE   H7Y17410   0.305   1.588   7.411 -0.6762  1.1555 -0.2015
  156SAPE   C3817411   0.297   1.719   7.580 -0.3046 -0.0445  0.3648
  156SAPE   H8X17412   0.216   1.786   7.543 -1.3008 -0.7952  1.1369
  156SAPE   H8Y17413   0.371   1.780   7.636  1.1557 -0.4077 -1.0970
  156SAPE   C3917414   0.235   1.614   7.673 -0.0281 -0.0581  0.4647
  156SAPE   H9X17415   0.156   1.568   7.610 -2.1229  2.8979  0.7040
  156SAPE   H9Y17416   0.182   1.664   7.757 -1.8904  1.7907 -1.6779
  156SAPE  C31017417   0.337   1.509   7.732  0.5831 -0.2358  0.4591
  156SAPE  H10X17418   0.426   1.559   7.777  1.4681 -1.3568 -0.0178
  156SAPE  H10Y17419   0.370   1.440   7.652  1.4053  1.4540 -0.7101
  156SAPE  C31117420   0.272   1.410   7.837 -0.8409 -0.2494  0.5126
  156SAPE  H11X17421   0.291   1.304   7.813  2.1340 -0.6439  3.8681
  156SAPE  H11Y17422   0.164   1.438   7.837 -1.2846 -1.7553  2.4902
  156SAPE  C31217423   0.338   1.432   7.977  0.3229 -0.0152  0.9657
  156SAPE  H12X17424   0.310   1.534   8.013 -0.5305  0.0427  0.1879
  156SAPE  H12Y17425   0.449   1.432   7.969  0.2268 -1.1536 -1.3779
  156SAPE  C31317426   0.294   1.328   8.081  0.1414  0.2232  0.3490
  156SAPE  H13X17427   0.290   1.223   8.044 -2.9990  0.9726 -1.8907
  156SAPE  H13Y17428   0.188   1.351   8.106  0.4989  0.5938  1.5695
  156SAPE  C31417429   0.384   1.339   8.207  0.8477 -0.3296  0.1641
  156SAPE  H14X17430   0.426   1.442   8.212  2.5591 -0.9574 -0.4045
  156SAPE  H14Y17431   0.472   1.271   8.199  0.2479 -1.1985  0.7506
  156SAPE  C31517432   0.317   1.295   8.341  0.0564 -0.3157 -0.1211
  156SAPE  H15X17433   0.265   1.198   8.322 -0.5186  0.0116 -0.2396
  156SAPE  H15Y17434   0.245   1.377   8.358 -0.7984 -1.2508  0.9067
  156SAPE  C31617435   0.403   1.293   8.468 -0.2009 -0.3055 -0.5581
  156SAPE  H16X17436   0.432   1.397   8.497  1.9410 -1.1005  0.2961
  156SAPE  H16Y17437   0.504   1.253   8.445  2.0148  4.5365 -0.6500
  156SAPE  C31717438   0.334   1.212   8.586  0.0716  0.0788  0.1040
  156SAPE  H17X17439   0.417   1.189   8.657  0.3258  2.7979  0.8053
  156SAPE  H17Y17440   0.299   1.118   8.539  0.3979  0.0609 -0.1063
  156SAPE  C31817441   0.217   1.275   8.660  0.3152  0.0079 -0.0821
  156SAPE  H18X17442   0.162   1.194   8.714  0.2410  0.1369  0.0368
  156SAPE  H18Y17443   0.144   1.320   8.590 -0.0111  0.7740  0.7345
  156SAPE  H18Z17444   0.250   1.355   8.730 -0.0583 -1.1969  1.5422
  157SAPE     N17445   3.852   1.399   6.329 -0.8676  0.4346  0.2185
  157SAPE   HN117446   3.928   1.466   6.351 -0.9349 -0.0450  2.0827
  157SAPE   HN217447   3.888   1.317   6.277 -1.2390 -1.0732  2.1960
  157SAPE   HN317448   3.780   1.449   6.273  0.5172 -1.5225 -3.6769
  157SAPE   C1217449   3.791   1.364   6.459  1.2402  0.6152  0.2573
  157SAPE  H12A17450   3.857   1.298   6.519  0.7440 -0.2543 -0.1339
  157SAPE  H12B17451   3.705   1.298   6.437 -0.0314  2.0300  0.7785
  157SAPE   C1117452   3.729   1.487   6.538 -0.2943 -1.0702 -0.0751
  157SAPE  H11A17453   3.795   1.576   6.527 -0.2665 -1.2099 -1.1856
  157SAPE  H11B17454   3.728   1.467   6.647 -2.0011  1.2107  0.4132
  157SAPE     P17455   3.531   1.657   6.498  0.5207  0.1373  0.2427
  157SAPE   O1317456   3.591   1.748   6.402 -0.1278  0.0589 -0.8048
  157SAPE   O1417457   3.381   1.651   6.502 -0.0012 -0.1477  0.1899
  157SAPE   O1217458   3.599   1.511   6.487  0.4291 -0.8895  0.2219
  157SAPE   O1117459   3.583   1.699   6.642  0.4479 -0.2282 -0.5317
  157SAPE    C117460   3.559   1.625   6.766 -0.2763  0.3218  0.4370
  157SAPE    HA17461   3.498   1.536   6.742 -0.1538  0.5991 -0.9700
  157SAPE    HB17462   3.660   1.600   6.806  0.2724  1.8886  0.1359
  157SAPE    C217463   3.481   1.710   6.869  0.4111  0.6004  0.2985
  157SAPE    HS17464   3.535   1.807   6.876 -0.3377  0.8743  3.3580
  157SAPE   O2117465   3.489   1.644   6.993 -0.7639 -0.3434 -0.4377
  157SAPE   C2117466   3.504   1.734   7.095 -0.7983 -0.6754  0.5229
  157SAPE   O2217467   3.519   1.856   7.086  0.2894 -0.5027 -0.2513
  157SAPE   C2217468   3.503   1.665   7.233  0.1745 -0.1706  0.2163
  157SAPE   H2R17469   3.436   1.579   7.213 -0.4045  0.0736  1.0450
  157SAPE   H2S17470   3.608   1.634   7.253  0.1638 -2.4087 -2.5553
  157SAPE    C317471   3.330   1.729   6.828 -0.7092 -0.5397  0.2822
  157SAPE    HX17472   3.278   1.631   6.822  1.6020 -1.8143 -0.1659
  157SAPE    HY17473   3.334   1.762   6.722 -1.7380 -1.7000 -0.1456
  157SAPE   O3117474   3.247   1.813   6.902  0.5503 -0.6067  0.2012
  157SAPE   C3117475   3.239   1.938   6.866  0.6430  0.2110 -0.1871
  157SAPE   O3217476   3.289   1.984   6.767 -0.1150  0.0733  0.3891
  157SAPE   C3217477   3.163   2.024   6.974  0.1666  0.4526  0.3896
  157SAPE   H2X17478   3.207   1.998   7.073 -1.0511 -1.1517  0.5557
  157SAPE   H2Y17479   3.056   1.993   6.969  0.3315 -0.1733  0.6030
  157SAPE   C2317480   3.449   1.752   7.348  0.6302 -0.1203  0.2714
  157SAPE   H3R17481   3.522   1.835   7.361  0.7876 -0.5513  2.5114
  157SAPE   H3S17482   3.454   1.695   7.444  4.9240 -0.9834 -0.2561
  157SAPE   C2417483   3.308   1.809   7.327  0.4205 -0.4524  0.1602
  157SAPE   H4R17484   3.236   1.724   7.327  0.1517 -0.2624  1.6608
  157SAPE   H4S17485   3.293   1.858   7.229 -0.6401 -0.4622  0.3005
  157SAPE   C2517486   3.264   1.907   7.433 -0.5025  0.7257  0.0828
  157SAPE   H5R17487   3.329   1.995   7.423 -0.0699  0.5332  1.1021
  157SAPE   C2617488   3.171   1.899   7.528  0.4761  0.5121 -0.6056
  157SAPE   H6R17489   3.163   1.976   7.606 -0.4823 -2.0982  2.0552
  157SAPE   C2717490   3.082   1.781   7.567 -0.7794 -0.1800 -0.0763
  157SAPE   H7R17491   3.097   1.765   7.676  2.7122 -0.5313 -0.5036
  157SAPE   H7S17492   3.116   1.702   7.497  0.1314  0.0515  0.1018
  157SAPE   C2817493   2.945   1.802   7.514 -0.2093  0.1554 -0.5189
  157SAPE   H8R17494   2.934   1.849   7.415  0.9989  0.9269 -0.3137
  157SAPE   C2917495   2.837   1.804   7.599 -0.5471 -1.0911 -0.2523
  157SAPE   H9R17496   2.736   1.822   7.558  0.2115 -0.9194 -2.1374
  157SAPE  C21017497   2.844   1.773   7.749 -0.3830 -0.0483 -0.2381
  157SAPE  H10R17498   2.922   1.697   7.770 -1.0775 -0.6525  0.1755
  157SAPE  H10S17499   2.750   1.721   7.776 -1.1647 -0.5700 -3.4732
  157SAPE  C21117500   2.878   1.901   7.827 -0.1663  0.5880  0.6645
  157SAPE  H11R17501   2.924   1.979   7.764 -0.6506 -0.4021 -0.9767
  157SAPE  C21217502   2.861   1.914   7.957  0.4293  0.2778 -0.2991
  157SAPE  H12R17503   2.882   2.011   8.003 -0.3566 -0.3668  1.4742
  157SAPE  C21317504   2.810   1.811   8.060 -0.8188  0.2413  0.4487
  157SAPE  H13R17505   2.899   1.774   8.116 -0.3789 -0.6147 -0.7725
  157SAPE  H13S17506   2.774   1.721   8.005 -0.2471 -0.4381  1.1599
  157SAPE  C21417507   2.703   1.871   8.140  0.2311  0.5061  1.6182
  157SAPE  H14R17508   2.605   1.829   8.110  0.6163  0.6023  0.1565
  157SAPE  C21517509   2.708   1.944   8.253  0.6690  0.4092 -0.2019
  157SAPE  H15R17510   2.611   1.981   8.291  0.5746 -1.7631  1.8856
  157SAPE  C21617511   2.831   1.996   8.334  0.4482  0.2747  0.5430
  157SAPE  H16R17512   2.816   2.092   8.388 -0.4141  1.8307 -2.2590
  157SAPE  H16S17513   2.911   2.008   8.258 -0.3258  2.9570  0.0658
  157SAPE  C21717514   2.884   1.907   8.446 -0.4735 -0.2721 -0.1722
  157SAPE  H17R17515   2.809   1.889   8.526 -1.8989  3.1684 -0.5466
  157SAPE  H17S17516   2.969   1.966   8.487 -1.3282  0.9459 -0.1046
  157SAPE  C21817517   2.940   1.767   8.403 -0.2422 -0.1959 -0.7962
  157SAPE  H18R17518   3.027   1.782   8.336 -1.5028  0.2447 -2.3851
  157SAPE  H18S17519   2.855   1.722   8.348 -1.9663  1.7434  0.1573
  157SAPE  C21917520   2.981   1.675   8.516 -0.1268  0.5719  0.1444
  157SAPE  H19R17521   2.887   1.667   8.575 -0.4579  2.4988 -0.0748
  157SAPE  H19S17522   3.059   1.708   8.587 -0.1120 -0.0903  0.4447
  157SAPE  C22017523   3.011   1.530   8.469 -0.4401 -0.5371  0.6295
  157SAPE  H20R17524   2.921   1.488   8.419 -0.7214 -0.4195  1.0245
  157SAPE  H20S17525   3.056   1.473   8.553 -1.8930 -0.2300  1.6638
  157SAPE  H20T17526   3.095   1.535   8.397 -0.2289 -0.6013  0.8693
  157SAPE   C3317527   3.166   2.169   6.943 -0.5835  0.0933  0.2804
  157SAPE   H3X17528   3.147   2.196   6.837 -1.2215  1.8913  0.8177
  157SAPE   H3Y17529   3.263   2.216   6.968  0.4294 -0.7540 -1.8400
  157SAPE   C3417530   3.055   2.257   7.017 -0.5499  0.1858  0.2857
  157SAPE   H4X17531   2.962   2.261   6.958 -0.6362  1.6401  0.4837
  157SAPE   H4Y17532   3.085   2.363   7.035 -2.2068  0.9604 -1.2486
  157SAPE   C3517533   3.018   2.220   7.158 -0.5181 -0.4572 -0.2574
  157SAPE   H5X17534   2.976   2.117   7.166 -2.1840  0.2516  0.7868
  157SAPE   H5Y17535   2.938   2.286   7.197  0.4512  0.1800  0.6874
  157SAPE   C3617536   3.138   2.238   7.258  0.3783  0.5796 -0.0036
  157SAPE   H6X17537   3.174   2.342   7.265  0.9414  0.3892 -0.0135
  157SAPE   H6Y17538   3.225   2.176   7.225 -0.4400 -0.5194 -0.1713
  157SAPE   C3717539   3.095   2.187   7.399 -0.2672 -0.2668  0.1737
  157SAPE   H7X17540   3.189   2.169   7.454 -0.1446  0.6302  0.2687
  157SAPE   H7Y17541   3.053   2.085   7.394  2.1327 -1.3097  0.2059
  157SAPE   C3817542   3.002   2.288   7.473  0.2344  0.2293 -0.8089
  157SAPE   H8X17543   2.908   2.266   7.419 -2.2713  0.1757  3.1568
  157SAPE   H8Y17544   3.039   2.391   7.457  1.2734 -0.3718 -2.6064
  157SAPE   C3917545   2.977   2.262   7.623  0.4691 -0.1742 -0.1698
  157SAPE   H9X17546   2.942   2.159   7.644  1.2300 -0.2020  1.0352
  157SAPE   H9Y17547   2.896   2.333   7.651 -0.5136 -0.8402 -1.2512
  157SAPE  C31017548   3.105   2.286   7.709 -0.4995  0.0105 -1.1129
  157SAPE  H10X17549   3.134   2.393   7.699 -2.2636  0.5474 -0.9703
  157SAPE  H10Y17550   3.186   2.222   7.670  0.7517 -0.0833  1.4338
  157SAPE  C31117551   3.072   2.244   7.854  0.0861 -0.4560  0.4175
  157SAPE  H11X17552   3.068   2.133   7.853 -0.6583 -0.4413 -0.7493
  157SAPE  H11Y17553   2.976   2.298   7.869 -0.2641 -1.4626  1.9976
  157SAPE  C31217554   3.179   2.294   7.942  0.2280 -0.4887  0.4343
  157SAPE  H12X17555   3.186   2.405   7.946 -0.2671 -0.3851 -1.1286
  157SAPE  H12Y17556   3.275   2.255   7.902  0.4326  0.5737 -0.1486
  157SAPE  C31317557   3.165   2.252   8.095  0.4081 -0.1863 -0.2226
  157SAPE  H13X17558   3.164   2.141   8.101  1.6488 -0.1913  0.1004
  157SAPE  H13Y17559   3.073   2.295   8.140 -0.1018 -0.5294 -0.9069
  157SAPE  C31417560   3.279   2.305   8.186  0.4308 -0.5258  0.7587
  157SAPE  H14X17561   3.276   2.416   8.186  2.2740 -0.4373  0.5633
  157SAPE  H14Y17562   3.370   2.274   8.130  0.2431  0.3055 -0.0327
  157SAPE  C31517563   3.266   2.248   8.326 -0.7254  0.6860 -0.2006
  157SAPE  H15X17564   3.271   2.137   8.327  0.2152  0.7243  1.2940
  157SAPE  H15Y17565   3.175   2.283   8.379  0.2953  3.3878 -0.1007
  157SAPE  C31617566   3.379   2.291   8.421  0.4482 -0.4616 -0.4610
  157SAPE  H16X17567   3.378   2.402   8.414 -0.6490 -0.5265 -1.9511
  157SAPE  H16Y17568   3.465   2.243   8.370 -0.1486 -0.5112 -1.4476
  157SAPE  C31717569   3.360   2.240   8.567 -0.4634 -0.1582  0.5911
  157SAPE  H17X17570   3.263   2.278   8.606 -1.1207 -2.5093  1.4396
  157SAPE  H17Y17571   3.441   2.279   8.632 -1.2674 -0.3990  1.7821
  157SAPE  C31817572   3.356   2.084   8.575 -0.1310  0.1698 -0.6258
  157SAPE  H18X17573   3.282   2.048   8.501 -0.0985  3.3277 -2.3854
  157SAPE  H18Y17574   3.351   2.053   8.682  2.0438  2.7856  0.3541
  157SAPE  H18Z17575   3.463   2.059   8.555  0.3451  0.7688  0.9868
  158SAPE     N17576   6.597   1.175   6.015 -0.6372  0.1375 -0.3547
  158SAPE   HN117577   6.617   1.152   6.114  0.8168  0.6563 -0.4986
  158SAPE   HN217578   6.500   1.211   6.026 -0.7387 -0.6024  1.6571
  158SAPE   HN317579   6.598   1.088   5.959 -0.3867 -1.4612  1.9888
  158SAPE   C1217580   6.694   1.283   5.966  0.4716 -0.5448 -0.4442
  158SAPE  H12A17581   6.649   1.310   5.868 -1.9077 -2.2527  0.0645
  158SAPE  H12B17582   6.795   1.238   5.956  0.3358 -0.5427 -2.0050
  158SAPE   C1117583   6.702   1.399   6.069  0.3107  0.0119 -0.0793
  158SAPE  H11A17584   6.600   1.441   6.062 -0.6489 -1.8335  1.8581
  158SAPE  H11B17585   6.780   1.464   6.024  1.6010 -2.0943 -1.0125
  158SAPE     P17586   6.885   1.356   6.255  0.5132  0.0377 -0.2176
  158SAPE   O1317587   6.981   1.318   6.146  0.3186  0.2062  0.0152
  158SAPE   O1417588   6.909   1.487   6.318  0.9244  0.4616  0.1158
  158SAPE   O1217589   6.733   1.356   6.203  0.2891 -0.8915  0.2836
  158SAPE   O1117590   6.881   1.248   6.370 -0.2625 -0.2004  0.0294
  158SAPE    C117591   6.831   1.113   6.353 -0.0705 -0.2080  0.3000
  158SAPE    HA17592   6.725   1.111   6.384 -0.8020 -0.7848 -2.0772
  158SAPE    HB17593   6.815   1.087   6.246  2.5991  2.8452 -0.9995
  158SAPE    C217594   6.906   1.008   6.446 -0.3180  0.4557 -0.3869
  158SAPE    HS17595   6.868   0.906   6.423 -0.9049 -0.2204  3.0369
  158SAPE   O2117596   6.894   1.051   6.581  0.0050  0.7258 -0.3917
  158SAPE   C2117597   6.787   1.013   6.646 -0.1184 -0.0526 -0.3457
  158SAPE   O2217598   6.697   0.942   6.601  0.7728  0.0264  0.1364
  158SAPE   C2217599   6.776   1.087   6.779 -0.6411  0.3918 -0.1596
  158SAPE   H2R17600   6.809   1.192   6.771 -0.2629  0.4080  1.2447
  158SAPE   H2S17601   6.667   1.087   6.803 -0.6314  2.9811  0.1594
  158SAPE    C317602   7.057   0.981   6.411  0.6188 -0.2624  0.2837
  158SAPE    HX17603   7.109   1.079   6.402 -0.6924  0.4176 -0.1362
  158SAPE    HY17604   7.058   0.944   6.306  1.0155  1.1929 -0.2471
  158SAPE   O3117605   7.123   0.890   6.503 -0.2991  0.8539  0.5056
  158SAPE   C3117606   7.253   0.864   6.470  0.2811 -0.1124 -0.9705
  158SAPE   O3217607   7.312   0.919   6.382 -0.0058  0.1248  0.3251
  158SAPE   C3217608   7.306   0.746   6.545  0.2650  0.4479  0.4479
  158SAPE   H2X17609   7.321   0.668   6.466  1.8675  2.0321 -0.9028
  158SAPE   H2Y17610   7.229   0.712   6.618 -1.7695  0.2689 -1.6865
  158SAPE   C2317611   6.852   1.015   6.898 -0.5834  0.1004 -0.2534
  158SAPE   H3R17612   6.826   0.913   6.931  1.0842 -0.5756 -0.9276
  158SAPE   H3S17613   6.844   1.070   6.994  0.7598 -1.7030  0.9407
  158SAPE   C2417614   7.004   0.990   6.870  0.7806 -0.4340 -0.6044
  158SAPE   H4R17615   7.018   0.947   6.768  2.2939  2.3435 -1.7017
  158SAPE   H4S17616   7.047   0.916   6.940 -0.1699  0.5398  1.0509
  158SAPE   C2517617   7.076   1.120   6.869  0.2628 -0.2262 -0.2268
  158SAPE   H5R17618   7.082   1.173   6.773  0.1646 -2.4433 -1.5339
  158SAPE   C2617619   7.123   1.174   6.981  0.0163  0.2444 -0.2323
  158SAPE   H6R17620   7.161   1.277   6.975  0.4002  0.0772 -0.7288
  158SAPE   C2717621   7.102   1.125   7.122  0.5125  0.8163  0.0795
  158SAPE   H7R17622   7.183   1.055   7.149  1.5223  2.9856  3.1674
  158SAPE   H7S17623   7.012   1.060   7.126  0.9902  0.2059  2.4037
  158SAPE   C2817624   7.096   1.236   7.227 -0.4002 -1.2711 -0.2804
  158SAPE   H8R17625   7.154   1.326   7.203  0.2915 -1.4123  0.7768
  158SAPE   C2917626   7.050   1.217   7.362  0.3692 -0.0585 -0.4838
  158SAPE   H9R17627   7.056   1.292   7.442 -0.8306 -0.0206 -0.4126
  158SAPE  C21017628   6.986   1.091   7.404  0.1509  0.3339 -0.2135
  158SAPE  H10R17629   7.047   1.045   7.485  0.8376 -0.1241 -0.9772
  158SAPE  H10S17630   6.989   1.016   7.323 -0.6968 -0.1590  0.1946
  158SAPE  C21117631   6.841   1.112   7.443 -1.0473 -1.1264 -0.9123
  158SAPE  H11R17632   6.758   1.093   7.374 -3.4833  0.9030  1.2671
  158SAPE  C21217633   6.806   1.146   7.569  0.2440  0.2175  0.9905
  158SAPE  H12R17634   6.700   1.143   7.599 -0.0594 -3.4141  0.1047
  158SAPE  C21317635   6.903   1.155   7.688  0.1122  0.1430  0.2323
  158SAPE  H13R17636   6.874   1.241   7.753 -0.3527 -1.0662  1.6943
  158SAPE  H13S17637   7.009   1.171   7.659  0.2524 -1.0064  0.0928
  158SAPE  C21417638   6.900   1.054   7.805  0.0545  0.2632  0.5645
  158SAPE  H14R17639   6.978   0.979   7.786 -0.3855 -0.3942  1.2882
  158SAPE  C21517640   6.812   1.048   7.905 -0.0632  0.1196 -0.1668
  158SAPE  H15R17641   6.835   0.967   7.976  0.3798 -0.5974 -1.1026
  158SAPE  C21617642   6.700   1.141   7.945  0.3800  0.4805  0.1184
  158SAPE  H16R17643   6.606   1.096   7.904 -0.6086  1.5141  1.1899
  158SAPE  H16S17644   6.712   1.231   7.881 -1.0052  1.5240  1.2772
  158SAPE  C21717645   6.705   1.170   8.088  0.5277 -0.1982  0.8199
  158SAPE  H17R17646   6.628   1.245   8.117 -0.9314 -2.1161  2.1778
  158SAPE  H17S17647   6.799   1.224   8.109  0.8828 -0.8550  0.9537
  158SAPE  C21817648   6.688   1.044   8.177 -0.6346 -0.3572 -0.5455
  158SAPE  H18R17649   6.759   0.961   8.155  1.1551  0.9295  0.1261
  158SAPE  H18S17650   6.587   1.002   8.156 -1.7358  1.1994  1.2877
  158SAPE  C21917651   6.684   1.074   8.331 -0.9048  0.2011 -0.3220
  158SAPE  H19R17652   6.675   0.983   8.393 -3.7113  1.2608  0.9767
  158SAPE  H19S17653   6.596   1.138   8.351 -0.5768  0.2557  1.0765
  158SAPE  C22017654   6.806   1.161   8.377 -0.0026 -0.3555  0.7624
  158SAPE  H20R17655   6.817   1.243   8.302 -0.9333 -0.9342 -0.0383
  158SAPE  H20S17656   6.902   1.109   8.359  0.4023  1.1313 -2.0517
  158SAPE  H20T17657   6.805   1.201   8.481 -2.5210 -2.8968  1.8528
  158SAPE   C3317658   7.444   0.772   6.606 -0.1694  0.1718  0.5203
  158SAPE   H3X17659   7.511   0.833   6.540  0.9400  0.9355  2.2810
  158SAPE   H3Y17660   7.497   0.677   6.627 -0.4547  0.0590  0.7261
  158SAPE   C3417661   7.436   0.859   6.733  0.6267  0.2758  0.3198
  158SAPE   H4X17662   7.393   0.960   6.715 -1.7660 -1.0169 -1.8721
  158SAPE   H4Y17663   7.537   0.860   6.779  1.1521 -3.3009 -0.4498
  158SAPE   C3517664   7.359   0.780   6.842 -0.9186  0.4429 -0.4113
  158SAPE   H5X17665   7.385   0.672   6.845 -3.3474 -0.1782  2.1604
  158SAPE   H5Y17666   7.252   0.789   6.813 -0.8735  0.0599 -0.7065
  158SAPE   C3617667   7.393   0.839   6.976 -0.0162 -0.1181  0.5950
  158SAPE   H6X17668   7.333   0.933   6.983 -1.1605 -0.8780  1.3382
  158SAPE   H6Y17669   7.501   0.864   6.989  0.3324 -0.5801 -1.2569
  158SAPE   C3717670   7.350   0.751   7.093 -0.3950 -0.4488  0.0629
  158SAPE   H7X17671   7.240   0.761   7.094 -0.4106  0.0365 -2.3964
  158SAPE   H7Y17672   7.376   0.643   7.082 -0.3503 -0.3649 -0.6738
  158SAPE   C3817673   7.402   0.831   7.217 -0.1594 -0.1162 -0.5898
  158SAPE   H8X17674   7.388   0.940   7.204 -1.3465  0.0079  1.3798
  158SAPE   H8Y17675   7.512   0.815   7.210 -0.2806 -0.4901 -2.1837
  158SAPE   C3917676   7.349   0.780   7.350 -0.0210  0.3464  0.7354
  158SAPE   H9X17677   7.395   0.681   7.370 -1.5274 -0.4363  0.4477
  158SAPE   H9Y17678   7.241   0.755   7.342  0.4776 -2.5680  1.8757
  158SAPE  C31017679   7.363   0.874   7.467  0.0679  0.0723 -0.8027
  158SAPE  H10X17680   7.330   0.979   7.453 -1.7142 -0.1994  0.9527
  158SAPE  H10Y17681   7.468   0.890   7.501 -1.0115  1.3313  2.2567
  158SAPE  C31117682   7.290   0.807   7.586  0.1135 -0.1505 -0.5999
  158SAPE  H11X17683   7.326   0.702   7.593  0.5134 -0.0158 -0.5918
  158SAPE  H11Y17684   7.181   0.809   7.564 -0.2840 -1.0161  1.0896
  158SAPE  C31217685   7.310   0.882   7.716  0.0039  0.1021 -0.9196
  158SAPE  H12X17686   7.284   0.989   7.705 -0.6945  0.3851  2.3852
  158SAPE  H12Y17687   7.420   0.878   7.732 -0.2743  1.6418  1.9546
  158SAPE  C31317688   7.235   0.825   7.838  0.0307 -0.5153  0.2677
  158SAPE  H13X17689   7.243   0.715   7.845  0.3557 -0.4773  0.4782
  158SAPE  H13Y17690   7.129   0.856   7.823  0.5773  0.9014 -1.0013
  158SAPE  C31417691   7.277   0.885   7.973  0.2250 -0.0458 -0.0450
  158SAPE  H14X17692   7.294   0.994   7.968 -1.2953  0.4396  2.8624
  158SAPE  H14Y17693   7.372   0.833   7.999 -1.2442 -2.5790  0.7008
  158SAPE  C31517694   7.171   0.855   8.083  0.2951 -0.0071 -0.0425
  158SAPE  H15X17695   7.140   0.749   8.078  0.0455  0.0832 -0.4894
  158SAPE  H15Y17696   7.081   0.911   8.048  0.8153 -0.7091 -2.7515
  158SAPE  C31617697   7.214   0.881   8.229 -1.0416 -0.5319  0.0540
  158SAPE  H16X17698   7.253   0.985   8.226 -1.0178 -0.4378  2.2691
  158SAPE  H16Y17699   7.302   0.819   8.256 -0.4622 -0.4016 -1.4380
  158SAPE  C31717700   7.100   0.863   8.328 -0.2085  0.5055  0.5754
  158SAPE  H17X17701   7.006   0.911   8.292  0.7609  2.7162  0.8086
  158SAPE  H17Y17702   7.130   0.910   8.424  2.8615  0.2025 -0.1364
  158SAPE  C31817703   7.080   0.707   8.348  0.1099 -0.4173  0.2465
  158SAPE  H18X17704   7.020   0.684   8.438  1.8943 -1.6691  1.1904
  158SAPE  H18Y17705   7.182   0.664   8.353  0.8278  1.3372  1.8017
  158SAPE  H18Z17706   7.025   0.666   8.260  1.3318 -0.5122 -0.5009
  159SAPE     N17707   0.032   2.955   6.599  0.9955  0.6925  0.5110
  159SAPE   HN117708   0.070   3.025   6.665 -2.4931  2.4119  0.8986
  159SAPE   HN217709  -0.053   2.918   6.645  0.6257 -0.9416 -1.3034
  159SAPE   HN317710   0.103   2.879   6.587  0.4822  0.2674  0.1149
  159SAPE   C1217711  -0.002   3.017   6.464  0.5475  0.8700 -0.3006
  159SAPE  H12A17712   0.085   3.072   6.421  1.5179  1.1062  1.8322
  159SAPE  H12B17713  -0.079   3.094   6.487 -1.3571  0.1738 -3.6850
  159SAPE   C1117714  -0.073   2.922   6.366 -0.1869 -0.3656 -0.1395
  159SAPE  H11A17715  -0.101   2.974   6.272  0.8963  1.0868  0.3057
  159SAPE  H11B17716  -0.157   2.879   6.425  0.8203  0.0412  1.6617
  159SAPE     P17717  -0.029   2.686   6.259  0.0342  0.0466  0.1959
  159SAPE   O1317718  -0.114   2.719   6.142 -0.1263 -0.1802  0.5255
  159SAPE   O1417719   0.085   2.599   6.224  0.2175  1.0367  0.1984
  159SAPE   O1217720   0.018   2.821   6.324 -1.0486  0.2947 -0.1176
  159SAPE   O1117721  -0.116   2.625   6.373  0.8149 -0.3551 -0.4899
  159SAPE    C117722  -0.051   2.555   6.480  0.0329 -0.0259 -0.3349
  159SAPE    HA17723  -0.031   2.449   6.450 -1.2982  0.4191 -3.1464
  159SAPE    HB17724   0.046   2.606   6.500  0.1915  0.2606 -1.7034
  159SAPE    C217725  -0.129   2.551   6.616  0.4686  0.7474 -0.7004
  159SAPE    HS17726  -0.186   2.645   6.630  0.4262  0.8087 -1.2518
  159SAPE   O2117727  -0.036   2.529   6.727  0.2897 -0.0611  0.2462
  159SAPE   C2117728  -0.008   2.648   6.783  0.6395 -0.3790  0.3902
  159SAPE   O2217729  -0.060   2.757   6.756  0.4115  0.3945 -0.0553
  159SAPE   C2217730   0.104   2.621   6.884 -0.4017  0.1322  0.3937
  159SAPE   H2R17731   0.074   2.538   6.952  1.9418 -0.1606  1.1359
  159SAPE   H2S17732   0.188   2.598   6.816 -1.9260 -0.4615 -1.3878
  159SAPE    C317733  -0.237   2.442   6.615  0.2025 -0.4116  0.4248
  159SAPE    HX17734  -0.183   2.353   6.576 -0.7408 -0.7031 -0.2736
  159SAPE    HY17735  -0.307   2.461   6.531  1.9944 -0.1467 -1.0755
  159SAPE   O3117736  -0.305   2.418   6.744 -0.1986  0.0485  0.5335
  159SAPE   C3117737  -0.406   2.505   6.760  0.1148 -0.7035 -0.2663
  159SAPE   O3217738  -0.440   2.595   6.686 -0.2638  0.1140 -0.4219
  159SAPE   C3217739  -0.468   2.474   6.899  0.6970 -0.7979  1.0120
  159SAPE   H2X17740  -0.558   2.537   6.907  0.4719 -0.6658 -1.6496
  159SAPE   H2Y17741  -0.390   2.506   6.972  1.1712  0.1388  0.1160
  159SAPE   C2317742   0.134   2.751   6.963  0.0078  0.1456 -0.6286
  159SAPE   H3R17743   0.162   2.828   6.888  0.6810 -0.1597 -0.6916
  159SAPE   H3S17744   0.230   2.732   7.015 -0.3018  0.5539  0.1038
  159SAPE   C2417745   0.018   2.801   7.052 -0.1378 -0.6216  0.6204
  159SAPE   H4R17746  -0.023   2.709   7.101 -0.5641 -0.6958  0.1336
  159SAPE   H4S17747  -0.063   2.853   6.997  0.3183  0.9907  1.4266
  159SAPE   C2517748   0.073   2.896   7.158  1.0411 -0.4705 -0.8546
  159SAPE   H5R17749   0.124   2.986   7.122  0.3053 -0.3268 -1.5596
  159SAPE   C2617750   0.078   2.862   7.296 -0.2871  0.5005  0.6019
  159SAPE   H6R17751   0.130   2.929   7.366  0.9541  0.7361 -0.5032
  159SAPE   C2717752   0.037   2.727   7.359  0.1024 -0.6319 -0.5591
  159SAPE   H7R17753  -0.047   2.680   7.304 -0.2011 -0.5740 -0.1482
  159SAPE   H7S17754   0.000   2.755   7.460  0.3488  1.5311 -1.0110
  159SAPE   C2817755   0.154   2.628   7.352  0.6664  0.4245  0.2140
  159SAPE   H8R17756   0.178   2.603   7.248  1.6315  0.7685  0.3455
  159SAPE   C2917757   0.206   2.544   7.442  0.0796 -0.3792 -0.5178
  159SAPE   H9R17758   0.290   2.477   7.419 -1.4472 -2.5326 -0.0705
  159SAPE  C21017759   0.168   2.552   7.584 -0.6743 -0.0292 -0.3879
  159SAPE  H10R17760   0.149   2.660   7.603 -0.7414 -0.0407 -0.3887
  159SAPE  H10S17761   0.260   2.531   7.642 -0.4267 -0.8359 -1.0672
  159SAPE  C21117762   0.052   2.463   7.622 -0.2089  0.3700 -0.0455
  159SAPE  H11R17763  -0.007   2.443   7.531 -0.0897  0.9388 -0.2528
  159SAPE  C21217764   0.024   2.415   7.738  0.4659 -1.4339  0.1081
  159SAPE  H12R17765  -0.070   2.365   7.763  0.7603 -1.6180  0.8807
  159SAPE  C21317766   0.108   2.432   7.862  0.4717 -0.2279  0.2277
  159SAPE  H13R17767   0.212   2.401   7.836  0.3224 -0.4903 -0.0534
  159SAPE  H13S17768   0.064   2.365   7.938 -1.5047  2.8706  2.0129
  159SAPE  C21417769   0.106   2.573   7.907 -0.0516 -0.2034 -0.0805
  159SAPE  H14R17770   0.078   2.643   7.827 -1.7868 -0.9936 -0.2161
  159SAPE  C21517771   0.124   2.619   8.029 -0.8151  0.4691 -0.5267
  159SAPE  H15R17772   0.111   2.725   8.058  0.1748  0.5957 -0.5028
  159SAPE  C21617773   0.151   2.531   8.145 -0.1521 -0.1105 -0.2997
  159SAPE  H16R17774   0.121   2.425   8.129 -1.0067 -0.4509  2.8223
  159SAPE  H16S17775   0.071   2.558   8.217 -1.9637 -3.5284 -0.7996
  159SAPE  C21717776   0.289   2.545   8.203 -0.2280  0.5677  0.1151
  159SAPE  H17R17777   0.316   2.651   8.224  1.0605  0.0235  1.3621
  159SAPE  H17S17778   0.368   2.507   8.134  1.2380  1.0625  1.4462
  159SAPE  C21817779   0.312   2.455   8.326 -0.0964 -0.1560 -0.1459
  159SAPE  H18R17780   0.302   2.351   8.290 -2.2291  0.4141 -1.3509
  159SAPE  H18S17781   0.249   2.477   8.415 -0.1683  2.5802 -0.7908
  159SAPE  C21917782   0.457   2.485   8.380  0.0319  0.1416  0.5042
  159SAPE  H19R17783   0.469   2.594   8.398 -0.2051  0.3388 -0.4681
  159SAPE  H19S17784   0.529   2.449   8.303  0.5002  1.8186  0.1107
  159SAPE  C22017785   0.492   2.430   8.516 -0.3202 -0.0107  0.4764
  159SAPE  H20R17786   0.434   2.482   8.595  0.0918 -0.2520  0.9450
  159SAPE  H20S17787   0.598   2.450   8.542  0.7912 -1.3978 -2.5803
  159SAPE  H20T17788   0.467   2.322   8.523 -2.5150  0.3296 -1.1423
  159SAPE   C3317789  -0.511   2.322   6.917  0.3777 -0.6105  1.0357
  159SAPE   H3X17790  -0.412   2.272   6.905  0.6210  0.1283 -0.2123
  159SAPE   H3Y17791  -0.581   2.285   6.838  1.0197 -0.0573  0.1867
  159SAPE   C3417792  -0.566   2.288   7.059  0.0725  0.4158  0.2632
  159SAPE   H4X17793  -0.500   2.342   7.130  0.8058  0.7012 -0.6242
  159SAPE   H4Y17794  -0.560   2.179   7.076 -1.2977  0.3936  0.7538
  159SAPE   C3517795  -0.712   2.327   7.077  0.3998 -0.8879  0.2080
  159SAPE   H5X17796  -0.781   2.265   7.016 -0.9975 -1.3572  2.1706
  159SAPE   H5Y17797  -0.732   2.427   7.034  2.3092 -0.4444  0.2612
  159SAPE   C3617798  -0.765   2.321   7.220  0.0993  0.1848 -0.4922
  159SAPE   H6X17799  -0.680   2.293   7.286  0.3139 -0.3484 -0.9876
  159SAPE   H6Y17800  -0.835   2.236   7.222 -0.9212  1.0071 -0.5119
  159SAPE   C3717801  -0.842   2.450   7.262  0.4772 -0.5400  0.8897
  159SAPE   H7X17802  -0.920   2.468   7.186  1.5412 -2.2228 -0.7146
  159SAPE   H7Y17803  -0.781   2.543   7.260 -0.8071  0.3364  1.2833
  159SAPE   C3817804  -0.918   2.438   7.394 -0.2109 -0.0611  0.3559
  159SAPE   H8X17805  -0.968   2.339   7.394 -2.3636  0.9429 -1.3232
  159SAPE   H8Y17806  -0.996   2.517   7.392  2.3139  2.6227  1.5153
  159SAPE   C3917807  -0.824   2.450   7.515  0.1881  0.6553 -0.1120
  159SAPE   H9X17808  -0.784   2.551   7.538  1.6345 -0.0325  0.5006
  159SAPE   H9Y17809  -0.735   2.384   7.513 -0.4143 -0.6466  4.4071
  159SAPE  C31017810  -0.897   2.409   7.646 -0.3682  0.3744 -0.3368
  159SAPE  H10X17811  -0.931   2.303   7.636  0.4760 -0.0190  0.6848
  159SAPE  H10Y17812  -0.986   2.468   7.676  0.1132  0.9929 -0.1083
  159SAPE  C31117813  -0.808   2.403   7.770 -0.7308 -0.3437 -0.5805
  159SAPE  H11X17814  -0.729   2.480   7.762 -1.7372  0.9431  1.1960
  159SAPE  H11Y17815  -0.740   2.318   7.747  1.0222  0.6301  0.6963
  159SAPE  C31217816  -0.890   2.385   7.900 -0.3139  0.7955  0.0891
  159SAPE  H12X17817  -0.950   2.294   7.880  1.3884 -0.3199 -0.1050
  159SAPE  H12Y17818  -0.957   2.469   7.930 -0.2961  0.8738 -0.0921
  159SAPE  C31317819  -0.792   2.367   8.018  0.1508 -0.6222  0.5439
  159SAPE  H13X17820  -0.763   2.472   8.043 -4.1888  0.4795  1.9978
  159SAPE  H13Y17821  -0.710   2.295   7.997 -1.8716 -2.8837 -0.0222
  159SAPE  C31417822  -0.862   2.329   8.150 -0.4050  0.1439  0.0310
  159SAPE  H14X17823  -0.921   2.237   8.127 -0.5076  0.0319  0.7007
  159SAPE  H14Y17824  -0.935   2.408   8.178 -0.1565  1.5262 -2.8780
  159SAPE  C31517825  -0.757   2.305   8.261 -1.0696 -0.5898  0.6118
  159SAPE  H15X17826  -0.726   2.399   8.311 -0.1189  0.1861 -1.3289
  159SAPE  H15Y17827  -0.668   2.268   8.205 -1.1777  0.9776 -0.6752
  159SAPE  C31617828  -0.798   2.212   8.371  0.3252 -0.7879  1.0356
  159SAPE  H16X17829  -0.824   2.112   8.328 -1.5820 -0.0019  0.2398
  159SAPE  H16Y17830  -0.895   2.247   8.413 -0.7977 -2.0280 -0.3763
  159SAPE  C31717831  -0.698   2.188   8.489 -0.0460  0.5588 -0.2993
  159SAPE  H17X17832  -0.698   2.277   8.556  1.7669 -0.7008  1.4944
  159SAPE  H17Y17833  -0.592   2.189   8.455 -0.0290  1.4440 -0.2374
  159SAPE  C31817834  -0.741   2.072   8.566 -0.4536  0.4770 -0.1867
  159SAPE  H18X17835  -0.710   1.981   8.510  1.3162 -1.3123  3.3514
  159SAPE  H18Y17836  -0.847   2.081   8.598 -0.0403  0.5794  1.2114
  159SAPE  H18Z17837  -0.680   2.066   8.659  0.7842 -0.5189 -1.0271
  160SAPE     N17838   1.820   1.641   6.702  0.3620  0.2348 -0.7883
  160SAPE   HN117839   1.748   1.619   6.630 -0.4186 -0.2634  0.1258
  160SAPE   HN217840   1.785   1.609   6.794  2.3195  0.9806  0.2783
  160SAPE   HN317841   1.827   1.745   6.711 -0.2933  0.0813  3.1858
  160SAPE   C1217842   1.953   1.578   6.673 -1.0232  0.0250 -0.5319
  160SAPE  H12A17843   1.941   1.469   6.655  2.5256 -0.7960  1.1255
  160SAPE  H12B17844   2.018   1.579   6.763 -2.2025 -1.0700  0.3862
  160SAPE   C1117845   2.015   1.643   6.542  0.0320  0.2426  0.5196
  160SAPE  H11A17846   1.938   1.659   6.464  1.0656  0.7561 -0.4323
  160SAPE  H11B17847   2.089   1.570   6.503  0.4605  0.7057  0.4585
  160SAPE     P17848   2.189   1.835   6.478  0.4995  0.1189 -0.2705
  160SAPE   O1317849   2.297   1.748   6.448  0.2584 -0.4997  0.3670
  160SAPE   O1417850   2.108   1.889   6.365  0.4685  0.8399 -0.4121
  160SAPE   O1217851   2.086   1.763   6.576  0.1727 -0.1518 -0.2399
  160SAPE   O1117852   2.236   1.958   6.557  0.0478 -0.3467 -0.5744
  160SAPE    C117853   2.147   2.023   6.653 -0.4308  0.0503  0.7274
  160SAPE    HA17854   2.061   2.069   6.600  1.4254  1.1397 -1.5131
  160SAPE    HB17855   2.123   1.947   6.730  1.3035 -2.1711 -0.8141
  160SAPE    C217856   2.224   2.137   6.732  1.0855  0.6731  0.1701
  160SAPE    HS17857   2.263   2.204   6.652  0.9692  0.1027 -0.3773
  160SAPE   O2117858   2.322   2.075   6.818 -0.2351 -0.3595  0.1754
  160SAPE   C2117859   2.440   2.064   6.763 -0.5911 -0.6093 -0.1405
  160SAPE   O2217860   2.477   2.117   6.656  0.4171 -0.2774 -0.0906
  160SAPE   C2217861   2.530   1.975   6.840 -0.4352 -0.1952 -0.2831
  160SAPE   H2R17862   2.470   1.909   6.906  2.7999 -2.0989  0.9944
  160SAPE   H2S17863   2.580   1.917   6.760 -0.5798  0.9187 -1.2086
  160SAPE    C317864   2.123   2.228   6.818  0.2189 -0.3516  0.6454
  160SAPE    HX17865   2.032   2.165   6.810 -0.5306  0.8555 -1.3045
  160SAPE    HY17866   2.108   2.325   6.766 -1.6747 -1.9552 -2.0517
  160SAPE   O3117867   2.167   2.258   6.960  0.7459 -0.3332  0.1419
  160SAPE   C3117868   2.135   2.172   7.049  0.6280 -0.6540 -0.3828
  160SAPE   O3217869   2.080   2.065   7.024 -0.7107  0.0642 -0.1581
  160SAPE   C3217870   2.193   2.218   7.187 -0.9325  0.3820  0.5225
  160SAPE   H2X17871   2.227   2.321   7.164  0.9724 -0.6084 -1.3614
  160SAPE   H2Y17872   2.272   2.143   7.207 -1.3168 -0.8289 -2.0961
  160SAPE   C2317873   2.624   2.068   6.925  0.5411  0.4722 -0.3945
  160SAPE   H3R17874   2.566   2.100   7.014 -1.7556 -1.0546 -1.2534
  160SAPE   H3S17875   2.655   2.162   6.874 -1.9112  0.6067 -1.7643
  160SAPE   C2417876   2.756   1.999   6.978  0.5543  0.7515 -0.0354
  160SAPE   H4R17877   2.827   2.074   7.020  2.8528 -1.2478 -0.1791
  160SAPE   H4S17878   2.808   1.958   6.889 -0.7595 -0.6205 -0.2046
  160SAPE   C2517879   2.740   1.889   7.082 -0.2936  0.5086 -0.3966
  160SAPE   H5R17880   2.774   1.791   7.045  1.2724 -0.3437  2.9279
  160SAPE   C2617881   2.698   1.899   7.214 -0.2362  0.0415  0.4571
  160SAPE   H6R17882   2.685   1.809   7.275  1.9412  0.0797  1.0669
  160SAPE   C2717883   2.642   2.027   7.273  0.3790  0.1088  0.1520
  160SAPE   H7R17884   2.531   2.031   7.267  0.3467 -0.8883 -0.0617
  160SAPE   H7S17885   2.684   2.112   7.215 -2.4307  0.4281 -1.6322
  160SAPE   C2817886   2.686   2.046   7.417  0.5842 -0.6746  1.3679
  160SAPE   H8R17887   2.789   2.010   7.434  1.6426  0.2525 -2.2538
  160SAPE   C2917888   2.617   2.114   7.512  0.0154 -0.0034  0.2527
  160SAPE   H9R17889   2.662   2.101   7.611  1.8207 -1.2834 -0.6578
  160SAPE  C21017890   2.481   2.179   7.499 -0.6781  0.6115 -0.1518
  160SAPE  H10R17891   2.410   2.123   7.563 -0.7438  0.0220 -0.7376
  160SAPE  H10S17892   2.446   2.195   7.395  0.5079  0.4898 -0.5857
  160SAPE  C21117893   2.487   2.313   7.571 -0.4121  0.0031 -0.4745
  160SAPE  H11R17894   2.482   2.401   7.506 -2.4173 -1.0173 -1.8021
  160SAPE  C21217895   2.476   2.344   7.704 -0.0015  0.0147  0.0850
  160SAPE  H12R17896   2.490   2.447   7.739  1.1137 -0.2705  0.5398
  160SAPE  C21317897   2.448   2.243   7.812  0.6674 -0.5000 -0.4472
  160SAPE  H13R17898   2.381   2.158   7.786 -1.6832  0.2239  2.6863
  160SAPE  H13S17899   2.378   2.297   7.879 -3.4554 -2.6571 -2.6237
  160SAPE  C21417900   2.567   2.193   7.897  0.4198 -0.9210 -0.1830
  160SAPE  H14R17901   2.666   2.200   7.848  0.0201  0.0416 -0.8866
  160SAPE  C21517902   2.554   2.148   8.020  0.8666 -0.2689 -0.3025
  160SAPE  H15R17903   2.645   2.104   8.065  0.3971  0.7857  1.8123
  160SAPE  C21617904   2.424   2.142   8.099 -0.1350  0.0555 -0.1119
  160SAPE  H16R17905   2.397   2.042   8.137 -2.1372  0.0251 -1.4657
  160SAPE  H16S17906   2.336   2.147   8.031  0.0367 -1.7763 -0.5237
  160SAPE  C21717907   2.407   2.261   8.197  0.5654 -0.0871  0.2120
  160SAPE  H17R17908   2.419   2.360   8.148  1.1431 -0.5682 -0.6391
  160SAPE  H17S17909   2.487   2.242   8.272 -1.7238  1.4542  3.3217
  160SAPE  C21817910   2.261   2.265   8.246  0.1352  0.4615  0.0945
  160SAPE  H18R17911   2.191   2.267   8.159  0.7122 -0.8421 -0.4327
  160SAPE  H18S17912   2.244   2.353   8.311  0.9174  0.4897  0.2595
  160SAPE  C21917913   2.219   2.142   8.329 -0.1121 -0.2301  0.2332
  160SAPE  H19R17914   2.217   2.046   8.274  0.2656  0.6969 -1.4810
  160SAPE  H19S17915   2.112   2.161   8.354 -0.4134 -0.2675 -0.9824
  160SAPE  C22017916   2.278   2.123   8.475 -0.0292  0.5976  0.1170
  160SAPE  H20R17917   2.243   2.026   8.515 -0.0509  0.3864 -0.4105
  160SAPE  H20S17918   2.268   2.208   8.546 -0.3693  0.0721  0.7069
  160SAPE  H20T17919   2.388   2.110   8.463 -0.2348 -0.7540 -0.4344
  160SAPE   C3317920   2.082   2.212   7.298 -1.4365 -0.0357 -0.6695
  160SAPE   H3X17921   2.049   2.106   7.310  1.0543 -0.6155  2.1135
  160SAPE   H3Y17922   1.990   2.272   7.281 -1.1059  0.7681  0.3378
  160SAPE   C3417923   2.138   2.252   7.433  0.6495 -0.3656  0.6291
  160SAPE   H4X17924   2.183   2.353   7.426  0.0787 -0.1579 -0.1714
  160SAPE   H4Y17925   2.220   2.185   7.468 -0.3744 -2.6493 -1.0732
  160SAPE   C3517926   2.027   2.252   7.538 -0.2611  0.2090  0.4757
  160SAPE   H5X17927   1.988   2.149   7.543  1.1454 -0.4824 -1.6591
  160SAPE   H5Y17928   1.936   2.308   7.509 -0.2804 -0.1479 -0.1634
  160SAPE   C3617929   2.062   2.309   7.666  1.0364  0.3644  0.2705
  160SAPE   H6X17930   2.115   2.403   7.642  1.6609  0.4562  1.9111
  160SAPE   H6Y17931   2.147   2.254   7.712  0.6329  0.5389  1.2534
  160SAPE   C3717932   1.946   2.342   7.773 -0.2522  0.4144  0.4104
  160SAPE   H7X17933   1.882   2.254   7.796  0.8673 -0.9121 -1.2290
  160SAPE   H7Y17934   1.879   2.412   7.719 -1.0856 -1.0102 -0.4872
  160SAPE   C3817935   2.004   2.398   7.903  0.3637 -0.5212  0.0708
  160SAPE   H8X17936   2.070   2.485   7.880  0.0067  0.1007  1.2888
  160SAPE   H8Y17937   2.073   2.324   7.948 -1.0875 -2.8573 -1.3420
  160SAPE   C3917938   1.893   2.429   7.998 -0.7733 -0.0622 -0.1275
  160SAPE   H9X17939   1.833   2.338   8.018  1.5247 -1.3274  1.4350
  160SAPE   H9Y17940   1.833   2.511   7.953 -0.8018 -0.2071 -0.3565
  160SAPE  C31017941   1.937   2.477   8.132  0.1453 -0.1080 -0.7397
  160SAPE  H10X17942   2.012   2.558   8.139 -0.1643  0.0448  1.6140
  160SAPE  H10Y17943   1.982   2.389   8.182 -2.1398  0.3481  2.3944
  160SAPE  C31117944   1.824   2.514   8.236 -0.1204  0.2546  0.0378
  160SAPE  H11X17945   1.779   2.416   8.261  2.4725 -0.8832  0.5330
  160SAPE  H11Y17946   1.756   2.588   8.188  0.1738  0.0631 -0.6785
  160SAPE  C31217947   1.879   2.588   8.363  0.1971  0.2794  0.1545
  160SAPE  H12X17948   1.795   2.626   8.424 -0.9625 -0.7300 -0.7705
  160SAPE  H12Y17949   1.949   2.670   8.338  0.5258  1.0312  3.1035
  160SAPE  C31317950   1.947   2.493   8.464  0.3446  0.1553  0.4842
  160SAPE  H13X17951   2.033   2.441   8.416  0.0410 -0.8431  0.9801
  160SAPE  H13Y17952   1.876   2.412   8.493 -0.6565 -0.1408 -2.4881
  160SAPE  C31417953   2.013   2.556   8.586  0.3903  1.1384  0.1699
  160SAPE  H14X17954   1.939   2.612   8.647  1.1268  0.8200  1.4133
  160SAPE  H14Y17955   2.094   2.628   8.561  1.1472 -0.1215 -1.1135
  160SAPE  C31517956   2.067   2.443   8.677  0.7751 -0.3156 -0.7344
  160SAPE  H15X17957   2.147   2.478   8.746  1.0978 -1.7178 -0.3486
  160SAPE  H15Y17958   2.112   2.368   8.608 -1.3580 -0.4955 -2.0126
  160SAPE  C31617959   1.960   2.364   8.760  0.2826  0.1426 -0.1469
  160SAPE  H16X17960   1.888   2.316   8.690  1.3671 -0.8673 -0.5965
  160SAPE  H16Y17961   1.906   2.441   8.818  1.0516  0.5706  0.0200
  160SAPE  C31717962   2.017   2.256   8.848  0.5491  0.0062  0.5200
  160SAPE  H17X17963   2.068   2.188   8.776  2.7226  2.7385 -0.7260
  160SAPE  H17Y17964   1.927   2.207   8.891  1.2574 -2.3041 -0.4631
  160SAPE  C31817965   2.107   2.306   8.961 -0.8691  0.4541 -0.1334
  160SAPE  H18X17966   2.157   2.223   9.016 -1.4649  1.2123  1.6187
  160SAPE  H18Y17967   2.046   2.363   9.033 -0.3723  2.8679 -1.5352
  160SAPE  H18Z17968   2.187   2.371   8.919 -0.0121  0.0064  0.7498
  161SOPE     N17969   6.071   5.594  10.589  0.7864 -0.4350  0.5365
  161SOPE   HN117970   5.998   5.543  10.642 -0.6516 -0.3483 -1.2590
  161SOPE   HN217971   6.164   5.550  10.604  1.7111  1.0291 -0.6082
  161SOPE   HN317972   6.069   5.696  10.611  1.0139 -0.3990  0.3968
  161SOPE   C1217973   6.038   5.594  10.432 -0.9483 -0.0379  0.2154
  161SOPE  H12A17974   6.141   5.593  10.391 -0.5555  0.1224  1.1514
  161SOPE  H12B17975   6.008   5.698  10.409  1.9540  0.6047 -1.1121
  161SOPE   C1117976   5.947   5.485  10.400 -0.0617  0.5242  0.1632
  161SOPE  H11A17977   5.909   5.492  10.296 -0.8802 -0.1823  0.3991
  161SOPE  H11B17978   5.863   5.492  10.473  1.1706 -0.3770  1.7119
  161SOPE     P17979   5.924   5.229  10.431  0.0658  0.2283  0.2365
  161SOPE   O1317980   5.779   5.256  10.405 -0.2378  0.3992  0.6559
  161SOPE   O1417981   5.962   5.161  10.558 -0.3234 -0.4339 -0.2259
  161SOPE   O1217982   6.009   5.360  10.420 -0.1448  0.2087  0.1387
  161SOPE   O1117983   5.975   5.137  10.323 -0.3529  0.4477  0.4790
  161SOPE    C117984   6.118   5.104  10.314  0.9230 -0.2329 -0.2759
  161SOPE    HA17985   6.153   5.073  10.415  0.3527 -1.1757 -0.3537
  161SOPE    HB17986   6.171   5.195  10.280 -1.1446  0.9359 -0.5440
  161SOPE    C217987   6.130   4.983  10.219 -0.6268 -0.4879 -0.2923
  161SOPE    HS17988   6.231   4.982  10.173 -1.2658 -0.7653 -1.7528
  161SOPE   O2117989   6.045   4.994  10.108  0.5571 -0.3390 -0.4127
  161SOPE   C2117990   6.068   5.090  10.020 -0.5196 -0.2613 -0.4868
  161SOPE   O2217991   6.166   5.164  10.021 -0.5747 -0.1731 -0.3534
  161SOPE   C2217992   5.968   5.072   9.907  0.4048 -0.2324  0.0203
  161SOPE   H2R17993   5.869   5.107   9.943  0.7669  1.5099 -0.6034
  161SOPE   H2S17994   5.964   4.962   9.889  0.6801 -0.5142  1.5297
  161SOPE    C317995   6.106   4.852  10.294 -0.0255  0.0318 -0.4859
  161SOPE    HX17996   6.014   4.865  10.355  0.0787  1.6070 -0.6199
  161SOPE    HY17997   6.192   4.830  10.360 -0.3394 -1.4639 -0.5383
  161SOPE   O3117998   6.075   4.736  10.202  0.3667 -0.7155 -0.1630
  161SOPE   C3117999   6.164   4.642  10.211  0.1648 -0.0508  0.1858
  161SOPE   O3218000   6.265   4.639  10.270 -0.3654  0.1840 -0.4191
  161SOPE   C3218001   6.111   4.523  10.119  0.8800 -0.1686  0.0141
  161SOPE   H2X18002   6.005   4.511  10.148  0.3844 -2.1076 -2.3166
  161SOPE   H2Y18003   6.155   4.424  10.143  3.1830 -0.0315 -3.0577
  161SOPE   C2318004   6.013   5.139   9.775 -0.5973 -0.0902 -0.5686
  161SOPE   H3R18005   6.103   5.084   9.739 -0.8204 -1.0597  0.2966
  161SOPE   H3S18006   6.042   5.244   9.797  1.0038 -0.4599 -0.7673
  161SOPE   C2418007   5.904   5.134   9.663  1.2032 -0.2872 -0.0963
  161SOPE   H4R18008   5.904   5.024   9.648  0.3081 -0.1555 -1.1263
  161SOPE   H4S18009   5.799   5.157   9.692  0.9020 -1.3884 -0.2456
  161SOPE   C2518010   5.954   5.178   9.528 -0.7193 -0.4159  0.0415
  161SOPE   H5R18011   5.976   5.287   9.538 -0.1129 -0.7291  4.2223
  161SOPE   H5S18012   6.048   5.123   9.506 -2.2299 -2.9889 -0.3692
  161SOPE   C2618013   5.841   5.155   9.419  0.2459 -0.1695  0.2999
  161SOPE   H6R18014   5.817   5.047   9.415  2.3848 -0.6514 -2.2189
  161SOPE   H6S18015   5.745   5.201   9.451  0.1869 -0.1911  0.1540
  161SOPE   C2718016   5.882   5.210   9.283 -0.2103  0.2428 -0.3929
  161SOPE   H7R18017   5.879   5.321   9.285  2.9943  0.4259 -0.6982
  161SOPE   H7S18018   5.989   5.186   9.268  0.3847  0.6591  2.5540
  161SOPE   C2818019   5.808   5.148   9.164 -0.3287  0.2637 -0.3295
  161SOPE   H8R18020   5.876   5.173   9.080 -0.8565 -1.3786 -1.2891
  161SOPE   H8S18021   5.802   5.038   9.175  0.4237  0.1921 -0.6062
  161SOPE   C2918022   5.666   5.204   9.147 -0.0630  0.5986 -0.6210
  161SOPE   H9118023   5.607   5.206   9.240 -0.1121  2.7032 -0.6611
  161SOPE  C21018024   5.601   5.247   9.036 -0.4228  0.4309 -0.3130
  161SOPE  H10118025   5.499   5.288   9.048  0.5311  2.3321  2.1515
  161SOPE  C21118026   5.652   5.254   8.895 -0.3053  0.0598 -0.2169
  161SOPE  H11R18027   5.762   5.245   8.902 -0.2333  0.6467 -0.5333
  161SOPE  H11S18028   5.622   5.355   8.860 -0.7956 -0.9342 -2.8753
  161SOPE  C21218029   5.603   5.147   8.804 -0.1021  0.4050 -0.3962
  161SOPE  H12R18030   5.499   5.122   8.837  0.5652 -1.0670  0.7087
  161SOPE  H12S18031   5.648   5.047   8.822  1.0307  0.9571 -0.1475
  161SOPE  C21318032   5.584   5.189   8.661 -0.2587  0.4039  0.4738
  161SOPE  H13R18033   5.682   5.212   8.615 -0.4693  0.4465  0.0384
  161SOPE  H13S18034   5.527   5.284   8.649 -0.0018  0.7677  1.9965
  161SOPE  C21418035   5.522   5.073   8.580 -0.1746  0.2442 -0.0277
  161SOPE  H14R18036   5.418   5.047   8.608  0.1406  0.1634  1.1012
  161SOPE  H14S18037   5.585   4.982   8.592  0.4315  0.2559 -2.4771
  161SOPE  C21518038   5.521   5.107   8.432 -0.0987 -0.3708 -0.3895
  161SOPE  H15R18039   5.617   5.098   8.375 -0.4157 -0.8221 -0.8621
  161SOPE  H15S18040   5.496   5.215   8.430  1.8803  0.2434  2.1356
  161SOPE  C21618041   5.415   5.015   8.373  0.0485 -0.1212 -0.9237
  161SOPE  H16R18042   5.314   5.010   8.419 -0.8453 -0.4499 -2.7924
  161SOPE  H16S18043   5.453   4.912   8.391 -2.4038 -0.8411  0.7083
  161SOPE  C21718044   5.390   5.051   8.225  0.8268  0.5198  0.5405
  161SOPE  H17R18045   5.479   5.078   8.165 -0.7624  1.3833 -1.5872
  161SOPE  H17S18046   5.329   5.144   8.229 -0.6797 -0.3324 -1.2696
  161SOPE  C21818047   5.293   4.947   8.155 -0.3799 -0.0296 -0.4706
  161SOPE  H18R18048   5.267   4.975   8.051 -0.0853  0.4095 -0.4306
  161SOPE  H18S18049   5.195   4.936   8.207  0.4740 -0.3693  1.1465
  161SOPE  H18T18050   5.338   4.846   8.161  2.2179  1.0997  0.8746
  161SOPE   C3318051   6.126   4.548   9.965 -0.5692  0.6517  0.1255
  161SOPE   H3X18052   6.116   4.447   9.921 -2.4440  0.3213  1.1790
  161SOPE   H3Y18053   6.222   4.601   9.948 -0.3928  1.0855  2.2005
  161SOPE   C3418054   6.016   4.633   9.906 -0.0376 -0.3170 -0.0499
  161SOPE   H4X18055   6.042   4.736   9.939 -1.3724 -0.3916  1.3064
  161SOPE   H4Y18056   5.922   4.629   9.964  0.4046 -0.4499  0.6674
  161SOPE   C3518057   5.976   4.618   9.762 -0.3925 -0.4298  0.2875
  161SOPE   H5X18058   5.994   4.511   9.737 -0.4899 -0.1391 -1.1656
  161SOPE   H5Y18059   6.042   4.676   9.693 -0.0352 -0.8233  0.2910
  161SOPE   C3618060   5.834   4.660   9.734 -0.2218  0.0696 -0.4819
  161SOPE   H6X18061   5.822   4.767   9.760 -2.3690  0.5518 -2.9632
  161SOPE   H6Y18062   5.757   4.606   9.794 -0.1026 -0.7811 -1.0733
  161SOPE   C3718063   5.806   4.633   9.585  0.3821 -0.0873  0.8905
  161SOPE   H7X18064   5.698   4.651   9.567  0.8897  1.3479 -0.9005
  161SOPE   H7Y18065   5.825   4.525   9.567  1.8776  0.0493  1.5504
  161SOPE   C3818066   5.871   4.743   9.492 -0.6933  0.4208 -0.0305
  161SOPE   H8X18067   5.978   4.720   9.477 -0.0895  0.5286  3.4194
  161SOPE   H8Y18068   5.852   4.838   9.547 -1.8823 -0.3115  0.8923
  161SOPE   C3918069   5.807   4.753   9.348 -0.5081  0.1717 -0.6397
  161SOPE   H9X18070   5.824   4.853   9.302  1.4387 -0.2217 -0.8444
  161SOPE   H9Y18071   5.696   4.748   9.346 -0.5944  1.6681 -1.0803
  161SOPE  C31018072   5.858   4.642   9.257 -0.3885 -0.2040 -0.0428
  161SOPE  H10X18073   5.870   4.550   9.318  0.8641  1.0899  1.7500
  161SOPE  H10Y18074   5.961   4.652   9.217 -0.9542 -0.6290 -1.6898
  161SOPE  C31118075   5.772   4.626   9.134 -0.3363 -0.3288  0.3471
  161SOPE  H11X18076   5.664   4.619   9.157 -0.8766 -0.7915 -2.0691
  161SOPE  H11Y18077   5.809   4.535   9.083 -0.8893 -0.6845  0.5725
  161SOPE  C31218078   5.792   4.745   9.035  0.1614  0.1065 -0.7551
  161SOPE  H12X18079   5.901   4.761   9.025  0.5584 -1.7460  0.1658
  161SOPE  H12Y18080   5.748   4.832   9.088 -1.8784 -0.8817 -0.7315
  161SOPE  C31318081   5.724   4.711   8.901  0.1381  0.4827 -0.2785
  161SOPE  H13X18082   5.714   4.806   8.844  1.9340  1.0795  0.3426
  161SOPE  H13Y18083   5.621   4.674   8.916  0.6871 -0.6705  0.8715
  161SOPE  C31418084   5.827   4.641   8.819  0.7726  0.1117  0.1796
  161SOPE  H14X18085   5.852   4.543   8.866 -3.2251 -2.0347 -1.6426
  161SOPE  H14Y18086   5.920   4.696   8.792  0.0201  0.4241 -1.9947
  161SOPE  C31518087   5.765   4.610   8.683 -0.4918 -0.5693 -0.4644
  161SOPE  H15X18088   5.741   4.708   8.637 -0.3091 -0.1927  0.2334
  161SOPE  H15Y18089   5.663   4.566   8.697 -1.2778  1.1800 -0.4133
  161SOPE  C31618090   5.852   4.527   8.593  0.0354  0.1220 -0.4448
  161SOPE  H16X18091   5.798   4.499   8.500  0.0783  2.7765 -1.3602
  161SOPE  H16Y18092   5.873   4.426   8.634  1.0989  0.5916  0.1993
  161SOPE  C31718093   5.985   4.589   8.546 -0.1866 -0.5842  0.2174
  161SOPE  H17X18094   6.037   4.515   8.481 -0.0837 -0.2320 -0.1065
  161SOPE  H17Y18095   6.035   4.603   8.643 -0.8051  0.4773  0.4045
  161SOPE  C31818096   5.974   4.732   8.477  0.4946  0.8088 -0.0955
  161SOPE  H18X18097   5.931   4.723   8.375 -0.7803 -0.4316  0.5109
  161SOPE  H18Y18098   6.077   4.772   8.469 -0.2885  3.4360  1.6869
  161SOPE  H18Z18099   5.919   4.802   8.544 -0.3205 -0.2951  0.4378
  162SOPE     N18100   3.760   2.051  10.903  0.4450 -0.2700  0.0912
  162SOPE   HN118101   3.849   2.075  10.855 -0.1566  3.0049  0.3813
  162SOPE   HN218102   3.768   2.093  10.998  0.2761  1.3885 -0.5858
  162SOPE   HN318103   3.745   1.948  10.905 -0.8347 -0.0936  0.7938
  162SOPE   C1218104   3.642   2.114  10.836  0.1517 -1.5281 -0.3876
  162SOPE  H12A18105   3.552   2.108  10.901  1.4260 -0.4485  1.5815
  162SOPE  H12B18106   3.611   2.058  10.745 -0.6140 -2.9776  0.7131
  162SOPE   C1118107   3.663   2.266  10.805 -0.0891  0.0444 -0.3750
  162SOPE  H11A18108   3.570   2.320  10.777 -0.1057 -0.0382 -0.4800
  162SOPE  H11B18109   3.735   2.270  10.720  0.1920  0.0434 -0.1364
  162SOPE     P18110   3.778   2.473  10.911  0.2627 -0.5024  0.2109
  162SOPE   O1318111   3.920   2.431  10.908 -1.0858 -0.3546 -0.0540
  162SOPE   O1418112   3.728   2.573  11.009 -0.2837  0.5793 -0.1129
  162SOPE   O1218113   3.701   2.339  10.926  0.6156 -0.3115 -0.4813
  162SOPE   O1118114   3.741   2.517  10.763  0.0507  0.1596  0.1918
  162SOPE    C118115   3.662   2.627  10.721  0.2274 -0.0432  0.4949
  162SOPE    HA18116   3.699   2.721  10.769 -1.0048  0.0318  1.3506
  162SOPE    HB18117   3.560   2.611  10.764  1.9420 -2.4196  4.1353
  162SOPE    C218118   3.658   2.659  10.566  0.7530 -0.2149  0.0091
  162SOPE    HS18119   3.597   2.752  10.558 -1.5558 -1.6369  0.1283
  162SOPE   O2118120   3.593   2.543  10.506 -0.2121  0.2905  0.0248
  162SOPE   C2118121   3.488   2.557  10.428  0.1421 -0.3937  0.5621
  162SOPE   O2218122   3.429   2.661  10.401  0.1730 -0.0185 -0.0557
  162SOPE   C2218123   3.441   2.417  10.375  0.2493 -0.3050 -0.4637
  162SOPE   H2R18124   3.460   2.345  10.458 -1.1283  2.4857  2.4808
  162SOPE   H2S18125   3.508   2.393  10.290  1.2022 -1.0581  0.4681
  162SOPE    C318126   3.805   2.667  10.504 -0.4249 -0.6731 -0.6826
  162SOPE    HX18127   3.852   2.570  10.533  0.6677 -0.4205 -1.5266
  162SOPE    HY18128   3.867   2.745  10.554 -1.7983 -0.3636  0.6110
  162SOPE   O3118129   3.810   2.680  10.359  0.2064  0.0262 -0.0606
  162SOPE   C3118130   3.797   2.796  10.299 -0.4355  0.1687  0.2632
  162SOPE   O3218131   3.754   2.901  10.348  0.3691  0.0996 -0.7610
  162SOPE   C3218132   3.817   2.786  10.147 -0.6346  0.7638  0.5900
  162SOPE   H2X18133   3.814   2.679  10.116 -0.8278  1.1239 -0.7102
  162SOPE   H2Y18134   3.924   2.811  10.133 -0.1286 -0.3472  2.2206
  162SOPE   C2318135   3.296   2.410  10.328 -0.8268  0.9317  0.2050
  162SOPE   H3R18136   3.260   2.497  10.269  0.9364  0.6328 -1.3658
  162SOPE   H3S18137   3.236   2.422  10.421 -0.2511  0.9984  0.5707
  162SOPE   C2418138   3.263   2.275  10.260  0.3181  0.7214  0.0578
  162SOPE   H4R18139   3.317   2.200  10.321 -2.7340 -0.5995  1.3352
  162SOPE   H4S18140   3.155   2.255  10.243 -0.1249  0.7694  2.4982
  162SOPE   C2518141   3.318   2.271  10.118 -0.2572  0.2493 -0.0330
  162SOPE   H5R18142   3.249   2.346  10.073 -1.3769 -0.7941 -0.1255
  162SOPE   H5S18143   3.419   2.317  10.120 -1.2833  2.6979  1.6966
  162SOPE   C2618144   3.309   2.134  10.049 -0.2771  0.0527  0.3781
  162SOPE   H6R18145   3.380   2.074  10.110 -0.6138 -2.0276 -1.2090
  162SOPE   H6S18146   3.200   2.110  10.050 -0.9847  2.8396  0.2759
  162SOPE   C2718147   3.353   2.150   9.900 -0.0173  0.2425  0.5592
  162SOPE   H7R18148   3.287   2.209   9.833 -0.3985 -1.0789 -0.2710
  162SOPE   H7S18149   3.444   2.213   9.904  0.0783  0.0574  1.5879
  162SOPE   C2818150   3.381   2.008   9.836  0.2595  0.0150 -0.3448
  162SOPE   H8R18151   3.454   1.955   9.901  0.0033 -1.6583 -1.3727
  162SOPE   H8S18152   3.294   1.940   9.842  0.0692  0.3900  1.9678
  162SOPE   C2918153   3.429   2.024   9.693  0.3394  1.0008  0.6302
  162SOPE   H9118154   3.531   2.063   9.681  1.5010 -1.7760  0.5180
  162SOPE  C21018155   3.359   1.986   9.583 -0.5470 -0.7538  0.4685
  162SOPE  H10118156   3.405   2.003   9.484  0.2887  1.2621  1.1370
  162SOPE  C21118157   3.225   1.919   9.574 -0.0876  0.1617  0.0331
  162SOPE  H11R18158   3.183   1.905   9.676 -0.2721  0.4220 -0.0066
  162SOPE  H11S18159   3.219   1.829   9.509 -2.9706  0.6715 -0.5047
  162SOPE  C21218160   3.117   2.021   9.516 -0.3802  0.8001 -0.1307
  162SOPE  H12R18161   3.113   2.106   9.588  0.9684 -0.0691  1.0208
  162SOPE  H12S18162   3.017   1.972   9.518 -0.4844  1.0243  0.1751
  162SOPE  C21318163   3.141   2.083   9.378  0.5286  0.5010  1.1332
  162SOPE  H13R18164   3.245   2.117   9.360 -0.1304  2.5716  0.9930
  162SOPE  H13S18165   3.091   2.181   9.365  2.0402  1.2832  0.9340
  162SOPE  C21418166   3.095   1.985   9.261 -0.0573 -0.6561  0.2257
  162SOPE  H14R18167   2.996   1.934   9.268  0.3357 -1.6778 -1.2608
  162SOPE  H14S18168   3.172   1.905   9.259  1.8348  0.8690  3.4762
  162SOPE  C21518169   3.107   2.049   9.121 -0.7852 -0.7506  0.8151
  162SOPE  H15R18170   3.202   2.106   9.124 -0.5371 -1.1531  0.7826
  162SOPE  H15S18171   3.024   2.121   9.103 -0.5725 -0.4568  0.9944
  162SOPE  C21618172   3.121   1.942   9.012 -0.5940  0.0480  0.5658
  162SOPE  H16R18173   3.197   1.865   9.037  0.6020  1.1657  0.4497
  162SOPE  H16S18174   3.144   1.998   8.919  0.0080 -0.2742  0.5171
  162SOPE  C21718175   2.980   1.880   8.994  0.4630  0.3996 -0.0307
  162SOPE  H17R18176   2.903   1.957   8.972 -0.7002 -1.0881 -1.4283
  162SOPE  H17S18177   2.959   1.821   9.085 -0.1284  0.8531  0.1357
  162SOPE  C21818178   2.982   1.781   8.879  0.2896  0.6687  0.5175
  162SOPE  H18R18179   3.030   1.686   8.909 -0.9042 -0.4381 -0.8788
  162SOPE  H18S18180   3.033   1.818   8.788  0.2305  0.7969  0.5361
  162SOPE  H18T18181   2.879   1.770   8.836  1.2892 -1.0745 -1.6574
  162SOPE   C3318182   3.715   2.869  10.065 -0.1177 -0.0167 -0.3588
  162SOPE   H3X18183   3.734   2.858   9.956 -0.4166 -0.9287 -0.3321
  162SOPE   H3Y18184   3.739   2.975  10.088  1.2693  0.1162 -2.2455
  162SOPE   C3418185   3.563   2.834  10.070 -0.1244 -0.3494  0.1725
  162SOPE   H4X18186   3.504   2.911  10.015 -0.2413 -0.3528  0.2950
  162SOPE   H4Y18187   3.532   2.846  10.176  0.1345  0.0699  0.2016
  162SOPE   C3518188   3.523   2.705  10.016  0.5960  0.5929 -0.1639
  162SOPE   H5X18189   3.566   2.625  10.080  0.5801  0.9075  0.2479
  162SOPE   H5Y18190   3.566   2.700   9.913 -0.8482 -3.7800 -0.7716
  162SOPE   C3618191   3.371   2.686   9.997  1.0575 -0.2567  0.1346
  162SOPE   H6X18192   3.327   2.777   9.952 -0.9717 -0.4058  1.6196
  162SOPE   H6Y18193   3.327   2.683  10.100  2.4134 -1.6479  0.7148
  162SOPE   C3718194   3.328   2.565   9.905 -0.4691 -0.2817  0.0247
  162SOPE   H7X18195   3.231   2.549   9.955  0.5115 -0.4154  1.9684
  162SOPE   H7Y18196   3.385   2.471   9.918 -0.6146 -0.2712  0.7332
  162SOPE   C3818197   3.321   2.600   9.757  0.5714  0.4855 -0.7112
  162SOPE   H8X18198   3.404   2.669   9.733  0.5893  0.9309  0.5610
  162SOPE   H8Y18199   3.231   2.657   9.727  0.8452  0.9323 -0.6812
  162SOPE   C3918200   3.344   2.477   9.668  0.3577  0.7500 -0.0277
  162SOPE   H9X18201   3.268   2.404   9.702  0.6054  0.1696 -0.7040
  162SOPE   H9Y18202   3.444   2.430   9.679 -0.1667 -0.3726  0.0252
  162SOPE  C31018203   3.313   2.500   9.521 -0.5937  0.5348 -0.1464
  162SOPE  H10X18204   3.245   2.586   9.504 -0.6474  0.4470 -0.3830
  162SOPE  H10Y18205   3.260   2.413   9.478 -0.8830  0.3217  0.6348
  162SOPE  C31118206   3.434   2.532   9.436 -0.2515 -0.2959  0.4824
  162SOPE  H11X18207   3.492   2.439   9.422  1.2893  0.9945 -2.6951
  162SOPE  H11Y18208   3.488   2.614   9.487  0.4492 -0.1830 -0.4278
  162SOPE  C31218209   3.398   2.571   9.294 -0.1064  0.5992  0.5921
  162SOPE  H12X18210   3.357   2.674   9.280 -1.0358 -0.0361 -2.0295
  162SOPE  H12Y18211   3.314   2.510   9.254  0.3919 -1.0505  2.0024
  162SOPE  C31318212   3.516   2.562   9.192  0.9268 -0.2724 -0.0898
  162SOPE  H13X18213   3.551   2.456   9.190  0.9356 -0.2760 -2.6175
  162SOPE  H13Y18214   3.599   2.626   9.230  1.4312 -0.5294 -0.7304
  162SOPE  C31418215   3.475   2.598   9.047 -0.3924 -0.6378  0.5338
  162SOPE  H14X18216   3.443   2.704   9.040 -1.6965 -1.1303 -3.6497
  162SOPE  H14Y18217   3.387   2.537   9.018  0.8839 -3.0751  1.4792
  162SOPE  C31518218   3.583   2.573   8.948  0.3799 -0.2123  0.6536
  162SOPE  H15X18219   3.619   2.468   8.950  3.6054  0.7463 -0.7151
  162SOPE  H15Y18220   3.681   2.625   8.959  0.5732 -0.8911  2.3555
  162SOPE  C31618221   3.549   2.606   8.799  0.1623 -0.0786 -0.5416
  162SOPE  H16X18222   3.550   2.717   8.789  0.2514 -0.0862 -0.6103
  162SOPE  H16Y18223   3.444   2.575   8.777 -0.6754  1.2147  1.3132
  162SOPE  C31718224   3.635   2.541   8.692 -0.3029 -0.1714  0.0374
  162SOPE  H17X18225   3.594   2.568   8.592  0.2572  0.0611 -0.1375
  162SOPE  H17Y18226   3.613   2.433   8.704  0.3091 -0.2789  0.2793
  162SOPE  C31818227   3.791   2.560   8.692 -0.1704 -0.0919  0.0395
  162SOPE  H18X18228   3.834   2.543   8.793  0.1162 -1.4372 -0.2842
  162SOPE  H18Y18229   3.823   2.652   8.639 -0.0603  0.3979  0.9343
  162SOPE  H18Z18230   3.840   2.479   8.633  1.5384  1.4939 -0.8048
  163SOPE     N18231   5.578   0.183  10.770 -0.0068 -0.2145  0.2083
  163SOPE   HN118232   5.554   0.200  10.671  0.8887  0.9147  0.1679
  163SOPE   HN218233   5.636   0.096  10.770  0.4567 -0.1779 -4.6311
  163SOPE   HN318234   5.489   0.162  10.818 -0.0778  1.5094  0.8969
  163SOPE   C1218235   5.649   0.300  10.827 -0.0096  0.1320  0.5162
  163SOPE  H12A18236   5.711   0.252  10.906 -1.6355 -2.2772  0.4653
  163SOPE  H12B18237   5.569   0.368  10.864  0.0443  0.4614  0.0270
  163SOPE   C1118238   5.733   0.371  10.721 -0.2325 -0.3017 -0.2824
  163SOPE  H11A18239   5.663   0.406  10.642 -0.3999  0.3521  0.1488
  163SOPE  H11B18240   5.800   0.291  10.683  0.7978 -0.0146  0.8503
  163SOPE     P18241   5.776   0.622  10.742  0.0761 -0.0548 -0.0234
  163SOPE   O1318242   5.861   0.662  10.630  0.4784 -0.2419  0.0508
  163SOPE   O1418243   5.784   0.705  10.863 -0.4324  0.0425 -0.1404
  163SOPE   O1218244   5.803   0.472  10.776  0.2903  0.3331 -0.0570
  163SOPE   O1118245   5.625   0.616  10.697  0.1303  0.1308  0.0661
  163SOPE    C118246   5.530   0.718  10.694  0.8673 -0.8793  0.0340
  163SOPE    HA18247   5.552   0.803  10.762 -0.7468 -1.0605  0.8311
  163SOPE    HB18248   5.434   0.672  10.725  0.7888 -0.4249  0.4774
  163SOPE    C218249   5.513   0.778  10.553  0.8556 -0.7764  0.2168
  163SOPE    HS18250   5.505   0.683  10.497  0.3162  0.1213 -1.3105
  163SOPE   O2118251   5.631   0.859  10.536  0.5625  0.2591 -0.2183
  163SOPE   C2118252   5.705   0.824  10.433  0.3936  0.7719  0.1668
  163SOPE   O2218253   5.683   0.733  10.355 -0.1807 -0.3064 -0.1887
  163SOPE   C2218254   5.810   0.932  10.414 -0.0630 -0.1588  0.1352
  163SOPE   H2R18255   5.901   0.877  10.383  0.4091  0.1753  0.8954
  163SOPE   H2S18256   5.832   0.987  10.508 -0.7568  1.3594 -0.5518
  163SOPE    C318257   5.376   0.865  10.539 -0.1985  0.3627 -0.2931
  163SOPE    HX18258   5.361   0.938  10.621 -2.2165 -0.9300  0.5641
  163SOPE    HY18259   5.293   0.792  10.549  0.0007 -0.1484 -2.0133
  163SOPE   O3118260   5.378   0.935  10.420  0.0078 -0.2061 -0.4137
  163SOPE   C3118261   5.320   0.869  10.316 -0.2323 -0.2704 -0.2346
  163SOPE   O3218262   5.269   0.764  10.331 -0.0002 -0.0462  0.4281
  163SOPE   C3218263   5.340   0.936  10.183 -0.1172  0.2454  0.7791
  163SOPE   H2X18264   5.398   1.029  10.204 -0.1230  0.4106  0.0623
  163SOPE   H2Y18265   5.243   0.972  10.144  0.6927  2.4241  0.6017
  163SOPE   C2318266   5.763   1.043  10.309  0.4593 -0.0983 -0.7572
  163SOPE   H3R18267   5.682   1.099  10.362  0.7567 -2.8453  2.9401
  163SOPE   H3S18268   5.721   0.988  10.222 -0.7379 -0.0764 -0.2134
  163SOPE   C2418269   5.887   1.130  10.271  0.2898 -0.5718 -0.1419
  163SOPE   H4R18270   5.930   1.172  10.364 -0.1187  1.0671 -0.6682
  163SOPE   H4S18271   5.963   1.064  10.223  0.2983 -1.6158  1.2240
  163SOPE   C2518272   5.851   1.244  10.176  0.1008 -0.1315  0.4816
  163SOPE   H5R18273   5.751   1.288  10.197 -1.4007 -2.3950 -1.4240
  163SOPE   H5S18274   5.928   1.324  10.169 -0.1918  0.3080  1.8991
  163SOPE   C2618275   5.812   1.196  10.027  0.8414  0.6465 -0.7419
  163SOPE   H6R18276   5.881   1.120   9.986 -1.7030 -0.5867 -3.0091
  163SOPE   H6S18277   5.719   1.136  10.034 -0.3086  2.4746  1.1887
  163SOPE   C2718278   5.777   1.305   9.930 -0.5687  0.2009 -0.6705
  163SOPE   H7R18279   5.694   1.365   9.972  0.4872  1.3294 -0.1164
  163SOPE   H7S18280   5.868   1.370   9.929  0.9240 -1.7858 -1.1319
  163SOPE   C2818281   5.757   1.255   9.792 -0.0438  0.0124 -0.2533
  163SOPE   H8R18282   5.661   1.199   9.780  0.2211 -0.5775  0.3342
  163SOPE   H8S18283   5.735   1.338   9.722  0.0735 -0.2758 -0.6369
  163SOPE   C2918284   5.865   1.177   9.730  0.4119  0.1995 -0.4558
  163SOPE   H9118285   5.962   1.227   9.747  0.0718  0.3897  1.0129
  163SOPE  C21018286   5.856   1.066   9.650 -0.0640  0.2797  0.2946
  163SOPE  H10118287   5.950   1.021   9.616  0.2517  0.6765  0.6327
  163SOPE  C21118288   5.725   0.999   9.625 -0.1101  0.0628 -0.4477
  163SOPE  H11R18289   5.652   0.994   9.708 -0.6057 -1.0132 -0.9212
  163SOPE  H11S18290   5.756   0.899   9.588  1.0087 -0.5770  2.0325
  163SOPE  C21218291   5.664   1.061   9.506 -0.3964 -0.1032 -0.5136
  163SOPE  H12R18292   5.625   1.163   9.526  1.4136  0.5955 -0.3695
  163SOPE  H12S18293   5.578   0.998   9.473  0.3217 -1.0699 -0.5812
  163SOPE  C21318294   5.749   1.057   9.378  0.2264 -0.2289  0.4512
  163SOPE  H13R18295   5.816   0.969   9.375  1.4646  0.7125 -0.6914
  163SOPE  H13S18296   5.810   1.150   9.379 -1.1817  0.7219  0.3247
  163SOPE  C21418297   5.685   1.073   9.245  0.8356 -0.1573 -0.1364
  163SOPE  H14R18298   5.636   1.173   9.254  0.9773 -0.2456  2.6290
  163SOPE  H14S18299   5.607   0.995   9.239  0.2597  0.2536  1.4720
  163SOPE  C21518300   5.773   1.065   9.124  0.4169  0.2432 -0.2939
  163SOPE  H15R18301   5.802   0.959   9.107 -1.7903 -0.0676 -2.6264
  163SOPE  H15S18302   5.861   1.133   9.124  0.4951  0.1436 -0.5693
  163SOPE  C21618303   5.708   1.119   9.001 -0.5250 -0.4393 -0.5696
  163SOPE  H16R18304   5.671   1.221   9.024 -0.0883 -0.3347 -0.3153
  163SOPE  H16S18305   5.617   1.059   8.979 -1.4010 -0.9515  3.6329
  163SOPE  C21718306   5.798   1.125   8.879  0.1348  0.7622  0.2535
  163SOPE  H17R18307   5.820   1.024   8.838  0.3409  0.6309  0.6881
  163SOPE  H17S18308   5.898   1.163   8.908  0.8623 -1.4827  0.9148
  163SOPE  C21818309   5.744   1.208   8.763 -0.1329  0.1058  0.9761
  163SOPE  H18R18310   5.646   1.173   8.725 -0.2840  2.1689 -0.7352
  163SOPE  H18S18311   5.802   1.202   8.668 -1.4744  0.5018  0.1060
  163SOPE  H18T18312   5.739   1.314   8.795  0.1466  0.6585 -0.6828
  163SOPE   C3318313   5.404   0.838  10.077  0.0057 -0.0828 -0.2715
  163SOPE   H3X18314   5.346   0.744  10.071  1.9001 -1.3256  0.0426
  163SOPE   H3Y18315   5.507   0.799  10.095  0.5111  1.3771  0.1253
  163SOPE   C3418316   5.420   0.888   9.938  0.3257 -0.4441  0.0844
  163SOPE   H4X18317   5.502   0.963   9.929 -0.9723  0.8706 -1.4965
  163SOPE   H4Y18318   5.331   0.945   9.904  2.9897  2.9607 -1.9714
  163SOPE   C3518319   5.447   0.768   9.849  0.8172 -0.7441  0.1021
  163SOPE   H5X18320   5.389   0.675   9.868  0.9312 -1.1469 -1.3711
  163SOPE   H5Y18321   5.554   0.744   9.869  0.8834  1.3823  2.8968
  163SOPE   C3618322   5.426   0.793   9.692  0.2123  0.4748  0.2364
  163SOPE   H6X18323   5.486   0.883   9.670  0.3013  0.0306 -1.5239
  163SOPE   H6Y18324   5.318   0.814   9.675  0.3255  0.1626 -0.9359
  163SOPE   C3718325   5.491   0.685   9.609 -0.0025 -0.0767 -0.1897
  163SOPE   H7X18326   5.430   0.593   9.621  0.6305 -0.6525 -1.2590
  163SOPE   H7Y18327   5.594   0.663   9.643 -0.0028 -1.0472 -0.7734
  163SOPE   C3818328   5.501   0.706   9.453  0.1390 -0.3460  0.5432
  163SOPE   H8X18329   5.550   0.615   9.412  0.2312 -0.1522  0.2221
  163SOPE   H8Y18330   5.572   0.790   9.437  1.0161 -0.7495  2.1183
  163SOPE   C3918331   5.371   0.738   9.376  0.2445 -0.2169 -0.2985
  163SOPE   H9X18332   5.333   0.835   9.416  0.1533 -1.2993  2.4555
  163SOPE   H9Y18333   5.286   0.667   9.382  0.0696 -0.1433 -1.5352
  163SOPE  C31018334   5.393   0.753   9.228 -0.0105  0.1386 -0.6489
  163SOPE  H10X18335   5.443   0.660   9.194  3.8027  2.1595 -1.1340
  163SOPE  H10Y18336   5.473   0.829   9.209  0.4127  0.0785  0.7516
  163SOPE  C31118337   5.264   0.784   9.159  0.2198 -0.4713  0.2612
  163SOPE  H11X18338   5.222   0.877   9.202 -2.1080 -1.1089 -0.4897
  163SOPE  H11Y18339   5.185   0.711   9.185 -0.6258  0.9967  1.9890
  163SOPE  C31218340   5.271   0.799   9.006 -0.2036  0.4796  0.1085
  163SOPE  H12X18341   5.181   0.844   8.959 -0.7872 -2.5172 -1.9372
  163SOPE  H12Y18342   5.304   0.705   8.957  1.0721 -0.6439  2.9143
  163SOPE  C31318343   5.357   0.914   8.961 -0.4449  0.1505  0.9742
  163SOPE  H13X18344   5.455   0.900   9.012 -0.6946 -1.7922  0.9742
  163SOPE  H13Y18345   5.312   1.013   8.983 -2.2164  0.1283 -2.0173
  163SOPE  C31418346   5.394   0.917   8.813 -1.0580 -0.9191  0.2727
  163SOPE  H14X18347   5.409   1.017   8.769 -3.5288 -0.7655 -0.3717
  163SOPE  H14Y18348   5.310   0.866   8.761 -1.3129 -0.4179  0.1854
  163SOPE  C31518349   5.530   0.840   8.786  0.4728 -0.5704 -0.2043
  163SOPE  H15X18350   5.534   0.750   8.852 -1.8881  0.8285  2.0295
  163SOPE  H15Y18351   5.618   0.898   8.822 -0.3897  1.1273 -0.7441
  163SOPE  C31618352   5.539   0.791   8.641  0.2962  0.0744  0.0038
  163SOPE  H16X18353   5.462   0.719   8.604  1.3537 -0.3861 -1.4217
  163SOPE  H16Y18354   5.632   0.731   8.632 -0.1217 -0.9038  1.6979
  163SOPE  C31718355   5.562   0.905   8.536 -0.1566  0.4143 -0.1262
  163SOPE  H17X18356   5.635   0.974   8.584  0.1033  0.6819 -0.8738
  163SOPE  H17Y18357   5.477   0.973   8.513  0.7007  0.9312 -2.0042
  163SOPE  C31818358   5.620   0.863   8.404 -0.7139 -0.5854  0.2521
  163SOPE  H18X18359   5.633   0.957   8.347  1.3014 -0.7057  0.4312
  163SOPE  H18Y18360   5.553   0.796   8.347 -1.3269  0.9599 -0.8981
  163SOPE  H18Z18361   5.713   0.803   8.415 -0.4486 -0.7562 -2.3180
  164SOPE     N18362   2.223   5.761  10.942  0.3145 -0.2825 -0.1331
  164SOPE   HN118363   2.281   5.793  11.022 -1.8775 -1.0514  1.8984
  164SOPE   HN218364   2.126   5.771  10.977  0.4304 -1.5377  0.6154
  164SOPE   HN318365   2.239   5.658  10.932  1.3017 -0.0512 -1.0681
  164SOPE   C1218366   2.229   5.842  10.814 -0.4618  0.4828 -0.0703
  164SOPE  H12A18367   2.156   5.788  10.750 -1.3148  1.2484  0.2318
  164SOPE  H12B18368   2.332   5.831  10.775 -0.8755 -2.1980 -0.5829
  164SOPE   C1118369   2.187   5.989  10.838  0.0834  0.3053 -0.3225
  164SOPE  H11A18370   2.196   6.041  10.740  1.0908 -0.1495 -0.4860
  164SOPE  H11B18371   2.264   6.045  10.894  0.3059 -0.5027  0.2006
  164SOPE     P18372   2.000   6.133  10.938  0.2577  0.3945  0.4506
  164SOPE   O1318373   2.063   6.177  11.067 -0.2912  0.2098 -0.6452
  164SOPE   O1418374   1.853   6.120  10.936 -0.2712 -0.5171 -0.5185
  164SOPE   O1218375   2.065   6.000  10.893  0.2278 -0.1127 -0.0103
  164SOPE   O1118376   2.050   6.227  10.828  0.0856  0.2311  0.5268
  164SOPE    C118377   1.972   6.301  10.735  0.0678  0.4245  0.1731
  164SOPE    HA18378   1.998   6.409  10.729  2.4003 -0.1300 -1.2116
  164SOPE    HB18379   1.866   6.281  10.759  1.1869 -1.7715  4.1289
  164SOPE    C218380   1.989   6.232  10.592  0.2879 -0.0568  0.7238
  164SOPE    HS18381   1.977   6.123  10.613 -1.7750 -0.0468 -0.2098
  164SOPE   O2118382   2.118   6.268  10.536  0.1634  0.3428 -0.4706
  164SOPE   C2118383   2.183   6.180  10.461  0.7677  0.2739 -0.5383
  164SOPE   O2218384   2.149   6.064  10.438  0.0888  0.4309 -0.2371
  164SOPE   C2218385   2.302   6.254  10.404 -0.6572 -0.0186  0.0891
  164SOPE   H2R18386   2.403   6.216  10.432 -0.4179  1.2536  1.0406
  164SOPE   H2S18387   2.297   6.360  10.434 -1.7935  0.0955 -0.4634
  164SOPE    C318388   1.869   6.275  10.500  0.1134  0.0620 -0.2406
  164SOPE    HX18389   1.882   6.385  10.498 -0.0894  0.1053  0.6404
  164SOPE    HY18390   1.773   6.254  10.552  0.3318 -1.3312 -0.3649
  164SOPE   O3118391   1.864   6.220  10.364 -0.0492  0.2634 -0.0074
  164SOPE   C3118392   1.814   6.101  10.358  0.5061  0.0753  0.8611
  164SOPE   O3218393   1.766   6.031  10.448  0.2044 -0.0013 -0.2366
  164SOPE   C3218394   1.821   6.043  10.215 -0.2639  0.3743 -0.0631
  164SOPE   H2X18395   1.915   5.984  10.214 -1.3180 -1.4267  1.2217
  164SOPE   H2Y18396   1.818   6.131  10.147  1.5274  0.5069 -0.0021
  164SOPE   C2318397   2.299   6.250  10.250 -0.0042  0.2051 -0.2416
  164SOPE   H3R18398   2.200   6.287  10.219 -0.2518  0.5349  0.9029
  164SOPE   H3S18399   2.310   6.157  10.190 -0.7777  0.7035 -1.1758
  164SOPE   C2418400   2.415   6.334  10.201  0.1272 -0.0169 -0.4152
  164SOPE   H4R18401   2.376   6.434  10.227  0.5322 -0.0338  0.2844
  164SOPE   H4S18402   2.506   6.309  10.260  0.7730  2.1823 -0.3996
  164SOPE   C2518403   2.451   6.334  10.054 -0.9383 -0.6232  0.0561
  164SOPE   H5R18404   2.527   6.415  10.047 -1.7903  0.2661  0.6950
  164SOPE   H5S18405   2.491   6.238  10.015  0.9516 -0.5530  1.6382
  164SOPE   C2618406   2.329   6.363   9.961  0.4636  0.5500 -0.0534
  164SOPE   H6R18407   2.268   6.270   9.967  1.7348 -0.3030  0.0191
  164SOPE   H6S18408   2.273   6.447  10.008  1.1415  0.0074  1.8088
  164SOPE   C2718409   2.352   6.400   9.816  0.0982 -0.4465 -0.5069
  164SOPE   H7R18410   2.271   6.463   9.772 -1.5173 -2.2341 -0.2065
  164SOPE   H7S18411   2.435   6.473   9.827 -0.7164  0.3546  0.6014
  164SOPE   C2818412   2.386   6.279   9.730  0.5242  0.6834 -0.2597
  164SOPE   H8R18413   2.466   6.216   9.773  0.1676 -0.1136 -0.7345
  164SOPE   H8S18414   2.303   6.213   9.697  3.0085 -1.7808 -2.1489
  164SOPE   C2918415   2.461   6.334   9.615  0.6060  0.1361 -0.0785
  164SOPE   H9118416   2.558   6.381   9.641  0.1164 -0.1414  2.4759
  164SOPE  C21018417   2.420   6.338   9.486 -0.4377 -0.2621  0.3949
  164SOPE  H10118418   2.487   6.388   9.414  1.2160 -1.2005  1.2257
  164SOPE  C21118419   2.284   6.299   9.424 -0.5786  0.3042  0.7602
  164SOPE  H11R18420   2.251   6.378   9.352  0.2971 -0.4972 -0.5718
  164SOPE  H11S18421   2.205   6.284   9.500  1.0437  0.7884  2.6138
  164SOPE  C21218422   2.292   6.173   9.336 -0.5916 -0.6280 -0.1223
  164SOPE  H12R18423   2.194   6.143   9.291 -0.8082 -0.6070  0.3388
  164SOPE  H12S18424   2.316   6.091   9.407  1.2414 -0.7773 -0.8619
  164SOPE  C21318425   2.407   6.189   9.225  0.8620  0.7720 -0.7038
  164SOPE  H13R18426   2.433   6.085   9.196  0.4289 -0.0119  1.5177
  164SOPE  H13S18427   2.496   6.238   9.270 -1.8085  1.8701  4.0593
  164SOPE  C21418428   2.363   6.272   9.105  0.0006  0.2498  0.1564
  164SOPE  H14R18429   2.345   6.376   9.137 -0.7070 -0.1810  1.2097
  164SOPE  H14S18430   2.258   6.240   9.086 -0.6328  1.0576  2.0374
  164SOPE  C21518431   2.448   6.250   8.980  0.0118  0.6293  0.6533
  164SOPE  H15R18432   2.497   6.151   8.975  0.9172  1.0919  0.1575
  164SOPE  H15S18433   2.539   6.313   8.970  2.5727 -2.6160  1.7374
  164SOPE  C21618434   2.354   6.252   8.856  0.5295  0.0185  0.9673
  164SOPE  H16R18435   2.286   6.166   8.868  1.1514 -0.5472  0.5091
  164SOPE  H16S18436   2.427   6.240   8.773 -0.4554 -0.4608  0.1569
  164SOPE  C21718437   2.284   6.381   8.838  0.1945  0.6627 -0.0764
  164SOPE  H17R18438   2.230   6.414   8.929 -1.7925  1.3143 -1.4035
  164SOPE  H17S18439   2.208   6.358   8.760 -0.0065 -0.7696  0.5093
  164SOPE  C21818440   2.366   6.498   8.788 -0.0402  0.4172 -0.4829
  164SOPE  H18R18441   2.450   6.524   8.856 -1.6638  0.2429  1.6753
  164SOPE  H18S18442   2.300   6.587   8.784 -2.0265 -0.9137  1.0614
  164SOPE  H18T18443   2.415   6.473   8.691  2.3175 -0.3707  0.8284
  164SOPE   C3318444   1.707   5.947  10.185 -0.3788 -0.3308 -0.3292
  164SOPE   H3X18445   1.608   5.997  10.191 -0.9333 -1.1258 -1.9778
  164SOPE   H3Y18446   1.709   5.873  10.268  0.0738  0.1507  0.0906
  164SOPE   C3418447   1.718   5.878  10.046 -0.4859 -0.6977 -0.8902
  164SOPE   H4X18448   1.662   5.783  10.036  0.6747 -1.5095  0.0232
  164SOPE   H4Y18449   1.823   5.850  10.021 -1.3306 -3.4050 -1.6935
  164SOPE   C3518450   1.666   5.979   9.940  0.6514  0.3462  0.1445
  164SOPE   H5X18451   1.731   6.069   9.935  2.3442 -0.7451  1.2280
  164SOPE   H5Y18452   1.567   6.025   9.963  0.5184  0.5764 -0.8272
  164SOPE   C3618453   1.648   5.922   9.804 -0.7111 -0.3209 -0.4015
  164SOPE   H6X18454   1.593   5.826   9.813  2.6926 -2.2584  1.8591
  164SOPE   H6Y18455   1.744   5.882   9.763 -1.3974 -0.9504 -1.4335
  164SOPE   C3718456   1.588   6.022   9.713 -0.0273  0.3426 -0.4314
  164SOPE   H7X18457   1.648   6.112   9.734 -0.6304  1.0110 -1.4838
  164SOPE   H7Y18458   1.487   6.053   9.747  0.1831  1.9238 -1.1781
  164SOPE   C3818459   1.580   5.988   9.565 -0.1050  0.3199  0.4425
  164SOPE   H8X18460   1.686   5.988   9.533  0.6847  0.9572  2.8500
  164SOPE   H8Y18461   1.539   6.071   9.504  0.6712  0.0795 -0.4244
  164SOPE   C3918462   1.515   5.853   9.536 -0.4267 -0.3398  0.1072
  164SOPE   H9X18463   1.410   5.837   9.569 -0.0217 -0.5445  1.3381
  164SOPE   H9Y18464   1.582   5.771   9.569  1.0537 -0.3568 -2.6183
  164SOPE  C31018465   1.512   5.837   9.384  0.6744 -1.2807 -0.4482
  164SOPE  H10X18466   1.598   5.785   9.336  0.7649 -1.8895  0.3630
  164SOPE  H10Y18467   1.512   5.941   9.343 -2.9947 -0.2415  1.8145
  164SOPE  C31118468   1.399   5.746   9.333  0.7527 -0.1275 -0.2621
  164SOPE  H11X18469   1.304   5.793   9.366  1.2614 -1.2795  3.1757
  164SOPE  H11Y18470   1.397   5.647   9.382  0.2671  0.6602  1.3549
  164SOPE  C31218471   1.398   5.722   9.181  0.8356 -0.1656 -0.1567
  164SOPE  H12X18472   1.321   5.647   9.156  0.6288 -0.7581  2.0532
  164SOPE  H12Y18473   1.495   5.672   9.159  1.6420  1.1582  0.2569
  164SOPE  C31318474   1.400   5.846   9.100  0.2304  0.1945  1.2978
  164SOPE  H13X18475   1.484   5.910   9.134  2.0842 -1.6047  0.2861
  164SOPE  H13Y18476   1.309   5.901   9.133 -1.3366 -0.4163 -1.6212
  164SOPE  C31418477   1.415   5.836   8.942 -0.5465 -1.3049 -0.0091
  164SOPE  H14X18478   1.516   5.790   8.933  0.7737  1.2352  0.6435
  164SOPE  H14Y18479   1.413   5.940   8.901 -2.2448 -0.1846  2.6681
  164SOPE  C31518480   1.312   5.758   8.869  0.4584 -0.6011 -0.3703
  164SOPE  H15X18481   1.216   5.814   8.873  0.8520  0.0570 -0.1273
  164SOPE  H15Y18482   1.291   5.659   8.915  1.7486 -0.7443 -0.0452
  164SOPE  C31618483   1.360   5.736   8.719  0.0180 -0.5030  0.1490
  164SOPE  H16X18484   1.455   5.679   8.724  0.9891  0.7206 -2.3222
  164SOPE  H16Y18485   1.396   5.835   8.683  0.1065  0.1654  2.0100
  164SOPE  C31718486   1.259   5.675   8.633 -0.0172  0.1964  0.2235
  164SOPE  H17X18487   1.185   5.751   8.599  1.5124  0.5775 -2.6009
  164SOPE  H17Y18488   1.214   5.587   8.683  0.6451 -0.8433 -0.9388
  164SOPE  C31818489   1.316   5.612   8.503  0.0392  0.2710 -0.7545
  164SOPE  H18X18490   1.358   5.516   8.539 -2.6617 -1.2174 -1.3008
  164SOPE  H18Y18491   1.401   5.669   8.460  3.7324 -1.4841  3.4201
  164SOPE  H18Z18492   1.226   5.600   8.439 -1.4190 -0.7273  1.3666
  165SOPE     N18493   1.891   0.002  10.881  0.4461  0.0929  0.3413
  165SOPE   HN118494   1.841   0.083  10.921 -3.0960 -0.1895 -2.8809
  165SOPE   HN218495   1.831  -0.080  10.903 -1.9522  0.8470 -2.6131
  165SOPE   HN318496   1.983  -0.001  10.929  0.6500  1.1997  0.0438
  165SOPE   C1218497   1.901   0.021  10.739 -0.6119  0.0424  0.1875
  165SOPE  H12A18498   1.992   0.081  10.717  0.2535 -1.1462  0.4098
  165SOPE  H12B18499   1.808   0.071  10.706  0.6518  2.0366 -0.5872
  165SOPE   C1118500   1.908  -0.111  10.665 -0.3146  1.0343  0.2848
  165SOPE  H11A18501   2.009  -0.157  10.671 -1.4291 -1.6196  0.2455
  165SOPE  H11B18502   1.890  -0.085  10.559 -2.6218 -0.1684  0.3133
  165SOPE     P18503   1.656  -0.202  10.697 -0.6575 -0.2274  0.1949
  165SOPE   O1318504   1.615  -0.132  10.816  0.3615  0.0385 -0.2758
  165SOPE   O1418505   1.598  -0.331  10.671 -0.6778 -0.2970  0.4640
  165SOPE   O1218506   1.818  -0.216  10.712  0.0521  0.5925 -0.1898
  165SOPE   O1118507   1.635  -0.107  10.568 -0.1634  0.5929  0.0699
  165SOPE    C118508   1.602  -0.152  10.435 -0.0057 -0.4890  0.8271
  165SOPE    HA18509   1.651  -0.251  10.418 -0.8191 -1.3512  3.0853
  165SOPE    HB18510   1.652  -0.087  10.361 -0.2821  2.6479  3.1835
  165SOPE    C218511   1.452  -0.159  10.409 -0.5523 -0.9162 -0.5240
  165SOPE    HS18512   1.412  -0.240  10.475  1.8751 -0.5679  1.5262
  165SOPE   O2118513   1.403  -0.187  10.275 -0.4975 -0.5716 -0.0540
  165SOPE   C2118514   1.444  -0.301  10.222  0.2502 -0.2100 -0.7255
  165SOPE   O2218515   1.512  -0.385  10.280 -0.0037  0.0186 -0.2222
  165SOPE   C2218516   1.382  -0.330  10.093 -0.0449  0.1002  0.2402
  165SOPE   H2R18517   1.352  -0.231  10.053  0.6738  0.1942 -0.0861
  165SOPE   H2S18518   1.290  -0.390  10.110 -0.2699  1.0785  2.8631
  165SOPE    C318519   1.394  -0.022  10.457 -0.1276 -0.5099 -0.1556
  165SOPE    HX18520   1.449   0.054  10.397  0.7623  0.1873  1.4762
  165SOPE    HY18521   1.413  -0.006  10.565 -1.0082  1.3528 -0.2316
  165SOPE   O3118522   1.250  -0.021  10.433  0.6775  0.2902  0.0193
  165SOPE   C3118523   1.175  -0.085  10.528  0.2171  0.0583 -0.1310
  165SOPE   O3218524   1.214  -0.116  10.640  0.4390 -0.0251 -0.0273
  165SOPE   C3218525   1.045  -0.133  10.472  0.0920  0.2941 -0.1196
  165SOPE   H2X18526   0.985  -0.171  10.558  0.0427 -0.0256 -0.2960
  165SOPE   H2Y18527   1.058  -0.225  10.412  1.7213 -0.9646  2.0318
  165SOPE   C2318528   1.471  -0.394   9.987 -0.3257  0.8307 -0.1207
  165SOPE   H3R18529   1.496  -0.493  10.030 -0.6010  0.4457 -0.8281
  165SOPE   H3S18530   1.554  -0.321   9.973 -1.5464  2.0781 -1.2076
  165SOPE   C2418531   1.397  -0.394   9.849 -0.2719 -0.3539 -0.2193
  165SOPE   H4R18532   1.319  -0.471   9.868  0.9204 -0.7222  4.2316
  165SOPE   H4S18533   1.345  -0.299   9.826 -1.6061 -1.1380 -0.6025
  165SOPE   C2518534   1.480  -0.418   9.726  0.7469 -0.3426 -0.1635
  165SOPE   H5R18535   1.557  -0.338   9.726 -0.4515  0.9181  2.3488
  165SOPE   H5S18536   1.537  -0.511   9.748 -1.7356 -2.0914 -0.6890
  165SOPE   C2618537   1.400  -0.427   9.594 -0.8572  0.1603  0.3260
  165SOPE   H6R18538   1.346  -0.333   9.568  1.0483  0.9977 -0.8285
  165SOPE   H6S18539   1.469  -0.451   9.511 -1.0185  0.8530 -0.0160
  165SOPE   C2718540   1.293  -0.539   9.586  0.0538 -0.1162  0.4267
  165SOPE   H7R18541   1.336  -0.638   9.615 -0.4928 -1.0312 -1.6674
  165SOPE   H7S18542   1.202  -0.514   9.645 -0.7589  0.3501 -0.9928
  165SOPE   C2818543   1.222  -0.561   9.445 -0.0055 -0.1036 -0.2087
  165SOPE   H8R18544   1.121  -0.599   9.473  0.1184 -0.2172  0.0854
  165SOPE   H8S18545   1.194  -0.466   9.394  1.9260  0.0147 -1.1318
  165SOPE   C2918546   1.297  -0.658   9.359  0.3487  0.0243 -0.0291
  165SOPE   H9118547   1.304  -0.765   9.384 -1.2374  0.4605  2.5919
  165SOPE  C21018548   1.359  -0.618   9.242  0.1855  0.3412  0.4335
  165SOPE  H10118549   1.407  -0.697   9.183  1.3017  1.1155  0.2749
  165SOPE  C21118550   1.348  -0.486   9.168 -0.2053  0.1061 -0.5194
  165SOPE  H11R18551   1.415  -0.411   9.214 -2.6881  2.9759 -1.2909
  165SOPE  H11S18552   1.248  -0.440   9.184 -0.2884 -0.1210 -0.3802
  165SOPE  C21218553   1.358  -0.493   9.016 -0.6033  0.0445  0.4328
  165SOPE  H12R18554   1.456  -0.533   8.983  0.5596  2.4734  0.7425
  165SOPE  H12S18555   1.355  -0.387   8.982 -0.5783  0.1401  0.7273
  165SOPE  C21318556   1.246  -0.578   8.957  0.1488  0.2532 -0.7195
  165SOPE  H13R18557   1.145  -0.543   8.987  0.7523 -0.9607  3.1904
  165SOPE  H13S18558   1.254  -0.681   8.997 -0.2774  0.1230 -0.9643
  165SOPE  C21418559   1.247  -0.576   8.806 -0.0826 -0.6238  0.3803
  165SOPE  H14R18560   1.353  -0.596   8.777 -0.7298 -3.1576 -0.4961
  165SOPE  H14S18561   1.227  -0.470   8.778  3.0013  0.3989  1.5812
  165SOPE  C21518562   1.162  -0.687   8.740  0.0945  0.1451 -0.1813
  165SOPE  H15R18563   1.204  -0.788   8.759 -1.8345 -0.3519  2.0398
  165SOPE  H15S18564   1.169  -0.683   8.629  0.8717 -5.2674 -0.5923
  165SOPE  C21618565   1.019  -0.687   8.790  0.1357  0.6827  0.2474
  165SOPE  H16R18566   0.980  -0.584   8.771 -0.5884  0.1008 -1.6389
  165SOPE  H16S18567   1.014  -0.704   8.899  0.2950 -0.8355  0.0409
  165SOPE  C21718568   0.932  -0.789   8.718  0.2007  0.4944 -0.5201
  165SOPE  H17R18569   0.835  -0.799   8.771  0.9231  0.5351  0.8575
  165SOPE  H17S18570   0.984  -0.887   8.722 -1.3352 -0.3550 -0.7751
  165SOPE  C21818571   0.889  -0.755   8.574 -0.4738  0.0282  0.0803
  165SOPE  H18R18572   0.827  -0.663   8.577  1.4639  1.3857  3.4827
  165SOPE  H18S18573   0.824  -0.839   8.542 -0.7369  0.0387  0.5844
  165SOPE  H18T18574   0.982  -0.751   8.513  0.9824 -2.7381  1.8682
  165SOPE   C3318575   0.972  -0.021  10.396  1.0249  1.0416  0.1634
  165SOPE   H3X18576   0.987   0.074  10.452 -0.8033  1.7163 -0.4261
  165SOPE   H3Y18577   0.863  -0.042  10.401  1.2919 -0.9370 -1.1140
  165SOPE   C3418578   1.012   0.009  10.252  0.1405  0.6451  0.4457
  165SOPE   H4X18579   1.113   0.055  10.253  0.7749 -0.6964  1.1222
  165SOPE   H4Y18580   0.935   0.077  10.210 -1.3098  0.3094  2.4083
  165SOPE   C3518581   1.027  -0.120  10.158  0.4095  0.4810  0.3438
  165SOPE   H5X18582   0.947  -0.196  10.175  0.3629  0.6910  1.1238
  165SOPE   H5Y18583   1.123  -0.168  10.186  0.4820 -0.0130 -0.7110
  165SOPE   C3618584   1.024  -0.078  10.014  0.0810  0.2233  1.0587
  165SOPE   H6X18585   1.109  -0.010   9.993  2.0556 -2.5065 -0.5532
  165SOPE   H6Y18586   0.928  -0.025   9.999  0.5341  0.2039 -3.4001
  165SOPE   C3718587   1.022  -0.192   9.911  0.3361 -0.2829  0.6180
  165SOPE   H7X18588   0.928  -0.249   9.922 -1.0758  1.9347  0.7189
  165SOPE   H7Y18589   1.115  -0.251   9.923  0.5784  0.2811  1.6032
  165SOPE   C3818590   1.027  -0.127   9.776  0.6945  0.2203 -0.2997
  165SOPE   H8X18591   1.107  -0.050   9.788  1.4132 -0.9150  3.5694
  165SOPE   H8Y18592   0.928  -0.084   9.748  0.2915  0.6929  1.7199
  165SOPE   C3918593   1.080  -0.222   9.665 -0.6965  0.1044 -0.2535
  165SOPE   H9X18594   0.997  -0.293   9.649 -1.1398  1.0491 -2.4933
  165SOPE   H9Y18595   1.172  -0.275   9.699 -1.8354 -1.7972  0.0020
  165SOPE  C31018596   1.125  -0.146   9.540  0.4475  0.0169 -0.1146
  165SOPE  H10X18597   1.158  -0.214   9.458 -1.1425 -0.0736 -0.7232
  165SOPE  H10Y18598   1.211  -0.079   9.557  3.1745 -2.7745 -1.8750
  165SOPE  C31118599   1.012  -0.065   9.475 -0.6246  0.2031 -0.1715
  165SOPE  H11X18600   0.980   0.015   9.544  1.7773 -0.2522  1.6221
  165SOPE  H11Y18601   0.916  -0.120   9.466 -1.4706  1.4355  0.8934
  165SOPE  C31218602   1.058  -0.003   9.335  0.1746  0.3781  0.3531
  165SOPE  H12X18603   1.087  -0.076   9.255  0.1907 -0.1890  0.8737
  165SOPE  H12Y18604   1.149   0.048   9.373 -1.5485  3.9293  0.1251
  165SOPE  C31318605   0.961   0.106   9.287 -0.1172 -0.2970  0.3461
  165SOPE  H13X18606   0.949   0.179   9.369  2.0950  1.5966 -0.8885
  165SOPE  H13Y18607   0.871   0.048   9.256 -0.5911 -0.6796  2.3060
  165SOPE  C31418608   1.018   0.185   9.169 -0.1998 -0.1401 -0.4424
  165SOPE  H14X18609   1.073   0.106   9.113 -0.9345 -2.0805  1.4474
  165SOPE  H14Y18610   1.092   0.265   9.192  0.4969 -0.1912 -2.3422
  165SOPE  C31518611   0.908   0.237   9.076  0.1590  0.5982  0.1913
  165SOPE  H15X18612   0.848   0.313   9.130  0.3849  0.6578  0.3631
  165SOPE  H15Y18613   0.826   0.170   9.043  0.5717  0.8741 -1.4489
  165SOPE  C31618614   0.966   0.289   8.945  0.6934  0.2527  0.4540
  165SOPE  H16X18615   1.000   0.197   8.892 -2.9461 -1.7128  1.2028
  165SOPE  H16Y18616   1.056   0.347   8.973  0.9269 -0.5264  1.3377
  165SOPE  C31718617   0.857   0.357   8.855  0.2525  0.0391 -0.1879
  165SOPE  H17X18618   0.838   0.460   8.892 -1.5716 -0.3810  0.1374
  165SOPE  H17Y18619   0.772   0.289   8.878  0.4378 -0.2768 -0.4273
  165SOPE  C31818620   0.894   0.369   8.706 -0.3369 -0.1492 -0.6095
  165SOPE  H18X18621   0.858   0.287   8.641  1.4828 -1.6942  0.2173
  165SOPE  H18Y18622   1.000   0.384   8.677 -0.3416 -1.1816 -1.2199
  165SOPE  H18Z18623   0.843   0.457   8.662 -1.0298 -0.1419  0.1914
  166SOPE     N18624   2.989   1.032  10.905 -0.5351 -0.0744  0.4458
  166SOPE   HN118625   2.944   1.118  10.942 -1.4128  0.1082 -0.9684
  166SOPE   HN218626   3.057   1.061  10.832 -1.7610 -1.6311 -1.4203
  166SOPE   HN318627   2.911   0.979  10.860 -1.5766  1.5906  0.2238
  166SOPE   C1218628   3.041   0.951  11.022 -0.3180 -1.3096 -0.4449
  166SOPE  H12A18629   2.960   0.922  11.092  0.3660 -1.4409  0.3050
  166SOPE  H12B18630   3.111   1.014  11.082 -0.3263 -1.6517 -0.0722
  166SOPE   C1118631   3.118   0.824  10.976  0.4949 -0.2139  0.6270
  166SOPE  H11A18632   3.047   0.746  10.941 -1.4527  1.5330  0.4868
  166SOPE  H11B18633   3.183   0.771  11.050 -0.1976 -3.0724 -0.6557
  166SOPE     P18634   3.217   0.789  10.735 -0.2591 -0.2129  0.0587
  166SOPE   O1318635   3.355   0.784  10.679 -0.0143  0.4318  0.2380
  166SOPE   O1418636   3.126   0.873  10.657 -0.2873  0.0758  0.5235
  166SOPE   O1218637   3.220   0.853  10.880  0.6432 -0.2716  0.9368
  166SOPE   O1118638   3.152   0.645  10.741 -0.3783  0.0164  1.1492
  166SOPE    C118639   3.211   0.539  10.658  0.0246 -0.6101  0.1970
  166SOPE    HA18640   3.178   0.438  10.690 -2.3225  0.9685  3.2350
  166SOPE    HB18641   3.320   0.527  10.676 -0.1203 -2.6000 -0.0848
  166SOPE    C218642   3.169   0.541  10.503  0.3493 -1.0152  0.3312
  166SOPE    HS18643   3.199   0.446  10.455 -0.9337 -0.3435 -1.9283
  166SOPE   O2118644   3.232   0.641  10.422 -0.4637 -0.0346  0.4691
  166SOPE   C2118645   3.360   0.636  10.400  0.1214 -0.2799 -0.5779
  166SOPE   O2218646   3.435   0.557  10.459 -0.0019  0.1806 -0.3028
  166SOPE   C2218647   3.413   0.737  10.300 -0.6812 -0.5369 -0.1105
  166SOPE   H2R18648   3.505   0.771  10.351 -0.9693 -1.8660  1.3775
  166SOPE   H2S18649   3.351   0.829  10.299 -0.5826 -0.4749 -1.2995
  166SOPE    C318650   3.013   0.552  10.488 -0.0357 -0.4480  1.0694
  166SOPE    HX18651   2.983   0.644  10.543 -2.8210 -0.2054 -0.6668
  166SOPE    HY18652   2.958   0.474  10.544 -0.5929 -1.2674 -0.5440
  166SOPE   O3118653   2.981   0.552  10.345  0.1500 -0.2667 -0.4839
  166SOPE   C3118654   2.956   0.425  10.297 -0.4410 -0.0784  0.4543
  166SOPE   O3218655   2.964   0.320  10.360 -0.2795 -0.0145 -0.0542
  166SOPE   C3218656   2.914   0.430  10.152 -0.2843  0.6228  0.4736
  166SOPE   H2X18657   3.009   0.429  10.093 -0.2631  1.2610  0.4962
  166SOPE   H2Y18658   2.863   0.525  10.128 -0.3450  0.6792  0.8276
  166SOPE   C2318659   3.439   0.675  10.160 -0.1426  0.2248 -0.4945
  166SOPE   H3R18660   3.345   0.624  10.128 -0.3031  0.5689 -0.5783
  166SOPE   H3S18661   3.517   0.597  10.168  1.5025  1.7346 -1.3399
  166SOPE   C2418662   3.483   0.780  10.057 -0.0729  0.2514 -0.2834
  166SOPE   H4R18663   3.412   0.866  10.064 -0.2501  0.1361 -0.6577
  166SOPE   H4S18664   3.582   0.821  10.087 -1.4669  2.3939  1.7343
  166SOPE   C2518665   3.488   0.728   9.913  0.2000  0.3003 -0.0837
  166SOPE   H5R18666   3.564   0.648   9.910 -2.2571 -2.1431 -1.6596
  166SOPE   H5S18667   3.391   0.679   9.890  0.8600 -1.4596  0.7190
  166SOPE   C2618668   3.517   0.835   9.804  0.3170  0.3555  0.2020
  166SOPE   H6R18669   3.433   0.906   9.815  0.7557  0.6423  1.9089
  166SOPE   H6S18670   3.607   0.889   9.840  0.8477 -1.2684  1.4801
  166SOPE   C2718671   3.534   0.777   9.668 -0.3890 -0.1744  0.2917
  166SOPE   H7R18672   3.631   0.723   9.669 -1.3234 -1.9702  1.6465
  166SOPE   H7S18673   3.456   0.707   9.630  1.0017 -0.9621 -1.2744
  166SOPE   C2818674   3.558   0.882   9.556  0.0453  0.6634 -0.0245
  166SOPE   H8R18675   3.467   0.946   9.552  0.8716  2.0343  1.7768
  166SOPE   H8S18676   3.640   0.948   9.590  0.1949  0.2331  0.4551
  166SOPE   C2918677   3.585   0.828   9.420 -0.8440 -0.5486 -0.3501
  166SOPE   H9118678   3.691   0.799   9.412 -0.8307 -0.7613  0.4910
  166SOPE  C21018679   3.502   0.821   9.317 -0.8667  0.2096  0.3274
  166SOPE  H10118680   3.544   0.782   9.223  0.2976 -0.0341  0.9226
  166SOPE  C21118681   3.364   0.877   9.314 -0.5425 -1.1254  0.1350
  166SOPE  H11R18682   3.316   0.872   9.414 -0.4774  1.2699  0.3340
  166SOPE  H11S18683   3.296   0.828   9.241 -2.8372  3.4965 -1.1782
  166SOPE  C21218684   3.357   1.022   9.279 -0.6297  0.9879 -0.0490
  166SOPE  H12R18685   3.421   1.073   9.354  1.2313 -1.2226 -0.0423
  166SOPE  H12S18686   3.254   1.056   9.303  0.3978  1.3701  4.9066
  166SOPE  C21318687   3.401   1.064   9.138 -0.2167  0.2895  0.6017
  166SOPE  H13R18688   3.370   0.992   9.060  2.8102  2.3645 -2.8196
  166SOPE  H13S18689   3.511   1.072   9.127 -0.3279 -0.7179 -1.6487
  166SOPE  C21418690   3.346   1.196   9.102 -0.2644  0.4743  0.5595
  166SOPE  H14R18691   3.369   1.256   9.193  0.8853  0.0518  0.5720
  166SOPE  H14S18692   3.237   1.183   9.085 -0.3866  1.5352  0.4387
  166SOPE  C21518693   3.396   1.263   8.969  0.3199  0.1001  0.4620
  166SOPE  H15R18694   3.506   1.276   8.977  0.3431 -0.0048  0.3135
  166SOPE  H15S18695   3.347   1.363   8.970  2.2523  1.1056  2.3563
  166SOPE  C21618696   3.351   1.182   8.840  1.1442 -0.6318 -0.2979
  166SOPE  H16R18697   3.241   1.188   8.854  1.3997  1.1596  1.3987
  166SOPE  H16S18698   3.387   1.077   8.843  1.0229 -0.7101  3.2910
  166SOPE  C21718699   3.399   1.250   8.713 -0.4907  0.1688  0.4401
  166SOPE  H17R18700   3.372   1.358   8.708 -0.4193  0.1557 -0.5814
  166SOPE  H17S18701   3.357   1.210   8.618  1.4051 -1.0162  0.0523
  166SOPE  C21818702   3.555   1.227   8.688  0.4520  0.0963  0.2762
  166SOPE  H18R18703   3.581   1.121   8.708  1.0638  0.4450  1.4073
  166SOPE  H18S18704   3.599   1.296   8.762 -1.5461  0.0011  1.6153
  166SOPE  H18T18705   3.595   1.252   8.587  2.3802 -0.1588  0.9256
  166SOPE   C3318706   2.825   0.308  10.114  0.4762  0.2968  0.5751
  166SOPE   H3X18707   2.739   0.302  10.184  0.3524 -0.2396  0.3856
  166SOPE   H3Y18708   2.876   0.210  10.130 -0.1341 -0.7353 -2.9093
  166SOPE   C3418709   2.769   0.299   9.971  0.0697 -0.0321  0.4723
  166SOPE   H4X18710   2.745   0.403   9.938  0.3345 -0.6468 -1.8547
  166SOPE   H4Y18711   2.675   0.240   9.962 -1.2172  2.1153 -1.4650
  166SOPE   C3518712   2.875   0.233   9.872 -0.1025  0.4454 -1.2689
  166SOPE   H5X18713   2.902   0.132   9.908  3.1951  0.8778 -2.1472
  166SOPE   H5Y18714   2.960   0.305   9.874 -1.1707  1.7854 -1.9609
  166SOPE   C3618715   2.809   0.226   9.734 -1.0395 -0.0306  0.3508
  166SOPE   H6X18716   2.746   0.316   9.716  0.8973  0.9826 -1.8509
  166SOPE   H6Y18717   2.747   0.134   9.730  1.3802 -1.7115 -1.4530
  166SOPE   C3718718   2.900   0.243   9.605 -0.3566  0.1001  0.0168
  166SOPE   H7X18719   2.970   0.156   9.604 -0.8696 -0.3129 -0.3898
  166SOPE   H7Y18720   2.967   0.332   9.603 -0.0386 -0.0611 -3.7133
  166SOPE   C3818721   2.812   0.253   9.477 -1.0166 -0.7170 -0.0441
  166SOPE   H8X18722   2.730   0.323   9.505 -0.0290  0.7489 -0.6711
  166SOPE   H8Y18723   2.765   0.155   9.454  0.8235 -1.3035 -1.5355
  166SOPE   C3918724   2.897   0.302   9.361  0.1778  0.8584  0.0992
  166SOPE   H9X18725   2.989   0.239   9.358 -0.9665 -0.8464 -0.1026
  166SOPE   H9Y18726   2.929   0.408   9.377  1.2223  0.3635  1.5811
  166SOPE  C31018727   2.828   0.297   9.216 -0.5453 -0.3805 -1.1525
  166SOPE  H10X18728   2.879   0.369   9.149 -0.7759  1.1535  0.2278
  166SOPE  H10Y18729   2.724   0.335   9.230 -0.9960 -2.3350  2.0088
  166SOPE  C31118730   2.823   0.169   9.138 -0.8266  0.3444  0.4697
  166SOPE  H11X18731   2.747   0.098   9.177 -0.9620 -0.3893 -1.0512
  166SOPE  H11Y18732   2.919   0.112   9.142  0.4339  2.3612  0.6643
  166SOPE  C31218733   2.789   0.183   8.985  0.0930  0.0382 -0.1434
  166SOPE  H12X18734   2.862   0.240   8.922  0.5855 -3.9915 -3.6971
  166SOPE  H12Y18735   2.695   0.241   8.993 -2.0228 -2.9695 -1.4984
  166SOPE  C31318736   2.761   0.047   8.914 -0.2975  0.2127 -0.8090
  166SOPE  H13X18737   2.672   0.007   8.967 -0.1568  0.0328 -0.7085
  166SOPE  H13Y18738   2.847  -0.023   8.913  0.2410  0.8044  0.9400
  166SOPE  C31418739   2.741   0.054   8.761 -0.3693  0.1868  0.3778
  166SOPE  H14X18740   2.759  -0.048   8.721 -0.6670  0.1751  0.2709
  166SOPE  H14Y18741   2.830   0.107   8.720  0.7434 -0.5377  1.7447
  166SOPE  C31518742   2.603   0.111   8.724  0.1643  0.2897  0.4864
  166SOPE  H15X18743   2.594   0.214   8.766 -0.5091 -0.8944  3.4800
  166SOPE  H15Y18744   2.523   0.052   8.774 -0.1804  0.3554  0.0143
  166SOPE  C31618745   2.579   0.115   8.574  0.2840 -0.1108 -0.3988
  166SOPE  H16X18746   2.637   0.199   8.530 -0.7430  0.3272 -0.9586
  166SOPE  H16Y18747   2.472   0.138   8.555  0.0079 -0.4077  0.7798
  166SOPE  C31718748   2.622  -0.013   8.495  0.0311 -0.3305  0.4734
  166SOPE  H17X18749   2.586  -0.100   8.554 -0.7395 -0.6537 -0.4467
  166SOPE  H17Y18750   2.731   0.006   8.489 -0.2500  1.3482  0.1133
  166SOPE  C31818751   2.560  -0.024   8.355 -0.1997 -0.2531 -0.6188
  166SOPE  H18X18752   2.592  -0.117   8.304  1.1355  0.0822 -0.4158
  166SOPE  H18Y18753   2.584   0.066   8.296 -2.7696 -0.7951 -2.6546
  166SOPE  H18Z18754   2.449  -0.023   8.364 -0.2904 -0.1923 -1.6324
  167SOPE     N18755   4.908   5.020   6.195 -0.4627 -0.1205 -0.0021
  167SOPE   HN118756   4.934   4.954   6.119  0.0544 -0.8288  0.7613
  167SOPE   HN218757   4.822   4.988   6.243 -0.3179  1.7025  1.6076
  167SOPE   HN318758   4.894   5.115   6.158  1.1791  0.0497 -0.2879
  167SOPE   C1218759   5.016   5.008   6.300  0.1159  0.4369 -0.4246
  167SOPE  H12A18760   5.015   4.908   6.350  1.7710  0.1607 -0.8598
  167SOPE  H12B18761   4.996   5.077   6.384  1.9916 -1.2315  1.5071
  167SOPE   C1118762   5.160   5.033   6.231 -0.2851  0.4354 -0.0386
  167SOPE  H11A18763   5.201   4.946   6.175 -2.1790  0.9968 -2.4808
  167SOPE  H11B18764   5.223   5.049   6.321 -0.1949  0.9365 -0.1904
  167SOPE     P18765   5.265   5.256   6.148 -0.0728  0.0600 -0.2343
  167SOPE   O1318766   5.206   5.385   6.101  0.5089 -0.6367 -0.1125
  167SOPE   O1418767   5.390   5.211   6.074  0.1735  0.5520 -0.3684
  167SOPE   O1218768   5.154   5.146   6.145 -0.2016 -0.2827  0.3427
  167SOPE   O1118769   5.292   5.258   6.304 -0.6292 -0.8858  0.5951
  167SOPE    C118770   5.420   5.296   6.360  0.2486 -0.3102  0.4772
  167SOPE    HA18771   5.403   5.324   6.466  0.3146  0.2716  0.3415
  167SOPE    HB18772   5.458   5.387   6.308 -0.9347 -0.5108 -0.7900
  167SOPE    C218773   5.527   5.177   6.361 -0.6263 -0.1667  0.1953
  167SOPE    HS18774   5.545   5.145   6.256  0.8203  1.6246 -0.1502
  167SOPE   O2118775   5.470   5.072   6.435  0.0530 -0.0578  0.1607
  167SOPE   C2118776   5.512   4.951   6.420  0.7562  0.5012 -0.1655
  167SOPE   O2218777   5.604   4.907   6.351  0.2991 -0.9747  0.1683
  167SOPE   C2218778   5.402   4.867   6.489  0.6018 -0.1971  0.1433
  167SOPE   H2R18779   5.326   4.838   6.414 -0.2790 -0.7236  1.2100
  167SOPE   H2S18780   5.349   4.932   6.562  0.9377  1.5849 -1.1289
  167SOPE    C318781   5.668   5.225   6.402 -0.2723 -0.6309 -0.2858
  167SOPE    HX18782   5.697   5.308   6.334  0.5931  1.1153  2.0779
  167SOPE    HY18783   5.735   5.139   6.380  1.5574 -0.1396  2.7513
  167SOPE   O3118784   5.672   5.262   6.545  0.2405  0.0358  0.4071
  167SOPE   C3118785   5.714   5.166   6.630  0.7490 -0.0104 -0.0267
  167SOPE   O3218786   5.746   5.050   6.599 -0.3267 -0.5289 -0.8880
  167SOPE   C3218787   5.727   5.225   6.773  0.6779  0.3863 -0.0010
  167SOPE   H2X18788   5.640   5.292   6.792 -0.2124 -0.5274 -0.7780
  167SOPE   H2Y18789   5.826   5.276   6.773  1.5077 -1.1570 -0.9107
  167SOPE   C2318790   5.448   4.746   6.577 -0.0485  0.6614  0.2666
  167SOPE   H3R18791   5.549   4.708   6.550 -0.4114 -0.4516  0.4290
  167SOPE   H3S18792   5.375   4.664   6.565 -0.3379  1.0485 -0.7380
  167SOPE   C2418793   5.454   4.777   6.731 -0.4998 -0.5454 -0.6375
  167SOPE   H4R18794   5.533   4.852   6.752 -0.5249  0.0753 -2.5645
  167SOPE   H4S18795   5.359   4.825   6.760  0.8489  1.3799  0.8220
  167SOPE   C2518796   5.486   4.647   6.814 -0.3077 -0.3619  0.5410
  167SOPE   H5R18797   5.403   4.583   6.778 -0.5333 -0.5767  1.4198
  167SOPE   H5S18798   5.584   4.605   6.783 -1.2551 -1.9509 -0.5004
  167SOPE   C2618799   5.497   4.668   6.963  0.1737 -0.1342  0.0477
  167SOPE   H6R18800   5.591   4.723   6.983  0.7975 -0.7159 -1.1359
  167SOPE   H6S18801   5.408   4.727   6.992  0.9724  0.9551  0.3532
  167SOPE   C2718802   5.499   4.542   7.053 -0.2834  0.7414  0.1049
  167SOPE   H7R18803   5.402   4.489   7.046 -0.4289  1.0620 -0.4137
  167SOPE   H7S18804   5.569   4.474   7.000 -2.1552 -1.6566  0.5533
  167SOPE   C2818805   5.555   4.554   7.197 -0.4537 -0.7093  0.4346
  167SOPE   H8R18806   5.604   4.463   7.238 -2.0386 -2.0099 -0.4399
  167SOPE   H8S18807   5.625   4.639   7.197 -2.0063  0.6116  0.3810
  167SOPE   C2918808   5.436   4.587   7.286  0.3327  0.4813  0.5285
  167SOPE   H9118809   5.421   4.696   7.285 -0.5054  0.3683 -0.4962
  167SOPE  C21018810   5.366   4.506   7.370  0.6440 -0.1458  0.3734
  167SOPE  H10118811   5.287   4.552   7.430  1.8999  0.0801  1.9161
  167SOPE  C21118812   5.382   4.353   7.368 -0.1572  0.0948  0.4171
  167SOPE  H11R18813   5.485   4.316   7.386  0.7461  1.4600 -1.5638
  167SOPE  H11S18814   5.358   4.317   7.266  1.9191  1.7770 -0.7494
  167SOPE  C21218815   5.297   4.276   7.466 -0.3231  0.1196  0.0050
  167SOPE  H12R18816   5.252   4.185   7.422 -1.5038 -0.3499  2.0647
  167SOPE  H12S18817   5.206   4.339   7.477 -2.6503 -2.9248 -0.4664
  167SOPE  C21318818   5.357   4.258   7.601  1.1492  0.7303 -1.2126
  167SOPE  H13R18819   5.414   4.348   7.633  2.1487 -0.3488  0.1823
  167SOPE  H13S18820   5.438   4.182   7.611 -0.0388 -0.3614  0.9708
  167SOPE  C21418821   5.254   4.227   7.708 -0.0438 -0.2541 -0.0043
  167SOPE  H14R18822   5.201   4.132   7.683  1.2737 -0.8575 -0.6410
  167SOPE  H14S18823   5.177   4.306   7.707  0.1070  0.0044  2.7881
  167SOPE  C21518824   5.310   4.209   7.850  0.3712 -0.0640 -0.4595
  167SOPE  H15R18825   5.341   4.304   7.898  0.5588 -1.1607  1.6872
  167SOPE  H15S18826   5.403   4.151   7.832  1.4344  2.1249 -2.6610
  167SOPE  C21618827   5.223   4.118   7.938 -0.1487 -0.4356 -0.0743
  167SOPE  H16R18828   5.247   4.009   7.932 -0.3546 -0.4220 -1.6587
  167SOPE  H16S18829   5.116   4.133   7.912 -0.9107 -0.5218  2.6883
  167SOPE  C21718830   5.226   4.151   8.088 -0.3776 -0.4774  0.3960
  167SOPE  H17R18831   5.201   4.259   8.090  0.7290 -0.1183 -2.0015
  167SOPE  H17S18832   5.329   4.142   8.128 -0.1392 -0.2646 -0.1671
  167SOPE  C21818833   5.141   4.054   8.171  0.3815 -0.5720  0.3395
  167SOPE  H18R18834   5.160   4.085   8.276 -0.0502  1.1195 -0.0346
  167SOPE  H18S18835   5.175   3.950   8.152 -0.1618 -0.7629  0.4080
  167SOPE  H18T18836   5.034   4.064   8.144  0.0739 -1.3625  1.2391
  167SOPE   C3318837   5.730   5.111   6.874  0.3033 -0.0085 -0.1676
  167SOPE   H3X18838   5.799   5.030   6.841  1.3796  1.1322 -0.8088
  167SOPE   H3Y18839   5.626   5.072   6.877  0.2360  0.0468 -1.4146
  167SOPE   C3418840   5.758   5.147   7.016  0.5919 -0.1698 -0.3871
  167SOPE   H4X18841   5.867   5.165   7.014  0.4929  0.6018 -3.1555
  167SOPE   H4Y18842   5.726   5.063   7.082 -3.0109  1.8519  0.7290
  167SOPE   C3518843   5.682   5.264   7.075 -0.1763 -0.7469  0.0140
  167SOPE   H5X18844   5.594   5.232   7.135  1.0403 -0.3874  2.0873
  167SOPE   H5Y18845   5.651   5.340   7.000 -0.3860 -1.3805 -0.5507
  167SOPE   C3618846   5.776   5.345   7.170  0.0831  0.4897 -0.4942
  167SOPE   H6X18847   5.719   5.431   7.211  0.6771  0.8824 -0.4750
  167SOPE   H6Y18848   5.862   5.380   7.107  1.4079 -2.9585 -0.8316
  167SOPE   C3718849   5.809   5.251   7.285 -0.3930 -0.4942 -0.5450
  167SOPE   H7X18850   5.876   5.303   7.356  2.1136 -0.4424 -2.7743
  167SOPE   H7Y18851   5.870   5.164   7.252 -0.0280 -0.2950 -0.4042
  167SOPE   C3818852   5.689   5.207   7.370  0.2148  0.2321 -0.2346
  167SOPE   H8X18853   5.634   5.132   7.309  0.6536  0.8026 -1.3506
  167SOPE   H8Y18854   5.608   5.284   7.365 -0.9247 -0.9660 -0.9568
  167SOPE   C3918855   5.714   5.184   7.528 -0.6728  0.2248  0.7215
  167SOPE   H9X18856   5.816   5.148   7.554 -0.8105  1.8347  4.1307
  167SOPE   H9Y18857   5.629   5.117   7.551  0.4184 -1.5953 -0.3402
  167SOPE  C31018858   5.681   5.314   7.615 -0.7277  0.4047  0.3456
  167SOPE  H10X18859   5.645   5.390   7.542 -1.6061  0.7146  1.0883
  167SOPE  H10Y18860   5.779   5.351   7.652 -0.3982 -2.0727  2.1703
  167SOPE  C31118861   5.580   5.294   7.725  0.4171 -0.0660  0.0305
  167SOPE  H11X18862   5.629   5.221   7.793  0.6105 -1.8378 -1.9166
  167SOPE  H11Y18863   5.488   5.245   7.687  0.8956 -1.0946  0.1746
  167SOPE  C31218864   5.549   5.428   7.787 -0.6963 -0.4648 -0.6476
  167SOPE  H12X18865   5.505   5.492   7.708 -0.4773 -0.8243 -1.0627
  167SOPE  H12Y18866   5.645   5.474   7.816 -1.0211  0.3563 -0.8692
  167SOPE  C31318867   5.463   5.400   7.917 -0.2780  0.3425  0.1982
  167SOPE  H13X18868   5.512   5.329   7.987  1.7746  0.6908 -0.8080
  167SOPE  H13Y18869   5.362   5.365   7.885 -0.0445  0.4237 -0.6700
  167SOPE  C31418870   5.432   5.525   7.991 -0.3822  0.0154 -0.9791
  167SOPE  H14X18871   5.371   5.597   7.932 -1.2643 -0.8177 -1.1067
  167SOPE  H14Y18872   5.528   5.570   8.024  0.1828 -1.2318 -0.8354
  167SOPE  C31518873   5.352   5.509   8.119  0.4661  0.2275  0.4577
  167SOPE  H15X18874   5.317   5.609   8.152  2.3554  0.6445  1.3025
  167SOPE  H15Y18875   5.425   5.481   8.197 -0.2719 -1.1387  0.6794
  167SOPE  C31618876   5.243   5.404   8.111  0.0610 -0.0664 -0.7335
  167SOPE  H16X18877   5.287   5.304   8.089 -1.5813 -1.0294  0.2403
  167SOPE  H16Y18878   5.180   5.437   8.026  1.5988  0.6750 -1.6412
  167SOPE  C31718879   5.156   5.398   8.243 -0.4786  0.2230 -0.5174
  167SOPE  H17X18880   5.136   5.502   8.278 -0.5942  0.6563 -1.8009
  167SOPE  H17Y18881   5.220   5.348   8.319  0.0506 -1.0049 -1.7216
  167SOPE  C31818882   5.032   5.315   8.236  0.5312 -0.6315  0.4146
  167SOPE  H18X18883   4.947   5.382   8.209  0.9425 -0.1056  0.3999
  167SOPE  H18Y18884   5.003   5.262   8.330  0.3816  0.8370  1.2392
  167SOPE  H18Z18885   5.030   5.248   8.148 -0.5881 -0.2797  0.1518
  168SOPE     N18886   4.437   1.797   6.176  0.1774  0.3116  0.1195
  168SOPE   HN118887   4.413   1.697   6.193  1.0914 -0.2491 -1.6828
  168SOPE   HN218888   4.460   1.805   6.075 -2.4292 -1.6322 -0.7433
  168SOPE   HN318889   4.524   1.811   6.231 -0.1812  1.3954  0.4422
  168SOPE   C1218890   4.337   1.902   6.221  0.6519  0.0301 -0.7441
  168SOPE  H12A18891   4.253   1.883   6.151 -1.2724  1.3000  1.1243
  168SOPE  H12B18892   4.382   2.001   6.200  2.6055 -1.0859 -2.0958
  168SOPE   C1118893   4.304   1.882   6.369  0.3004 -0.2669  0.4623
  168SOPE  H11A18894   4.241   1.963   6.411 -0.7154 -1.6471  1.7272
  168SOPE  H11B18895   4.398   1.883   6.429  0.5728 -2.3840  0.1719
  168SOPE     P18896   4.078   1.743   6.376 -0.2118 -0.0900 -0.1431
  168SOPE   O1318897   4.043   1.604   6.412  0.1135  0.5416  0.5171
  168SOPE   O1418898   4.030   1.799   6.250  0.5098 -0.1284 -0.5369
  168SOPE   O1218899   4.239   1.755   6.384  0.0920  0.9610 -0.2814
  168SOPE   O1118900   4.033   1.830   6.500  0.3864  0.3729  0.0938
  168SOPE    C118901   3.989   1.769   6.622  0.7999  0.1133  0.1219
  168SOPE    HA18902   4.043   1.675   6.647 -0.9858 -0.8003  0.6786
  168SOPE    HB18903   3.881   1.748   6.610  0.6270 -0.5850  2.4996
  168SOPE    C218904   4.003   1.862   6.742  0.0934 -0.0734  0.4025
  168SOPE    HS18905   3.951   1.956   6.715 -1.1984 -1.0751 -0.7831
  168SOPE   O2118906   4.139   1.894   6.757  0.0042 -0.0146  0.4694
  168SOPE   C2118907   4.172   2.002   6.817  0.4858 -0.8219  0.0785
  168SOPE   O2218908   4.098   2.089   6.863  0.0873  0.2401  0.2465
  168SOPE   C2218909   4.326   2.004   6.827  0.0935 -0.1123  0.8260
  168SOPE   H2R18910   4.356   1.998   6.720 -1.6802  0.7623  0.2272
  168SOPE   H2S18911   4.350   1.909   6.879 -2.2272 -0.5488  1.2104
  168SOPE    C318912   3.944   1.808   6.875 -0.0954  0.2811 -0.1482
  168SOPE    HX18913   3.999   1.726   6.924 -1.7361 -1.2304 -0.7181
  168SOPE    HY18914   3.845   1.758   6.865  0.1605  0.0438 -1.8939
  168SOPE   O3118915   3.931   1.906   6.979  0.5617 -0.0529 -0.6150
  168SOPE   C3118916   3.838   1.993   6.981 -0.5846 -0.6549  0.1897
  168SOPE   O3218917   3.759   2.018   6.889 -0.0780 -0.3496 -0.3308
  168SOPE   C3218918   3.833   2.065   7.119 -0.0828  0.1165 -1.0853
  168SOPE   H2X18919   3.902   2.152   7.118  2.1804 -1.5098  0.7936
  168SOPE   H2Y18920   3.865   1.990   7.195 -0.1197  0.0538 -1.1310
  168SOPE   C2318921   4.380   2.129   6.891 -0.3360  0.1351  0.6426
  168SOPE   H3R18922   4.334   2.221   6.850 -0.3015 -0.5791 -1.1023
  168SOPE   H3S18923   4.491   2.127   6.878 -0.4905  0.7505 -1.0170
  168SOPE   C2418924   4.366   2.130   7.046  0.3185 -0.0456 -0.4383
  168SOPE   H4R18925   4.386   2.026   7.080  0.3366 -0.0673 -0.5145
  168SOPE   H4S18926   4.446   2.196   7.085 -0.3358  1.4013 -1.4750
  168SOPE   C2518927   4.224   2.172   7.093 -0.2692 -0.9348 -1.5719
  168SOPE   H5R18928   4.189   2.248   7.020 -0.2030 -0.3659 -1.0206
  168SOPE   H5S18929   4.153   2.087   7.098  0.3245 -1.3788  1.5618
  168SOPE   C2618930   4.234   2.219   7.236  0.3073  0.0313 -0.3034
  168SOPE   H6R18931   4.237   2.131   7.304 -2.0284 -0.3251 -0.5906
  168SOPE   H6S18932   4.330   2.273   7.255  0.7641 -0.9056  0.1485
  168SOPE   C2718933   4.128   2.327   7.280  0.4372  0.3651  0.0367
  168SOPE   H7R18934   4.137   2.432   7.244 -0.9396  0.8473  1.0099
  168SOPE   H7S18935   4.034   2.293   7.229  0.1863  0.9531  0.1035
  168SOPE   C2818936   4.115   2.332   7.428  0.2540 -0.2509 -0.5035
  168SOPE   H8R18937   4.212   2.355   7.477 -0.0404 -0.2793  0.0958
  168SOPE   H8S18938   4.065   2.419   7.475 -0.3347 -0.9907  0.2553
  168SOPE   C2918939   4.053   2.203   7.493 -0.6516  0.0837  1.1344
  168SOPE   H9118940   4.033   2.118   7.427  1.3853 -0.0556  0.6273
  168SOPE  C21018941   4.032   2.185   7.625 -0.3766  0.0843  0.0725
  168SOPE  H10118942   3.978   2.100   7.670 -1.9448  0.5908 -0.8070
  168SOPE  C21118943   4.059   2.288   7.724  0.5418  0.0438  0.5012
  168SOPE  H11R18944   3.961   2.338   7.737  1.2173  2.5183 -2.6923
  168SOPE  H11S18945   4.131   2.365   7.690 -1.4190  1.0732 -1.5484
  168SOPE  C21218946   4.105   2.229   7.857  0.0142  0.2121 -0.3666
  168SOPE  H12R18947   4.177   2.147   7.835 -0.5453 -0.0609 -1.2166
  168SOPE  H12S18948   4.023   2.175   7.909  1.1240 -1.0607  0.1264
  168SOPE  C21318949   4.158   2.340   7.949 -0.4977 -0.1042 -0.6120
  168SOPE  H13R18950   4.067   2.397   7.979 -0.1008  0.2578 -0.0930
  168SOPE  H13S18951   4.226   2.413   7.901  2.3428 -1.4363  1.1393
  168SOPE  C21418952   4.243   2.294   8.070  0.6049 -0.7341 -0.2039
  168SOPE  H14R18953   4.337   2.240   8.043  1.4569  0.4757  0.2412
  168SOPE  H14S18954   4.182   2.231   8.138  1.4748 -1.0158  0.3422
  168SOPE  C21518955   4.264   2.421   8.159  0.1499 -0.1725  0.2451
  168SOPE  H15R18956   4.171   2.481   8.161  0.9977  1.3483 -1.8606
  168SOPE  H15S18957   4.331   2.484   8.097 -0.0737  0.6540  0.8339
  168SOPE  C21618958   4.324   2.399   8.296 -0.1516 -0.2993 -0.5371
  168SOPE  H16R18959   4.351   2.500   8.334 -0.9462 -0.1368 -0.3735
  168SOPE  H16S18960   4.408   2.334   8.266  1.0725  1.2145 -0.5182
  168SOPE  C21718961   4.241   2.328   8.401  0.2334 -0.6165 -0.3624
  168SOPE  H17R18962   4.300   2.318   8.495  0.6775  1.5766 -0.3622
  168SOPE  H17S18963   4.199   2.231   8.367 -1.3479  0.1714 -0.7761
  168SOPE  C21818964   4.123   2.416   8.451  0.4081  0.1251 -0.2500
  168SOPE  H18R18965   4.058   2.373   8.530 -0.7280 -1.1216 -1.7880
  168SOPE  H18S18966   4.054   2.440   8.368 -0.5114 -0.1396  0.4212
  168SOPE  H18T18967   4.171   2.504   8.498  0.8826  0.4074 -1.2356
  168SOPE   C3318968   3.698   2.123   7.168  1.0729 -0.3546 -0.2917
  168SOPE   H3X18969   3.630   2.039   7.197 -0.1481  0.3926 -0.8967
  168SOPE   H3Y18970   3.650   2.174   7.082  2.8529  0.1167 -1.0483
  168SOPE   C3418971   3.723   2.229   7.280  0.4134  0.1929  0.7616
  168SOPE   H4X18972   3.799   2.301   7.244  0.7847 -0.5096  0.1118
  168SOPE   H4Y18973   3.760   2.162   7.361  0.4943 -0.7901 -0.0639
  168SOPE   C3518974   3.607   2.295   7.328 -0.6219 -0.1134 -0.1852
  168SOPE   H5X18975   3.532   2.218   7.353 -2.1162  0.1982 -3.2337
  168SOPE   H5Y18976   3.572   2.366   7.250  0.8844 -0.0629 -0.8470
  168SOPE   C3618977   3.631   2.376   7.467  0.6091 -0.2785  0.3767
  168SOPE   H6X18978   3.700   2.456   7.434 -1.4024  1.6964  0.7562
  168SOPE   H6Y18979   3.693   2.323   7.542  1.1973 -0.9285 -0.5400
  168SOPE   C3718980   3.509   2.439   7.527 -0.3709 -0.1986  0.1800
  168SOPE   H7X18981   3.463   2.490   7.440 -0.2312 -1.9861 -0.9876
  168SOPE   H7Y18982   3.538   2.509   7.608 -2.4992 -0.0721  0.8957
  168SOPE   C3818983   3.406   2.342   7.586 -0.1335 -0.0471  0.6833
  168SOPE   H8X18984   3.348   2.308   7.497 -1.2250  0.2325  1.2791
  168SOPE   H8Y18985   3.343   2.403   7.654  0.7684  0.3956  1.1321
  168SOPE   C3918986   3.467   2.222   7.667  0.3804  0.4885 -0.0032
  168SOPE   H9X18987   3.528   2.153   7.604  0.2242 -0.2918  0.6765
  168SOPE   H9Y18988   3.391   2.152   7.707  1.0835 -0.5777 -0.4602
  168SOPE  C31018989   3.551   2.259   7.799 -0.6364  0.0530  0.2282
  168SOPE  H10X18990   3.497   2.334   7.861  0.8772 -0.2195  1.9497
  168SOPE  H10Y18991   3.643   2.312   7.764 -1.4259  2.0849  1.0396
  168SOPE  C31118992   3.572   2.138   7.877  0.2528  0.0996  0.1219
  168SOPE  H11X18993   3.605   2.055   7.810 -2.7911  0.0010 -1.4255
  168SOPE  H11Y18994   3.473   2.110   7.920 -1.7923  0.5739 -3.8466
  168SOPE  C31218995   3.661   2.147   8.004 -0.3762 -0.3064 -0.3171
  168SOPE  H12X18996   3.618   2.219   8.078 -0.5250 -1.1735  0.4595
  168SOPE  H12Y18997   3.762   2.178   7.972 -0.4660 -0.6328 -0.9220
  168SOPE  C31318998   3.664   2.011   8.077  0.5127  0.5751 -0.0063
  168SOPE  H13X18999   3.672   1.937   7.995 -0.8713  0.8859 -0.4507
  168SOPE  H13Y19000   3.559   2.003   8.112  0.4230 -1.3536 -0.6013
  168SOPE  C31419001   3.752   1.989   8.200  0.0003  0.1699  0.0719
  168SOPE  H14X19002   3.707   2.044   8.285 -0.5610 -1.8384  1.1583
  168SOPE  H14Y19003   3.857   2.017   8.178  0.1234 -0.2298  0.1283
  168SOPE  C31519004   3.757   1.840   8.237  0.5357  0.7515 -0.2238
  168SOPE  H15X19005   3.831   1.826   8.319 -0.0100 -0.8853  0.0253
  168SOPE  H15Y19006   3.802   1.786   8.151  0.7807  1.9233 -0.8477
  168SOPE  C31619007   3.618   1.782   8.285 -0.1382 -0.0123  0.2132
  168SOPE  H16X19008   3.626   1.671   8.286  0.5890 -0.1021 -3.0759
  168SOPE  H16Y19009   3.541   1.800   8.207 -0.0540  0.9625  0.3369
  168SOPE  C31719010   3.573   1.833   8.421 -1.1068  0.7152  0.2962
  168SOPE  H17X19011   3.560   1.943   8.422 -0.5724  0.8045 -1.1924
  168SOPE  H17Y19012   3.655   1.805   8.490 -0.3151  0.7702 -0.6167
  168SOPE  C31819013   3.443   1.756   8.454 -0.9073 -0.1349  0.2325
  168SOPE  H18X19014   3.370   1.769   8.372  0.6977  0.2615 -1.1797
  168SOPE  H18Y19015   3.397   1.776   8.553 -0.3232 -0.8907  0.6627
  168SOPE  H18Z19016   3.478   1.651   8.450 -0.6585 -0.0490  0.1451
  169SOPE     N19017   6.294   3.562   6.105 -0.0184 -0.6970 -0.2946
  169SOPE   HN119018   6.337   3.543   6.012 -0.7846 -2.2211 -0.3716
  169SOPE   HN219019   6.214   3.496   6.114  0.9543 -1.9285 -0.3778
  169SOPE   HN319020   6.261   3.660   6.098  0.0324 -0.7584 -1.8213
  169SOPE   C1219021   6.390   3.523   6.220 -0.3062  0.3711 -0.6487
  169SOPE  H12A19022   6.481   3.586   6.209  0.0144 -0.2114 -1.3967
  169SOPE  H12B19023   6.414   3.415   6.209 -1.7867  0.1380 -1.9020
  169SOPE   C1119024   6.328   3.531   6.361  0.0609 -0.2747  0.1813
  169SOPE  H11A19025   6.249   3.453   6.366  1.6912 -1.9222  1.6334
  169SOPE  H11B19026   6.271   3.625   6.381 -1.7290 -0.9801 -1.2818
  169SOPE     P19027   6.502   3.635   6.540  0.1284  0.1150  0.1001
  169SOPE   O1319028   6.509   3.762   6.467 -0.1905 -0.0447 -0.3674
  169SOPE   O1419029   6.626   3.590   6.607 -0.3703  0.2605 -0.3407
  169SOPE   O1219030   6.441   3.518   6.452 -0.3332 -0.0135 -0.0319
  169SOPE   O1119031   6.391   3.660   6.652  0.2447  0.2040  0.1663
  169SOPE    C119032   6.326   3.539   6.692  0.2888  0.4100 -0.2989
  169SOPE    HA19033   6.382   3.444   6.673  0.2507 -0.2866  2.5649
  169SOPE    HB19034   6.224   3.534   6.648 -0.6991 -0.9570  1.9539
  169SOPE    C219035   6.301   3.531   6.845 -0.0031  0.5252  0.1749
  169SOPE    HS19036   6.223   3.457   6.870 -2.6231  2.8043 -0.7228
  169SOPE   O2119037   6.267   3.654   6.910 -0.8408 -0.0988  0.0489
  169SOPE   C2119038   6.156   3.706   6.874 -0.3199 -0.1154 -0.8167
  169SOPE   O2219039   6.079   3.648   6.801 -0.5520  0.1405 -0.3638
  169SOPE   C2219040   6.140   3.841   6.937 -0.3353  0.1815  0.1309
  169SOPE   H2R19041   6.166   3.911   6.855  0.3327  0.5673  0.6560
  169SOPE   H2S19042   6.215   3.854   7.018  0.4453 -2.8448  0.0129
  169SOPE    C319043   6.426   3.488   6.925 -0.9466  0.1527 -1.0310
  169SOPE    HX19044   6.505   3.565   6.911 -2.0188  1.3315 -0.8080
  169SOPE    HY19045   6.478   3.399   6.886 -0.6276 -0.6811  1.1252
  169SOPE   O3119046   6.404   3.456   7.063  0.0999 -0.6219 -0.0137
  169SOPE   C3119047   6.326   3.352   7.089  0.5302 -0.4977 -0.3652
  169SOPE   O3219048   6.300   3.264   7.008  0.5417  0.4431 -0.2263
  169SOPE   C3219049   6.261   3.366   7.223  0.7094 -0.5379  0.3661
  169SOPE   H2X19050   6.159   3.407   7.206  1.2767  0.5105 -0.6383
  169SOPE   H2Y19051   6.315   3.436   7.290 -0.2682 -1.8071  2.6120
  169SOPE   C2319052   6.001   3.884   6.979  0.0705  0.5838  0.1579
  169SOPE   H3R19053   5.931   3.877   6.893  0.7482 -1.7866 -0.2655
  169SOPE   H3S19054   6.009   3.992   7.001  2.1824  0.5401 -0.2373
  169SOPE   C2419055   5.946   3.798   7.100 -0.3696  0.7120  0.4159
  169SOPE   H4R19056   5.844   3.838   7.119 -0.1688  2.0752 -1.2119
  169SOPE   H4S19057   5.930   3.690   7.079  0.1283  0.2902  2.0894
  169SOPE   C2519058   6.040   3.801   7.213 -0.0784 -0.4617  0.0624
  169SOPE   H5R19059   6.138   3.756   7.188  0.7531  0.7108  1.1271
  169SOPE   H5S19060   6.080   3.902   7.235  1.5275 -1.1550  0.4650
  169SOPE   C2619061   5.980   3.759   7.340 -0.1461  0.2713 -0.5952
  169SOPE   H6R19062   5.890   3.804   7.387  2.5727  2.1536  3.4084
  169SOPE   H6S19063   5.947   3.657   7.311  1.4062 -0.2124 -0.7931
  169SOPE   C2719064   6.086   3.731   7.457  0.0140 -1.1778  0.3864
  169SOPE   H7R19065   6.174   3.676   7.417  0.3250  0.1889 -0.8962
  169SOPE   H7S19066   6.129   3.826   7.494  2.4026 -2.1893  0.3986
  169SOPE   C2819067   6.020   3.662   7.574  0.2056 -0.2315 -0.0690
  169SOPE   H8R19068   5.930   3.719   7.605  0.1232  0.0896 -0.8687
  169SOPE   H8S19069   5.987   3.561   7.542 -1.2881 -0.2063  1.2688
  169SOPE   C2919070   6.114   3.658   7.686 -0.6192 -0.0265 -0.0310
  169SOPE   H9119071   6.215   3.619   7.668 -0.6035 -1.1934  2.2048
  169SOPE  C21019072   6.096   3.697   7.811 -0.2994 -0.0901  0.3175
  169SOPE  H10119073   6.177   3.691   7.885 -1.6946  2.2331  2.1752
  169SOPE  C21119074   5.969   3.757   7.874 -0.2057 -0.2865  0.0280
  169SOPE  H11R19075   5.948   3.699   7.967 -2.3735 -0.7086 -0.6569
  169SOPE  H11S19076   5.886   3.747   7.801  0.3408 -0.6689 -0.5507
  169SOPE  C21219077   5.981   3.911   7.901 -0.3667 -0.1518 -0.2806
  169SOPE  H12R19078   5.984   3.971   7.808  0.5254  0.0452 -0.1331
  169SOPE  H12S19079   6.081   3.928   7.946 -1.0290  1.2446  0.7601
  169SOPE  C21319080   5.870   3.968   7.992 -0.2712  0.1485  0.3745
  169SOPE  H13R19081   5.901   4.073   8.012  0.2233  0.3774 -1.4251
  169SOPE  H13S19082   5.870   3.925   8.095 -0.3790  0.5048  0.5231
  169SOPE  C21419083   5.727   3.955   7.946 -0.2708  0.0800 -0.4478
  169SOPE  H14R19084   5.699   3.849   7.929 -3.0611  0.4379  1.2525
  169SOPE  H14S19085   5.720   4.011   7.850  0.2754  1.4933  0.3071
  169SOPE  C21519086   5.629   4.006   8.052  0.7358  0.4293 -0.1569
  169SOPE  H15R19087   5.524   4.002   8.016  0.3354 -1.0755  1.1041
  169SOPE  H15S19088   5.650   4.112   8.081 -1.9654  0.8593  0.4603
  169SOPE  C21619089   5.635   3.938   8.186 -0.1101 -0.3365  0.2551
  169SOPE  H16R19090   5.727   3.979   8.233 -0.3374  2.9214 -1.8290
  169SOPE  H16S19091   5.640   3.827   8.180 -0.8663 -0.3703  0.1812
  169SOPE  C21719092   5.520   3.971   8.278  0.3626 -0.1921  0.9000
  169SOPE  H17R19093   5.494   3.885   8.343 -1.1016 -0.9529 -0.6006
  169SOPE  H17S19094   5.430   3.990   8.215  0.5344  0.0961  0.7357
  169SOPE  C21819095   5.554   4.095   8.365  0.3838 -0.3169  0.7007
  169SOPE  H18R19096   5.461   4.132   8.413  0.2721  0.6661 -0.2358
  169SOPE  H18S19097   5.600   4.171   8.298  0.9658  0.2458  1.6994
  169SOPE  H18T19098   5.631   4.073   8.442  0.9532 -3.4419 -0.6029
  169SOPE   C3319099   6.258   3.235   7.306 -0.0001  0.6975  0.3402
  169SOPE   H3X19100   6.363   3.203   7.327  0.3324  0.6355 -1.2967
  169SOPE   H3Y19101   6.211   3.151   7.251 -0.4693  0.3400  1.2739
  169SOPE   C3419102   6.188   3.249   7.443 -0.1232  0.2449 -0.9436
  169SOPE   H4X19103   6.166   3.142   7.467  0.4449  0.0034 -1.4753
  169SOPE   H4Y19104   6.094   3.308   7.440 -0.3133 -0.0804 -2.9582
  169SOPE   C3519105   6.275   3.292   7.565 -0.4564 -0.1717  0.2680
  169SOPE   H5X19106   6.321   3.393   7.551 -2.7477  0.7096 -1.5963
  169SOPE   H5Y19107   6.358   3.219   7.574 -0.7397 -0.3361  1.9607
  169SOPE   C3619108   6.196   3.295   7.697  0.2467 -0.0587 -0.0440
  169SOPE   H6X19109   6.143   3.198   7.706 -2.3241  1.3572  1.5092
  169SOPE   H6Y19110   6.116   3.372   7.681  1.2884  0.5239 -3.3460
  169SOPE   C3719111   6.280   3.309   7.824 -0.2664  0.0787  0.0870
  169SOPE   H7X19112   6.335   3.405   7.816  1.3955 -0.7286  1.2627
  169SOPE   H7Y19113   6.355   3.227   7.827 -0.1205  0.1913 -0.3707
  169SOPE   C3819114   6.196   3.308   7.948 -0.7941 -0.3761 -0.6316
  169SOPE   H8X19115   6.259   3.339   8.034 -1.1125 -1.4474  0.0020
  169SOPE   H8Y19116   6.118   3.388   7.943 -1.5267 -1.0049  0.2736
  169SOPE   C3919117   6.121   3.180   7.990  0.3532  0.2719 -0.7854
  169SOPE   H9X19118   6.185   3.091   7.977  0.6895  0.0515  1.7819
  169SOPE   H9Y19119   6.028   3.148   7.941  0.7368 -1.5555 -0.3875
  169SOPE  C31019120   6.087   3.168   8.141  0.1045  0.4223  0.0436
  169SOPE  H10X19121   6.178   3.178   8.204 -0.2269 -1.0617  0.7770
  169SOPE  H10Y19122   6.046   3.067   8.161  0.3248  0.7798  2.6038
  169SOPE  C31119123   5.994   3.275   8.184 -0.1296 -0.0113  0.8609
  169SOPE  H11X19124   5.901   3.271   8.123 -1.3041 -1.2201  2.6169
  169SOPE  H11Y19125   6.050   3.367   8.158 -0.3318  0.2684  1.4057
  169SOPE  C31219126   5.962   3.272   8.331 -0.2306 -0.2711  0.1064
  169SOPE  H12X19127   6.060   3.280   8.383  0.3770  1.9379 -1.2273
  169SOPE  H12Y19128   5.909   3.178   8.356  1.4779 -1.3708 -0.2027
  169SOPE  C31319129   5.874   3.389   8.371 -0.6508  0.2671 -0.3038
  169SOPE  H13X19130   5.848   3.385   8.478 -1.2560  0.4624 -0.4433
  169SOPE  H13Y19131   5.779   3.360   8.321 -0.0301 -0.7758 -0.9363
  169SOPE  C31419132   5.919   3.531   8.334  0.3597 -0.4146 -0.0851
  169SOPE  H14X19133   5.952   3.537   8.228  2.3483  2.2491  0.5856
  169SOPE  H14Y19134   6.012   3.552   8.391  0.7807  0.9394 -1.2147
  169SOPE  C31519135   5.814   3.635   8.375  0.0525 -0.1929 -0.0007
  169SOPE  H15X19136   5.713   3.592   8.361 -2.0022  3.8643  0.9494
  169SOPE  H15Y19137   5.817   3.722   8.306 -1.7412  0.4744  0.7193
  169SOPE  C31619138   5.814   3.672   8.528 -0.4560 -0.3570  0.3619
  169SOPE  H16X19139   5.916   3.708   8.554 -1.0876 -0.8252  3.8667
  169SOPE  H16Y19140   5.801   3.575   8.580  0.1242  0.5466  2.2653
  169SOPE  C31719141   5.701   3.770   8.573 -0.1178 -0.8700  0.3127
  169SOPE  H17X19142   5.607   3.733   8.526 -0.4709 -0.3422  0.5992
  169SOPE  H17Y19143   5.720   3.871   8.529  1.1474 -0.7503  1.0872
  169SOPE  C31819144   5.687   3.773   8.729  0.0513  0.4057  0.2890
  169SOPE  H18X19145   5.646   3.676   8.764 -0.6123  0.7437  0.4546
  169SOPE  H18Y19146   5.615   3.851   8.761 -1.0442 -0.5798  0.2664
  169SOPE  H18Z19147   5.787   3.799   8.770 -0.1294 -1.7178  2.2419
  170SOPE     N19148   0.827   3.237   6.247 -0.2160 -0.7023  0.8980
  170SOPE   HN119149   0.859   3.334   6.231 -3.2346  0.2414 -0.0852
  170SOPE   HN219150   0.800   3.189   6.158 -1.2295  1.4642 -0.0318
  170SOPE   HN319151   0.743   3.241   6.309 -1.2118  1.3999 -0.4904
  170SOPE   C1219152   0.929   3.151   6.314  0.0176  0.3802 -0.4582
  170SOPE  H12A19153   1.005   3.214   6.365  1.4658 -1.0109 -0.8249
  170SOPE  H12B19154   0.985   3.091   6.240  3.6022  1.0378  1.5122
  170SOPE   C1119155   0.858   3.063   6.417  0.2843  0.5372  0.8035
  170SOPE  H11A19156   0.806   3.134   6.485 -1.4984  1.0393 -1.0028
  170SOPE  H11B19157   0.938   3.011   6.474 -0.1545 -1.5244 -0.3719
  170SOPE     P19158   0.806   2.819   6.324  0.0649 -0.0202  0.0209
  170SOPE   O1319159   0.816   2.801   6.176  0.1672  0.0637  1.1490
  170SOPE   O1419160   0.700   2.738   6.382 -0.2094 -0.5258 -0.3381
  170SOPE   O1219161   0.772   2.970   6.351  0.4866 -0.1446 -0.2816
  170SOPE   O1119162   0.945   2.791   6.405  0.3916  0.9602 -0.3618
  170SOPE    C119163   0.976   2.649   6.436  0.0443 -1.1196 -0.0276
  170SOPE    HA19164   1.077   2.623   6.396 -1.1355 -1.2182 -3.3187
  170SOPE    HB19165   0.908   2.581   6.380 -1.1827 -1.4318  1.7956
  170SOPE    C219166   0.948   2.630   6.589 -0.5422  0.0406 -0.0586
  170SOPE    HS19167   0.838   2.623   6.599 -0.3388 -0.5297  2.2277
  170SOPE   O2119168   0.991   2.738   6.668 -0.1254 -0.0518  0.3178
  170SOPE   C2119169   0.913   2.839   6.696  0.3085 -0.1265  0.9122
  170SOPE   O2219170   0.794   2.850   6.666  0.1453  0.2521  0.3206
  170SOPE   C2219171   0.994   2.938   6.773 -0.4990  0.1965 -0.3025
  170SOPE   H2R19172   1.029   3.016   6.702  1.2768 -0.7222 -0.5065
  170SOPE   H2S19173   1.087   2.890   6.810 -0.1344  0.2348 -1.1470
  170SOPE    C319174   1.010   2.495   6.641  0.4891  1.1981 -0.2957
  170SOPE    HX19175   1.120   2.510   6.631  1.2657 -1.4420  2.6067
  170SOPE    HY19176   0.979   2.416   6.569 -2.0673 -0.8078  2.7285
  170SOPE   O3119177   0.965   2.461   6.774  0.5981  0.0689  0.2140
  170SOPE   C3119178   1.031   2.372   6.847 -0.0435  0.5462  0.4777
  170SOPE   O3219179   1.122   2.304   6.811  0.7340  0.7978 -0.4815
  170SOPE   C3219180   0.965   2.355   6.982  1.0448 -0.2093 -1.0973
  170SOPE   H2X19181   0.862   2.318   6.966  0.5676  0.3593  0.4732
  170SOPE   H2Y19182   0.948   2.451   7.035  1.8041 -1.2173  1.1034
  170SOPE   C2319183   0.911   2.996   6.893  0.3192 -0.3690  0.5185
  170SOPE   H3R19184   0.813   3.036   6.859  2.0576  2.2785 -1.8982
  170SOPE   H3S19185   0.965   3.078   6.944 -0.1987  1.0037 -1.0510
  170SOPE   C2419186   0.888   2.888   7.004  0.1277  0.1214 -0.3489
  170SOPE   H4R19187   0.820   2.929   7.082  0.3070 -0.6403  0.2268
  170SOPE   H4S19188   0.820   2.816   6.952 -0.9220  0.5449  0.3941
  170SOPE   C2519189   1.009   2.816   7.059 -0.1280 -0.1034 -0.1045
  170SOPE   H5R19190   1.051   2.745   6.984  0.0737 -0.9807  0.8227
  170SOPE   H5S19191   1.082   2.892   7.094 -2.0648  0.9764  1.8195
  170SOPE   C2619192   0.971   2.721   7.176 -0.8773  0.4343  0.0894
  170SOPE   H6R19193   0.924   2.778   7.259  2.2019  0.8369  1.6962
  170SOPE   H6S19194   0.906   2.640   7.138  0.0475 -0.4352  0.3233
  170SOPE   C2719195   1.098   2.651   7.230  0.0899 -0.0825 -0.3374
  170SOPE   H7R19196   1.151   2.607   7.142 -1.5067 -0.2503 -1.2411
  170SOPE   H7S19197   1.161   2.732   7.272 -1.2293 -0.4674  2.6072
  170SOPE   C2819198   1.061   2.539   7.332  0.0854 -0.2986 -0.7715
  170SOPE   H8R19199   1.027   2.599   7.419 -0.7990 -2.6172  0.5640
  170SOPE   H8S19200   0.985   2.468   7.292  0.0253 -2.2778  2.4978
  170SOPE   C2919201   1.178   2.461   7.383 -0.2348 -0.1856 -0.3445
  170SOPE   H9119202   1.233   2.408   7.304  0.5215 -0.1862  0.1656
  170SOPE  C21019203   1.237   2.453   7.502 -0.4050 -0.8273 -1.0425
  170SOPE  H10119204   1.325   2.388   7.520  0.1251  0.3092  0.7383
  170SOPE  C21119205   1.200   2.522   7.635  0.5727  0.2512  0.1567
  170SOPE  H11R19206   1.124   2.603   7.622  0.1510 -0.0221  0.8842
  170SOPE  H11S19207   1.298   2.561   7.671  1.0934 -0.2801 -0.6515
  170SOPE  C21219208   1.140   2.430   7.747 -0.1477 -0.1392  0.0428
  170SOPE  H12R19209   1.130   2.478   7.847  1.6323 -0.0166  0.2033
  170SOPE  H12S19210   1.210   2.344   7.750  1.2664  0.8428 -2.0380
  170SOPE  C21319211   1.001   2.377   7.709  0.7917 -0.8266 -0.1402
  170SOPE  H13R19212   0.997   2.310   7.620 -1.8213  0.2698 -0.9343
  170SOPE  H13S19213   0.935   2.464   7.691 -0.7365 -1.8714  0.2307
  170SOPE  C21419214   0.930   2.300   7.823  0.2704 -0.1800  0.1065
  170SOPE  H14R19215   0.821   2.316   7.805 -0.1278 -1.5080  1.1178
  170SOPE  H14S19216   0.951   2.351   7.920  1.0304  0.3628 -0.3398
  170SOPE  C21519217   0.980   2.155   7.837  0.1664  0.2393  0.0310
  170SOPE  H15R19218   1.087   2.156   7.866 -0.3029 -1.0430  1.9495
  170SOPE  H15S19219   0.959   2.105   7.740 -0.8541 -1.7006  1.1922
  170SOPE  C21619220   0.913   2.065   7.939 -0.1341  0.4594  0.0343
  170SOPE  H16R19221   0.964   1.967   7.946 -0.4827  0.1230 -1.7397
  170SOPE  H16S19222   0.808   2.041   7.911  0.2594 -1.1644 -0.1201
  170SOPE  C21719223   0.915   2.123   8.082 -0.6447 -0.6156  0.5880
  170SOPE  H17R19224   0.835   2.200   8.090 -1.1380 -1.0042 -0.3765
  170SOPE  H17S19225   1.016   2.155   8.114 -1.5196 -0.0785  3.0380
  170SOPE  C21819226   0.879   2.012   8.174  0.3084  0.2411  0.0034
  170SOPE  H18R19227   0.869   2.049   8.278 -1.4088 -0.0750 -0.0245
  170SOPE  H18S19228   0.964   1.941   8.186 -0.3376 -0.6345 -0.4751
  170SOPE  H18T19229   0.781   1.963   8.153  0.8786  0.2594 -3.4022
  170SOPE   C3319230   1.045   2.260   7.073  0.2236  0.2124  0.0031
  170SOPE   H3X19231   1.133   2.298   7.130  0.4501 -0.6824  0.2604
  170SOPE   H3Y19232   1.078   2.181   7.003 -0.1584  1.8798 -2.1481
  170SOPE   C3419233   0.949   2.185   7.169 -0.9493  0.7049 -0.1219
  170SOPE   H4X19234   0.887   2.117   7.106  0.8777  0.7438 -2.0974
  170SOPE   H4Y19235   0.878   2.260   7.210 -0.0703  1.1999  0.5111
  170SOPE   C3519236   1.013   2.107   7.277  0.1666 -0.0490 -0.7325
  170SOPE   H5X19237   1.023   2.154   7.378 -2.1633 -0.9570 -0.0317
  170SOPE   H5Y19238   1.117   2.073   7.258 -0.0114  0.0159 -1.8849
  170SOPE   C3619239   0.943   1.977   7.305 -0.4681 -0.1277  0.0384
  170SOPE   H6X19240   0.945   1.911   7.216 -0.9851  0.1175 -0.1537
  170SOPE   H6Y19241   0.837   2.004   7.321 -0.0533  1.5960  0.0966
  170SOPE   C3719242   0.999   1.911   7.428  0.4347 -0.0382 -0.3697
  170SOPE   H7X19243   0.966   1.953   7.525  0.3884  1.7492 -1.1182
  170SOPE   H7Y19244   1.110   1.911   7.430  0.4342  1.1322  1.0727
  170SOPE   C3819245   0.971   1.750   7.438  0.1644 -0.5308  0.0116
  170SOPE   H8X19246   1.045   1.699   7.503  0.1754 -4.6503 -2.8362
  170SOPE   H8Y19247   0.977   1.711   7.334 -4.0676 -1.1901 -0.1780
  170SOPE   C3919248   0.828   1.730   7.491  0.0810  0.6342 -0.9759
  170SOPE   H9X19249   0.823   1.621   7.469 -1.0587  0.1603  1.2630
  170SOPE   H9Y19250   0.762   1.791   7.426 -1.1705  0.0409 -0.2989
  170SOPE  C31019251   0.814   1.753   7.640 -0.7569  0.2809  0.8363
  170SOPE  H10X19252   0.836   1.857   7.674 -3.2816  0.5069  2.0046
  170SOPE  H10Y19253   0.880   1.676   7.687 -0.0743  0.6174  0.4403
  170SOPE  C31119254   0.669   1.724   7.672 -0.6650 -0.0101 -0.4648
  170SOPE  H11X19255   0.643   1.622   7.635  1.0468 -0.2799 -0.9999
  170SOPE  H11Y19256   0.612   1.795   7.608 -1.6597 -1.2429 -1.0018
  170SOPE  C31219257   0.646   1.748   7.827  0.1231 -0.4638  0.3583
  170SOPE  H12X19258   0.537   1.756   7.848 -0.1823 -0.0364 -1.2549
  170SOPE  H12Y19259   0.694   1.847   7.845 -1.7826  0.6012 -0.1505
  170SOPE  C31319260   0.704   1.644   7.922 -0.4932 -0.0945 -0.0595
  170SOPE  H13X19261   0.807   1.615   7.892 -0.6891  0.2720 -1.1435
  170SOPE  H13Y19262   0.642   1.552   7.919 -0.0941 -0.4095  0.9452
  170SOPE  C31419263   0.707   1.686   8.069 -0.2813 -0.5542 -0.0461
  170SOPE  H14X19264   0.601   1.707   8.097 -0.4470 -0.7939 -0.4887
  170SOPE  H14Y19265   0.764   1.778   8.096 -1.1425 -0.2477  0.8147
  170SOPE  C31519266   0.762   1.570   8.158  0.2339 -0.4462 -0.1015
  170SOPE  H15X19267   0.866   1.545   8.128 -0.1286 -3.6191  0.8386
  170SOPE  H15Y19268   0.698   1.486   8.124 -1.1535  1.2734 -1.9589
  170SOPE  C31619269   0.757   1.598   8.304 -0.3604 -0.2115 -0.4656
  170SOPE  H16X19270   0.652   1.626   8.328 -0.2299  1.8835 -1.9821
  170SOPE  H16Y19271   0.825   1.685   8.315  0.3643 -0.7505 -0.6619
  170SOPE  C31719272   0.808   1.482   8.395 -0.6569 -0.4478  0.6665
  170SOPE  H17X19273   0.902   1.448   8.346 -0.0927  2.7067 -0.6887
  170SOPE  H17Y19274   0.739   1.396   8.382 -0.2526 -0.6192 -0.4497
  170SOPE  C31819275   0.825   1.520   8.543 -0.6881  0.0539  0.4386
  170SOPE  H18X19276   0.879   1.617   8.539  0.0862 -0.3620  0.5762
  170SOPE  H18Y19277   0.885   1.444   8.598  0.6819 -0.5605 -1.7913
  170SOPE  H18Z19278   0.734   1.553   8.596  0.9465  1.7614  2.3733
  171SOPE     N19279   1.578   6.496   6.179 -0.6325 -0.4174 -0.0911
  171SOPE   HN119280   1.669   6.538   6.150 -1.4366  1.4023 -0.0807
  171SOPE   HN219281   1.601   6.397   6.201 -0.5094  0.0582  2.2434
  171SOPE   HN319282   1.518   6.501   6.095  0.1976 -3.0826 -0.9609
  171SOPE   C1219283   1.519   6.554   6.303 -0.3815 -0.0456 -0.0664
  171SOPE  H12A19284   1.436   6.481   6.315 -0.5317 -0.1486 -1.5876
  171SOPE  H12B19285   1.477   6.652   6.274 -0.6098 -0.3763 -0.8669
  171SOPE   C1119286   1.614   6.564   6.429 -0.4028 -0.0631  0.1310
  171SOPE  H11A19287   1.638   6.459   6.457  0.2150  0.0470  0.0263
  171SOPE  H11B19288   1.559   6.616   6.511 -1.0044  0.5126 -0.6308
  171SOPE     P19289   1.727   6.793   6.399 -0.2863  0.1296  0.6241
  171SOPE   O1319290   1.676   6.845   6.267 -0.7004 -0.1646  0.0262
  171SOPE   O1419291   1.866   6.836   6.426  0.5378 -0.3740 -0.4801
  171SOPE   O1219292   1.729   6.638   6.386  0.3702 -0.0311 -0.2405
  171SOPE   O1119293   1.633   6.831   6.511  0.1536  0.2984 -0.2677
  171SOPE    C119294   1.499   6.874   6.491  0.0504  0.1163 -0.2375
  171SOPE    HA19295   1.436   6.800   6.438  0.5847  0.6662 -1.6996
  171SOPE    HB19296   1.507   6.969   6.433 -0.2508 -1.5767 -3.2361
  171SOPE    C219297   1.421   6.897   6.631 -0.1238 -0.9303 -0.0609
  171SOPE    HS19298   1.456   6.983   6.692  0.3420 -1.0300 -0.1874
  171SOPE   O2119299   1.417   6.773   6.708 -0.2212 -0.2316  0.2344
  171SOPE   C2119300   1.524   6.765   6.785  0.1451 -0.2696  0.4477
  171SOPE   O2219301   1.610   6.847   6.804  0.1113 -0.0194 -0.2147
  171SOPE   C2219302   1.538   6.626   6.839  0.3890  0.0022 -0.5673
  171SOPE   H2R19303   1.647   6.608   6.831  0.1476 -1.0801 -1.9095
  171SOPE   H2S19304   1.471   6.547   6.796 -0.1173  0.1676 -0.0884
  171SOPE    C319305   1.279   6.941   6.601 -0.4613  0.5637  0.1280
  171SOPE    HX19306   1.235   6.863   6.536  1.4951 -1.3799  1.0168
  171SOPE    HY19307   1.285   7.042   6.555  0.5891  1.0857  1.3389
  171SOPE   O3119308   1.196   6.937   6.728 -0.1913 -0.8984  0.3605
  171SOPE   C3119309   1.219   7.041   6.810  0.2029  0.2279  0.1195
  171SOPE   O3219310   1.309   7.118   6.798 -0.7614 -0.0136  0.3090
  171SOPE   C3219311   1.123   7.034   6.933 -0.2133 -0.6300  0.9638
  171SOPE   H2X19312   1.020   7.046   6.895 -0.7190 -2.1862  1.7147
  171SOPE   H2Y19313   1.147   7.131   6.981  2.8242  0.2786 -1.9946
  171SOPE   C2319314   1.508   6.633   6.993 -0.1387  0.7128 -0.3909
  171SOPE   H3R19315   1.413   6.691   6.999 -0.1694  0.9292 -2.3814
  171SOPE   H3S19316   1.598   6.668   7.049 -1.3145  2.6245  0.4056
  171SOPE   C2419317   1.497   6.494   7.059  0.0980 -0.0605  0.7840
  171SOPE   H4R19318   1.434   6.432   6.991 -0.9086  1.6988  0.0531
  171SOPE   H4S19319   1.595   6.441   7.062 -0.4384 -1.0599  1.2715
  171SOPE   C2519320   1.430   6.484   7.198 -0.0768 -0.0779  0.2750
  171SOPE   H5R19321   1.483   6.557   7.263 -1.0635  0.9952 -0.0934
  171SOPE   H5S19322   1.321   6.505   7.189 -0.2364 -1.3921 -1.2672
  171SOPE   C2619323   1.447   6.351   7.268 -0.1287  0.5483 -0.7281
  171SOPE   H6R19324   1.356   6.326   7.327  0.4994 -0.5691 -0.2052
  171SOPE   H6S19325   1.456   6.265   7.198  0.6444  1.6142 -1.9811
  171SOPE   C2719326   1.581   6.345   7.347  0.4119 -0.4954  0.0227
  171SOPE   H7R19327   1.667   6.351   7.277  1.0547 -1.9156  0.6535
  171SOPE   H7S19328   1.586   6.429   7.420  3.1295  0.4338 -1.1111
  171SOPE   C2819329   1.588   6.222   7.439 -0.2206  0.1387 -0.8227
  171SOPE   H8R19330   1.495   6.208   7.499 -0.0422 -0.9247 -0.7612
  171SOPE   H8S19331   1.603   6.129   7.379  1.3399  0.3175 -0.7363
  171SOPE   C2919332   1.703   6.229   7.528  0.0153  0.3821  0.3604
  171SOPE   H9119333   1.794   6.180   7.488  0.0902  1.1657 -0.4522
  171SOPE  C21019334   1.704   6.277   7.652 -0.1426 -0.4094 -0.7525
  171SOPE  H10119335   1.794   6.275   7.715 -1.0965  2.7940  0.9039
  171SOPE  C21119336   1.581   6.343   7.720 -0.4600  0.0075 -0.3314
  171SOPE  H11R19337   1.486   6.323   7.665  0.4971  1.4889 -2.6614
  171SOPE  H11S19338   1.597   6.453   7.719  2.0033 -0.2899 -1.3400
  171SOPE  C21219339   1.563   6.310   7.871 -0.4291  0.3627 -0.1693
  171SOPE  H12R19340   1.562   6.205   7.908 -0.5462  0.2357 -0.5326
  171SOPE  H12S19341   1.460   6.344   7.896  0.0132  1.7970 -0.2095
  171SOPE  C21319342   1.661   6.387   7.963 -0.1607  0.6561 -0.0086
  171SOPE  H13R19343   1.675   6.493   7.933 -2.8144  0.5561 -1.8611
  171SOPE  H13S19344   1.765   6.347   7.963 -0.4923 -0.2966  1.6993
  171SOPE  C21419345   1.609   6.387   8.100  0.1457 -0.0249  0.3591
  171SOPE  H14R19346   1.596   6.282   8.133  1.1191 -0.1292  0.4437
  171SOPE  H14S19347   1.506   6.428   8.091 -0.0540 -0.6162 -0.0904
  171SOPE  C21519348   1.688   6.469   8.200 -0.2950  0.1521  0.3861
  171SOPE  H15R19349   1.675   6.578   8.182 -0.7597  0.3536  1.7825
  171SOPE  H15S19350   1.797   6.453   8.184 -0.5487 -1.0427 -0.3034
  171SOPE  C21619351   1.645   6.433   8.347 -0.8852 -0.0845  0.1572
  171SOPE  H16R19352   1.612   6.327   8.349  3.6418 -1.7279  0.5733
  171SOPE  H16S19353   1.558   6.499   8.370 -0.9244 -0.3081  0.6633
  171SOPE  C21719354   1.761   6.440   8.454 -0.4385 -0.5980  0.5251
  171SOPE  H17R19355   1.809   6.540   8.460 -2.6504  0.5891 -0.3746
  171SOPE  H17S19356   1.839   6.365   8.426 -1.0146 -0.6979 -0.8898
  171SOPE  C21819357   1.709   6.407   8.593  0.2266 -0.3953  0.8411
  171SOPE  H18R19358   1.657   6.310   8.594 -1.7639  0.6267  0.8850
  171SOPE  H18S19359   1.640   6.483   8.635 -1.1693 -1.1264 -0.0799
  171SOPE  H18T19360   1.798   6.398   8.660  2.2125 -1.9368 -1.7814
  171SOPE   C3319361   1.126   6.920   7.028  0.2372  0.7435  0.1559
  171SOPE   H3X19362   1.229   6.913   7.068  0.0423  0.2673  0.5833
  171SOPE   H3Y19363   1.098   6.825   6.979 -1.2659  0.9647  0.5338
  171SOPE   C3419364   1.021   6.935   7.142  0.0354  0.3246  0.1392
  171SOPE   H4X19365   1.030   6.840   7.200  0.3845 -0.1471 -0.6727
  171SOPE   H4Y19366   0.916   6.944   7.106 -1.2234 -0.1122  3.3837
  171SOPE   C3519367   1.047   7.057   7.226  0.1051  0.2115 -0.6348
  171SOPE   H5X19368   1.025   7.143   7.160 -0.2318  0.2688 -0.4465
  171SOPE   H5Y19369   1.155   7.059   7.251  0.2463  4.8599 -0.7963
  171SOPE   C3619370   0.973   7.081   7.361  0.4076  0.4486 -0.6165
  171SOPE   H6X19371   0.867   7.109   7.343 -0.3868 -1.5767  0.5921
  171SOPE   H6Y19372   1.018   7.170   7.410 -1.1298  1.3131 -0.7311
  171SOPE   C3719373   0.967   6.965   7.461 -0.1295 -0.1563 -0.2316
  171SOPE   H7X19374   1.067   6.919   7.479 -0.7479 -1.9909 -1.2291
  171SOPE   H7Y19375   0.902   6.889   7.412  0.0424 -2.1344  2.3888
  171SOPE   C3819376   0.916   6.997   7.597  0.4227 -0.6134  0.2128
  171SOPE   H8X19377   0.825   7.059   7.583 -1.2556 -2.2514  3.0429
  171SOPE   H8Y19378   0.989   7.059   7.654 -0.9030  0.6927  0.5383
  171SOPE   C3919379   0.864   6.880   7.683 -0.5244  0.3280  0.1101
  171SOPE   H9X19380   0.955   6.821   7.709 -0.5768 -0.4924 -1.4524
  171SOPE   H9Y19381   0.791   6.819   7.626 -0.9125 -1.2456  2.1785
  171SOPE  C31019382   0.823   6.936   7.825  0.1774  0.8548 -0.5614
  171SOPE  H10X19383   0.754   7.021   7.805 -1.5308 -0.6173 -1.1349
  171SOPE  H10Y19384   0.910   6.974   7.882 -1.3997  3.8623  0.0633
  171SOPE  C31119385   0.757   6.835   7.926 -0.2742 -0.6859  0.1314
  171SOPE  H11X19386   0.802   6.734   7.924  1.0248 -0.1575  1.2814
  171SOPE  H11Y19387   0.658   6.812   7.881 -1.3302  3.4872 -0.1647
  171SOPE  C31219388   0.751   6.901   8.071  0.4194 -0.1613  0.6589
  171SOPE  H12X19389   0.704   7.002   8.073  0.8829  0.0778 -0.1120
  171SOPE  H12Y19390   0.857   6.924   8.096  1.2070 -1.1728 -1.4903
  171SOPE  C31319391   0.668   6.811   8.165 -0.2455 -0.5774 -0.2193
  171SOPE  H13X19392   0.703   6.706   8.155 -3.2639 -1.6788 -0.2946
  171SOPE  H13Y19393   0.568   6.813   8.115 -0.1805  0.9694 -0.3536
  171SOPE  C31419394   0.673   6.852   8.312 -0.4699 -0.7595 -0.5748
  171SOPE  H14X19395   0.666   6.962   8.324 -2.5246 -1.0032  1.0264
  171SOPE  H14Y19396   0.773   6.836   8.357 -0.7828  0.2670  0.5140
  171SOPE  C31519397   0.561   6.789   8.395 -0.1662  0.6259  0.3869
  171SOPE  H15X19398   0.582   6.680   8.395  1.5989  0.9416 -0.1749
  171SOPE  H15Y19399   0.471   6.812   8.334  0.0081  0.5430  0.0956
  171SOPE  C31619400   0.564   6.852   8.530 -0.0612 -0.1731  0.4430
  171SOPE  H16X19401   0.511   6.950   8.518 -0.2666 -0.1199  1.6997
  171SOPE  H16Y19402   0.666   6.869   8.570  0.1510  0.0542 -0.1813
  171SOPE  C31719403   0.492   6.770   8.631  0.0055 -0.7775 -0.5025
  171SOPE  H17X19404   0.469   6.820   8.727  0.1722 -2.2271  0.3205
  171SOPE  H17Y19405   0.558   6.684   8.654 -2.3539 -2.5393  0.0872
  171SOPE  C31819406   0.351   6.725   8.577 -0.3490  0.0694 -0.8789
  171SOPE  H18X19407   0.287   6.811   8.546  0.1566  0.3687 -1.1042
  171SOPE  H18Y19408   0.297   6.663   8.652  0.3965 -2.9422 -2.6635
  171SOPE  H18Z19409   0.364   6.654   8.493 -1.5280 -2.2157  0.7770
  172SOPE     N19410   1.808   0.825   6.468 -0.1244 -1.0661 -0.8774
  172SOPE   HN119411   1.880   0.749   6.473  0.5480 -0.5939 -2.5410
  172SOPE   HN219412   1.761   0.799   6.379  3.7416 -1.7602 -2.9743
  172SOPE   HN319413   1.867   0.909   6.452  0.5871 -0.9616  1.8094
  172SOPE   C1219414   1.724   0.855   6.591 -0.5736 -0.0014 -0.3249
  172SOPE  H12A19415   1.662   0.942   6.561 -1.3351 -1.0110 -1.8263
  172SOPE  H12B19416   1.803   0.881   6.664 -0.7520  0.7703 -0.4050
  172SOPE   C1119417   1.631   0.736   6.631 -0.2080  0.2007  0.3461
  172SOPE  H11A19418   1.580   0.748   6.729  0.5747 -0.9921  0.9304
  172SOPE  H11B19419   1.701   0.650   6.645  1.9912  1.8588 -0.0105
  172SOPE     P19420   1.390   0.776   6.527  0.3460  0.0515  0.1363
  172SOPE   O1319421   1.304   0.735   6.414 -1.1134 -0.1589  0.1068
  172SOPE   O1419422   1.383   0.920   6.554 -0.2464 -0.0045  0.5808
  172SOPE   O1219423   1.537   0.718   6.531  0.8765  0.5255 -0.5969
  172SOPE   O1119424   1.338   0.695   6.653  0.0201 -0.3072  0.0605
  172SOPE    C119425   1.247   0.757   6.740  0.0344 -0.6034 -0.7745
  172SOPE    HA19426   1.210   0.676   6.806  0.6471  0.0028  0.3394
  172SOPE    HB19427   1.167   0.807   6.682 -0.7790 -1.2803 -0.2703
  172SOPE    C219428   1.305   0.857   6.845  0.4099  0.3402 -0.4403
  172SOPE    HS19429   1.361   0.938   6.794 -0.9512  2.0953  0.7427
  172SOPE   O2119430   1.385   0.789   6.936  0.1056  0.3035  0.1510
  172SOPE   C2119431   1.496   0.844   6.975 -0.3382  0.6631 -0.7393
  172SOPE   O2219432   1.537   0.956   6.947 -0.2450  0.1555  0.6222
  172SOPE   C2219433   1.558   0.761   7.078  0.2459 -0.7844 -0.0248
  172SOPE   H2R19434   1.650   0.812   7.112  0.0374 -1.1076  1.0527
  172SOPE   H2S19435   1.599   0.673   7.024  2.6157 -1.1745  2.2308
  172SOPE    C319436   1.196   0.935   6.931 -0.0847  0.3547  0.1149
  172SOPE    HX19437   1.143   0.856   6.988  0.9300  0.2538  0.9458
  172SOPE    HY19438   1.130   0.993   6.863  3.7654  2.7833 -1.9187
  172SOPE   O3119439   1.249   1.019   7.040 -0.0689 -0.5094  0.8153
  172SOPE   C3119440   1.289   1.138   7.005 -0.5387 -0.2897 -0.8005
  172SOPE   O3219441   1.272   1.199   6.905  0.2202 -0.0557  0.1387
  172SOPE   C3219442   1.381   1.194   7.122 -0.1853 -0.9869 -0.5559
  172SOPE   H2X19443   1.437   1.285   7.090  0.1234 -0.9195  0.1542
  172SOPE   H2Y19444   1.451   1.109   7.141 -2.2521 -2.9408 -1.2092
  172SOPE   C2319445   1.474   0.720   7.194 -0.0158 -0.4387  0.1768
  172SOPE   H3R19446   1.525   0.636   7.246  0.2092  0.3438  1.2577
  172SOPE   H3S19447   1.378   0.676   7.160 -0.4704  1.0929 -0.6204
  172SOPE   C2419448   1.434   0.821   7.303  0.0099 -0.6807 -0.2218
  172SOPE   H4R19449   1.525   0.869   7.346 -1.9412  1.8675  1.3046
  172SOPE   H4S19450   1.370   0.902   7.264 -1.4854 -2.1424 -0.9197
  172SOPE   C2519451   1.368   0.744   7.426 -0.2108 -0.0148 -0.5031
  172SOPE   H5R19452   1.272   0.695   7.399  0.9472 -1.0571 -3.0000
  172SOPE   H5S19453   1.435   0.657   7.446  0.4409  0.1347 -1.9617
  172SOPE   C2619454   1.343   0.841   7.540  0.1313 -0.3487  0.0046
  172SOPE   H6R19455   1.438   0.868   7.591 -1.1289  0.1401  2.2448
  172SOPE   H6S19456   1.280   0.925   7.504  0.1976 -0.2126  0.2043
  172SOPE   C2719457   1.267   0.783   7.663 -0.2147 -0.0276  0.2597
  172SOPE   H7R19458   1.159   0.765   7.644 -0.0803 -2.0175  1.1749
  172SOPE   H7S19459   1.309   0.682   7.679 -1.1567 -0.7180 -1.3870
  172SOPE   C2819460   1.268   0.883   7.776 -0.0346  1.1463 -0.7312
  172SOPE   H8R19461   1.375   0.894   7.804 -0.0235 -1.5721  0.6214
  172SOPE   H8S19462   1.238   0.982   7.735 -0.0388  1.8063  0.7852
  172SOPE   C2919463   1.176   0.829   7.886  0.0538 -0.3469  0.7041
  172SOPE   H9119464   1.070   0.826   7.857  0.2108 -1.0455  0.1871
  172SOPE  C21019465   1.217   0.791   8.005  0.3289 -0.8623  0.0221
  172SOPE  H10119466   1.141   0.761   8.079  1.4651 -2.0434  0.7471
  172SOPE  C21119467   1.354   0.804   8.057 -0.3160  0.2757 -0.2627
  172SOPE  H11R19468   1.436   0.863   8.011 -0.6299  1.5050  0.6790
  172SOPE  H11S19469   1.401   0.704   8.066 -2.3520 -0.6772  0.2923
  172SOPE  C21219470   1.358   0.849   8.199 -0.0417  0.2395  0.1136
  172SOPE  H12R19471   1.280   0.805   8.266  0.5635  1.1071  1.4332
  172SOPE  H12S19472   1.332   0.956   8.190  0.0977  0.1237 -2.1591
  172SOPE  C21319473   1.494   0.835   8.270 -0.4185  0.6222 -0.7128
  172SOPE  H13R19474   1.569   0.910   8.234  0.4300  1.3010  2.2404
  172SOPE  H13S19475   1.538   0.734   8.255  1.3116  1.3779 -1.0058
  172SOPE  C21419476   1.492   0.872   8.424  0.6716  1.3206 -0.0318
  172SOPE  H14R19477   1.425   0.801   8.478  2.4298  0.3122  0.9512
  172SOPE  H14S19478   1.472   0.981   8.431  2.5149  1.8573 -2.1292
  172SOPE  C21519479   1.627   0.851   8.488 -0.3470  0.3373 -0.0509
  172SOPE  H15R19480   1.694   0.922   8.436 -0.4095  0.5818  0.1988
  172SOPE  H15S19481   1.657   0.745   8.473  0.3079  0.3897  0.8321
  172SOPE  C21619482   1.620   0.889   8.641 -0.3252  0.0255 -0.6469
  172SOPE  H16R19483   1.550   0.819   8.691 -0.1811  0.0245 -0.4499
  172SOPE  H16S19484   1.607   0.997   8.666  2.0338  0.3772 -0.7279
  172SOPE  C21719485   1.760   0.857   8.701  0.1587  0.0827 -0.7184
  172SOPE  H17R19486   1.775   0.747   8.695  0.0496  0.1180 -1.8479
  172SOPE  H17S19487   1.762   0.888   8.808  1.9931  0.2614 -0.7782
  172SOPE  C21819488   1.876   0.938   8.635 -0.4447 -0.4100  0.5973
  172SOPE  H18R19489   1.970   0.903   8.684 -2.0048 -0.6002  3.6859
  172SOPE  H18S19490   1.863   1.047   8.653  0.1012 -0.6033  2.4101
  172SOPE  H18T19491   1.882   0.924   8.525  0.1052  1.6155  0.3322
  172SOPE   C3319492   1.319   1.216   7.265 -0.2167  0.6444 -0.1525
  172SOPE   H3X19493   1.247   1.134   7.285 -1.6584  1.9903  0.3590
  172SOPE   H3Y19494   1.259   1.309   7.277 -1.4146 -0.1653  0.3067
  172SOPE   C3419495   1.428   1.213   7.375 -0.1264  0.1809  1.3485
  172SOPE   H4X19496   1.494   1.301   7.357 -1.7122  1.0931 -0.3792
  172SOPE   H4Y19497   1.487   1.120   7.361 -0.9302 -0.1684  0.0751
  172SOPE   C3519498   1.368   1.232   7.513 -0.2477  0.6503  0.0845
  172SOPE   H5X19499   1.329   1.132   7.539 -0.5032  1.0778  1.3891
  172SOPE   H5Y19500   1.276   1.293   7.504  0.6948  2.0491 -0.5689
  172SOPE   C3619501   1.467   1.289   7.613 -0.7662 -0.3765  0.1114
  172SOPE   H6X19502   1.470   1.394   7.577  1.3778  0.7457  3.1660
  172SOPE   H6Y19503   1.564   1.240   7.591 -1.1932 -0.2739 -2.3315
  172SOPE   C3719504   1.424   1.277   7.753 -0.3012 -0.4646 -0.2290
  172SOPE   H7X19505   1.514   1.295   7.815 -0.4390  0.2986 -0.2347
  172SOPE   H7Y19506   1.397   1.171   7.773 -1.5145  0.0695  1.1958
  172SOPE   C3819507   1.299   1.356   7.799  0.4147 -0.1018 -0.0410
  172SOPE   H8X19508   1.285   1.324   7.905 -0.3594  1.3260  0.3061
  172SOPE   H8Y19509   1.207   1.324   7.746 -0.6191 -1.4979  2.3892
  172SOPE   C3919510   1.324   1.505   7.789  0.2597  0.5674 -0.4273
  172SOPE   H9X19511   1.341   1.531   7.683 -2.0057  2.4418 -0.4148
  172SOPE   H9Y19512   1.415   1.527   7.849  0.4067 -0.3731 -0.2920
  172SOPE  C31019513   1.197   1.581   7.835  0.4066 -0.5654  0.5530
  172SOPE  H10X19514   1.117   1.537   7.772  0.6452  0.8031 -0.7680
  172SOPE  H10Y19515   1.208   1.685   7.797  3.2038 -0.4378  1.4363
  172SOPE  C31119516   1.155   1.578   7.981  0.1459 -0.1565  0.0898
  172SOPE  H11X19517   1.115   1.478   8.008  1.4952 -0.1314  2.4516
  172SOPE  H11Y19518   1.084   1.664   7.974  0.3210  0.0962  1.2787
  172SOPE  C31219519   1.254   1.614   8.085  0.6285  0.3024 -0.7385
  172SOPE  H12X19520   1.303   1.713   8.074  1.7575 -0.1730 -0.1290
  172SOPE  H12Y19521   1.337   1.541   8.080  1.1814  1.0068 -2.0540
  172SOPE  C31319522   1.203   1.629   8.237 -0.1890 -0.2331  0.6357
  172SOPE  H13X19523   1.164   1.527   8.258 -1.2799  0.1398  0.4679
  172SOPE  H13Y19524   1.111   1.692   8.233  0.1029  0.1758  0.2852
  172SOPE  C31419525   1.311   1.684   8.326  0.3106 -0.3714 -0.1070
  172SOPE  H14X19526   1.317   1.794   8.311 -0.8146  0.1101  2.4778
  172SOPE  H14Y19527   1.407   1.644   8.287 -0.4194 -0.2012 -2.2079
  172SOPE  C31519528   1.287   1.665   8.478  0.0721 -1.0279 -0.6540
  172SOPE  H15X19529   1.293   1.557   8.504 -0.5066 -0.6990  0.9776
  172SOPE  H15Y19530   1.180   1.691   8.491 -0.1727 -1.9784 -0.6563
  172SOPE  C31619531   1.376   1.752   8.573 -0.5571  0.2446 -0.1004
  172SOPE  H16X19532   1.484   1.737   8.554 -0.3160 -1.5050  2.1948
  172SOPE  H16Y19533   1.355   1.740   8.682  0.5665  0.0776  0.1072
  172SOPE  C31719534   1.371   1.906   8.561  0.6992 -0.5044  0.4069
  172SOPE  H17X19535   1.393   1.938   8.456 -1.8045 -1.9847 -0.6462
  172SOPE  H17Y19536   1.452   1.943   8.628  0.0645 -0.4154  1.1329
  172SOPE  C31819537   1.238   1.955   8.614  0.2333 -0.7992 -0.5180
  172SOPE  H18X19538   1.233   2.066   8.624 -2.3181 -0.9163 -0.0683
  172SOPE  H18Y19539   1.215   1.915   8.715  3.0544 -2.2989 -0.3425
  172SOPE  H18Z19540   1.150   1.930   8.551  0.7136  2.6141 -2.8370
  173SAPI   C1219541   4.254   4.181  10.742 -0.0578  0.2678  0.1792
  173SAPI    H219542   4.271   4.206  10.635  1.9367 -1.1094  0.1233
  173SAPI    O219543   4.186   4.052  10.741  0.2974 -0.5994 -0.3533
  173SAPI   HO219544   4.116   4.055  10.675  0.6330 -2.0265 -0.8193
  173SAPI   C1319545   4.394   4.168  10.816  0.4065 -0.6690 -0.2655
  173SAPI    H319546   4.453   4.262  10.816 -0.7553  0.1008  1.2810
  173SAPI    O319547   4.466   4.063  10.755 -0.5791  0.4305 -0.2756
  173SAPI   HO319548   4.528   4.094  10.688  2.0435 -1.3503  1.1341
  173SAPI   C1419549   4.373   4.136  10.960  0.0716  0.6418 -0.6323
  173SAPI    H419550   4.325   4.037  10.971  1.1421  0.1755 -0.0635
  173SAPI    O419551   4.505   4.132  11.022  0.6828 -0.8100  0.6933
  173SAPI   HO419552   4.527   4.045  11.058  2.0297 -1.2164 -0.9726
  173SAPI   C1519553   4.283   4.235  11.035 -0.6803 -0.3586 -0.8200
  173SAPI    H519554   4.337   4.331  11.024 -1.7766  0.1615 -1.9962
  173SAPI    O519555   4.255   4.201  11.170  0.1334  0.3656 -0.3075
  173SAPI   HO519556   4.181   4.260  11.188 -0.8633 -0.4748 -1.5554
  173SAPI   C1619557   4.153   4.243  10.964  0.4416 -0.0193  0.0379
  173SAPI    H619558   4.086   4.155  10.966 -0.1221  0.3652 -1.1909
  173SAPI    O619559   4.066   4.348  11.022  0.3013 -0.0487 -0.5087
  173SAPI   HO619560   4.017   4.398  10.956 -0.3375  0.4448  0.3193
  173SAPI   C1119561   4.163   4.276  10.816 -0.2887 -0.9938  0.1780
  173SAPI    H119562   4.218   4.372  10.807  0.4087 -1.4033 -0.0973
  173SAPI     P19563   3.970   4.422  10.698  0.1926  0.5164  0.1718
  173SAPI   O1319564   3.963   4.506  10.818 -0.8504  0.4171  0.2441
  173SAPI   O1419565   3.842   4.387  10.635  0.0306 -0.0847 -0.4312
  173SAPI   O1219566   4.039   4.283  10.746  0.8319 -0.3167  0.5560
  173SAPI   O1119567   4.082   4.471  10.592 -0.2667 -0.0113  0.2902
  173SAPI    C119568   4.060   4.461  10.448 -0.2211 -0.0749  0.3139
  173SAPI    HA19569   4.126   4.383  10.404  0.1890 -0.2813  1.2675
  173SAPI    HB19570   3.961   4.425  10.415  0.0032 -0.0093 -0.4534
  173SAPI    C219571   4.085   4.599  10.395 -0.0009  0.3911  0.1269
  173SAPI    HS19572   4.004   4.670  10.423 -0.4607 -0.3618  0.7406
  173SAPI   O2119573   4.101   4.586  10.255 -0.4340  0.4530  0.4009
  173SAPI   C2119574   3.983   4.579  10.192 -0.2379 -0.1576  0.7142
  173SAPI   O2219575   3.877   4.602  10.235  0.3195 -0.5764 -0.8223
  173SAPI   C2219576   4.013   4.547  10.039 -0.2635 -0.1675 -0.4646
  173SAPI   H2R19577   4.085   4.621   9.999  0.6371 -0.7547  0.0427
  173SAPI   H2S19578   4.054   4.444  10.044 -0.5187 -0.2212  3.0165
  173SAPI    C319579   4.208   4.663  10.457 -0.2451  0.0773  0.1818
  173SAPI    HX19580   4.293   4.596  10.436 -1.1259 -1.2937  0.8109
  173SAPI    HY19581   4.207   4.663  10.568  1.3202  0.0737  0.2139
  173SAPI   O3119582   4.219   4.802  10.405  0.4459  0.1411 -0.3011
  173SAPI   C3119583   4.328   4.829  10.337  1.2435 -0.2463 -0.0033
  173SAPI   O3219584   4.424   4.761  10.317 -0.2048 -0.5758 -0.2189
  173SAPI   C3219585   4.312   4.974  10.283  0.8990  0.2225 -0.2815
  173SAPI   H2X19586   4.384   5.039  10.337 -0.0751  2.0057 -1.0533
  173SAPI   H2Y19587   4.210   5.013  10.300  1.2600  1.8496 -1.5685
  173SAPI   C2319588   3.884   4.555   9.949 -0.0231  0.0195 -0.5464
  173SAPI   H3R19589   3.920   4.579   9.847  0.6620  1.3031 -0.0253
  173SAPI   H3S19590   3.822   4.641   9.983  1.1977  0.4817  0.5847
  173SAPI   C2419591   3.802   4.429   9.967 -0.2948  0.0681 -0.1204
  173SAPI   H4R19592   3.786   4.420  10.077  0.5799  1.1182  0.1147
  173SAPI   H4S19593   3.860   4.343   9.927  0.7774  0.5993  0.2293
  173SAPI   C2519594   3.661   4.428   9.903 -0.3327  1.1084 -0.0016
  173SAPI   H5R19595   3.582   4.461   9.973  2.4142  0.0694  3.8754
  173SAPI   C2619596   3.625   4.376   9.788  0.1063 -0.3241 -0.1382
  173SAPI   H6R19597   3.522   4.387   9.751 -0.5435  2.3899  2.0701
  173SAPI   C2719598   3.724   4.312   9.699 -0.6241 -0.4038  0.4518
  173SAPI   H7R19599   3.823   4.363   9.701  0.5278 -2.5267  1.7603
  173SAPI   H7S19600   3.681   4.330   9.599  1.5546 -0.4921 -0.5652
  173SAPI   C2819601   3.751   4.166   9.716  0.1556 -1.0453  0.4040
  173SAPI   H8R19602   3.795   4.138   9.813  1.2708  0.1697  0.2750
  173SAPI   C2919603   3.756   4.068   9.632 -0.1857 -0.2638  0.7472
  173SAPI   H9R19604   3.783   3.972   9.679 -0.4874 -0.1708  1.1204
  173SAPI  C21019605   3.730   4.065   9.485  0.8109 -0.2620  1.1088
  173SAPI  H10R19606   3.784   3.983   9.435 -0.2379 -0.8624  0.9241
  173SAPI  H10S19607   3.761   4.158   9.432  1.3890 -0.3578  1.2768
  173SAPI  C21119608   3.582   4.043   9.462  0.4505 -0.2768  0.7309
  173SAPI  H11R19609   3.517   4.085   9.541  0.3741  2.0055 -0.4480
  173SAPI  C21219610   3.524   3.966   9.363  0.0888 -0.4276 -0.4626
  173SAPI  H12R19611   3.419   3.942   9.385  0.0011  1.1953  1.1023
  173SAPI  C21319612   3.599   3.888   9.256  0.2105 -0.5242  0.1341
  173SAPI  H13R19613   3.675   3.820   9.300 -0.5850 -0.1671  2.1466
  173SAPI  H13S19614   3.665   3.961   9.204  0.9394 -0.2354  1.4284
  173SAPI  C21419615   3.529   3.802   9.161  0.4017  0.3192  0.3245
  173SAPI  H14R19616   3.507   3.701   9.197  2.6450 -0.8660 -1.4051
  173SAPI  C21519617   3.511   3.820   9.027 -0.7040 -0.4778 -0.0522
  173SAPI  H15R19618   3.449   3.749   8.969  0.6810 -1.5439 -0.2692
  173SAPI  C21619619   3.548   3.948   8.952 -0.1390  0.5672  0.3954
  173SAPI  H16R19620   3.649   3.923   8.912 -0.2097  1.1199 -0.1477
  173SAPI  H16S19621   3.560   4.046   9.004  1.5421 -1.6128  4.5742
  173SAPI  C21719622   3.455   3.966   8.830 -0.2760  0.1913  0.3997
  173SAPI  H17R19623   3.437   3.872   8.773 -0.0519  1.1840 -1.3751
  173SAPI  H17S19624   3.516   4.027   8.760 -0.3791  0.3434  0.4431
  173SAPI  C21819625   3.332   4.047   8.860 -0.0996  0.4621  0.7656
  173SAPI  H18R19626   3.355   4.134   8.925  2.0333  0.6385 -0.1500
  173SAPI  H18S19627   3.262   3.978   8.913 -0.4730 -1.0892 -1.6061
  173SAPI  C21919628   3.257   4.098   8.735  0.5912 -0.1038 -0.3595
  173SAPI  H19R19629   3.165   4.138   8.782  1.3538 -1.3406  2.3886
  173SAPI  H19S19630   3.242   4.020   8.657  3.2939 -0.9739 -0.1330
  173SAPI  C22019631   3.339   4.201   8.665 -0.8410  0.2479  0.0558
  173SAPI  H20R19632   3.415   4.159   8.596 -0.7204  0.5235  0.0175
  173SAPI  H20S19633   3.391   4.276   8.729 -0.0657  0.5151 -0.8599
  173SAPI  H20T19634   3.269   4.256   8.598 -0.2637 -2.6789 -3.2529
  173SAPI   C3319635   4.341   4.967  10.130  0.1431  0.2918  0.0983
  173SAPI   H3X19636   4.443   4.925  10.115 -0.7889 -1.3413 -2.2421
  173SAPI   H3Y19637   4.337   5.071  10.089  1.1606  1.1294  1.9429
  173SAPI   C3419638   4.241   4.878  10.043  0.1056 -0.0065  0.3371
  173SAPI   H4X19639   4.144   4.881  10.096  0.3201  3.9801  0.7819
  173SAPI   H4Y19640   4.289   4.778  10.052 -0.5481 -0.2972  0.6540
  173SAPI   C3519641   4.230   4.910   9.890 -0.3809  0.3343  0.2239
  173SAPI   H5X19642   4.326   4.949   9.851  0.1896 -3.1328 -2.3698
  173SAPI   H5Y19643   4.158   4.990   9.863  0.5175  0.4735 -1.9820
  173SAPI   C3619644   4.206   4.775   9.819  0.1599 -0.9536  0.1929
  173SAPI   H6X19645   4.103   4.741   9.844 -0.2747 -0.1548 -0.4855
  173SAPI   H6Y19646   4.266   4.691   9.861  2.3013  0.4294  0.0320
  173SAPI   C3719647   4.209   4.781   9.664  0.3052 -0.6932  0.2050
  173SAPI   H7X19648   4.312   4.803   9.630  0.4467  0.7161  1.4348
  173SAPI   H7Y19649   4.134   4.856   9.631 -0.1459 -1.5680 -0.7997
  173SAPI   C3819650   4.168   4.648   9.608 -0.0150 -0.0278 -0.3041
  173SAPI   H8X19651   4.066   4.618   9.637 -0.9090  2.6042 -0.5143
  173SAPI   H8Y19652   4.237   4.587   9.670 -0.0954 -1.2418 -1.3609
  173SAPI   C3919653   4.196   4.650   9.453  0.7605 -0.1913  0.2435
  173SAPI   H9X19654   4.148   4.742   9.414  0.0716  0.2858  2.0914
  173SAPI   H9Y19655   4.147   4.562   9.407 -1.7367  0.7912  0.8369
  173SAPI  C31019656   4.353   4.638   9.430  0.7804 -0.3231 -0.0067
  173SAPI  H10X19657   4.385   4.543   9.479  1.5554  0.2625  0.6661
  173SAPI  H10Y19658   4.420   4.715   9.474  1.4062 -0.7919 -0.1277
  173SAPI  C31119659   4.377   4.639   9.283  0.0905 -0.2366 -0.1134
  173SAPI  H11X19660   4.363   4.743   9.244  0.7539 -0.8511 -2.1439
  173SAPI  H11Y19661   4.305   4.580   9.223 -0.9786 -0.9090  1.7762
  173SAPI  C31219662   4.513   4.580   9.236 -0.5549 -0.0996 -0.1798
  173SAPI  H12X19663   4.499   4.471   9.251  0.5577 -0.2329  0.0279
  173SAPI  H12Y19664   4.596   4.622   9.296 -1.4895  2.6784 -0.7082
  173SAPI  C31319665   4.541   4.609   9.086 -0.2175  0.1748 -0.2609
  173SAPI  H13X19666   4.551   4.720   9.085 -1.2438  0.2822  0.6521
  173SAPI  H13Y19667   4.456   4.564   9.032  1.8973 -2.7728 -1.4413
  173SAPI  C31419668   4.675   4.558   9.032  0.0828  0.4049  0.1036
  173SAPI  H14X19669   4.663   4.448   9.044  3.5085 -0.1055  0.0008
  173SAPI  H14Y19670   4.771   4.584   9.083  0.1079  1.3328 -0.3910
  173SAPI  C31519671   4.691   4.581   8.883 -0.4351  0.2886 -0.0858
  173SAPI  H15X19672   4.712   4.690   8.874  0.4845  0.3740  2.2559
  173SAPI  H15Y19673   4.590   4.564   8.840  0.7232  0.3154 -3.0124
  173SAPI  C31619674   4.791   4.486   8.818  0.1098  0.1246  0.7370
  173SAPI  H16X19675   4.765   4.385   8.856 -0.6281  0.6894  1.7832
  173SAPI  H16Y19676   4.897   4.515   8.838 -0.0829  2.6322 -1.3180
  173SAPI  C31719677   4.777   4.485   8.663  0.0978  0.2034 -0.0056
  173SAPI  H17X19678   4.875   4.439   8.637  0.8451  1.1953  0.9723
  173SAPI  H17Y19679   4.772   4.585   8.615 -0.7190  0.3188  0.2980
  173SAPI  C31819680   4.657   4.406   8.614  0.6520 -0.1477 -0.0334
  173SAPI  H18X19681   4.661   4.398   8.503 -1.9805  1.1918 -0.2860
  173SAPI  H18Y19682   4.559   4.450   8.640  1.1550  0.1724  1.3906
  173SAPI  H18Z19683   4.670   4.305   8.658  0.9238  0.2237  0.7463
  174SAPI   C1219684   5.920   6.593  10.500 -0.0390 -0.2752  0.7036
  174SAPI    H219685   5.865   6.639  10.415 -2.0094 -0.5083  1.7897
  174SAPI    O219686   5.941   6.456  10.458 -0.8362 -0.1401  0.6148
  174SAPI   HO219687   5.890   6.405  10.522 -0.1261  1.1353  2.2802
  174SAPI   C1319688   6.053   6.666  10.515  0.6106  0.1203  0.1628
  174SAPI    H319689   6.033   6.772  10.544  1.1627  0.1203  0.5516
  174SAPI    O319690   6.121   6.664  10.394 -0.5214  0.1370 -0.3462
  174SAPI   HO319691   6.105   6.572  10.369 -4.2445  0.9138 -1.3354
  174SAPI   C1419692   6.121   6.591  10.618 -0.2446  0.7143  0.4009
  174SAPI    H419693   6.136   6.485  10.590  0.8399  1.2346 -1.1408
  174SAPI    O419694   6.261   6.637  10.628 -0.2409 -0.2746 -0.6021
  174SAPI   HO419695   6.260   6.733  10.617  3.0543  0.0129  0.3221
  174SAPI   C1519696   6.043   6.599  10.750  0.6467  0.1766  0.7770
  174SAPI    H519697   6.016   6.706  10.768 -0.4173 -0.0697  0.6986
  174SAPI    O519698   6.124   6.556  10.856 -0.5873  0.0863  0.1091
  174SAPI   HO519699   6.172   6.631  10.891 -0.9505  0.6748 -0.6318
  174SAPI   C1619700   5.908   6.530  10.744 -0.0068 -0.6222  0.1083
  174SAPI    H619701   5.916   6.421  10.725 -0.7735 -0.6644 -0.0034
  174SAPI    O619702   5.838   6.541  10.865  0.4068  0.2056 -0.5201
  174SAPI   HO619703   5.760   6.493  10.835  0.2356  1.1552 -1.6101
  174SAPI   C1119704   5.837   6.600  10.627 -0.0713  0.1108  0.1392
  174SAPI    H119705   5.849   6.709  10.649 -1.3479  0.4393 -0.6289
  174SAPI     P19706   5.568   6.625  10.653  0.0083 -0.1751 -0.0932
  174SAPI   O1319707   5.599   6.767  10.659 -0.4896  0.0968  0.5182
  174SAPI   O1419708   5.511   6.563  10.779 -0.9409  0.0111  0.4132
  174SAPI   O1219709   5.701   6.548  10.602 -0.4670 -0.0248 -0.7984
  174SAPI   O1119710   5.465   6.619  10.533  0.2163 -0.5637  0.0360
  174SAPI    C119711   5.454   6.495  10.463 -0.0319 -0.2979  0.5721
  174SAPI    HA19712   5.486   6.405  10.520  0.0239 -1.7051 -1.5525
  174SAPI    HB19713   5.347   6.484  10.436 -0.4511 -0.5545  2.2255
  174SAPI    C219714   5.529   6.485  10.321  0.4112 -0.4217  0.1609
  174SAPI    HS19715   5.631   6.526  10.338 -0.1877  1.2778 -0.0702
  174SAPI   O2119716   5.467   6.580  10.234 -0.0063 -0.3125 -0.4783
  174SAPI   C2119717   5.489   6.708  10.241 -0.9200 -0.9991 -0.2940
  174SAPI   O2219718   5.580   6.763  10.305  0.5145 -0.0881 -0.1470
  174SAPI   C2219719   5.399   6.786  10.146  0.3269  0.4115  0.3409
  174SAPI   H2R19720   5.298   6.742  10.156 -0.3416  1.2710 -2.0601
  174SAPI   H2S19721   5.374   6.885  10.188 -0.2512 -0.6534  2.6865
  174SAPI    C319722   5.536   6.340  10.270 -0.2172  0.4274  0.2601
  174SAPI    HX19723   5.434   6.297  10.259 -0.8903  1.8062  0.8937
  174SAPI    HY19724   5.584   6.282  10.352 -1.0357 -2.1012 -0.9416
  174SAPI   O3119725   5.623   6.323  10.153 -0.0640  0.2116 -0.4676
  174SAPI   C3119726   5.555   6.329  10.035  0.3205  0.4464 -0.3915
  174SAPI   O3219727   5.434   6.333  10.033 -0.2151 -0.1039  0.7657
  174SAPI   C3219728   5.649   6.329   9.921 -0.3314  0.0838  0.0329
  174SAPI   H2X19729   5.705   6.234   9.925  1.3594  1.0152 -0.5991
  174SAPI   H2Y19730   5.716   6.417   9.929 -0.5525  0.2633 -0.0765
  174SAPI   C2319731   5.449   6.782  10.008 -0.2351  0.2727  0.0771
  174SAPI   H3R19732   5.484   6.680   9.981  0.3802  0.7899 -1.2219
  174SAPI   H3S19733   5.539   6.843   9.983 -0.4149 -0.0005 -1.3488
  174SAPI   C2419734   5.342   6.829   9.907 -0.2518  0.2739 -0.6108
  174SAPI   H4R19735   5.330   6.940   9.910  1.1169  0.5368 -2.7977
  174SAPI   H4S19736   5.246   6.792   9.948 -0.0523 -0.6287 -0.9368
  174SAPI   C2519737   5.365   6.795   9.764 -0.4247  0.7117 -0.6086
  174SAPI   H5R19738   5.463   6.829   9.727  0.0515  1.9280  1.6423
  174SAPI   C2619739   5.289   6.720   9.687 -0.3192 -0.2970  0.8372
  174SAPI   H6R19740   5.333   6.690   9.590  0.2382  0.3523  0.8850
  174SAPI   C2719741   5.164   6.640   9.717  0.1670 -0.4118  0.3998
  174SAPI   H7R19742   5.086   6.660   9.640  0.8206  0.1774 -0.1239
  174SAPI   H7S19743   5.122   6.668   9.816 -0.2008 -0.5018  0.2720
  174SAPI   C2819744   5.212   6.497   9.730 -0.1186 -0.0905 -0.2842
  174SAPI   H8R19745   5.255   6.470   9.827  1.9395  2.3260 -0.4419
  174SAPI   C2919746   5.197   6.410   9.623  0.5127  0.3664 -1.0159
  174SAPI   H9R19747   5.233   6.308   9.641  0.1239  0.2401 -0.9436
  174SAPI  C21019748   5.132   6.444   9.490 -0.0245 -0.1989 -0.3209
  174SAPI  H10R19749   5.167   6.539   9.443  1.2109 -1.4862 -2.1531
  174SAPI  H10S19750   5.022   6.450   9.502 -0.3519  1.0749 -3.0297
  174SAPI  C21119751   5.164   6.336   9.395  0.3093  0.5804  0.3186
  174SAPI  H11R19752   5.092   6.254   9.408  0.3884  0.3833 -0.4795
  174SAPI  C21219753   5.250   6.332   9.289 -0.7808  0.0288  0.9894
  174SAPI  H12R19754   5.255   6.244   9.224 -1.3161 -0.8951  2.1703
  174SAPI  C21319755   5.341   6.442   9.245 -0.4748 -1.0970 -0.4417
  174SAPI  H13R19756   5.291   6.539   9.266  0.7350  0.2268 -3.0979
  174SAPI  H13S19757   5.346   6.445   9.134  0.5223 -0.1280 -0.3817
  174SAPI  C21419758   5.474   6.431   9.308  0.3905 -0.3376 -0.0086
  174SAPI  H14R19759   5.485   6.480   9.405 -0.6467 -1.6864  0.8249
  174SAPI  C21519760   5.583   6.370   9.255  0.1286  0.6288 -0.2753
  174SAPI  H15R19761   5.678   6.366   9.311  0.7485  1.2598 -1.2564
  174SAPI  C21619762   5.583   6.294   9.115 -0.4616 -0.1759  0.2142
  174SAPI  H16R19763   5.682   6.325   9.074 -0.0816  2.5833  2.8688
  174SAPI  H16S19764   5.495   6.323   9.053 -0.9894 -0.8613  0.6340
  174SAPI  C21719765   5.600   6.144   9.125 -0.1282  0.3949 -0.1754
  174SAPI  H17R19766   5.664   6.113   9.211  0.3846  0.8419 -0.3913
  174SAPI  H17S19767   5.656   6.109   9.036  0.9507 -0.9033  0.9680
  174SAPI  C21819768   5.464   6.066   9.141 -0.2520 -0.2733  0.5443
  174SAPI  H18R19769   5.405   6.085   9.048 -0.9174 -3.4004  0.1948
  174SAPI  H18S19770   5.415   6.111   9.230  1.2829  0.1722  1.1967
  174SAPI  C21919771   5.478   5.915   9.145 -0.3615 -1.0267  0.7085
  174SAPI  H19R19772   5.378   5.867   9.159 -0.4037 -1.6581 -1.3660
  174SAPI  H19S19773   5.546   5.892   9.230  0.1253 -0.7426  0.3977
  174SAPI  C22019774   5.536   5.844   9.015 -0.0062 -1.3190  0.1379
  174SAPI  H20R19775   5.635   5.888   8.989 -1.7325  2.0666 -1.4588
  174SAPI  H20S19776   5.469   5.860   8.928  0.1173 -1.8154 -0.0499
  174SAPI  H20T19777   5.538   5.734   9.028 -0.7088 -1.1927  1.5122
  174SAPI   C3319778   5.580   6.323   9.782 -0.2430  0.8760 -0.2400
  174SAPI   H3X19779   5.655   6.357   9.707 -0.5112 -0.7337 -1.2934
  174SAPI   H3Y19780   5.491   6.390   9.785 -0.2898  0.7881  0.4868
  174SAPI   C3419781   5.546   6.181   9.746 -0.1480  0.1806 -0.4463
  174SAPI   H4X19782   5.449   6.163   9.798  0.6278 -1.4494  0.5082
  174SAPI   H4Y19783   5.620   6.112   9.791  0.0802  1.4586  1.2422
  174SAPI   C3519784   5.563   6.158   9.593 -0.9157 -0.0793 -0.0467
  174SAPI   H5X19785   5.665   6.190   9.563 -0.6686 -1.9933 -1.4415
  174SAPI   H5Y19786   5.489   6.225   9.545  1.5826  2.2913 -0.8485
  174SAPI   C3619787   5.554   6.012   9.547 -0.4891 -0.1523 -0.5976
  174SAPI   H6X19788   5.624   5.952   9.609 -2.0292 -1.3493  0.0494
  174SAPI   H6Y19789   5.589   6.006   9.442  3.8936 -0.3705  0.7008
  174SAPI   C3719790   5.423   5.943   9.581  0.1289 -0.1182 -0.0529
  174SAPI   H7X19791   5.418   5.950   9.692  0.4540 -2.2856  0.1331
  174SAPI   H7Y19792   5.441   5.836   9.557 -0.1585  0.0447 -1.0352
  174SAPI   C3819793   5.302   6.002   9.500 -0.2498 -0.1151 -0.1855
  174SAPI   H8X19794   5.354   6.074   9.433 -0.5621 -1.8078 -2.3620
  174SAPI   H8Y19795   5.246   6.060   9.576  0.2491 -1.1498  1.0249
  174SAPI   C3919796   5.216   5.894   9.424 -0.2553  0.5528 -0.7790
  174SAPI   H9X19797   5.156   5.844   9.503  1.6515 -0.8457 -0.1428
  174SAPI   H9Y19798   5.292   5.819   9.392  0.0948  0.7950 -0.5349
  174SAPI  C31019799   5.132   5.941   9.313 -0.1799  0.7526  0.2604
  174SAPI  H10X19800   5.198   6.001   9.246 -0.7192  1.6505  0.5026
  174SAPI  H10Y19801   5.054   6.007   9.357 -1.7531 -1.2239  0.5749
  174SAPI  C31119802   5.083   5.818   9.232  0.5092 -0.5621  0.2414
  174SAPI  H11X19803   5.009   5.771   9.300 -0.9666  1.4365  0.1247
  174SAPI  H11Y19804   5.154   5.735   9.215 -0.2583 -1.2383  0.2768
  174SAPI  C31219805   4.996   5.858   9.104  0.1241 -0.1007  1.0219
  174SAPI  H12X19806   4.916   5.925   9.142 -0.3089 -0.8300  1.4310
  174SAPI  H12Y19807   4.944   5.770   9.061 -0.4871  0.4667  0.5826
  174SAPI  C31319808   5.089   5.920   8.998  0.2131  0.2852 -0.0949
  174SAPI  H13X19809   5.164   5.978   9.056 -0.4400 -0.0377  1.1205
  174SAPI  H13Y19810   5.030   5.988   8.933  1.1467 -0.7156 -2.0791
  174SAPI  C31419811   5.165   5.814   8.906  0.2625  0.2454  0.0614
  174SAPI  H14X19812   5.114   5.715   8.901 -0.2814  0.5306 -0.1355
  174SAPI  H14Y19813   5.267   5.797   8.946 -0.0624  1.6284  1.6044
  174SAPI  C31519814   5.190   5.852   8.765 -0.0294 -0.3424 -0.3412
  174SAPI  H15X19815   5.251   5.768   8.726 -1.8385 -1.4672 -0.8794
  174SAPI  H15Y19816   5.250   5.946   8.760 -1.1917  0.4590  0.1677
  174SAPI  C31619817   5.068   5.862   8.668  0.6923  0.8662 -0.0695
  174SAPI  H16X19818   5.007   5.950   8.698 -0.0711 -0.0828  1.2822
  174SAPI  H16Y19819   4.997   5.778   8.682  0.4920  0.6988 -1.8908
  174SAPI  C31719820   5.099   5.885   8.517 -0.1289 -0.0989  0.2647
  174SAPI  H17X19821   5.147   5.792   8.479  1.4817  0.4518  0.8819
  174SAPI  H17Y19822   5.182   5.958   8.505 -0.8982  0.4221 -2.8888
  174SAPI  C31819823   4.976   5.932   8.435  0.1467 -0.6688 -0.4433
  174SAPI  H18X19824   4.989   5.917   8.326 -0.3689 -3.1919 -0.2114
  174SAPI  H18Y19825   4.959   6.041   8.444  1.7192 -0.4462  0.3368
  174SAPI  H18Z19826   4.886   5.872   8.462 -0.7339  1.1336  0.8230
  175SAPI   C1219827   1.581   4.087   6.050  0.1246 -0.1291  0.3274
  175SAPI    H219828   1.643   4.023   6.117  2.3276  1.0923 -0.4306
  175SAPI    O219829   1.656   4.114   5.931 -0.1665 -0.1785  0.2092
  175SAPI   HO219830   1.719   4.178   5.965 -0.5695  0.3377 -0.0094
  175SAPI   C1319831   1.460   4.011   6.021 -0.4297 -0.0634  0.0282
  175SAPI    H319832   1.401   3.986   6.112 -1.0439 -1.2850 -0.6814
  175SAPI    O319833   1.495   3.879   5.965  0.5898  0.1524  0.2843
  175SAPI   HO319834   1.540   3.896   5.882  0.2033  1.4422  0.3254
  175SAPI   C1419835   1.363   4.092   5.936  0.3137 -0.1737  0.1480
  175SAPI    H419836   1.412   4.104   5.837 -2.4130 -1.6232 -1.4727
  175SAPI    O419837   1.243   4.027   5.900 -0.1350  0.4078  0.1787
  175SAPI   HO419838   1.227   4.059   5.811  2.7355  1.0426 -0.2064
  175SAPI   C1519839   1.334   4.228   6.007 -0.3712 -0.2573 -0.4164
  175SAPI    H519840   1.264   4.202   6.090 -0.8275  1.4789 -0.2246
  175SAPI    O519841   1.257   4.311   5.926 -0.3373  0.0568  0.2855
  175SAPI   HO519842   1.163   4.291   5.931 -0.7303  1.7296  0.3576
  175SAPI   C1619843   1.466   4.298   6.046 -0.4668  0.3925  0.1840
  175SAPI    H619844   1.520   4.329   5.954 -0.1559  1.1576  0.6196
  175SAPI    O619845   1.421   4.413   6.114 -0.3808 -0.4361 -0.1695
  175SAPI   HO619846   1.475   4.486   6.082  0.1529 -0.7458  0.0201
  175SAPI   C1119847   1.549   4.211   6.127  0.5622  0.5568  0.2636
  175SAPI    H119848   1.490   4.172   6.213  0.2240 -0.4243 -0.3929
  175SAPI     P19849   1.699   4.333   6.327  0.2986 -0.1053 -0.1787
  175SAPI   O1319850   1.604   4.441   6.357 -0.0955 -0.4443  0.7305
  175SAPI   O1419851   1.841   4.372   6.335  0.2331 -0.0508 -0.4096
  175SAPI   O1219852   1.665   4.278   6.172 -0.6599  0.1071 -0.3770
  175SAPI   O1119853   1.667   4.214   6.430  0.1396 -0.2228  0.0603
  175SAPI    C119854   1.582   4.216   6.540 -0.0997  0.2059  0.3211
  175SAPI    HA19855   1.475   4.206   6.514 -0.3630 -1.6108  1.8986
  175SAPI    HB19856   1.617   4.127   6.598  0.2341 -1.2927 -2.0668
  175SAPI    C219857   1.608   4.338   6.629 -0.1607 -0.6516  0.3750
  175SAPI    HS19858   1.541   4.420   6.595  1.8680  1.2972  0.8140
  175SAPI   O2119859   1.746   4.381   6.639  0.1027  0.3100  0.6178
  175SAPI   C2119860   1.773   4.500   6.678 -0.4007 -0.2874 -0.1989
  175SAPI   O2219861   1.701   4.593   6.709  0.3052 -0.1830 -0.1048
  175SAPI   C2219862   1.925   4.512   6.709 -0.5296 -0.4242  0.2602
  175SAPI   H2R19863   1.954   4.414   6.752 -0.2984 -1.9278 -3.0226
  175SAPI   H2S19864   1.979   4.525   6.613  0.9359 -0.1518  1.1017
  175SAPI    C319865   1.566   4.300   6.778 -0.2739  0.1294 -0.3249
  175SAPI    HX19866   1.617   4.203   6.796 -1.2648 -1.2102 -3.9304
  175SAPI    HY19867   1.457   4.281   6.767  0.0513 -3.4376  1.1807
  175SAPI   O3119868   1.591   4.395   6.879 -0.1301  0.0618 -0.3155
  175SAPI   C3119869   1.505   4.498   6.889  0.2253 -0.5953  0.5737
  175SAPI   O3219870   1.408   4.517   6.812  0.6543  0.5165 -0.3009
  175SAPI   C3219871   1.545   4.592   6.998  0.2375 -0.3751  0.7376
  175SAPI   H2X19872   1.527   4.697   6.968  1.5239 -0.4664 -0.4550
  175SAPI   H2Y19873   1.654   4.581   7.019  0.7336 -1.0867 -1.8578
  175SAPI   C2319874   1.977   4.639   6.786 -0.3364 -0.0376 -0.9698
  175SAPI   H3R19875   1.937   4.734   6.746  0.9518  1.0114  0.1171
  175SAPI   H3S19876   2.088   4.632   6.774  0.0800 -0.2963  2.1303
  175SAPI   C2419877   1.938   4.637   6.933  0.2510 -0.3064  0.3057
  175SAPI   H4R19878   1.975   4.541   6.974  0.5464 -0.7913 -1.0434
  175SAPI   H4S19879   1.829   4.656   6.938  0.3670  0.3704  0.3162
  175SAPI   C2519880   2.000   4.760   6.996 -0.0694 -0.0649 -0.0464
  175SAPI   H5R19881   2.055   4.822   6.924  1.3337 -1.1614  0.0156
  175SAPI   C2619882   1.994   4.787   7.129  0.5106 -0.5635 -0.1064
  175SAPI   H6R19883   2.053   4.874   7.160  0.6191  0.5124 -3.0081
  175SAPI   C2719884   1.921   4.708   7.236  0.4924 -0.2845 -0.5198
  175SAPI   H7R19885   1.855   4.628   7.196  1.3726 -1.3430  0.0921
  175SAPI   H7S19886   1.857   4.778   7.293  4.0819  1.7331  1.3476
  175SAPI   C2819887   2.027   4.639   7.325 -0.2746  0.3205 -0.0660
  175SAPI   H8R19888   2.109   4.583   7.278  0.5448 -0.3026  1.9939
  175SAPI   C2919889   2.019   4.641   7.458 -0.8951  0.3452  0.0285
  175SAPI   H9R19890   2.096   4.587   7.516 -0.9117  0.4088  0.1107
  175SAPI  C21019891   1.910   4.704   7.537 -0.3198  0.0783  0.4291
  175SAPI  H10R19892   1.856   4.625   7.593  1.1353 -0.1014  1.6380
  175SAPI  H10S19893   1.831   4.768   7.492  0.6062  2.2455  1.7284
  175SAPI  C21119894   1.975   4.804   7.631  0.1858 -0.2563  0.6087
  175SAPI  H11R19895   2.012   4.896   7.584 -0.4499 -0.1824  0.2511
  175SAPI  C21219896   1.983   4.800   7.766 -0.4180  0.0374  0.7277
  175SAPI  H12R19897   2.061   4.869   7.802 -0.4722  0.6161 -0.2121
  175SAPI  C21319898   1.923   4.694   7.856  0.0751  0.8895  0.1109
  175SAPI  H13R19899   1.995   4.621   7.897 -0.1094  1.0313  0.6987
  175SAPI  H13S19900   1.855   4.633   7.793  0.6389 -0.8644  1.1355
  175SAPI  C21419901   1.838   4.772   7.955  0.2873 -0.2610 -0.0299
  175SAPI  H14R19902   1.769   4.848   7.917 -2.2437 -2.9133 -1.1364
  175SAPI  C21519903   1.826   4.736   8.085 -0.0860  0.0684 -0.0321
  175SAPI  H15R19904   1.745   4.787   8.140 -2.2709 -2.1361 -0.9986
  175SAPI  C21619905   1.887   4.620   8.153  0.3366  0.4945 -0.0343
  175SAPI  H16R19906   1.998   4.627   8.160  0.6833 -1.5591 -1.9441
  175SAPI  H16S19907   1.873   4.524   8.098  4.2644  0.0778 -0.5937
  175SAPI  C21719908   1.833   4.595   8.294 -0.1854 -0.0940  0.6662
  175SAPI  H17R19909   1.823   4.694   8.344 -0.8364  0.8874 -1.3281
  175SAPI  H17S19910   1.905   4.525   8.341 -0.4041 -1.0880 -0.4375
  175SAPI  C21819911   1.690   4.535   8.294 -0.1118  0.0831 -0.2987
  175SAPI  H18R19912   1.688   4.436   8.244 -0.9509 -1.0421  1.8414
  175SAPI  H18S19913   1.624   4.609   8.244 -0.6208  0.0474  0.3132
  175SAPI  C21919914   1.651   4.519   8.443  0.0807  0.3408  0.0508
  175SAPI  H19R19915   1.674   4.613   8.498  2.4479 -1.0296  1.5985
  175SAPI  H19S19916   1.716   4.444   8.492 -0.5827  0.0607  0.5075
  175SAPI  C22019917   1.507   4.487   8.463 -0.4970  0.0088 -0.2160
  175SAPI  H20R19918   1.485   4.483   8.572  1.1667 -0.6126  0.1448
  175SAPI  H20S19919   1.475   4.388   8.423  0.9188 -0.2570 -0.7530
  175SAPI  H20T19920   1.449   4.562   8.406  0.1456  1.1498  0.5918
  175SAPI   C3319921   1.460   4.562   7.121 -0.1369  0.1148  0.2613
  175SAPI   H3X19922   1.477   4.454   7.139  2.5238  0.2110 -1.2264
  175SAPI   H3Y19923   1.355   4.587   7.095  0.4994  2.0136 -0.6414
  175SAPI   C3419924   1.500   4.644   7.245  0.1318  0.3367 -0.3646
  175SAPI   H4X19925   1.478   4.752   7.234  0.7638  0.5061  0.0140
  175SAPI   H4Y19926   1.610   4.635   7.256 -0.1700 -0.3155  3.0972
  175SAPI   C3519927   1.436   4.580   7.364 -0.2215  0.3117  0.0846
  175SAPI   H5X19928   1.459   4.472   7.374 -0.0650  0.4312  1.1410
  175SAPI   H5Y19929   1.327   4.583   7.343 -0.2616 -1.8609 -0.1987
  175SAPI   C3619930   1.468   4.657   7.494 -0.6562  0.1265 -0.0195
  175SAPI   H6X19931   1.434   4.763   7.492 -1.2458 -0.0603 -1.3044
  175SAPI   H6Y19932   1.577   4.664   7.513 -0.2407 -0.5210 -1.9352
  175SAPI   C3719933   1.397   4.600   7.617 -0.3104  0.0638 -0.5078
  175SAPI   H7X19934   1.405   4.490   7.608 -0.1463 -0.0855  1.1198
  175SAPI   H7Y19935   1.288   4.619   7.625 -0.1840  0.4627  0.5510
  175SAPI   C3819936   1.463   4.648   7.749  0.5016  0.0965  0.6455
  175SAPI   H8X19937   1.457   4.757   7.770  0.5318 -0.0078  1.2139
  175SAPI   H8Y19938   1.571   4.652   7.724 -0.0328  3.0473 -1.8402
  175SAPI   C3919939   1.429   4.554   7.875  0.1136 -0.1955 -0.0404
  175SAPI   H9X19940   1.518   4.567   7.939 -1.4440  1.0952  1.9748
  175SAPI   H9Y19941   1.418   4.448   7.845  0.4994 -0.9727  2.3787
  175SAPI  C31019942   1.315   4.596   7.970 -0.5001 -0.2922  0.1319
  175SAPI  H10X19943   1.225   4.583   7.906  0.7045 -1.6157 -1.4050
  175SAPI  H10Y19944   1.328   4.695   8.018 -2.3858 -1.2407  2.8464
  175SAPI  C31119945   1.309   4.489   8.075 -0.2303  0.1709  0.7729
  175SAPI  H11X19946   1.409   4.498   8.123  0.6807  1.1982 -1.1520
  175SAPI  H11Y19947   1.310   4.389   8.026  0.8656  0.2412  0.6231
  175SAPI  C31219948   1.193   4.508   8.169  0.8572  0.0229  0.4640
  175SAPI  H12X19949   1.092   4.525   8.125  0.3141  1.0922  2.0003
  175SAPI  H12Y19950   1.206   4.600   8.231 -1.5054  0.4294  0.4708
  175SAPI  C31319951   1.177   4.385   8.258 -0.0889 -0.1414  0.1411
  175SAPI  H13X19952   1.260   4.395   8.332  0.7290  0.5357 -0.8393
  175SAPI  H13Y19953   1.205   4.290   8.208  0.8105 -0.3389  0.9793
  175SAPI  C31419954   1.043   4.370   8.336  0.2255 -0.0451 -0.9431
  175SAPI  H14X19955   0.961   4.374   8.262  1.8262  0.1585 -2.7874
  175SAPI  H14Y19956   1.032   4.467   8.390 -0.2014 -0.0310 -1.0525
  175SAPI  C31519957   1.032   4.244   8.430  0.0898 -0.1172 -0.7353
  175SAPI  H15X19958   1.133   4.216   8.467 -0.1579  0.0667  0.1031
  175SAPI  H15Y19959   0.988   4.161   8.371 -2.3925  0.2269  0.4873
  175SAPI  C31619960   0.927   4.265   8.548 -0.3137 -0.1133 -0.0203
  175SAPI  H16X19961   0.840   4.311   8.498  0.3252 -0.0034 -1.0750
  175SAPI  H16Y19962   0.976   4.333   8.621  0.4064 -0.7958  0.1491
  175SAPI  C31719963   0.900   4.133   8.614  0.1925 -0.4899  0.4759
  175SAPI  H17X19964   0.990   4.070   8.628 -0.7641 -2.6343 -2.1385
  175SAPI  H17Y19965   0.843   4.073   8.539  0.9084 -0.5860  0.0013
  175SAPI  C31819966   0.840   4.153   8.747 -0.2287 -0.0987  0.2149
  175SAPI  H18X19967   0.745   4.209   8.732  0.4179  1.1926  0.7054
  175SAPI  H18Y19968   0.911   4.201   8.818  1.6446  3.4307 -3.6199
  175SAPI  H18Z19969   0.803   4.054   8.781 -0.7012 -0.2762 -0.7682
  176SAPI   C1219970   0.670   2.250   6.114  0.4289  0.0641 -0.4082
  176SAPI    H219971   0.691   2.151   6.159 -2.1433 -1.5696 -2.4433
  176SAPI    O219972   0.794   2.293   6.068 -0.4379  0.4509  0.6728
  176SAPI   HO219973   0.845   2.317   6.146 -0.0345  2.0904 -0.0502
  176SAPI   C1319974   0.574   2.219   6.001  0.3010  0.2744  0.0961
  176SAPI    H319975   0.478   2.172   6.031 -0.2681 -0.2888 -2.3617
  176SAPI    O319976   0.638   2.139   5.908 -0.6379 -0.2932 -0.1116
  176SAPI   HO319977   0.685   2.193   5.844  0.2345 -0.0008  0.7505
  176SAPI   C1419978   0.541   2.353   5.930  0.5798 -0.3125  0.1079
  176SAPI    H419979   0.634   2.396   5.889 -0.5985  2.0382 -0.2788
  176SAPI    O419980   0.450   2.334   5.828 -0.4345  0.0425  0.5129
  176SAPI   HO419981   0.439   2.240   5.815  0.8420  0.0945 -1.2093
  176SAPI   C1519982   0.487   2.455   6.032 -0.4029 -0.3240  0.0821
  176SAPI    H519983   0.394   2.417   6.079 -0.9210  1.4356  0.5635
  176SAPI    O519984   0.445   2.576   5.971 -0.4907 -0.1310 -0.4650
  176SAPI   HO519985   0.354   2.560   5.946 -0.3533 -1.3410 -0.2520
  176SAPI   C1619986   0.578   2.477   6.156  0.1409 -0.3288 -0.4065
  176SAPI    H619987   0.674   2.515   6.115  0.8999 -1.5023  0.1966
  176SAPI    O619988   0.523   2.570   6.255 -0.2282 -0.1617 -0.8054
  176SAPI   HO619989   0.590   2.632   6.286  0.5646 -0.2319 -2.2983
  176SAPI   C1119990   0.600   2.340   6.219 -0.1573 -0.8218 -0.0482
  176SAPI    H119991   0.498   2.302   6.241 -0.1619 -0.2367  0.9908
  176SAPI     P19992   0.676   2.230   6.451 -0.1990 -0.1969 -0.1070
  176SAPI   O1319993   0.807   2.231   6.517  0.6219 -0.4273 -0.0573
  176SAPI   O1419994   0.627   2.102   6.397 -0.3261 -0.0656  0.5147
  176SAPI   O1219995   0.688   2.339   6.335  0.6825 -0.3376  0.6804
  176SAPI   O1119996   0.574   2.292   6.545 -0.0119 -0.0234 -0.3859
  176SAPI    C119997   0.570   2.428   6.592 -0.9112 -0.1760  0.2044
  176SAPI    HA19998   0.655   2.482   6.545 -1.0016 -2.2169 -2.5452
  176SAPI    HB19999   0.474   2.477   6.566 -0.2215  1.2696  0.2587
  176SAPI    C220000   0.583   2.435   6.747  0.0949 -0.5693 -0.1775
  176SAPI    HS20001   0.682   2.396   6.779 -1.3463 -2.3782  2.5121
  176SAPI   O2120002   0.477   2.358   6.805  0.3752 -0.4319 -0.2889
  176SAPI   C2120003   0.506   2.234   6.852 -0.0118  0.2132 -0.0375
  176SAPI   O2220004   0.616   2.188   6.861 -0.6678  0.3961 -0.2475
  176SAPI   C2220005   0.375   2.164   6.876 -0.8443 -0.1339 -0.0329
  176SAPI   H2R20006   0.298   2.237   6.911  1.1463  0.8541  2.5943
  176SAPI   H2S20007   0.350   2.122   6.776  0.5465  2.1526 -1.4597
  176SAPI    C320008   0.581   2.577   6.813  0.2704  0.0152 -0.5563
  176SAPI    HX20009   0.475   2.609   6.804  0.0047 -0.6748 -0.0115
  176SAPI    HY20010   0.641   2.650   6.754 -1.5236  0.5896 -1.7480
  176SAPI   O3120011   0.630   2.557   6.947 -0.4804 -0.6056  0.0806
  176SAPI   C3120012   0.543   2.543   7.039  0.6681 -0.7129 -0.1807
  176SAPI   O3220013   0.423   2.562   7.034  0.0282  0.3435 -0.2049
  176SAPI   C3220014   0.620   2.516   7.167 -0.8900 -0.0122 -0.7353
  176SAPI   H2X20015   0.726   2.546   7.154 -0.6511 -1.0705 -1.3248
  176SAPI   H2Y20016   0.618   2.406   7.186 -0.1144  0.0102 -0.4982
  176SAPI   C2320017   0.382   2.044   6.972 -0.1347  0.0768 -0.2289
  176SAPI   H3R20018   0.444   1.958   6.938 -1.0917  0.0960 -2.1373
  176SAPI   H3S20019   0.280   2.001   6.979 -0.9164  1.4498 -2.2535
  176SAPI   C2420020   0.416   2.086   7.121  0.0434 -0.2662 -0.3083
  176SAPI   H4R20021   0.364   2.014   7.187 -0.0547 -0.7323 -0.8842
  176SAPI   H4S20022   0.366   2.183   7.141  1.5716  0.4897  0.0104
  176SAPI   C2520023   0.558   2.100   7.174 -0.2298  0.3855  0.5114
  176SAPI   H5R20024   0.640   2.089   7.102  0.9023  1.2544  1.6215
  176SAPI   C2620025   0.604   2.133   7.297  0.1137 -0.0257  0.3511
  176SAPI   H6R20026   0.709   2.161   7.318  0.6902 -2.5501  1.1328
  176SAPI   C2720027   0.520   2.157   7.417 -0.4644  0.3200 -0.7883
  176SAPI   H7R20028   0.424   2.104   7.399 -1.6067  1.7323  0.9093
  176SAPI   H7S20029   0.486   2.262   7.429 -0.2901  0.1344  2.1654
  176SAPI   C2820030   0.607   2.114   7.538 -0.4365 -0.8622 -0.6310
  176SAPI   H8R20031   0.687   2.043   7.515 -1.2229 -1.7373 -0.7087
  176SAPI   C2920032   0.589   2.139   7.669  0.5857  0.1704 -1.0845
  176SAPI   H9R20033   0.669   2.102   7.735  0.0372 -1.0140 -1.0656
  176SAPI  C21020034   0.475   2.216   7.730 -0.2044  0.3508  0.0119
  176SAPI  H10R20035   0.376   2.166   7.733  0.3167 -0.6858  0.5550
  176SAPI  H10S20036   0.452   2.306   7.669 -1.6596 -0.2824 -0.3940
  176SAPI  C21120037   0.527   2.251   7.867  0.5352 -0.1895 -0.0248
  176SAPI  H11R20038   0.607   2.325   7.860 -0.7705  1.1038 -4.6085
  176SAPI  C21220039   0.482   2.217   7.993 -0.4133 -0.1585 -0.0210
  176SAPI  H12R20040   0.550   2.258   8.068 -2.0144 -0.7150  1.8081
  176SAPI  C21320041   0.375   2.115   8.041 -0.6269 -0.3865  0.1158
  176SAPI  H13R20042   0.275   2.162   8.032 -1.3393 -1.8420  0.0590
  176SAPI  H13S20043   0.390   2.096   8.149 -1.6105 -3.4384 -0.1794
  176SAPI  C21420044   0.368   1.976   7.972  0.5733 -0.8126 -0.6623
  176SAPI  H14R20045   0.379   1.981   7.862  3.0555 -0.0853 -0.4415
  176SAPI  C21520046   0.323   1.860   8.027  0.4590  0.1695 -0.0388
  176SAPI  H15R20047   0.329   1.768   7.967 -2.9892 -1.0687  1.2539
  176SAPI  C21620048   0.284   1.842   8.172 -0.0483 -0.3973 -0.2584
  176SAPI  H16R20049   0.177   1.812   8.177 -0.3450  0.5030 -1.0927
  176SAPI  H16S20050   0.287   1.941   8.221  1.1602  0.2382 -1.5563
  176SAPI  C21720051   0.370   1.749   8.253  0.0884  0.4973  0.0830
  176SAPI  H17R20052   0.476   1.772   8.230  0.1242 -1.7054 -2.4695
  176SAPI  H17S20053   0.344   1.647   8.217  0.1496  0.4268  0.2377
  176SAPI  C21820054   0.349   1.767   8.410  0.0663 -0.2141  0.5013
  176SAPI  H18R20055   0.362   1.667   8.457  0.1908 -0.3103  0.2658
  176SAPI  H18S20056   0.240   1.784   8.419  0.1296 -0.2558  1.5198
  176SAPI  C21920057   0.439   1.866   8.479 -0.8952 -0.6193  0.1089
  176SAPI  H19R20058   0.417   1.966   8.435 -3.1610 -1.1972 -0.2120
  176SAPI  H19S20059   0.543   1.833   8.460 -1.1357 -1.3158 -0.0140
  176SAPI  C22020060   0.429   1.870   8.630  0.1156  0.1743 -0.6581
  176SAPI  H20R20061   0.477   1.780   8.675  0.5745  1.0869  0.7635
  176SAPI  H20S20062   0.321   1.870   8.657  0.7086 -0.9110  2.1016
  176SAPI  H20T20063   0.495   1.951   8.666  0.4324 -0.3838  0.0371
  176SAPI   C3320064   0.569   2.584   7.294  0.2926 -0.6315 -0.1681
  176SAPI   H3X20065   0.475   2.539   7.334 -0.3157  1.6143  1.1117
  176SAPI   H3Y20066   0.558   2.689   7.262 -1.8617 -0.6836  0.2329
  176SAPI   C3420067   0.667   2.577   7.411 -0.3485  0.6445 -1.0329
  176SAPI   H4X20068   0.770   2.595   7.374  1.2282  0.3669  2.7354
  176SAPI   H4Y20069   0.678   2.472   7.445  1.1541  0.5568 -1.7280
  176SAPI   C3520070   0.635   2.661   7.534 -0.1521  0.2602  0.3412
  176SAPI   H5X20071   0.538   2.635   7.581 -1.2274  0.8513 -1.4429
  176SAPI   H5Y20072   0.620   2.764   7.495  1.2647  0.5124  0.4216
  176SAPI   C3620073   0.746   2.659   7.637  0.5349  0.0089 -0.3939
  176SAPI   H6X20074   0.850   2.661   7.598  0.8376 -0.4436  0.3767
  176SAPI   H6Y20075   0.736   2.565   7.695 -3.5988  0.8118  0.5085
  176SAPI   C3720076   0.717   2.759   7.745 -0.4328 -0.1498  0.1863
  176SAPI   H7X20077   0.622   2.747   7.802 -0.6022 -3.7798 -0.6018
  176SAPI   H7Y20078   0.713   2.853   7.686 -0.1878 -0.3390 -0.1336
  176SAPI   C3820079   0.827   2.776   7.848  0.0357  0.9266 -0.2587
  176SAPI   H8X20080   0.832   2.879   7.889  1.2031  0.2704  1.3580
  176SAPI   H8Y20081   0.921   2.752   7.794 -0.2952  0.4575 -0.6445
  176SAPI   C3920082   0.799   2.685   7.969  0.3469 -0.3987 -0.0238
  176SAPI   H9X20083   0.767   2.587   7.928 -0.4875 -0.0979 -0.1123
  176SAPI   H9Y20084   0.724   2.726   8.040  0.1553  1.0609 -1.0274
  176SAPI  C31020085   0.929   2.651   8.046  0.2595 -0.4682 -0.2790
  176SAPI  H10X20086   0.975   2.742   8.089 -0.8161  0.3762 -0.8704
  176SAPI  H10Y20087   1.001   2.619   7.968  1.0128  0.7118 -0.0961
  176SAPI  C31120088   0.901   2.534   8.140 -0.5367 -0.4978 -0.3302
  176SAPI  H11X20089   0.863   2.441   8.092 -0.6453 -0.0133 -1.1988
  176SAPI  H11Y20090   0.829   2.560   8.221 -2.1662  0.0800 -1.8910
  176SAPI  C31220091   1.031   2.508   8.218 -0.5508 -0.1402 -0.1196
  176SAPI  H12X20092   1.074   2.600   8.263 -0.9160 -0.2248  0.4221
  176SAPI  H12Y20093   1.114   2.469   8.156 -1.5288 -1.1667 -0.8239
  176SAPI  C31320094   1.010   2.415   8.346 -0.1618  0.3053 -0.0542
  176SAPI  H13X20095   1.111   2.377   8.372 -0.5946 -0.1811  0.9676
  176SAPI  H13Y20096   0.952   2.329   8.305 -2.5504  0.4356  2.6853
  176SAPI  C31420097   0.945   2.477   8.471  0.2522 -0.1093  0.0751
  176SAPI  H14X20098   0.867   2.548   8.437  0.2767  0.1697  0.5829
  176SAPI  H14Y20099   1.026   2.533   8.524  1.1433 -1.7918  0.5810
  176SAPI  C31520100   0.892   2.361   8.556 -0.1231  0.4102  0.5094
  176SAPI  H15X20101   0.817   2.312   8.491  1.9616  0.5511 -2.1662
  176SAPI  H15Y20102   0.849   2.401   8.651 -3.0375 -1.5677  0.1675
  176SAPI  C31620103   0.997   2.248   8.584  0.1365  0.1031 -0.3709
  176SAPI  H16X20104   1.071   2.302   8.647  1.3804 -2.6278  0.6709
  176SAPI  H16Y20105   1.056   2.209   8.498 -1.3998 -2.6952 -0.2821
  176SAPI  C31720106   0.928   2.140   8.677 -0.5298 -0.3012  0.7988
  176SAPI  H17X20107   0.860   2.200   8.741 -0.8256  1.6890 -1.2320
  176SAPI  H17Y20108   0.997   2.080   8.740 -0.3624 -1.1481 -0.1673
  176SAPI  C31820109   0.855   2.031   8.608  0.5314  0.4968 -0.2792
  176SAPI  H18X20110   0.765   2.069   8.556 -0.5703  1.6196  2.2921
  176SAPI  H18Y20111   0.821   1.956   8.682 -0.1205  2.0133  1.0141
  176SAPI  H18Z20112   0.918   1.976   8.534 -3.0587 -1.4096 -2.2405
  177SLPC     N20113   0.717   2.159  11.057 -0.1998 -0.1302 -0.0438
  177SLPC   C1320114   0.781   2.276  10.981  0.5266 -0.3828 -0.5278
  177SLPC  H13A20115   0.867   2.235  10.930 -1.1554 -2.8745 -1.6037
  177SLPC  H13B20116   0.718   2.328  10.910  2.3736  1.0820 -1.1712
  177SLPC  H13C20117   0.809   2.349  11.055 -3.0278  1.4689 -0.7663
  177SLPC   C1420118   0.605   2.212  11.146  0.1535 -0.6544 -0.3596
  177SLPC  H14A20119   0.533   2.135  11.170  1.0739 -1.6818 -0.7796
  177SLPC  H14B20120   0.629   2.251  11.243 -0.0076 -2.7318  0.5610
  177SLPC  H14C20121   0.553   2.291  11.094 -2.6994 -0.5196  2.4126
  177SLPC   C1520122   0.812   2.101  11.159 -0.6515 -0.0690  0.2183
  177SLPC  H15A20123   0.842   2.171  11.236  1.8151 -0.3812 -0.3683
  177SLPC  H15B20124   0.760   2.019  11.206  2.3395 -2.3492 -0.1532
  177SLPC  H15C20125   0.905   2.054  11.129 -0.5824  1.2888 -1.9455
  177SLPC   C1220126   0.662   2.060  10.961 -0.6203 -0.1634  0.8154
  177SLPC  H12A20127   0.596   2.109  10.891  0.4558  0.4322  0.1826
  177SLPC  H12B20128   0.602   1.988  11.014 -2.5232 -0.6708 -1.8099
  177SLPC   C1120129   0.765   1.972  10.876  0.7109 -0.6425  0.2824
  177SLPC  H11A20130   0.842   2.046  10.845 -2.0284  2.3661  0.2041
  177SLPC  H11B20131   0.713   1.944  10.783 -2.6501  2.6106  0.9738
  177SLPC     P20132   0.730   1.744  10.976 -0.2231 -0.1627  0.1003
  177SLPC   O1320133   0.806   1.650  11.065  0.3240  0.6207  0.5203
  177SLPC   O1420134   0.599   1.794  11.028 -0.6458 -0.0846 -0.0059
  177SLPC   O1220135   0.820   1.867  10.946  0.1061 -0.2641 -0.4029
  177SLPC   O1120136   0.712   1.673  10.842  0.4666 -0.2399  0.9076
  177SLPC    C120137   0.813   1.653  10.740 -0.0767 -0.1535 -0.1218
  177SLPC    HA20138   0.858   1.751  10.712  2.6161 -0.7832  1.6345
  177SLPC    HB20139   0.890   1.590  10.789  0.2690  0.4024  0.0563
  177SLPC    C220140   0.763   1.575  10.622  0.0811 -0.0520  0.6482
  177SLPC    HS20141   0.856   1.552  10.565 -1.4360 -1.7363 -1.3293
  177SLPC   O2120142   0.665   1.650  10.546  0.0202  0.6638  0.0100
  177SLPC   C2120143   0.680   1.638  10.417 -0.2359 -0.0563 -0.7972
  177SLPC   O2220144   0.753   1.556  10.363 -0.3549  0.9324 -0.0895
  177SLPC   C2220145   0.590   1.738  10.339  0.1631 -0.3771 -0.3909
  177SLPC   H2R20146   0.558   1.829  10.394  0.3754 -0.2422 -0.4897
  177SLPC   H2S20147   0.660   1.778  10.263  0.2778 -1.2432 -0.7503
  177SLPC    C320148   0.700   1.445  10.670  0.3975  0.7706 -0.2593
  177SLPC    HX20149   0.626   1.473  10.748  0.2290 -1.7979  0.5754
  177SLPC    HY20150   0.773   1.391  10.733  0.4638 -0.5526 -1.4191
  177SLPC   O3120151   0.631   1.358  10.568  0.4309 -0.0077  0.9430
  177SLPC   C3120152   0.717   1.288  10.502 -0.9519 -0.5202  0.0001
  177SLPC   O3220153   0.840   1.292  10.514  0.2235  0.0490 -0.0493
  177SLPC   C3220154   0.658   1.224  10.387  0.7724  0.0672  0.0087
  177SLPC   H2X20155   0.612   1.293  10.313  1.1842 -1.2406 -1.5072
  177SLPC   H2Y20156   0.576   1.157  10.422  0.9542 -0.6091 -0.8461
  177SLPC   C2320157   0.475   1.672  10.263  0.4096 -0.4747 -1.2045
  177SLPC   H3R20158   0.418   1.629  10.348  1.6598  0.0055 -0.0983
  177SLPC   H3S20159   0.530   1.595  10.205  2.4544  1.5867 -2.1519
  177SLPC   C2420160   0.385   1.755  10.161  0.0020 -0.3540 -0.4635
  177SLPC   H4R20161   0.437   1.840  10.112  0.7432  0.4887  1.6574
  177SLPC   H4S20162   0.295   1.794  10.213  1.0769 -1.2307  2.2342
  177SLPC   C2520163   0.332   1.663  10.046  0.0621  0.1814 -0.1638
  177SLPC   H5R20164   0.257   1.594  10.090  0.3033  0.7606  1.1904
  177SLPC   H5S20165   0.423   1.612  10.008  0.4781  1.0350 -0.3284
  177SLPC   C2620166   0.259   1.741   9.934  0.0863  0.0102 -0.3767
  177SLPC   H6R20167   0.330   1.818   9.896  2.0004 -1.1218  0.7279
  177SLPC   H6S20168   0.169   1.793   9.974  0.8345  1.0898 -0.0360
  177SLPC   C2720169   0.217   1.648   9.826 -0.2984  0.2838 -1.1424
  177SLPC   H7R20170   0.154   1.569   9.873  1.2451  0.5346  1.5977
  177SLPC   H7S20171   0.298   1.593   9.775 -0.3215 -2.3575  1.3851
  177SLPC   C2820172   0.132   1.711   9.720  0.5847 -0.8686  0.6038
  177SLPC   H8R20173   0.058   1.778   9.769  0.2180  0.2017 -1.3295
  177SLPC   H8S20174   0.083   1.628   9.665  0.5595 -0.4450 -0.0217
  177SLPC   C2920175   0.219   1.788   9.621 -0.4297 -0.0144 -0.0745
  177SLPC   H9R20176   0.241   1.891   9.652  1.5996 -0.5947  0.6235
  177SLPC  C21020177   0.262   1.739   9.499  0.0891 -0.3146  0.7207
  177SLPC  H10R20178   0.328   1.807   9.444  1.4229 -1.8396  0.3661
  177SLPC  C21120179   0.238   1.605   9.442 -0.2366  0.9785  0.8611
  177SLPC  H11R20180   0.339   1.568   9.413 -1.1723 -0.2923 -0.9451
  177SLPC  H11S20181   0.184   1.539   9.513 -1.0259 -0.9161 -1.3845
  177SLPC  C21220182   0.161   1.607   9.310  0.4896  0.0821 -0.0263
  177SLPC  H12R20183   0.103   1.700   9.296  0.5627  0.4319  1.8186
  177SLPC  C21320184   0.178   1.529   9.203 -0.1560  0.4390 -0.6462
  177SLPC  H13R20185   0.124   1.560   9.112 -0.3857 -0.3428 -0.7863
  177SLPC  C21420186   0.266   1.407   9.193  0.7434 -0.3356 -0.1987
  177SLPC  H14R20187   0.212   1.310   9.200 -0.4107  0.3789  1.4588
  177SLPC  H14S20188   0.340   1.405   9.276 -1.3409 -2.3704  1.7537
  177SLPC  C21520189   0.334   1.409   9.057 -0.2989  0.0182  0.1505
  177SLPC  H15R20190   0.263   1.434   8.976 -2.0665 -0.1252  1.5848
  177SLPC  H15S20191   0.395   1.318   9.037 -0.3388 -0.5473  2.3687
  177SLPC  C21620192   0.445   1.523   9.035 -0.2854  0.0626 -0.2378
  177SLPC  H16R20193   0.531   1.512   9.104  0.1762 -1.3252 -1.0037
  177SLPC  H16S20194   0.394   1.621   9.047 -0.8812  0.0790 -2.3849
  177SLPC  C21720195   0.505   1.534   8.900 -0.0467  0.1364 -0.0631
  177SLPC  H17R20196   0.420   1.547   8.829  0.4240 -1.6433 -1.0241
  177SLPC  H17S20197   0.547   1.436   8.868  0.1188  0.1607  0.0815
  177SLPC  C21820198   0.614   1.646   8.886 -0.1047 -0.2169 -0.1542
  177SLPC  H18R20199   0.581   1.726   8.956  0.5646  0.1872 -0.2911
  177SLPC  H18S20200   0.615   1.675   8.778 -3.3121 -2.3000 -0.8682
  177SLPC  H18T20201   0.716   1.613   8.916 -0.0967 -0.1803 -0.1407
  177SLPC   C3320202   0.745   1.138  10.307 -0.3251  0.1965 -0.1843
  177SLPC   H3X20203   0.788   1.073  10.388  2.4499 -0.5641 -2.0973
  177SLPC   H3Y20204   0.838   1.190  10.274  0.3344 -0.6323  0.3169
  177SLPC   C3420205   0.689   1.040  10.195 -0.2555  0.3850 -0.4098
  177SLPC   H4X20206   0.653   1.098  10.107 -0.4703 -1.0251 -1.2733
  177SLPC   H4Y20207   0.603   0.982  10.235  1.3692 -0.8987  1.4324
  177SLPC   C3520208   0.802   0.945  10.143  0.6922  0.4818 -0.2888
  177SLPC   H5X20209   0.851   0.915  10.239 -1.0303  0.9705  0.7872
  177SLPC   H5Y20210   0.877   1.009  10.090 -0.5897  1.0410 -1.4769
  177SLPC   C3620211   0.759   0.828  10.052 -0.1748 -0.5089 -0.2783
  177SLPC   H6X20212   0.671   0.779  10.098 -1.6609  0.8256 -1.5771
  177SLPC   H6Y20213   0.827   0.741  10.060 -0.8621 -0.8814  2.8922
  177SLPC   C3720214   0.726   0.867   9.912 -0.1074 -0.2293 -0.2729
  177SLPC   H7X20215   0.803   0.940   9.881 -0.7728  0.3012 -0.6926
  177SLPC   H7Y20216   0.631   0.924   9.916 -0.2864 -0.5533  0.3111
  177SLPC   C3820217   0.717   0.748   9.819 -0.6547  0.0062 -0.2662
  177SLPC   H8X20218   0.637   0.676   9.846 -1.9552  1.2817 -0.6167
  177SLPC   H8Y20219   0.811   0.688   9.819 -0.2559  0.6150  0.4575
  177SLPC   C3920220   0.689   0.798   9.678 -0.6846 -0.5726  0.1047
  177SLPC   H9X20221   0.776   0.851   9.635 -0.7984 -2.3404 -2.5200
  177SLPC   H9Y20222   0.597   0.862   9.682  0.7173  1.5860 -0.2595
  177SLPC  C31020223   0.662   0.691   9.574  0.5404  1.1691 -0.3598
  177SLPC  H10X20224   0.577   0.627   9.605  0.5503  1.2975 -0.0579
  177SLPC  H10Y20225   0.747   0.620   9.577  0.4908  1.1217  1.8228
  177SLPC  C31120226   0.649   0.740   9.427 -0.3701  0.6610 -0.3382
  177SLPC  H11X20227   0.740   0.803   9.412 -0.7355  1.3719  0.3387
  177SLPC  H11Y20228   0.561   0.808   9.416 -0.9814 -0.0156  0.2605
  177SLPC  C31220229   0.629   0.633   9.322 -0.1895  0.1484  0.1845
  177SLPC  H12X20230   0.528   0.589   9.334  0.3535 -1.5717 -1.1982
  177SLPC  H12Y20231   0.705   0.554   9.342  0.2526  0.2907 -0.9030
  177SLPC  C31320232   0.649   0.678   9.175  1.0119  0.1588  1.1199
  177SLPC  H13X20233   0.750   0.722   9.164  0.6260  0.9271  0.5296
  177SLPC  H13Y20234   0.576   0.758   9.148  1.4062 -0.0288 -0.6174
  177SLPC  C31420235   0.617   0.564   9.072 -0.8670  0.5718  0.3694
  177SLPC  H14X20236   0.533   0.506   9.115 -1.2952  0.7338 -0.2261
  177SLPC  H14Y20237   0.705   0.497   9.063 -1.6610 -0.2298 -2.4812
  177SLPC  C31520238   0.579   0.606   8.926  0.4183  0.7097  0.7626
  177SLPC  H15X20239   0.666   0.660   8.881 -0.9051  2.2512 -0.0828
  177SLPC  H15Y20240   0.495   0.678   8.918  0.2686  0.4178 -0.4994
  177SLPC  C31620241   0.542   0.489   8.830 -0.3216 -0.3010 -0.0630
  177SLPC  H16X20242   0.461   0.425   8.871  0.6008 -1.2790  0.2939
  177SLPC  H16Y20243   0.638   0.434   8.821  1.8048  3.0836 -0.0110
  177SLPC  C31720244   0.483   0.549   8.702  0.0925  0.6949  0.1173
  177SLPC  H17X20245   0.562   0.616   8.663 -0.3156  1.9101  1.3125
  177SLPC  H17Y20246   0.388   0.605   8.717  0.8867  3.2775 -3.2250
  177SLPC  C31820247   0.450   0.439   8.595 -0.3851 -0.1019  0.7349
  177SLPC  H18X20248   0.536   0.369   8.589 -1.4559 -1.3435 -0.8010
  177SLPC  H18Y20249   0.427   0.484   8.496  0.7335  1.0513  0.9715
  177SLPC  H18Z20250   0.359   0.386   8.630 -0.6658 -0.9311 -1.1201
  178SLPC     N20251   3.551   5.692  11.000  0.5248 -0.0768 -1.1258
  178SLPC   C1320252   3.507   5.827  10.952  0.0476 -0.4334 -0.4206
  178SLPC  H13A20253   3.572   5.882  10.885  1.4517  1.1387  2.0697
  178SLPC  H13B20254   3.404   5.817  10.922 -0.3541 -2.6577  1.4097
  178SLPC  H13C20255   3.505   5.898  11.033 -0.8531 -2.1754  1.1637
  178SLPC   C1420256   3.444   5.636  11.093 -0.0052 -1.2339 -0.2459
  178SLPC  H14A20257   3.478   5.555  11.156  0.9511 -0.4058  0.3342
  178SLPC  H14B20258   3.405   5.712  11.159  1.6590 -0.2058 -0.3833
  178SLPC  H14C20259   3.364   5.581  11.045  0.0461 -0.6864 -0.9744
  178SLPC   C1520260   3.675   5.715  11.087  0.0852  0.0118 -0.1944
  178SLPC  H15A20261   3.703   5.618  11.126 -0.6241 -1.7694 -3.6774
  178SLPC  H15B20262   3.763   5.754  11.037  1.2689  0.7330  2.3096
  178SLPC  H15C20263   3.648   5.777  11.171 -0.4794  0.7920 -0.9315
  178SLPC   C1220264   3.585   5.595  10.892 -0.6034 -0.5229  0.7281
  178SLPC  H12A20265   3.610   5.496  10.926  0.0695 -0.4208  0.5451
  178SLPC  H12B20266   3.659   5.639  10.827 -1.5752 -1.0506 -0.8178
  178SLPC   C1120267   3.467   5.565  10.794  0.0193  0.8840 -0.8496
  178SLPC  H11A20268   3.505   5.533  10.694 -2.0921 -1.4220 -1.0026
  178SLPC  H11B20269   3.424   5.662  10.760 -0.5233  0.9812  0.0826
  178SLPC     P20270   3.401   5.320  10.865  0.0431  0.2555 -0.0509
  178SLPC   O1320271   3.544   5.296  10.844  0.1501 -0.6502 -0.2162
  178SLPC   O1420272   3.336   5.275  10.990  0.1603  0.3953 -0.2735
  178SLPC   O1220273   3.370   5.475  10.847  0.7387 -0.5558  0.3702
  178SLPC   O1120274   3.331   5.267  10.737  0.0061  0.4475  0.2954
  178SLPC    C120275   3.261   5.345  10.645  1.0211 -0.2076 -0.4595
  178SLPC    HA20276   3.188   5.406  10.703  2.3108 -0.3866  1.4378
  178SLPC    HB20277   3.331   5.411  10.589 -0.6765 -0.3233 -2.8673
  178SLPC    C220278   3.162   5.270  10.547 -0.3232  0.6482 -0.1163
  178SLPC    HS20279   3.116   5.188  10.607 -1.4953  1.2957 -0.1079
  178SLPC   O2120280   3.251   5.228  10.436 -0.2774  0.5805 -0.0299
  178SLPC   C2120281   3.191   5.140  10.359 -0.8491  0.5256  0.0474
  178SLPC   O2220282   3.088   5.082  10.385  0.8541 -0.3335 -0.4234
  178SLPC   C2220283   3.293   5.101  10.244 -0.0377 -0.1949 -0.2357
  178SLPC   H2R20284   3.394   5.082  10.287  0.5622 -0.1109 -1.5594
  178SLPC   H2S20285   3.265   4.996  10.221  1.1415 -0.6037  0.1281
  178SLPC    C320286   3.040   5.357  10.500 -0.5743 -0.7684  0.0772
  178SLPC    HX20287   2.984   5.409  10.580 -1.4973  3.2344 -2.8532
  178SLPC    HY20288   2.968   5.289  10.449 -1.0649 -1.9092  2.1611
  178SLPC   O3120289   3.090   5.459  10.412  0.8950  0.6636  0.6369
  178SLPC   C3120290   3.008   5.504  10.322 -0.3192 -0.4350 -0.1416
  178SLPC   O3220291   2.894   5.476  10.308 -0.6225  0.5754 -0.3321
  178SLPC   C3220292   3.089   5.593  10.235  0.0312 -0.3892  0.6782
  178SLPC   H2X20293   3.178   5.536  10.200  0.7253  1.2391 -0.3320
  178SLPC   H2Y20294   3.128   5.675  10.299 -1.2807  0.1013  0.8770
  178SLPC   C2320295   3.273   5.175  10.113  0.4293  0.6122 -0.5027
  178SLPC   H3R20296   3.361   5.138  10.057 -0.2621 -0.7886 -0.7217
  178SLPC   H3S20297   3.274   5.285  10.127 -1.6629  0.7951 -1.3900
  178SLPC   C2420298   3.152   5.124  10.038 -0.1747  0.1896 -0.5138
  178SLPC   H4R20299   3.072   5.167  10.102  1.4057  3.4512 -0.5622
  178SLPC   H4S20300   3.158   5.013  10.028 -1.7786  0.0488 -0.2474
  178SLPC   C2520301   3.149   5.191   9.902 -0.6117 -0.0465 -0.6502
  178SLPC   H5R20302   3.145   5.302   9.901 -0.4598 -0.0011  1.2529
  178SLPC   H5S20303   3.052   5.154   9.863 -0.9202  0.0436  0.0317
  178SLPC   C2620304   3.249   5.142   9.793 -0.7073 -0.1066 -0.3564
  178SLPC   H6R20305   3.227   5.034   9.779 -0.0033 -0.3870  0.5204
  178SLPC   H6S20306   3.351   5.154   9.836 -1.0741 -0.3807  0.6256
  178SLPC   C2720307   3.247   5.239   9.669 -0.2808 -0.3941  0.5108
  178SLPC   H7R20308   3.267   5.341   9.707  1.4514 -0.6733  0.4161
  178SLPC   H7S20309   3.144   5.251   9.628  0.0252  0.7584  0.0528
  178SLPC   C2820310   3.351   5.198   9.560  0.1492 -0.3852  0.3166
  178SLPC   H8R20311   3.335   5.097   9.517  0.1168 -1.8946  3.5928
  178SLPC   H8S20312   3.448   5.208   9.613  0.8547  2.4332 -1.2490
  178SLPC   C2920313   3.364   5.308   9.460 -0.9844  0.5745 -0.0620
  178SLPC   H9R20314   3.291   5.389   9.474 -1.3867  0.2284 -0.1679
  178SLPC  C21020315   3.424   5.297   9.344 -0.3234 -0.0587  0.5786
  178SLPC  H10R20316   3.418   5.380   9.272 -2.4084  1.1592  2.0578
  178SLPC  C21120317   3.497   5.171   9.293 -0.7165 -0.4933 -0.0957
  178SLPC  H11R20318   3.469   5.080   9.351 -0.4161  0.1641  1.1095
  178SLPC  H11S20319   3.602   5.181   9.327 -1.1385 -0.4676  1.2631
  178SLPC  C21220320   3.467   5.144   9.149 -0.9107 -0.3630  0.2450
  178SLPC  H12R20321   3.381   5.075   9.137 -0.5469 -0.9302  0.8432
  178SLPC  C21320322   3.531   5.197   9.039 -0.3856 -0.9807 -0.0685
  178SLPC  H13R20323   3.512   5.157   8.938 -1.1694  4.0152 -2.1610
  178SLPC  C21420324   3.651   5.284   9.038 -1.0683 -0.3304  0.8947
  178SLPC  H14R20325   3.690   5.302   9.140  1.4174 -1.2690  0.1653
  178SLPC  H14S20326   3.629   5.387   9.002  3.1132  0.8880  1.3624
  178SLPC  C21520327   3.764   5.217   8.942 -0.0666  0.1045 -0.7420
  178SLPC  H15R20328   3.783   5.110   8.966  1.1636  0.2685 -0.9121
  178SLPC  H15S20329   3.859   5.267   8.971 -0.2969 -0.5738  1.4221
  178SLPC  C21620330   3.728   5.224   8.796  0.5061  0.7941  0.1404
  178SLPC  H16R20331   3.628   5.187   8.768  0.3012 -0.1125  1.9433
  178SLPC  H16S20332   3.806   5.162   8.748 -0.9203 -0.6050 -0.4481
  178SLPC  C21720333   3.739   5.364   8.734  0.0197 -0.2492  0.1678
  178SLPC  H17R20334   3.842   5.401   8.750  0.4842 -1.7065  0.7264
  178SLPC  H17S20335   3.662   5.433   8.774 -0.6101 -0.8235 -0.0137
  178SLPC  C21820336   3.710   5.363   8.583  0.1100 -0.7081 -0.3623
  178SLPC  H18R20337   3.708   5.465   8.541 -0.5954 -1.1086 -1.3216
  178SLPC  H18S20338   3.607   5.324   8.568 -0.2084 -1.5590  3.1873
  178SLPC  H18T20339   3.784   5.293   8.539  2.1507  1.3500 -0.4275
  178SLPC   C3320340   3.017   5.664  10.112  0.0015 -0.4150 -0.3244
  178SLPC   H3X20341   3.062   5.764  10.093  1.9298 -1.4003 -1.2498
  178SLPC   H3Y20342   2.911   5.682  10.141  0.1243 -0.2775  0.0496
  178SLPC   C3420343   3.037   5.592   9.988  0.1940 -0.0854 -0.0081
  178SLPC   H4X20344   2.984   5.495   9.987 -0.8493  0.4550  0.9695
  178SLPC   H4Y20345   3.145   5.594   9.961  0.5347  2.1713  1.2864
  178SLPC   C3520346   2.982   5.664   9.869 -0.1897  0.4808 -0.0159
  178SLPC   H5X20347   3.003   5.773   9.872 -1.3882  0.7297 -0.1939
  178SLPC   H5Y20348   2.872   5.654   9.864 -0.1494  0.6812 -2.3432
  178SLPC   C3620349   3.033   5.601   9.737 -0.1795  0.2126  0.0995
  178SLPC   H6X20350   3.017   5.492   9.742 -1.2292  0.3373 -0.4244
  178SLPC   H6Y20351   3.144   5.605   9.731  0.1136 -3.7906  0.1931
  178SLPC   C3720352   2.978   5.665   9.604 -0.6687  0.4278 -0.6062
  178SLPC   H7X20353   3.001   5.773   9.610  0.9672  0.0401  1.9528
  178SLPC   H7Y20354   2.872   5.640   9.581 -0.6688  0.9265 -1.1590
  178SLPC   C3820355   3.061   5.616   9.481 -0.0159 -0.7535 -0.0323
  178SLPC   H8X20356   3.043   5.508   9.464  0.5769 -0.5902 -1.9676
  178SLPC   H8Y20357   3.170   5.625   9.504 -0.3172 -0.3139  1.3163
  178SLPC   C3920358   3.018   5.685   9.353 -0.4220 -0.0841  0.2335
  178SLPC   H9X20359   3.054   5.786   9.327 -0.9049 -0.7209 -3.5172
  178SLPC   H9Y20360   2.908   5.693   9.347 -0.2747  2.2399 -0.0096
  178SLPC  C31020361   3.075   5.597   9.236  0.3748  0.7407 -0.4974
  178SLPC  H10X20362   3.021   5.628   9.143 -1.5086  1.0597  0.6482
  178SLPC  H10Y20363   3.043   5.493   9.261  0.6296  0.7853  0.0155
  178SLPC  C31120364   3.228   5.601   9.219  0.5913  0.9170 -0.3143
  178SLPC  H11X20365   3.278   5.566   9.313 -1.8350  0.4946  0.9014
  178SLPC  H11Y20366   3.260   5.707   9.217  1.2675  0.7970  1.7697
  178SLPC  C31220367   3.260   5.512   9.101 -1.0541  0.0382  0.0644
  178SLPC  H12X20368   3.177   5.519   9.027 -0.0006  1.6382 -1.0332
  178SLPC  H12Y20369   3.241   5.405   9.126  0.0873 -0.5003 -1.2203
  178SLPC  C31320370   3.391   5.528   9.028 -0.5996 -0.0182  0.4372
  178SLPC  H13X20371   3.403   5.442   8.958 -0.0252 -0.5522  1.1842
  178SLPC  H13Y20372   3.481   5.516   9.092  0.5209  1.7196 -0.6920
  178SLPC  C31420373   3.412   5.657   8.947  0.0915  0.3769 -0.0546
  178SLPC  H14X20374   3.520   5.664   8.921 -0.1121  0.4767 -0.8845
  178SLPC  H14Y20375   3.381   5.746   9.007 -1.4626 -0.8541  1.0492
  178SLPC  C31520376   3.338   5.656   8.820  0.0488 -0.2061  0.3947
  178SLPC  H15X20377   3.354   5.563   8.762  2.1963  1.1374 -1.3240
  178SLPC  H15Y20378   3.229   5.662   8.841  0.1209  1.2986  0.4138
  178SLPC  C31620379   3.367   5.782   8.737 -0.5896 -0.2486  0.6882
  178SLPC  H16X20380   3.478   5.788   8.725 -0.6454 -0.1506  0.2240
  178SLPC  H16Y20381   3.332   5.870   8.795  3.3136  2.1396 -0.2261
  178SLPC  C31720382   3.312   5.776   8.589  0.3896 -1.2145 -0.2868
  178SLPC  H17X20383   3.366   5.700   8.530  2.8223  0.1239  0.0635
  178SLPC  H17Y20384   3.343   5.879   8.561  3.2627 -0.1614  5.2400
  178SLPC  C31820385   3.162   5.756   8.582 -0.5054 -0.0532  0.2829
  178SLPC  H18X20386   3.127   5.849   8.632  0.7776 -0.0395  1.2211
  178SLPC  H18Y20387   3.128   5.665   8.635  0.3552 -0.0049  0.9330
  178SLPC  H18Z20388   3.130   5.760   8.476  1.0837  3.2972 -0.2087
  179SLPC     N20389   5.021   4.455  10.356  0.6508 -0.4356  0.0497
  179SLPC   C1320390   5.111   4.500  10.239  0.1224  0.7924 -0.6046
  179SLPC  H13A20391   5.056   4.560  10.169 -0.1171  0.9652 -0.2733
  179SLPC  H13B20392   5.197   4.547  10.284  0.0588 -0.8866  1.4614
  179SLPC  H13C20393   5.152   4.413  10.190  1.3852 -0.8036  2.9043
  179SLPC   C1420394   4.951   4.570  10.413  0.3336  0.0708 -0.2533
  179SLPC  H14A20395   4.870   4.538  10.478  0.7055  0.7813  0.5862
  179SLPC  H14B20396   5.011   4.634  10.477  0.2696 -0.5870  0.4859
  179SLPC  H14C20397   4.927   4.644  10.338  0.6967  0.4270 -0.0231
  179SLPC   C1520398   5.109   4.394  10.454  0.3472 -0.0609  0.1752
  179SLPC  H15A20399   5.050   4.352  10.534 -0.4534 -1.2168 -0.9847
  179SLPC  H15B20400   5.163   4.305  10.426 -0.6381 -1.4360  2.3431
  179SLPC  H15C20401   5.185   4.458  10.496  0.9397 -0.6612  0.0335
  179SLPC   C1220402   4.918   4.363  10.298  0.1050  0.0831  0.1703
  179SLPC  H12A20403   4.975   4.291  10.241 -0.2176  1.2396 -1.6794
  179SLPC  H12B20404   4.850   4.422  10.239  1.2932  3.3298  1.8493
  179SLPC   C1120405   4.833   4.277  10.391 -0.6002  0.0663 -0.1149
  179SLPC  H11A20406   4.900   4.207  10.445 -2.0668 -0.5522  1.0149
  179SLPC  H11B20407   4.771   4.216  10.322 -0.5457 -1.4101  1.0669
  179SLPC     P20408   4.613   4.337  10.518  0.2173  0.2000 -0.0543
  179SLPC   O1320409   4.607   4.210  10.592 -0.0474  0.2456 -0.2568
  179SLPC   O1420410   4.562   4.458  10.586 -0.0647  0.5418 -0.3269
  179SLPC   O1220411   4.765   4.360  10.481  0.1298 -0.8911 -0.1705
  179SLPC   O1120412   4.535   4.323  10.374 -0.3041  0.2496 -0.2617
  179SLPC    C120413   4.533   4.437  10.292 -0.1830  0.1228 -0.4895
  179SLPC    HA20414   4.451   4.502  10.332 -0.6861 -1.0284  0.3990
  179SLPC    HB20415   4.620   4.503  10.312  0.7972 -1.4151  0.4871
  179SLPC    C220416   4.524   4.404  10.140  0.1789  0.1941 -0.0136
  179SLPC    HS20417   4.612   4.341  10.115  0.0681  0.2077 -0.4465
  179SLPC   O2120418   4.513   4.524  10.056  0.1910 -0.2002 -0.0811
  179SLPC   C2120419   4.630   4.589  10.050  0.5284  0.6600  0.5421
  179SLPC   O2220420   4.735   4.556  10.099 -0.2077  0.2271  0.1744
  179SLPC   C2220421   4.611   4.718   9.963 -0.1021  0.5163  0.5579
  179SLPC   H2R20422   4.538   4.784  10.016 -0.7545  0.1881  0.0725
  179SLPC   H2S20423   4.709   4.771   9.962 -0.0134  0.3479  0.4662
  179SLPC    C320424   4.402   4.309  10.109 -0.5020  0.2032 -0.4703
  179SLPC    HX20425   4.313   4.365  10.144 -0.0324 -0.7264  2.4249
  179SLPC    HY20426   4.411   4.223  10.179 -0.6286 -1.5429 -2.4761
  179SLPC   O3120427   4.404   4.264   9.969 -0.3849 -0.5185 -0.1866
  179SLPC   C3120428   4.282   4.228   9.933 -0.2460 -0.7107  0.6270
  179SLPC   O3220429   4.190   4.217  10.006  0.3500  0.4675 -0.1738
  179SLPC   C3220430   4.276   4.206   9.787 -0.9675 -0.7663  0.3494
  179SLPC   H2X20431   4.342   4.122   9.755 -0.3605 -0.2899  0.3337
  179SLPC   H2Y20432   4.309   4.300   9.738  0.1385 -0.4315  1.6642
  179SLPC   C2320433   4.556   4.688   9.819 -1.1833  0.0502  0.0201
  179SLPC   H3R20434   4.528   4.781   9.767  2.0831  1.5919  0.7468
  179SLPC   H3S20435   4.466   4.624   9.827 -1.2285  0.2357  1.0930
  179SLPC   C2420436   4.659   4.610   9.733  0.7954 -0.1846  1.1633
  179SLPC   H4R20437   4.608   4.559   9.649 -1.6285  0.2210  2.3098
  179SLPC   H4S20438   4.702   4.526   9.793  1.6126 -0.7723 -0.2059
  179SLPC   C2520439   4.778   4.689   9.688  0.0731  0.0067  0.2257
  179SLPC   H5R20440   4.824   4.736   9.778 -1.8301  0.8788  0.8084
  179SLPC   H5S20441   4.748   4.774   9.624 -0.9971  1.0972  2.0597
  179SLPC   C2620442   4.890   4.615   9.614  0.4713  0.3658  0.1231
  179SLPC   H6R20443   4.919   4.524   9.670 -0.1157  1.4767  2.3380
  179SLPC   H6S20444   4.979   4.682   9.612 -0.4060  1.6769  2.3228
  179SLPC   C2720445   4.844   4.577   9.467  0.4993 -0.0711 -0.2359
  179SLPC   H7R20446   4.838   4.664   9.398  2.5196  0.2452 -0.0981
  179SLPC   H7S20447   4.750   4.518   9.469  1.6022 -1.8942  1.0061
  179SLPC   C2820448   4.950   4.484   9.411 -0.6816  0.6847  0.3460
  179SLPC   H8R20449   4.948   4.390   9.470 -0.8945  0.0163 -0.7138
  179SLPC   H8S20450   5.043   4.541   9.430  0.6624 -1.6729  1.2262
  179SLPC   C2920451   4.924   4.458   9.262  0.1134  0.9550 -0.3910
  179SLPC   H9R20452   4.819   4.445   9.233  0.3787  1.1286 -1.4601
  179SLPC  C21020453   5.021   4.424   9.178 -0.2251  0.3740  0.0623
  179SLPC  H10R20454   4.988   4.397   9.077  0.1438  0.6925 -0.1425
  179SLPC  C21120455   5.166   4.422   9.209 -1.1640 -0.0429  0.2271
  179SLPC  H11R20456   5.184   4.466   9.310 -0.3561 -0.2219  0.1665
  179SLPC  H11S20457   5.212   4.503   9.149 -0.7734 -1.1472 -1.0059
  179SLPC  C21220458   5.240   4.291   9.206 -0.8605 -0.1240  0.0532
  179SLPC  H12R20459   5.173   4.210   9.236 -1.9178  0.5474 -0.4445
  179SLPC  C21320460   5.373   4.268   9.177  0.4565  0.1013 -0.5357
  179SLPC  H13R20461   5.415   4.166   9.170  0.6423  0.2577 -2.0637
  179SLPC  C21420462   5.470   4.380   9.143  0.4577  0.6760 -0.3413
  179SLPC  H14R20463   5.572   4.347   9.169  0.8620  1.3111 -1.0673
  179SLPC  H14S20464   5.457   4.460   9.219  2.9688 -2.4425  3.7887
  179SLPC  C21520465   5.478   4.426   9.000  0.2239 -0.5628  0.0769
  179SLPC  H15R20466   5.564   4.496   8.988 -0.4654 -0.0807 -2.7072
  179SLPC  H15S20467   5.382   4.478   8.980  0.0821 -0.0209  1.9050
  179SLPC  C21620468   5.506   4.331   8.884 -0.4443 -0.0365  0.6344
  179SLPC  H16R20469   5.502   4.393   8.792  0.0058  1.0855  1.3533
  179SLPC  H16S20470   5.431   4.249   8.885  0.4206 -0.8617  0.4042
  179SLPC  C21720471   5.642   4.266   8.905  0.0520 -0.1386  0.4186
  179SLPC  H17R20472   5.633   4.211   9.001 -3.4786  2.1141  1.5610
  179SLPC  H17S20473   5.717   4.347   8.893  0.2752 -0.6755 -2.7017
  179SLPC  C21820474   5.672   4.162   8.792 -0.5945  0.1104 -0.9603
  179SLPC  H18R20475   5.764   4.103   8.809 -0.4233  0.9358  1.4054
  179SLPC  H18S20476   5.701   4.216   8.699 -0.2897 -1.2491 -1.6701
  179SLPC  H18T20477   5.580   4.103   8.771  0.9632 -3.0214  0.4673
  179SLPC   C3320478   4.130   4.168   9.735 -0.5750  0.2020  0.7264
  179SLPC   H3X20479   4.069   4.256   9.762 -2.3681 -0.7256 -0.1722
  179SLPC   H3Y20480   4.109   4.079   9.797  2.9973  0.0144  1.9167
  179SLPC   C3420481   4.152   4.131   9.581  0.4907  0.0638 -0.0394
  179SLPC   H4X20482   4.056   4.083   9.555  1.6375 -2.3440 -0.1204
  179SLPC   H4Y20483   4.234   4.055   9.577  0.6196  0.0213  2.1824
  179SLPC   C3520484   4.170   4.243   9.479  0.1367  0.0600  0.4454
  179SLPC   H5X20485   4.268   4.293   9.493  0.7323 -0.5517 -1.2557
  179SLPC   H5Y20486   4.094   4.323   9.488 -1.1180 -1.1445  0.9802
  179SLPC   C3620487   4.188   4.188   9.338  0.5034  0.2683  0.1608
  179SLPC   H6X20488   4.100   4.138   9.293  0.5885  0.5828 -0.3663
  179SLPC   H6Y20489   4.279   4.124   9.341  0.6432  0.4838  2.9647
  179SLPC   C3720490   4.229   4.291   9.234 -0.1929  0.1178  0.1953
  179SLPC   H7X20491   4.329   4.331   9.262  0.1403 -0.7547  0.2884
  179SLPC   H7Y20492   4.151   4.370   9.231  0.4629  0.7956  0.4781
  179SLPC   C3820493   4.248   4.217   9.106 -0.7042  0.3059  0.2643
  179SLPC   H8X20494   4.154   4.168   9.076  0.6021 -0.9465 -2.0828
  179SLPC   H8Y20495   4.324   4.138   9.124  0.0563  0.6407 -1.3126
  179SLPC   C3920496   4.287   4.310   8.990  0.0059  0.2714  0.4843
  179SLPC   H9X20497   4.304   4.241   8.905 -0.1896 -1.9788  2.1844
  179SLPC   H9Y20498   4.376   4.371   9.014  1.1619 -1.2543  0.1930
  179SLPC  C31020499   4.173   4.402   8.934  0.3063 -0.3467  0.1351
  179SLPC  H10X20500   4.146   4.477   9.011  0.8176 -1.1247  1.0972
  179SLPC  H10Y20501   4.081   4.346   8.907  0.5644  0.0172 -1.6138
  179SLPC  C31120502   4.213   4.490   8.810 -0.1443  0.3412  0.0907
  179SLPC  H11X20503   4.313   4.526   8.844  0.9258 -0.6968 -1.8225
  179SLPC  H11Y20504   4.147   4.579   8.805  0.2685  0.5948 -1.4106
  179SLPC  C31220505   4.207   4.411   8.679  0.1476 -0.0531  0.0423
  179SLPC  H12X20506   4.101   4.385   8.657  0.4503 -0.3215 -1.1731
  179SLPC  H12Y20507   4.265   4.316   8.689  2.6743  1.5711  2.3247
  179SLPC  C31320508   4.261   4.483   8.558 -0.0447 -0.0747  1.6300
  179SLPC  H13X20509   4.371   4.497   8.563 -0.1263  2.2506 -0.5548
  179SLPC  H13Y20510   4.217   4.585   8.561  0.5811  0.3665 -1.1541
  179SLPC  C31420511   4.218   4.414   8.428  0.1539 -0.3127  0.2287
  179SLPC  H14X20512   4.110   4.422   8.408  0.4916  2.1727 -0.9192
  179SLPC  H14Y20513   4.246   4.308   8.450 -0.2205 -0.1326  1.6883
  179SLPC  C31520514   4.291   4.482   8.313  0.5283  0.4587 -0.1564
  179SLPC  H15X20515   4.307   4.425   8.219 -0.0394  2.5442 -1.5797
  179SLPC  H15Y20516   4.397   4.495   8.341  0.0695  0.4983  1.6939
  179SLPC  C31620517   4.225   4.620   8.278 -0.2746 -0.2605  0.3605
  179SLPC  H16X20518   4.257   4.693   8.355  2.1897 -0.2687 -0.5696
  179SLPC  H16Y20519   4.115   4.631   8.289 -0.8201 -0.3712 -3.6264
  179SLPC  C31720520   4.241   4.656   8.132  0.1890  0.0112  0.2052
  179SLPC  H17X20521   4.180   4.748   8.119 -3.2977 -1.7827  2.2403
  179SLPC  H17Y20522   4.207   4.574   8.065  0.2279  0.4381 -0.3412
  179SLPC  C31820523   4.381   4.701   8.081  0.2362 -0.2075 -0.6843
  179SLPC  H18X20524   4.453   4.618   8.099  0.1774  0.3694  3.0595
  179SLPC  H18Y20525   4.411   4.794   8.134 -0.5800 -1.0738  1.3943
  179SLPC  H18Z20526   4.370   4.721   7.972 -2.4323  1.3143 -0.2416
  180SLPC     N20527   5.505   4.951  10.641 -0.3680 -0.4532  0.5851
  180SLPC   C1320528   5.563   5.021  10.526  0.4870  0.7125 -0.0576
  180SLPC  H13A20529   5.491   5.079  10.471 -0.7898  0.7003  1.5132
  180SLPC  H13B20530   5.637   5.094  10.556  0.8875  0.1683  0.3025
  180SLPC  H13C20531   5.603   4.950  10.454  0.2920  1.0401 -0.4910
  180SLPC   C1420532   5.436   5.057  10.722 -0.9215 -0.1261  0.2858
  180SLPC  H14A20533   5.379   5.022  10.807 -2.4174  0.6979 -0.3464
  180SLPC  H14B20534   5.508   5.131  10.755  0.6645 -1.4617 -0.0054
  180SLPC  H14C20535   5.369   5.115  10.661 -2.6661 -0.6380  1.6276
  180SLPC   C1520536   5.608   4.904  10.734 -0.0067 -0.1705  0.5151
  180SLPC  H15A20537   5.698   4.963  10.745 -0.6911  0.8280  0.8811
  180SLPC  H15B20538   5.552   4.871  10.820  2.1112  2.0774  2.9026
  180SLPC  H15C20539   5.636   4.816  10.678  0.1247 -0.8271  1.5880
  180SLPC   C1220540   5.406   4.844  10.608 -0.0675  0.1551  0.7146
  180SLPC  H12A20541   5.323   4.895  10.560  0.3792  2.6262  2.3743
  180SLPC  H12B20542   5.372   4.816  10.706 -0.3292 -0.5939  0.4192
  180SLPC   C1120543   5.444   4.713  10.529 -0.5098  0.2900  0.2237
  180SLPC  H11A20544   5.466   4.737  10.423  1.1914  2.7168  1.0523
  180SLPC  H11B20545   5.349   4.660  10.507  0.1557 -0.5594 -0.7039
  180SLPC     P20546   5.599   4.504  10.540 -0.1398 -0.2273  0.1961
  180SLPC   O1320547   5.651   4.418  10.654  0.5354 -0.3396 -0.0850
  180SLPC   O1420548   5.489   4.442  10.464 -0.4723  0.0133 -0.0309
  180SLPC   O1220549   5.553   4.645  10.595  0.2782  0.1907  0.3390
  180SLPC   O1120550   5.723   4.535  10.447  0.4340  0.0563  0.4231
  180SLPC    C120551   5.735   4.623  10.342 -0.4266 -0.2433  0.1470
  180SLPC    HA20552   5.704   4.725  10.372 -3.0753 -1.4268  1.8016
  180SLPC    HB20553   5.842   4.629  10.311 -0.8903 -1.0279 -1.6954
  180SLPC    C220554   5.666   4.576  10.205  0.1028 -0.0097 -0.2904
  180SLPC    HS20555   5.576   4.520  10.237 -0.9717  2.4419  1.3479
  180SLPC   O2120556   5.751   4.495  10.127  0.3770 -0.0118  0.1439
  180SLPC   C2120557   5.702   4.377  10.081  0.1229 -0.2107 -0.5637
  180SLPC   O2220558   5.586   4.334  10.085 -0.2578  0.3529 -1.1049
  180SLPC   C2220559   5.818   4.310  10.003  0.5087 -0.2263 -0.4150
  180SLPC   H2R20560   5.830   4.371   9.911 -0.5676 -0.5762 -0.8006
  180SLPC   H2S20561   5.911   4.300  10.063  0.1571  1.5424  0.4871
  180SLPC    C320562   5.624   4.702  10.126 -0.1517 -0.2486  0.3355
  180SLPC    HX20563   5.717   4.757  10.099 -0.4232 -1.1750 -2.8225
  180SLPC    HY20564   5.568   4.767  10.196  0.2141 -0.0363  0.4395
  180SLPC   O3120565   5.550   4.690  10.005 -0.4536  0.2441 -0.4885
  180SLPC   C3120566   5.427   4.635  10.025  0.4912  0.0010 -0.8514
  180SLPC   O3220567   5.365   4.642  10.132  0.0072 -0.5476 -0.4344
  180SLPC   C3220568   5.372   4.582   9.896  0.4107 -0.6914  0.3307
  180SLPC   H2X20569   5.453   4.580   9.820  1.7691  2.1799  1.5677
  180SLPC   H2Y20570   5.305   4.657   9.849  0.2190 -1.8536 -1.3595
  180SLPC   C2320571   5.774   4.179   9.937  0.1568 -0.2237  0.2758
  180SLPC   H3R20572   5.689   4.200   9.869  1.3040  1.4425 -0.7057
  180SLPC   H3S20573   5.751   4.105  10.017 -2.5920  1.2292  0.9291
  180SLPC   C2420574   5.890   4.138   9.838  0.1491 -0.0004 -0.5245
  180SLPC   H4R20575   5.910   4.222   9.768  3.1495 -1.4621 -1.5604
  180SLPC   H4S20576   5.844   4.054   9.782 -1.4671  1.2904 -1.2434
  180SLPC   C2520577   6.014   4.087   9.908  0.2554 -0.4392 -0.0416
  180SLPC   H5R20578   5.993   4.039  10.006 -1.1431  0.3249  0.0578
  180SLPC   H5S20579   6.078   4.171   9.941  0.5285 -1.0902  1.1107
  180SLPC   C2620580   6.080   3.990   9.810  0.1094 -0.1994 -0.3963
  180SLPC   H6R20581   6.134   4.048   9.732  0.3052  0.4552  0.2193
  180SLPC   H6S20582   6.003   3.922   9.768 -1.6994 -1.2915  4.1112
  180SLPC   C2720583   6.181   3.900   9.889  0.9043 -0.1277 -0.0290
  180SLPC   H7R20584   6.137   3.832   9.965  0.7736 -1.7276 -1.4725
  180SLPC   H7S20585   6.236   3.970   9.957 -2.7676  1.6681  1.3802
  180SLPC   C2820586   6.276   3.815   9.806  0.2185 -0.2190 -0.4296
  180SLPC   H8R20587   6.370   3.803   9.862 -0.2763  1.7296  0.9513
  180SLPC   H8S20588   6.310   3.887   9.728  1.3024 -1.2017 -0.8991
  180SLPC   C2920589   6.213   3.692   9.760  0.1554  0.0119  1.1420
  180SLPC   H9R20590   6.176   3.631   9.844 -1.3716 -0.6895  0.0037
  180SLPC  C21020591   6.210   3.650   9.633 -0.6924  0.3458 -0.2907
  180SLPC  H10R20592   6.145   3.565   9.605  0.5002 -0.2451 -1.3536
  180SLPC  C21120593   6.269   3.716   9.516 -0.2037 -0.4322  0.4198
  180SLPC  H11R20594   6.378   3.704   9.536 -0.6619 -3.3184  1.7025
  180SLPC  H11S20595   6.250   3.825   9.524 -0.6330 -0.6506  3.4652
  180SLPC  C21220596   6.227   3.671   9.381 -0.5707 -0.1861  0.1967
  180SLPC  H12R20597   6.133   3.706   9.335 -0.1833 -2.5460 -2.6950
  180SLPC  C21320598   6.296   3.593   9.299 -0.3646 -0.2457 -0.4021
  180SLPC  H13R20599   6.258   3.572   9.199  1.4917 -2.3388 -0.7591
  180SLPC  C21420600   6.438   3.544   9.326 -0.3134 -0.0916 -0.1167
  180SLPC  H14R20601   6.435   3.487   9.421 -1.2133  2.3546  1.4048
  180SLPC  H14S20602   6.508   3.629   9.340 -2.9665  2.2994 -0.4587
  180SLPC  C21520603   6.494   3.445   9.224 -0.1988 -0.1851  0.0568
  180SLPC  H15R20604   6.419   3.365   9.204 -0.1681 -0.0573 -0.5980
  180SLPC  H15S20605   6.580   3.400   9.277  0.0235 -0.0184 -0.1652
  180SLPC  C21620606   6.530   3.499   9.081 -0.3533 -0.9106  0.3129
  180SLPC  H16R20607   6.441   3.515   9.018 -0.1925 -0.2411  0.2494
  180SLPC  H16S20608   6.593   3.418   9.037  0.9455  0.0757  0.2941
  180SLPC  C21720609   6.625   3.621   9.078  0.0651 -0.0587 -0.7011
  180SLPC  H17R20610   6.712   3.598   9.144 -0.5270 -0.3714 -0.0179
  180SLPC  H17S20611   6.566   3.693   9.139 -0.7534 -1.6999  0.4987
  180SLPC  C21820612   6.670   3.675   8.945  0.0711 -0.1048 -0.4748
  180SLPC  H18R20613   6.711   3.594   8.881 -0.0093 -0.6499  0.1536
  180SLPC  H18S20614   6.744   3.757   8.957  1.4164 -1.2600 -0.6293
  180SLPC  H18T20615   6.581   3.716   8.893 -0.0189 -1.4779 -1.4631
  180SLPC   C3320616   5.303   4.453   9.905  1.1193 -0.2582  0.3040
  180SLPC   H3X20617   5.226   4.459   9.984 -1.8605 -0.5716 -2.3385
  180SLPC   H3Y20618   5.372   4.369   9.928  0.8847 -0.6711 -0.4654
  180SLPC   C3420619   5.225   4.419   9.771  0.1153  0.4618  0.6701
  180SLPC   H4X20620   5.143   4.490   9.747  1.1902  0.7785 -2.6835
  180SLPC   H4Y20621   5.178   4.322   9.795 -1.9309  0.9582 -1.0034
  180SLPC   C3520622   5.316   4.418   9.644 -0.1640 -1.0628  0.1696
  180SLPC   H5X20623   5.352   4.518   9.610  0.1355 -1.1834  0.1270
  180SLPC   H5Y20624   5.259   4.384   9.555  0.1237  0.1082 -0.4875
  180SLPC   C3620625   5.441   4.329   9.655  1.2185 -0.0609 -0.0881
  180SLPC   H6X20626   5.398   4.228   9.670 -1.8061  1.0052 -0.8153
  180SLPC   H6Y20627   5.502   4.349   9.745 -1.8679  0.4506  2.0558
  180SLPC   C3720628   5.526   4.336   9.535  0.1859  0.3701  0.7181
  180SLPC   H7X20629   5.570   4.435   9.510  0.2873  0.3734  0.9090
  180SLPC   H7Y20630   5.469   4.311   9.443  0.1137  0.6634  0.6832
  180SLPC   C3820631   5.636   4.217   9.545 -0.3573  0.0148 -0.2816
  180SLPC   H8X20632   5.579   4.128   9.582 -2.3105  1.2306 -0.2358
  180SLPC   H8Y20633   5.711   4.246   9.622 -1.3794 -0.1362  0.8006
  180SLPC   C3920634   5.695   4.168   9.406  0.5733  0.3585  0.1670
  180SLPC   H9X20635   5.769   4.246   9.376 -0.7931  0.1946 -4.3434
  180SLPC   H9Y20636   5.613   4.148   9.334  1.7105 -1.1891 -0.7612
  180SLPC  C31020637   5.776   4.036   9.415  0.4083 -0.5780 -0.5288
  180SLPC  H10X20638   5.707   3.954   9.441  1.5050 -1.7200 -1.1263
  180SLPC  H10Y20639   5.840   4.043   9.506  0.1727  1.3480 -0.4640
  180SLPC  C31120640   5.853   4.017   9.290 -0.3104 -0.9352 -0.2897
  180SLPC  H11X20641   5.928   4.099   9.285 -0.5684 -0.1948  4.0259
  180SLPC  H11Y20642   5.788   4.040   9.203 -3.0829 -0.1070  1.8378
  180SLPC  C31220643   5.919   3.879   9.283 -0.2901  0.9802 -0.6926
  180SLPC  H12X20644   5.838   3.804   9.296  0.3496  0.3465 -0.2856
  180SLPC  H12Y20645   6.009   3.860   9.347 -1.5989  0.3793  1.0452
  180SLPC  C31320646   5.945   3.843   9.133 -0.0227  0.0925 -0.0512
  180SLPC  H13X20647   5.851   3.854   9.076 -0.8185 -1.2693  0.9342
  180SLPC  H13Y20648   5.971   3.736   9.120 -1.3244 -0.2222 -0.1471
  180SLPC  C31420649   6.063   3.923   9.071 -0.2226 -0.4877 -0.5578
  180SLPC  H14X20650   6.148   3.908   9.141 -2.2352 -0.5797  2.0232
  180SLPC  H14Y20651   6.036   4.029   9.089  0.8832 -0.3894  0.6504
  180SLPC  C31520652   6.101   3.888   8.931 -0.1255  0.7362 -0.4067
  180SLPC  H15X20653   6.173   3.961   8.888  3.4030 -1.8160  0.7883
  180SLPC  H15Y20654   6.017   3.895   8.859  1.4240  0.7530 -2.3002
  180SLPC  C31620655   6.170   3.751   8.915  0.0293 -0.9521 -0.2633
  180SLPC  H16X20656   6.089   3.676   8.930 -0.4765 -0.1967  0.8865
  180SLPC  H16Y20657   6.239   3.730   8.999  2.2847  2.2401 -1.1464
  180SLPC  C31720658   6.242   3.734   8.783  0.2184  0.4263 -0.2015
  180SLPC  H17X20659   6.322   3.657   8.780 -0.4856 -0.2851 -1.7285
  180SLPC  H17Y20660   6.304   3.821   8.753  1.6497 -1.1221 -1.9755
  180SLPC  C31820661   6.153   3.699   8.673  0.3500  0.1412  0.0895
  180SLPC  H18X20662   6.107   3.792   8.633 -1.5410  0.0254  1.8528
  180SLPC  H18Y20663   6.069   3.631   8.699  0.7634  0.1905  1.6285
  180SLPC  H18Z20664   6.219   3.666   8.589  0.3415 -0.4097  0.2972
  181SLPC     N20665   3.048   6.444  10.902  0.7356  0.2054  0.0438
  181SLPC   C1320666   3.130   6.541  10.978  0.0119 -0.1494 -0.5031
  181SLPC  H13A20667   3.090   6.640  10.959 -1.4898 -0.0994  2.3658
  181SLPC  H13B20668   3.139   6.529  11.085 -0.9096 -2.0895 -0.6104
  181SLPC  H13C20669   3.235   6.544  10.953  0.8386 -0.4905  2.5112
  181SLPC   C1420670   2.906   6.451  10.954 -0.3578 -0.6918  0.3455
  181SLPC  H14A20671   2.908   6.426  11.059  2.1437 -0.1759  0.4769
  181SLPC  H14B20672   2.861   6.547  10.935  1.1852 -0.0000  0.0317
  181SLPC  H14C20673   2.843   6.375  10.911 -1.4546 -1.4180  3.0251
  181SLPC   C1520674   3.105   6.305  10.930 -0.3788 -0.1850  0.4328
  181SLPC  H15A20675   3.051   6.226  10.882  1.1896 -0.3559 -1.1465
  181SLPC  H15B20676   3.201   6.303  10.881  1.0862 -0.2439  3.0900
  181SLPC  H15C20677   3.106   6.292  11.037  2.6898  0.2118  0.5568
  181SLPC   C1220678   3.065   6.466  10.754  0.4574  0.7111  0.2271
  181SLPC  H12A20679   3.169   6.481  10.732  0.2079  0.6193 -1.0637
  181SLPC  H12B20680   3.019   6.563  10.738 -0.2485  0.5996  1.4449
  181SLPC   C1120681   3.000   6.358  10.659  0.3222 -0.5235  0.6100
  181SLPC  H11A20682   3.048   6.258  10.663  0.6607 -0.3870  0.0785
  181SLPC  H11B20683   3.003   6.388  10.552 -2.6608 -0.6162  0.4324
  181SLPC     P20684   2.744   6.396  10.603  0.0116  0.5831 -0.5666
  181SLPC   O1320685   2.620   6.322  10.650  0.2527  0.3972 -0.2382
  181SLPC   O1420686   2.742   6.543  10.606 -0.5658 -0.0812  0.2657
  181SLPC   O1220687   2.863   6.329  10.681 -0.4593 -0.3946 -0.2403
  181SLPC   O1120688   2.784   6.343  10.450 -0.0300  0.1951  0.1379
  181SLPC    C120689   2.755   6.214  10.392 -0.4009 -0.2192 -0.2531
  181SLPC    HA20690   2.661   6.166  10.425  0.2870  0.1761  2.5426
  181SLPC    HB20691   2.746   6.235  10.283  0.7102  2.6059  0.0970
  181SLPC    C220692   2.867   6.103  10.416 -0.2708 -0.2799  0.6676
  181SLPC    HS20693   2.869   6.068  10.521  1.6353 -2.3423  0.0271
  181SLPC   O2120694   2.995   6.163  10.385  0.1291 -0.1369  0.1011
  181SLPC   C2120695   3.104   6.093  10.435  0.5286 -0.6459 -0.6006
  181SLPC   O2220696   3.084   5.995  10.504 -0.1263 -0.6240 -0.8519
  181SLPC   C2220697   3.233   6.167  10.405 -0.4181  0.6064 -0.1364
  181SLPC   H2R20698   3.217   6.261  10.348 -1.6143 -0.0537 -0.9420
  181SLPC   H2S20699   3.270   6.181  10.509 -2.0063 -0.2464  0.5787
  181SLPC    C320700   2.832   5.977  10.333 -0.2369  1.2630  0.2176
  181SLPC    HX20701   2.724   5.958  10.347 -0.3762  1.0707 -1.0048
  181SLPC    HY20702   2.875   5.885  10.378 -1.7346 -0.0549 -0.9393
  181SLPC   O3120703   2.875   5.991  10.197  0.1596  0.1427  0.0076
  181SLPC   C3120704   2.790   6.032  10.106 -0.6782  0.4496  0.5287
  181SLPC   O3220705   2.671   6.050  10.122 -0.2542 -0.1945 -0.5967
  181SLPC   C3220706   2.867   6.050   9.972 -0.1580  0.2577  0.1243
  181SLPC   H2X20707   2.926   5.957   9.964  0.0369  0.3610  0.3326
  181SLPC   H2Y20708   2.939   6.135   9.975 -2.4923  2.3717 -0.4309
  181SLPC   C2320709   3.330   6.074  10.325  0.3894 -0.7160 -0.0757
  181SLPC   H3R20710   3.325   5.980  10.384 -0.1662 -0.9971 -0.5661
  181SLPC   H3S20711   3.436   6.106  10.322  0.6873 -1.4786  1.4070
  181SLPC   C2420712   3.293   6.058  10.177  0.7519  0.3173  0.2987
  181SLPC   H4R20713   3.302   6.158  10.128  0.5653  0.6112  0.8490
  181SLPC   H4S20714   3.189   6.021  10.162  0.6729  0.9303 -0.8142
  181SLPC   C2520715   3.373   5.952  10.116 -0.7711  0.5488  0.2750
  181SLPC   H5R20716   3.352   5.855  10.166 -0.9490  0.4623  0.0344
  181SLPC   H5S20717   3.479   5.965  10.146 -0.6508 -1.9296  1.1289
  181SLPC   C2620718   3.372   5.963   9.960 -0.0292  0.3830  0.6496
  181SLPC   H6R20719   3.435   5.880   9.922 -2.5933 -0.8468 -1.1550
  181SLPC   H6S20720   3.420   6.064   9.956 -1.1904  1.0141  1.7644
  181SLPC   C2720721   3.242   5.941   9.886 -0.0726  0.2543  0.4695
  181SLPC   H7R20722   3.170   6.024   9.905 -0.0187  0.6807 -1.0267
  181SLPC   H7S20723   3.204   5.842   9.918  2.2514 -1.1355 -0.8451
  181SLPC   C2820724   3.263   5.943   9.738  0.3892 -0.1023 -0.3853
  181SLPC   H8R20725   3.167   5.927   9.683 -0.2742 -0.1158  0.7516
  181SLPC   H8S20726   3.323   5.850   9.729 -1.1218 -1.0697 -0.8618
  181SLPC   C2920727   3.334   6.060   9.674  0.2333 -0.1446  0.2068
  181SLPC   H9R20728   3.365   6.147   9.734 -0.0645  1.2014 -1.5109
  181SLPC  C21020729   3.347   6.077   9.542  0.4203 -0.4043 -0.4952
  181SLPC  H10R20730   3.393   6.168   9.502  0.1330  0.0021  0.0852
  181SLPC  C21120731   3.284   5.982   9.439  0.4027  0.3193 -0.6322
  181SLPC  H11R20732   3.187   6.022   9.402 -0.4631 -1.2265 -0.1312
  181SLPC  H11S20733   3.260   5.881   9.480 -2.1168  1.2822  0.4679
  181SLPC  C21220734   3.368   5.967   9.311  0.4133  0.0945  0.0941
  181SLPC  H12R20735   3.467   5.921   9.324  1.6964  2.6659  0.0813
  181SLPC  C21320736   3.320   5.990   9.185  0.2413  0.5521 -0.5504
  181SLPC  H13R20737   3.392   5.965   9.105  1.3036 -0.3234  0.6543
  181SLPC  C21420738   3.183   6.040   9.148  0.0843 -1.3331 -0.0237
  181SLPC  H14R20739   3.118   6.087   9.225 -0.1137  0.0222 -0.9891
  181SLPC  H14S20740   3.127   5.951   9.114  0.7260 -2.1756  1.0523
  181SLPC  C21520741   3.196   6.137   9.023  0.7292  0.7251 -0.4613
  181SLPC  H15R20742   3.090   6.162   9.002  0.8308  0.7887 -0.9023
  181SLPC  H15S20743   3.242   6.096   8.930 -2.2194  0.5720 -1.9692
  181SLPC  C21620744   3.289   6.251   9.034 -0.2322 -0.5644 -0.7126
  181SLPC  H16R20745   3.393   6.215   9.044 -0.7440 -1.9659 -0.2272
  181SLPC  H16S20746   3.267   6.300   9.131  1.4244 -1.2188  0.0283
  181SLPC  C21720747   3.285   6.358   8.917  0.1706  0.5878  0.0465
  181SLPC  H17R20748   3.185   6.404   8.921 -0.1537 -0.0104 -0.8670
  181SLPC  H17S20749   3.301   6.307   8.819 -1.2370  0.4117 -0.1033
  181SLPC  C21820750   3.397   6.470   8.937  0.0401  0.2523  0.1658
  181SLPC  H18R20751   3.385   6.535   8.847 -1.8929  0.1402  0.2868
  181SLPC  H18S20752   3.500   6.429   8.935  0.1287  0.4938 -1.0454
  181SLPC  H18T20753   3.364   6.525   9.028 -0.3998  0.6073 -0.1982
  181SLPC   C3320754   2.777   6.086   9.847  0.6752 -0.3772  0.1150
  181SLPC   H3X20755   2.730   6.187   9.849  1.8305  0.1599  1.1186
  181SLPC   H3Y20756   2.687   6.021   9.857  1.0799 -0.9814 -0.1486
  181SLPC   C3420757   2.842   6.066   9.707 -0.4809  0.0828 -0.6114
  181SLPC   H4X20758   2.928   5.997   9.721 -1.7305 -1.3428  0.2836
  181SLPC   H4Y20759   2.885   6.166   9.686  2.2503 -0.6741  0.9049
  181SLPC   C3520760   2.751   6.015   9.598 -0.2109 -0.7303  0.4269
  181SLPC   H5X20761   2.673   6.093   9.583  0.8862  0.0022 -1.9448
  181SLPC   H5Y20762   2.717   5.912   9.624 -0.1703 -1.2021 -1.2756
  181SLPC   C3620763   2.825   6.005   9.461 -0.6657 -0.1905 -0.2632
  181SLPC   H6X20764   2.869   5.903   9.458 -1.6507 -0.6062 -0.9678
  181SLPC   H6Y20765   2.901   6.086   9.453 -0.2479 -0.6894 -1.6113
  181SLPC   C3720766   2.737   6.036   9.337  0.6912  1.2040  0.0913
  181SLPC   H7X20767   2.703   6.141   9.348 -0.3397  0.7467  1.5646
  181SLPC   H7Y20768   2.647   5.971   9.335  1.5822 -0.0447 -1.8545
  181SLPC   C3820769   2.819   6.014   9.208  0.2132 -0.5473  0.6137
  181SLPC   H8X20770   2.894   5.934   9.228  0.5309 -0.7359 -1.2025
  181SLPC   H8Y20771   2.872   6.107   9.179  2.5444 -2.1142 -0.4645
  181SLPC   C3920772   2.732   5.959   9.091 -0.0443 -0.5407  0.0406
  181SLPC   H9X20773   2.640   6.021   9.083  0.4767  0.2276 -0.0328
  181SLPC   H9Y20774   2.702   5.852   9.101 -2.9191 -0.1018 -2.3145
  181SLPC  C31020775   2.816   5.975   8.962 -0.8829 -0.0492  0.5278
  181SLPC  H10X20776   2.919   5.934   8.969 -1.1512 -0.5374  1.8185
  181SLPC  H10Y20777   2.816   6.079   8.921 -2.6532 -0.7552 -1.4745
  181SLPC  C31120778   2.743   5.894   8.856 -0.4190 -0.0386 -0.2605
  181SLPC  H11X20779   2.643   5.861   8.890 -0.1306 -1.1635 -0.4913
  181SLPC  H11Y20780   2.805   5.806   8.829 -0.1099  0.4173 -1.0658
  181SLPC  C31220781   2.740   5.978   8.727  0.1667  0.6029  0.2149
  181SLPC  H12X20782   2.834   6.033   8.704  0.0945  0.7363  0.2360
  181SLPC  H12Y20783   2.667   6.060   8.740 -0.6717 -0.3026  1.3220
  181SLPC  C31320784   2.703   5.892   8.603 -0.1068  0.3142 -0.5660
  181SLPC  H13X20785   2.598   5.858   8.608  0.1837 -0.5086  0.3449
  181SLPC  H13Y20786   2.758   5.796   8.585  0.2147  0.3759  0.0628
  181SLPC  C31420787   2.710   5.972   8.477  0.3147 -0.2710 -0.4121
  181SLPC  H14X20788   2.663   6.070   8.504  2.4082  0.5721  0.4150
  181SLPC  H14Y20789   2.665   5.925   8.388  0.1941 -2.1178  0.5759
  181SLPC  C31520790   2.858   5.998   8.437 -0.2353 -0.2342 -0.4287
  181SLPC  H15X20791   2.903   5.896   8.435  4.6151  1.6689 -2.0253
  181SLPC  H15Y20792   2.914   6.055   8.514  0.7070  1.2116 -2.1012
  181SLPC  C31620793   2.864   6.080   8.308  0.2543  0.4333  0.3691
  181SLPC  H16X20794   2.848   6.188   8.329 -1.1305  0.1250  1.0047
  181SLPC  H16Y20795   2.791   6.033   8.240 -1.3041  2.2695  0.6759
  181SLPC  C31720796   3.000   6.076   8.236  0.0792 -0.6259  0.1012
  181SLPC  H17X20797   2.978   6.136   8.145  1.4460 -0.5033 -0.1711
  181SLPC  H17Y20798   3.019   5.971   8.205  0.2063 -0.6081  0.1166
  181SLPC  C31820799   3.128   6.120   8.308 -0.0012 -0.3407  0.4485
  181SLPC  H18X20800   3.217   6.127   8.241 -0.9495  0.4384 -0.7678
  181SLPC  H18Y20801   3.144   6.051   8.393 -1.7602 -0.0107  1.0885
  181SLPC  H18Z20802   3.115   6.221   8.352  0.0311 -0.2033  0.1448
  182SLPC     N20803   6.172   6.214  11.004 -0.3919 -0.3931  0.0877
  182SLPC   C1320804   6.223   6.293  11.120 -0.9915  0.1318 -0.5528
  182SLPC  H13A20805   6.174   6.280  11.216 -1.4418 -1.5330 -0.9802
  182SLPC  H13B20806   6.317   6.256  11.157 -0.5265  3.9885  2.7920
  182SLPC  H13C20807   6.242   6.398  11.103  1.1691 -0.2197 -0.5097
  182SLPC   C1420808   6.025   6.237  10.982 -0.0621  0.1589 -0.1968
  182SLPC  H14A20809   5.993   6.336  10.952 -1.4362 -0.2546 -0.1572
  182SLPC  H14B20810   5.991   6.177  10.899  2.1518 -2.6927  0.7611
  182SLPC  H14C20811   5.970   6.206  11.069 -1.2792  0.0439 -0.9832
  182SLPC   C1520812   6.202   6.070  11.033 -0.2474 -0.3708 -0.5251
  182SLPC  H15A20813   6.307   6.051  11.048 -0.2484  0.2323  0.3434
  182SLPC  H15B20814   6.138   6.030  11.111  0.8800  0.6103  0.9472
  182SLPC  H15C20815   6.183   6.015  10.942  1.3929 -1.7104 -0.1223
  182SLPC   C1220816   6.242   6.262  10.872 -0.4184  0.1692  0.1100
  182SLPC  H12A20817   6.348   6.244  10.881 -0.7895 -1.4347  2.1787
  182SLPC  H12B20818   6.225   6.368  10.859 -2.2250 -0.1555 -0.5025
  182SLPC   C1120819   6.201   6.198  10.730  0.2622 -0.1864  0.2454
  182SLPC  H11A20820   6.274   6.240  10.657  0.2376  0.5642  0.6390
  182SLPC  H11B20821   6.097   6.228  10.706 -0.2985 -0.2001  2.4740
  182SLPC     P20822   6.097   5.978  10.673 -0.3760  0.0498 -0.1971
  182SLPC   O1320823   6.145   5.845  10.642 -0.3541 -0.0418 -0.1067
  182SLPC   O1420824   5.985   5.989  10.763  0.3186 -0.1463 -0.3890
  182SLPC   O1220825   6.216   6.056  10.732 -0.3856 -0.3121 -0.6677
  182SLPC   O1120826   6.060   6.046  10.537 -0.2946  0.1672  0.1955
  182SLPC    C120827   6.003   5.974  10.430 -0.4692  0.4129 -0.8508
  182SLPC    HA20828   6.072   5.896  10.390 -2.7747 -1.2814 -1.7108
  182SLPC    HB20829   5.908   5.925  10.458  1.1554 -1.9697  0.9533
  182SLPC    C220830   5.970   6.067  10.312  0.0709  0.0276 -0.0306
  182SLPC    HS20831   5.906   6.155  10.335 -0.4521 -0.6966  1.4295
  182SLPC   O2120832   5.931   6.000  10.195 -0.0577  0.0185  0.2294
  182SLPC   C2120833   5.799   5.969  10.197  0.8640 -0.7352  0.4757
  182SLPC   O2220834   5.722   5.999  10.287 -0.4344  0.3483  0.4975
  182SLPC   C2220835   5.763   5.923  10.056  0.2577 -0.2351  0.1765
  182SLPC   H2R20836   5.801   5.991   9.977  1.2590 -0.7085  0.2304
  182SLPC   H2S20837   5.821   5.828  10.051 -0.3438 -0.5741 -0.4279
  182SLPC    C320838   6.102   6.136  10.270  0.9781 -0.1025  0.8713
  182SLPC    HX20839   6.163   6.060  10.217  1.9239  0.3668  1.2821
  182SLPC    HY20840   6.146   6.182  10.361 -0.1446  1.4572  0.6689
  182SLPC   O3120841   6.071   6.243  10.177 -0.3766 -0.1797 -0.5235
  182SLPC   C3120842   6.117   6.357  10.207 -0.0653  0.2373 -0.3619
  182SLPC   O3220843   6.211   6.384  10.283 -0.1895  0.3281  0.2799
  182SLPC   C3220844   6.057   6.461  10.115 -0.6263  0.0366 -0.5518
  182SLPC   H2X20845   6.135   6.540  10.110 -1.5276  0.9254 -0.7885
  182SLPC   H2Y20846   5.970   6.499  10.172  0.2814  0.3137  0.7034
  182SLPC   C2320847   5.614   5.889  10.046 -0.6803  0.1460  0.6057
  182SLPC   H3R20848   5.561   5.985  10.062 -1.6655 -0.5258  1.5036
  182SLPC   H3S20849   5.595   5.807  10.118  0.5789 -1.4611 -0.7907
  182SLPC   C2420850   5.578   5.836   9.897  0.0136 -0.1563 -0.3474
  182SLPC   H4R20851   5.627   5.909   9.829  1.1641 -0.9658 -0.4301
  182SLPC   H4S20852   5.469   5.852   9.885 -0.0847  0.2591  0.9732
  182SLPC   C2520853   5.621   5.692   9.866 -0.3089  0.0503 -0.4183
  182SLPC   H5R20854   5.593   5.617   9.943  0.5201 -1.1620 -1.2430
  182SLPC   H5S20855   5.730   5.680   9.884 -0.8387 -1.2877  2.4521
  182SLPC   C2620856   5.580   5.641   9.725  0.2774  0.2881 -0.3333
  182SLPC   H6R20857   5.576   5.730   9.659 -2.0206  0.0836 -0.5568
  182SLPC   H6S20858   5.476   5.609   9.749  0.5567  0.7055  1.6109
  182SLPC   C2720859   5.662   5.532   9.653 -0.3183 -0.4802  0.2049
  182SLPC   H7R20860   5.665   5.442   9.718 -1.3283 -3.7115 -3.7666
  182SLPC   H7S20861   5.764   5.570   9.630 -0.4072 -0.7535 -0.7219
  182SLPC   C2820862   5.607   5.482   9.517  1.0966 -0.1880 -0.7053
  182SLPC   H8R20863   5.505   5.444   9.538  1.3117 -0.7490 -0.6505
  182SLPC   H8S20864   5.670   5.398   9.482  0.4662 -0.5232 -1.0567
  182SLPC   C2920865   5.598   5.596   9.410 -0.7274  0.3312 -0.0022
  182SLPC   H9R20866   5.497   5.628   9.380 -2.0402 -3.7521 -0.4582
  182SLPC  C21020867   5.702   5.671   9.359 -0.0337  0.5541 -0.1424
  182SLPC  H10R20868   5.672   5.755   9.293 -0.1774  0.2806 -0.4301
  182SLPC  C21120869   5.852   5.665   9.383  0.1030 -0.0370  0.1351
  182SLPC  H11R20870   5.907   5.639   9.290  0.0259  0.1068  0.0505
  182SLPC  H11S20871   5.872   5.575   9.445  0.3871  0.5763  0.9528
  182SLPC  C21220872   5.912   5.789   9.448 -0.3530  0.6921 -0.0378
  182SLPC  H12R20873   5.859   5.881   9.421 -3.5679 -0.2990  2.2701
  182SLPC  C21320874   6.016   5.791   9.531  0.0957 -0.1380  0.3655
  182SLPC  H13R20875   6.044   5.891   9.567  0.9574 -0.4537  0.5994
  182SLPC  C21420876   6.097   5.674   9.575  0.2888  0.2444 -0.3137
  182SLPC  H14R20877   6.201   5.707   9.557  0.2571  1.3544  1.3840
  182SLPC  H14S20878   6.073   5.582   9.516  1.7124  1.4088 -2.8795
  182SLPC  C21520879   6.098   5.630   9.718  0.1080  0.4116  0.5158
  182SLPC  H15R20880   6.155   5.535   9.716  0.5366  0.6861 -0.7645
  182SLPC  H15S20881   5.995   5.616   9.757 -0.8430  3.0600 -0.7567
  182SLPC  C21620882   6.176   5.719   9.809  0.9188 -0.3083  0.1281
  182SLPC  H16R20883   6.130   5.820   9.806  0.4152 -0.5342  0.1127
  182SLPC  H16S20884   6.277   5.743   9.769  0.0749 -1.0422 -2.7426
  182SLPC  C21720885   6.175   5.683   9.952 -0.0950  0.1425 -0.1605
  182SLPC  H17R20886   6.231   5.589   9.969 -0.4909 -0.3080 -1.2488
  182SLPC  H17S20887   6.069   5.656   9.973  0.2708 -1.8684 -0.7157
  182SLPC  C21820888   6.211   5.800  10.051  0.4039 -0.1966 -0.5060
  182SLPC  H18R20889   6.128   5.873  10.056  1.2164  0.9486 -2.6453
  182SLPC  H18S20890   6.301   5.852  10.012 -0.0408  0.9286 -0.0452
  182SLPC  H18T20891   6.228   5.758  10.153  0.0084 -2.6470 -1.3622
  182SLPC   C3320892   6.022   6.409   9.977 -0.0135 -0.0311 -0.7910
  182SLPC   H3X20893   5.949   6.483   9.940  0.1090  0.1300 -0.7099
  182SLPC   H3Y20894   5.968   6.312   9.983  0.2431 -0.1227  0.3740
  182SLPC   C3420895   6.146   6.408   9.883 -0.2366  0.2252  0.0435
  182SLPC   H4X20896   6.240   6.378   9.934  1.0153  0.6234 -1.9131
  182SLPC   H4Y20897   6.163   6.514   9.857 -1.6414  1.6590  4.1577
  182SLPC   C3520898   6.125   6.308   9.760  0.3532 -0.2486 -0.3438
  182SLPC   H5X20899   6.117   6.205   9.801 -0.9912  0.2245  0.6353
  182SLPC   H5Y20900   6.216   6.320   9.697  2.1675 -0.1233  2.1877
  182SLPC   C3620901   5.991   6.330   9.686  0.2014  0.2203 -0.4497
  182SLPC   H6X20902   5.996   6.437   9.659 -0.5917  0.5653  0.6612
  182SLPC   H6Y20903   5.910   6.309   9.760 -0.1221 -0.6482 -1.0389
  182SLPC   C3720904   5.977   6.236   9.566  0.5821  0.7616  0.1519
  182SLPC   H7X20905   5.870   6.205   9.559  0.3482  0.4710  3.6087
  182SLPC   H7Y20906   6.030   6.143   9.595 -0.9884 -0.9943 -2.1884
  182SLPC   C3820907   6.023   6.289   9.436  0.4008 -0.4315  0.1455
  182SLPC   H8X20908   6.134   6.294   9.443  0.2867  0.9098  1.5299
  182SLPC   H8Y20909   6.002   6.398   9.430  1.3657 -0.2795 -0.8736
  182SLPC   C3920910   5.962   6.222   9.316 -0.0864  0.4047 -0.1191
  182SLPC   H9X20911   5.962   6.293   9.230  0.8913  2.9859  1.8551
  182SLPC   H9Y20912   5.853   6.200   9.320 -0.3171  1.1391 -1.5290
  182SLPC  C31020913   6.041   6.093   9.293  0.1320  0.3185  0.5054
  182SLPC  H10X20914   6.047   6.027   9.383 -0.9944 -1.6350 -0.7891
  182SLPC  H10Y20915   6.146   6.100   9.256 -0.0446 -2.4243 -0.7600
  182SLPC  C31120916   5.978   6.000   9.182 -0.2187  0.1979 -0.1842
  182SLPC  H11X20917   5.871   5.980   9.204 -0.4584 -0.1226 -1.5206
  182SLPC  H11Y20918   6.027   5.901   9.187  0.9588  0.7986  0.6284
  182SLPC  C31220919   5.997   6.059   9.038  0.5111  0.5764 -0.1306
  182SLPC  H12X20920   6.089   6.121   9.036  0.3927  0.7745  0.3155
  182SLPC  H12Y20921   5.907   6.123   9.025  0.9606  1.1578 -0.4096
  182SLPC  C31320922   5.991   5.964   8.924 -0.1955  1.1546  0.0691
  182SLPC  H13X20923   5.904   5.898   8.943 -0.1627  0.5569 -1.7152
  182SLPC  H13Y20924   6.078   5.897   8.908 -0.6705  0.8271 -1.2754
  182SLPC  C31420925   5.952   6.029   8.786  0.1307 -0.2360 -0.0373
  182SLPC  H14X20926   5.984   5.966   8.700  0.6839 -1.8276  1.2873
  182SLPC  H14Y20927   6.007   6.125   8.786 -0.3599  0.0496  0.2872
  182SLPC  C31520928   5.803   6.068   8.775 -0.0460 -0.1875  0.3174
  182SLPC  H15X20929   5.784   6.145   8.853 -0.7994  1.1452 -1.0946
  182SLPC  H15Y20930   5.745   5.974   8.788 -1.2343  0.7413  2.2437
  182SLPC  C31620931   5.768   6.129   8.643  0.0788  0.1119 -0.3334
  182SLPC  H16X20932   5.795   6.061   8.560  1.1376 -1.0952  0.9657
  182SLPC  H16Y20933   5.818   6.224   8.614 -1.8311  0.7632 -1.7221
  182SLPC  C31720934   5.619   6.154   8.647  0.1750  0.3940  0.3925
  182SLPC  H17X20935   5.605   6.237   8.719 -0.3515 -0.6088  1.4674
  182SLPC  H17Y20936   5.562   6.071   8.694 -0.0517  0.7935  0.8211
  182SLPC  C31820937   5.551   6.197   8.509 -0.8215  1.0968 -0.1910
  182SLPC  H18X20938   5.442   6.186   8.491 -0.4944  0.5728 -2.0502
  182SLPC  H18Y20939   5.597   6.133   8.431 -0.3845  0.2230  0.7691
  182SLPC  H18Z20940   5.578   6.302   8.481  2.4719  0.0035 -1.6607
  183SLPC     N20941   0.543   1.359  11.270  0.3228 -0.3855  0.3554
  183SLPC   C1320942   0.500   1.285  11.394  0.3802  0.4551 -0.0562
  183SLPC  H13A20943   0.474   1.354  11.473  2.4455  1.8984 -0.5762
  183SLPC  H13B20944   0.418   1.216  11.378  0.7342 -0.7594  2.7735
  183SLPC  H13C20945   0.581   1.224  11.430  0.2117 -1.0778 -2.1048
  183SLPC   C1420946   0.617   1.264  11.181 -0.6733  0.4452 -0.0204
  183SLPC  H14A20947   0.648   1.301  11.085  2.8186 -2.7326 -0.3368
  183SLPC  H14B20948   0.713   1.247  11.227 -1.3111  0.1102  1.2366
  183SLPC  H14C20949   0.569   1.167  11.172 -3.9314  1.8877  0.3050
  183SLPC   C1520950   0.629   1.475  11.297 -0.0210  0.3623  0.5708
  183SLPC  H15A20951   0.574   1.560  11.336 -1.3635  0.7315 -1.9340
  183SLPC  H15B20952   0.702   1.437  11.367  1.9378  0.0582 -1.5399
  183SLPC  H15C20953   0.678   1.522  11.213 -0.0907  1.9721  1.3801
  183SLPC   C1220954   0.424   1.400  11.196  0.6202  0.0902  0.7955
  183SLPC  H12A20955   0.375   1.476  11.255  2.2653 -0.0096  2.3803
  183SLPC  H12B20956   0.360   1.313  11.194  2.3450 -1.2589 -1.2808
  183SLPC   C1120957   0.444   1.456  11.050 -1.0395  0.2406 -0.4420
  183SLPC  H11A20958   0.502   1.390  10.981  0.4978  0.0386  0.9695
  183SLPC  H11B20959   0.502   1.550  11.062 -0.4470 -0.1007 -0.5897
  183SLPC     P20960   0.212   1.373  10.954 -0.6019 -0.0717 -0.1563
  183SLPC   O1320961   0.265   1.241  10.998 -0.0752 -0.1994  0.8004
  183SLPC   O1420962   0.076   1.422  10.994  0.7366  0.7104  0.3681
  183SLPC   O1220963   0.312   1.482  10.997  0.3036 -0.4616  0.4355
  183SLPC   O1120964   0.225   1.361  10.798  0.5353 -0.0271 -0.2077
  183SLPC    C120965   0.323   1.424  10.716  0.5335  0.4685 -0.2616
  183SLPC    HA20966   0.337   1.530  10.746 -0.2383  1.0531 -1.8626
  183SLPC    HB20967   0.419   1.368  10.719  0.1336 -0.2151 -0.0859
  183SLPC    C220968   0.292   1.425  10.571  0.8371  0.4333  0.2327
  183SLPC    HS20969   0.380   1.484  10.536 -0.2991  1.6940 -0.5839
  183SLPC   O2120970   0.174   1.499  10.543 -0.2806 -0.9411  0.1722
  183SLPC   C2120971   0.176   1.629  10.551  0.2614 -0.4371  0.3292
  183SLPC   O2220972   0.271   1.703  10.571  0.2972  0.3531 -0.4463
  183SLPC   C2220973   0.044   1.687  10.511  0.6054 -0.3799 -0.0359
  183SLPC   H2R20974   0.001   1.731  10.604  0.2029  1.8315 -1.2100
  183SLPC   H2S20975   0.069   1.761  10.433  2.3582 -0.6342  0.2451
  183SLPC    C320976   0.291   1.289  10.494  0.6526 -0.3242  0.7191
  183SLPC    HX20977   0.200   1.232  10.523  1.2950 -0.6916  2.1038
  183SLPC    HY20978   0.376   1.225  10.524  3.0213  1.5783 -1.4387
  183SLPC   O3120979   0.300   1.317  10.354 -0.1869 -0.5998  0.2890
  183SLPC   C3120980   0.247   1.230  10.271  0.4430 -0.4120 -0.5903
  183SLPC   O3220981   0.186   1.132  10.308  0.4226  0.0324  0.0189
  183SLPC   C3220982   0.255   1.287  10.126  0.1639  0.1535 -1.0345
  183SLPC   H2X20983   0.272   1.396  10.134  0.7432  0.2492 -2.9210
  183SLPC   H2Y20984   0.152   1.282  10.083 -1.1197  2.4168  1.4712
  183SLPC   C2320985  -0.064   1.585  10.446  0.1600 -0.0966 -0.1810
  183SLPC   H3R20986  -0.163   1.630  10.469  1.3331  1.4515  2.2424
  183SLPC   H3S20987  -0.054   1.497  10.514 -2.6336  1.1827  2.0599
  183SLPC   C2420988  -0.049   1.549  10.303  0.7048  0.9324  0.5359
  183SLPC   H4R20989  -0.129   1.474  10.284  1.2357  0.1762  1.2225
  183SLPC   H4S20990   0.045   1.495  10.281 -0.1577 -0.0617 -0.9323
  183SLPC   C2520991  -0.070   1.663  10.205 -0.4952  0.2721  0.2392
  183SLPC   H5R20992   0.003   1.744  10.225 -0.7530 -0.0418  2.7745
  183SLPC   H5S20993  -0.164   1.715  10.235 -1.7158 -0.3213 -2.2525
  183SLPC   C2620994  -0.081   1.614  10.059  0.1581 -0.1781 -0.2129
  183SLPC   H6R20995  -0.005   1.535  10.042  0.9214  0.5204 -0.0854
  183SLPC   H6S20996  -0.060   1.700   9.991 -2.4013 -0.1794 -1.1085
  183SLPC   C2720997  -0.225   1.577  10.010 -0.1870 -0.0603 -0.1869
  183SLPC   H7R20998  -0.297   1.644  10.060 -1.6285 -1.7499  0.1139
  183SLPC   H7S20999  -0.243   1.478  10.057  3.0429 -1.1059 -0.8906
  183SLPC   C2821000  -0.228   1.566   9.854  0.1985  0.0516 -0.1979
  183SLPC   H8R21001  -0.190   1.660   9.809 -1.5084  0.4203 -0.9910
  183SLPC   H8S21002  -0.332   1.565   9.813  0.7187  0.5590 -1.5826
  183SLPC   C2921003  -0.159   1.448   9.791  0.9414 -0.1122  0.0300
  183SLPC   H9R21004  -0.095   1.394   9.863 -1.6253 -0.8720  1.9180
  183SLPC  C21021005  -0.180   1.408   9.658 -0.5913 -0.4018 -0.0377
  183SLPC  H10R21006  -0.121   1.320   9.628 -0.7737 -1.7306  3.1165
  183SLPC  C21121007  -0.260   1.482   9.551  0.7572  0.1683  0.0993
  183SLPC  H11R21008  -0.229   1.589   9.546 -1.5890  0.8431 -2.0875
  183SLPC  H11S21009  -0.367   1.481   9.580  0.4265  0.7341 -1.0476
  183SLPC  C21221010  -0.247   1.423   9.406  0.6279 -0.3047 -0.0108
  183SLPC  H12R21011  -0.213   1.319   9.393 -0.3182 -0.8306  1.4614
  183SLPC  C21321012  -0.272   1.491   9.294  0.2430  0.0272 -0.2541
  183SLPC  H13R21013  -0.265   1.439   9.197 -1.2298  2.7752 -1.9811
  183SLPC  C21421014  -0.314   1.640   9.277  0.0428  0.4419  0.1902
  183SLPC  H14R21015  -0.350   1.687   9.371  1.6400 -0.8951  1.5464
  183SLPC  H14S21016  -0.394   1.642   9.200  1.0018 -1.4753 -0.9341
  183SLPC  C21521017  -0.193   1.719   9.209  0.2558  0.7375  0.3331
  183SLPC  H15R21018  -0.109   1.734   9.280  1.8089  1.9077 -1.6500
  183SLPC  H15S21019  -0.228   1.821   9.183 -0.4393  0.0041 -1.7924
  183SLPC  C21621020  -0.151   1.659   9.069 -0.2938  0.6233 -0.6234
  183SLPC  H16R21021  -0.245   1.644   9.011  0.1987 -0.5933 -1.1580
  183SLPC  H16S21022  -0.111   1.557   9.086 -1.3903  0.3638  0.5433
  183SLPC  C21721023  -0.056   1.758   8.994  0.2476  0.1879 -0.3019
  183SLPC  H17R21024   0.041   1.757   9.047  1.4126 -1.7630 -2.3201
  183SLPC  H17S21025  -0.102   1.857   9.014  0.9336  0.0726  2.1354
  183SLPC  C21821026  -0.041   1.741   8.848 -0.4127 -0.1180  0.2412
  183SLPC  H18R21027   0.013   1.646   8.824 -0.8071 -1.1774  3.0857
  183SLPC  H18S21028   0.020   1.822   8.804  0.4389 -0.9965 -0.2580
  183SLPC  H18T21029  -0.135   1.729   8.790  0.4044 -2.2518 -0.7778
  183SLPC   C3321030   0.364   1.213  10.050  0.5510 -0.2890  0.0539
  183SLPC   H3X21031   0.316   1.119  10.014 -1.4080  0.2382  1.1476
  183SLPC   H3Y21032   0.450   1.201  10.119  0.4601 -1.1581  0.0349
  183SLPC   C3421033   0.409   1.287   9.922  0.1863  0.8919 -0.3892
  183SLPC   H4X21034   0.503   1.238   9.888 -1.1563 -0.9766 -1.5868
  183SLPC   H4Y21035   0.441   1.392   9.939  2.1191  0.3005 -0.1972
  183SLPC   C3521036   0.313   1.283   9.801  0.6874  0.4797  0.0973
  183SLPC   H5X21037   0.348   1.374   9.746 -2.1705 -0.0740 -2.9707
  183SLPC   H5Y21038   0.211   1.310   9.837  0.5253  1.7926 -1.2567
  183SLPC   C3621039   0.324   1.151   9.729 -0.8276 -0.6428  0.3625
  183SLPC   H6X21040   0.262   1.076   9.782  2.3475 -1.7913  2.7250
  183SLPC   H6Y21041   0.428   1.113   9.737 -0.7918 -0.9584 -1.1992
  183SLPC   C3721042   0.296   1.172   9.577  0.0113  0.0783 -0.1505
  183SLPC   H7X21043   0.362   1.248   9.529 -1.3021  0.9266 -0.6464
  183SLPC   H7Y21044   0.192   1.210   9.568 -0.2544 -0.6410 -0.1960
  183SLPC   C3821045   0.308   1.046   9.491  1.1612  0.0034  0.5341
  183SLPC   H8X21046   0.254   0.962   9.541 -1.2896  1.8832  1.2489
  183SLPC   H8Y21047   0.418   1.037   9.489  1.2939  1.5153 -1.5272
  183SLPC   C3921048   0.260   1.070   9.346 -0.0032  0.0696  0.2152
  183SLPC   H9X21049   0.322   1.157   9.316  0.8810  0.4525  2.9025
  183SLPC   H9Y21050   0.154   1.104   9.338 -0.5602 -1.3693  1.0603
  183SLPC  C31021051   0.286   0.953   9.250  0.2573  0.0045 -0.7679
  183SLPC  H10X21052   0.227   0.874   9.301 -1.3109  2.0066  0.6944
  183SLPC  H10Y21053   0.388   0.910   9.259  0.2189 -0.1390 -1.0111
  183SLPC  C31121054   0.259   0.988   9.103 -0.1911  0.7496 -0.0066
  183SLPC  H11X21055   0.292   1.093   9.087  0.4391  0.7896  1.3403
  183SLPC  H11Y21056   0.150   0.991   9.081 -0.4030 -2.5782  0.0732
  183SLPC  C31221057   0.327   0.891   8.998 -0.5611 -0.0447 -0.7436
  183SLPC  H12X21058   0.287   0.792   9.029 -0.9862  0.8406  1.7936
  183SLPC  H12Y21059   0.437   0.904   9.014 -0.7167  0.5473 -0.0915
  183SLPC  C31321060   0.291   0.915   8.853  0.3164 -0.0311 -0.0125
  183SLPC  H13X21061   0.334   0.831   8.794  0.6347 -0.3520  0.6597
  183SLPC  H13Y21062   0.328   1.010   8.811  1.8127  0.2636  1.8651
  183SLPC  C31421063   0.135   0.923   8.831 -0.4919 -0.2081  0.1464
  183SLPC  H14X21064   0.095   1.027   8.827 -0.3360 -0.1398  0.3869
  183SLPC  H14Y21065   0.085   0.861   8.908 -1.3292 -0.7905 -0.8337
  183SLPC  C31521066   0.098   0.846   8.701 -0.1791  0.2975 -0.3538
  183SLPC  H15X21067   0.106   0.737   8.723 -1.5240 -0.1200 -1.7750
  183SLPC  H15Y21068   0.171   0.870   8.620  0.2206 -0.9852 -0.3920
  183SLPC  C31621069  -0.042   0.881   8.650  0.2187  0.3370  0.6485
  183SLPC  H16X21070  -0.056   0.819   8.558  0.5786 -0.2725  0.9989
  183SLPC  H16Y21071  -0.048   0.988   8.620  0.7316  0.7872  2.1148
  183SLPC  C31721072  -0.151   0.852   8.755 -0.1820 -0.6495  1.3638
  183SLPC  H17X21073  -0.138   0.920   8.842 -3.0195  0.9988  0.6325
  183SLPC  H17Y21074  -0.143   0.748   8.795 -0.8413 -0.3739  2.2560
  183SLPC  C31821075  -0.295   0.867   8.694  0.0932 -0.0815 -0.1332
  183SLPC  H18X21076  -0.299   0.835   8.588 -2.1918  0.8391 -0.3751
  183SLPC  H18Y21077  -0.322   0.972   8.719  0.1096 -0.2520  0.6322
  183SLPC  H18Z21078  -0.360   0.798   8.752 -3.0532  1.0171 -2.0849
  184SLPC     N21079   4.433   0.579  10.912  0.1849 -0.2014 -0.1876
  184SLPC   C1321080   4.571   0.590  10.971  0.1961  1.0188 -0.0172
  184SLPC  H13A21081   4.648   0.554  10.906  1.4105  0.0069  1.8947
  184SLPC  H13B21082   4.592   0.695  10.984 -3.8454  1.9440  0.4638
  184SLPC  H13C21083   4.583   0.521  11.053  3.8769  0.3201 -0.9776
  184SLPC   C1421084   4.339   0.563  11.026 -0.1698  0.6378  0.0928
  184SLPC  H14A21085   4.238   0.565  10.989 -0.5706 -2.4056  0.7749
  184SLPC  H14B21086   4.355   0.469  11.076  0.3810 -0.0568 -1.3364
  184SLPC  H14C21087   4.352   0.643  11.098  2.0265  0.0567  0.4382
  184SLPC   C1521088   4.415   0.445  10.853  0.0266  0.2740  0.4561
  184SLPC  H15A21089   4.434   0.368  10.926  1.5451  1.2524  1.1364
  184SLPC  H15B21090   4.317   0.436  10.808 -0.2002 -0.1549  1.0261
  184SLPC  H15C21091   4.486   0.417  10.777 -0.9927 -1.0909 -0.0400
  184SLPC   C1221092   4.403   0.672  10.802 -0.8682 -0.2621  0.9490
  184SLPC  H12A21093   4.296   0.672  10.784 -1.0380 -3.1797  1.3877
  184SLPC  H12B21094   4.448   0.639  10.709 -0.5171 -0.8366  1.3138
  184SLPC   C1121095   4.453   0.818  10.828  0.2881  0.1679  0.3019
  184SLPC  H11A21096   4.428   0.852  10.930  1.3356  2.0255 -0.0286
  184SLPC  H11B21097   4.399   0.879  10.752 -0.8523  1.1270  1.8437
  184SLPC     P21098   4.675   0.840  10.686  0.1856  0.1878  0.1819
  184SLPC   O1321099   4.813   0.870  10.720  0.4386  0.1272  0.5977
  184SLPC   O1421100   4.642   0.721  10.616  1.0651  0.1067  0.0540
  184SLPC   O1221101   4.595   0.835  10.821  0.6146  0.1220  0.2322
  184SLPC   O1121102   4.616   0.967  10.612  1.5023  0.4823  0.0056
  184SLPC    C121103   4.556   0.967  10.489  0.0055 -0.1432  0.3398
  184SLPC    HA21104   4.577   0.877  10.428  0.5047  0.3382 -0.2121
  184SLPC    HB21105   4.446   0.964  10.507 -0.3574  1.0790 -1.4229
  184SLPC    C221106   4.587   1.093  10.402 -0.3778  0.0728  0.0088
  184SLPC    HS21107   4.515   1.102  10.318  0.3570  1.3461 -0.5287
  184SLPC   O2121108   4.723   1.089  10.346  0.1305  0.2213 -0.4712
  184SLPC   C2121109   4.732   1.005  10.251  0.2296 -0.1446 -0.3670
  184SLPC   O2221110   4.639   0.961  10.183  0.3333 -0.7983  0.0017
  184SLPC   C2221111   4.873   0.957  10.230 -0.2340  0.3946 -0.2602
  184SLPC   H2R21112   4.928   0.981  10.324 -1.8242  1.2348  0.4872
  184SLPC   H2S21113   4.872   0.846  10.226  3.9101  0.1729 -0.0052
  184SLPC    C321114   4.569   1.222  10.476 -0.0096 -0.3290 -0.4197
  184SLPC    HX21115   4.645   1.228  10.556 -0.5675 -0.8058  0.1513
  184SLPC    HY21116   4.470   1.221  10.526  0.2607 -0.4062  0.1168
  184SLPC   O3121117   4.577   1.338  10.385  0.6353  0.1981 -0.1122
  184SLPC   C3121118   4.693   1.390  10.357 -0.3911 -0.7694 -0.4296
  184SLPC   O3221119   4.797   1.365  10.407  0.0900 -0.2499  1.0674
  184SLPC   C3221120   4.679   1.501  10.255  0.2308 -0.3844  0.0796
  184SLPC   H2X21121   4.775   1.510  10.200 -0.7384 -0.6141 -1.7501
  184SLPC   H2Y21122   4.641   1.591  10.309  1.6775  0.9582 -1.0343
  184SLPC   C2321123   4.926   1.027  10.101 -0.1030 -0.7902 -0.4246
  184SLPC   H3R21124   5.034   1.048  10.119  0.0354 -0.3959 -1.6595
  184SLPC   H3S21125   4.874   1.123  10.082  1.8316  0.2494 -0.7231
  184SLPC   C2421126   4.908   0.938   9.979 -0.5690  0.1270 -0.3513
  184SLPC   H4R21127   4.802   0.913   9.958 -0.1726 -3.2182  0.9440
  184SLPC   H4S21128   4.959   0.841   9.998  0.1734  0.6455  0.4561
  184SLPC   C2521129   4.973   0.992   9.846 -0.9076  0.0845  0.4459
  184SLPC   H5R21130   5.079   0.959   9.845  0.4202  3.8792 -1.2216
  184SLPC   H5S21131   4.976   1.103   9.836  1.9320  0.1827  1.5240
  184SLPC   C2621132   4.915   0.935   9.717 -0.4926 -0.1741  0.5762
  184SLPC   H6R21133   4.806   0.955   9.708 -0.3077  0.1979 -1.4506
  184SLPC   H6S21134   4.942   0.827   9.714  0.1532 -0.0057 -0.3355
  184SLPC   C2721135   4.972   0.999   9.587  0.5066 -0.6657  0.4503
  184SLPC   H7R21136   5.083   1.007   9.591  0.5579 -1.0661 -0.0264
  184SLPC   H7S21137   4.933   1.102   9.576 -1.5021 -1.5603 -1.7538
  184SLPC   C2821138   4.953   0.924   9.458  0.6080  0.1646  0.9203
  184SLPC   H8R21139   4.971   0.817   9.480 -1.2039 -0.1794  0.8904
  184SLPC   H8S21140   5.037   0.951   9.391  0.9058 -0.7925  0.8978
  184SLPC   C2921141   4.811   0.932   9.404  0.4913  0.2298 -0.0521
  184SLPC   H9R21142   4.733   0.954   9.478 -0.6346 -1.0642 -0.8093
  184SLPC  C21021143   4.775   0.919   9.278 -1.0979 -0.0260 -0.2139
  184SLPC  H10R21144   4.669   0.923   9.249 -1.8865 -0.8608  2.2987
  184SLPC  C21121145   4.868   0.877   9.166  0.2963 -0.6332  0.9033
  184SLPC  H11R21146   4.857   0.767   9.159 -1.6358 -0.3570 -2.7676
  184SLPC  H11S21147   4.976   0.897   9.182  0.8291 -2.4545 -0.1170
  184SLPC  C21221148   4.855   0.934   9.025 -0.0332  0.0843 -0.1045
  184SLPC  H12R21149   4.847   1.043   9.019  1.6983  0.3208  0.9777
  184SLPC  C21321150   4.848   0.864   8.907  0.0336 -0.3182 -0.2508
  184SLPC  H13R21151   4.841   0.926   8.816 -2.1522  2.1317  1.4337
  184SLPC  C21421152   4.855   0.722   8.889 -0.1589 -0.3024  0.1921
  184SLPC  H14R21153   4.753   0.681   8.907 -2.3109  3.7451 -1.4840
  184SLPC  H14S21154   4.914   0.677   8.972  1.8483  2.9340  0.6999
  184SLPC  C21521155   4.900   0.666   8.748  1.4135 -0.7461 -0.3849
  184SLPC  H15R21156   4.845   0.712   8.663 -1.0378 -3.2834 -0.3118
  184SLPC  H15S21157   4.863   0.561   8.745  1.9521 -0.9806  0.6054
  184SLPC  C21621158   5.041   0.668   8.728  0.3072  0.5002  0.3246
  184SLPC  H16R21159   5.090   0.625   8.818  0.1626  1.4139  0.8572
  184SLPC  H16S21160   5.088   0.768   8.718  0.2324  0.4985 -0.0527
  184SLPC  C21721161   5.092   0.586   8.602 -0.0353 -0.1946  0.7187
  184SLPC  H17R21162   5.066   0.478   8.608 -0.9479 -0.0011  0.3724
  184SLPC  H17S21163   5.202   0.598   8.611  0.1863 -2.2088  1.1218
  184SLPC  C21821164   5.049   0.653   8.466 -0.0768  0.3202 -0.3206
  184SLPC  H18R21165   5.085   0.758   8.459 -2.6513  1.3659  0.7601
  184SLPC  H18S21166   4.939   0.664   8.460 -0.2980 -2.1539 -2.0278
  184SLPC  H18T21167   5.092   0.599   8.379  1.5307  0.8584  0.1104
  184SLPC   C3321168   4.573   1.467  10.143  0.5363  0.0516  0.9856
  184SLPC   H3X21169   4.558   1.566  10.095 -0.6110  1.2238  3.5534
  184SLPC   H3Y21170   4.473   1.447  10.187  0.5659 -0.2452  0.9183
  184SLPC   C3421171   4.606   1.364  10.041 -0.0108 -0.0483 -0.0094
  184SLPC   H4X21172   4.579   1.265  10.084 -3.1748  0.0766 -1.4408
  184SLPC   H4Y21173   4.713   1.370  10.013 -0.4484 -0.0198 -1.8151
  184SLPC   C3521174   4.518   1.362   9.916 -0.3824 -0.4685  0.0321
  184SLPC   H5X21175   4.508   1.466   9.879 -0.3677  0.3038  2.1116
  184SLPC   H5Y21176   4.414   1.344   9.951 -0.2484  0.5641  1.0049
  184SLPC   C3621177   4.574   1.274   9.806 -0.2032 -0.0313 -0.4928
  184SLPC   H6X21178   4.586   1.174   9.853  1.7079 -0.1611 -1.1857
  184SLPC   H6Y21179   4.672   1.315   9.773 -1.1193 -0.4144 -4.0550
  184SLPC   C3721180   4.487   1.273   9.685 -0.5361 -0.2507 -0.0549
  184SLPC   H7X21181   4.421   1.361   9.667 -0.3296  0.0830  0.7686
  184SLPC   H7Y21182   4.413   1.190   9.681  0.0769 -0.7711 -0.7585
  184SLPC   C3821183   4.573   1.252   9.562  0.3566 -0.4786 -0.3047
  184SLPC   H8X21184   4.625   1.154   9.563  0.1407 -0.6575  2.9631
  184SLPC   H8Y21185   4.645   1.333   9.535  0.8961 -1.7196 -2.9526
  184SLPC   C3921186   4.490   1.252   9.436 -0.0336 -0.2756  0.3070
  184SLPC   H9X21187   4.435   1.348   9.431  1.7186  0.8961  2.0224
  184SLPC   H9Y21188   4.408   1.177   9.432  1.6219 -2.1301 -1.7061
  184SLPC  C31021189   4.571   1.245   9.311  0.1177 -0.3409  0.0550
  184SLPC  H10X21190   4.602   1.138   9.305 -0.6144 -0.5988  0.6665
  184SLPC  H10Y21191   4.660   1.310   9.298  0.0299 -0.2062  0.1282
  184SLPC  C31121192   4.482   1.253   9.180  0.2250 -0.6196 -0.0620
  184SLPC  H11X21193   4.440   1.356   9.174 -1.5139 -1.2829  0.3156
  184SLPC  H11Y21194   4.388   1.195   9.194 -0.1231 -0.2807 -0.9530
  184SLPC  C31221195   4.562   1.225   9.049  0.2946  0.3553 -0.1183
  184SLPC  H12X21196   4.640   1.147   9.068  0.9089  1.2226  1.1239
  184SLPC  H12Y21197   4.598   1.320   9.004  0.3759 -0.4954 -1.9351
  184SLPC  C31321198   4.474   1.165   8.940  0.1673  0.3983 -0.2168
  184SLPC  H13X21199   4.415   1.246   8.892 -2.8933 -1.2378  0.5646
  184SLPC  H13Y21200   4.401   1.095   8.984  1.2756  1.2324  3.2351
  184SLPC  C31421201   4.553   1.076   8.844  0.1250 -0.5726  1.3752
  184SLPC  H14X21202   4.579   0.976   8.883 -2.0116 -2.2876 -1.2298
  184SLPC  H14Y21203   4.648   1.127   8.820 -1.3644  0.8661 -2.1906
  184SLPC  C31521204   4.477   1.047   8.718  0.4139  0.0149 -0.1906
  184SLPC  H15X21205   4.388   0.996   8.760 -0.3102  1.7003  0.4030
  184SLPC  H15Y21206   4.542   0.988   8.650 -0.3445  0.6647 -1.5194
  184SLPC  C31621207   4.442   1.162   8.627  0.5606 -0.1194 -0.2632
  184SLPC  H16X21208   4.535   1.223   8.632  1.3554 -1.3766  1.3550
  184SLPC  H16Y21209   4.364   1.222   8.677 -0.2156  0.5087 -2.1300
  184SLPC  C31721210   4.396   1.131   8.485  0.4566  0.5037  0.3561
  184SLPC  H17X21211   4.304   1.069   8.486  0.6594  0.2029  1.1930
  184SLPC  H17Y21212   4.479   1.076   8.435 -1.4935 -0.7727 -1.6632
  184SLPC  C31821213   4.380   1.259   8.396  0.7285  0.8239 -0.1781
  184SLPC  H18X21214   4.477   1.312   8.380  0.4720  1.8960  1.6310
  184SLPC  H18Y21215   4.310   1.328   8.446 -1.0292 -1.1943  0.2747
  184SLPC  H18Z21216   4.346   1.233   8.293 -0.6442  3.5011 -0.4963
  185SLPC     N21217   1.145   2.678   6.038  0.2480  0.0594  0.3702
  185SLPC   C1321218   1.196   2.760   6.152 -0.3868  1.1078  0.7409
  185SLPC  H13A21219   1.205   2.699   6.240  0.0794 -2.8210 -1.7793
  185SLPC  H13B21220   1.291   2.809   6.137 -0.6582  1.8520  1.3646
  185SLPC  H13C21221   1.123   2.827   6.195 -0.3465 -0.1963  2.9692
  185SLPC   C1421222   1.070   2.768   5.948  0.1373 -0.3664 -0.4462
  185SLPC  H14A21223   0.992   2.812   6.008 -0.0704 -0.4122 -0.6823
  185SLPC  H14B21224   1.128   2.853   5.915 -0.3756  0.0254 -0.3515
  185SLPC  H14C21225   1.024   2.720   5.863  0.8630  0.6009 -1.4033
  185SLPC   C1521226   1.038   2.583   6.093 -0.1200 -0.7851  0.0213
  185SLPC  H15A21227   0.983   2.643   6.164 -0.0601  0.2428 -0.7742
  185SLPC  H15B21228   0.979   2.541   6.012 -0.4167  1.3426 -0.9353
  185SLPC  H15C21229   1.089   2.498   6.135  1.1879 -0.6170 -1.1561
  185SLPC   C1221230   1.257   2.606   5.970 -1.3184 -0.5409 -0.3605
  185SLPC  H12A21231   1.326   2.679   5.931  1.5799 -2.6371  0.5032
  185SLPC  H12B21232   1.226   2.550   5.884  1.5823 -0.9464 -1.2284
  185SLPC   C1121233   1.358   2.534   6.056 -0.3141  0.2629  0.2165
  185SLPC  H11A21234   1.435   2.602   6.099 -1.5295  0.7678  1.6963
  185SLPC  H11B21235   1.415   2.463   5.992 -0.4507 -2.9089  3.3074
  185SLPC     P21236   1.334   2.439   6.313 -0.0987 -0.4225 -0.3169
  185SLPC   O1321237   1.215   2.370   6.366  0.1575  0.2153 -0.2011
  185SLPC   O1421238   1.472   2.382   6.334 -0.4914  0.0054 -0.3603
  185SLPC   O1221239   1.304   2.467   6.168  0.4473  0.5169  0.4829
  185SLPC   O1121240   1.331   2.591   6.365  0.2665 -0.1167  0.6706
  185SLPC    C121241   1.449   2.660   6.389 -0.2427 -0.3022  0.4684
  185SLPC    HA21242   1.525   2.649   6.310 -0.3007  0.1910  0.3418
  185SLPC    HB21243   1.413   2.764   6.404  0.8141 -0.3220  3.8351
  185SLPC    C221244   1.509   2.634   6.528 -0.4579 -0.3897  0.6486
  185SLPC    HS21245   1.559   2.535   6.521 -0.9113 -0.5057 -1.3276
  185SLPC   O2121246   1.402   2.632   6.626 -0.0368 -0.7952  0.4096
  185SLPC   C2121247   1.420   2.566   6.733 -0.3195 -1.0363 -0.5418
  185SLPC   O2221248   1.491   2.470   6.755 -0.1991  0.2524 -0.5750
  185SLPC   C2221249   1.316   2.611   6.840  0.2455 -0.2638  0.2258
  185SLPC   H2R21250   1.216   2.625   6.795 -0.1492 -1.6515  0.6083
  185SLPC   H2S21251   1.301   2.518   6.900 -2.1569 -0.6669 -0.8864
  185SLPC    C321252   1.618   2.744   6.555  0.8131  0.5162  0.2795
  185SLPC    HX21253   1.565   2.842   6.551  2.0893  1.1978 -0.6479
  185SLPC    HY21254   1.692   2.756   6.473  0.6839  1.7916  0.3300
  185SLPC   O3121255   1.687   2.725   6.679  0.5530  0.2351 -0.2741
  185SLPC   C3121256   1.788   2.634   6.672 -0.2514 -0.3646  0.1648
  185SLPC   O3221257   1.813   2.572   6.570  0.2983  0.2232 -0.1360
  185SLPC   C3221258   1.861   2.631   6.812 -0.1588 -0.3332  0.0892
  185SLPC   H2X21259   1.803   2.708   6.868 -0.4948 -1.5966  1.5586
  185SLPC   H2Y21260   1.965   2.669   6.799 -0.0430 -0.9276 -0.8235
  185SLPC   C2321261   1.347   2.737   6.926 -0.0689  0.0204 -0.4043
  185SLPC   H3R21262   1.261   2.729   6.997  0.9371  1.5429  1.0493
  185SLPC   H3S21263   1.331   2.834   6.874  2.1973  1.2259  0.9900
  185SLPC   C2421264   1.484   2.725   6.997  0.0876 -1.0617 -0.3435
  185SLPC   H4R21265   1.563   2.733   6.920  1.1575  2.4080  0.9137
  185SLPC   H4S21266   1.502   2.622   7.033 -0.1028 -0.9519  0.0761
  185SLPC   C2521267   1.507   2.821   7.118  0.4649 -0.7107 -0.0454
  185SLPC   H5R21268   1.526   2.926   7.087 -2.2250  0.2053  1.1101
  185SLPC   H5S21269   1.599   2.774   7.159 -0.4572 -3.8051 -1.2557
  185SLPC   C2621270   1.387   2.824   7.209 -0.4223 -0.0959  0.2619
  185SLPC   H6R21271   1.358   2.718   7.221 -4.9093  0.9012 -0.0959
  185SLPC   H6S21272   1.307   2.882   7.160 -1.0075 -0.6893  0.5097
  185SLPC   C2721273   1.416   2.884   7.348  0.3676  0.5986 -0.4463
  185SLPC   H7R21274   1.438   2.988   7.319 -0.2825  0.6791 -0.6505
  185SLPC   H7S21275   1.508   2.835   7.388  0.2605  0.5617 -0.2430
  185SLPC   C2821276   1.294   2.874   7.449  0.1578 -0.4573  0.1926
  185SLPC   H8R21277   1.272   2.775   7.494  2.8476 -0.8203  0.9024
  185SLPC   H8S21278   1.204   2.912   7.396  0.1270  0.5336  0.9209
  185SLPC   C2921279   1.340   2.967   7.554 -0.1549  0.3757  0.3879
  185SLPC   H9R21280   1.430   2.928   7.603 -0.7732 -0.8110  0.6337
  185SLPC  C21021281   1.282   3.073   7.607 -0.7911 -1.1030  0.8145
  185SLPC  H10R21282   1.332   3.133   7.685 -1.4110  2.0006 -1.0282
  185SLPC  C21121283   1.149   3.135   7.561 -0.4549  0.6388 -0.8901
  185SLPC  H11R21284   1.122   3.099   7.459 -1.6273  2.6680 -1.3713
  185SLPC  H11S21285   1.159   3.246   7.551 -1.8285  0.8064 -0.6560
  185SLPC  C21221286   1.042   3.097   7.657 -0.7980 -0.2327  0.0272
  185SLPC  H12R21287   1.066   3.119   7.762 -1.0734 -1.5148  0.3700
  185SLPC  C21321288   0.924   3.045   7.628  0.2159 -0.3579  0.3080
  185SLPC  H13R21289   0.860   3.016   7.713 -0.9588  2.6121  0.5320
  185SLPC  C21421290   0.875   3.010   7.491 -0.5493 -0.7612  0.2987
  185SLPC  H14R21291   0.836   2.906   7.490 -0.4264 -0.8183 -1.0629
  185SLPC  H14S21292   0.946   3.016   7.406 -0.8034 -2.9103 -0.1333
  185SLPC  C21521293   0.747   3.085   7.447 -0.5017  0.2481  0.0448
  185SLPC  H15R21294   0.662   3.070   7.518  1.8687  1.4685  3.4452
  185SLPC  H15S21295   0.709   3.047   7.350 -0.8125  0.9482 -0.1141
  185SLPC  C21621296   0.762   3.242   7.438  0.3097  0.3402 -0.1875
  185SLPC  H16R21297   0.771   3.284   7.540  0.0512  0.4857 -0.2254
  185SLPC  H16S21298   0.667   3.282   7.396  0.5171  0.3072 -0.6988
  185SLPC  C21721299   0.877   3.294   7.346 -0.1080  0.7127  0.5278
  185SLPC  H17R21300   0.969   3.233   7.358 -2.0957 -2.6425 -0.0057
  185SLPC  H17S21301   0.888   3.401   7.373 -0.8573  1.2966 -1.3441
  185SLPC  C21821302   0.833   3.299   7.197 -0.2089 -0.0447 -0.0952
  185SLPC  H18R21303   0.919   3.328   7.133 -0.8472  1.1312 -0.4588
  185SLPC  H18S21304   0.743   3.360   7.174  0.7640  1.8917  0.9708
  185SLPC  H18T21305   0.804   3.195   7.173 -0.9834  0.5329 -1.8526
  185SLPC   C3321306   1.844   2.504   6.888  0.3358  0.4262  0.0030
  185SLPC   H3X21307   1.870   2.414   6.829 -3.8264 -0.9410 -0.0133
  185SLPC   H3Y21308   1.741   2.493   6.927  0.1360 -1.5341 -0.9814
  185SLPC   C3421309   1.930   2.505   7.011 -0.4305  0.3010  0.1835
  185SLPC   H4X21310   2.037   2.502   6.982 -0.8066  0.3774 -1.2987
  185SLPC   H4Y21311   1.904   2.415   7.069 -2.4698 -0.0050 -1.1168
  185SLPC   C3521312   1.915   2.630   7.103  0.1040 -0.0303 -0.2796
  185SLPC   H5X21313   1.808   2.650   7.125  0.1382  0.8443 -0.8474
  185SLPC   H5Y21314   1.944   2.718   7.042  0.7604 -0.5708 -0.7615
  185SLPC   C3621315   1.988   2.629   7.240 -0.1238  0.1677  0.2349
  185SLPC   H6X21316   2.000   2.525   7.277  0.2114 -0.0946 -0.5928
  185SLPC   H6Y21317   1.928   2.684   7.315  0.4048 -0.0366  0.8210
  185SLPC   C3721318   2.131   2.694   7.224  0.2230  0.1806 -0.9633
  185SLPC   H7X21319   2.122   2.801   7.196 -1.9310 -0.4190 -2.8409
  185SLPC   H7Y21320   2.182   2.640   7.141  1.9916 -1.5599  1.1163
  185SLPC   C3821321   2.209   2.682   7.356  0.0225 -0.4403 -0.1555
  185SLPC   H8X21322   2.316   2.708   7.340 -0.1215 -0.3502 -0.9946
  185SLPC   H8Y21323   2.203   2.574   7.384 -2.4464 -0.6370 -1.1552
  185SLPC   C3921324   2.170   2.790   7.461 -0.3245 -0.0010 -0.2909
  185SLPC   H9X21325   2.061   2.776   7.478  0.1053 -0.9360  2.0827
  185SLPC   H9Y21326   2.182   2.889   7.412 -0.9195  0.0845 -0.2663
  185SLPC  C31021327   2.254   2.777   7.594  0.7201 -0.3475 -1.1854
  185SLPC  H10X21328   2.228   2.674   7.627 -1.7041  0.7141  0.5559
  185SLPC  H10Y21329   2.212   2.847   7.670 -1.2730 -1.2100 -1.4087
  185SLPC  C31121330   2.404   2.795   7.584 -0.3206  0.3420 -0.0697
  185SLPC  H11X21331   2.424   2.893   7.536  1.3374  0.1388  0.1511
  185SLPC  H11Y21332   2.450   2.715   7.523  1.7940 -0.8359  2.8415
  185SLPC  C31221333   2.486   2.799   7.717  0.8294 -0.0828  0.3850
  185SLPC  H12X21334   2.595   2.818   7.703  1.5367 -2.8605  1.4663
  185SLPC  H12Y21335   2.467   2.699   7.760 -0.9174  0.1585  0.2298
  185SLPC  C31321336   2.437   2.907   7.819 -0.1030  0.4925 -0.0538
  185SLPC  H13X21337   2.338   2.864   7.844  0.1597 -0.3412 -0.3946
  185SLPC  H13Y21338   2.424   3.002   7.762  1.3770 -0.3558 -1.9313
  185SLPC  C31421339   2.515   2.909   7.944  0.3430 -0.1484  0.6021
  185SLPC  H14X21340   2.613   2.959   7.926  1.1023 -1.5758  0.5998
  185SLPC  H14Y21341   2.539   2.807   7.980 -2.0051 -1.7758 -2.0672
  185SLPC  C31521342   2.440   2.980   8.058 -0.1916 -0.1388  0.6705
  185SLPC  H15X21343   2.383   3.071   8.026 -0.8802 -0.6039  0.5472
  185SLPC  H15Y21344   2.515   3.019   8.130  1.6005 -1.2199 -0.5212
  185SLPC  C31621345   2.349   2.886   8.140 -0.1234  0.4421  0.5389
  185SLPC  H16X21346   2.266   2.856   8.073  1.0739 -0.6591 -0.5069
  185SLPC  H16Y21347   2.305   2.960   8.211  0.8277  0.7316  0.8422
  185SLPC  C31721348   2.405   2.758   8.207 -0.0278  0.6497  0.1099
  185SLPC  H17X21349   2.483   2.787   8.281  0.2637  1.1510 -0.3879
  185SLPC  H17Y21350   2.446   2.688   8.131  0.1425  2.5625 -1.6614
  185SLPC  C31821351   2.305   2.695   8.308 -0.2189  0.3745  0.0461
  185SLPC  H18X21352   2.358   2.628   8.378 -0.4986 -0.4237 -0.4963
  185SLPC  H18Y21353   2.231   2.630   8.257 -1.9994  1.9746  0.4756
  185SLPC  H18Z21354   2.258   2.780   8.363  0.4884  2.7836 -2.8115
  186SLPC     N21355   4.580   2.943   6.139 -0.2270 -0.0430 -0.7358
  186SLPC   C1321356   4.648   2.967   6.275 -0.0575 -0.1856  0.0678
  186SLPC  H13A21357   4.743   3.015   6.258 -0.8127  1.0745 -0.7376
  186SLPC  H13B21358   4.586   3.037   6.329  0.9989  0.8045  0.0336
  186SLPC  H13C21359   4.646   2.873   6.329 -0.1502 -0.4797 -0.4413
  186SLPC   C1421360   4.668   2.875   6.035  0.1214 -0.1068 -0.5940
  186SLPC  H14A21361   4.719   2.793   6.083  2.8346  2.8868  2.1158
  186SLPC  H14B21362   4.614   2.830   5.953 -0.7780  1.4473 -0.9089
  186SLPC  H14C21363   4.750   2.936   5.998  0.1238  1.2084  1.4544
  186SLPC   C1521364   4.552   3.077   6.077  0.2739 -0.6980  0.3140
  186SLPC  H15A21365   4.480   3.124   6.144  1.0158  0.1867  0.5155
  186SLPC  H15B21366   4.641   3.136   6.061  0.3181 -1.1281 -1.1523
  186SLPC  H15C21367   4.507   3.070   5.979 -1.3851  1.0560  0.8805
  186SLPC   C1221368   4.447   2.869   6.163  0.8572  0.5211 -0.1702
  186SLPC  H12A21369   4.470   2.770   6.200  1.9685  0.5627 -0.7087
  186SLPC  H12B21370   4.396   2.866   6.068  1.8136  1.7625 -0.7400
  186SLPC   C1121371   4.341   2.935   6.259  0.0337 -0.1501 -0.3818
  186SLPC  H11A21372   4.383   2.959   6.360 -2.1038  0.9118  0.3123
  186SLPC  H11B21373   4.258   2.861   6.270  0.9753 -1.4425 -1.6058
  186SLPC     P21374   4.233   3.174   6.271 -0.0865  0.0418  0.1177
  186SLPC   O1321375   4.243   3.299   6.187  0.1194  0.5647  0.5021
  186SLPC   O1421376   4.101   3.136   6.324  0.1371  0.5124 -0.1513
  186SLPC   O1221377   4.294   3.051   6.189  0.1137 -0.3725  0.4844
  186SLPC   O1121378   4.338   3.199   6.388 -0.7160  0.8207  0.0533
  186SLPC    C121379   4.310   3.154   6.518  0.2488  0.2420 -0.4565
  186SLPC    HA21380   4.265   3.053   6.517 -1.9294  1.1295  0.9035
  186SLPC    HB21381   4.401   3.157   6.582  0.7405  2.6058 -1.1654
  186SLPC    C221382   4.225   3.259   6.587 -0.0731  0.2122 -0.7193
  186SLPC    HS21383   4.171   3.326   6.517 -2.6604 -1.9607 -0.9749
  186SLPC   O2121384   4.299   3.332   6.685 -0.1550  0.2332 -0.0748
  186SLPC   C2121385   4.381   3.431   6.644  0.5099  0.7246  0.0699
  186SLPC   O2221386   4.396   3.470   6.526 -0.0217  0.1379  0.0093
  186SLPC   C2221387   4.454   3.485   6.765  0.7844 -0.3657  0.2312
  186SLPC   H2R21388   4.557   3.489   6.724  0.2099  0.5195 -1.1919
  186SLPC   H2S21389   4.418   3.586   6.796 -0.0422 -0.3636 -0.6966
  186SLPC    C321390   4.098   3.191   6.658  0.4689  0.0887  0.0878
  186SLPC    HX21391   4.152   3.132   6.735  0.7103  0.6698  0.3694
  186SLPC    HY21392   4.043   3.125   6.588  2.4678 -1.7422  0.1592
  186SLPC   O3121393   4.000   3.282   6.720 -0.2411  0.5524  0.3023
  186SLPC   C3121394   3.912   3.220   6.788  0.1746  0.3848 -0.7903
  186SLPC   O3221395   3.895   3.099   6.779  0.3901 -0.4472 -0.2727
  186SLPC   C3221396   3.822   3.319   6.878 -0.4965 -0.4423  0.6645
  186SLPC   H2X21397   3.721   3.303   6.836 -0.6282 -0.6866  1.0723
  186SLPC   H2Y21398   3.852   3.423   6.855  1.5780 -0.9797  0.7023
  186SLPC   C2321399   4.465   3.400   6.891  0.5539  0.0902 -0.1890
  186SLPC   H3R21400   4.359   3.393   6.923  0.1654  0.1173 -1.4203
  186SLPC   H3S21401   4.514   3.463   6.969 -0.4802 -1.4933  1.8295
  186SLPC   C2421402   4.538   3.264   6.864 -0.5349 -0.0335 -0.8739
  186SLPC   H4R21403   4.644   3.270   6.896 -0.8089  0.5740 -0.0535
  186SLPC   H4S21404   4.528   3.234   6.757 -0.9283 -2.7072 -0.1460
  186SLPC   C2521405   4.474   3.139   6.934  0.6372 -0.2404  1.2451
  186SLPC   H5R21406   4.509   3.052   6.875  2.7009  0.7983  0.8676
  186SLPC   H5S21407   4.365   3.140   6.912  1.2752 -0.6878 -2.5770
  186SLPC   C2621408   4.516   3.135   7.083  0.0734  0.3234  0.5621
  186SLPC   H6R21409   4.475   3.229   7.126  0.1204 -0.1624  1.7089
  186SLPC   H6S21410   4.624   3.129   7.105 -0.6834 -0.7627  5.0258
  186SLPC   C2721411   4.445   3.020   7.153 -0.3483 -0.2740 -0.3724
  186SLPC   H7R21412   4.492   2.928   7.113  1.4401  0.9537 -1.1992
  186SLPC   H7S21413   4.341   3.016   7.112 -0.0313 -0.8836 -1.1218
  186SLPC   C2821414   4.432   3.022   7.308  0.3416  0.3390  0.2753
  186SLPC   H8R21415   4.431   3.123   7.354 -1.0796  0.6456 -0.3902
  186SLPC   H8S21416   4.522   2.965   7.341 -0.0640 -1.7002 -1.8763
  186SLPC   C2921417   4.304   2.974   7.374  0.5056  0.0084 -0.2804
  186SLPC   H9R21418   4.217   3.006   7.315  1.4811  2.3827 -0.5424
  186SLPC  C21021419   4.285   2.896   7.490 -0.0540 -0.1261 -0.2347
  186SLPC  H10R21420   4.183   2.870   7.523 -0.2582 -2.1229 -2.1723
  186SLPC  C21121421   4.408   2.862   7.578  0.3704 -0.1417  0.3240
  186SLPC  H11R21422   4.403   2.940   7.657 -4.2720  2.2371 -1.8878
  186SLPC  H11S21423   4.497   2.862   7.513  0.1421 -1.1149 -0.0068
  186SLPC  C21221424   4.369   2.734   7.646 -0.4741 -0.8902 -0.2246
  186SLPC  H12R21425   4.376   2.642   7.586 -1.3489 -2.5431  2.0340
  186SLPC  C21321426   4.286   2.723   7.757  0.3058 -0.8507 -0.1397
  186SLPC  H13R21427   4.251   2.622   7.782 -2.2089 -0.0312 -0.0505
  186SLPC  C21421428   4.233   2.831   7.845 -0.1641 -0.4592  0.3762
  186SLPC  H14R21429   4.144   2.795   7.900  0.1060 -0.3154  0.9197
  186SLPC  H14S21430   4.205   2.922   7.788  0.4780 -1.5728 -1.8058
  186SLPC  C21521431   4.342   2.867   7.948 -0.1979 -0.5548 -0.8136
  186SLPC  H15R21432   4.428   2.914   7.896 -1.8068  1.0939 -2.1211
  186SLPC  H15S21433   4.376   2.776   8.003  0.5335  1.2025  1.8713
  186SLPC  C21621434   4.295   2.963   8.056 -0.1401 -0.3904 -0.4103
  186SLPC  H16R21435   4.208   2.919   8.110 -0.4410  0.1542 -0.4382
  186SLPC  H16S21436   4.256   3.056   8.009  0.8878  0.6717  0.7652
  186SLPC  C21721437   4.401   2.997   8.156 -0.4129 -0.2164 -0.2447
  186SLPC  H17R21438   4.478   3.051   8.097  0.1560  1.1435  1.6448
  186SLPC  H17S21439   4.448   2.902   8.187  1.2295  1.0283  1.2811
  186SLPC  C21821440   4.363   3.094   8.270 -0.3994 -0.1141  0.5300
  186SLPC  H18R21441   4.440   3.132   8.340  0.4708  0.6874 -0.8194
  186SLPC  H18S21442   4.285   3.043   8.331 -0.9977 -0.5798 -0.5909
  186SLPC  H18T21443   4.317   3.187   8.228  1.4741  0.2045 -0.9404
  186SLPC   C3321444   3.835   3.298   7.023 -0.1342  0.6981 -0.2548
  186SLPC   H3X21445   3.803   3.193   7.042  0.9245  0.8736  3.2752
  186SLPC   H3Y21446   3.758   3.353   7.081  0.2396  0.4386  0.5146
  186SLPC   C3421447   3.969   3.333   7.082 -0.0315 -0.3124  0.5319
  186SLPC   H4X21448   3.988   3.441   7.062 -2.1265  0.1818  0.9525
  186SLPC   H4Y21449   4.040   3.259   7.039 -1.7601 -0.5986 -2.0356
  186SLPC   C3521450   3.974   3.310   7.236  0.3790 -0.5545 -0.7087
  186SLPC   H5X21451   3.936   3.209   7.264 -2.2198  0.5660  0.0501
  186SLPC   H5Y21452   3.916   3.392   7.283 -1.2630 -2.1105  0.1075
  186SLPC   C3621453   4.123   3.309   7.283  0.4325 -0.7095  0.1807
  186SLPC   H6X21454   4.166   3.394   7.225  2.5300 -1.9923 -0.2355
  186SLPC   H6Y21455   4.185   3.228   7.241 -0.5900 -0.9628 -0.8965
  186SLPC   C3721456   4.158   3.334   7.433 -0.4234 -0.1487  1.2291
  186SLPC   H7X21457   4.266   3.357   7.443 -0.6845  1.1878  1.1046
  186SLPC   H7Y21458   4.151   3.242   7.495 -2.7771  0.1723  1.5091
  186SLPC   C3821459   4.062   3.438   7.496 -0.9103 -0.3352 -0.7645
  186SLPC   H8X21460   3.963   3.389   7.505 -1.8412  1.8616  2.5585
  186SLPC   H8Y21461   4.048   3.520   7.422  0.3787 -1.3370 -2.1959
  186SLPC   C3921462   4.103   3.497   7.631  0.0986  0.3332 -0.4169
  186SLPC   H9X21463   4.195   3.558   7.621  1.1261 -0.8725  1.2417
  186SLPC   H9Y21464   4.113   3.411   7.700 -1.5957 -0.0709 -0.6114
  186SLPC  C31021465   3.992   3.594   7.688  0.1921 -0.0601 -0.0807
  186SLPC  H10X21466   3.889   3.553   7.691 -0.3348  1.1845  3.2579
  186SLPC  H10Y21467   3.992   3.682   7.621  2.4845 -1.0934 -1.5649
  186SLPC  C31121468   4.020   3.638   7.830  1.0712  0.0085  0.0328
  186SLPC  H11X21469   4.119   3.687   7.842  1.1389 -0.4641  1.7202
  186SLPC  H11Y21470   3.994   3.559   7.904 -0.7043 -1.5770 -2.1480
  186SLPC  C31221471   3.922   3.752   7.876 -0.4519 -0.7845 -0.1909
  186SLPC  H12X21472   3.818   3.732   7.841 -1.6742 -0.0662  2.7319
  186SLPC  H12Y21473   3.949   3.850   7.833 -0.7202 -0.5731  0.1139
  186SLPC  C31321474   3.915   3.768   8.029  0.6858 -0.5529 -0.0546
  186SLPC  H13X21475   3.852   3.694   8.084 -1.6680  1.2974 -0.1278
  186SLPC  H13Y21476   3.864   3.864   8.050  0.6511 -0.9213  1.7076
  186SLPC  C31421477   4.046   3.770   8.093 -1.0321 -0.1469 -0.3802
  186SLPC  H14X21478   4.122   3.827   8.036 -1.3179 -0.6320 -1.2641
  186SLPC  H14Y21479   4.086   3.667   8.087  1.7796  0.8264  0.2720
  186SLPC  C31521480   4.049   3.812   8.242 -0.2256 -0.4239 -0.1897
  186SLPC  H15X21481   3.977   3.745   8.294  1.7183 -0.1006  3.1841
  186SLPC  H15Y21482   4.011   3.915   8.255 -1.7095 -1.2036  2.4689
  186SLPC  C31621483   4.187   3.797   8.305  0.2378  0.0121 -1.0198
  186SLPC  H16X21484   4.267   3.830   8.235  0.9924  0.7034  0.1328
  186SLPC  H16Y21485   4.205   3.687   8.309 -0.9050 -0.1567  2.0936
  186SLPC  C31721486   4.200   3.851   8.449 -0.2752  0.1115 -0.4066
  186SLPC  H17X21487   4.303   3.822   8.480 -1.1678 -2.2307  0.6006
  186SLPC  H17Y21488   4.139   3.790   8.519  1.1091 -1.4740 -0.5135
  186SLPC  C31821489   4.191   4.003   8.475  0.0420  0.1543  0.0437
  186SLPC  H18X21490   4.235   4.006   8.577  1.5069 -1.7451 -0.4516
  186SLPC  H18Y21491   4.088   4.041   8.463  0.4472  1.1477 -0.3440
  186SLPC  H18Z21492   4.253   4.063   8.406 -2.1724  0.2123 -2.0192
  187SLPC     N21493   3.242   2.748   6.222 -0.6248 -0.1987 -0.0964
  187SLPC   C1321494   3.132   2.655   6.263 -0.5597  0.4012 -0.6286
  187SLPC  H13A21495   3.051   2.708   6.311 -1.5035 -1.9659  0.5287
  187SLPC  H13B21496   3.089   2.607   6.176 -0.9833  1.1001 -0.8127
  187SLPC  H13C21497   3.169   2.584   6.335 -0.1030  1.6111  0.3744
  187SLPC   C1421498   3.192   2.851   6.136  0.3781 -0.2995  0.2066
  187SLPC  H14A21499   3.140   2.806   6.052  0.7399  0.7587 -0.6100
  187SLPC  H14B21500   3.122   2.915   6.187  0.1129 -1.2560  1.0696
  187SLPC  H14C21501   3.264   2.912   6.084 -1.4710  0.1562 -2.0398
  187SLPC   C1521502   3.341   2.672   6.145 -0.1318 -0.2895 -0.1717
  187SLPC  H15A21503   3.303   2.625   6.055  2.4495 -3.7757  0.3585
  187SLPC  H15B21504   3.429   2.729   6.119 -0.6073  1.3276  1.5680
  187SLPC  H15C21505   3.387   2.602   6.213  0.8988  0.9008  0.3823
  187SLPC   C1221506   3.316   2.814   6.337 -0.3462  0.4024  0.5066
  187SLPC  H12A21507   3.250   2.887   6.379 -0.5404  0.2429  0.4787
  187SLPC  H12B21508   3.408   2.864   6.311 -1.0232  1.7619  0.6664
  187SLPC   C1121509   3.367   2.730   6.456  1.1464 -0.6367 -0.0689
  187SLPC  H11A21510   3.291   2.675   6.515  2.6853 -0.3229  2.4027
  187SLPC  H11B21511   3.401   2.814   6.520  2.8112 -0.7022 -0.8235
  187SLPC     P21512   3.619   2.687   6.427 -0.4079 -0.0273  0.1070
  187SLPC   O1321513   3.714   2.588   6.368 -0.5649  0.2815  0.2744
  187SLPC   O1421514   3.619   2.825   6.368 -0.2027  0.2950 -0.3897
  187SLPC   O1221515   3.465   2.640   6.419 -0.4193 -0.3876  0.0659
  187SLPC   O1121516   3.639   2.704   6.581  0.2836 -0.0444 -1.1001
  187SLPC    C121517   3.622   2.589   6.669 -0.9923 -0.7863  0.6848
  187SLPC    HA21518   3.564   2.505   6.626 -0.5490 -1.7578  1.9284
  187SLPC    HB21519   3.721   2.544   6.692 -0.7414  0.0151  1.2001
  187SLPC    C221520   3.563   2.642   6.806  0.5117  0.5256  0.0489
  187SLPC    HS21521   3.455   2.661   6.789  0.2456 -0.2937  0.7912
  187SLPC   O2121522   3.622   2.764   6.855  0.0648 -0.3376 -0.0491
  187SLPC   C2121523   3.537   2.855   6.899  0.0681 -0.2635 -0.4781
  187SLPC   O2221524   3.424   2.865   6.877  0.3969 -0.5839  0.7041
  187SLPC   C2221525   3.602   2.955   6.997  0.0782  0.5363  0.0321
  187SLPC   H2R21526   3.679   2.905   7.058  1.6776 -0.5800 -2.6953
  187SLPC   H2S21527   3.649   3.036   6.937 -0.2846  0.6894 -0.0535
  187SLPC    C321528   3.575   2.529   6.915  0.2742 -0.1140  0.4038
  187SLPC    HX21529   3.683   2.526   6.941  0.1950  0.6654  0.8668
  187SLPC    HY21530   3.549   2.431   6.870 -1.1333 -0.2139  1.3713
  187SLPC   O3121531   3.496   2.555   7.032 -0.2739 -0.1983 -0.4161
  187SLPC   C3121532   3.366   2.524   7.022  0.4493  0.2999 -1.0743
  187SLPC   O3221533   3.305   2.484   6.922 -0.0839  0.3858 -0.0094
  187SLPC   C3221534   3.313   2.534   7.164 -0.1366  0.1158  0.2312
  187SLPC   H2X21535   3.376   2.468   7.227  1.3201 -0.2692 -1.5266
  187SLPC   H2Y21536   3.205   2.510   7.161 -0.5072  1.5575  1.0596
  187SLPC   C2321537   3.498   3.023   7.096 -0.2103  0.4423  0.4767
  187SLPC   H3R21538   3.446   2.944   7.153 -0.6533  1.6883  1.8560
  187SLPC   H3S21539   3.416   3.080   7.049  0.8074  1.4224 -0.1801
  187SLPC   C2421540   3.567   3.117   7.200  0.3209 -0.4494 -0.5969
  187SLPC   H4R21541   3.549   3.223   7.170  1.0933 -0.6368 -1.7426
  187SLPC   H4S21542   3.677   3.108   7.197  0.3019 -0.3839 -2.6038
  187SLPC   C2521543   3.510   3.104   7.343  0.3194  0.2409 -0.3118
  187SLPC   H5R21544   3.502   2.995   7.362  1.0172  0.2947  0.3787
  187SLPC   H5S21545   3.410   3.151   7.345 -1.2389 -2.8142  0.2306
  187SLPC   C2621546   3.588   3.144   7.465 -0.3451 -0.1072  0.1652
  187SLPC   H6R21547   3.687   3.095   7.477  0.2730  1.1689  0.4356
  187SLPC   H6S21548   3.521   3.139   7.553  0.0517  1.6488  0.6010
  187SLPC   C2721549   3.625   3.296   7.451  0.2561 -0.1668 -0.0559
  187SLPC   H7R21550   3.536   3.357   7.424  0.1072 -0.4922 -0.3075
  187SLPC   H7S21551   3.701   3.297   7.370 -0.3079 -1.5741 -0.6386
  187SLPC   C2821552   3.676   3.365   7.578  0.3083  0.0002  0.4823
  187SLPC   H8R21553   3.716   3.461   7.539  1.9790  0.3669  2.8626
  187SLPC   H8S21554   3.771   3.316   7.609  0.7872 -0.6323 -1.7974
  187SLPC   C2921555   3.573   3.390   7.679 -0.9536 -0.2331  0.0329
  187SLPC   H9R21556   3.472   3.391   7.638 -1.3547 -1.0799  0.9542
  187SLPC  C21021557   3.599   3.376   7.816  0.8320 -0.0095 -0.4447
  187SLPC  H10R21558   3.516   3.381   7.887  0.4715 -0.4837 -0.8238
  187SLPC  C21121559   3.734   3.358   7.885  0.3259  0.5882  0.0358
  187SLPC  H11R21560   3.784   3.457   7.895 -0.7654  1.5181 -2.7415
  187SLPC  H11S21561   3.802   3.293   7.826  0.1121 -0.6792  1.1430
  187SLPC  C21221562   3.720   3.300   8.024 -0.2937  0.9463 -0.2528
  187SLPC  H12R21563   3.621   3.315   8.068 -0.5250  1.1240 -0.8312
  187SLPC  C21321564   3.821   3.233   8.085 -0.3082  0.0999 -0.7720
  187SLPC  H13R21565   3.803   3.186   8.182  1.8174 -1.4777 -1.0694
  187SLPC  C21421566   3.964   3.212   8.041 -0.9577 -0.1829  0.1843
  187SLPC  H14R21567   3.981   3.237   7.934 -0.2872  0.8742  0.5230
  187SLPC  H14S21568   3.992   3.106   8.062  1.7033  0.6542  1.3429
  187SLPC  C21521569   4.067   3.294   8.117  0.1677  1.1499  0.1024
  187SLPC  H15R21570   4.030   3.398   8.106 -1.8701  0.3660 -0.8627
  187SLPC  H15S21571   4.169   3.290   8.073  0.7031  0.0189  1.3919
  187SLPC  C21621572   4.056   3.265   8.268 -0.1927 -0.4181 -0.2482
  187SLPC  H16R21573   4.097   3.163   8.279  0.9720  0.0496 -0.1463
  187SLPC  H16S21574   3.950   3.258   8.301  0.5504  2.0286  3.3276
  187SLPC  C21721575   4.123   3.370   8.355 -0.0570  0.6893  0.5527
  187SLPC  H17R21576   4.088   3.468   8.318 -1.1653 -0.8088 -2.7353
  187SLPC  H17S21577   4.229   3.360   8.325  0.6977  1.6175  2.6784
  187SLPC  C21821578   4.124   3.351   8.508 -0.3145 -0.1988  0.2545
  187SLPC  H18R21579   4.021   3.373   8.545 -0.1370  2.8448 -0.7258
  187SLPC  H18S21580   4.180   3.435   8.554 -1.0711 -0.1481  1.0935
  187SLPC  H18T21581   4.167   3.256   8.545  3.1973  0.1853 -2.3456
  187SLPC   C3321582   3.323   2.684   7.210 -0.1253  1.0000 -0.1740
  187SLPC   H3X21583   3.261   2.751   7.147 -1.1706 -0.4124 -0.7172
  187SLPC   H3Y21584   3.429   2.713   7.199 -0.3900  2.4542  0.8088
  187SLPC   C3421585   3.263   2.695   7.356  0.4121  0.3329 -0.6007
  187SLPC   H4X21586   3.288   2.607   7.418 -1.8760  1.4249  2.0611
  187SLPC   H4Y21587   3.153   2.711   7.354  0.2579 -0.6451 -1.7841
  187SLPC   C3521588   3.318   2.817   7.443  0.1502  0.1139  0.6078
  187SLPC   H5X21589   3.309   2.904   7.375  2.5443 -0.3591 -0.3989
  187SLPC   H5Y21590   3.426   2.800   7.458  0.0572  1.2330  2.7580
  187SLPC   C3621591   3.259   2.822   7.585 -0.2563 -0.6622  0.0160
  187SLPC   H6X21592   3.150   2.801   7.587 -0.9058  2.2974 -0.3640
  187SLPC   H6Y21593   3.269   2.924   7.627  1.4684 -0.8048  0.0249
  187SLPC   C3721594   3.326   2.725   7.682 -0.0172  0.3758  0.1495
  187SLPC   H7X21595   3.284   2.623   7.674 -0.5558  0.5780  0.3663
  187SLPC   H7Y21596   3.435   2.730   7.662 -0.4244  2.7234 -1.9333
  187SLPC   C3821597   3.295   2.764   7.831 -0.4678  0.4054 -0.1435
  187SLPC   H8X21598   3.190   2.737   7.853  0.0734  0.5495  2.9795
  187SLPC   H8Y21599   3.311   2.872   7.849  0.2033  0.1037  1.2285
  187SLPC   C3921600   3.376   2.662   7.934 -0.1539 -0.5052 -0.4524
  187SLPC   H9X21601   3.482   2.669   7.902 -0.7224 -1.2135 -2.6819
  187SLPC   H9Y21602   3.353   2.555   7.915  0.9684 -0.9662  0.6434
  187SLPC  C31021603   3.373   2.706   8.084  0.0315  0.7365 -0.2275
  187SLPC  H10X21604   3.441   2.794   8.086 -0.2919  1.0278 -1.3393
  187SLPC  H10Y21605   3.427   2.629   8.143 -1.3350 -1.9217 -2.2368
  187SLPC  C31121606   3.241   2.739   8.165 -0.2749 -0.6094 -0.1825
  187SLPC  H11X21607   3.174   2.651   8.162 -0.1517 -0.6847 -0.7343
  187SLPC  H11Y21608   3.195   2.829   8.117  0.4699  0.1920  0.5623
  187SLPC  C31221609   3.283   2.777   8.309 -0.5317  0.4228 -0.1270
  187SLPC  H12X21610   3.363   2.854   8.300 -3.3779  3.5373 -1.2375
  187SLPC  H12Y21611   3.315   2.687   8.365  0.0655  2.0065  2.2301
  187SLPC  C31321612   3.166   2.849   8.386 -0.5612  0.4336  0.0573
  187SLPC  H13X21613   3.067   2.801   8.368 -0.7049  0.1568  1.4071
  187SLPC  H13Y21614   3.158   2.958   8.369 -0.8090  0.5647  0.9525
  187SLPC  C31421615   3.186   2.847   8.538 -0.0513 -0.1198 -0.4628
  187SLPC  H14X21616   3.119   2.915   8.596 -0.6669 -1.0120 -0.1061
  187SLPC  H14Y21617   3.290   2.884   8.550 -0.1144 -0.1748  0.3281
  187SLPC  C31521618   3.160   2.706   8.595  0.3571 -0.0493 -0.5019
  187SLPC  H15X21619   3.223   2.626   8.552  0.1732 -0.3138 -0.2792
  187SLPC  H15Y21620   3.057   2.680   8.563 -1.4752  0.7727  3.9912
  187SLPC  C31621621   3.152   2.701   8.747  0.1323 -1.0169 -0.0228
  187SLPC  H16X21622   3.089   2.779   8.796  0.3533  0.0476 -1.3888
  187SLPC  H16Y21623   3.253   2.717   8.790  0.3348  0.7092 -1.0733
  187SLPC  C31721624   3.093   2.571   8.794  0.4562  0.3418  0.2532
  187SLPC  H17X21625   3.156   2.488   8.756  0.9301  0.5854  0.4942
  187SLPC  H17Y21626   2.991   2.555   8.752  1.4698  0.3396 -2.3615
  187SLPC  C31821627   3.083   2.563   8.955  0.4150 -0.2746 -0.9139
  187SLPC  H18X21628   3.093   2.458   8.988 -1.1565 -0.8637 -2.2005
  187SLPC  H18Y21629   2.989   2.606   8.995  1.7842  0.4778  1.7201
  187SLPC  H18Z21630   3.158   2.633   8.997 -1.4428  1.2797 -0.0027
  188SLPC     N21631   5.123   2.272   6.140 -0.0078 -0.3932  0.0030
  188SLPC   C1321632   5.058   2.167   6.050  0.7187  0.2610  0.3329
  188SLPC  H13A21633   5.003   2.211   5.968 -0.9966 -0.0940  1.2422
  188SLPC  H13B21634   5.134   2.107   6.003 -0.3751  0.6892 -2.1606
  188SLPC  H13C21635   4.986   2.110   6.107  1.0860 -0.9701 -0.4014
  188SLPC   C1421636   5.238   2.345   6.066 -0.3474 -0.5357  0.1661
  188SLPC  H14A21637   5.205   2.397   5.977 -0.3593  1.1211  1.0928
  188SLPC  H14B21638   5.280   2.428   6.121  0.5939 -0.6762 -0.3406
  188SLPC  H14C21639   5.314   2.274   6.038  2.1643  1.9516  0.2517
  188SLPC   C1521640   5.186   2.199   6.257  0.8824  0.3061  0.2519
  188SLPC  H15A21641   5.114   2.126   6.292  1.7512 -0.9222 -0.4279
  188SLPC  H15B21642   5.264   2.132   6.225  0.4463 -1.2062  2.1769
  188SLPC  H15C21643   5.221   2.271   6.329  1.9373 -0.7986  0.8693
  188SLPC   C1221644   5.018   2.360   6.188  0.2463  0.8376  0.0986
  188SLPC  H12A21645   4.937   2.296   6.220  2.6724 -1.6448  1.8376
  188SLPC  H12B21646   4.984   2.414   6.101 -1.2730 -0.4146 -0.1275
  188SLPC   C1121647   5.044   2.471   6.295 -0.4992 -0.2774 -0.1534
  188SLPC  H11A21648   5.096   2.417   6.377  0.0184 -1.1203 -1.0155
  188SLPC  H11B21649   4.947   2.515   6.325  0.2167  0.3667  1.3481
  188SLPC     P21650   5.082   2.711   6.180  0.1737 -0.2378  0.3816
  188SLPC   O1321651   4.967   2.685   6.086 -0.1698 -0.8446 -0.0063
  188SLPC   O1421652   5.051   2.809   6.289 -0.2684 -0.3670 -0.3442
  188SLPC   O1221653   5.131   2.576   6.246 -0.0485  0.4080  0.0139
  188SLPC   O1121654   5.206   2.763   6.107  0.3546 -0.1199 -0.1719
  188SLPC    C121655   5.344   2.732   6.116 -0.6057 -0.3554 -0.5834
  188SLPC    HA21656   5.370   2.625   6.103  2.0050  0.2659 -1.0259
  188SLPC    HB21657   5.405   2.786   6.040 -0.3540  2.2037  1.2694
  188SLPC    C221658   5.418   2.782   6.241  0.1441 -0.8877  0.4876
  188SLPC    HS21659   5.515   2.728   6.248  0.2059 -0.7272  0.9322
  188SLPC   O2121660   5.343   2.752   6.359 -0.1468 -0.0059 -0.4620
  188SLPC   C2121661   5.352   2.631   6.414  0.2022 -0.4475 -0.2936
  188SLPC   O2221662   5.408   2.534   6.370 -0.2329  0.6052  0.1546
  188SLPC   C2221663   5.280   2.631   6.549 -0.2505 -0.0474  0.4489
  188SLPC   H2R21664   5.312   2.726   6.596 -2.4011  0.3307  1.2552
  188SLPC   H2S21665   5.171   2.638   6.531 -1.0241 -0.5393  4.1919
  188SLPC    C321666   5.429   2.935   6.240 -0.0517 -0.2939 -0.5157
  188SLPC    HX21667   5.325   2.974   6.242  0.5281  1.3192  1.2539
  188SLPC    HY21668   5.479   2.979   6.151  0.5084  0.5770  0.2017
  188SLPC   O3121669   5.479   2.975   6.370 -0.1414 -0.4651  0.3017
  188SLPC   C3121670   5.609   2.991   6.373  0.6483 -0.2235 -0.2289
  188SLPC   O3221671   5.689   2.957   6.285  0.2007 -0.0686  0.0224
  188SLPC   C3221672   5.646   3.058   6.510  0.3818  0.1661  0.8525
  188SLPC   H2X21673   5.604   3.160   6.511  0.2053  0.1851 -1.6413
  188SLPC   H2Y21674   5.756   3.073   6.517  0.8058 -1.3808 -1.2451
  188SLPC   C2321675   5.299   2.502   6.630 -0.0284 -0.3885 -0.3892
  188SLPC   H3R21676   5.404   2.466   6.634 -0.3780 -1.4471 -0.4794
  188SLPC   H3S21677   5.232   2.422   6.594  0.4096 -0.5121 -0.9470
  188SLPC   C2421678   5.281   2.534   6.782 -0.5566  1.1839 -1.2308
  188SLPC   H4R21679   5.180   2.574   6.802  0.1207  2.4173 -0.1560
  188SLPC   H4S21680   5.357   2.609   6.811 -1.8249  1.2127  2.6543
  188SLPC   C2521681   5.303   2.414   6.878 -0.2479  0.1731 -0.1392
  188SLPC   H5R21682   5.400   2.365   6.856 -0.0535  0.6058 -0.2655
  188SLPC   H5S21683   5.233   2.334   6.845  1.7307 -0.7387 -2.3874
  188SLPC   C2621684   5.279   2.431   7.029 -0.0037  0.3489 -0.1725
  188SLPC   H6R21685   5.347   2.507   7.073  0.4870  0.1389 -0.5612
  188SLPC   H6S21686   5.294   2.331   7.077  0.2574  0.4723  0.0066
  188SLPC   C2721687   5.132   2.458   7.068 -0.8016 -0.1326 -0.4168
  188SLPC   H7R21688   5.062   2.377   7.038 -0.9086 -0.1583 -0.1106
  188SLPC   H7S21689   5.108   2.557   7.025 -0.0156  0.0902 -0.3587
  188SLPC   C2821690   5.130   2.483   7.222 -0.3436 -0.9165 -0.0980
  188SLPC   H8R21691   5.044   2.549   7.246  0.1080 -0.5870  0.6549
  188SLPC   H8S21692   5.224   2.538   7.245  0.5395 -2.6462  0.5639
  188SLPC   C2921693   5.122   2.350   7.297  0.3126 -0.2512 -0.5945
  188SLPC   H9R21694   5.119   2.260   7.235  1.3352  0.1137 -1.2025
  188SLPC  C21021695   5.121   2.337   7.429 -0.3976  0.2271  0.4534
  188SLPC  H10R21696   5.119   2.234   7.468  0.4072  0.0278 -0.0203
  188SLPC  C21121697   5.139   2.450   7.528  0.2548 -0.1598  0.0661
  188SLPC  H11R21698   5.041   2.475   7.573  0.3416  0.3452 -0.0178
  188SLPC  H11S21699   5.171   2.544   7.478 -0.0176  0.0011  0.1920
  188SLPC  C21221700   5.230   2.438   7.646  0.1089  0.5586  0.0908
  188SLPC  H12R21701   5.322   2.490   7.618 -0.2991  0.7346 -0.9596
  188SLPC  C21321702   5.207   2.369   7.760 -1.0108  0.9028 -0.3917
  188SLPC  H13R21703   5.274   2.390   7.844 -1.8467  2.3440 -0.0477
  188SLPC  C21421704   5.087   2.291   7.811  0.6793 -0.1181  0.8265
  188SLPC  H14R21705   5.097   2.183   7.789  1.8008  0.0481  0.4835
  188SLPC  H14S21706   4.986   2.327   7.783  1.4754  1.2123 -0.4880
  188SLPC  C21521707   5.086   2.286   7.963 -0.1682 -0.6474 -0.6482
  188SLPC  H15R21708   5.079   2.391   8.001  2.1647 -0.3070 -1.0140
  188SLPC  H15S21709   5.175   2.242   8.012 -0.6686 -1.5505 -0.5330
  188SLPC  C21621710   4.970   2.191   8.025 -0.6534 -0.8138  0.2311
  188SLPC  H16R21711   5.007   2.091   7.993 -0.1604 -1.0738  1.5797
  188SLPC  H16S21712   4.869   2.214   7.983 -1.2857 -0.9033  1.6440
  188SLPC  C21721713   4.958   2.181   8.181 -0.0390 -0.4238 -0.2087
  188SLPC  H17R21714   5.052   2.150   8.230  0.8161  0.9931 -0.8796
  188SLPC  H17S21715   4.882   2.102   8.198  0.0934 -0.4717  0.1632
  188SLPC  C21821716   4.905   2.311   8.246 -0.2534  0.1134 -0.3657
  188SLPC  H18R21717   4.821   2.352   8.186 -1.3330 -0.8233  0.4543
  188SLPC  H18S21718   4.989   2.384   8.247 -0.0511 -0.1200  0.4457
  188SLPC  H18T21719   4.879   2.293   8.353  0.7006  0.4601 -0.0650
  188SLPC   C3321720   5.579   2.990   6.628 -0.0658 -0.5343 -0.0743
  188SLPC   H3X21721   5.468   2.996   6.624 -0.0604 -0.9992 -1.8436
  188SLPC   H3Y21722   5.619   3.043   6.717  0.4566 -0.9121 -0.0786
  188SLPC   C3421723   5.624   2.842   6.637 -0.4684 -0.1750  0.2626
  188SLPC   H4X21724   5.733   2.821   6.628 -0.1909  1.6735 -1.7102
  188SLPC   H4Y21725   5.575   2.788   6.553 -1.4164  1.1190 -0.0508
  188SLPC   C3521726   5.563   2.776   6.761  0.2538  0.0796 -0.6313
  188SLPC   H5X21727   5.586   2.667   6.761 -0.8817 -0.1965  0.9589
  188SLPC   H5Y21728   5.452   2.776   6.763  0.2680  0.2098  0.7728
  188SLPC   C3621729   5.605   2.824   6.897  0.1953 -0.1618 -0.6744
  188SLPC   H6X21730   5.559   2.925   6.896  0.8053  0.1494 -3.0480
  188SLPC   H6Y21731   5.715   2.831   6.905  0.1772 -1.5752  2.7731
  188SLPC   C3721732   5.558   2.733   7.011  0.0057  0.7140 -1.2095
  188SLPC   H7X21733   5.610   2.635   7.000 -2.0284 -0.3089 -2.3307
  188SLPC   H7Y21734   5.452   2.704   7.000  0.0481  0.0521 -0.0705
  188SLPC   C3821735   5.580   2.790   7.153 -0.1187 -0.8024  0.2744
  188SLPC   H8X21736   5.514   2.879   7.151 -1.3242 -1.6294 -2.6841
  188SLPC   H8Y21737   5.679   2.840   7.148 -0.5580 -0.0320 -1.8735
  188SLPC   C3921738   5.575   2.693   7.265  0.6317 -0.2717  0.1770
  188SLPC   H9X21739   5.657   2.623   7.238  1.7570  1.1104 -0.1040
  188SLPC   H9Y21740   5.485   2.630   7.282  1.9336 -1.8645  1.4927
  188SLPC  C31021741   5.605   2.762   7.397 -0.6219 -0.6589 -0.0376
  188SLPC  H10X21742   5.535   2.847   7.413  0.9639  0.5872  0.4952
  188SLPC  H10Y21743   5.709   2.800   7.394  0.0606 -2.4145  0.0192
  188SLPC  C31121744   5.581   2.671   7.517  0.7000 -0.6260 -0.0458
  188SLPC  H11X21745   5.631   2.572   7.508 -0.6552 -1.5079  1.5597
  188SLPC  H11Y21746   5.473   2.649   7.522  0.4597  0.4696 -0.0348
  188SLPC  C31221747   5.626   2.720   7.660 -0.7990 -0.3092 -0.5387
  188SLPC  H12X21748   5.602   2.828   7.666  1.0721  0.0647  1.4456
  188SLPC  H12Y21749   5.737   2.722   7.661 -0.6937 -2.2975  2.1675
  188SLPC  C31321750   5.577   2.635   7.777 -0.9199 -0.7088 -0.0359
  188SLPC  H13X21751   5.611   2.531   7.759 -0.2083 -0.5399  0.2795
  188SLPC  H13Y21752   5.466   2.641   7.777 -0.9637 -1.4076  0.0636
  188SLPC  C31421753   5.635   2.676   7.916 -0.7493  0.3077  0.2033
  188SLPC  H14X21754   5.636   2.787   7.923  0.7177  0.2862  0.4763
  188SLPC  H14Y21755   5.740   2.644   7.929 -0.3525  1.9289  1.3113
  188SLPC  C31521756   5.547   2.611   8.022  0.2782  0.0262  0.4349
  188SLPC  H15X21757   5.598   2.613   8.121 -0.7853 -0.9933  1.0280
  188SLPC  H15Y21758   5.521   2.508   7.988  0.3891 -0.1685  0.9383
  188SLPC  C31621759   5.410   2.682   8.048  0.6717  0.4430 -0.2779
  188SLPC  H16X21760   5.325   2.642   7.988  0.2514 -1.6410  1.5787
  188SLPC  H16Y21761   5.430   2.784   8.008  0.7176  0.0402 -1.3144
  188SLPC  C31721762   5.366   2.681   8.195  0.0227 -0.1578  0.9080
  188SLPC  H17X21763   5.311   2.777   8.194  1.6616  0.8207  0.1972
  188SLPC  H17Y21764   5.460   2.694   8.254  0.3093 -1.4175  0.7647
  188SLPC  C31821765   5.277   2.557   8.240 -0.2614  0.4207  0.2409
  188SLPC  H18X21766   5.255   2.564   8.349 -2.3598 -1.1320 -0.0279
  188SLPC  H18Y21767   5.328   2.460   8.219 -0.0476  0.1640  1.8257
  188SLPC  H18Z21768   5.185   2.555   8.178 -0.2560 -1.0044  0.2508
  189SLPC     N21769   0.401   6.519   6.249 -0.1125 -0.2321 -0.4863
  189SLPC   C1321770   0.271   6.479   6.182  0.4667 -0.2800  0.6361
  189SLPC  H13A21771   0.205   6.419   6.243  0.8871 -0.7014  0.6884
  189SLPC  H13B21772   0.214   6.565   6.153  1.6157  0.6548  1.0865
  189SLPC  H13C21773   0.290   6.418   6.094 -0.5914 -0.1619  0.3147
  189SLPC   C1421774   0.364   6.623   6.347  0.1149  0.3951 -0.0427
  189SLPC  H14A21775   0.449   6.648   6.409  2.0381 -2.9616 -1.0857
  189SLPC  H14B21776   0.338   6.710   6.289  0.0253  0.7545  0.5277
  189SLPC  H14C21777   0.283   6.576   6.401 -1.0299  2.6324  0.3113
  189SLPC   C1521778   0.486   6.577   6.144 -0.8724  0.4864  0.1413
  189SLPC  H15A21779   0.459   6.676   6.109  1.0097  1.3579  0.9973
  189SLPC  H15B21780   0.590   6.579   6.171 -0.3778  1.0257 -1.6631
  189SLPC  H15C21781   0.478   6.508   6.062 -1.3887 -0.1725  0.7375
  189SLPC   C1221782   0.462   6.393   6.303 -0.1820  0.2919 -0.6844
  189SLPC  H12A21783   0.556   6.417   6.351  0.7437 -2.4787 -0.9276
  189SLPC  H12B21784   0.475   6.326   6.220  0.4467  2.1319 -2.1528
  189SLPC   C1121785   0.369   6.322   6.410 -0.3121  0.1257 -0.1807
  189SLPC  H11A21786   0.324   6.403   6.472 -0.5193 -1.7136  2.1803
  189SLPC  H11B21787   0.439   6.264   6.472  0.2758  1.6817  0.6783
  189SLPC     P21788   0.276   6.115   6.263 -0.2532  0.2606  0.5692
  189SLPC   O1321789   0.146   6.079   6.212 -0.2227  0.5640  0.9697
  189SLPC   O1421790   0.393   6.131   6.169  0.4252 -0.2854 -0.0493
  189SLPC   O1221791   0.260   6.253   6.343 -0.0142 -0.1886  0.9030
  189SLPC   O1121792   0.319   6.019   6.377 -0.0918  0.4531  0.2425
  189SLPC    C121793   0.232   5.957   6.472  0.6626 -0.4092  0.1735
  189SLPC    HA21794   0.127   5.991   6.466  0.7051 -0.5587 -2.2948
  189SLPC    HB21795   0.237   5.848   6.455  3.5676 -0.6456  1.8869
  189SLPC    C221796   0.276   5.982   6.620  0.1599  0.3421  0.4013
  189SLPC    HS21797   0.260   6.090   6.640 -2.7196 -0.0866  0.8821
  189SLPC   O2121798   0.418   5.941   6.637  0.5801 -0.5319  0.8640
  189SLPC   C2121799   0.493   6.030   6.701 -0.2210  0.0060 -0.0098
  189SLPC   O2221800   0.457   6.141   6.745  0.2349  0.1349 -0.9207
  189SLPC   C2221801   0.632   5.963   6.723  0.4710  0.0546 -0.6413
  189SLPC   H2R21802   0.639   5.874   6.657  0.1367 -1.3180  1.1343
  189SLPC   H2S21803   0.708   6.036   6.688  2.6155 -0.8939  1.7720
  189SLPC    C321804   0.183   5.903   6.724  0.3128 -0.2321 -0.2579
  189SLPC    HX21805   0.185   5.795   6.699  0.3768 -0.3549  0.2594
  189SLPC    HY21806   0.079   5.939   6.712 -0.1005 -1.5898 -0.9396
  189SLPC   O3121807   0.232   5.909   6.859 -1.2727 -0.4364  0.1811
  189SLPC   C3121808   0.188   6.017   6.923 -0.1535  0.2326 -0.3018
  189SLPC   O3221809   0.118   6.104   6.873  0.8810  0.2404  0.5154
  189SLPC   C3221810   0.254   6.030   7.060 -0.0766  0.0027 -0.3847
  189SLPC   H2X21811   0.340   6.099   7.047 -0.5354  1.0270  1.6809
  189SLPC   H2Y21812   0.284   5.929   7.094 -0.6493  0.2396  0.8855
  189SLPC   C2321813   0.660   5.914   6.866 -0.1867  0.9610 -0.1247
  189SLPC   H3R21814   0.750   5.849   6.861  0.2067  0.9419  3.7760
  189SLPC   H3S21815   0.587   5.842   6.908  1.4909 -0.3571  0.6558
  189SLPC   C2421816   0.684   6.029   6.959 -0.3104 -0.1467 -0.5279
  189SLPC   H4R21817   0.585   6.068   6.990  0.1256 -1.0214  2.2803
  189SLPC   H4S21818   0.740   6.108   6.905 -0.8371  0.3936 -0.2976
  189SLPC   C2521819   0.764   6.002   7.091 -0.3901  0.7825 -0.3816
  189SLPC   H5R21820   0.871   5.994   7.063  0.3421  0.0522  2.3114
  189SLPC   H5S21821   0.735   5.899   7.121 -0.4991  1.2337  1.1731
  189SLPC   C2621822   0.728   6.105   7.197  0.4554  0.2726  0.3692
  189SLPC   H6R21823   0.617   6.102   7.202  0.4597 -0.8908  0.0815
  189SLPC   H6S21824   0.766   6.201   7.158  0.3395  0.4857  0.7773
  189SLPC   C2721825   0.806   6.069   7.321 -0.3420 -0.0359 -0.3798
  189SLPC   H7R21826   0.913   6.077   7.292  0.6721 -2.8488  2.1118
  189SLPC   H7S21827   0.777   5.967   7.354  0.1968 -0.0478  0.0706
  189SLPC   C2821828   0.768   6.174   7.425 -0.1822 -0.6523 -0.2557
  189SLPC   H8R21829   0.659   6.175   7.446 -0.2033 -1.1891 -0.3344
  189SLPC   H8S21830   0.777   6.275   7.379 -1.7367 -0.1250  0.5221
  189SLPC   C2921831   0.856   6.167   7.549  0.3017  0.4172  0.0690
  189SLPC   H9R21832   0.962   6.164   7.519 -0.6811  2.7604 -4.4686
  189SLPC  C21021833   0.823   6.163   7.681  0.3009  0.0041 -0.0126
  189SLPC  H10R21834   0.909   6.150   7.749  1.2037 -0.5077 -1.2238
  189SLPC  C21121835   0.684   6.146   7.746  0.6541  0.2675  0.7743
  189SLPC  H11R21836   0.690   6.074   7.830 -0.7675  0.3934  1.0033
  189SLPC  H11S21837   0.614   6.099   7.673  1.0981  3.5094 -1.9663
  189SLPC  C21221838   0.623   6.277   7.788 -0.6844  0.2985 -0.3956
  189SLPC  H12R21839   0.551   6.319   7.716  0.7958  0.5634 -1.7793
  189SLPC  C21321840   0.623   6.335   7.911  0.5937  0.6627 -0.2750
  189SLPC  H13R21841   0.557   6.422   7.925  0.6427  0.4991  1.2316
  189SLPC  C21421842   0.681   6.291   8.043  0.2365  0.2052 -0.2044
  189SLPC  H14R21843   0.682   6.379   8.112  0.5638 -0.0975  0.1804
  189SLPC  H14S21844   0.788   6.264   8.029  0.0429 -0.3949 -0.5448
  189SLPC  C21521845   0.607   6.175   8.111  0.3784 -0.3283 -0.6497
  189SLPC  H15R21846   0.679   6.150   8.192 -1.3646 -1.1795  0.7173
  189SLPC  H15S21847   0.599   6.082   8.051  2.0863 -0.4975 -0.6555
  189SLPC  C21621848   0.464   6.211   8.159  0.5662 -1.2005 -0.2157
  189SLPC  H16R21849   0.415   6.275   8.082 -0.1031 -0.3801  0.8666
  189SLPC  H16S21850   0.464   6.261   8.258  1.3892  1.1107 -1.3004
  189SLPC  C21721851   0.367   6.096   8.166  0.1948 -0.0294 -0.8902
  189SLPC  H17R21852   0.365   6.049   8.065  0.6096 -0.4227 -0.7180
  189SLPC  H17S21853   0.267   6.126   8.205  1.3381  1.5073  1.0176
  189SLPC  C21821854   0.412   5.993   8.265  0.5797 -1.0928 -0.7988
  189SLPC  H18R21855   0.415   6.046   8.363  0.0066 -2.4753 -0.0014
  189SLPC  H18S21856   0.517   5.959   8.247  0.9316  0.6563 -2.3136
  189SLPC  H18T21857   0.349   5.902   8.265 -0.6846 -0.2545 -2.0535
  189SLPC   C3321858   0.154   6.080   7.158  0.5071  0.2157  0.1438
  189SLPC   H3X21859   0.049   6.042   7.156  0.2107  0.7239  2.4496
  189SLPC   H3Y21860   0.142   6.189   7.141 -1.3720 -0.0289 -0.3073
  189SLPC   C3421861   0.186   6.048   7.305  0.4793  0.2668 -0.0880
  189SLPC   H4X21862   0.295   6.065   7.319  0.5470  0.0440 -0.3533
  189SLPC   H4Y21863   0.189   5.937   7.315  0.7623  0.3035  0.2797
  189SLPC   C3521864   0.091   6.110   7.405  0.1972 -0.6157 -0.0054
  189SLPC   H5X21865  -0.013   6.074   7.385 -0.1641  0.5791 -0.3481
  189SLPC   H5Y21866   0.092   6.221   7.402 -1.3266 -0.5868 -0.8050
  189SLPC   C3621867   0.118   6.085   7.554  0.0731  0.1321 -0.3410
  189SLPC   H6X21868   0.212   6.137   7.582  1.6274 -0.3867 -4.0369
  189SLPC   H6Y21869   0.147   5.980   7.573 -0.8113 -0.3885 -1.7209
  189SLPC   C3721870   0.006   6.120   7.655 -0.5350 -0.3282  0.5113
  189SLPC   H7X21871  -0.087   6.073   7.615  0.7114 -1.2165 -1.5153
  189SLPC   H7Y21872  -0.009   6.229   7.670 -0.4364 -0.3222  0.5695
  189SLPC   C3821873   0.037   6.062   7.791 -0.7954  0.5195  0.4070
  189SLPC   H8X21874   0.122   6.122   7.828  0.8675 -0.4469 -1.6100
  189SLPC   H8Y21875   0.086   5.964   7.773  0.1170  0.5410  2.5102
  189SLPC   C3921876  -0.084   6.040   7.890  0.3521  0.1102  0.0612
  189SLPC   H9X21877  -0.134   5.946   7.858 -0.5635  0.2763  0.9517
  189SLPC   H9Y21878  -0.157   6.124   7.893  0.1420 -0.0880  0.4864
  189SLPC  C31021879  -0.032   6.012   8.028 -0.3985  0.1013  0.7061
  189SLPC  H10X21880   0.053   6.083   8.040  0.4060 -0.9497  1.4644
  189SLPC  H10Y21881   0.005   5.907   8.033 -0.4943  0.0956  1.3423
  189SLPC  C31121882  -0.139   6.039   8.136 -0.1523  0.3652 -0.5936
  189SLPC  H11X21883  -0.216   5.959   8.130 -2.4269  2.3481  0.2536
  189SLPC  H11Y21884  -0.184   6.139   8.119  0.2945  0.7220  0.2408
  189SLPC  C31221885  -0.084   6.024   8.279 -0.3274  1.2207  0.9681
  189SLPC  H12X21886  -0.019   6.112   8.301 -2.7727  3.0733  1.2461
  189SLPC  H12Y21887  -0.035   5.924   8.279 -3.2162 -0.3495 -1.9754
  189SLPC  C31321888  -0.191   6.036   8.394 -0.2587  0.3942  0.3431
  189SLPC  H13X21889  -0.138   6.020   8.490 -0.6358 -0.2073  0.4605
  189SLPC  H13Y21890  -0.256   5.946   8.401  1.1632 -0.6279  0.7631
  189SLPC  C31421891  -0.269   6.172   8.391  0.3836  0.5672 -0.0769
  189SLPC  H14X21892  -0.310   6.202   8.293 -0.6496  1.9456  0.7492
  189SLPC  H14Y21893  -0.202   6.249   8.436  1.0213  0.3964 -0.7090
  189SLPC  C31521894  -0.395   6.170   8.477  0.1909 -0.4608 -0.6580
  189SLPC  H15X21895  -0.378   6.149   8.585 -0.1053  1.2483 -0.2539
  189SLPC  H15Y21896  -0.470   6.095   8.442 -1.0224 -0.1020  1.0306
  189SLPC  C31621897  -0.471   6.301   8.480  0.5763 -0.2012  0.5663
  189SLPC  H16X21898  -0.505   6.316   8.376  1.1353 -1.9986  0.0902
  189SLPC  H16Y21899  -0.403   6.387   8.495 -0.6715  0.4495  3.0596
  189SLPC  C31721900  -0.595   6.301   8.562  0.3723 -0.0196  0.3028
  189SLPC  H17X21901  -0.631   6.406   8.555  2.1796  0.6676  0.6226
  189SLPC  H17Y21902  -0.568   6.262   8.662  1.2239  3.1088  1.4125
  189SLPC  C31821903  -0.704   6.218   8.491  0.0301 -0.3424  0.1796
  189SLPC  H18X21904  -0.765   6.153   8.558 -1.7186  1.3536  0.3304
  189SLPC  H18Y21905  -0.657   6.152   8.415 -0.2612 -1.9005  1.2877
  189SLPC  H18Z21906  -0.781   6.281   8.442  1.0059  0.2932 -0.5641
  190SLPC     N21907   0.486   3.818   6.352 -0.0004 -0.1753 -0.5804
  190SLPC   C1321908   0.494   3.721   6.244 -0.0638 -0.6432  0.1508
  190SLPC  H13A21909   0.413   3.726   6.173 -0.5101 -1.4474  0.5960
  190SLPC  H13B21910   0.585   3.740   6.189 -0.8652 -1.2158 -1.4293
  190SLPC  H13C21911   0.497   3.621   6.285  1.4212 -1.6540 -2.1921
  190SLPC   C1421912   0.448   3.951   6.293  0.3592  0.4388  0.5393
  190SLPC  H14A21913   0.417   4.008   6.379  0.0299 -1.5169  1.7780
  190SLPC  H14B21914   0.526   3.998   6.236 -0.8440 -1.3510 -2.9127
  190SLPC  H14C21915   0.356   3.940   6.237  0.2201 -2.0781  1.1211
  190SLPC   C1521916   0.627   3.831   6.408  0.1130 -0.2242 -0.4394
  190SLPC  H15A21917   0.664   3.734   6.440 -0.4743 -0.1883  0.3967
  190SLPC  H15B21918   0.701   3.860   6.335 -1.5352 -0.3262 -2.2491
  190SLPC  H15C21919   0.624   3.905   6.486  0.4672  0.2286 -0.8525
  190SLPC   C1221920   0.386   3.767   6.449 -0.9018 -0.0127  0.0179
  190SLPC  H12A21921   0.419   3.671   6.488 -1.9307 -1.5621 -2.6230
  190SLPC  H12B21922   0.290   3.750   6.401  0.9125 -2.0737 -3.3103
  190SLPC   C1121923   0.358   3.878   6.562  0.9671  0.5552 -0.4923
  190SLPC  H11A21924   0.456   3.918   6.595  2.3569 -1.3653 -2.0483
  190SLPC  H11B21925   0.301   3.824   6.640 -1.1380 -1.5319 -3.2596
  190SLPC     P21926   0.127   3.976   6.478  0.0479  0.0526  0.1133
  190SLPC   O1321927   0.089   4.082   6.380  0.1024 -0.5883 -0.0279
  190SLPC   O1421928   0.098   3.835   6.432  0.4582 -0.0126 -0.4390
  190SLPC   O1221929   0.278   3.989   6.524  0.8204 -0.1522 -0.2436
  190SLPC   O1121930   0.048   4.013   6.613 -0.1322  0.0353  0.2537
  190SLPC    C121931   0.108   4.126   6.695 -0.5405 -0.0182 -0.9463
  190SLPC    HA21932   0.209   4.161   6.663 -0.3187  0.5991  0.3623
  190SLPC    HB21933   0.041   4.212   6.674 -2.1639 -1.1809 -0.7034
  190SLPC    C221934   0.105   4.097   6.849 -0.4748 -0.3124 -0.1908
  190SLPC    HS21935   0.004   4.064   6.882 -0.0780 -0.2675  1.1173
  190SLPC   O2121936   0.142   4.217   6.919 -0.9340 -0.2587  0.6165
  190SLPC   C2121937   0.051   4.311   6.920  0.5390 -0.4577 -0.4496
  190SLPC   O2221938  -0.065   4.305   6.885 -0.4882  0.6077 -0.3165
  190SLPC   C2221939   0.101   4.431   7.003 -0.0024  0.0822  0.0841
  190SLPC   H2R21940   0.193   4.462   6.950 -1.2584  0.7776 -1.7752
  190SLPC   H2S21941   0.020   4.505   6.986  0.0838 -0.2771 -2.0693
  190SLPC    C321942   0.204   3.984   6.877  0.0608 -0.1614 -1.0532
  190SLPC    HX21943   0.296   3.989   6.814  3.0159  2.7091  2.9820
  190SLPC    HY21944   0.165   3.880   6.869  0.5947 -0.6330  1.5041
  190SLPC   O3121945   0.248   3.992   7.017  0.2327 -0.0026  0.4798
  190SLPC   C3121946   0.362   4.052   7.048 -0.2106  0.4014  0.2180
  190SLPC   O3221947   0.438   4.111   6.972 -0.3115  0.6254  0.0944
  190SLPC   C3221948   0.381   4.061   7.200 -0.9866 -0.3716  0.2479
  190SLPC   H2X21949   0.406   3.958   7.234  1.5156  0.1483  0.1897
  190SLPC   H2Y21950   0.286   4.100   7.243 -1.5522  0.2059 -1.4577
  190SLPC   C2321951   0.118   4.397   7.148 -0.8764  0.6933 -1.3236
  190SLPC   H3R21952   0.211   4.339   7.170 -0.5139  2.4223  2.6165
  190SLPC   H3S21953   0.036   4.338   7.194 -0.8002  1.3641 -0.2929
  190SLPC   C2421954   0.123   4.521   7.237  0.8543  0.5443  0.0046
  190SLPC   H4R21955   0.022   4.565   7.244  0.2796 -0.6471 -0.4916
  190SLPC   H4S21956   0.192   4.596   7.192 -0.3731  2.1919  0.7869
  190SLPC   C2521957   0.189   4.502   7.371 -0.8524 -0.3740 -0.2734
  190SLPC   H5R21958   0.214   4.599   7.419  0.1417 -0.8139  0.1285
  190SLPC   H5S21959   0.284   4.449   7.351 -0.2341  1.4363 -2.5671
  190SLPC   C2621960   0.094   4.427   7.471 -0.8778  0.3132  0.0404
  190SLPC   H6R21961   0.039   4.342   7.424 -0.0405  0.8089 -1.9603
  190SLPC   H6S21962   0.013   4.489   7.514  0.7250  1.3517  1.6514
  190SLPC   C2721963   0.187   4.366   7.577  0.4465  0.0221  0.1212
  190SLPC   H7R21964   0.255   4.441   7.623  1.0541 -0.5947  0.2251
  190SLPC   H7S21965   0.245   4.293   7.517 -0.2540  0.1463 -0.7244
  190SLPC   C2821966   0.108   4.299   7.693 -0.0966 -0.6363  0.2696
  190SLPC   H8R21967   0.190   4.259   7.757  0.8208  1.3273  0.3933
  190SLPC   H8S21968   0.051   4.217   7.643 -1.1483 -0.1807  0.6932
  190SLPC   C2921969   0.021   4.391   7.782 -0.0739 -0.1182 -0.7397
  190SLPC   H9R21970  -0.041   4.464   7.728 -1.7229  0.3923  1.6537
  190SLPC  C21021971   0.012   4.393   7.920 -0.2283 -0.6361 -0.0066
  190SLPC  H10R21972  -0.036   4.485   7.957 -0.3543 -0.0815 -1.4655
  190SLPC  C21121973   0.053   4.287   8.018  0.0819  0.1756 -0.1447
  190SLPC  H11R21974   0.061   4.189   7.967 -1.2663 -0.4004  0.7214
  190SLPC  H11S21975  -0.026   4.276   8.095 -0.2113  1.0195 -0.3118
  190SLPC  C21221976   0.185   4.324   8.078  0.1146 -0.3122 -0.1325
  190SLPC  H12R21977   0.263   4.343   8.002  1.4021 -1.0530  0.9631
  190SLPC  C21321978   0.219   4.315   8.207  0.7486 -0.7677 -0.9135
  190SLPC  H13R21979   0.321   4.338   8.242  0.4103  0.6007 -0.7719
  190SLPC  C21421980   0.134   4.264   8.319  0.4600 -0.0666  0.8497
  190SLPC  H14R21981   0.192   4.200   8.389 -1.7680 -3.1001  0.1598
  190SLPC  H14S21982   0.061   4.185   8.290  0.6687 -1.0403  2.7707
  190SLPC  C21521983   0.074   4.365   8.416 -0.4656 -0.1065 -0.0315
  190SLPC  H15R21984   0.049   4.314   8.511  1.6691 -1.2020  0.0204
  190SLPC  H15S21985  -0.016   4.418   8.378 -0.8463  0.7485  1.9876
  190SLPC  C21621986   0.181   4.477   8.455  0.3750  0.5509 -0.0436
  190SLPC  H16R21987   0.244   4.507   8.368  1.0519 -2.3745 -0.6587
  190SLPC  H16S21988   0.246   4.433   8.533 -0.3689 -1.6154 -0.5582
  190SLPC  C21721989   0.115   4.604   8.518  0.1604  0.4028  0.2605
  190SLPC  H17R21990   0.017   4.570   8.560  0.3966 -0.9338 -0.2255
  190SLPC  H17S21991   0.086   4.671   8.435 -2.0075  1.3532  1.6926
  190SLPC  C21821992   0.199   4.676   8.621 -0.1062  0.2135 -0.5267
  190SLPC  H18R21993   0.298   4.708   8.582  0.1977  0.7081  0.6210
  190SLPC  H18S21994   0.218   4.614   8.711 -3.1112  0.1217  0.1303
  190SLPC  H18T21995   0.149   4.763   8.667 -0.1808 -0.2481  0.2930
  190SLPC   C3321996   0.502   4.146   7.240 -0.3776 -0.2957 -0.3700
  190SLPC   H3X21997   0.477   4.247   7.202 -1.9932 -0.7545 -0.5864
  190SLPC   H3Y21998   0.592   4.107   7.189  0.3831 -0.5292  1.0957
  190SLPC   C3421999   0.528   4.153   7.394 -0.5815 -0.3970 -0.1633
  190SLPC   H4X22000   0.450   4.207   7.451 -2.7381 -1.6691 -1.7481
  190SLPC   H4Y22001   0.623   4.210   7.406 -0.5809 -0.2930 -0.6366
  190SLPC   C3522002   0.566   4.024   7.467 -0.0943  0.8116 -0.5007
  190SLPC   H5X22003   0.662   3.980   7.433  0.2735 -2.1316  3.5584
  190SLPC   H5Y22004   0.496   3.940   7.450  2.1952 -1.6548  1.3742
  190SLPC   C3622005   0.576   4.028   7.629  0.4977  0.2182  1.3212
  190SLPC   H6X22006   0.646   4.110   7.656 -1.4106  2.0342  1.0021
  190SLPC   H6Y22007   0.629   3.939   7.669 -0.2825 -1.8237 -1.8250
  190SLPC   C3722008   0.434   4.055   7.691  0.1128  0.9827 -0.5042
  190SLPC   H7X22009   0.371   3.969   7.662  1.9018 -0.4739 -0.2617
  190SLPC   H7Y22010   0.394   4.147   7.643 -0.4067  1.6104  1.0736
  190SLPC   C3822011   0.445   4.061   7.841  0.3718  0.0382 -0.2115
  190SLPC   H8X22012   0.500   3.968   7.865  0.4485  0.1246 -0.0533
  190SLPC   H8Y22013   0.344   4.054   7.887  1.2971 -0.7722  1.8127
  190SLPC   C3922014   0.504   4.183   7.917 -0.5170 -0.1156  0.6999
  190SLPC   H9X22015   0.439   4.269   7.890 -0.7310 -0.9393 -1.6756
  190SLPC   H9Y22016   0.596   4.210   7.862  0.1265 -0.5101  1.5553
  190SLPC  C31022017   0.519   4.155   8.063  0.0057  0.2328 -0.2355
  190SLPC  H10X22018   0.586   4.067   8.075 -1.6425 -1.1144 -0.6660
  190SLPC  H10Y22019   0.416   4.137   8.098 -0.0062 -0.1170 -0.4443
  190SLPC  C31122020   0.575   4.282   8.131 -0.2446 -0.0047  0.0635
  190SLPC  H11X22021   0.515   4.375   8.126  0.2263  0.3369  0.7138
  190SLPC  H11Y22022   0.675   4.302   8.087  0.0062 -0.4721  0.4120
  190SLPC  C31222023   0.587   4.250   8.283  0.3933  0.0491  0.0799
  190SLPC  H12X22024   0.667   4.175   8.302  2.3814  2.2365  0.8796
  190SLPC  H12Y22025   0.488   4.205   8.304  0.1356  0.1882 -0.8014
  190SLPC  C31322026   0.587   4.373   8.372 -0.3082  0.5080 -1.0497
  190SLPC  H13X22027   0.510   4.442   8.331 -0.5815  0.6015 -0.3830
  190SLPC  H13Y22028   0.684   4.427   8.372  0.8203 -1.4178 -0.1963
  190SLPC  C31422029   0.559   4.334   8.523  0.2215  0.9224 -0.3579
  190SLPC  H14X22030   0.630   4.257   8.560  0.4549  0.8774 -0.8986
  190SLPC  H14Y22031   0.456   4.293   8.538  0.5014  0.3669  0.0935
  190SLPC  C31522032   0.560   4.455   8.613  0.0266 -0.1890 -0.0215
  190SLPC  H15X22033   0.509   4.546   8.573 -1.2743 -1.2855 -0.9692
  190SLPC  H15Y22034   0.663   4.489   8.636  1.1925 -0.9153 -3.5370
  190SLPC  C31622035   0.493   4.412   8.747  0.2818 -0.9160  0.2961
  190SLPC  H16X22036   0.543   4.316   8.773  1.0375 -0.9680 -1.2650
  190SLPC  H16Y22037   0.391   4.382   8.715  1.1753 -2.2817 -1.4561
  190SLPC  C31722038   0.487   4.505   8.864 -0.0419 -0.6801 -0.4391
  190SLPC  H17X22039   0.425   4.595   8.842 -1.8536 -0.7616  3.5035
  190SLPC  H17Y22040   0.585   4.544   8.900  0.7909 -2.4611 -0.6801
  190SLPC  C31822041   0.431   4.440   8.985  0.8510 -0.1051 -0.4931
  190SLPC  H18X22042   0.337   4.391   8.953  1.3189 -0.7561 -0.9005
  190SLPC  H18Y22043   0.399   4.517   9.058  2.5071  2.2652 -2.1232
  190SLPC  H18Z22044   0.488   4.359   9.036 -0.9572 -1.5282 -0.6528
  191SLPC     N22045   0.758   0.867   5.962  0.4573  0.2022 -0.2255
  191SLPC   C1322046   0.713   0.963   5.850 -0.0922 -0.0733 -0.6680
  191SLPC  H13A22047   0.633   0.923   5.789 -2.7292  1.3584  1.6324
  191SLPC  H13B22048   0.670   1.055   5.886  2.1047  1.4026 -1.5933
  191SLPC  H13C22049   0.796   1.002   5.793 -0.8189  0.9679 -1.0406
  191SLPC   C1422050   0.868   0.936   6.032 -0.3986  1.1238  0.5580
  191SLPC  H14A22051   0.949   0.951   5.962 -1.7274 -0.2792 -1.3828
  191SLPC  H14B22052   0.838   1.027   6.081 -0.1699  0.0311  2.8392
  191SLPC  H14C22053   0.897   0.875   6.116 -2.5806  1.6744  1.7991
  191SLPC   C1522054   0.812   0.745   5.896 -0.4692  0.4796 -0.2359
  191SLPC  H15A22055   0.869   0.780   5.812 -0.4411  4.3288  1.2180
  191SLPC  H15B22056   0.876   0.684   5.958 -2.2811 -0.7797  0.5185
  191SLPC  H15C22057   0.746   0.665   5.863  0.2501  0.2888 -1.2448
  191SLPC   C1222058   0.651   0.832   6.065  0.1528  0.2304  0.3116
  191SLPC  H12A22059   0.578   0.790   5.999  1.4892 -0.6368 -0.6678
  191SLPC  H12B22060   0.612   0.926   6.101  1.9637  1.7209 -1.3907
  191SLPC   C1122061   0.687   0.746   6.186  0.3591 -0.2815 -0.2334
  191SLPC  H11A22062   0.590   0.742   6.239  0.6440 -1.0943  0.2531
  191SLPC  H11B22063   0.764   0.794   6.251 -0.9661 -0.7145  1.7477
  191SLPC     P22064   0.624   0.493   6.134  0.8765 -0.3354  0.2779
  191SLPC   O1322065   0.490   0.532   6.074  0.2623  0.5855 -0.2564
  191SLPC   O1422066   0.685   0.378   6.066  0.7323 -0.1897  0.2120
  191SLPC   O1222067   0.727   0.613   6.137 -0.4946 -0.7258 -0.5413
  191SLPC   O1122068   0.596   0.454   6.281 -0.3705 -0.1417 -0.2016
  191SLPC    C122069   0.703   0.479   6.383  0.1849 -0.2683  0.5810
  191SLPC    HA22070   0.803   0.506   6.342 -0.6660  1.8615 -0.2317
  191SLPC    HB22071   0.688   0.565   6.452 -0.5463 -2.0294  2.7438
  191SLPC    C222072   0.735   0.356   6.473  0.8618 -0.1501 -0.6111
  191SLPC    HS22073   0.750   0.270   6.404 -2.7352 -1.4810  0.0203
  191SLPC   O2122074   0.618   0.337   6.552  0.5300  0.3424 -0.7441
  191SLPC   C2122075   0.618   0.244   6.644  0.9292 -0.5779 -0.5877
  191SLPC   O2222076   0.706   0.163   6.663  0.0839 -0.3311 -0.0038
  191SLPC   C2222077   0.488   0.261   6.735  0.1128  0.1947 -0.1169
  191SLPC   H2R22078   0.433   0.353   6.706 -0.9208 -0.0307  1.0698
  191SLPC   H2S22079   0.421   0.175   6.716  0.6332  0.1273 -1.9094
  191SLPC    C322080   0.868   0.375   6.550 -0.5152 -0.4318 -0.2937
  191SLPC    HX22081   0.947   0.415   6.484 -1.2526 -0.7532 -1.4012
  191SLPC    HY22082   0.903   0.284   6.603  0.7660  0.4722  0.4657
  191SLPC   O3122083   0.838   0.478   6.636 -0.2264 -0.8482 -0.8557
  191SLPC   C3122084   0.935   0.506   6.737 -0.0939  0.3582  0.2770
  191SLPC   O3222085   1.040   0.441   6.752 -0.5647 -0.4661 -0.0959
  191SLPC   C3222086   0.878   0.604   6.832 -0.2250  0.6687 -0.0316
  191SLPC   H2X22087   0.774   0.568   6.850  0.7213 -0.7857  3.2975
  191SLPC   H2Y22088   0.885   0.707   6.790  4.8625 -0.2617 -2.1936
  191SLPC   C2322089   0.512   0.260   6.887 -0.4826  0.3298 -0.3560
  191SLPC   H3R22090   0.571   0.169   6.914 -0.8233  0.9929  3.1055
  191SLPC   H3S22091   0.421   0.251   6.950  0.4744 -0.3324  0.9964
  191SLPC   C2422092   0.607   0.364   6.931 -0.2209  0.6575  0.2401
  191SLPC   H4R22093   0.557   0.463   6.928 -0.1886  0.7071  1.1922
  191SLPC   H4S22094   0.702   0.359   6.873  0.1257  0.1207  0.8381
  191SLPC   C2522095   0.660   0.345   7.067  0.1712  0.5278  0.0581
  191SLPC   H5R22096   0.739   0.417   7.101  2.6915 -2.7800  1.8142
  191SLPC   H5S22097   0.707   0.246   7.084 -0.3696  0.4695  1.2828
  191SLPC   C2622098   0.551   0.345   7.177  0.4944  0.6506 -0.4324
  191SLPC   H6R22099   0.472   0.266   7.174 -1.0836  2.1896 -1.9622
  191SLPC   H6S22100   0.495   0.440   7.165  0.4762  0.8492  1.1195
  191SLPC   C2722101   0.612   0.349   7.319 -0.8824 -0.3619 -0.0637
  191SLPC   H7R22102   0.688   0.427   7.344 -3.4233  1.5762  2.2970
  191SLPC   H7S22103   0.665   0.252   7.328 -1.7482 -0.9189 -0.8066
  191SLPC   C2822104   0.505   0.367   7.425 -0.3337 -0.4396 -0.6966
  191SLPC   H8R22105   0.450   0.450   7.375  1.5267  1.3945  0.1818
  191SLPC   H8S22106   0.556   0.402   7.517  0.8156 -2.3069 -0.5713
  191SLPC   C2922107   0.431   0.235   7.446  0.7738 -0.0001 -0.1017
  191SLPC   H9R22108   0.423   0.177   7.353  0.1185 -1.8389  1.0346
  191SLPC  C21022109   0.386   0.180   7.564  0.0455  0.2350  0.3111
  191SLPC  H10R22110   0.342   0.079   7.557  1.8019 -0.7680  2.5282
  191SLPC  C21122111   0.404   0.229   7.709  0.3898  0.1475 -0.7362
  191SLPC  H11R22112   0.514   0.240   7.724  0.5118 -1.6933 -0.0537
  191SLPC  H11S22113   0.367   0.143   7.768 -0.8273 -0.4551 -2.3132
  191SLPC  C21222114   0.330   0.359   7.733 -0.3984  0.5361 -0.2673
  191SLPC  H12R22115   0.260   0.402   7.660  0.0631  0.5768 -0.6910
  191SLPC  C21322116   0.333   0.419   7.857 -0.3266  0.4929 -0.0923
  191SLPC  H13R22117   0.268   0.505   7.877 -0.9576  0.0985 -0.4266
  191SLPC  C21422118   0.405   0.356   7.978 -0.2378  0.1461 -0.3842
  191SLPC  H14R22119   0.492   0.420   8.004 -0.6062  0.2596  0.6182
  191SLPC  H14S22120   0.439   0.252   7.962 -1.7796 -0.9543  2.6863
  191SLPC  C21522121   0.324   0.352   8.110  0.7787 -0.2925 -0.5364
  191SLPC  H15R22122   0.270   0.443   8.145  1.5313  0.4745 -1.3417
  191SLPC  H15S22123   0.386   0.321   8.196  0.2856 -0.0564 -0.0837
  191SLPC  C21622124   0.219   0.235   8.109 -0.1661 -0.1224  0.2444
  191SLPC  H16R22125   0.262   0.138   8.075  3.6284  1.2137  0.6908
  191SLPC  H16S22126   0.126   0.259   8.054 -0.7418  2.0553  2.0287
  191SLPC  C21722127   0.168   0.190   8.251  0.0712 -0.3146  0.5280
  191SLPC  H17R22128   0.090   0.262   8.284 -0.1076 -0.0495 -0.4464
  191SLPC  H17S22129   0.245   0.198   8.332  1.2670  2.0283 -0.7262
  191SLPC  C21822130   0.110   0.049   8.247  0.1464 -0.5414  0.3441
  191SLPC  H18R22131   0.003   0.044   8.216  0.9395 -1.6301 -2.5460
  191SLPC  H18S22132   0.109  -0.003   8.346 -1.6788 -1.9373 -0.3341
  191SLPC  H18T22133   0.174  -0.024   8.194 -1.4679 -1.6110 -0.2290
  191SLPC   C3322134   0.952   0.598   6.963 -0.4414  0.4798 -0.3132
  191SLPC   H3X22135   1.057   0.636   6.953 -0.8536  1.5731 -0.6504
  191SLPC   H3Y22136   0.955   0.493   6.998 -0.4592  0.5007 -0.2487
  191SLPC   C3422137   0.894   0.679   7.076 -0.1312 -0.7865 -0.0524
  191SLPC   H4X22138   0.790   0.640   7.080 -0.9308  1.0418 -1.5654
  191SLPC   H4Y22139   0.892   0.787   7.051 -0.5960 -1.2551 -2.2380
  191SLPC   C3522140   0.972   0.660   7.212 -0.3565 -1.0952  0.2670
  191SLPC   H5X22141   1.053   0.736   7.204 -0.1144 -1.4762 -1.1150
  191SLPC   H5Y22142   1.017   0.558   7.217 -0.9329 -1.3837 -0.2556
  191SLPC   C3622143   0.882   0.688   7.333 -0.5841  0.2939  0.7207
  191SLPC   H6X22144   0.805   0.608   7.333 -0.2118 -0.0689  1.0910
  191SLPC   H6Y22145   0.840   0.790   7.325  0.7341  0.8736  0.9887
  191SLPC   C3722146   0.958   0.644   7.456 -0.1642  0.2682  0.7267
  191SLPC   H7X22147   1.063   0.678   7.464 -1.1670  3.4981  2.3047
  191SLPC   H7Y22148   0.960   0.533   7.454 -1.8986  0.2035 -1.9053
  191SLPC   C3822149   0.875   0.669   7.582 -0.0892 -0.1835  0.0218
  191SLPC   H8X22150   0.767   0.687   7.569 -0.1929 -1.3122 -0.8207
  191SLPC   H8Y22151   0.905   0.768   7.624 -0.7049  0.2281 -0.4950
  191SLPC   C3922152   0.885   0.564   7.692  0.2286 -0.0580 -0.6942
  191SLPC   H9X22153   0.994   0.545   7.699  0.4012  1.2413  0.6766
  191SLPC   H9Y22154   0.823   0.474   7.672  1.4460 -0.8511 -0.9510
  191SLPC  C31022155   0.839   0.621   7.831 -0.1718  0.1092  0.0746
  191SLPC  H10X22156   0.747   0.683   7.835  0.8003  1.6372 -0.4688
  191SLPC  H10Y22157   0.918   0.696   7.853  1.9066 -1.5869 -1.1694
  191SLPC  C31122158   0.830   0.505   7.928  0.4735  0.3898  0.1081
  191SLPC  H11X22159   0.921   0.442   7.921  0.0446 -0.5319  2.0735
  191SLPC  H11Y22160   0.741   0.440   7.910 -0.3486  0.4024  3.3774
  191SLPC  C31222161   0.812   0.570   8.064 -0.2120 -0.0353  0.5819
  191SLPC  H12X22162   0.713   0.619   8.059  0.3957  1.1813  0.1126
  191SLPC  H12Y22163   0.888   0.651   8.073 -0.9369  0.6938  0.2911
  191SLPC  C31322164   0.827   0.472   8.181 -0.1952 -0.4882  0.1409
  191SLPC  H13X22165   0.919   0.411   8.175 -0.8577 -1.5349  0.3680
  191SLPC  H13Y22166   0.739   0.403   8.183  0.2669 -1.1024  2.9454
  191SLPC  C31422167   0.829   0.545   8.309  0.0155  0.3198 -0.4110
  191SLPC  H14X22168   0.832   0.476   8.396 -0.1269  0.8662  0.0327
  191SLPC  H14Y22169   0.736   0.605   8.320 -0.9709 -1.0952 -0.7245
  191SLPC  C31522170   0.955   0.626   8.327  0.0738  0.2896  0.2800
  191SLPC  H15X22171   0.964   0.703   8.248 -0.1379 -0.5140 -0.5397
  191SLPC  H15Y22172   1.040   0.558   8.306  0.5419 -0.1447  3.1648
  191SLPC  C31622173   0.957   0.690   8.470 -0.9080 -0.8394 -0.2463
  191SLPC  H16X22174   0.973   0.618   8.553 -0.0576 -0.1004  0.2351
  191SLPC  H16Y22175   0.866   0.752   8.487  0.8690  1.4632  1.5102
  191SLPC  C31722176   1.078   0.790   8.474 -1.0001  0.5071 -0.1384
  191SLPC  H17X22177   1.069   0.880   8.409  2.1158  2.2270  1.5794
  191SLPC  H17Y22178   1.171   0.735   8.445  0.2745  2.2949  0.3666
  191SLPC  C31822179   1.108   0.836   8.612 -0.9674 -0.6313 -0.0660
  191SLPC  H18X22180   1.139   0.755   8.681 -2.0203 -0.8431  0.1772
  191SLPC  H18Y22181   1.016   0.881   8.656  0.3206  0.5424  1.5669
  191SLPC  H18Z22182   1.191   0.910   8.622 -0.5978 -0.9398 -0.7767
  192SLPC     N22183   1.427   2.016   6.216  0.2366  0.2203  0.3000
  192SLPC   C1322184   1.369   1.887   6.162 -0.3217 -0.4813  0.3457
  192SLPC  H13A22185   1.446   1.833   6.109  0.4122  3.1748 -2.7189
  192SLPC  H13B22186   1.323   1.831   6.242 -2.3971 -1.8061 -1.6506
  192SLPC  H13C22187   1.302   1.909   6.081  1.8581 -1.0342 -1.7333
  192SLPC   C1422188   1.318   2.078   6.283  0.5999  0.2183  0.3511
  192SLPC  H14A22189   1.352   2.163   6.340 -1.6951  2.3241 -1.2185
  192SLPC  H14B22190   1.249   2.117   6.210  2.8460  0.4104 -1.7972
  192SLPC  H14C22191   1.269   2.010   6.351 -1.2118  1.8708  0.7870
  192SLPC   C1522192   1.476   2.098   6.100  0.1293  0.2975 -0.0155
  192SLPC  H15A22193   1.395   2.137   6.041  0.8509 -1.2035 -2.1217
  192SLPC  H15B22194   1.532   2.185   6.130  0.2969 -0.5082  2.2191
  192SLPC  H15C22195   1.537   2.032   6.040 -1.3104 -1.1787  0.0750
  192SLPC   C1222196   1.535   1.986   6.315 -0.0180  0.4950  0.1789
  192SLPC  H12A22197   1.560   2.083   6.355 -0.6200  0.6564  0.1668
  192SLPC  H12B22198   1.613   1.933   6.262 -0.4359 -0.7526  0.7664
  192SLPC   C1122199   1.490   1.896   6.443 -0.5922 -0.6648 -0.1808
  192SLPC  H11A22200   1.402   1.947   6.486 -1.1182 -1.6785 -0.0170
  192SLPC  H11B22201   1.575   1.918   6.512 -1.3542  1.8551  0.0443
  192SLPC     P22202   1.590   1.661   6.372  0.0983 -0.2004 -0.0217
  192SLPC   O1322203   1.543   1.562   6.270 -0.3322 -0.5058  0.3969
  192SLPC   O1422204   1.708   1.740   6.333 -0.7427 -0.0067 -0.3984
  192SLPC   O1222205   1.472   1.759   6.408 -0.8594  0.3875  0.4228
  192SLPC   O1122206   1.627   1.590   6.504  0.8028  0.0013 -0.5074
  192SLPC    C122207   1.550   1.502   6.589  0.0004 -0.8001 -0.1445
  192SLPC    HA22208   1.505   1.416   6.536 -2.4377  0.7881 -0.8252
  192SLPC    HB22209   1.622   1.462   6.664  2.2060 -0.0330 -1.7108
  192SLPC    C222210   1.434   1.555   6.669 -0.1515 -0.4435 -0.3453
  192SLPC    HS22211   1.348   1.579   6.602 -0.4168  1.2129  0.5307
  192SLPC   O2122212   1.489   1.675   6.726 -0.7750  0.1359  0.4508
  192SLPC   C2122213   1.414   1.775   6.772  0.3420  0.3636  0.8552
  192SLPC   O2222214   1.289   1.776   6.767  0.1733  0.1073 -0.2593
  192SLPC   C2222215   1.504   1.883   6.822 -0.5524  0.2809  0.1110
  192SLPC   H2R22216   1.568   1.841   6.902 -0.5209 -2.8905 -1.4321
  192SLPC   H2S22217   1.575   1.905   6.739  1.4476 -0.7963  1.4533
  192SLPC    C322218   1.386   1.451   6.766 -0.3251  0.2368  0.3431
  192SLPC    HX22219   1.469   1.387   6.804  0.0162 -0.1001 -0.9123
  192SLPC    HY22220   1.329   1.381   6.701 -0.4044 -1.4972  2.1740
  192SLPC   O3122221   1.301   1.497   6.869  0.2422 -0.2109  0.3731
  192SLPC   C3122222   1.165   1.506   6.848 -0.5073  0.6652  0.2488
  192SLPC   O3222223   1.107   1.495   6.743 -0.3295 -0.3033  0.1475
  192SLPC   C3222224   1.109   1.505   6.995  0.9176  0.0613  0.5106
  192SLPC   H2X22225   1.149   1.416   7.047  0.8953 -1.6548 -2.2233
  192SLPC   H2Y22226   1.002   1.478   6.980  1.8590 -3.2822 -1.3016
  192SLPC   C2322227   1.434   2.003   6.869  0.6769 -0.4343 -0.0842
  192SLPC   H3R22228   1.373   1.968   6.955  0.0042 -0.1746 -0.4523
  192SLPC   H3S22229   1.367   2.045   6.791  0.0610 -1.5727 -0.1934
  192SLPC   C2422230   1.526   2.114   6.935  0.1975 -0.1121  0.3396
  192SLPC   H4R22231   1.593   2.175   6.872  1.6718 -0.1313  1.8282
  192SLPC   H4S22232   1.581   2.061   7.016 -2.2073  0.8368  2.7541
  192SLPC   C2522233   1.441   2.216   7.015 -0.7129  0.1755  0.0999
  192SLPC   H5R22234   1.382   2.163   7.092  0.5512 -1.1129  0.2155
  192SLPC   H5S22235   1.366   2.242   6.937 -0.9639 -0.9814 -0.0637
  192SLPC   C2622236   1.511   2.330   7.088  0.4036 -0.4309  0.7973
  192SLPC   H6R22237   1.430   2.406   7.095  0.4288 -0.0484 -1.8382
  192SLPC   H6S22238   1.583   2.369   7.011  0.0266  2.3777  1.7347
  192SLPC   C2722239   1.563   2.295   7.225 -0.4820 -0.2796 -0.9723
  192SLPC   H7R22240   1.632   2.207   7.221 -0.4523 -0.3799  0.8847
  192SLPC   H7S22241   1.478   2.262   7.288 -0.7215  0.5242 -0.8641
  192SLPC   C2822242   1.648   2.408   7.287 -0.4204 -0.0428  0.7156
  192SLPC   H8R22243   1.574   2.491   7.287 -0.3732  0.0593 -1.5207
  192SLPC   H8S22244   1.734   2.427   7.219 -2.6895  1.7802 -1.8907
  192SLPC   C2922245   1.691   2.364   7.422 -0.7595 -0.4523 -0.1550
  192SLPC   H9R22246   1.755   2.274   7.421  2.2084  1.5024  0.5334
  192SLPC  C21022247   1.668   2.434   7.538 -0.8616  0.1932 -0.5530
  192SLPC  H10R22248   1.712   2.381   7.624 -0.8812  0.8080 -0.1580
  192SLPC  C21122249   1.601   2.567   7.552  0.3092  0.0445 -0.1462
  192SLPC  H11R22250   1.497   2.549   7.586  0.1306  1.2160 -0.0245
  192SLPC  H11S22251   1.592   2.622   7.456 -1.0826  1.8233  0.9222
  192SLPC  C21222252   1.658   2.658   7.660  0.0110  0.2276 -0.0300
  192SLPC  H12R22253   1.730   2.730   7.618 -0.9100  0.6446 -0.9272
  192SLPC  C21322254   1.648   2.646   7.794  0.1157  0.2835 -0.1527
  192SLPC  H13R22255   1.695   2.722   7.859 -0.9430  0.2638  0.6697
  192SLPC  C21422256   1.567   2.546   7.867 -0.1540 -0.0930 -0.2765
  192SLPC  H14R22257   1.639   2.470   7.905 -1.7240 -1.0654  0.8416
  192SLPC  H14S22258   1.501   2.480   7.807 -0.6337 -0.0433  0.1963
  192SLPC  C21522259   1.482   2.606   7.982 -0.5991  0.2930  0.5620
  192SLPC  H15R22260   1.542   2.642   8.069 -0.9744  0.0702  0.9188
  192SLPC  H15S22261   1.410   2.529   8.017 -0.0234  0.4421  2.1739
  192SLPC  C21622262   1.399   2.724   7.940  1.2399  0.1634 -0.2549
  192SLPC  H16R22263   1.333   2.688   7.858 -1.8013  0.3352  1.9352
  192SLPC  H16S22264   1.465   2.809   7.912  1.5959  0.4296  1.3101
  192SLPC  C21722265   1.297   2.761   8.048 -0.2788  0.8726 -0.2348
  192SLPC  H17R22266   1.242   2.666   8.065  2.0893 -0.4648  0.4447
  192SLPC  H17S22267   1.350   2.782   8.143  0.2275  0.5075 -0.4281
  192SLPC  C21822268   1.196   2.878   8.026 -1.0953  0.0621 -0.5922
  192SLPC  H18R22269   1.242   2.977   8.004  1.8816 -0.1401  3.5076
  192SLPC  H18S22270   1.155   2.887   8.129  2.3077 -1.0024  1.0151
  192SLPC  H18T22271   1.120   2.838   7.957 -0.7850 -0.9182 -0.3802
  192SLPC   C3322272   1.119   1.648   7.057  0.7125  0.2789  0.5934
  192SLPC   H3X22273   1.048   1.655   7.142  0.1550  0.3607  0.1294
  192SLPC   H3Y22274   1.086   1.727   6.986 -1.6328  1.1419  2.5070
  192SLPC   C3422275   1.264   1.675   7.112  1.1841 -0.6637  0.4076
  192SLPC   H4X22276   1.331   1.704   7.028 -0.1245  0.0683 -0.3988
  192SLPC   H4Y22277   1.313   1.584   7.154  0.3072 -0.4715  1.9163
  192SLPC   C3522278   1.265   1.768   7.234  0.5263  0.0947 -0.0697
  192SLPC   H5X22279   1.226   1.713   7.322  1.3149 -0.6650 -0.1774
  192SLPC   H5Y22280   1.194   1.853   7.229  0.4261 -0.0442 -1.1906
  192SLPC   C3622281   1.406   1.826   7.266  0.2462  0.1419  0.0078
  192SLPC   H6X22282   1.437   1.869   7.168  0.2016  0.0930 -0.0276
  192SLPC   H6Y22283   1.462   1.733   7.293 -2.9679 -2.0764 -0.4775
  192SLPC   C3722284   1.403   1.929   7.376  0.2934 -0.0984  0.1835
  192SLPC   H7X22285   1.313   1.993   7.363  1.1412  1.1073  0.0889
  192SLPC   H7Y22286   1.492   1.996   7.375  1.8586 -2.0938  0.0956
  192SLPC   C3822287   1.415   1.873   7.521  0.2504 -0.5849 -0.5202
  192SLPC   H8X22288   1.474   1.780   7.533  1.2565 -0.1704 -1.9274
  192SLPC   H8Y22289   1.312   1.844   7.550  0.6465  1.1904  3.2755
  192SLPC   C3922290   1.480   1.972   7.610  0.5934  0.6817 -0.3336
  192SLPC   H9X22291   1.589   1.980   7.589  0.3752  1.2960 -1.2577
  192SLPC   H9Y22292   1.463   1.915   7.704 -2.0563 -1.3725 -1.9329
  192SLPC  C31022293   1.417   2.112   7.609 -0.3382 -0.2940 -0.1784
  192SLPC  H10X22294   1.307   2.116   7.604 -0.5225  1.6014  3.0617
  192SLPC  H10Y22295   1.450   2.164   7.517  1.6840  1.1635  1.2902
  192SLPC  C31122296   1.462   2.194   7.726 -0.6901 -1.0037 -0.6732
  192SLPC  H11X22297   1.419   2.296   7.713  1.2168 -0.3873 -2.8772
  192SLPC  H11Y22298   1.572   2.206   7.725 -0.7092 -0.4638  1.0188
  192SLPC  C31222299   1.438   2.130   7.867  0.1080  0.2581 -0.6211
  192SLPC  H12X22300   1.510   2.047   7.886 -0.1794  0.1292 -0.0772
  192SLPC  H12Y22301   1.333   2.094   7.867 -0.8221  2.7178  0.4371
  192SLPC  C31322302   1.465   2.222   7.990  0.0846 -0.2350 -0.3955
  192SLPC  H13X22303   1.381   2.296   7.982  1.0156  0.7503 -1.3961
  192SLPC  H13Y22304   1.566   2.266   7.996  0.3633 -0.7904 -0.9800
  192SLPC  C31422305   1.453   2.155   8.132  0.0901 -0.0417  0.2022
  192SLPC  H14X22306   1.516   2.065   8.147 -3.1383 -2.2211  2.2312
  192SLPC  H14Y22307   1.349   2.126   8.160  0.3997 -1.3318  0.0879
  192SLPC  C31522308   1.506   2.248   8.242 -0.0648 -0.2963  0.6788
  192SLPC  H15X22309   1.595   2.300   8.200 -2.5543  0.9996 -3.6423
  192SLPC  H15Y22310   1.544   2.188   8.328  2.3574  1.1195  0.6953
  192SLPC  C31622311   1.410   2.350   8.290 -0.3543 -0.0114  0.0865
  192SLPC  H16X22312   1.321   2.298   8.332  1.1923 -1.4285  1.8048
  192SLPC  H16Y22313   1.388   2.412   8.201  1.2024 -0.6144 -0.7472
  192SLPC  C31722314   1.473   2.424   8.414 -0.4670  0.4859  0.0663
  192SLPC  H17X22315   1.577   2.455   8.390  0.3252 -2.9465 -1.4571
  192SLPC  H17Y22316   1.470   2.350   8.497 -2.6122 -0.1597 -0.5291
  192SLPC  C31822317   1.402   2.552   8.441  0.4873 -0.4351 -0.0689
  192SLPC  H18X22318   1.452   2.602   8.527  1.4256 -2.3718  0.5689
  192SLPC  H18Y22319   1.292   2.542   8.448  0.6359 -2.1374  0.2308
  192SLPC  H18Z22320   1.416   2.624   8.358 -1.5332  0.6988  0.5111
  193SOD    SOD22321   6.753   2.591  16.301  0.3725  0.1946 -0.4431
  194SOD    SOD22322   6.735   2.874   0.540  0.2017 -0.2900 -0.3759
  195SOD    SOD22323   6.795   0.955   4.235 -0.2100  0.2345 -0.0705
  196SOD    SOD22324   1.041   4.628   6.187 -0.3301 -0.3250  0.1730
  197SOD    SOD22325   1.155   4.109  14.260 -0.1729 -0.1083 -0.0529
  198SOD    SOD22326   2.368   4.577  15.098  0.2121  0.1856 -0.1900
  199SOD    SOD22327   1.180   0.451   6.065  0.4571 -0.1417  0.1782
  200SOD    SOD22328   0.703   4.984  14.570 -0.6871  0.8199 -0.3968
  201SOD    SOD22329   0.133   5.310   5.663  0.0878 -0.3876 -0.3345
  202SOD    SOD22330   0.087   0.419  12.132  0.0345 -0.5541 -0.1369
  203SOD    SOD22331   3.842   5.597   4.827  0.0754  0.2223  0.6713
  204SOD    SOD22332   1.003   3.826   5.099 -0.4945 -0.3614  0.2210
  205SOD    SOD22333   4.238   1.036  13.058 -0.5043 -0.2347 -0.4879
  206SOD    SOD22334   4.154   6.129  16.774  0.0356  0.0649 -0.0530
  207SOD    SOD22335   3.111   5.239   2.934 -0.1818  0.2662  0.0287
  208SOD    SOD22336   3.480   2.963   3.362 -0.1540 -0.0780 -0.1678
  209SOD    SOD22337   4.070   2.546   6.730  0.0645 -0.5081  0.1518
  210SOD    SOD22338   5.724   5.572  12.786  0.0502 -0.5547  0.1180
  211SOD    SOD22339   0.259   2.883   4.008 -0.1933 -0.1495 -0.1112
  212SOD    SOD22340   2.265   3.175  11.187 -0.3174 -0.1149 -0.0778
  213SOD    SOD22341   2.076   5.163  10.438  0.2325 -0.0593  0.1883
  214SOD    SOD22342   4.936   0.624  15.533  0.6721  0.0454  0.1705
  215SOD    SOD22343   5.104   2.309  10.478  0.0628  0.5865 -0.4930
  216SOD    SOD22344   3.665   3.379   5.942 -0.3867 -0.3148  0.1862
  217SOD    SOD22345   4.203   3.231   5.218 -0.2177 -0.4500 -0.1827
  218SOD    SOD22346   4.493   2.519  12.436  0.2738 -0.1982 -0.2263
  219SOD    SOD22347   0.803   1.447  13.589 -0.0442  0.2871  0.2400
  220SOD    SOD22348   2.703   4.979  16.817  0.2290  0.2649  0.1715
  221SOD    SOD22349   0.210   5.910  10.686  0.0280  0.8049 -0.4022
  222SOD    SOD22350   2.687   5.698   5.959  0.5019  0.6483  0.3538
  223SOD    SOD22351   6.150   3.938  11.718 -0.0710 -0.3776 -0.2415
  224SOD    SOD22352   1.192   5.543  12.643 -0.1982  0.2596  0.6042
  225SOD    SOD22353   6.365   1.477  17.081  0.4676 -0.3394 -0.3093
  226SOD    SOD22354   6.606   0.967   5.584 -0.1476 -0.0436  0.6212
  227SOD    SOD22355   5.885   2.323   1.366 -0.3030 -0.1835 -0.3304
  228SOD    SOD22356   4.042   6.089   5.393 -0.0232  0.0555  0.5049
  229SOD    SOD22357   3.801   0.138  12.048 -0.0045 -0.1546  0.4532
  230SOD    SOD22358   5.515   5.875   0.324 -0.1994  0.0506 -0.0781
  231SOD    SOD22359   6.241   1.504  12.851  0.2395 -0.3709 -0.4022
  232SOD    SOD22360   5.828   6.055  16.439  0.3430  0.2074  0.3042
  233SOD    SOD22361   2.240   3.976  14.975  0.3587  0.1070  0.1665
  234SOD    SOD22362   2.759   5.711  10.911  0.1782 -0.5679  0.6377
  235SOD    SOD22363   3.449   4.161  13.103 -0.3746  0.2514 -0.1555
  236SOD    SOD22364   4.977   2.725  16.723  0.3659 -0.1917  0.0051
  237SOD    SOD22365   6.623   6.401  13.408 -0.1294  0.2880  0.0894
  238SOD    SOD22366   4.748   0.792   2.206  0.1161  0.5655 -0.1469
  239SOD    SOD22367   3.687   0.010  11.416 -0.3297 -0.1247  0.5004
  240SOD    SOD22368   5.995   0.182  13.860 -0.0614  0.4770 -0.5672
  241SOD    SOD22369   2.550   4.146   3.217 -0.1186  0.3446  0.3330
  242SOD    SOD22370   6.065   1.364   0.876 -0.1170  0.1619 -0.0809
  243SOD    SOD22371   0.317   5.385   1.210  0.5216  0.1188  0.4418
  244SOD    SOD22372   0.046   4.001  14.855 -0.1003 -0.1784  0.2332
  245SOD    SOD22373   5.310   0.260  11.619  0.0986 -0.1298 -0.3042
  246SOD    SOD22374   1.245   2.942  14.962  0.1294  0.5605  0.2158
  247SOD    SOD22375   6.776   3.138   5.229  0.4480  0.3597 -0.0239
  248SOD    SOD22376   1.238   0.906  13.916  0.3362 -0.0252 -0.2083
  249SOD    SOD22377   0.037   3.794   3.835  0.6402 -0.4884 -0.6878
  250SOD    SOD22378   1.543   5.351   1.464  0.0815 -0.6428 -0.5207
  251SOD    SOD22379   4.983   4.178   0.171  0.5871 -0.4728 -0.0770
  252SOD    SOD22380   5.572   3.428   4.002  0.0746 -0.1324  0.1939
  253SOD    SOD22381   4.431   0.758   3.116  0.2961 -0.0389 -0.3378
  254SOD    SOD22382   6.790   2.386  13.949 -0.1007  0.4921 -0.2483
  255SOD    SOD22383   3.558   1.000   1.598 -0.5497  0.1995 -0.3586
  256SOD    SOD22384   0.916   2.204  13.767  0.0794 -0.0154 -0.2869
  257SOD    SOD22385   5.564   4.357  13.506  0.0351 -0.0155 -0.0328
  258SOD    SOD22386   5.967   5.270  16.057 -0.4090  0.0209 -0.3661
  259SOD    SOD22387   5.631   0.371   6.414  0.9281 -0.1949  0.0652
  260SOD    SOD22388   4.249   0.551   4.684  0.4248  0.1703  0.3754
  261SOD    SOD22389   3.444   3.075  10.662  0.3154 -0.3295 -0.4412
  262SOD    SOD22390   5.119   3.977  15.616  0.0868 -0.0293  0.1882
  263SOD    SOD22391   0.367   1.022  15.078  0.2575 -0.1974 -0.2666
  264SOD    SOD22392   1.495   0.319   4.972 -0.1079 -0.4776  0.2043
  265SOD    SOD22393   1.358   5.180  11.929  0.0861  0.4922 -0.1350
  266CLA    CLA22394   5.892   1.175  13.032 -0.1656  0.2923  0.0783
  267CLA    CLA22395   3.180   4.872   0.929 -0.0490 -0.1074  0.4362
  268CLA    CLA22396   4.362   2.943  15.261 -0.1112  0.2259 -0.2600
  269CLA    CLA22397   0.734   3.819  14.714  0.2491 -0.0650 -0.0031
  270CLA    CLA22398   3.981   3.876  15.028  0.0886  0.1297  0.0348
  271CLA    CLA22399   3.286   5.639   5.497  0.2411  0.1562 -0.3556
  272CLA    CLA22400   0.128   3.497  13.521 -0.1375 -0.0239 -0.0673
  273CLA    CLA22401   6.204   5.391  12.181  0.1909 -0.1530 -0.0361
  274CLA    CLA22402   0.228   1.778  14.526 -0.3914 -0.2335 -0.2142
  275CLA    CLA22403   5.218   3.579   3.272  0.0788 -0.1707 -0.2992
  276CLA    CLA22404   1.447   2.582  13.501 -0.0713  0.0353 -0.4595
  277CLA    CLA22405   0.840   1.416   0.543  0.5508 -0.4124 -0.3378
  278CLA    CLA22406   0.136   1.868   5.001 -0.7593 -0.1703 -0.3217
  279CLA    CLA22407   4.141   6.763  16.589 -0.4033  0.1915 -0.0598
  280CLA    CLA22408   2.238   4.688  11.773  0.2675 -0.8495  0.4337
  281CLA    CLA22409   4.654   3.629   0.114 -0.2331 -0.2772  0.6967
  282CLA    CLA22410   3.124   2.507   1.197  0.3096  0.1741  0.0659
  283CLA    CLA22411   4.846   5.297  11.930 -0.5827 -0.1114 -0.0385
  284CLA    CLA22412   4.567   6.259   5.700  0.0627 -0.2440 -0.0229
  285CLA    CLA22413   1.455   6.657  12.678 -0.0013 -0.2467  0.2273
  286CLA    CLA22414   2.093   0.271   0.888  0.3010  0.0207  0.1253
  287CLA    CLA22415   3.403   0.666  13.097 -0.0317  0.1032  0.1861
  288CLA    CLA22416   1.010   5.790  13.878 -0.5355 -0.4299 -0.0135
  289CLA    CLA22417   6.063   3.455   3.744 -0.3727 -0.1223  0.1077
  290CLA    CLA22418   5.259   1.880   5.443  0.1103 -0.0634 -0.2967
  291CLA    CLA22419   5.091   5.065   2.265  0.4573  0.0300  0.2396
  292CLA    CLA22420   1.007   4.360  14.189  0.1638  0.3086  0.0418
  293CLA    CLA22421   3.879   1.152  11.826 -0.1970  0.0773 -0.6363
  294CLA    CLA22422   1.680   3.065  11.836 -0.0590  0.1451  0.1906
  295CLA    CLA22423   0.491   0.013   3.225  0.2787 -0.2403  0.6294
  296CLA    CLA22424   1.926   1.801   1.108 -0.2519  0.0993  0.3697
  297CLA    CLA22425   2.664   2.472   4.984 -0.0609  0.1131 -0.0809
  298CLA    CLA22426   0.894   5.170  12.019 -0.2686  0.1050 -0.2670
  299CLA    CLA22427   3.063   4.867   2.197 -0.2216 -0.1163  0.1404
  300CLA    CLA22428   0.405   3.453   0.273  0.0454 -0.0003  0.0250
  301CLA    CLA22429   6.043   5.017  16.611  0.1041 -0.0881  0.1003
  302CLA    CLA22430   3.960   0.426   2.132 -0.0179  0.2107  0.1006
  303CLA    CLA22431   0.635   4.746  16.687 -0.3295 -0.2160 -0.1019
  304CLA    CLA22432   6.367   2.736   3.024 -0.3336 -0.0121 -0.3118
  305CLA    CLA22433   5.112   4.916  14.742  0.0566 -0.4943  0.1086
  306CLA    CLA22434   5.507   0.228  15.580 -0.1041 -0.1910 -0.0155
  307CLA    CLA22435   3.838   3.337  16.603  0.4226 -0.1955 -0.7807
  308CLA    CLA22436   3.164   4.814  16.497  0.1432 -0.0627 -0.3758
  309CLA    CLA22437   2.530   6.692  15.210 -0.0658  0.2663  0.1509
  310CLA    CLA22438   1.044   4.942  15.451  0.1465 -0.1970  0.5811
  311CLA    CLA22439   2.422   4.582  15.518  0.1194  0.6881 -0.3563
  312CLA    CLA22440   1.264   5.901   0.860 -0.4914 -0.1039  0.2893
  313CLA    CLA22441   5.776   0.125   4.470  0.4823  0.1794  0.2000
  314CLA    CLA22442   5.001   0.691   3.252  0.0728  0.1069 -0.2844
  315CLA    CLA22443   6.018   0.411   0.120  0.2663 -0.0776  0.3978
  316CLA    CLA22444   0.927   0.823  16.899  0.3889 -0.0792  0.0971
  317CLA    CLA22445   0.933   3.364   0.130 -0.4262 -0.4265 -0.0038
  318CLA    CLA22446   5.789   2.978  15.490  0.0321 -0.1612  0.5988
  319TIP3   OH222447   3.351   0.418  16.819 -0.4085  0.4310 -0.7368
  319TIP3    H122448   3.345   0.402  16.913  0.6173 -1.4732 -0.9410
  319TIP3    H222449   3.401   0.499  16.812  2.3964 -1.0509  0.3973
  320TIP3   OH222450   2.789   4.704  11.901 -0.1039 -0.0026  0.0776
  320TIP3    H122451   2.858   4.721  11.965 -1.1686 -0.0027  1.2354
  320TIP3    H222452   2.736   4.783  11.900 -0.1802 -0.0509 -0.7237
  321TIP3   OH222453   4.154   4.754   0.700 -0.0682  0.1094 -0.3168
  321TIP3    H122454   4.156   4.666   0.738  0.1940  0.4167  0.3895
  321TIP3    H222455   4.150   4.813   0.775  2.0665  0.7907 -0.6518
  322TIP3   OH222456   4.113   1.006   6.112 -0.0690  0.2488 -0.4936
  322TIP3    H122457   4.091   1.075   6.049  0.2372  0.0980 -0.7660
  322TIP3    H222458   4.028   0.966   6.133 -0.3465  1.1717  0.2190
  323TIP3   OH222459   0.030   2.643  12.427 -0.6689 -0.0816  0.1964
  323TIP3    H122460  -0.039   2.579  12.411  0.1034 -1.1017  0.8182
  323TIP3    H222461  -0.014   2.728  12.422 -1.8940 -0.6970  0.2639
  324TIP3   OH222462   1.055   2.522  12.561  0.1682 -0.3948 -0.3606
  324TIP3    H122463   1.123   2.457  12.543  0.0591 -0.5641 -0.1696
  324TIP3    H222464   1.061   2.535  12.656 -0.8802 -1.3205 -0.1521
  325TIP3   OH222465   6.528   5.744  13.484  0.5668 -0.5605 -0.8907
  325TIP3    H122466   6.516   5.690  13.562 -0.4219  0.0713 -0.5891
  325TIP3    H222467   6.590   5.812  13.510 -0.1051 -0.0837 -0.5001
  326TIP3   OH222468   5.165   5.785  10.731  0.2419  0.0343  1.0925
  326TIP3    H122469   5.144   5.877  10.712  1.3635  0.4566  1.7630
  326TIP3    H222470   5.090   5.736  10.698 -0.6994  1.2440  1.3350
  327TIP3   OH222471   3.005   4.774  16.176 -0.2535 -0.2212 -0.5212
  327TIP3    H122472   3.063   4.828  16.229 -0.9545  0.7679 -0.7398
  327TIP3    H222473   3.064   4.720  16.123  0.4514  0.1254 -0.1055
  328TIP3   OH222474   3.012   2.153  11.836  1.1677  0.0250  0.2850
  328TIP3    H122475   3.049   2.099  11.766 -0.9707 -1.8032  0.4573
  328TIP3    H222476   2.921   2.165  11.811  0.9859  1.5458  1.5118
  329TIP3   OH222477   1.495   3.533   5.632  0.0336  0.4323  0.1764
  329TIP3    H122478   1.575   3.511   5.680 -0.6827  1.8210  2.1799
  329TIP3    H222479   1.440   3.455   5.640 -0.5146  0.9765  2.7721
  330TIP3   OH222480   1.750   4.659  11.461 -0.3449 -0.2172  0.3508
  330TIP3    H122481   1.780   4.658  11.552 -2.2230  0.4454  1.0223
  330TIP3    H222482   1.671   4.606  11.461 -0.8528  0.5102 -0.6982
  331TIP3   OH222483   3.687   5.054   2.370 -0.1120 -0.1202  0.5934
  331TIP3    H122484   3.709   4.961   2.359  0.6959  0.0656  0.6236
  331TIP3    H222485   3.756   5.089   2.426  1.0428  1.0780 -1.4579
  332TIP3   OH222486   2.911   1.939   1.339 -0.0775 -0.0295 -0.2734
  332TIP3    H122487   2.896   1.879   1.266  0.5962  0.4441 -0.8194
  332TIP3    H222488   2.991   1.986   1.316 -0.3435  0.7671  0.3451
  333TIP3   OH222489   5.104   6.535  14.407 -0.0513  0.1791 -0.1707
  333TIP3    H122490   5.035   6.539  14.473 -1.7726  0.3341 -1.8887
  333TIP3    H222491   5.124   6.442  14.399 -0.6656  0.0448 -0.2267
  334TIP3   OH222492   4.012   5.591   0.386 -1.2711 -0.2227 -0.1204
  334TIP3    H122493   4.008   5.682   0.416 -0.4781 -0.4771  0.7916
  334TIP3    H222494   3.962   5.542   0.451 -0.3671 -0.6510  0.2646
  335TIP3   OH222495   6.381   3.579   5.859 -0.0794  0.1702  0.8214
  335TIP3    H122496   6.388   3.670   5.831 -1.3025 -0.1404 -0.6121
  335TIP3    H222497   6.465   3.540   5.833 -0.7482  0.1551 -1.6379
  336TIP3   OH222498   5.994   4.769   6.029  0.3888 -0.7923 -0.5679
  336TIP3    H122499   5.904   4.800   6.027  0.1467 -1.4881 -0.7937
  336TIP3    H222500   6.022   4.782   6.120  0.5627  0.7801 -0.8153
  337TIP3   OH222501   3.924   6.086  16.722  0.2516 -0.2161 -0.3314
  337TIP3    H122502   3.896   5.995  16.730 -0.9337  0.0576 -1.0555
  337TIP3    H222503   3.854   6.137  16.763  1.1328  0.3631  0.5055
  338TIP3   OH222504   4.390   0.977  13.984 -0.2671  0.3274  0.2555
  338TIP3    H122505   4.346   0.902  13.943 -1.9006 -0.2156  2.7697
  338TIP3    H222506   4.340   1.053  13.953 -1.2358 -0.0342  0.8722
  339TIP3   OH222507   5.357   0.783   1.958 -0.6451 -0.1260  0.0279
  339TIP3    H122508   5.431   0.840   1.936 -0.1702 -1.3125 -1.6706
  339TIP3    H222509   5.303   0.835   2.017  0.6558  1.4141 -0.0678
  340TIP3   OH222510   1.171   5.254   1.878 -0.3188 -0.2885  0.5422
  340TIP3    H122511   1.100   5.219   1.825  0.3131 -0.1837 -0.3942
  340TIP3    H222512   1.237   5.185   1.879  1.5056  1.2310 -2.4154
  341TIP3   OH222513   5.097   5.986  15.173 -0.0404  0.2863  0.4542
  341TIP3    H122514   5.057   6.067  15.140 -0.7465 -0.0924  0.3671
  341TIP3    H222515   5.165   5.965  15.109 -0.4303  0.3463  0.0183
  342TIP3   OH222516   6.444   4.297  10.640  0.1285  0.1451 -0.0270
  342TIP3    H122517   6.386   4.366  10.609  0.5786 -0.2348 -1.8144
  342TIP3    H222518   6.481   4.259  10.561  0.8783 -1.3041  0.9691
  343TIP3   OH222519   0.877   6.811   4.735 -0.4611  0.3212 -0.9667
  343TIP3    H122520   0.971   6.796   4.733 -0.7159 -1.9302  0.2400
  343TIP3    H222521   0.858   6.829   4.827 -1.0920  1.8669 -1.3787
  344TIP3   OH222522   1.940   2.908   5.226 -0.4630 -0.4142  0.4143
  344TIP3    H122523   1.981   2.896   5.140 -0.7268  0.2509  0.1952
  344TIP3    H222524   1.907   2.820   5.248 -1.4809 -0.3598 -0.7275
  345TIP3   OH222525   0.906   5.955   1.677 -0.2166 -0.6727 -0.0690
  345TIP3    H122526   0.985   5.965   1.729 -0.9789  0.1809  0.9712
  345TIP3    H222527   0.864   6.041   1.680 -0.9977 -1.0103 -0.8983
  346TIP3   OH222528   3.146   0.322   3.183  0.5432  0.2599 -0.0600
  346TIP3    H122529   3.113   0.411   3.196  0.3849  0.0041  1.4780
  346TIP3    H222530   3.116   0.274   3.260  2.9286 -0.4497  0.5044
  347TIP3   OH222531   2.742   1.760   5.674 -0.0911  0.2195 -0.3355
  347TIP3    H122532   2.655   1.781   5.640 -0.0075  1.1158 -0.0105
  347TIP3    H222533   2.777   1.696   5.612 -0.6280  0.5328 -0.9727
  348TIP3   OH222534   3.838   0.448  15.015 -0.3544  0.6672 -0.4588
  348TIP3    H122535   3.842   0.543  15.024 -3.6790  1.0337 -1.4989
  348TIP3    H222536   3.825   0.416  15.104  1.3971  1.0455 -0.0170
  349TIP3   OH222537   5.174   5.406  12.669  0.1016  0.4023  0.5320
  349TIP3    H122538   5.217   5.426  12.752 -1.2144  0.0885  1.3186
  349TIP3    H222539   5.101   5.349  12.693  0.3338 -0.6005 -0.9696
  350TIP3   OH222540   4.734   1.733   2.827  0.3853 -0.8016 -0.2165
  350TIP3    H122541   4.717   1.642   2.850  2.2899 -1.0520  0.4016
  350TIP3    H222542   4.696   1.744   2.740 -2.2065 -1.3876  0.7579
  351TIP3   OH222543   3.995   1.355   3.966 -0.0937  0.3623 -0.0699
  351TIP3    H122544   3.989   1.374   3.872 -2.0596  1.5381  0.2510
  351TIP3    H222545   3.908   1.327   3.991  0.0998  1.1255  1.6108
  352TIP3   OH222546   1.198   3.545  14.730 -0.1602 -0.1693  0.2017
  352TIP3    H122547   1.211   3.601  14.807 -2.3481 -0.3305  0.7321
  352TIP3    H222548   1.106   3.556  14.707  0.7803  1.3233 -3.5819
  353TIP3   OH222549   0.825   2.048   3.695 -0.3748  0.1828 -0.4888
  353TIP3    H122550   0.807   2.078   3.784  1.4342 -3.7642  1.4512
  353TIP3    H222551   0.895   2.107   3.664 -1.5067  2.0594  0.3200
  354TIP3   OH222552   1.526   4.680  14.388  0.5188 -0.4215 -0.3774
  354TIP3    H122553   1.591   4.630  14.437  0.3376 -0.9822 -0.7001
  354TIP3    H222554   1.445   4.669  14.437  0.8609  1.1463  0.6127
  355TIP3   OH222555   2.420   0.664  14.277  0.1115 -0.0733 -0.4533
  355TIP3    H122556   2.425   0.714  14.196  1.4377 -0.8816 -0.8990
  355TIP3    H222557   2.378   0.724  14.339  1.4041  1.5192 -1.0310
  356TIP3   OH222558   3.095   2.488  11.821  0.3655  0.5647 -0.4851
  356TIP3    H122559   3.030   2.494  11.751 -0.5646  1.3053  0.4071
  356TIP3    H222560   3.090   2.398  11.852  0.1181  0.4856 -0.7572
  357TIP3   OH222561   4.249   5.517   4.461  0.5761 -0.2503 -0.3345
  357TIP3    H122562   4.336   5.485   4.485  0.0439  0.1583  2.5367
  357TIP3    H222563   4.258   5.612   4.456  0.3205 -0.2151 -0.1688
  358TIP3   OH222564   0.765   5.401   4.422 -0.2918  0.3564 -0.0347
  358TIP3    H122565   0.826   5.361   4.360  1.7086  2.7506  0.2120
  358TIP3    H222566   0.705   5.452   4.367 -1.2050 -0.8362 -0.1867
  359TIP3   OH222567   1.053   2.848   5.621  0.0013  0.2317 -0.5051
  359TIP3    H122568   1.142   2.883   5.625  0.2216 -0.3771  2.3573
  359TIP3    H222569   1.065   2.754   5.604 -0.3679  0.6423 -3.6552
  360TIP3   OH222570   0.157   3.815   1.984 -0.0279 -0.0996  0.0934
  360TIP3    H122571   0.244   3.828   1.945 -0.3394 -0.8946 -0.9241
  360TIP3    H222572   0.146   3.890   2.042 -0.0348  1.8906 -2.3219
  361TIP3   OH222573   3.197   0.818   0.850  0.4898  0.5685 -0.3414
  361TIP3    H122574   3.198   0.726   0.823  1.7454  0.5060 -0.1522
  361TIP3    H222575   3.195   0.867   0.767  2.5373  0.3680 -0.5488
  362TIP3   OH222576   6.708   6.455   2.759  0.2908 -0.4938  0.4855
  362TIP3    H122577   6.712   6.449   2.854 -0.5010 -1.3715  0.4843
  362TIP3    H222578   6.680   6.545   2.742 -1.9173 -0.9693  1.2024
  363TIP3   OH222579   1.694   0.622   2.253 -0.2008  0.0628  0.0504
  363TIP3    H122580   1.758   0.683   2.290  1.9251 -1.7130 -0.5120
  363TIP3    H222581   1.644   0.590   2.328 -2.3732  3.4230  0.2336
  364TIP3   OH222582   2.752   6.661   6.114  0.2248 -0.4076 -0.3247
  364TIP3    H122583   2.672   6.661   6.167  0.5660  1.7804  0.2960
  364TIP3    H222584   2.823   6.651   6.177  0.5103 -1.7376 -0.8177
  365TIP3   OH222585   3.852   2.642   5.409 -0.0567 -0.5234  0.2649
  365TIP3    H122586   3.866   2.556   5.370  0.8721 -0.0026 -0.5898
  365TIP3    H222587   3.888   2.635   5.497 -3.7062 -2.2434  1.8430
  366TIP3   OH222588   4.018   6.270  10.951  0.1605  0.2359 -0.0132
  366TIP3    H122589   4.075   6.195  10.969  0.4850  0.4192 -0.2745
  366TIP3    H222590   4.058   6.314  10.876 -2.0329 -1.4136 -2.3002
  367TIP3   OH222591   2.524   6.390  16.192 -0.5420  0.0616  0.0413
  367TIP3    H122592   2.576   6.312  16.171  0.3464  0.9257 -1.1207
  367TIP3    H222593   2.542   6.407  16.284 -1.7800 -1.8279  0.7017
  368TIP3   OH222594   4.982   3.052  13.334 -0.3327 -0.3132  0.5520
  368TIP3    H122595   4.914   2.998  13.293 -0.5281 -0.0745  0.5596
  368TIP3    H222596   5.038   3.079  13.262 -0.9931  0.5677  0.3472
  369TIP3   OH222597   5.986   0.462  14.926  0.0451 -0.5684  0.0011
  369TIP3    H122598   5.933   0.419  14.993  1.3850  1.5521  2.6109
  369TIP3    H222599   5.924   0.516  14.878 -0.7495 -1.0605  0.4448
  370TIP3   OH222600   2.729   5.606  11.675  0.2026 -0.1922  0.3647
  370TIP3    H122601   2.659   5.546  11.652  0.6592 -0.0633 -1.5437
  370TIP3    H222602   2.684   5.686  11.702 -0.3903 -0.4245  0.0761
  371TIP3   OH222603   5.408   3.137   5.899  0.3371 -0.3601 -0.1278
  371TIP3    H122604   5.476   3.076   5.872 -1.6317 -1.0082 -4.4362
  371TIP3    H222605   5.336   3.081   5.929 -0.3010 -0.0403 -1.0181
  372TIP3   OH222606   3.349   2.631  11.842 -0.2183  0.4500  0.6554
  372TIP3    H122607   3.409   2.658  11.773  0.4625 -1.1090  0.5841
  372TIP3    H222608   3.262   2.652  11.809  0.2064  1.5286  0.1900
  373TIP3   OH222609   2.685   5.296   1.393 -0.0022  0.3460 -0.8321
  373TIP3    H122610   2.779   5.307   1.404 -0.1851  0.5120  0.8002
  373TIP3    H222611   2.648   5.383   1.411 -0.5236  0.1228 -0.7994
  374TIP3   OH222612   3.365   1.543   2.703  0.3981  0.0129 -0.1441
  374TIP3    H122613   3.294   1.478   2.705 -0.1134  0.5899  1.2995
  374TIP3    H222614   3.432   1.502   2.649 -1.1059 -0.4516 -1.7556
  375TIP3   OH222615   4.943   1.267   4.130  0.1197 -0.0087 -0.1629
  375TIP3    H122616   4.911   1.337   4.072 -0.7867  0.0632  0.4059
  375TIP3    H222617   4.868   1.209   4.140  0.8935 -1.1272 -0.6967
  376TIP3   OH222618   1.786   5.418   5.574  0.2132  0.2633  0.3469
  376TIP3    H122619   1.765   5.467   5.653 -0.4558  0.4068  0.0824
  376TIP3    H222620   1.846   5.475   5.526  2.0877 -0.5544  1.5608
  377TIP3   OH222621   2.091   6.577  11.732  0.0487 -0.1868 -0.1482
  377TIP3    H122622   2.095   6.482  11.722 -0.6490 -0.4770  1.9247
  377TIP3    H222623   2.130   6.594  11.818 -0.2931  1.3429 -0.2642
  378TIP3   OH222624   2.076   3.071   3.260  0.2981  0.5141  0.2844
  378TIP3    H122625   1.997   3.109   3.222  2.0872  3.3202 -1.0097
  378TIP3    H222626   2.124   3.036   3.185  2.5518  3.5584  0.0921
  379TIP3   OH222627   0.187   6.788  16.856 -0.2625 -0.0791  0.7033
  379TIP3    H122628   0.110   6.838  16.830 -0.3838 -1.0809 -1.0062
  379TIP3    H222629   0.169   6.760  16.945 -1.1820  1.0040  0.8777
  380TIP3   OH222630   3.256   2.295   2.706 -0.1555  0.0577  0.0732
  380TIP3    H122631   3.331   2.323   2.655 -0.3024 -1.2414 -0.9195
  380TIP3    H222632   3.291   2.280   2.794  0.9978 -1.4994 -0.6121
  381TIP3   OH222633   0.909   0.047   3.830  0.0131 -0.9350  0.1850
  381TIP3    H122634   0.873  -0.042   3.838  0.1475 -0.9397  0.8443
  381TIP3    H222635   0.944   0.051   3.741 -2.2271 -0.6877 -0.7454
  382TIP3   OH222636   0.814   1.094   3.067 -0.5108 -0.2761  0.3081
  382TIP3    H122637   0.833   1.014   3.018  0.4151  0.1170  0.0217
  382TIP3    H222638   0.753   1.142   3.012 -1.4969 -1.0017  0.7126
  383TIP3   OH222639   3.964   0.744   4.328  0.3895 -0.0802  0.2335
  383TIP3    H122640   4.003   0.767   4.243 -0.3959  1.6701  0.3055
  383TIP3    H222641   3.877   0.712   4.306  0.6406 -0.8383  0.3098
  384TIP3   OH222642   0.212   2.877  15.404  0.0049  0.7376  0.1341
  384TIP3    H122643   0.133   2.900  15.453 -1.9048 -1.2142 -1.7804
  384TIP3    H222644   0.235   2.790  15.436  0.6601  0.7844 -0.1926
  385TIP3   OH222645   5.047   0.332   1.516  0.5667  0.4747  0.5680
  385TIP3    H122646   5.114   0.274   1.552  0.1645  0.1417  0.7933
  385TIP3    H222647   5.012   0.378   1.593  1.2275  1.4005  0.3376
  386TIP3   OH222648   1.712   4.468   3.896 -0.1013 -0.0869  0.5616
  386TIP3    H122649   1.741   4.543   3.844 -1.8431  0.8917  0.8911
  386TIP3    H222650   1.707   4.396   3.834  0.9622  0.2236  0.0907
  387TIP3   OH222651   6.325   3.022  12.867 -0.0428 -0.1191  0.1480
  387TIP3    H122652   6.326   2.943  12.921  0.9476 -0.9497 -1.0202
  387TIP3    H222653   6.325   2.989  12.777  0.2446  1.2220 -0.3613
  388TIP3   OH222654   1.118   5.980   1.857  0.4293  0.5183 -0.2203
  388TIP3    H122655   1.164   5.948   1.935 -1.3292 -0.0684  0.6309
  388TIP3    H222656   1.099   6.072   1.878  0.3781  0.4956 -0.1668
  389TIP3   OH222657   2.131   0.445  13.073  0.0106  0.4096 -0.3333
  389TIP3    H122658   2.143   0.525  13.125  1.5738  0.0367 -0.0781
  389TIP3    H222659   2.147   0.374  13.135  1.0508 -0.0570 -1.1183
  390TIP3   OH222660   6.019   2.120  14.898 -0.3026 -0.2715  0.2409
  390TIP3    H122661   6.051   2.210  14.888  0.8141 -0.5268  1.3069
  390TIP3    H222662   5.971   2.121  14.981  0.6146 -0.8977  0.7894
  391TIP3   OH222663   5.422   2.732   4.969 -0.1817 -0.0065  0.4395
  391TIP3    H122664   5.349   2.722   5.030 -1.7588  2.1503 -0.9172
  391TIP3    H222665   5.500   2.738   5.025 -1.3877  0.5430  2.1522
  392TIP3   OH222666   1.044   6.059  16.986 -0.0615 -0.1089  0.1736
  392TIP3    H122667   1.124   6.014  16.959 -0.6294  1.2138 -4.4975
  392TIP3    H222668   1.072   6.149  17.005 -0.2802  0.1020 -0.4850
  393TIP3   OH222669   2.312   2.692  12.588  0.7220 -0.0785  0.6268
  393TIP3    H122670   2.366   2.646  12.524 -0.3162  0.7212 -0.8947
  393TIP3    H222671   2.323   2.785  12.567  1.3548  0.3126  2.4679
  394TIP3   OH222672   0.865   0.477  14.862 -0.1867  0.2995 -0.4610
  394TIP3    H122673   0.870   0.382  14.860 -0.9973  0.2603 -1.2420
  394TIP3    H222674   0.826   0.501  14.778 -0.7506  1.2715  0.0520
  395TIP3   OH222675   5.487   2.516   2.602  0.9133 -0.2253  0.2088
  395TIP3    H122676   5.477   2.593   2.659  2.5650  1.4045 -1.5694
  395TIP3    H222677   5.437   2.448   2.646 -1.0706  1.9817  1.6373
  396TIP3   OH222678   4.227   0.281   3.070 -0.6840 -0.1353 -0.0818
  396TIP3    H122679   4.291   0.257   3.137 -0.2236  0.6220 -0.2393
  396TIP3    H222680   4.277   0.289   2.989 -1.1694 -0.6323 -0.4375
  397TIP3   OH222681   1.382   1.487   5.387  0.1085 -0.3165  0.0135
  397TIP3    H122682   1.370   1.459   5.478 -1.1490  0.3963  0.0899
  397TIP3    H222683   1.336   1.571   5.381  0.9656  0.1129 -1.0528
  398TIP3   OH222684   6.582   3.677  15.171 -0.2493 -0.0077 -0.0936
  398TIP3    H122685   6.548   3.666  15.082  1.5080 -1.6221 -0.6236
  398TIP3    H222686   6.668   3.716  15.159  0.6568 -1.6604  0.7538
  399TIP3   OH222687   5.527   4.319  14.747 -0.0555  0.0329  0.0591
  399TIP3    H122688   5.535   4.398  14.694 -2.1440  0.6440  0.5311
  399TIP3    H222689   5.612   4.310  14.790  1.1993  0.3445 -2.1920
  400TIP3   OH222690   3.419   6.709  16.192 -0.3411  0.4976 -0.0685
  400TIP3    H122691   3.367   6.680  16.117 -0.4014 -0.4956  0.3495
  400TIP3    H222692   3.442   6.800  16.171  0.1896  0.0386 -1.6043
  401TIP3   OH222693   6.391   1.871   5.710  0.6000  0.2446  0.6018
  401TIP3    H122694   6.353   1.834   5.790  1.1299 -1.1447  0.2355
  401TIP3    H222695   6.477   1.903   5.737 -0.2434  2.1845  1.1384
  402TIP3   OH222696   3.848   2.953   2.195  0.2331  0.2124  0.0161
  402TIP3    H122697   3.899   2.930   2.118 -0.4868  0.0675 -0.4196
  402TIP3    H222698   3.912   2.994   2.254  0.9006 -0.1783 -0.4190
  403TIP3   OH222699   5.423   0.074  11.555 -0.6008 -0.2910 -0.5008
  403TIP3    H122700   5.476   0.034  11.624  0.6620  1.8856 -0.1040
  403TIP3    H222701   5.440   0.021  11.477 -0.7423 -1.7934  0.4481
  404TIP3   OH222702   5.628   0.016   1.976  0.0023  0.6768 -0.0273
  404TIP3    H122703   5.707   0.052   2.017  0.3526  1.5081 -1.3734
  404TIP3    H222704   5.563   0.014   2.047  1.1893  0.0250  1.0979
  405TIP3   OH222705   3.348   5.023  11.081 -0.3268 -0.3368 -0.2040
  405TIP3    H122706   3.410   4.994  11.013  0.3442 -0.0933  0.2869
  405TIP3    H222707   3.331   5.115  11.060  1.1614  0.2384  0.8417
  406TIP3   OH222708   6.036   2.210  14.323  0.0787  0.1714 -0.8920
  406TIP3    H122709   5.943   2.202  14.305 -0.0920  0.4703 -0.1897
  406TIP3    H222710   6.044   2.293  14.371  0.3808 -0.9461  1.0806
  407TIP3   OH222711   1.514   6.633   2.204 -0.1427  0.2073  0.0981
  407TIP3    H122712   1.576   6.706   2.198  0.2009 -0.1656 -1.3307
  407TIP3    H222713   1.436   6.665   2.159  0.5801 -0.8207 -2.0299
  408TIP3   OH222714   4.212   1.568  12.092  0.0109 -0.2750  0.6973
  408TIP3    H122715   4.282   1.521  12.138  1.1087  0.3570 -0.2725
  408TIP3    H222716   4.160   1.499  12.051  0.9578 -0.7071  0.1909
  409TIP3   OH222717   2.550   4.323  13.495 -0.0558  0.0857 -0.1900
  409TIP3    H122718   2.499   4.404  13.487 -1.4901 -0.7829 -0.2023
  409TIP3    H222719   2.486   4.257  13.521  1.4336 -0.6705  1.7901
  410TIP3   OH222720   3.910   2.687   6.820 -0.2199 -0.1347 -0.3113
  410TIP3    H122721   3.864   2.715   6.899 -1.5284 -1.1049 -0.6907
  410TIP3    H222722   3.892   2.755   6.756  1.0405  0.7751  0.2565
  411TIP3   OH222723   0.420   0.405  14.898 -0.1763  0.3598 -0.1481
  411TIP3    H122724   0.497   0.348  14.895  0.4827  1.1913  0.6924
  411TIP3    H222725   0.455   0.493  14.909 -1.2359  0.7972 -0.1286
  412TIP3   OH222726   2.511   3.404  13.405 -0.0411  0.0177  0.6890
  412TIP3    H122727   2.596   3.449  13.408 -0.3610  0.6871  0.2213
  412TIP3    H222728   2.532   3.314  13.382  0.5692  0.1043  0.8909
  413TIP3   OH222729   3.805   0.925   5.013 -0.0921  0.3179 -0.0913
  413TIP3    H122730   3.859   0.993   4.974  0.8424 -1.2048 -1.5497
  413TIP3    H222731   3.866   0.870   5.062 -0.8303  0.4684  1.0486
  414TIP3   OH222732   3.859   4.483  12.182  0.1135 -0.5754 -0.6205
  414TIP3    H122733   3.891   4.396  12.159 -0.3278 -0.3197 -2.3355
  414TIP3    H222734   3.787   4.499  12.122 -1.1010  0.2159  0.9576
  415TIP3   OH222735   4.695   3.200  13.049 -0.2160  0.0358  0.0790
  415TIP3    H122736   4.717   3.273  12.992  0.0367 -0.7820 -0.8902
  415TIP3    H222737   4.624   3.233  13.105  0.6126  1.3430  0.3815
  416TIP3   OH222738   4.187   0.217   4.159  0.2869  0.4218 -0.2650
  416TIP3    H122739   4.138   0.198   4.078  0.2569 -3.3450  0.4585
  416TIP3    H222740   4.276   0.237   4.129  0.5872 -2.1041 -1.3013
  417TIP3   OH222741   5.843   4.739   6.375  0.1156 -0.2759 -0.8242
  417TIP3    H122742   5.830   4.647   6.354  0.6478 -0.7740  0.9074
  417TIP3    H222743   5.756   4.778   6.366 -0.7465 -1.5720  1.2677
  418TIP3   OH222744   4.381   6.344  14.665 -0.0349 -0.4964  0.8001
  418TIP3    H122745   4.412   6.282  14.598  0.9822  2.0323 -1.2474
  418TIP3    H222746   4.460   6.370  14.712 -0.2485  0.1521  0.8037
  419TIP3   OH222747   6.605   0.993  15.658 -0.1097 -0.4464 -0.1518
  419TIP3    H122748   6.536   0.938  15.695 -1.2141 -0.9827 -2.7794
  419TIP3    H222749   6.667   0.930  15.620  1.3384  0.0652  1.2159
  420TIP3   OH222750   5.796   5.786   1.348 -0.7669 -0.1244 -0.5795
  420TIP3    H122751   5.884   5.781   1.311 -0.8717  0.9402 -1.0101
  420TIP3    H222752   5.775   5.695   1.372 -0.0902 -0.6094 -1.7147
  421TIP3   OH222753   6.050   3.924   3.895  0.0762 -0.3426  0.6064
  421TIP3    H122754   6.022   3.870   3.822  2.1048 -0.1267 -0.3817
  421TIP3    H222755   6.026   3.873   3.973  1.3178 -2.3842 -0.2739
  422TIP3   OH222756   2.838   6.400   2.999 -0.0536 -0.1649  0.4023
  422TIP3    H122757   2.767   6.427   2.942 -0.2419 -0.7158  0.3710
  422TIP3    H222758   2.808   6.422   3.088 -0.9905 -1.9181  0.5495
  423TIP3   OH222759   6.592   6.744   4.840 -0.1990  0.2321 -0.1009
  423TIP3    H122760   6.611   6.656   4.806 -1.0355  0.0079 -0.0249
  423TIP3    H222761   6.669   6.767   4.891 -0.5405 -1.0672  1.0696
  424TIP3   OH222762   4.048   2.733  14.128 -0.2443 -0.0274  0.3563
  424TIP3    H122763   4.010   2.801  14.184  1.1097  1.8407 -0.8533
  424TIP3    H222764   4.142   2.748  14.134  0.0312 -1.1681 -0.7516
  425TIP3   OH222765   1.703   5.078  14.293  0.1467 -0.1012  0.2339
  425TIP3    H122766   1.725   5.067  14.200  2.4712 -1.1844  0.8437
  425TIP3    H222767   1.766   5.142  14.325 -0.5466  0.1518  1.1279
  426TIP3   OH222768   5.503   2.537  10.278  0.4715  0.2936 -0.0379
  426TIP3    H122769   5.476   2.578  10.196  0.4323 -1.8575 -1.1805
  426TIP3    H222770   5.504   2.608  10.342 -0.0942  1.9169 -1.7601
  427TIP3   OH222771   6.670   1.486  11.477 -0.0014  0.3083 -0.4985
  427TIP3    H122772   6.658   1.547  11.550 -1.2687 -0.4917 -0.0104
  427TIP3    H222773   6.746   1.520  11.430  1.0971  0.6190  1.4146
  428TIP3   OH222774   0.972   4.140  16.868 -0.0671  0.5989 -0.1651
  428TIP3    H122775   0.958   4.172  16.779  0.0535  2.7164  0.5084
  428TIP3    H222776   0.957   4.217  16.923  0.4178 -0.5153  1.5993
  429TIP3   OH222777   3.145   5.695  14.491 -0.0523  0.0723 -0.1198
  429TIP3    H122778   3.131   5.785  14.519  1.5475  0.9164 -1.8033
  429TIP3    H222779   3.065   5.649  14.515 -0.5189  1.6911  1.6627
  430TIP3   OH222780   4.649   4.378  10.980  0.0997  0.1611  0.4148
  430TIP3    H122781   4.589   4.305  10.991  1.0272 -0.4240  1.9907
  430TIP3    H222782   4.720   4.343  10.925  0.6860 -0.2573  1.4019
  431TIP3   OH222783   1.921   3.315   4.094  0.4123  0.1982 -0.1347
  431TIP3    H122784   1.988   3.279   4.152  0.0569  1.4175  1.0955
  431TIP3    H222785   1.894   3.397   4.137 -2.5609 -0.7094 -0.0449
  432TIP3   OH222786   3.619   6.220  11.086 -0.1121  0.4380 -0.0347
  432TIP3    H122787   3.583   6.233  10.998  2.3133 -1.9086 -1.5261
  432TIP3    H222788   3.700   6.272  11.087  0.7434 -0.8479  0.1383
  433TIP3   OH222789   3.555   3.314  12.708  0.7913  0.6177  0.4047
  433TIP3    H122790   3.472   3.361  12.709 -1.2203 -2.6075  0.1031
  433TIP3    H222791   3.571   3.291  12.800  0.8625  0.4597  0.3539
  434TIP3   OH222792   2.195   3.788   1.073 -0.2527  0.0265 -0.1725
  434TIP3    H122793   2.110   3.745   1.082 -1.1523  2.0060  1.3612
  434TIP3    H222794   2.179   3.864   1.018  0.2551  0.9790  0.9308
  435TIP3   OH222795   2.778   0.698   3.791  0.3031 -0.2728  0.2418
  435TIP3    H122796   2.735   0.615   3.768 -1.5264  0.8184 -0.4568
  435TIP3    H222797   2.860   0.671   3.833 -0.7482 -2.4629  1.0608
  436TIP3   OH222798   3.378   5.370  14.628  0.1179  0.3173 -0.0679
  436TIP3    H122799   3.400   5.450  14.580 -2.5211 -0.2301 -2.4945
  436TIP3    H222800   3.440   5.368  14.701  2.1768  3.0224 -1.5405
  437TIP3   OH222801   4.300   5.550  15.560  0.2828 -0.3702 -0.4147
  437TIP3    H122802   4.210   5.517  15.554 -0.1072  0.7796 -1.2542
  437TIP3    H222803   4.308   5.585  15.648 -0.4721  0.5202 -0.6843
  438TIP3   OH222804   4.579   0.771  12.277  0.4897 -0.6296  0.6138
  438TIP3    H122805   4.643   0.789  12.208  0.2409 -0.5548  0.3985
  438TIP3    H222806   4.630   0.732  12.348  0.6533 -1.3145  0.1330
  439TIP3   OH222807   4.502   1.889  16.372  0.0730  0.3570  1.0014
  439TIP3    H122808   4.573   1.850  16.321  0.0062 -1.4434  2.1780
  439TIP3    H222809   4.538   1.970  16.407  1.2208 -0.0398  0.7688
  440TIP3   OH222810   3.401   1.400  11.966 -0.2214  0.5763 -0.5111
  440TIP3    H122811   3.320   1.409  12.015 -1.5425  3.0268 -2.8587
  440TIP3    H222812   3.377   1.346  11.890  1.3496 -1.7231  0.5108
  441TIP3   OH222813   0.680   4.126  15.610 -0.2087  0.3532  0.3499
  441TIP3    H122814   0.652   4.083  15.691  0.2029  1.5350  1.1548
  441TIP3    H222815   0.618   4.198  15.598  0.8541  1.3684  0.6982
  442TIP3   OH222816   6.259   3.294  11.649 -0.6887 -0.0302  0.9348
  442TIP3    H122817   6.227   3.204  11.644 -1.1719  0.1361  0.9776
  442TIP3    H222818   6.299   3.301  11.736  0.1817 -0.4712  0.5746
  443TIP3   OH222819   4.244   4.581   2.160  0.2310 -0.5819  0.1139
  443TIP3    H122820   4.323   4.579   2.213 -0.6475 -2.0690  1.4135
  443TIP3    H222821   4.232   4.674   2.140  1.6389 -0.2046  0.8748
  444TIP3   OH222822   6.488   4.109   2.623  0.6045  0.5510 -0.8249
  444TIP3    H122823   6.433   4.156   2.560  0.3539  2.8989  1.0295
  444TIP3    H222824   6.569   4.092   2.576 -0.9817 -1.4799 -3.0720
  445TIP3   OH222825   1.639   4.607   0.778  0.3554 -0.4211 -0.3438
  445TIP3    H122826   1.571   4.674   0.775 -1.5993 -2.3484 -1.6951
  445TIP3    H222827   1.613   4.543   0.712  1.1541 -3.3868  1.9785
  446TIP3   OH222828   6.804   2.705  15.788 -0.6348  0.6335 -0.2723
  446TIP3    H122829   6.825   2.626  15.838 -2.3965  1.0978  1.3215
  446TIP3    H222830   6.877   2.765  15.807  0.4390 -0.3832 -1.0573
  447TIP3   OH222831   5.615   3.930   0.252 -0.2222 -0.6185  0.3538
  447TIP3    H122832   5.683   3.866   0.233  0.4533  0.1397  0.1251
  447TIP3    H222833   5.569   3.942   0.169  0.2989 -0.0833  0.1329
  448TIP3   OH222834   2.370   3.144  13.777  0.7590  0.4500 -0.3773
  448TIP3    H122835   2.434   3.081  13.744 -0.4677 -1.2363  0.2524
  448TIP3    H222836   2.399   3.165  13.866 -1.1246 -2.9406  1.2730
  449TIP3   OH222837   0.729   1.236  13.625  0.0358 -0.6036  0.0758
  449TIP3    H122838   0.656   1.186  13.588 -0.0555 -0.1058 -0.4348
  449TIP3    H222839   0.729   1.213  13.718 -1.6925  0.4886  0.3880
  450TIP3   OH222840   5.317   1.425   0.323  0.1815  0.2885 -0.3275
  450TIP3    H122841   5.233   1.452   0.358  0.4589 -0.0837  0.6581
  450TIP3    H222842   5.371   1.406   0.400  1.7989  2.3461 -0.8456
  451TIP3   OH222843   1.945   3.641   5.602 -0.2808  0.0372  0.5320
  451TIP3    H122844   2.007   3.597   5.660 -0.6421 -1.5918 -0.2473
  451TIP3    H222845   1.952   3.593   5.519 -1.7495  0.5412  0.0897
  452TIP3   OH222846   1.240   5.747   4.522  0.3288  0.7054 -0.7895
  452TIP3    H122847   1.256   5.722   4.613 -1.6574 -0.1787 -0.6256
  452TIP3    H222848   1.221   5.841   4.526 -0.1532  0.5921 -0.2150
  453TIP3   OH222849   4.214   3.108  14.596  0.3264 -0.2693 -0.0349
  453TIP3    H122850   4.285   3.044  14.599  0.5980 -0.0191 -0.7815
  453TIP3    H222851   4.208   3.133  14.504  0.7802  1.3952  0.3503
  454TIP3   OH222852   5.889   4.419   0.793  0.0544  0.3210 -0.1618
  454TIP3    H122853   5.967   4.451   0.749  1.1747 -2.3448 -0.3042
  454TIP3    H222854   5.921   4.358   0.859 -1.8783 -1.2602 -0.5817
  455TIP3   OH222855   3.522   0.212  13.256 -0.3726  0.1885  0.1559
  455TIP3    H122856   3.584   0.142  13.235 -0.5049  0.0311  0.2866
  455TIP3    H222857   3.513   0.208  13.351 -0.9254 -0.0830  0.0953
  456TIP3   OH222858   5.521   1.232  13.588 -0.1541 -0.2319 -0.3726
  456TIP3    H122859   5.449   1.170  13.597 -1.0346  0.9199  1.1638
  456TIP3    H222860   5.567   1.205  13.509 -2.1772 -1.1098 -1.3257
  457TIP3   OH222861   0.399   6.667   3.820 -0.2039 -0.0563 -0.2187
  457TIP3    H122862   0.439   6.735   3.766 -1.7693 -0.0641 -1.4640
  457TIP3    H222863   0.381   6.711   3.903 -2.1311  1.4215 -1.3396
  458TIP3   OH222864   1.750   2.907  14.635  0.0411 -0.5952 -0.4452
  458TIP3    H122865   1.782   2.862  14.557 -1.7264  1.2078 -2.3380
  458TIP3    H222866   1.693   2.844  14.679  1.6877 -1.9013 -0.1024
  459TIP3   OH222867   4.493   3.535   2.364 -0.1869  0.4854 -0.3550
  459TIP3    H122868   4.459   3.508   2.279  0.8395 -0.5029 -0.4737
  459TIP3    H222869   4.437   3.491   2.428  0.2705 -0.3974 -0.5427
  460TIP3   OH222870   3.610   6.744  12.722 -0.7953  0.1033 -0.0467
  460TIP3    H122871   3.683   6.798  12.692 -1.8015  1.7968  0.4291
  460TIP3    H222872   3.564   6.718  12.642  0.1232 -0.7165 -0.3277
  461TIP3   OH222873   0.414   1.970   4.867 -0.0752  0.7242  0.4981
  461TIP3    H122874   0.325   1.983   4.899  0.3094  0.1756  1.8826
  461TIP3    H222875   0.405   1.909   4.794 -0.6986 -0.6343  1.6770
  462TIP3   OH222876   0.399   5.389  16.818  0.3050  0.4479 -0.7061
  462TIP3    H122877   0.411   5.376  16.912  0.2062 -1.3909 -0.9093
  462TIP3    H222878   0.309   5.359  16.801 -0.4279  2.6830 -1.1016
  463TIP3   OH222879   6.263   4.244  14.128  0.0746  0.2624  0.3930
  463TIP3    H122880   6.253   4.307  14.056  0.0319 -0.7102 -0.4788
  463TIP3    H222881   6.355   4.216  14.122  0.4622  1.1611  1.5913
  464TIP3   OH222882   6.585   0.528   0.030  0.1825  0.4204  0.0212
  464TIP3    H122883   6.529   0.455   0.055 -0.4927  0.1601 -2.0283
  464TIP3    H222884   6.555   0.601   0.084 -1.2185 -0.0796 -0.0477
  465TIP3   OH222885   3.060   6.510  11.328  0.1422 -0.4337  0.6756
  465TIP3    H122886   3.065   6.604  11.307 -0.1880 -0.7586 -1.0523
  465TIP3    H222887   2.966   6.490  11.326  0.1277 -0.5852  2.1830
  466TIP3   OH222888   4.807   0.726   3.504 -0.7903  0.4747 -0.1698
  466TIP3    H122889   4.835   0.731   3.412  1.2383 -1.2334  0.2724
  466TIP3    H222890   4.794   0.633   3.520 -0.5962  0.6934  1.4084
  467TIP3   OH222891   6.204   5.377  13.067  0.3539  0.2913  0.5004
  467TIP3    H122892   6.138   5.383  12.997  0.2785  0.3623  0.5775
  467TIP3    H222893   6.283   5.348  13.022  0.2884  0.2713  0.3955
  468TIP3   OH222894   5.910   3.755   5.393  0.4145 -0.1604 -0.4685
  468TIP3    H122895   5.903   3.730   5.301  0.3236  0.7591 -0.7209
  468TIP3    H222896   5.856   3.834   5.401  0.0332 -0.5010  0.4798
  469TIP3   OH222897   5.558   4.109  12.570  0.0692  0.0195 -0.2706
  469TIP3    H122898   5.485   4.154  12.527  0.0375  0.1707 -0.0599
  469TIP3    H222899   5.576   4.034  12.514 -0.6668 -0.3757  0.0036
  470TIP3   OH222900   0.867   5.013  16.216 -0.3360 -0.0554  0.1601
  470TIP3    H122901   0.924   5.084  16.245  2.0113 -1.2286 -1.2993
  470TIP3    H222902   0.893   4.937  16.269  2.1339 -1.5208 -2.7947
  471TIP3   OH222903   3.863   1.770  15.559 -0.5701  0.7521  0.2110
  471TIP3    H122904   3.789   1.711  15.545  0.4750 -0.1840 -1.6680
  471TIP3    H222905   3.931   1.715  15.598  0.1065  0.9142 -0.7250
  472TIP3   OH222906   2.846   5.403  12.001  0.1327 -0.1631 -0.0817
  472TIP3    H122907   2.831   5.338  11.933  0.1865  0.3588 -0.5981
  472TIP3    H222908   2.776   5.467  11.988 -1.2192 -1.1724  1.7395
  473TIP3   OH222909   3.958   0.267  16.037 -0.6054 -0.9116 -0.6506
  473TIP3    H122910   4.022   0.196  16.031  0.5324  0.0811 -0.5954
  473TIP3    H222911   3.917   0.256  16.123 -0.4087 -1.4732 -0.6282
  474TIP3   OH222912   1.093   0.458  12.761 -0.1217 -0.4037 -0.3048
  474TIP3    H122913   1.115   0.365  12.754 -0.1533 -0.4555  0.2804
  474TIP3    H222914   1.009   0.466  12.716  0.5418 -0.4023 -1.6004
  475TIP3   OH222915   3.358   6.094  10.779  0.4806 -0.2552  0.2454
  475TIP3    H122916   3.397   6.081  10.693  1.2443  0.5736  0.4493
  475TIP3    H222917   3.417   6.156  10.823  0.0199 -0.5404  1.3026
  476TIP3   OH222918   0.236   5.171  14.425  0.4030 -0.5804  0.3937
  476TIP3    H122919   0.209   5.182  14.334 -0.5089  0.0645  0.7221
  476TIP3    H222920   0.163   5.206  14.476  1.3873  0.1632  1.3537
  477TIP3   OH222921   0.177   1.477   2.857 -0.1880  0.0613 -0.0420
  477TIP3    H122922   0.224   1.554   2.825 -1.3236  1.1778  0.8575
  477TIP3    H222923   0.239   1.434   2.916  0.2986  0.5500 -0.1921
  478TIP3   OH222924   0.283   3.253   2.174  0.3124 -0.0615 -0.3924
  478TIP3    H122925   0.209   3.307   2.202 -0.2389 -0.5748 -0.8377
  478TIP3    H222926   0.335   3.242   2.254 -0.6459 -0.5708  0.1903
  479TIP3   OH222927   4.770   6.368   6.183  0.0580 -0.4124  0.0766
  479TIP3    H122928   4.728   6.396   6.102  0.0995 -1.7868 -0.4412
  479TIP3    H222929   4.863   6.358   6.160  0.1975 -0.1163  0.4886
  480TIP3   OH222930   4.070   4.559  16.958  0.8126  0.2836  0.3089
  480TIP3    H122931   4.078   4.473  16.918 -0.4343  0.7726 -1.0963
  480TIP3    H222932   3.975   4.574  16.967  1.0175  1.0709  1.5429
  481TIP3   OH222933   4.523   4.506  16.309  0.1835  0.0023  0.6762
  481TIP3    H122934   4.524   4.410  16.317  1.6162 -0.4378 -2.9870
  481TIP3    H222935   4.435   4.526  16.277  0.6610 -0.4636 -1.0351
  482TIP3   OH222936   1.290   3.261  10.809  0.1012 -0.3060  0.1168
  482TIP3    H122937   1.346   3.261  10.731 -0.6671 -0.5308 -0.4436
  482TIP3    H222938   1.201   3.255  10.775 -0.2170 -0.9556  1.0314
  483TIP3   OH222939   4.184   3.809  14.575 -0.2679 -0.3439 -0.2845
  483TIP3    H122940   4.184   3.901  14.600 -2.0810 -0.0296 -1.2853
  483TIP3    H222941   4.190   3.762  14.658  2.6673  0.5825  0.1751
  484TIP3   OH222942   4.056   2.317   2.155 -0.0210 -0.0170 -0.4240
  484TIP3    H122943   3.964   2.320   2.179  0.1936 -0.5327  0.4852
  484TIP3    H222944   4.071   2.399   2.108 -0.6392  0.6771  0.5479
  485TIP3   OH222945   5.381   4.847   5.303 -0.0920 -0.0760 -0.0950
  485TIP3    H122946   5.471   4.872   5.283  0.0674 -1.2152 -0.9225
  485TIP3    H222947   5.387   4.801   5.386  0.0984 -0.1345 -0.1396
  486TIP3   OH222948   4.930   2.165   3.790  0.5594 -0.0827 -0.9145
  486TIP3    H122949   4.864   2.153   3.858  1.5195  0.8604  0.2234
  486TIP3    H222950   4.991   2.092   3.802  0.8102  0.1665 -0.6525
  487TIP3   OH222951   6.142   0.390   1.737 -0.3868  0.3829 -0.0563
  487TIP3    H122952   6.113   0.482   1.742  0.3021  0.6133 -0.1782
  487TIP3    H222953   6.204   0.381   1.809 -1.6511 -0.4549  0.9833
  488TIP3   OH222954   6.557   2.113   2.367 -0.4758  0.0381 -0.0509
  488TIP3    H122955   6.543   2.113   2.272 -0.6694 -1.1967 -0.0470
  488TIP3    H222956   6.469   2.105   2.404 -0.3755  0.1946  0.2201
  489TIP3   OH222957   4.335   2.811   0.195  0.5184  0.0348  0.2529
  489TIP3    H122958   4.341   2.840   0.286  2.7483 -0.5069  0.3354
  489TIP3    H222959   4.426   2.797   0.168 -0.1699 -1.7200 -1.4347
  490TIP3   OH222960   2.512   3.374  14.540  0.4007 -0.4860  1.0173
  490TIP3    H122961   2.450   3.303  14.558 -1.6351 -0.2157 -3.4593
  490TIP3    H222962   2.496   3.439  14.608 -1.8817 -1.8727  1.9020
  491TIP3   OH222963   4.696   1.504   0.714  0.5130  0.3087 -0.7400
  491TIP3    H122964   4.709   1.434   0.779  2.1920  0.6137 -0.7015
  491TIP3    H222965   4.744   1.579   0.750  0.6076  0.7982 -1.8493
  492TIP3   OH222966   1.921   2.092   5.279 -0.2485 -0.2308 -0.5224
  492TIP3    H122967   1.862   2.167   5.272 -0.6873 -0.3383  1.4581
  492TIP3    H222968   2.003   2.122   5.240 -1.5794 -0.1168 -3.4373
  493TIP3   OH222969   2.535   1.566  16.191 -0.9578  0.0113  0.1597
  493TIP3    H122970   2.445   1.591  16.215 -0.5553  1.3361  0.3713
  493TIP3    H222971   2.535   1.567  16.096 -0.8157  1.4011  0.1628
  494TIP3   OH222972   4.870   5.415  11.641 -0.5467 -0.1372  0.3597
  494TIP3    H122973   4.901   5.505  11.641 -0.8310  0.0379  2.9025
  494TIP3    H222974   4.882   5.386  11.732 -1.2184 -2.3941 -0.2174
  495TIP3   OH222975   5.400   6.029   4.053  0.5316  0.0138  1.0547
  495TIP3    H122976   5.419   6.122   4.057 -0.7425  0.2792  1.6628
  495TIP3    H222977   5.401   6.007   3.960 -0.3199  0.9212  0.8136
  496TIP3   OH222978   2.588   1.882   4.851 -0.2816 -0.0754 -0.1088
  496TIP3    H122979   2.521   1.848   4.792  0.3570  1.4112 -1.7627
  496TIP3    H222980   2.670   1.877   4.801  0.4937  0.1073  1.0965
  497TIP3   OH222981   4.953   1.727  15.892 -0.0166 -0.0897  0.3972
  497TIP3    H122982   4.874   1.726  15.838  0.0691  0.1265  0.2675
  497TIP3    H222983   4.947   1.647  15.944  1.2716 -1.8312 -1.9207
  498TIP3   OH222984   5.116   4.252  15.160  0.1594 -0.9486  0.0214
  498TIP3    H122985   5.109   4.347  15.167 -1.2138 -0.9623 -0.7266
  498TIP3    H222986   5.204   4.232  15.189  1.0413  0.7242 -1.3111
  499TIP3   OH222987   3.840   3.328  14.901 -0.4660  0.2403  0.0260
  499TIP3    H122988   3.920   3.359  14.944 -0.7558  0.7427  0.2137
  499TIP3    H222989   3.868   3.252  14.850  0.2151  0.6740 -0.2557
  500TIP3   OH222990   6.652   6.124   4.195 -0.4100 -0.1635  0.2325
  500TIP3    H122991   6.674   6.104   4.104  0.6756  1.3873  0.1147
  500TIP3    H222992   6.598   6.203   4.190  1.0480  0.9342  0.9781
  501TIP3   OH222993   2.569   1.558  12.711  0.2360  0.3066 -0.0411
  501TIP3    H122994   2.568   1.528  12.621  0.4164  1.3085 -0.3866
  501TIP3    H222995   2.658   1.537  12.742  0.4425  0.7100 -0.3564
  502TIP3   OH222996   3.472   3.974  12.972  0.1796  0.0706  0.0408
  502TIP3    H122997   3.387   3.929  12.964  0.0608  0.5656 -1.8302
  502TIP3    H222998   3.528   3.930  12.908  0.6294  1.2804 -0.4268
  503TIP3   OH222999   3.783   2.441  13.441  0.7082 -0.3295  0.3112
  503TIP3    H123000   3.705   2.401  13.479  0.8928  0.4782  1.5943
  503TIP3    H223001   3.793   2.398  13.356  1.1231 -3.2870  1.7354
  504TIP3   OH223002   1.916   2.158  11.144  0.1791  0.0951 -0.2904
  504TIP3    H123003   1.987   2.166  11.208  2.2076 -2.9142 -1.9164
  504TIP3    H223004   1.947   2.207  11.068  0.6865 -1.4392 -1.0997
  505TIP3   OH223005   3.868   2.726   1.609  0.1166 -0.0138  0.2137
  505TIP3    H123006   3.850   2.632   1.605  1.1828 -0.2094 -0.4967
  505TIP3    H223007   3.794   2.763   1.656 -0.8503 -1.0714 -0.4325
  506TIP3   OH223008   5.132   3.002   5.932 -0.2185  0.8271  0.1817
  506TIP3    H123009   5.057   3.055   5.956 -1.3951 -1.1195  1.0936
  506TIP3    H223010   5.153   2.953   6.012  0.9449  0.0993 -0.5365
  507TIP3   OH223011   5.863   3.359  12.276  0.3055  0.5626  0.1245
  507TIP3    H123012   5.806   3.424  12.318 -0.6639  1.0945 -1.8869
  507TIP3    H223013   5.952   3.387  12.298 -0.1407  1.1608  1.2689
  508TIP3   OH223014   6.320   5.902   5.818 -0.1170  0.0369 -0.3941
  508TIP3    H123015   6.404   5.936   5.850 -0.6220  1.5897 -0.6144
  508TIP3    H223016   6.313   5.816   5.859  0.7901  0.5838  1.0359
  509TIP3   OH223017   3.358   1.017   5.162  0.3387  0.1107  0.5933
  509TIP3    H123018   3.335   1.107   5.184 -0.0911 -0.4873  2.8502
  509TIP3    H223019   3.315   0.964   5.229  0.2004 -1.8363 -0.9305
  510TIP3   OH223020   0.697   4.108   2.107  0.7999  0.4784  0.2268
  510TIP3    H123021   0.667   4.057   2.183  0.9755  0.2510  0.1444
  510TIP3    H223022   0.616   4.139   2.067  0.5957 -1.0091 -0.5932
  511TIP3   OH223023   4.800   3.754  13.472 -0.0995  0.1036 -0.8803
  511TIP3    H123024   4.709   3.755  13.441 -0.9498  0.7155  1.4276
  511TIP3    H223025   4.812   3.665  13.506 -1.3814  1.1070  2.6899
  512TIP3   OH223026   6.815   6.722   4.993  0.0513 -0.4248 -0.1486
  512TIP3    H123027   6.757   6.672   5.051 -0.4593  0.2350 -0.0782
  512TIP3    H223028   6.892   6.740   5.047 -1.5501  2.6668  1.4448
  513TIP3   OH223029   1.540   0.541   5.043  0.1513  0.3613 -0.3876
  513TIP3    H123030   1.523   0.628   5.008 -0.5038  0.1191 -0.6888
  513TIP3    H223031   1.632   0.543   5.071 -0.1152  1.4222  0.4439
  514TIP3   OH223032   0.383   0.198  11.152 -0.1015 -0.4036 -0.7188
  514TIP3    H123033   0.471   0.208  11.188 -0.1024 -0.8913 -0.5694
  514TIP3    H223034   0.388   0.240  11.065 -0.4667  1.9712  0.3263
  515TIP3   OH223035   1.466   3.293   1.992 -0.5269 -0.4478  0.3367
  515TIP3    H123036   1.491   3.360   2.055 -1.0086 -0.1756  0.2477
  515TIP3    H223037   1.538   3.231   1.992  0.5497  0.7300 -0.5244
  516TIP3   OH223038   1.716   1.950   4.688 -0.0065  0.2179  0.4607
  516TIP3    H123039   1.811   1.966   4.691  0.0592  0.4516 -1.6370
  516TIP3    H223040   1.705   1.865   4.731  0.9009  1.0042  2.3829
  517TIP3   OH223041   0.314   6.499   5.866  0.1562 -0.2090 -0.5704
  517TIP3    H123042   0.222   6.479   5.849  0.1923  0.2970 -1.4432
  517TIP3    H223043   0.354   6.414   5.884 -0.5238 -0.4029  0.0372
  518TIP3   OH223044   1.579   6.338  14.455 -0.0101  0.3466 -0.2923
  518TIP3    H123045   1.557   6.410  14.514  1.3085 -1.2336  2.3106
  518TIP3    H223046   1.499   6.285  14.450 -0.1573  0.5407 -0.0001
  519TIP3   OH223047   0.076   6.048  12.233 -0.4420 -0.0450 -0.4716
  519TIP3    H123048   0.014   6.072  12.302  0.3986 -0.0306  0.3015
  519TIP3    H223049   0.030   6.066  12.151 -0.6361  2.2013  0.0723
  520TIP3   OH223050   6.040   2.898  12.975 -0.3518 -0.0054  0.1329
  520TIP3    H123051   6.066   2.936  12.891 -0.1639  0.2895  0.3219
  520TIP3    H223052   6.118   2.907  13.031  0.6547 -3.0630 -0.5837
  521TIP3   OH223053   1.271   4.182  14.065 -0.1235 -0.3241 -0.1239
  521TIP3    H123054   1.211   4.206  13.994 -1.3573  0.9681  1.2972
  521TIP3    H223055   1.356   4.216  14.037 -0.3047 -0.9817 -1.5509
  522TIP3   OH223056   4.940   1.855   5.976  0.1094 -0.1182 -0.1750
  522TIP3    H123057   5.018   1.857   5.920 -0.2664 -0.8777 -0.7579
  522TIP3    H223058   4.867   1.854   5.914 -0.3025 -2.6956  0.2129
  523TIP3   OH223059   2.267   6.177   0.895  0.1859 -0.1895 -0.7557
  523TIP3    H123060   2.181   6.202   0.929 -0.9819 -3.0164 -1.3483
  523TIP3    H223061   2.307   6.127   0.965 -0.1062 -1.7043 -1.6187
  524TIP3   OH223062   0.917   6.236   6.187  0.4483 -0.6353  0.3391
  524TIP3    H123063   0.873   6.309   6.144  1.3050  0.8127  1.7691
  524TIP3    H223064   0.862   6.160   6.169 -0.9895  0.5316 -0.4284
  525TIP3   OH223065   3.357   2.405   1.653 -0.0160  0.3378 -0.5325
  525TIP3    H123066   3.420   2.334   1.666 -1.1886 -1.1670 -2.5818
  525TIP3    H223067   3.409   2.479   1.623  0.7671 -1.1006 -2.9285
  526TIP3   OH223068   1.212   5.883  14.485  0.3529 -0.2226 -0.0098
  526TIP3    H123069   1.162   5.826  14.426 -0.9329  1.1394 -0.3300
  526TIP3    H223070   1.296   5.840  14.495  0.3816 -0.8661 -2.3237
  527TIP3   OH223071   0.620   1.380  16.538  0.1682  0.0260  0.1074
  527TIP3    H123072   0.639   1.428  16.619  1.0240 -0.9929  0.5311
  527TIP3    H223073   0.663   1.432  16.469 -2.0831  1.8873  0.0015
  528TIP3   OH223074   6.597   0.164   0.477 -0.6293 -0.0439 -0.1076
  528TIP3    H123075   6.644   0.097   0.528 -1.5285 -1.7746 -1.4497
  528TIP3    H223076   6.520   0.183   0.530 -0.6360 -0.4700  0.0455
  529TIP3   OH223077   6.557   4.331  16.717 -0.2525  0.4268 -0.0347
  529TIP3    H123078   6.511   4.391  16.658 -0.1817 -0.4955 -1.0766
  529TIP3    H223079   6.643   4.319  16.676  0.7689  1.7406  1.6309
  530TIP3   OH223080   4.724   0.160   4.659 -0.2278  0.8691  0.3931
  530TIP3    H123081   4.703   0.069   4.679 -0.0960  0.5534 -0.8094
  530TIP3    H223082   4.686   0.210   4.731 -1.2281 -0.0511  0.5282
  531TIP3   OH223083   0.765   4.786  11.755 -0.3798 -0.0968  0.5992
  531TIP3    H123084   0.846   4.784  11.705 -0.5590  0.3916  0.2785
  531TIP3    H223085   0.742   4.879  11.760 -1.5606 -0.3034 -0.3745
  532TIP3   OH223086   5.218   6.474  11.716 -0.1714  0.2165 -0.1416
  532TIP3    H123087   5.130   6.447  11.743 -0.2501  0.6233  0.0019
  532TIP3    H223088   5.203   6.534  11.643 -0.0102  0.2898 -0.1128
  533TIP3   OH223089   4.574   2.611   2.470  0.1696 -0.8369  0.2616
  533TIP3    H123090   4.480   2.593   2.473  0.1586 -0.6556  1.4870
  533TIP3    H223091   4.608   2.580   2.554  0.8916  0.7502  0.6095
  534TIP3   OH223092   4.503   4.596  17.130 -0.5951 -0.2911  0.2275
  534TIP3    H123093   4.452   4.521  17.159  2.0496 -1.4513  2.2856
  534TIP3    H223094   4.558   4.563  17.059 -0.9662  0.3254 -0.3681
  535TIP3   OH223095   0.022   0.463   6.187  0.3318  0.2280  0.6126
  535TIP3    H123096   0.079   0.534   6.219  0.7977 -0.0952  0.5098
  535TIP3    H223097  -0.067   0.494   6.204  0.5118  1.0982  0.0309
  536TIP3   OH223098   4.412   1.448   5.377  0.1029  0.0729  0.4556
  536TIP3    H123099   4.427   1.376   5.438 -0.5069  0.4928  1.1194
  536TIP3    H223100   4.469   1.518   5.410  0.5538 -0.0354 -0.0777
  537TIP3   OH223101   6.498   2.873  10.708 -0.0852 -0.0215 -0.3071
  537TIP3    H123102   6.494   2.921  10.625  0.7670  1.6600  0.5784
  537TIP3    H223103   6.493   2.781  10.682  0.9346  0.4122 -2.2897
  538TIP3   OH223104   5.637   6.611  16.107 -0.7074 -0.2954 -0.1836
  538TIP3    H123105   5.584   6.673  16.057  0.6470  1.7082  0.7141
  538TIP3    H223106   5.591   6.601  16.190  0.0531  1.1424  0.4467
  539TIP3   OH223107   5.287   1.669  15.291  0.3819  0.4051  0.1501
  539TIP3    H123108   5.234   1.592  15.311 -0.0115  0.6369  0.0187
  539TIP3    H223109   5.309   1.660  15.199  0.5023  0.3516  0.1839
  540TIP3   OH223110   3.288   5.921   3.233 -0.4298 -0.1825  0.1485
  540TIP3    H123111   3.297   5.981   3.306  3.0665 -2.1042  1.5193
  540TIP3    H223112   3.355   5.948   3.170 -0.0751 -1.4743 -0.0592
  541TIP3   OH223113   2.302   0.969   5.808 -0.2623 -0.3169  0.0430
  541TIP3    H123114   2.233   0.927   5.757 -0.3121  0.7562 -0.8047
  541TIP3    H223115   2.327   0.903   5.873 -0.6993 -1.4565 -0.9050
  542TIP3   OH223116   6.558   1.115  17.149  0.2327  0.5059  0.0359
  542TIP3    H123117   6.560   1.062  17.229  2.6355  2.2641  1.2756
  542TIP3    H223118   6.479   1.168  17.158  2.0817  3.1555  3.1742
  543TIP3   OH223119   1.464   0.423   0.561  0.8933 -0.0860 -0.3669
  543TIP3    H123120   1.533   0.400   0.624 -0.3365 -2.0829  0.3529
  543TIP3    H223121   1.482   0.370   0.484  1.4365  1.1221 -1.1115
  544TIP3   OH223122   1.831   0.718   3.675  0.0735 -0.6426  0.1953
  544TIP3    H123123   1.924   0.696   3.683  0.5708  1.0503 -0.4315
  544TIP3    H223124   1.825   0.761   3.589 -0.8590  1.1627  1.1258
  545TIP3   OH223125   5.268   2.677  10.796 -0.3331 -0.7516 -0.0880
  545TIP3    H123126   5.289   2.584  10.804  0.3803 -0.5063  0.9524
  545TIP3    H223127   5.335   2.712  10.738 -0.0002 -0.6899  0.3309
  546TIP3   OH223128   0.152   2.225  15.568  0.1339  0.5073  0.1707
  546TIP3    H123129   0.072   2.224  15.621  0.4708 -0.5088  0.6974
  546TIP3    H223130   0.139   2.156  15.504  0.1844  1.0142 -0.3948
  547TIP3   OH223131   0.195   1.351   3.807 -0.0909  0.5190 -0.0681
  547TIP3    H123132   0.105   1.375   3.784 -0.6349 -1.3608 -0.0995
  547TIP3    H223133   0.239   1.341   3.722  0.0029  0.9108 -0.0671
  548TIP3   OH223134   5.801   0.528   6.334 -0.5822 -0.3927  0.0492
  548TIP3    H123135   5.795   0.620   6.358 -1.4218 -0.5778  0.6136
  548TIP3    H223136   5.895   0.511   6.325 -0.4212  0.4929  0.0302
  549TIP3   OH223137   1.196   2.399  16.922  0.8538 -0.0351  0.0146
  549TIP3    H123138   1.253   2.433  16.852  0.4697  0.0676 -0.2498
  549TIP3    H223139   1.221   2.448  17.000  1.6052 -0.4679  0.0615
  550TIP3   OH223140   6.328   5.602   4.562 -0.0914  0.3308 -0.2469
  550TIP3    H123141   6.407   5.583   4.512 -0.0834  0.2856 -0.2167
  550TIP3    H223142   6.295   5.516   4.589 -1.7114  0.1056 -2.6330
  551TIP3   OH223143   4.490   1.062  11.551 -0.3944 -0.3237 -0.2393
  551TIP3    H123144   4.433   1.064  11.629 -1.6445 -0.0462 -1.1235
  551TIP3    H223145   4.478   0.974  11.515  0.3557 -0.5256  0.0050
  552TIP3   OH223146   1.966   5.669   4.542  0.2671  0.0447 -0.1583
  552TIP3    H123147   2.046   5.618   4.557  0.4183  0.4682  0.5374
  552TIP3    H223148   1.985   5.755   4.579  0.0305  0.6341 -1.3531
  553TIP3   OH223149   4.582   3.578  11.567 -0.1783 -0.2336 -0.1008
  553TIP3    H123150   4.642   3.512  11.602 -1.3958  0.3725  3.5957
  553TIP3    H223151   4.636   3.656  11.554  0.3745 -0.5358  0.3574
  554TIP3   OH223152   5.183   3.801   4.585  0.4364  0.7512 -0.1070
  554TIP3    H123153   5.161   3.894   4.590 -1.5941  0.5155 -2.7638
  554TIP3    H223154   5.249   3.795   4.516 -0.4831  0.1334 -0.9697
  555TIP3   OH223155   3.921   6.823  14.592 -0.3387  0.4959 -0.0445
  555TIP3    H123156   3.993   6.883  14.570 -0.6377  1.3477  1.1848
  555TIP3    H223157   3.896   6.784  14.508  2.6264 -1.0973 -0.3218
  556TIP3   OH223158   1.437   4.814   3.701 -0.2949 -0.0057  0.1480
  556TIP3    H123159   1.462   4.906   3.693  0.8617 -0.2749  0.4476
  556TIP3    H223160   1.397   4.807   3.788 -1.9488  0.5351 -0.5377
  557TIP3   OH223161   4.396   6.698   0.002  0.8716  0.0819 -0.1605
  557TIP3    H123162   4.445   6.714  -0.078 -0.2174  0.4715 -0.7647
  557TIP3    H223163   4.313   6.744  -0.010  0.3548 -0.5314  0.8499
  558TIP3   OH223164   5.224   1.266   4.523  0.2692 -0.0732  0.2228
  558TIP3    H123165   5.147   1.209   4.530  0.7224 -0.7083  0.1200
  558TIP3    H223166   5.283   1.220   4.463  0.6956  0.4482  0.2308
  559TIP3   OH223167   1.014   0.466   2.662  0.2015 -0.5070 -0.1460
  559TIP3    H123168   1.107   0.488   2.668 -0.2958  1.3768  1.9752
  559TIP3    H223169   0.987   0.446   2.751 -1.6453  0.1114 -0.5044
  560TIP3   OH223170   1.399   4.317   1.772  0.1176  0.3550  0.8357
  560TIP3    H123171   1.345   4.391   1.745 -0.2976 -0.3545 -0.3727
  560TIP3    H223172   1.377   4.248   1.709  1.6494 -0.2885  0.9747
  561TIP3   OH223173   3.262   6.407  11.895  0.8392  0.2734 -0.4860
  561TIP3    H123174   3.252   6.314  11.873 -0.5747  0.1789  0.3908
  561TIP3    H223175   3.206   6.452  11.831 -2.3451  0.0873  1.9332
  562TIP3   OH223176   0.754   1.936  10.502 -0.8456  0.1988  0.3699
  562TIP3    H123177   0.844   1.965  10.514 -0.3431 -1.5991  1.3286
  562TIP3    H223178   0.707   1.973  10.577 -0.8737  0.9359 -0.0001
  563TIP3   OH223179   0.120   3.377   3.987 -0.0089  0.3191 -0.3917
  563TIP3    H123180   0.132   3.374   3.892  0.7617 -1.1590 -0.2818
  563TIP3    H223181   0.030   3.406   3.999 -0.0417  0.7639 -1.5617
  564TIP3   OH223182   6.679   0.633   6.338 -0.0074  0.0786 -0.4461
  564TIP3    H123183   6.589   0.601   6.349  0.0919 -0.8296 -1.9981
  564TIP3    H223184   6.714   0.636   6.427 -0.8951 -1.5798  0.0137
  565TIP3   OH223185   1.450   5.592  15.216  0.4442 -0.0930 -0.1366
  565TIP3    H123186   1.373   5.620  15.266  1.0603  1.1835  0.1429
  565TIP3    H223187   1.413   5.551  15.137 -0.6778  3.6054 -1.7795
  566TIP3   OH223188   6.266   2.174  11.418  0.3119  0.0539  0.1032
  566TIP3    H123189   6.249   2.244  11.356  3.9639 -0.0266 -1.2274
  566TIP3    H223190   6.310   2.216  11.491 -1.1685 -0.3255  1.2610
  567TIP3   OH223191   0.160   6.495   4.471  0.2309 -0.2014 -0.5569
  567TIP3    H123192   0.074   6.526   4.441  0.6377  0.1813 -1.3667
  567TIP3    H223193   0.154   6.496   4.566 -0.4048  0.5853 -0.5907
  568TIP3   OH223194   5.023   4.250   5.726  0.4519 -0.2831 -0.5393
  568TIP3    H123195   4.983   4.269   5.810 -1.3654 -2.9942 -0.6639
  568TIP3    H223196   5.113   4.224   5.747  0.8123  1.4239  0.2260
  569TIP3   OH223197   2.652   5.347  12.553  0.2034 -0.0266  0.1134
  569TIP3    H123198   2.586   5.409  12.584  1.8673  2.9993 -1.8294
  569TIP3    H223199   2.684   5.385  12.471  2.7089 -2.5313 -0.2249
  570TIP3   OH223200   5.358   6.402  12.563  0.1140  0.2973  0.5427
  570TIP3    H123201   5.396   6.360  12.486 -0.2758  0.4878  0.2470
  570TIP3    H223202   5.272   6.362  12.573 -0.3847  1.2330  0.0799
  571TIP3   OH223203   3.958   0.002  12.172 -0.0249 -0.0754 -0.3882
  571TIP3    H123204   4.036   0.016  12.120 -0.1210  1.2047 -0.2164
  571TIP3    H223205   3.970   0.057  12.249 -1.2233  0.3924 -0.5123
  572TIP3   OH223206   4.664   2.349   4.932 -0.3741 -0.2089  0.0951
  572TIP3    H123207   4.743   2.399   4.911  0.8107 -1.7119  0.7473
  572TIP3    H223208   4.643   2.373   5.022  0.9067 -1.6676  0.8443
  573TIP3   OH223209   0.361   0.843  16.426  0.0091 -0.5010  0.3305
  573TIP3    H123210   0.434   0.877  16.374  0.3401 -0.9942  0.4669
  573TIP3    H223211   0.325   0.771  16.374  0.7386 -1.4094  1.0543
  574TIP3   OH223212   3.487   6.347  16.417  0.2539  0.0329 -0.2145
  574TIP3    H123213   3.528   6.272  16.459  1.0084  1.0318  0.9010
  574TIP3    H223214   3.491   6.327  16.323  1.3847 -0.8457 -0.0032
  575TIP3   OH223215   2.637   0.632  14.031  0.4265  0.1105 -0.1741
  575TIP3    H123216   2.711   0.646  13.972  0.3887 -1.5426 -0.6739
  575TIP3    H223217   2.643   0.539  14.054 -0.3609  0.4127  1.3507
  576TIP3   OH223218   0.593   0.593   2.702 -0.3374  0.0482 -0.3932
  576TIP3    H123219   0.670   0.621   2.653  0.5192  1.0162  1.4479
  576TIP3    H223220   0.532   0.667   2.696 -0.7048 -0.2843 -0.9167
  577TIP3   OH223221   1.590   3.738  15.259  0.1530  0.2747  0.2252
  577TIP3    H123222   1.588   3.820  15.210  0.5022 -0.1156 -0.4514
  577TIP3    H223223   1.612   3.671  15.194  0.8867 -0.2133  0.9630
  578TIP3   OH223224   3.695   4.357   4.185 -0.3338  0.5191  0.5668
  578TIP3    H123225   3.768   4.309   4.146 -1.1301 -0.2796  0.0259
  578TIP3    H223226   3.646   4.391   4.110 -0.5494  1.0171  0.9249
  579TIP3   OH223227   1.183   4.241   2.913 -0.4246 -0.0683  0.0279
  579TIP3    H123228   1.151   4.246   3.003 -1.2456 -0.1996 -0.2452
  579TIP3    H223229   1.115   4.193   2.866  0.1147 -0.2285 -0.6113
  580TIP3   OH223230   2.443   0.041  12.616  0.0155  0.0208  0.1997
  580TIP3    H123231   2.402  -0.045  12.629 -1.4903  0.8061  0.9888
  580TIP3    H223232   2.532   0.031  12.649 -0.2889 -1.1110  0.7206
  581TIP3   OH223233   1.170   6.215   6.137 -0.0863  0.7180  0.8057
  581TIP3    H123234   1.083   6.207   6.175 -1.1516 -1.0010 -1.7446
  581TIP3    H223235   1.215   6.134   6.162  1.4003  2.1673  3.2658
  582TIP3   OH223236   6.117   2.778   2.154  0.0916 -0.4413 -0.0910
  582TIP3    H123237   6.090   2.701   2.204 -1.2875  0.2096  0.2161
  582TIP3    H223238   6.136   2.845   2.220 -1.9256  0.4867 -0.3706
  583TIP3   OH223239   2.247   0.855  14.623  0.4091  0.2015  0.7983
  583TIP3    H123240   2.173   0.834  14.680  0.4830 -1.8441  0.2346
  583TIP3    H223241   2.316   0.795  14.651  0.9110  0.1544 -0.4738
  584TIP3   OH223242   0.790   2.277  13.163  0.2074  0.4527 -0.3130
  584TIP3    H123243   0.842   2.332  13.221  0.7275  0.8143 -1.1057
  584TIP3    H223244   0.828   2.290  13.077 -0.5174 -0.1190 -0.7338
  585TIP3   OH223245   3.118   0.490  16.526  0.0770  0.1477  0.0497
  585TIP3    H123246   3.055   0.444  16.580 -1.9939  2.0082 -0.6457
  585TIP3    H223247   3.110   0.450  16.439 -1.3050  1.3550 -0.4129
  586TIP3   OH223248   6.705   0.074  16.988  0.2799  0.1621  0.1414
  586TIP3    H123249   6.790   0.117  16.997  0.6574 -0.5879  0.2045
  586TIP3    H223250   6.686   0.079  16.895  0.2316  0.6219  0.1702
  587TIP3   OH223251   2.663   6.335   0.119 -0.6253  0.3337 -0.4550
  587TIP3    H123252   2.649   6.353   0.212  1.3522 -0.3222  0.0068
  587TIP3    H223253   2.678   6.421   0.080 -1.3946  0.6048 -0.1889
  588TIP3   OH223254   0.263   5.076   3.032  0.6376  0.5324 -0.1078
  588TIP3    H123255   0.259   4.982   3.047  0.5431  0.4393 -0.6936
  588TIP3    H223256   0.173   5.106   3.048  0.1349  0.1864 -1.9881
  589TIP3   OH223257   1.546   3.621  15.505 -0.2538  0.4289 -0.0264
  589TIP3    H123258   1.567   3.657  15.419  0.1634 -2.1971 -1.1042
  589TIP3    H223259   1.458   3.585  15.495  0.1940 -0.7934  0.3199
  590TIP3   OH223260   4.264   0.681   4.125  0.5110  0.6123 -0.2944
  590TIP3    H123261   4.286   0.744   4.193 -0.7512 -1.1158  1.8258
  590TIP3    H223262   4.339   0.622   4.122 -0.1208 -0.2916  0.8617
  591TIP3   OH223263   6.701   2.141   3.757  0.3770  0.8150 -0.2348
  591TIP3    H123264   6.775   2.129   3.697  0.9830  2.1093  0.2084
  591TIP3    H223265   6.729   2.101   3.839  1.0788  2.2805  0.2727
  592TIP3   OH223266   4.896   0.530   0.873 -0.1081  0.1176 -0.1184
  592TIP3    H123267   4.831   0.588   0.833 -1.6287 -0.7447  1.0361
  592TIP3    H223268   4.905   0.562   0.963  0.2842 -0.4398  0.0467
  593TIP3   OH223269   4.684   5.176  11.263  0.0249 -0.1527 -0.0819
  593TIP3    H123270   4.680   5.175  11.167  4.0885  0.1818 -0.4193
  593TIP3    H223271   4.699   5.085  11.288 -1.4500 -0.3056  0.3231
  594TIP3   OH223272   4.204   1.773  11.481  1.0675  0.4358  0.4189
  594TIP3    H123273   4.112   1.780  11.455  1.5812  0.4192 -1.5974
  594TIP3    H223274   4.211   1.824  11.561 -0.3863  1.7373 -0.2347
  595TIP3   OH223275   5.015   3.547  11.127  0.4261  0.2022  0.6027
  595TIP3    H123276   5.001   3.634  11.166 -1.3015 -0.6833  2.1523
  595TIP3    H223277   5.013   3.563  11.033 -0.2409  1.8028  0.8462
  596TIP3   OH223278   0.667   3.067  13.541  0.0033 -0.0299  0.2583
  596TIP3    H123279   0.577   3.037  13.530 -0.0816  0.6913 -1.1351
  596TIP3    H223280   0.718   2.986  13.549 -0.6295 -0.4686 -0.0974
  597TIP3   OH223281   3.992   4.645   1.233 -0.0517  0.1991  0.4458
  597TIP3    H123282   3.916   4.589   1.216  1.8131 -1.6959 -2.6287
  597TIP3    H223283   4.048   4.591   1.289 -0.0080  0.7001  0.8890
  598TIP3   OH223284   0.372   5.267  14.974 -0.1386  0.1288  0.0103
  598TIP3    H123285   0.380   5.363  14.972 -0.2162  0.1165 -1.5002
  598TIP3    H223286   0.371   5.241  14.882 -0.8100 -1.2760  0.3969
  599TIP3   OH223287   6.047   5.438   3.649  0.3032 -0.6574 -0.0310
  599TIP3    H123288   5.967   5.471   3.608 -0.0811 -1.0668  0.3940
  599TIP3    H223289   6.110   5.509   3.638 -0.2966 -0.0872  0.1811
  600TIP3   OH223290   6.244   4.530   2.686 -0.2206 -0.3196  0.4527
  600TIP3    H123291   6.160   4.540   2.732 -0.7326 -2.6976  0.1621
  600TIP3    H223292   6.290   4.462   2.735  1.0775  0.1556 -0.0654
  601TIP3   OH223293   4.805   3.396  11.627 -0.1991  0.0677 -0.1607
  601TIP3    H123294   4.897   3.370  11.619  0.0510 -0.0202  2.1892
  601TIP3    H223295   4.756   3.327  11.583  0.8559  0.4767 -2.0761
  602TIP3   OH223296   4.992   5.928  12.026  0.4582  0.1828  0.2449
  602TIP3    H123297   4.954   5.885  11.950 -0.0739 -1.2257  1.2674
  602TIP3    H223298   5.078   5.888  12.037  0.8489  0.9233 -0.0482
  603TIP3   OH223299   4.797   2.844   3.739  0.1543  0.2871 -0.1177
  603TIP3    H123300   4.737   2.771   3.757  0.1342  0.0929 -0.9480
  603TIP3    H223301   4.878   2.820   3.784  0.4057 -0.6375 -1.0178
  604TIP3   OH223302   5.264   6.006  16.391 -0.1014 -0.8861  0.1892
  604TIP3    H123303   5.327   5.944  16.428  0.0618 -1.4131 -0.9422
  604TIP3    H223304   5.225   5.960  16.318  1.9226  1.1789 -2.4114
  605TIP3   OH223305   6.284   5.209  13.323  0.2000  0.5485 -0.1033
  605TIP3    H123306   6.260   5.120  13.350  2.3527  0.9650  3.9537
  605TIP3    H223307   6.282   5.207  13.227  0.5357 -3.9469 -0.2047
  606TIP3   OH223308   4.748   0.342   1.408  0.1207  0.2439  0.1402
  606TIP3    H123309   4.694   0.266   1.387  0.4850  0.3820 -1.4324
  606TIP3    H223310   4.831   0.306   1.438  0.7463 -0.0212 -1.8136
  607TIP3   OH223311   2.266   2.312  17.070 -0.0035 -0.0896 -0.5319
  607TIP3    H123312   2.313   2.251  17.014 -1.8562 -1.2341 -0.9181
  607TIP3    H223313   2.173   2.290  17.058 -0.6292  1.6688  0.6403
  608TIP3   OH223314   0.395   5.647   0.320  0.5898 -0.4266 -0.3054
  608TIP3    H123315   0.413   5.684   0.233 -0.7092 -0.5312 -0.6426
  608TIP3    H223316   0.320   5.589   0.306  0.9103 -1.1270  0.7304
  609TIP3   OH223317   1.194   0.995  11.757  0.5470  0.1922 -0.2366
  609TIP3    H123318   1.263   0.929  11.762 -1.0521 -1.7222 -1.6048
  609TIP3    H223319   1.121   0.958  11.807 -0.5711  0.6237 -1.4723
  610TIP3   OH223320   5.026   1.832  17.120  0.6917  0.0887 -0.0684
  610TIP3    H123321   5.051   1.808  17.031  1.7820  1.2634 -0.1211
  610TIP3    H223322   5.033   1.751  17.171 -0.3444 -0.6835 -1.1058
  611TIP3   OH223323   5.913   1.222  16.751  0.1749 -0.3641  0.1760
  611TIP3    H123324   5.887   1.235  16.842  0.1061 -0.8108  0.2244
  611TIP3    H223325   5.877   1.297  16.704  0.0775 -0.2125  0.4900
  612TIP3   OH223326   3.000   0.369   5.763 -0.4729 -0.1729 -0.1512
  612TIP3    H123327   3.006   0.334   5.852  1.6689 -1.1398 -0.5837
  612TIP3    H223328   2.943   0.308   5.717 -1.2783  0.1125  0.4541
  613TIP3   OH223329   1.664   1.242  17.140  0.8236 -0.3584 -0.0587
  613TIP3    H123330   1.575   1.245  17.106  0.7037 -3.0079 -0.1476
  613TIP3    H223331   1.697   1.331  17.128 -0.7352 -0.0511 -2.9713
  614TIP3   OH223332   6.205   3.981   4.333  0.0928  0.2471 -0.1008
  614TIP3    H123333   6.217   3.935   4.416  0.5628 -1.3257 -0.9957
  614TIP3    H223334   6.110   3.994   4.326 -0.1114 -1.1230 -0.0893
  615TIP3   OH223335   5.093   0.465  13.461  0.2754 -0.5066 -0.3572
  615TIP3    H123336   5.120   0.407  13.532 -1.1923 -1.1133 -0.2731
  615TIP3    H223337   5.164   0.456  13.396  1.3068 -0.4355  0.7271
  616TIP3   OH223338   1.168   2.933  11.767  0.5118 -0.7933 -0.2215
  616TIP3    H123339   1.114   2.977  11.701  0.6857 -0.8348 -0.3912
  616TIP3    H223340   1.106   2.910  11.836  0.2955 -0.9183 -0.4550
  617TIP3   OH223341   1.743   1.733   1.555  0.2816  0.2655  0.1319
  617TIP3    H123342   1.683   1.664   1.581 -0.1497  1.1652  1.6581
  617TIP3    H223343   1.820   1.720   1.612  1.1703 -0.2990 -1.1417
  618TIP3   OH223344   2.292   3.809  12.510  0.4045 -0.1194 -0.5492
  618TIP3    H123345   2.234   3.821  12.585  0.1016  0.2370 -0.8367
  618TIP3    H223346   2.371   3.859  12.533 -0.1101  0.9018 -0.9241
  619TIP3   OH223347   3.191   4.822  14.954  0.1855  0.8819 -0.3385
  619TIP3    H123348   3.162   4.913  14.966  0.8991  1.2515 -1.3118
  619TIP3    H223349   3.265   4.812  15.014  0.6467  1.2158 -0.8421
  620TIP3   OH223350   5.583   3.780  15.675 -0.3729 -0.3471 -0.1792
  620TIP3    H123351   5.562   3.809  15.763 -1.1428  1.0526 -0.7914
  620TIP3    H223352   5.580   3.684  15.679 -3.4863 -0.3176  0.6172
  621TIP3   OH223353   4.039   4.542   4.015  0.2807  0.5737 -0.3769
  621TIP3    H123354   4.069   4.526   3.925  1.1553  0.9554 -0.1618
  621TIP3    H223355   4.120   4.554   4.065 -0.1028 -1.4311  0.8313
  622TIP3   OH223356   6.015   6.396   6.284  0.5496 -0.4703 -0.2523
  622TIP3    H123357   5.977   6.373   6.200 -0.3942  1.2999 -0.3572
  622TIP3    H223358   5.949   6.370   6.348  0.1267  0.5247 -0.2682
  623TIP3   OH223359   3.301   1.571  15.121  0.4600 -0.1984  0.1626
  623TIP3    H123360   3.347   1.653  15.103 -0.7150  0.4819  0.1397
  623TIP3    H223361   3.236   1.594  15.188 -1.9670 -0.3384 -1.9811
  624TIP3   OH223362   2.884   1.846  17.135 -0.4426  0.7522 -0.3935
  624TIP3    H123363   2.837   1.823  17.215  1.1286 -3.0906 -0.3317
  624TIP3    H223364   2.974   1.864  17.163 -0.4529  2.0286 -1.0824
  625TIP3   OH223365   0.810   6.706   0.195  0.4240  0.1787  0.0779
  625TIP3    H123366   0.842   6.630   0.244  1.6375  0.1987 -0.6375
  625TIP3    H223367   0.782   6.768   0.262  0.9666 -0.2540  0.7202
  626TIP3   OH223368   6.426   4.992   0.120  0.0753  0.1658  0.2906
  626TIP3    H123369   6.409   4.974   0.213 -0.8300 -0.6250 -0.0013
  626TIP3    H223370   6.495   4.930   0.096 -1.1433 -1.1313 -0.0425
  627TIP3   OH223371   5.885   5.544  11.347  0.5006 -0.5341 -0.2192
  627TIP3    H123372   5.903   5.473  11.410 -1.4325  0.7655  1.9678
  627TIP3    H223373   5.956   5.606  11.361  0.3547 -0.4868  0.3560
  628TIP3   OH223374   2.530   1.053   5.575 -0.7657  0.6452  0.8846
  628TIP3    H123375   2.513   0.989   5.505  1.8316 -0.8242  1.4756
  628TIP3    H223376   2.448   1.058   5.624 -0.7995 -3.1495  1.4779
  629TIP3   OH223377   6.072   0.651   4.852 -0.6424  0.0048 -0.0707
  629TIP3    H123378   6.042   0.570   4.895 -0.9431  0.0495 -0.1935
  629TIP3    H223379   6.052   0.638   4.760 -0.4887  0.1317 -0.1225
  630TIP3   OH223380   0.260   4.869   0.292 -0.1102 -0.3885 -0.5286
  630TIP3    H123381   0.166   4.870   0.276 -0.2439  2.3486  0.0263
  630TIP3    H223382   0.269   4.851   0.385 -0.3215  2.3364  0.0972
  631TIP3   OH223383   5.671   0.334   1.905  0.3112  0.9114 -0.2779
  631TIP3    H123384   5.720   0.416   1.917  0.7036  0.8805 -1.5421
  631TIP3    H223385   5.598   0.341   1.967  0.7972  1.8564  0.2117
  632TIP3   OH223386   2.638   6.253  14.576  0.3483 -0.0852 -0.7895
  632TIP3    H123387   2.607   6.315  14.642  0.4931 -1.3219  0.4813
  632TIP3    H223388   2.592   6.171  14.595 -0.8080 -0.1002 -3.2245
  633TIP3   OH223389   3.178   3.461   3.348  0.0080 -0.2154  0.0102
  633TIP3    H123390   3.148   3.398   3.282 -0.4147 -1.3732  1.2593
  633TIP3    H223391   3.240   3.412   3.402  0.6387  0.8203  0.2449
  634TIP3   OH223392   3.065   5.734   0.526 -0.3231  0.2768  0.0228
  634TIP3    H123393   3.045   5.706   0.615 -0.6299 -0.7698 -0.3577
  634TIP3    H223394   2.981   5.762   0.490 -0.1897  0.7501  0.0683
  635TIP3   OH223395   2.964   0.342  11.379 -0.2198 -0.2910  0.0953
  635TIP3    H123396   2.951   0.264  11.433  2.4251 -1.9986 -1.4401
  635TIP3    H223397   2.881   0.354  11.333 -0.8847 -1.8840  0.8171
  636TIP3   OH223398   5.602   0.656  11.659 -0.0705 -0.0811  0.0838
  636TIP3    H123399   5.592   0.680  11.567  0.1772  3.2116  0.8272
  636TIP3    H223400   5.535   0.706  11.705  1.1770  0.0048  1.9181
  637TIP3   OH223401   2.235   4.643   2.029 -0.0773 -0.0148  0.3487
  637TIP3    H123402   2.228   4.556   1.989 -1.7460 -0.2556  1.0989
  637TIP3    H223403   2.316   4.640   2.079  0.5890 -0.6604 -0.7319
  638TIP3   OH223404   2.300   4.777   4.083 -0.4710  0.1367  0.2743
  638TIP3    H123405   2.254   4.855   4.051  1.7442  1.2873 -0.3412
  638TIP3    H223406   2.379   4.812   4.126 -0.2530 -1.7095  1.4826
  639TIP3   OH223407   2.333   5.122  10.798 -0.2587  0.6006 -0.0473
  639TIP3    H123408   2.249   5.146  10.760 -1.7840 -0.1371  2.6314
  639TIP3    H223409   2.381   5.205  10.805 -2.7132  1.9579  2.7603
  640TIP3   OH223410   0.617   3.241  17.093 -0.5682 -0.1001  0.3266
  640TIP3    H123411   0.542   3.288  17.129 -1.2026  0.1687 -1.2465
  640TIP3    H223412   0.684   3.308  17.080  0.3110 -0.4707  2.5005
  641TIP3   OH223413   5.934   4.628  13.544  0.7922 -0.3223  0.0299
  641TIP3    H123414   6.000   4.672  13.598  0.4913 -1.9568  1.8622
  641TIP3    H223415   5.985   4.574  13.483  1.1332  0.9969 -0.8971
  642TIP3   OH223416   3.299   6.623  14.797  0.4728 -0.1088 -0.0057
  642TIP3    H123417   3.388   6.658  14.792 -0.0810  1.4550  0.7479
  642TIP3    H223418   3.251   6.667  14.727 -0.1657  0.4487  0.7697
  643TIP3   OH223419   5.030   5.091  17.150  0.8552 -0.4768 -0.1990
  643TIP3    H123420   5.117   5.082  17.111  1.7109 -0.0046  1.5297
  643TIP3    H223421   5.041   5.064  17.241 -0.9100 -0.8143 -0.0477
  644TIP3   OH223422   5.990   1.856  16.205  0.6682  0.3966 -0.0366
  644TIP3    H123423   5.898   1.830  16.215 -0.4896  2.9376 -2.7920
  644TIP3    H223424   6.002   1.926  16.269  0.9599 -0.3794  0.7899
  645TIP3   OH223425   6.487   5.765   1.072  0.4602 -0.2574  0.4189
  645TIP3    H123426   6.404   5.770   1.023  0.8635  0.5928 -0.2041
  645TIP3    H223427   6.463   5.725   1.155 -0.3529 -1.2362 -0.2484
  646TIP3   OH223428   1.157   5.859  15.757 -0.0718 -0.3541 -0.1314
  646TIP3    H123429   1.233   5.901  15.716  0.0685 -0.5429 -0.0706
  646TIP3    H223430   1.122   5.801  15.689  2.5509 -3.7764  1.1417
  647TIP3   OH223431   3.512   5.038   4.306  0.5032 -0.4892  0.3620
  647TIP3    H123432   3.550   5.102   4.247  0.0151 -1.4423 -1.0551
  647TIP3    H223433   3.512   5.080   4.392  0.6705  1.1765 -0.4253
  648TIP3   OH223434   3.612   3.071  14.156  0.8342  0.0778 -0.3343
  648TIP3    H123435   3.576   3.008  14.217  1.0036  1.9224  1.8092
  648TIP3    H223436   3.671   3.021  14.100  1.1628 -1.5890  1.4426
  649TIP3   OH223437   4.992   1.819   0.195 -0.4732 -0.1996 -0.3494
  649TIP3    H123438   5.085   1.834   0.214 -0.4139 -0.4465 -0.4491
  649TIP3    H223439   4.983   1.724   0.191 -0.6371 -0.1655 -0.8262
  650TIP3   OH223440   6.755   3.634  17.058  0.4242  0.4292 -0.0421
  650TIP3    H123441   6.828   3.642  16.997 -0.8479  0.3426 -1.6465
  650TIP3    H223442   6.719   3.723  17.063  0.1402  0.3090  0.0735
  651TIP3   OH223443   3.919   6.388  13.789 -0.1373 -0.2572  0.1472
  651TIP3    H123444   3.950   6.450  13.856  0.8623  0.1688 -0.6778
  651TIP3    H223445   3.847   6.434  13.745  0.1071  0.0235  0.0342
  652TIP3   OH223446   0.035   5.894  13.994 -0.3931  0.3940  0.7717
  652TIP3    H123447  -0.023   5.836  14.042  0.0976 -0.8725 -0.1191
  652TIP3    H223448   0.077   5.838  13.929  1.8599  1.2655  1.4016
  653TIP3   OH223449   3.504   4.484   5.177  0.6263 -0.3662 -0.4789
  653TIP3    H123450   3.573   4.538   5.214  0.3599 -1.1012  1.1656
  653TIP3    H223451   3.435   4.545   5.154  0.2364  0.0043  1.5568
  654TIP3   OH223452   0.928   1.534  11.441 -0.3404  0.0996 -0.6792
  654TIP3    H123453   1.002   1.562  11.495 -0.1259 -0.3559 -0.7348
  654TIP3    H223454   0.963   1.531  11.352 -1.1339  2.5570 -1.1561
  655TIP3   OH223455   0.613   5.398   5.953  0.0737  0.0248 -0.0827
  655TIP3    H123456   0.670   5.472   5.931  0.4329 -0.5301 -1.1119
  655TIP3    H223457   0.640   5.329   5.892  0.9062 -1.5371  1.9666
  656TIP3   OH223458   4.480   5.947  14.845 -0.1036 -0.8306 -0.3462
  656TIP3    H123459   4.552   5.951  14.781 -0.8699  0.0065 -1.1856
  656TIP3    H223460   4.520   5.980  14.926  0.1758  0.7989 -1.1056
  657TIP3   OH223461   3.565   1.268   1.057 -0.0632 -0.2612 -0.5830
  657TIP3    H123462   3.515   1.285   0.977 -0.7119 -0.9993 -0.3537
  657TIP3    H223463   3.536   1.181   1.085 -0.8908  0.5394  1.2080
  658TIP3   OH223464   4.042   4.048   4.235  0.3438  0.1314 -0.4243
  658TIP3    H123465   4.102   4.036   4.309 -0.2108 -0.6663 -0.0865
  658TIP3    H223466   3.967   4.093   4.273 -0.2575 -0.9195 -0.3225
  659TIP3   OH223467   4.043   2.011   1.407  0.2367 -0.3598 -0.3103
  659TIP3    H123468   4.009   1.925   1.383  0.1913 -0.3622 -0.2380
  659TIP3    H223469   4.138   2.002   1.399  0.2009 -0.1898 -1.0671
  660TIP3   OH223470   1.880   5.856   1.219 -0.0065  0.0578  0.2575
  660TIP3    H123471   1.818   5.929   1.212 -0.4087 -0.4436 -1.8688
  660TIP3    H223472   1.941   5.884   1.288 -1.7182  1.1870  1.4017
  661TIP3   OH223473   5.819   0.460   5.710  0.2907  0.3264  0.4032
  661TIP3    H123474   5.866   0.464   5.627 -0.4806 -0.1371 -0.0539
  661TIP3    H223475   5.821   0.551   5.742  0.4750  0.5302 -0.1725
  662TIP3   OH223476   2.624   0.379   1.523 -0.1118  0.7295  0.0031
  662TIP3    H123477   2.657   0.314   1.461 -0.2410 -0.4557  1.1291
  662TIP3    H223478   2.695   0.389   1.587 -1.2507 -0.6744  1.5697
  663TIP3   OH223479   2.528   0.664   4.618 -0.7382 -0.3315  0.2914
  663TIP3    H123480   2.613   0.688   4.581 -1.2370 -0.3877 -0.9235
  663TIP3    H223481   2.545   0.586   4.671  0.4027  1.0410  2.0934
  664TIP3   OH223482   2.530   2.942  15.933  0.1642  0.0092  0.1585
  664TIP3    H123483   2.442   2.937  15.972  1.0140  1.2429  2.4331
  664TIP3    H223484   2.577   2.867  15.971  0.3890 -0.0697 -0.2734
  665TIP3   OH223485   2.540   4.391   4.899 -0.4076  1.0546 -0.8514
  665TIP3    H123486   2.490   4.388   4.980  0.2954  0.0227 -0.4365
  665TIP3    H223487   2.477   4.423   4.834 -1.6258 -0.2133 -0.3526
  666TIP3   OH223488   5.183   3.075   5.326 -0.3193 -0.5684  0.8422
  666TIP3    H123489   5.254   3.101   5.268 -0.4022 -0.7128  0.6764
  666TIP3    H223490   5.179   3.145   5.392 -0.9974  0.2225  0.0016
  667TIP3   OH223491   3.243   6.703  13.736 -0.1486  0.2866  0.0480
  667TIP3    H123492   3.327   6.678  13.773 -1.0406 -0.3038  1.8256
  667TIP3    H223493   3.214   6.626  13.687 -1.1168 -0.8684  2.2600
  668TIP3   OH223494   5.218   3.704   2.873  0.0128  0.4852  0.7174
  668TIP3    H123495   5.293   3.749   2.836 -0.1608  0.5766  0.4756
  668TIP3    H223496   5.198   3.753   2.953  0.7155 -0.0307  1.2178
  669TIP3   OH223497   1.611   3.393   0.350 -0.5842 -0.3810 -0.1012
  669TIP3    H123498   1.706   3.384   0.359 -0.6980 -2.5506 -0.6359
  669TIP3    H223499   1.580   3.409   0.439  0.2679  0.5935  0.0442
  670TIP3   OH223500   4.481   1.524   0.500 -0.0255 -0.4135  0.6581
  670TIP3    H123501   4.549   1.528   0.567  1.2494 -1.6159 -0.4662
  670TIP3    H223502   4.413   1.469   0.538  1.4712 -2.5844  0.4083
  671TIP3   OH223503   3.788   5.336   2.696 -0.0238 -0.1655  0.1385
  671TIP3    H123504   3.718   5.289   2.741 -1.2313  0.9416 -0.5150
  671TIP3    H223505   3.759   5.427   2.696 -0.4269 -0.1531 -3.3821
  672TIP3   OH223506   3.494   0.968  16.398  0.4727  0.2604  0.2306
  672TIP3    H123507   3.416   0.994  16.447  0.0828 -1.1989  0.4169
  672TIP3    H223508   3.556   1.040  16.412 -0.3045  0.7521  1.2905
  673TIP3   OH223509   0.494   4.310  15.816 -0.5979 -0.2510  0.1706
  673TIP3    H123510   0.450   4.320  15.731 -2.7793 -0.7875  1.1957
  673TIP3    H223511   0.432   4.262  15.871  0.3717  0.8705  2.3737
  674TIP3   OH223512   6.158   1.577   3.268 -0.5198 -0.2095  0.4126
  674TIP3    H123513   6.109   1.593   3.349 -0.6851  3.0848 -0.2176
  674TIP3    H223514   6.243   1.619   3.282 -0.2828 -0.2262 -0.8369
  675TIP3   OH223515   6.677   6.081  12.402 -0.1741  0.3347  0.1232
  675TIP3    H123516   6.706   6.162  12.444  2.7885 -0.1160 -0.8462
  675TIP3    H223517   6.682   6.015  12.471  1.8567  0.1590 -0.1337
  676TIP3   OH223518   6.775   4.434  12.714 -0.0721  0.4641 -0.0664
  676TIP3    H123519   6.870   4.448  12.713  0.6581 -2.6805 -3.9752
  676TIP3    H223520   6.765   4.339  12.715 -3.2112  0.6819  0.0718
  677TIP3   OH223521   1.004   4.755   3.404 -0.0737 -0.7125 -0.2176
  677TIP3    H123522   1.039   4.739   3.492 -0.2368  0.5613  0.0902
  677TIP3    H223523   0.955   4.836   3.412  0.7045 -0.0637 -1.7209
  678TIP3   OH223524   0.266   6.462  12.398 -0.0031 -0.1617 -0.5009
  678TIP3    H123525   0.274   6.377  12.441  0.4672  0.6379  1.0736
  678TIP3    H223526   0.342   6.467  12.339  1.6403  0.2766  1.5132
  679TIP3   OH223527   3.825   0.394  15.309  0.0807 -0.0139 -0.7337
  679TIP3    H123528   3.849   0.302  15.317 -1.5280 -0.3357  1.0281
  679TIP3    H223529   3.803   0.421  15.398 -2.3439  1.2328 -1.6201
  680TIP3   OH223530   4.701   4.945  15.082 -0.2463 -0.3777 -0.2732
  680TIP3    H123531   4.711   5.031  15.041 -1.4419 -0.4278 -0.7193
  680TIP3    H223532   4.743   4.884  15.022 -0.8990 -0.2967 -0.8287
  681TIP3   OH223533   1.427   2.743  11.385 -0.3461 -0.2840 -0.3241
  681TIP3    H123534   1.501   2.790  11.424  0.1780 -0.8359 -0.6373
  681TIP3    H223535   1.371   2.721  11.460 -0.3886  0.4621 -0.1302
  682TIP3   OH223536   6.390   4.917   0.378 -0.3519  0.0615 -0.5048
  682TIP3    H123537   6.417   5.005   0.406 -2.6048  0.7581 -0.3026
  682TIP3    H223538   6.461   4.860   0.407  1.2962  1.8240 -0.8722
  683TIP3   OH223539   1.480   3.777  12.406 -0.0607  0.2091 -0.0393
  683TIP3    H123540   1.391   3.763  12.376  0.2990 -0.2229 -0.9447
  683TIP3    H223541   1.535   3.752  12.332  0.8404 -0.1857  0.7320
  684TIP3   OH223542   2.456   2.246  13.945  0.0366 -0.0047 -0.1999
  684TIP3    H123543   2.401   2.234  14.022  0.5444 -0.3254  0.1247
  684TIP3    H223544   2.428   2.177  13.884  0.7527 -0.8282  0.3716
  685TIP3   OH223545   6.409   0.955  10.960  0.5022  0.2659  0.2391
  685TIP3    H123546   6.323   0.944  11.001  0.8485  0.5582  1.0712
  685TIP3    H223547   6.394   0.937  10.868 -0.4786  0.4194  0.3553
  686TIP3   OH223548   3.946   2.252  13.039 -0.0408  0.1531  0.0361
  686TIP3    H123549   3.994   2.303  13.105 -0.0646  0.1206  0.0784
  686TIP3    H223550   3.979   2.284  12.956 -0.3050  0.4799  0.0565
  687TIP3   OH223551   4.168   3.706  14.838  0.2308 -0.4261 -0.5052
  687TIP3    H123552   4.132   3.776  14.893  0.6662 -1.6944  1.4666
  687TIP3    H223553   4.114   3.630  14.857  1.4177 -1.3085 -0.5952
  688TIP3   OH223554   4.159   6.169  16.112 -0.4574 -0.1033  0.1051
  688TIP3    H123555   4.193   6.208  16.031  0.7213  1.0297  1.1002
  688TIP3    H223556   4.082   6.120  16.084 -1.5554  2.2601 -1.4110
  689TIP3   OH223557   4.561   6.376  12.397  0.6262 -0.4281  0.0694
  689TIP3    H123558   4.643   6.326  12.402  1.1419 -0.0837 -2.9662
  689TIP3    H223559   4.513   6.337  12.325 -0.5983  1.2017 -0.0629
  690TIP3   OH223560   5.929   4.409   0.452 -0.6286  0.0569 -0.2662
  690TIP3    H123561   5.849   4.431   0.403 -0.8858 -0.2264  0.0222
  690TIP3    H223562   5.974   4.493   0.461 -0.3462  0.0402 -1.3829
  691TIP3   OH223563   3.456   2.975  16.721 -0.4050  0.2809  0.2085
  691TIP3    H123564   3.516   2.919  16.671 -2.0315  0.6105 -2.2584
  691TIP3    H223565   3.511   3.049  16.748  0.9506 -0.7882  0.5327
  692TIP3   OH223566   4.989   3.328   0.422 -0.5480 -0.3427 -0.1169
  692TIP3    H123567   4.895   3.328   0.440 -0.5796  2.3282  0.1040
  692TIP3    H223568   5.029   3.358   0.504  0.4220 -0.6760 -0.4621
  693TIP3   OH223569   4.600   2.733  11.335 -0.2329 -0.1372  0.5199
  693TIP3    H123570   4.666   2.675  11.296 -0.3722 -0.6392  1.0078
  693TIP3    H223571   4.567   2.785  11.262 -0.1637 -0.7374  0.0549
  694TIP3   OH223572   0.315   0.608  15.138 -0.1879 -0.5541  0.2086
  694TIP3    H123573   0.346   0.639  15.053  1.4713 -0.3332  0.8659
  694TIP3    H223574   0.231   0.654  15.150  0.3500  0.6838 -0.5658
  695TIP3   OH223575   4.664   2.641   3.347 -0.0072  0.0925 -0.6868
  695TIP3    H123576   4.590   2.689   3.386 -0.4518 -1.0672 -0.0412
  695TIP3    H223577   4.735   2.705   3.346 -0.8325  1.0528 -0.7339
  696TIP3   OH223578   4.453   0.575   0.450 -0.3264  0.3046 -0.0706
  696TIP3    H123579   4.383   0.528   0.404  0.2680  0.9675 -1.7585
  696TIP3    H223580   4.506   0.613   0.379  1.4045  0.3028  1.1682
  697TIP3   OH223581   5.009   1.567   0.013 -0.7320 -0.0122  0.1847
  697TIP3    H123582   4.957   1.493   0.042 -0.7468 -0.6558 -1.3617
  697TIP3    H223583   5.093   1.529  -0.013  0.1940  0.8796  1.7239
  698TIP3   OH223584   6.700   5.705  14.096 -0.3184 -0.6651 -0.6929
  698TIP3    H123585   6.683   5.630  14.039  1.7255 -1.8827  0.1770
  698TIP3    H223586   6.614   5.732  14.127 -1.1182 -2.6142 -1.0835
  699TIP3   OH223587   3.515   2.362   3.692 -0.1577  0.3725  0.1598
  699TIP3    H123588   3.432   2.338   3.652 -2.0258  1.0189  3.3084
  699TIP3    H223589   3.550   2.431   3.635 -1.6579 -0.0483 -1.3504
  700TIP3   OH223590   6.165   4.806   1.575 -0.0639  0.4070  0.0064
  700TIP3    H123591   6.238   4.832   1.519  0.1275  1.7942  0.8314
  700TIP3    H223592   6.208   4.773   1.655 -0.3376 -0.5568 -0.2363
  701TIP3   OH223593   0.483   1.162   1.750 -0.1483  0.1825 -0.2006
  701TIP3    H123594   0.571   1.140   1.780 -0.2660  1.8408  1.5561
  701TIP3    H223595   0.453   1.083   1.705  2.0301 -0.5974 -0.4272
  702TIP3   OH223596   2.891   4.474  17.221  0.2264 -0.5222  0.3839
  702TIP3    H123597   2.809   4.453  17.176 -0.0165  1.5082 -0.2269
  702TIP3    H223598   2.916   4.561  17.187  3.0663 -1.4021 -0.0820
  703TIP3   OH223599   6.528   4.109  16.479  0.3084 -0.7421 -0.1412
  703TIP3    H123600   6.594   4.059  16.432  1.7568 -0.2038  1.2194
  703TIP3    H223601   6.543   4.089  16.571 -0.0867  0.9641  0.3391
  704TIP3   OH223602   2.192   5.214  17.122  0.1837  0.4162 -0.0126
  704TIP3    H123603   2.130   5.285  17.141  0.3528  0.5232  0.1438
  704TIP3    H223604   2.223   5.187  17.208  0.7741  0.7398 -0.1186
  705TIP3   OH223605   1.293   1.820   2.879 -0.0813  0.2378  0.0129
  705TIP3    H123606   1.290   1.907   2.839 -1.2130  1.4515  2.5035
  705TIP3    H223607   1.386   1.801   2.887  0.2049  1.5163 -0.0416
  706TIP3   OH223608   2.607   6.450   2.113 -0.5870  0.4323  0.0770
  706TIP3    H123609   2.512   6.455   2.106 -0.5668  2.4811  0.7020
  706TIP3    H223610   2.628   6.501   2.191  1.0492  0.2666 -0.2190
  707TIP3   OH223611   5.473   6.308   4.077  0.1106  0.4006  0.5252
  707TIP3    H123612   5.448   6.393   4.111  0.1801  0.6408 -0.0212
  707TIP3    H223613   5.566   6.317   4.055  0.0223  0.3031  0.1024
  708TIP3   OH223614   6.286   1.449   0.861  0.3143 -0.0033 -0.3945
  708TIP3    H123615   6.275   1.542   0.840  1.5412  0.2708  0.0525
  708TIP3    H223616   6.289   1.447   0.957 -1.0930 -0.6942 -0.3519
  709TIP3   OH223617   4.872   1.437  14.824 -0.7643  0.0108  0.0301
  709TIP3    H123618   4.870   1.372  14.893 -2.2279 -0.3828 -0.3341
  709TIP3    H223619   4.829   1.514  14.862 -0.4725  0.2131 -0.0482
  710TIP3   OH223620   6.273   4.077  16.288 -0.2216  0.0492 -0.2745
  710TIP3    H123621   6.309   4.163  16.269  1.3244 -0.9133 -2.0620
  710TIP3    H223622   6.300   4.060  16.379 -2.1681  2.1301  0.7844
  711TIP3   OH223623   4.299   5.088  16.202 -0.5882  0.1573  0.2371
  711TIP3    H123624   4.224   5.031  16.223  0.1037 -0.2585  1.7348
  711TIP3    H223625   4.372   5.051  16.252  0.4418  1.0142 -0.5889
  712TIP3   OH223626   0.478   2.997   2.836  0.4916  0.0511  0.3842
  712TIP3    H123627   0.550   2.962   2.783  1.6921 -0.4564  2.2482
  712TIP3    H223628   0.407   2.934   2.824  1.7858 -1.7640  1.7071
  713TIP3   OH223629   3.325   6.417  15.333 -0.2131 -0.5421  0.1364
  713TIP3    H123630   3.269   6.410  15.410 -0.2671 -0.3866  0.1100
  713TIP3    H223631   3.354   6.508  15.331 -0.0754 -0.5858  0.0688
  714TIP3   OH223632   0.521   5.100  14.445 -0.5910  0.5927 -0.5029
  714TIP3    H123633   0.547   5.135  14.360 -1.0224  0.2147 -0.8002
  714TIP3    H223634   0.430   5.128  14.455 -0.6428  0.3600 -0.3165
  715TIP3   OH223635   5.443   4.193  13.027 -0.5002  0.8165 -0.0988
  715TIP3    H123636   5.438   4.252  12.951 -0.9516  1.9350  0.7647
  715TIP3    H223637   5.525   4.146  13.015 -0.8107  0.5960 -1.5450
  716TIP3   OH223638   0.943   5.520   6.391  0.0101 -0.1243  0.2380
  716TIP3    H123639   0.996   5.566   6.326  0.0239 -1.0050 -0.3975
  716TIP3    H223640   0.905   5.446   6.343  2.4313 -2.6364  1.8707
  717TIP3   OH223641   0.423   4.925  13.652  0.1410 -0.2701  0.0316
  717TIP3    H123642   0.341   4.905  13.698  0.4663  0.3433  0.9025
  717TIP3    H223643   0.474   4.844  13.657 -0.4642 -0.7016 -0.6409
  718TIP3   OH223644   4.200   4.901  16.598  0.0949  0.7129  0.1438
  718TIP3    H123645   4.291   4.876  16.616  0.2935  2.2460  1.4360
  718TIP3    H223646   4.173   4.840  16.529  1.7645 -0.4426  0.4214
  719TIP3   OH223647   6.105   0.189   2.712  0.4028  0.3902  0.5650
  719TIP3    H123648   6.100   0.110   2.766 -1.0618 -0.1434 -0.2769
  719TIP3    H223649   6.094   0.261   2.774  0.4052 -0.1286  1.1845
  720TIP3   OH223650   5.874   2.962  10.832  0.0932 -0.4161  0.6858
  720TIP3    H123651   5.808   2.947  10.764 -0.6989  3.3576  0.4345
  720TIP3    H223652   5.958   2.957  10.786 -0.2685 -0.6959  0.0511
  721TIP3   OH223653   2.722   0.983   3.965  0.0115 -0.1874 -0.4766
  721TIP3    H123654   2.741   1.050   3.900 -0.8994  0.3826 -0.1804
  721TIP3    H223655   2.807   0.944   3.985  0.7919  1.7856  0.3240
  722TIP3   OH223656   1.093   5.724  15.512 -0.7015  0.5687  0.7565
  722TIP3    H123657   1.065   5.744  15.422  0.1954 -0.5769  0.2073
  722TIP3    H223658   1.160   5.656  15.502 -2.7391 -1.8511  2.4617
  723TIP3   OH223659   0.468   6.543  16.447  0.2333 -0.2921 -0.3763
  723TIP3    H123660   0.419   6.595  16.511 -1.4241 -1.1940 -0.8735
  723TIP3    H223661   0.556   6.536  16.485  0.2246  1.9552  0.1973
  724TIP3   OH223662   0.986   3.323  12.521  0.0014 -0.7642 -0.7257
  724TIP3    H123663   1.038   3.247  12.493  0.7139 -0.2793 -0.7356
  724TIP3    H223664   1.047   3.397  12.515 -0.0194 -0.5300  1.4555
  725TIP3   OH223665   6.136   4.215  10.401  0.0422 -0.1462 -0.3788
  725TIP3    H123666   6.124   4.168  10.483  0.2945  0.3554 -0.0467
  725TIP3    H223667   6.052   4.258  10.386  0.0207 -0.1751 -0.3405
  726TIP3   OH223668   4.403   2.609   1.071  0.4746  0.2403  0.7022
  726TIP3    H123669   4.331   2.603   1.133  0.5467 -1.4321  0.6796
  726TIP3    H223670   4.361   2.616   0.985  0.3775  2.1029  0.8579
  727TIP3   OH223671   6.413   3.306   5.098  0.2322 -0.3033 -0.1461
  727TIP3    H123672   6.407   3.211   5.109  1.1341 -0.6058 -1.8890
  727TIP3    H223673   6.484   3.333   5.156 -0.7792 -0.4763  1.2396
  728TIP3   OH223674   4.540   4.886  13.798 -0.4415 -0.1277 -0.0456
  728TIP3    H123675   4.473   4.880  13.730  0.2985  0.6558 -0.8887
  728TIP3    H223676   4.495   4.921  13.874 -0.8712  0.9678 -0.7840
  729TIP3   OH223677   5.925   2.565  16.361  0.5759  0.3601  0.0036
  729TIP3    H123678   6.000   2.593  16.309 -0.1513  1.0235 -0.7297
  729TIP3    H223679   5.870   2.644  16.367 -0.4739 -0.3389 -0.2431
  730TIP3   OH223680   0.642   0.722  14.661  0.4201 -0.1180 -0.6618
  730TIP3    H123681   0.692   0.669  14.599  0.9439 -1.0818  0.5628
  730TIP3    H223682   0.695   0.801  14.675  0.4883 -0.0819 -1.1145
  731TIP3   OH223683   5.803   0.923   1.922 -0.3372  0.2039  0.5054
  731TIP3    H123684   5.755   0.938   2.004  0.2298 -2.1332  1.3261
  731TIP3    H223685   5.751   0.858   1.875  0.1883  0.3332 -0.2729
  732TIP3   OH223686   5.980   6.107   1.542 -0.0747 -0.6664 -0.3699
  732TIP3    H123687   6.025   6.024   1.553  1.2618 -0.2272 -2.1147
  732TIP3    H223688   6.050   6.172   1.537 -1.0768  0.5363  0.5682
  733TIP3   OH223689   3.747   5.085  11.907  0.4330  0.2647  0.0612
  733TIP3    H123690   3.660   5.125  11.906  0.1245 -0.3728  0.4039
  733TIP3    H223691   3.805   5.152  11.942 -0.1235  0.3163  0.9029
  734TIP3   OH223692   2.641   0.431   4.728 -0.0778 -0.0891  0.0263
  734TIP3    H123693   2.638   0.337   4.742  0.0569 -0.2441 -0.9566
  734TIP3    H223694   2.716   0.461   4.779 -1.1355 -0.2467  1.7516
  735TIP3   OH223695   0.311   0.367   6.341  0.3133  0.5895 -0.1718
  735TIP3    H123696   0.401   0.402   6.340 -0.0073  1.5479  1.0286
  735TIP3    H223697   0.261   0.428   6.286 -0.2325  2.1061  1.8673
  736TIP3   OH223698   5.470   3.716   3.529 -0.0728 -0.3081 -0.0172
  736TIP3    H123699   5.432   3.638   3.487 -1.5228  0.8491 -0.9579
  736TIP3    H223700   5.502   3.769   3.456  2.5549 -0.7730  0.7027
  737TIP3   OH223701   4.156   0.646   2.271 -0.1319 -0.1517  0.1852
  737TIP3    H123702   4.138   0.739   2.287  2.0492  0.6168 -1.4184
  737TIP3    H223703   4.086   0.619   2.211 -0.4862  0.5987  0.2440
  738TIP3   OH223704   0.605   0.223  13.509  0.0700  0.2157  0.1246
  738TIP3    H123705   0.624   0.189  13.421 -0.3023 -0.5944  0.3483
  738TIP3    H223706   0.535   0.167  13.542  0.8222 -0.0752  1.2959
  739TIP3   OH223707   4.534   2.129   1.189 -0.5401 -0.6442  0.0996
  739TIP3    H123708   4.521   2.109   1.282 -0.7293 -0.3502  0.1381
  739TIP3    H223709   4.464   2.082   1.145  1.0589 -2.9271 -0.1677
  740TIP3   OH223710   1.872   3.523  12.568  0.6102 -0.0654  0.2703
  740TIP3    H123711   1.817   3.454  12.530 -0.5212 -0.2354  2.0789
  740TIP3    H223712   1.858   3.599  12.511  1.2116 -1.0551 -1.2598
  741TIP3   OH223713   2.810   1.672   2.174 -0.6601  0.3695 -0.6491
  741TIP3    H123714   2.865   1.616   2.119 -0.7502 -0.2538 -0.1272
  741TIP3    H223715   2.767   1.731   2.113  1.1200  1.3621 -1.0056
  742TIP3   OH223716   5.082   6.796   2.640 -0.1447 -0.2777  0.4989
  742TIP3    H123717   5.080   6.828   2.549 -0.6501 -2.0286 -0.1462
  742TIP3    H223718   5.117   6.707   2.633 -1.7339 -1.0548  1.8078
  743TIP3   OH223719   5.377   1.618  11.925  0.2675  0.0127  0.6291
  743TIP3    H123720   5.311   1.662  11.870  0.1640  0.3186  0.9929
  743TIP3    H223721   5.450   1.680  11.929  0.1641  0.1113  1.0559
  744TIP3   OH223722   4.043   0.942   1.566 -0.0503 -0.1753  0.2115
  744TIP3    H123723   3.965   0.897   1.534  0.7131  0.5312 -3.0719
  744TIP3    H223724   4.033   1.031   1.532  2.7985 -0.4541 -1.6208
  745TIP3   OH223725   0.624   3.563   0.789  0.8263  0.0974 -0.3229
  745TIP3    H123726   0.557   3.538   0.852  1.3153  0.9207  0.5479
  745TIP3    H223727   0.704   3.521   0.820  0.6307 -1.3684 -1.6846
  746TIP3   OH223728   6.276   1.403   1.823 -0.4753 -0.3213  0.4822
  746TIP3    H123729   6.356   1.402   1.875 -1.1311 -0.2466  1.5031
  746TIP3    H223730   6.259   1.496   1.806 -0.1679 -0.3530 -0.0315
  747TIP3   OH223731   3.053   0.910   3.217  0.1328 -0.5564 -0.0989
  747TIP3    H123732   3.117   0.851   3.178 -0.3935 -1.1853 -0.0200
  747TIP3    H223733   3.083   0.920   3.308  0.8170  0.1505 -0.3891
  748TIP3   OH223734   4.406   5.316   3.183  0.2158  0.1266  0.1904
  748TIP3    H123735   4.383   5.372   3.257  0.9192 -0.4279  0.8402
  748TIP3    H223736   4.332   5.325   3.123 -0.5196  0.3349  1.0975
  749TIP3   OH223737   3.185   3.868  13.222  0.0012  0.4054 -0.4158
  749TIP3    H123738   3.115   3.930  13.244  1.2529  1.5602  0.4851
  749TIP3    H223739   3.172   3.849  13.129 -0.7256  1.6259 -0.5828
  750TIP3   OH223740   6.026   6.494   0.691  0.3676  0.0032  0.7531
  750TIP3    H123741   6.008   6.426   0.627 -3.2070  1.7057 -0.3153
  750TIP3    H223742   6.035   6.447   0.774 -1.6958 -1.8650  0.0200
  751TIP3   OH223743   1.533   5.465   2.297 -0.7068 -0.6202 -0.3933
  751TIP3    H123744   1.542   5.556   2.327  0.4499 -0.4462 -1.1929
  751TIP3    H223745   1.622   5.430   2.300 -1.1451 -1.7596 -0.0641
  752TIP3   OH223746   1.489   0.113  11.607 -0.0898 -0.3562 -0.0228
  752TIP3    H123747   1.523   0.145  11.690 -1.1488 -1.8231  1.0335
  752TIP3    H223748   1.436   0.186  11.573  1.5587  0.8130 -0.2133
  753TIP3   OH223749   3.299   4.088   5.889 -0.2003  0.5101 -0.2353
  753TIP3    H123750   3.312   4.011   5.834 -0.4738  0.3123 -0.0258
  753TIP3    H223751   3.383   4.101   5.934 -0.6189 -0.5839  0.8936
  754TIP3   OH223752   1.302   5.354  11.458 -0.2774 -0.6374  0.3822
  754TIP3    H123753   1.215   5.318  11.473 -0.1239 -1.4152 -0.4947
  754TIP3    H223754   1.295   5.400  11.375 -0.1394  0.3019  0.8785
  755TIP3   OH223755   0.961   0.415  13.085  0.4727  0.3347  0.1853
  755TIP3    H123756   0.886   0.463  13.050  0.0725 -1.0182 -0.9575
  755TIP3    H223757   1.015   0.481  13.129 -0.4264  1.6558 -0.6353
  756TIP3   OH223758   0.393   3.052  12.576  0.2145  0.1834  0.2092
  756TIP3    H123759   0.424   3.011  12.657 -2.6798 -1.6092  0.5141
  756TIP3    H223760   0.461   3.032  12.512  1.2325 -0.7952  1.5341
  757TIP3   OH223761   0.327   5.340  16.505  0.3718  0.2831  0.0845
  757TIP3    H123762   0.386   5.336  16.430 -0.8931 -1.6906 -0.8700
  757TIP3    H223763   0.312   5.434  16.519  1.5431  0.7161 -1.3636
  758TIP3   OH223764   1.324   6.193  14.298 -0.0394  0.2764 -0.3118
  758TIP3    H123765   1.377   6.113  14.298  1.0859  0.9398  1.5796
  758TIP3    H223766   1.268   6.185  14.221  0.9044 -1.7450 -0.8634
  759TIP3   OH223767   1.892   4.659   4.908 -0.3276 -0.1825 -0.3028
  759TIP3    H123768   1.847   4.676   4.826  1.3252  2.2382 -0.8080
  759TIP3    H223769   1.887   4.741   4.956  1.4156 -0.5790  0.6434
  760TIP3   OH223770   2.173   5.338  10.991  0.1567 -0.4885 -0.0268
  760TIP3    H123771   2.216   5.404  10.937  0.4431 -0.3438  0.3777
  760TIP3    H223772   2.163   5.379  11.077  1.4216 -1.3796  0.5764
  761TIP3   OH223773   3.375   6.308  14.028  0.0709  0.2378 -0.0147
  761TIP3    H123774   3.469   6.287  14.032  0.1740  0.4557 -0.9940
  761TIP3    H223775   3.333   6.241  14.082  0.5218 -1.7542 -1.9669
  762TIP3   OH223776   1.483   1.302   6.246  0.7833  0.4994  0.7907
  762TIP3    H123777   1.464   1.390   6.280 -0.6496 -0.4049  2.5209
  762TIP3    H223778   1.431   1.296   6.166  2.1642  1.7602 -0.2551
  763TIP3   OH223779   4.099   5.259   5.897  0.5400  0.4708  0.1344
  763TIP3    H123780   4.054   5.232   5.977  0.1703  2.0179  0.4862
  763TIP3    H223781   4.125   5.350   5.913  2.1768  0.2177 -0.7770
  764TIP3   OH223782   5.148   2.582  11.989 -0.1499  0.0727 -0.2086
  764TIP3    H123783   5.098   2.663  12.001  0.0524  0.1427  0.1987
  764TIP3    H223784   5.082   2.516  11.968 -0.3136  0.3501 -0.5741
  765TIP3   OH223785   4.001   4.489  13.759 -0.6068  0.4600  0.9163
  765TIP3    H123786   3.935   4.557  13.744 -0.2955  0.2931 -1.7193
  765TIP3    H223787   4.055   4.490  13.680  1.3803 -0.7171  2.1795
  766TIP3   OH223788   4.264   5.303   3.435  0.0990 -0.3579  0.8419
  766TIP3    H123789   4.290   5.266   3.519 -0.9478 -1.3930  0.7428
  766TIP3    H223790   4.237   5.227   3.383 -0.5399  0.3940  0.0443
  767TIP3   OH223791   4.536   0.105  16.278  0.0022  0.5450  0.2795
  767TIP3    H123792   4.554   0.027  16.332  0.3112  0.1148 -0.4296
  767TIP3    H223793   4.593   0.095  16.202 -0.4109  1.1601 -0.1204
  768TIP3   OH223794   6.533   2.481   5.412 -0.0578  0.3779 -0.5634
  768TIP3    H123795   6.480   2.458   5.489  0.6524  0.4476 -0.0429
  768TIP3    H223796   6.486   2.554   5.372  1.1246  2.4672  1.5718
  769TIP3   OH223797   5.157   6.746  15.922  0.4837 -0.0921 -0.2167
  769TIP3    H123798   5.217   6.790  15.981  0.4103  0.5483 -0.6130
  769TIP3    H223799   5.150   6.804  15.846 -0.2953 -0.3661 -0.3698
  770TIP3   OH223800   2.231   0.587   3.413  0.1613  0.5865 -0.1688
  770TIP3    H123801   2.219   0.576   3.318 -0.3974 -0.9189  0.0470
  770TIP3    H223802   2.142   0.578   3.449  0.4770  0.3262  0.5574
  771TIP3   OH223803   1.185   5.070   5.261 -0.5978  0.4068  0.1695
  771TIP3    H123804   1.267   5.051   5.216 -0.1562  0.0910  1.0802
  771TIP3    H223805   1.129   5.108   5.194 -0.2466 -0.7901 -0.8274
  772TIP3   OH223806   2.520   1.291  17.160  0.1052  0.4087 -0.0953
  772TIP3    H123807   2.450   1.241  17.203  0.3256  0.4273  0.2828
  772TIP3    H223808   2.474   1.364  17.119 -0.2696 -0.3147 -0.9900
  773TIP3   OH223809   4.695   3.479  10.150  0.5244 -0.2644 -0.3165
  773TIP3    H123810   4.735   3.395  10.171 -0.3482 -0.9497 -1.3171
  773TIP3    H223811   4.741   3.542  10.206 -0.3861 -1.7141  2.2539
  774TIP3   OH223812   1.166   4.206  10.479  0.6029  0.3525 -0.2001
  774TIP3    H123813   1.226   4.136  10.503  0.1685 -0.4731 -1.3926
  774TIP3    H223814   1.220   4.269  10.431  0.6438 -0.1215 -0.7938
  775TIP3   OH223815   1.749   1.204   0.664 -0.0956  0.0058  0.1069
  775TIP3    H123816   1.659   1.191   0.694  0.1513  0.7594  1.2203
  775TIP3    H223817   1.753   1.297   0.639  0.1316 -0.2409 -0.8084
  776TIP3   OH223818   3.491   6.365  12.043 -0.2986 -0.1182  0.0405
  776TIP3    H123819   3.528   6.294  11.990 -1.0791  1.0325 -2.1818
  776TIP3    H223820   3.421   6.402  11.988 -2.1123  0.3143  2.4460
  777TIP3   OH223821   2.324   6.096  16.220 -0.2660 -0.2320 -0.1633
  777TIP3    H123822   2.338   6.129  16.131 -0.8226 -0.0046 -0.1700
  777TIP3    H223823   2.402   6.123  16.268 -0.4134  0.5277 -0.3320
  778TIP3   OH223824   0.480   5.832  15.793  0.5126 -0.2256 -0.3677
  778TIP3    H123825   0.419   5.902  15.770  0.5519 -0.5170 -1.3803
  778TIP3    H223826   0.489   5.839  15.888 -0.4539  0.3467 -0.3068
  779TIP3   OH223827   1.221   1.499   0.045 -0.1516  0.3418 -0.5596
  779TIP3    H123828   1.286   1.485  -0.024  0.5392  0.8550 -0.0098
  779TIP3    H223829   1.267   1.547   0.113 -0.7867 -0.3045  0.3419
  780TIP3   OH223830   3.011   0.724   2.350 -0.4547  0.4407 -0.0180
  780TIP3    H123831   3.000   0.642   2.303  1.6114  0.7113 -1.0679
  780TIP3    H223832   3.040   0.698   2.438  0.4447  0.0207 -0.4235
  781TIP3   OH223833   3.158   6.272  17.119  0.1503 -0.1214  0.1988
  781TIP3    H123834   3.220   6.309  17.055  1.0418 -0.0623  1.0714
  781TIP3    H223835   3.188   6.305  17.203 -0.2597 -1.1926  0.7868
  782TIP3   OH223836   2.330   4.470  13.740 -0.0174  0.0737  0.3982
  782TIP3    H123837   2.419   4.498  13.717 -1.0548  1.9292 -1.7880
  782TIP3    H223838   2.311   4.514  13.823  1.3434 -0.9973  1.3146
  783TIP3   OH223839   4.908   1.080   6.682 -0.3058  0.6048 -0.3195
  783TIP3    H123840   4.860   1.091   6.765 -0.0742 -1.0414  0.0737
  783TIP3    H223841   4.873   0.998   6.645  3.2127 -1.6147  0.7816
  784TIP3   OH223842   1.984   2.337   4.135 -0.1324 -0.5672  1.0530
  784TIP3    H123843   2.019   2.414   4.090 -1.8391  0.1174  0.8115
  784TIP3    H223844   1.992   2.359   4.228  0.0800 -0.4285  1.0043
  785TIP3   OH223845   5.924   2.123  14.600 -0.3526 -0.2180 -0.4326
  785TIP3    H123846   6.001   2.138  14.545 -0.5171  0.5386 -0.4545
  785TIP3    H223847   5.950   2.153  14.687 -0.8194  0.5960 -0.5681
  786TIP3   OH223848   6.156   3.201   2.087  0.3672  0.1061  0.9815
  786TIP3    H123849   6.122   3.111   2.093 -1.4458  0.6755  0.0045
  786TIP3    H223850   6.238   3.192   2.038  0.0553 -0.9729  0.6217
  787TIP3   OH223851   0.069   2.951  16.451 -0.0324 -0.0858 -0.2652
  787TIP3    H123852   0.062   2.996  16.534 -0.1993  0.2787 -0.4733
  787TIP3    H223853   0.163   2.938  16.438 -0.0659 -2.1007  1.0079
  788TIP3   OH223854   1.731   6.350  16.791 -0.0462 -0.0455  0.5378
  788TIP3    H123855   1.685   6.401  16.724  1.5914 -0.6929 -1.1910
  788TIP3    H223856   1.684   6.369  16.872 -2.0912  0.8395 -0.7601
  789TIP3   OH223857   2.881   0.126   4.887  0.0793 -0.0637 -0.0687
  789TIP3    H123858   2.836   0.055   4.841  0.0693  0.7594 -1.3566
  789TIP3    H223859   2.924   0.176   4.818  0.8385  0.6621  0.9093
  790TIP3   OH223860   1.404   3.939   0.316  0.3488  0.3467  0.0010
  790TIP3    H123861   1.346   4.013   0.330  0.8545  0.5598  1.1186
  790TIP3    H223862   1.347   3.862   0.322 -0.2440  0.6466 -1.5749
  791TIP3   OH223863   6.549   6.422   5.003 -0.0294 -0.6245 -0.4776
  791TIP3    H123864   6.611   6.440   4.933  0.6398 -1.2578 -0.0594
  791TIP3    H223865   6.589   6.460   5.082 -0.3658 -0.6745 -0.2802
  792TIP3   OH223866   2.429   3.024  10.619 -0.0233 -0.2844  0.1706
  792TIP3    H123867   2.354   3.035  10.676  0.8422 -0.1486  1.3151
  792TIP3    H223868   2.481   3.103  10.631 -0.4027  0.3101 -1.7385
  793TIP3   OH223869   2.127   2.998  13.372  0.4388 -0.1471 -0.2991
  793TIP3    H123870   2.074   2.984  13.452  0.9459  2.9191  0.6827
  793TIP3    H223871   2.081   2.947  13.305 -2.9757  1.1432  0.8258
  794TIP3   OH223872   2.277   6.698   6.025 -0.0623 -0.7288  0.4255
  794TIP3    H123873   2.361   6.656   6.007  1.0967  1.2938  0.8902
  794TIP3    H223874   2.279   6.717   6.119 -1.2536 -1.0555  0.5310
  795TIP3   OH223875   1.408   0.927   5.539 -0.6843 -0.0187  0.7748
  795TIP3    H123876   1.479   0.963   5.592  1.2059  0.3138 -1.7765
  795TIP3    H223877   1.372   1.003   5.493 -1.2353 -0.4986  0.4013
  796TIP3   OH223878   0.635   3.928  16.593 -0.3796 -0.5785  0.0595
  796TIP3    H123879   0.669   3.871  16.663  0.8118  0.1146  0.0563
  796TIP3    H223880   0.705   3.930  16.528  0.2296  1.9951  0.6878
  797TIP3   OH223881   5.063   0.796   3.618  0.1526 -0.3689 -0.1635
  797TIP3    H123882   5.055   0.766   3.708  0.1759  1.3348  0.4424
  797TIP3    H223883   4.986   0.761   3.573 -0.6415 -0.0012  0.8876
  798TIP3   OH223884   2.336   4.665   4.394 -0.1403 -0.2940  0.1711
  798TIP3    H123885   2.336   4.757   4.369 -0.8936 -0.1518  0.6640
  798TIP3    H223886   2.244   4.645   4.414 -0.1771 -1.4511 -1.0084
  799TIP3   OH223887   3.775   6.272  16.061  0.3631 -0.2382  0.1527
  799TIP3    H123888   3.832   6.195  16.062  0.7302  0.0278  1.2219
  799TIP3    H223889   3.704   6.249  16.001  1.9976 -0.2696 -1.8373
  800TIP3   OH223890   2.198   5.526  11.229  0.5442 -0.1865 -0.2617
  800TIP3    H123891   2.103   5.515  11.228  0.7525 -2.7569  0.1762
  800TIP3    H223892   2.217   5.559  11.317  0.0282  1.1536 -0.6315
  801TIP3   OH223893   2.523   4.472  15.240  0.0891 -0.3031  0.3133
  801TIP3    H123894   2.506   4.486  15.334 -0.6116  2.0225 -0.0881
  801TIP3    H223895   2.578   4.394  15.237  0.6499 -0.0913  2.7259
  802TIP3   OH223896   5.347   2.384   0.799  0.7322 -0.4794 -0.0244
  802TIP3    H123897   5.356   2.448   0.728  1.7656 -0.6493 -0.0602
  802TIP3    H223898   5.373   2.432   0.877  0.1604 -0.4638  0.1604
  803TIP3   OH223899   2.449   2.265   4.305  0.4721 -0.0754  0.0614
  803TIP3    H123900   2.525   2.280   4.362  0.3786 -0.5423  0.3130
  803TIP3    H223901   2.472   2.188   4.254  0.4511  0.1941 -0.3624
  804TIP3   OH223902   2.849   1.946   3.739 -0.1711  0.2146 -0.3877
  804TIP3    H123903   2.866   1.925   3.648 -0.3848 -1.1385 -0.1377
  804TIP3    H223904   2.873   1.867   3.787 -0.3685  0.7912  0.6948
  805TIP3   OH223905   3.130   4.649   1.368  0.1023  0.3151 -0.1813
  805TIP3    H123906   3.080   4.698   1.303 -2.1141 -1.2958  0.1861
  805TIP3    H223907   3.201   4.609   1.319 -1.4222 -0.7281 -1.6763
  806TIP3   OH223908   0.003   4.392  10.281 -0.2184  0.7411 -0.0203
  806TIP3    H123909  -0.024   4.335  10.210 -0.0071 -0.8931  1.1552
  806TIP3    H223910  -0.064   4.381  10.348 -0.2751  2.0493  0.1725
  807TIP3   OH223911   4.022   4.015  11.358  0.5275  0.7122 -0.3052
  807TIP3    H123912   4.106   3.986  11.322  1.0322  0.1111  1.2353
  807TIP3    H223913   3.960   3.947  11.334  0.8494  0.3366 -0.0961
  808TIP3   OH223914   3.697   2.956   3.245  0.0353 -0.1826  0.5620
  808TIP3    H123915   3.736   3.033   3.205  0.6146 -0.5366  0.4306
  808TIP3    H223916   3.717   2.885   3.183 -0.2558 -0.4846  0.8123
  809TIP3   OH223917   4.888   6.773  14.288  0.3198 -0.3943  0.0461
  809TIP3    H123918   4.797   6.755  14.265 -0.0358 -0.3230  1.3424
  809TIP3    H223919   4.936   6.758  14.207 -0.8720 -0.1862 -0.7265
  810TIP3   OH223920   2.273   1.375   3.160  0.2291  0.0055  0.6688
  810TIP3    H123921   2.337   1.305   3.147 -0.4601 -0.6441  0.6987
  810TIP3    H223922   2.319   1.455   3.135  0.2361 -0.7205 -1.9797
  811TIP3   OH223923   5.161   5.500  17.194  0.3428 -0.3173 -0.1214
  811TIP3    H123924   5.223   5.429  17.210  1.4702  0.7746  0.5077
  811TIP3    H223925   5.210   5.580  17.216 -1.3151  0.5730  0.4854
  812TIP3   OH223926   0.641   0.596  15.350  0.2811 -0.1626  0.3897
  812TIP3    H123927   0.724   0.559  15.380 -0.6093 -1.6331  1.1455
  812TIP3    H223928   0.640   0.578  15.256 -0.4758 -2.9413  0.8460
  813TIP3   OH223929   1.849   4.303  15.987  0.3655  0.2566  0.3626
  813TIP3    H123930   1.904   4.381  15.981  1.8778 -0.4884  2.9296
  813TIP3    H223931   1.896   4.236  15.937  0.1616  0.4070 -0.0393
  814TIP3   OH223932   6.271   0.953  11.838  0.2001 -0.3101 -0.5224
  814TIP3    H123933   6.211   0.990  11.902  1.0929 -0.2819  0.3201
  814TIP3    H223934   6.339   1.020  11.828  0.4308 -0.6113 -0.9782
  815TIP3   OH223935   4.130   0.904   2.334  0.2360  0.2125  0.2176
  815TIP3    H123936   4.053   0.898   2.391  0.2994 -0.2179  0.2590
  815TIP3    H223937   4.095   0.938   2.251 -0.3737 -1.7635 -0.4198
  816TIP3   OH223938   0.466   2.556  17.137  0.1237 -0.5180  0.0993
  816TIP3    H123939   0.491   2.470  17.103  1.6440  0.3117 -1.0046
  816TIP3    H223940   0.533   2.575  17.203 -0.8418 -0.6132  1.1531
  817TIP3   OH223941   5.946   1.182   4.218 -0.3759  0.1558 -0.1235
  817TIP3    H123942   5.906   1.268   4.205 -0.4585 -0.1051 -1.8739
  817TIP3    H223943   5.905   1.127   4.151  0.8178 -0.8419 -0.0579
  818TIP3   OH223944   2.866   1.699  12.354 -0.3848 -0.0856 -0.0989
  818TIP3    H123945   2.931   1.695  12.424 -0.2797 -0.0984 -0.1958
  818TIP3    H223946   2.855   1.608  12.325 -0.6572 -0.1201  0.1070
  819TIP3   OH223947   5.741   6.045   1.434 -0.4389 -0.5659  1.0963
  819TIP3    H123948   5.826   6.078   1.460  0.1621 -0.0917 -1.2123
  819TIP3    H223949   5.760   5.967   1.382 -1.1803  0.6114 -1.1041
  820TIP3   OH223950   3.761   4.866  15.154 -0.0701 -0.2862  0.7743
  820TIP3    H123951   3.848   4.861  15.113  1.2616  0.5252  3.2613
  820TIP3    H223952   3.779   4.856  15.248 -2.5734  0.8215  1.4360
  821TIP3   OH223953   0.842   1.877   1.547 -0.2189 -0.0749  0.0756
  821TIP3    H123954   0.787   1.951   1.575  0.2546 -0.1033  1.1408
  821TIP3    H223955   0.800   1.845   1.468  0.0709  1.9102 -0.9439
  822TIP3   OH223956   6.090   4.183  11.647 -0.3803  0.1745  0.5363
  822TIP3    H123957   6.170   4.224  11.617  0.0131 -0.5322  0.6000
  822TIP3    H223958   6.059   4.240  11.717 -0.2350  0.7464  0.1398
  823TIP3   OH223959   0.478   6.051   1.098 -0.1146  0.3841 -0.1451
  823TIP3    H123960   0.479   5.960   1.071 -0.7683  0.3927 -0.2237
  823TIP3    H223961   0.404   6.058   1.159  0.5013  0.6613  0.5981
  824TIP3   OH223962   0.744   1.926  17.145 -0.0721 -0.2353  0.1089
  824TIP3    H123963   0.753   1.874  17.224 -0.3058 -3.0831 -1.6002
  824TIP3    H223964   0.667   1.891  17.101  0.7607  0.3588 -1.9836
  825TIP3   OH223965   1.903   1.712   4.244  0.8200  0.2105 -0.1754
  825TIP3    H123966   1.860   1.790   4.278  0.4915 -0.5250  1.1670
  825TIP3    H223967   1.854   1.689   4.165 -0.7672 -0.1649  0.8948
  826TIP3   OH223968   2.644   0.884  12.071  0.0588 -0.0122  0.1923
  826TIP3    H123969   2.580   0.877  12.142  0.9864 -1.1232  0.9580
  826TIP3    H223970   2.717   0.828  12.099  0.1531 -1.0703 -1.9477
  827TIP3   OH223971   2.409   0.281   0.412 -0.2113 -0.0382 -0.0216
  827TIP3    H123972   2.400   0.186   0.419 -2.0398 -0.1511 -2.6059
  827TIP3    H223973   2.347   0.316   0.476 -0.7474 -0.6302 -0.2089
  828TIP3   OH223974   6.473   6.366   2.193  0.1786  0.1520 -0.0024
  828TIP3    H123975   6.491   6.367   2.099 -0.1411 -0.0541 -0.0687
  828TIP3    H223976   6.422   6.446   2.208  1.6789  1.0921  0.3042
  829TIP3   OH223977   6.032   3.922  10.406 -0.1581 -0.0610  0.7005
  829TIP3    H123978   6.027   4.013  10.376 -1.5457 -0.7696 -1.3876
  829TIP3    H223979   6.116   3.890  10.372 -0.2356  0.0798  0.3786
  830TIP3   OH223980   1.509   0.456   6.421 -0.1939  0.0865  0.1656
  830TIP3    H123981   1.579   0.419   6.474  0.5793  0.9427 -0.2295
  830TIP3    H223982   1.447   0.492   6.486 -0.3300 -0.7650  0.5157
  831TIP3   OH223983   3.754   6.078   6.014 -0.4345 -1.2786  0.3876
  831TIP3    H123984   3.724   5.998   6.058 -0.0527 -0.7195  1.7108
  831TIP3    H223985   3.845   6.087   6.039 -0.8311  0.2945  1.3836
  832TIP3   OH223986   2.257   3.302  10.812  0.3833  0.0191  0.3093
  832TIP3    H123987   2.225   3.214  10.834  1.6002 -0.5589 -0.0939
  832TIP3    H223988   2.203   3.329  10.738 -0.4693 -0.0857  0.8776
  833TIP3   OH223989   4.931   3.908   4.114 -0.0624  0.3444 -0.0323
  833TIP3    H123990   4.935   3.871   4.026 -1.3376  2.7484 -1.2238
  833TIP3    H223991   4.955   4.000   4.102 -2.0555  1.1807  1.7887
  834TIP3   OH223992   1.057   0.465   2.099 -0.1962 -0.3810  0.6385
  834TIP3    H123993   1.061   0.402   2.026 -0.8772 -1.1170  1.2155
  834TIP3    H223994   1.149   0.482   2.120  0.0087 -0.4586 -0.1305
  835TIP3   OH223995   3.486   2.917  13.097  0.4372 -0.4614  0.1683
  835TIP3    H123996   3.446   2.846  13.147  0.4413  1.6855  3.5280
  835TIP3    H223997   3.414   2.952  13.044 -0.6504 -0.4303  1.6090
  836TIP3   OH223998   4.923   5.827   1.436 -0.1366 -0.3542 -0.3812
  836TIP3    H123999   4.958   5.871   1.513  1.0599 -1.4655 -0.2768
  836TIP3    H224000   4.935   5.734   1.453 -1.8825 -0.7212 -0.9593
  837TIP3   OH224001   4.602   6.041   4.976 -0.4460  0.4789  0.1746
  837TIP3    H124002   4.515   6.069   5.001 -1.4642 -1.1919 -1.2104
  837TIP3    H224003   4.617   5.961   5.027  1.2069  1.8592  1.9753
  838TIP3   OH224004   3.532   5.465   2.817 -0.2509 -0.4511  0.3152
  838TIP3    H124005   3.526   5.432   2.907  0.6366 -1.1472  0.1336
  838TIP3    H224006   3.475   5.407   2.766 -0.1349 -0.5589  0.3055
  839TIP3   OH224007   5.601   5.800  12.464  0.0704 -0.6512 -0.2550
  839TIP3    H124008   5.538   5.771  12.530 -0.1408 -0.1077 -0.2159
  839TIP3    H224009   5.549   5.813  12.385 -0.3118  1.9812  0.3388
  840TIP3   OH224010   6.621   5.143  11.276  0.4394 -0.4172 -0.1398
  840TIP3    H124011   6.601   5.181  11.361  1.1856 -0.8256  0.2323
  840TIP3    H224012   6.679   5.207  11.234 -0.6946  0.2310 -0.7428
  841TIP3   OH224013   5.404   3.978   2.398  0.1985 -0.7843 -0.0948
  841TIP3    H124014   5.395   3.888   2.431 -1.6341 -0.3405  0.6832
  841TIP3    H224015   5.321   3.996   2.355  0.7036  0.4119 -0.5888
  842TIP3   OH224016   1.071   4.070   4.102  0.3638  0.6354 -0.1253
  842TIP3    H124017   1.006   4.087   4.034  1.6916 -0.1756 -1.6620
  842TIP3    H224018   1.096   4.157   4.133  0.8523  1.1358 -1.7933
  843TIP3   OH224019   1.682   6.289   2.416 -0.0915  0.3993 -0.0315
  843TIP3    H124020   1.604   6.251   2.376  0.2833  2.2227 -2.7673
  843TIP3    H224021   1.653   6.374   2.449  0.2949  0.1821  0.9011
  844TIP3   OH224022   2.946   0.417   5.468  0.5606 -0.6835  0.4543
  844TIP3    H124023   3.013   0.438   5.533  0.5366 -0.6306  0.4626
  844TIP3    H224024   2.880   0.485   5.480  1.1333  0.0583 -0.4476
  845TIP3   OH224025   3.021   2.440  15.229  0.7505 -0.0837  0.1970
  845TIP3    H124026   3.092   2.452  15.165  0.1704 -0.6705 -0.5833
  845TIP3    H224027   2.948   2.407  15.177 -0.3434  1.1966  0.8519
  846TIP3   OH224028   6.709   3.622   1.743 -0.7502  0.1257  0.1971
  846TIP3    H124029   6.681   3.675   1.818 -2.6961 -0.0295 -0.3663
  846TIP3    H224030   6.760   3.682   1.689  1.4126  0.0271  1.9925
  847TIP3   OH224031   0.356   1.522  13.874 -0.9191  0.5257  1.1736
  847TIP3    H124032   0.368   1.502  13.781 -0.2949  1.1335  1.1157
  847TIP3    H224033   0.272   1.481  13.897 -0.7635 -0.1861  0.5089
  848TIP3   OH224034   0.684   5.537   5.646 -0.4678 -0.1682  0.2423
  848TIP3    H124035   0.590   5.542   5.661 -0.8296  0.8380 -1.8853
  848TIP3    H224036   0.722   5.599   5.708 -1.3448  0.4067  0.2163
  849TIP3   OH224037   3.607   2.587   2.664  0.0339  0.2464  0.5273
  849TIP3    H124038   3.670   2.579   2.593 -0.7986  1.7629 -0.4498
  849TIP3    H224039   3.660   2.608   2.741  0.7279  2.3608 -0.4407
  850TIP3   OH224040   4.621   2.234  16.045 -0.0885 -0.3863 -0.2774
  850TIP3    H124041   4.686   2.170  16.077  0.4278  0.9412  1.4783
  850TIP3    H224042   4.648   2.251  15.955  1.6978 -0.3030  0.2231
  851TIP3   OH224043   6.709   3.730  11.425 -0.4700  0.7142 -0.5078
  851TIP3    H124044   6.728   3.693  11.512 -2.6183 -0.0442 -0.2969
  851TIP3    H224045   6.788   3.779  11.402  0.9894 -0.8114  0.9327
  852TIP3   OH224046   1.740   0.971  10.922  0.1741 -0.3431 -0.1515
  852TIP3    H124047   1.661   0.922  10.900  0.5234 -0.2726 -1.6502
  852TIP3    H224048   1.806   0.904  10.940  0.2426 -0.4287 -0.6937
  853TIP3   OH224049   4.704   5.138  15.688 -0.1446  0.2264  0.3748
  853TIP3    H124050   4.658   5.189  15.621  2.9276  2.3825 -0.3227
  853TIP3    H224051   4.654   5.153  15.768 -2.1472  0.1117 -0.7604
  854TIP3   OH224052   2.023   5.137   5.258  0.8687 -0.1882 -0.5256
  854TIP3    H124053   1.943   5.095   5.290  0.0386  0.9596 -1.0452
  854TIP3    H224054   2.076   5.152   5.337 -0.8679  2.0121  0.3180
  855TIP3   OH224055   0.922   5.599   4.960 -0.0375 -0.6262  0.1481
  855TIP3    H124056   1.004   5.603   5.010  1.0094 -0.7152 -1.4847
  855TIP3    H224057   0.867   5.667   5.000  1.0104 -0.2230  0.9738
  856TIP3   OH224058   4.911   5.080  16.053 -0.1986 -0.5268  0.4803
  856TIP3    H124059   4.977   5.115  15.993 -0.5817 -0.0702  0.3196
  856TIP3    H224060   4.949   4.999  16.086  1.0716  0.4386  1.4845
  857TIP3   OH224061   5.619   2.831  15.277 -0.5008 -0.5789  0.1136
  857TIP3    H124062   5.648   2.750  15.320 -0.9714 -1.0314 -0.3938
  857TIP3    H224063   5.659   2.901  15.328 -1.5386 -1.0714  1.6510
  858TIP3   OH224064   2.968   3.127   5.266 -0.6741  0.0174 -0.2459
  858TIP3    H124065   2.879   3.161   5.255 -0.7179 -0.1129 -0.2857
  858TIP3    H224066   3.024   3.206   5.264 -0.7462  0.0600 -0.6523
  859TIP3   OH224067   0.067   5.193  14.882 -0.2108  0.2047  0.5136
  859TIP3    H124068   0.031   5.275  14.916 -1.6746 -1.3691  3.0649
  859TIP3    H224069   0.111   5.153  14.957  1.8931 -0.6859 -1.0782
  860TIP3   OH224070   3.357   5.728   3.648  0.2213  0.2859 -0.3224
  860TIP3    H124071   3.319   5.812   3.673  0.1688 -0.0990  1.0182
  860TIP3    H224072   3.444   5.750   3.615  0.1717  0.8858 -0.0746
  861TIP3   OH224073   4.555   4.220   5.490  0.1096 -0.0326 -0.3228
  861TIP3    H124074   4.478   4.202   5.436 -0.3474 -1.1075  0.6449
  861TIP3    H224075   4.560   4.315   5.495 -0.6986  0.0603 -1.0196
  862TIP3   OH224076   5.255   3.672  12.646  0.2003  0.6870  0.1314
  862TIP3    H124077   5.221   3.670  12.735 -1.5865  1.3106 -0.4853
  862TIP3    H224078   5.272   3.580  12.624  1.1193  0.5659  1.2379
  863TIP3   OH224079   2.287   3.659   5.233  0.1576  0.5151 -0.3017
  863TIP3    H124080   2.353   3.670   5.164  0.3537  1.5796  0.0431
  863TIP3    H224081   2.208   3.697   5.197 -0.0647 -0.0305 -0.4004
  864TIP3   OH224082   1.774   5.036   2.835  0.0927  0.2547  0.1411
  864TIP3    H124083   1.726   4.955   2.854  1.7258 -0.1497  3.2930
  864TIP3    H224084   1.856   5.007   2.796 -0.0649  0.5621 -0.4327
  865TIP3   OH224085   5.308   1.480  11.419  0.3163  0.6515  0.3937
  865TIP3    H124086   5.343   1.450  11.503 -0.9627 -0.0369  0.7160
  865TIP3    H224087   5.385   1.503  11.367  1.2159 -0.4442  1.1902
  866TIP3   OH224088   1.521   2.748  16.660  0.0667 -0.2273 -0.6038
  866TIP3    H124089   1.504   2.751  16.755 -1.5978 -3.6777 -0.6465
  866TIP3    H224090   1.616   2.756  16.653  0.3601 -1.1753  1.4963
  867TIP3   OH224091   3.332   2.301   2.980  0.3474  0.0794 -0.5954
  867TIP3    H124092   3.241   2.316   3.005 -0.6724 -4.3010 -0.7835
  867TIP3    H224093   3.381   2.306   3.062 -1.1853 -3.2660  0.7117
  868TIP3   OH224094   6.592   3.291   6.470  0.0934  0.0500 -0.4787
  868TIP3    H124095   6.546   3.374   6.485 -0.3733 -0.2535 -0.2159
  868TIP3    H224096   6.523   3.224   6.472  0.6339 -0.4913  0.6262
  869TIP3   OH224097   5.443   2.096  11.777  0.5098  0.0265 -0.0855
  869TIP3    H124098   5.446   2.174  11.722  0.1359  0.6067  0.6979
  869TIP3    H224099   5.354   2.095  11.812  0.5055 -0.7693 -0.0982
  870TIP3   OH224100   3.287   0.519  12.306 -0.1902  0.0909  0.1565
  870TIP3    H124101   3.214   0.489  12.361 -0.2877  0.1290  0.0503
  870TIP3    H224102   3.244   0.556  12.229 -0.0634 -2.1932 -1.1233
  871TIP3   OH224103   5.139   4.924  15.656 -0.6572 -0.1573  0.2064
  871TIP3    H124104   5.209   4.874  15.699 -0.7080 -0.2645  0.1654
  871TIP3    H224105   5.065   4.863  15.652  0.3199 -1.3605 -3.0051
  872TIP3   OH224106   2.703   5.907  10.817 -0.5381  0.1107 -0.0690
  872TIP3    H124107   2.776   5.968  10.810 -0.2174  0.2243  2.9520
  872TIP3    H224108   2.626   5.963  10.826 -0.4278  0.0942  1.1416
  873TIP3   OH224109   5.246   0.233   1.699 -0.2420 -0.9134  0.3897
  873TIP3    H124110   5.325   0.284   1.716 -1.5346  1.8005 -1.1225
  873TIP3    H224111   5.275   0.142   1.706  2.7179 -0.0380  1.0738
  874TIP3   OH224112   1.512   6.056  16.506  0.7772 -0.6298  0.4001
  874TIP3    H124113   1.454   5.993  16.463  2.2115 -1.6385 -0.1061
  874TIP3    H224114   1.512   6.132  16.447  0.6817 -0.9766 -0.0487
  875TIP3   OH224115   6.421   2.468   0.597  0.1907 -0.1046 -0.0856
  875TIP3    H124116   6.503   2.422   0.617  0.4746  0.1072 -0.7447
  875TIP3    H224117   6.353   2.407   0.624  0.5604 -0.1788  0.7165
  876TIP3   OH224118   3.949   2.234  15.265  0.4276 -0.7192 -0.2212
  876TIP3    H124119   3.862   2.195  15.257  0.6405 -1.0106 -1.2272
  876TIP3    H224120   3.935   2.313  15.318 -0.3128 -1.1634  0.2665
  877TIP3   OH224121   2.140   3.556  15.155 -0.2182 -0.3571 -0.3957
  877TIP3    H124122   2.122   3.462  15.158  1.0880 -0.6000  0.2678
  877TIP3    H224123   2.117   3.588  15.242 -0.6370 -0.0590 -0.6124
  878TIP3   OH224124   1.492   0.630   3.515 -0.3412 -0.2633  0.1581
  878TIP3    H124125   1.431   0.681   3.568  1.9834  0.6764  2.1041
  878TIP3    H224126   1.523   0.561   3.574  2.4719  0.9111  0.1821
  879TIP3   OH224127   5.503   2.764  10.659 -0.6402  0.4020  0.0310
  879TIP3    H124128   5.582   2.720  10.690 -1.5837 -1.2609  0.2558
  879TIP3    H224129   5.486   2.832  10.725  0.4650  0.6306  0.0920
  880TIP3   OH224130   2.461   5.811   5.961  0.0077  0.2400  0.5856
  880TIP3    H124131   2.383   5.829   5.909 -0.6050  1.3410  1.8401
  880TIP3    H224132   2.486   5.896   5.998  2.7559  0.2744 -1.0349
  881TIP3   OH224133   5.692   5.751  13.422  0.5669 -0.2675  0.1386
  881TIP3    H124134   5.641   5.682  13.463 -0.3123 -0.2497 -0.8824
  881TIP3    H224135   5.769   5.761  13.478 -1.0058  0.4142  2.3029
  882TIP3   OH224136   3.725   6.195  12.444  0.4032  0.0226 -0.0685
  882TIP3    H124137   3.736   6.238  12.529 -2.2735  0.3720  0.1839
  882TIP3    H224138   3.814   6.175  12.415  1.6100  2.9163  1.2645
  883TIP3   OH224139   0.784   6.762  11.473  0.1600  0.3582  0.1968
  883TIP3    H124140   0.854   6.741  11.534 -0.8676  0.9317  1.6142
  883TIP3    H224141   0.730   6.682  11.470 -0.5936  0.8138  1.1890
  884TIP3   OH224142   0.663   3.789   0.638  0.5245  0.1867  0.4443
  884TIP3    H124143   0.665   3.702   0.678 -1.3196  0.1896  0.6400
  884TIP3    H224144   0.622   3.775   0.553 -0.3585  0.9331  0.7299
  885TIP3   OH224145   5.321   5.414  15.731 -0.0720 -0.4735  0.0021
  885TIP3    H124146   5.415   5.431  15.728  0.0494 -0.8868 -3.5800
  885TIP3    H224147   5.310   5.330  15.687 -2.1238 -0.3503  0.1648
  886TIP3   OH224148   0.658   2.022   3.498 -0.1989  0.6961 -0.6486
  886TIP3    H124149   0.701   1.996   3.416 -1.3233  0.1487 -1.0790
  886TIP3    H224150   0.730   2.028   3.561  0.5565  0.1168 -1.4225
  887TIP3   OH224151   3.877   3.667  12.349 -0.4152 -0.0686  0.0534
  887TIP3    H124152   3.833   3.736  12.398  0.2409  0.5742 -0.2537
  887TIP3    H224153   3.950   3.711  12.305 -1.3550 -0.4911 -2.0407
  888TIP3   OH224154   4.095   3.786   0.764 -0.2138  0.1350  0.2811
  888TIP3    H124155   4.089   3.722   0.836  0.0405  0.0138  0.1949
  888TIP3    H224156   4.127   3.735   0.690  0.5722  0.4879  0.3733
  889TIP3   OH224157   2.384   3.013  16.490  0.8520 -0.0745  0.0448
  889TIP3    H124158   2.469   3.034  16.527  1.3725 -1.3166 -0.3893
  889TIP3    H224159   2.403   2.952  16.418 -0.2185  1.2391 -1.4233
  890TIP3   OH224160   5.486   6.098   0.694  0.9753  0.0583 -0.4623
  890TIP3    H124161   5.546   6.041   0.741  2.2937  1.6021 -0.1918
  890TIP3    H224162   5.468   6.170   0.755  1.1637  1.1016 -1.5962
  891TIP3   OH224163   1.202   6.424  11.113 -0.4449 -0.0678 -0.3554
  891TIP3    H124164   1.289   6.403  11.147 -0.4386  1.8306  0.9335
  891TIP3    H224165   1.219   6.457  11.024  0.4570  2.1782  0.5657
  892TIP3   OH224166   3.416   6.041   3.438  0.2208 -0.5593 -0.4160
  892TIP3    H124167   3.469   6.104   3.488  0.8854 -0.0266 -1.7443
  892TIP3    H224168   3.460   5.957   3.450  0.4159 -0.4269 -0.1968
  893TIP3   OH224169   5.431   0.697  16.668 -0.4732 -0.4628 -0.3040
  893TIP3    H124170   5.511   0.750  16.665 -0.1742 -0.9213 -2.6264
  893TIP3    H224171   5.381   0.725  16.591 -1.7734 -1.3713  0.1742
  894TIP3   OH224172   6.597   1.125   4.628 -0.1842 -0.1877  0.1917
  894TIP3    H124173   6.503   1.112   4.642 -0.0562 -0.6805  0.6339
  894TIP3    H224174   6.611   1.217   4.647 -0.4225 -0.3240  1.0721
  895TIP3   OH224175   6.460   2.766   2.035  0.0059 -0.1452  0.0790
  895TIP3    H124176   6.444   2.691   2.091 -1.0052 -0.5990 -0.7919
  895TIP3    H224177   6.388   2.766   1.973  0.5956  0.8918 -0.6436
  896TIP3   OH224178   0.945   4.859   2.609 -0.0350 -0.4778  0.0549
  896TIP3    H124179   0.984   4.833   2.525 -0.0161  0.2118 -0.1508
  896TIP3    H224180   0.854   4.879   2.588 -0.1814 -0.8735  0.3096
  897TIP3   OH224181   2.708   2.243  13.345  0.1478 -0.1153  0.6444
  897TIP3    H124182   2.716   2.195  13.428 -0.0032 -0.3867  0.5044
  897TIP3    H224183   2.701   2.335  13.371 -1.3499 -0.3114  1.0171
  898TIP3   OH224184   4.742   0.442  10.722 -0.2348  0.0259  0.6063
  898TIP3    H124185   4.724   0.461  10.630  1.7942 -1.1970 -0.1158
  898TIP3    H224186   4.814   0.500  10.745 -0.9966  0.6187  1.5930
  899TIP3   OH224187   1.075   3.691  13.431  0.5255  0.5814 -0.2897
  899TIP3    H124188   0.983   3.695  13.456  0.5393 -0.5884 -0.0142
  899TIP3    H224189   1.074   3.659  13.341  0.6687  0.4921 -0.2599
  900TIP3   OH224190   1.607   0.760  12.927  0.4139 -0.7027 -0.0262
  900TIP3    H124191   1.537   0.824  12.934  0.0995 -1.0420 -0.0213
  900TIP3    H224192   1.687   0.812  12.924  0.2447 -0.3506  1.1821
  901TIP3   OH224193   1.124   2.995   4.857  0.7876  0.2649  0.5391
  901TIP3    H124194   1.051   3.019   4.799  0.3208 -0.9121  0.6051
  901TIP3    H224195   1.201   3.035   4.817  0.1073  1.5261  0.4600
  902TIP3   OH224196   2.274   4.821   3.550 -0.3959  0.0251 -0.8448
  902TIP3    H124197   2.334   4.864   3.610 -0.5454 -0.2978 -0.4603
  902TIP3    H224198   2.313   4.833   3.463  1.6814 -2.5174 -0.3824
  903TIP3   OH224199   1.543   6.410  16.565  0.5213  0.5292  0.1686
  903TIP3    H124200   1.478   6.397  16.496  0.9307  1.8616 -0.4986
  903TIP3    H224201   1.621   6.366  16.533  0.1831 -0.4430  0.6421
  904TIP3   OH224202   3.118   0.569  14.193 -0.5723 -0.3567  0.1254
  904TIP3    H124203   3.089   0.507  14.261 -0.4498 -0.0080  0.4977
  904TIP3    H224204   3.113   0.519  14.112 -1.0654 -0.6682  0.3442
  905TIP3   OH224205   0.131   1.344   6.619 -0.0916  0.3753 -0.4803
  905TIP3    H124206   0.118   1.432   6.585 -1.0569  0.8536  1.0085
  905TIP3    H224207   0.091   1.286   6.554 -0.2028  1.0927 -1.0589
  906TIP3   OH224208   4.682   3.096  15.201  0.2987 -0.4541 -0.1208
  906TIP3    H124209   4.751   3.106  15.267  0.4131 -1.2788 -0.1068
  906TIP3    H224210   4.603   3.079  15.252  0.4671 -1.5307 -0.1984
  907TIP3   OH224211   6.813   0.017   2.949 -0.1000  0.2496  0.2582
  907TIP3    H124212   6.784   0.107   2.931 -0.1301  0.2941  0.5226
  907TIP3    H224213   6.899   0.011   2.908 -0.5226  0.0823 -0.6207
  908TIP3   OH224214   3.929   2.903   5.289  0.0248  0.1919 -0.1464
  908TIP3    H124215   3.899   2.822   5.330  0.6231 -0.6936 -1.4047
  908TIP3    H224216   3.893   2.901   5.201  0.3075  1.1581 -0.3020
  909TIP3   OH224217   5.752   1.333  16.508  0.3163  0.5626 -0.3615
  909TIP3    H124218   5.816   1.400  16.530 -0.0520  0.7102  0.2750
  909TIP3    H224219   5.786   1.292  16.429  3.4528 -2.2390  2.1475
  910TIP3   OH224220   1.237   3.558  11.917 -0.8891 -0.0171 -0.4431
  910TIP3    H124221   1.173   3.628  11.929 -0.1196  0.8168 -1.1064
  910TIP3    H224222   1.319   3.603  11.899 -0.5798 -1.0854 -1.8849
  911TIP3   OH224223   4.034   3.288  16.979 -0.4325  0.0505  0.3660
  911TIP3    H124224   3.955   3.343  16.982 -0.7036 -0.3553  2.4251
  911TIP3    H224225   4.099   3.338  17.028 -0.2490 -0.8039  1.0163
  912TIP3   OH224226   6.198   5.137  17.231  0.0343 -0.6228 -0.0343
  912TIP3    H124227   6.268   5.080  17.263  1.1097 -1.2666 -3.1828
  912TIP3    H224228   6.196   5.121  17.136 -0.9650  3.1382 -0.7912
  913TIP3   OH224229   2.789   1.151  14.893  0.7444 -0.6173  0.3777
  913TIP3    H124230   2.725   1.085  14.917 -0.2713 -0.3019 -1.2737
  913TIP3    H224231   2.742   1.209  14.833  1.8566  1.1154  1.1111
  914TIP3   OH224232   3.657   5.783  15.954  0.3856  0.3669  0.1030
  914TIP3    H124233   3.738   5.799  15.906  0.0303  0.9366 -0.3236
  914TIP3    H224234   3.618   5.870  15.965 -0.8966 -0.0295 -1.0063
  915TIP3   OH224235   1.709   3.298   1.480  0.1423 -0.0300  0.3415
  915TIP3    H124236   1.700   3.265   1.569  0.3786  0.9374  0.7366
  915TIP3    H224237   1.802   3.318   1.470  0.1028 -0.0348 -0.0871
  916TIP3   OH224238   0.665   5.218   0.347  0.3727 -0.6493 -0.0126
  916TIP3    H124239   0.671   5.262   0.432  1.3228 -1.4265  0.3450
  916TIP3    H224240   0.573   5.190   0.342 -0.5931  2.2815 -0.7673
  917TIP3   OH224241   2.971   0.987   6.362 -0.4176 -0.5099 -0.0238
  917TIP3    H124242   2.975   1.005   6.268  0.3504 -0.9370 -0.0848
  917TIP3    H224243   3.026   1.054   6.402  1.4001 -1.8731 -0.1365
  918TIP3   OH224244   6.302   2.170  14.707 -0.2258 -0.5703 -0.1741
  918TIP3    H124245   6.279   2.228  14.779 -1.0808 -2.8323  1.4863
  918TIP3    H224246   6.245   2.094  14.718  2.4940 -2.8714 -0.7164
  919TIP3   OH224247   5.264   5.099   0.708 -0.3850  0.2761  0.3666
  919TIP3    H124248   5.224   5.180   0.677  1.5339  0.8251 -0.8547
  919TIP3    H224249   5.261   5.106   0.803 -1.5038  1.1119  0.2940
  920TIP3   OH224250   2.338   2.349   1.466  0.1581 -0.3086 -0.2364
  920TIP3    H124251   2.388   2.384   1.540  1.7152 -0.1464 -1.3329
  920TIP3    H224252   2.304   2.265   1.497  0.3516 -0.0069  0.8284
  921TIP3   OH224253   6.323   3.603   0.352  0.7947 -0.4915 -0.0747
  921TIP3    H124254   6.383   3.531   0.372  1.8941  0.5369  0.4097
  921TIP3    H224255   6.325   3.610   0.256 -1.4359 -2.8407 -0.4126
  922TIP3   OH224256   0.347   1.811  12.169  0.0136 -0.3722 -0.3228
  922TIP3    H124257   0.328   1.822  12.076  2.1631 -0.6484 -0.8391
  922TIP3    H224258   0.428   1.760  12.172  1.0216  1.1687  1.6396
  923TIP3   OH224259   4.906   2.183   1.265 -0.6970  0.0009 -0.0352
  923TIP3    H124260   4.843   2.214   1.201 -1.2653 -0.2578  0.3910
  923TIP3    H224261   4.881   2.226   1.347 -0.7044 -0.5776  0.2738
  924TIP3   OH224262   1.821   6.492   6.046  0.3550  0.0425 -0.0588
  924TIP3    H124263   1.853   6.405   6.071 -1.9486 -1.0464 -0.6800
  924TIP3    H224264   1.893   6.529   5.994  2.3832 -0.4261  2.2174
  925TIP3   OH224265   1.451   3.340  14.622 -0.4078 -0.0513  0.1014
  925TIP3    H124266   1.431   3.433  14.609  2.2143  0.4739 -0.7245
  925TIP3    H224267   1.418   3.297  14.543  0.7293  0.6249 -0.7749
  926TIP3   OH224268   1.873   0.919   5.791  0.7349 -0.6855 -0.2496
  926TIP3    H124269   1.950   0.893   5.842 -0.6422 -0.1145  2.2962
  926TIP3    H224270   1.891   1.010   5.765 -0.0244  0.4001  2.5963
  927TIP3   OH224271   5.815   5.559  15.128  0.8716 -0.1745 -0.2690
  927TIP3    H124272   5.777   5.536  15.043 -0.9746 -0.8448  0.6814
  927TIP3    H224273   5.837   5.651  15.120 -1.1181  0.2981 -0.8780
  928TIP3   OH224274   2.522   2.015   4.199  0.2103 -0.4198 -0.6799
  928TIP3    H124275   2.584   1.989   4.130  1.1358 -0.3447  0.0979
  928TIP3    H224276   2.477   1.934   4.222 -0.9459 -0.2455 -2.1469
  929TIP3   OH224277   5.813   5.198  17.001 -0.0494 -0.4299  0.6580
  929TIP3    H124278   5.754   5.228  16.932 -0.6616 -1.7996  0.5413
  929TIP3    H224279   5.761   5.200  17.081 -1.0827 -3.7091  0.2207
  930TIP3   OH224280   3.748   3.859  15.828  0.3188 -0.1644  0.1876
  930TIP3    H124281   3.737   3.798  15.901  0.0195 -0.2204  0.0995
  930TIP3    H224282   3.713   3.811  15.752  2.0900 -0.7537 -0.3164
  931TIP3   OH224283   2.395   5.171  14.489  0.1002 -0.2759 -0.1324
  931TIP3    H124284   2.470   5.140  14.437  0.5197  0.4993 -0.0011
  931TIP3    H224285   2.383   5.262  14.462 -0.8802 -0.4230 -0.2373
  932TIP3   OH224286   4.515   4.216  16.258  0.4310  0.4988  0.7036
  932TIP3    H124287   4.452   4.157  16.298  0.9260  0.8014  1.9788
  932TIP3    H224288   4.494   4.214  16.165 -0.4385 -0.6150  0.9021
  933TIP3   OH224289   3.811   4.125  12.314  0.4949 -0.5078 -0.0207
  933TIP3    H124290   3.847   4.139  12.226  1.2310 -0.2223  0.3229
  933TIP3    H224291   3.886   4.130  12.372  0.0148 -0.7328  0.6318
  934TIP3   OH224292   3.961   3.255  11.320  0.2398 -0.0227  0.0229
  934TIP3    H124293   4.039   3.296  11.282 -0.8458 -0.1313 -2.5688
  934TIP3    H224294   3.890   3.317  11.303 -0.6609 -1.0221 -0.0013
  935TIP3   OH224295   0.964   5.283   0.818  0.4353  0.1147  0.1160
  935TIP3    H124296   0.995   5.218   0.881  1.3307  1.8554  1.5777
  935TIP3    H224297   0.906   5.340   0.868  0.4830  1.0287 -0.8286
  936TIP3   OH224298   6.185   4.287  16.460 -0.4866 -0.0323  0.1617
  936TIP3    H124299   6.148   4.338  16.388 -0.3427  1.6013  1.1747
  936TIP3    H224300   6.239   4.350  16.508  0.1425 -1.2988  1.1830
  937TIP3   OH224301   0.303   2.145   2.264 -0.1001 -0.0249 -0.2851
  937TIP3    H124302   0.302   2.057   2.302  4.6558 -0.3035 -0.2467
  937TIP3    H224303   0.260   2.200   2.330 -1.9042 -2.0329  0.3339
  938TIP3   OH224304   1.678   3.864  14.604 -0.1469  0.1923  0.1970
  938TIP3    H124305   1.681   3.769  14.616 -1.4458  0.0569 -0.4459
  938TIP3    H224306   1.663   3.898  14.692 -0.3838 -0.2382  0.3293
  939TIP3   OH224307   6.411   3.690   3.917  0.1674  0.2559 -0.0970
  939TIP3    H124308   6.355   3.613   3.927 -0.8105  0.9162 -0.3737
  939TIP3    H224309   6.407   3.734   4.003  0.8983 -0.1051  0.1300
  940TIP3   OH224310   2.979   5.741   1.521  0.3103 -0.0716  0.0573
  940TIP3    H124311   3.063   5.784   1.503 -0.8225  1.8430 -0.9414
  940TIP3    H224312   2.919   5.778   1.457 -1.9997  0.8772  2.5895
  941TIP3   OH224313   1.945   4.671  16.406  0.2097  0.1511 -0.0398
  941TIP3    H124314   2.037   4.675  16.433 -0.1579  1.6609  1.0852
  941TIP3    H224315   1.948   4.676  16.310  1.2883  0.2450 -0.0095
  942TIP3   OH224316   1.233   5.848   2.077  0.2956  0.1370  0.0270
  942TIP3    H124317   1.300   5.915   2.091 -1.5337  2.2356 -0.6750
  942TIP3    H224318   1.253   5.779   2.141  2.0051  1.5483  1.0757
  943TIP3   OH224319   4.384   0.375   4.758  0.3401  0.1983 -0.1603
  943TIP3    H124320   4.398   0.281   4.764 -1.5034 -0.1168 -0.2531
  943TIP3    H224321   4.430   0.411   4.834  0.4096 -0.8648  0.3127
  944TIP3   OH224322   6.681   6.286   5.576 -0.2289  0.0118  0.5633
  944TIP3    H124323   6.716   6.216   5.630  1.3201  0.8270  0.6641
  944TIP3    H224324   6.621   6.334   5.634 -0.6479 -0.7075  0.7344
  945TIP3   OH224325   1.688   6.061   1.432  0.0415  0.3200  0.0280
  945TIP3    H124326   1.680   6.123   1.360 -0.5343  1.6701  1.2007
  945TIP3    H224327   1.770   6.015   1.415  0.3319  1.1931 -1.0320
  946TIP3   OH224328   1.975   6.435  13.657 -0.4659 -0.0425 -0.3754
  946TIP3    H124329   1.936   6.352  13.630 -0.5463 -0.1996  0.2008
  946TIP3    H224330   2.069   6.417  13.659 -0.4240  0.1040 -0.9947
  947TIP3   OH224331   2.308   6.623  12.743  0.4808 -0.8176  0.2239
  947TIP3    H124332   2.338   6.543  12.786  0.9602  0.3742  2.2407
  947TIP3    H224333   2.224   6.643  12.785  0.9030  0.3151  0.5757
  948TIP3   OH224334   3.887   6.027  12.816 -0.4883 -0.4686 -0.5796
  948TIP3    H124335   3.797   6.014  12.847 -1.1167 -0.4427 -2.2510
  948TIP3    H224336   3.938   6.042  12.895 -2.0342 -0.0267  0.3851
  949TIP3   OH224337   6.324   2.526   1.425 -0.7040  0.3381  0.4693
  949TIP3    H124338   6.350   2.435   1.410 -0.1801  0.7744 -1.5722
  949TIP3    H224339   6.402   2.566   1.463 -0.5142  0.2155  0.2139
  950TIP3   OH224340   0.760   0.156   5.468  0.3313 -0.2026  0.1575
  950TIP3    H124341   0.729   0.239   5.505  1.2788  0.7424 -1.0840
  950TIP3    H224342   0.701   0.090   5.505 -0.4947  1.0187  1.1151
  951TIP3   OH224343   2.772   4.447   0.496 -0.2185 -0.1574 -0.0612
  951TIP3    H124344   2.823   4.367   0.512  0.1137  0.1535  0.4536
  951TIP3    H224345   2.824   4.496   0.431  0.3708  0.3620  0.7866
  952TIP3   OH224346   2.998   6.471   5.898 -0.0848  0.7063  0.3533
  952TIP3    H124347   2.952   6.532   5.840 -1.2285 -0.1154  0.3770
  952TIP3    H224348   3.056   6.528   5.950 -1.6133  1.8691  0.8507
  953TIP3   OH224349   3.905   5.640  14.624 -0.6103  0.3428 -0.2302
  953TIP3    H124350   3.852   5.668  14.549 -2.9359  0.3937  1.3228
  953TIP3    H224351   3.899   5.714  14.685  0.7817  0.0744  0.2588
  954TIP3   OH224352   2.285   4.924  16.306  0.0690 -0.5296 -0.1212
  954TIP3    H124353   2.374   4.893  16.294  0.9464  1.2910  1.2286
  954TIP3    H224354   2.237   4.890  16.229  1.5799 -2.5536 -0.2509
  955TIP3   OH224355   3.182   1.178  15.087  0.4704  0.2551  0.1964
  955TIP3    H124356   3.259   1.216  15.044  0.8153  0.9992  1.4257
  955TIP3    H224357   3.219   1.116  15.151 -0.0523 -1.3096 -0.9402
  956TIP3   OH224358   3.974   3.014  17.066 -0.1044 -0.0615  0.0078
  956TIP3    H124359   4.065   2.989  17.051 -0.7164 -1.1164 -2.3072
  956TIP3    H224360   3.968   3.103  17.031 -0.5556 -1.0190 -2.5329
  957TIP3   OH224361   3.438   4.910   2.888  0.2385  0.4089  0.3197
  957TIP3    H124362   3.389   4.858   2.824  0.8028  2.8484 -2.3153
  957TIP3    H224363   3.528   4.880   2.880  0.3442  0.8514 -0.2415
  958TIP3   OH224364   0.340   1.865  15.241  0.4621 -0.2951  0.0243
  958TIP3    H124365   0.318   1.893  15.153 -0.3276 -0.1109  0.2703
  958TIP3    H224366   0.426   1.824  15.233  0.2205 -0.6504 -0.9047
  959TIP3   OH224367   1.087   6.035  14.968  0.1640 -0.2381 -0.3682
  959TIP3    H124368   1.122   5.948  14.949  0.4274  0.0329 -1.1621
  959TIP3    H224369   1.164   6.092  14.970 -0.0773  0.0933 -0.5167
  960TIP3   OH224370   1.973   4.893   1.640 -0.3074  0.0629 -0.5410
  960TIP3    H124371   1.883   4.894   1.609 -0.2715  0.5436 -0.6372
  960TIP3    H224372   2.025   4.921   1.564 -0.3223  2.3942  0.2271
  961TIP3   OH224373   6.078   4.116  10.676 -0.4057  0.4625 -0.4456
  961TIP3    H124374   6.064   4.057  10.750  0.6013 -0.6401 -1.0978
  961TIP3    H224375   5.993   4.158  10.663 -0.7354  0.3099  1.0064
  962TIP3   OH224376   5.494   0.703  16.950  0.1453  0.5816 -0.1776
  962TIP3    H124377   5.465   0.696  16.859 -1.8300 -0.5158  0.4921
  962TIP3    H224378   5.454   0.629  16.994 -0.1880  1.9314  1.9133
  963TIP3   OH224379   3.191   6.112  13.728 -0.5116 -0.5233 -0.0349
  963TIP3    H124380   3.192   6.196  13.775  0.1273 -0.3465 -0.3587
  963TIP3    H224381   3.098   6.096  13.712 -0.7005 -0.3098  0.7927
  964TIP3   OH224382   6.059   1.210  11.366 -0.0042 -0.5563  0.4797
  964TIP3    H124383   6.114   1.272  11.318  0.7629 -0.6736  1.1810
  964TIP3    H224384   6.119   1.140  11.391 -1.0179 -2.0317 -1.0306
  965TIP3   OH224385   1.849   2.698   2.760  0.1933 -0.1137  0.1742
  965TIP3    H124386   1.849   2.689   2.665 -0.4161 -0.4279  0.2000
  965TIP3    H224387   1.925   2.647   2.789  1.9113  2.0069 -0.2988
  966TIP3   OH224388   1.306   2.747  11.631 -0.1617  0.1167  0.9584
  966TIP3    H124389   1.301   2.690  11.708  0.1718  1.7521  2.2451
  966TIP3    H224390   1.240   2.815  11.646  0.2008  0.7073  0.0049
  967TIP3   OH224391   0.440   1.707   2.914 -0.5783 -0.4805  0.3727
  967TIP3    H124392   0.418   1.797   2.937 -0.5941 -0.1449 -0.9243
  967TIP3    H224393   0.502   1.680   2.982  0.2431  0.8654  0.1843
  968TIP3   OH224394   4.702   4.599  15.579  0.1074  0.4261 -0.5265
  968TIP3    H124395   4.713   4.598  15.674  5.4026 -2.5221 -0.7768
  968TIP3    H224396   4.646   4.524  15.561  1.6412 -0.9725  0.2773
  969TIP3   OH224397   5.540   6.129   4.863 -0.2056 -0.4421  0.3181
  969TIP3    H124398   5.505   6.043   4.839 -0.6290 -0.1273 -0.2277
  969TIP3    H224399   5.520   6.185   4.787  1.8860 -0.3516 -0.2181
  970TIP3   OH224400   0.839   1.449   6.050  0.6671  0.0048  0.3595
  970TIP3    H124401   0.791   1.529   6.067  1.0230 -0.0786  1.9360
  970TIP3    H224402   0.779   1.379   6.076  0.9914 -0.1568  0.6937
  971TIP3   OH224403   0.237   1.272  17.102  0.2044 -0.1516 -0.6061
  971TIP3    H124404   0.278   1.342  17.052  1.9488 -0.6310  0.0970
  971TIP3    H224405   0.309   1.230  17.149 -1.1392 -0.7743  1.0071
  972TIP3   OH224406   2.540   4.611   1.777  0.6680 -0.3707  0.4944
  972TIP3    H124407   2.508   4.535   1.728  1.2941  0.0078 -0.5216
  972TIP3    H224408   2.584   4.573   1.853 -1.2454 -0.9354  1.3762
  973TIP3   OH224409   4.400   6.313  16.381  0.0830 -0.1331 -0.1110
  973TIP3    H124410   4.438   6.289  16.295  1.0455  1.8057 -0.2708
  973TIP3    H224411   4.364   6.400  16.368  1.7097  0.9248  1.8316
  974TIP3   OH224412   2.843   4.249   1.651 -0.1028  0.1369  0.2945
  974TIP3    H124413   2.920   4.192   1.645  0.3837  0.8187 -0.1199
  974TIP3    H224414   2.880   4.338   1.656 -0.8639  0.4766 -0.0176
  975TIP3   OH224415   3.263   2.670  13.660  0.3666  0.3947  0.2434
  975TIP3    H124416   3.205   2.634  13.727  0.0482 -0.9773 -0.7511
  975TIP3    H224417   3.351   2.664  13.699 -0.0294  1.8778  1.4804
  976TIP3   OH224418   1.628   6.232  10.977  0.5779  0.3511 -1.2421
  976TIP3    H124419   1.568   6.237  10.903  0.0798 -0.7374 -0.9293
  976TIP3    H224420   1.704   6.185  10.943  0.4805  0.1276 -1.1544
  977TIP3   OH224421   1.614   6.299   3.137  0.1364  0.0571 -0.2321
  977TIP3    H124422   1.575   6.248   3.209  1.9647  1.2637  1.7420
  977TIP3    H224423   1.562   6.275   3.060 -1.7168 -1.5741  1.3948
  978TIP3   OH224424   0.454   5.431   2.816  0.0246  0.3521  0.5490
  978TIP3    H124425   0.461   5.513   2.768 -0.6207  0.5770  0.8277
  978TIP3    H224426   0.483   5.452   2.905  0.7391  0.0541  0.3962
  979TIP3   OH224427   1.368   5.331  17.202  0.0773  0.1807 -0.1988
  979TIP3    H124428   1.342   5.275  17.275 -0.6246 -0.0915 -0.6494
  979TIP3    H224429   1.448   5.290  17.168  0.9713  0.8513  1.0019
  980TIP3   OH224430   1.695   4.142   1.903  0.2733  0.0183 -0.0173
  980TIP3    H124431   1.674   4.230   1.872  1.2332 -0.1385 -1.2070
  980TIP3    H224432   1.613   4.109   1.939 -0.0354  1.4955  0.7211
  981TIP3   OH224433   0.424   0.805   0.448 -0.1039 -0.7028  0.2890
  981TIP3    H124434   0.352   0.773   0.502  0.1558 -0.9149  0.5055
  981TIP3    H224435   0.448   0.889   0.487 -2.4025  1.0320 -1.6836
  982TIP3   OH224436   6.479   2.683  11.516  0.0905  0.0625 -0.2058
  982TIP3    H124437   6.387   2.658  11.514 -0.1085  0.7877 -0.6758
  982TIP3    H224438   6.489   2.730  11.599  0.2122 -0.6174  0.1732
  983TIP3   OH224439   1.582   1.756   0.578  0.0613 -0.2894  0.5110
  983TIP3    H124440   1.652   1.716   0.629 -1.1665 -2.4040  0.6438
  983TIP3    H224441   1.503   1.741   0.630 -1.1560 -2.0483 -1.6660
  984TIP3   OH224442   4.282   3.717  14.114 -0.9708  0.3199 -0.6283
  984TIP3    H124443   4.191   3.746  14.103 -1.2983  0.1450  1.2333
  984TIP3    H224444   4.315   3.770  14.187  0.2042 -0.1162 -0.8274
  985TIP3   OH224445   6.284   6.504  12.988 -0.4908  0.2224 -0.0535
  985TIP3    H124446   6.214   6.501  13.054 -0.4087  0.8656  0.0714
  985TIP3    H224447   6.251   6.452  12.916 -1.2617  0.8068 -0.1418
  986TIP3   OH224448   5.316   2.730  14.333  0.3549  0.0869 -0.4189
  986TIP3    H124449   5.366   2.659  14.291  1.5498  0.5595  0.1611
  986TIP3    H224450   5.301   2.793  14.263  2.0689  0.7266 -0.2715
  987TIP3   OH224451   0.814   1.957   4.269  0.2169 -0.3236 -0.1006
  987TIP3    H124452   0.831   1.980   4.360 -0.2262 -1.3074  0.2534
  987TIP3    H224453   0.720   1.971   4.258  0.0503 -1.3276 -0.0466
  988TIP3   OH224454   1.596   2.138  13.987 -0.1089  0.3786 -0.3005
  988TIP3    H124455   1.576   2.060  13.935  0.7183 -0.7192  0.9594
  988TIP3    H224456   1.686   2.160  13.963  0.6897 -0.8160  1.4233
  989TIP3   OH224457   0.504   5.854  14.460 -0.3467  0.2710 -0.1337
  989TIP3    H124458   0.468   5.879  14.546 -0.1238  2.1604 -0.5443
  989TIP3    H224459   0.429   5.858  14.401 -0.2726  0.1184 -0.2382
  990TIP3   OH224460   5.972   5.633   4.743  0.2650  0.5067 -0.4326
  990TIP3    H124461   5.939   5.664   4.827  0.8651 -0.5654  0.2303
  990TIP3    H224462   6.060   5.671   4.736  0.9280 -0.8011  0.2956
  991TIP3   OH224463   0.270   2.565   5.487  0.3742  0.4029 -0.2638
  991TIP3    H124464   0.244   2.485   5.533  1.0069  0.0249 -0.5532
  991TIP3    H224465   0.195   2.586   5.431  0.6792 -0.6961 -1.1224
  992TIP3   OH224466   1.044   6.095  16.317  0.9042 -0.1386 -0.3466
  992TIP3    H124467   1.022   6.018  16.263 -2.8248  0.7335 -0.3691
  992TIP3    H224468   0.972   6.100  16.380  2.3219  1.9956  1.1994
  993TIP3   OH224469   1.695   2.614   3.711  0.2566  0.3425  0.4745
  993TIP3    H124470   1.685   2.633   3.617  2.0618  0.8919  0.3570
  993TIP3    H224471   1.692   2.519   3.716  0.8820  0.2658 -0.2726
  994TIP3   OH224472   5.626   2.696  15.023 -0.1367  0.5857 -0.3256
  994TIP3    H124473   5.715   2.665  15.035 -0.2224  0.8078  0.9442
  994TIP3    H224474   5.607   2.748  15.100 -1.8505 -0.5766  0.1081
  995TIP3   OH224475   5.058   3.748  13.685 -0.0210  0.2590 -0.5025
  995TIP3    H124476   5.149   3.770  13.706 -0.3313  0.9297  0.1629
  995TIP3    H224477   5.020   3.830  13.653 -0.3309 -0.0825 -1.0317
  996TIP3   OH224478   5.343   1.671  13.058  0.5388  0.4502 -0.2794
  996TIP3    H124479   5.281   1.599  13.074 -0.6897  1.3782 -0.7104
  996TIP3    H224480   5.428   1.627  13.050 -0.1426 -0.9400 -0.3208
  997TIP3   OH224481   4.438   4.561  15.372 -0.7316  0.0449  0.0993
  997TIP3    H124482   4.423   4.616  15.449  0.6230  0.9653 -0.2594
  997TIP3    H224483   4.465   4.476  15.407  0.5951  0.6781  0.6618
  998TIP3   OH224484   2.449   1.846  15.503 -0.0679 -0.0677  0.7715
  998TIP3    H124485   2.385   1.776  15.498 -0.0273  0.0019 -1.2287
  998TIP3    H224486   2.402   1.920  15.541 -0.3893 -0.8161  1.8941
  999TIP3   OH224487   6.787   5.993  16.294 -0.4078  0.1156 -0.8061
  999TIP3    H124488   6.841   5.915  16.279 -0.3264  0.0226 -0.0665
  999TIP3    H224489   6.699   5.967  16.268 -0.2371  0.0466 -1.3465
 1000TIP3   OH224490   3.414   6.704   1.963 -0.3887 -0.0878  0.2056
 1000TIP3    H124491   3.496   6.655   1.975 -0.7053 -0.3536  1.4127
 1000TIP3    H224492   3.435   6.793   1.992 -0.6152 -0.2470  0.8795
 1001TIP3   OH224493   6.113   3.962   5.225 -0.3343  0.4523  0.1566
 1001TIP3    H124494   6.058   3.958   5.304 -1.0737  0.1087 -0.3577
 1001TIP3    H224495   6.188   4.015   5.250 -1.4969  1.9874  0.5296
 1002TIP3   OH224496   3.830   5.787   2.260 -0.5397  0.2074 -0.5317
 1002TIP3    H124497   3.757   5.758   2.206 -1.1869  0.4280  0.1996
 1002TIP3    H224498   3.849   5.876   2.230 -1.7880  0.8481  0.4709
 1003TIP3   OH224499   4.459   4.883   3.509 -0.3233  0.1895  0.5080
 1003TIP3    H124500   4.464   4.948   3.439 -1.9344 -0.2273 -0.0466
 1003TIP3    H224501   4.461   4.798   3.463 -0.0660 -0.1172  1.0769
 1004TIP3   OH224502   5.908   3.089  16.343  0.8638  0.1558  0.4915
 1004TIP3    H124503   5.991   3.136  16.339 -0.8658  3.4435 -0.2179
 1004TIP3    H224504   5.873   3.110  16.430  0.3602 -0.4657  0.4465
 1005TIP3   OH224505   5.577   0.948   3.902 -0.0024  0.1419 -0.5121
 1005TIP3    H124506   5.570   0.931   3.808  0.1531 -0.5046 -0.4160
 1005TIP3    H224507   5.487   0.962   3.931 -0.0092  0.7580 -0.8301
 1006TIP3   OH224508   5.356   4.820   0.090 -0.2362 -0.6519 -0.5347
 1006TIP3    H124509   5.441   4.852   0.058 -0.1550 -0.9639 -0.6435
 1006TIP3    H224510   5.332   4.880   0.160  0.5306 -1.1127  0.1426
 1007TIP3   OH224511   1.539   3.893  12.961 -0.1438 -0.0183  0.7533
 1007TIP3    H124512   1.496   3.825  12.909  0.8602 -0.8356  0.9436
 1007TIP3    H224513   1.497   3.889  13.047 -0.6334  0.1555  0.5230
 1008TIP3   OH224514   4.950   4.288   2.373 -0.1394 -0.1569  0.0333
 1008TIP3    H124515   4.954   4.228   2.448 -1.0759  1.3196  1.3366
 1008TIP3    H224516   5.041   4.294   2.343  0.1232 -1.4546  0.4755
 1009TIP3   OH224517   4.292   6.382  13.869 -0.0699 -0.6067  0.4452
 1009TIP3    H124518   4.386   6.368  13.879  0.0066  0.7588  2.4178
 1009TIP3    H224519   4.274   6.364  13.777  2.0854 -1.0443  0.0582
 1010TIP3   OH224520   1.765   2.264  16.002  0.3430  0.6358  0.3282
 1010TIP3    H124521   1.765   2.169  16.018 -2.6609 -0.0670 -2.5929
 1010TIP3    H224522   1.829   2.276  15.932 -1.6066  0.0738 -1.6637
 1011TIP3   OH224523   4.581   6.428  14.373  0.1204  0.1594  0.2209
 1011TIP3    H124524   4.667   6.394  14.400  0.3486 -0.2780 -1.0035
 1011TIP3    H224525   4.566   6.503  14.431  0.7259 -0.5402  1.3185
 1012TIP3   OH224526   1.333   3.749  16.910  0.3267 -0.5591 -0.2046
 1012TIP3    H124527   1.424   3.725  16.930 -0.0750 -0.5536  1.7704
 1012TIP3    H224528   1.303   3.681  16.849  1.2794 -1.2308  0.0554
 1013TIP3   OH224529   1.946   4.465  11.379  0.4627 -0.6457 -0.1086
 1013TIP3    H124530   1.884   4.525  11.338 -1.4374 -1.1439  1.8284
 1013TIP3    H224531   1.992   4.517  11.444 -0.6469 -1.0796  1.0502
 1014TIP3   OH224532   4.103   1.385   5.464  0.0937 -0.1464  0.3119
 1014TIP3    H124533   4.104   1.307   5.520  0.8555 -0.0734  0.4161
 1014TIP3    H224534   4.119   1.458   5.525 -2.1370  0.2789  0.4593
 1015TIP3   OH224535   3.994   2.090   0.098 -0.6076  0.4814  0.4763
 1015TIP3    H124536   4.068   2.035   0.121 -0.3807  1.2700  1.6926
 1015TIP3    H224537   3.931   2.029   0.057  0.8208 -0.1262 -0.9165
 1016TIP3   OH224538   5.212   3.781  13.947  0.0491 -0.1601  0.0695
 1016TIP3    H124539   5.191   3.703  13.999  0.0953 -1.0576 -1.2037
 1016TIP3    H224540   5.164   3.852  13.990  0.6807 -0.6977  1.7637
 1017TIP3   OH224541   5.408   6.143  10.744  0.2905 -0.5415  0.2977
 1017TIP3    H124542   5.316   6.154  10.769  0.2858  0.9373 -0.2403
 1017TIP3    H224543   5.407   6.144  10.648  0.6902 -2.4598  0.2379
 1018TIP3   OH224544   1.022   2.389  16.619 -0.3973  0.0204  0.6034
 1018TIP3    H124545   1.077   2.468  16.616 -1.0789  0.4834 -1.9041
 1018TIP3    H224546   1.076   2.321  16.577  0.1698 -0.8931  2.7096
 1019TIP3   OH224547   6.414   1.203   3.818  0.4512  0.0288 -0.6723
 1019TIP3    H124548   6.490   1.147   3.799 -0.8679 -1.5842 -1.5692
 1019TIP3    H224549   6.425   1.279   3.761  2.0917  0.5396  0.2694
 1020TIP3   OH224550   4.999   6.068  12.598 -0.1466  0.2578  0.1660
 1020TIP3    H124551   5.069   6.052  12.535 -0.3939  0.0179 -0.0530
 1020TIP3    H224552   4.957   5.982  12.609 -0.1027  0.2962  0.6585
 1021TIP3   OH224553   5.684   2.440   2.436  0.5459 -0.2586  0.7165
 1021TIP3    H124554   5.665   2.469   2.525 -1.5318 -0.6251  0.4469
 1021TIP3    H224555   5.683   2.344   2.441  2.1581 -0.3153  0.5934
 1022TIP3   OH224556   2.753   5.784  15.642 -0.1863  0.1436  0.3908
 1022TIP3    H124557   2.834   5.746  15.607  1.1356  2.3566  0.8740
 1022TIP3    H224558   2.717   5.715  15.698  1.0730 -1.0942 -0.2520
 1023TIP3   OH224559   2.551   0.599   4.003 -0.2601 -0.6325  0.3887
 1023TIP3    H124560   2.563   0.515   3.959  1.1089  0.4597 -1.4437
 1023TIP3    H224561   2.625   0.652   3.975 -0.9126  1.1158  1.7600
 1024TIP3   OH224562   5.384   1.440   1.725  0.2378 -0.1609  0.0921
 1024TIP3    H124563   5.398   1.374   1.657 -0.9897  0.6795 -1.0367
 1024TIP3    H224564   5.300   1.416   1.764 -0.3944  0.9028 -0.5678
 1025TIP3   OH224565   1.644   3.506   1.745 -0.2651 -0.3399 -0.3265
 1025TIP3    H124566   1.681   3.417   1.754 -1.7155 -1.2951 -2.8071
 1025TIP3    H224567   1.716   3.564   1.769  0.6877 -2.1660  1.5395
 1026TIP3   OH224568   0.952   6.731   4.235  0.5600  0.3876  0.2015
 1026TIP3    H124569   0.960   6.687   4.320  1.1157  0.4323  0.1771
 1026TIP3    H224570   0.941   6.823   4.256  0.7084  0.4001  0.2230
 1027TIP3   OH224571   0.317   6.094  13.925 -0.0834 -0.5131 -0.3860
 1027TIP3    H124572   0.363   6.032  13.981  0.1671 -0.1589 -0.1943
 1027TIP3    H224573   0.231   6.055  13.911 -1.4460  0.8784  2.9769
 1028TIP3   OH224574   3.382   2.864  10.752  0.1663 -0.2784 -0.1749
 1028TIP3    H124575   3.297   2.892  10.787  0.0096 -1.8059  0.7643
 1028TIP3    H224576   3.415   2.803  10.817  0.7898 -1.7274 -1.7703
 1029TIP3   OH224577   4.078   5.518  17.124  0.1084  0.0236  0.0506
 1029TIP3    H124578   4.109   5.428  17.136 -0.5056 -0.2492 -0.3119
 1029TIP3    H224579   4.097   5.562  17.206  0.5104 -0.4114  0.1949
 1030TIP3   OH224580   5.656   4.209  11.344 -0.1448  0.1869 -0.5325
 1030TIP3    H124581   5.656   4.255  11.259 -0.4975 -0.9295 -1.1568
 1030TIP3    H224582   5.748   4.210  11.371  0.0564  0.0697 -1.1941
 1031TIP3   OH224583   0.468   6.403   0.850  0.4348 -0.1972 -0.2506
 1031TIP3    H124584   0.403   6.381   0.916 -1.2397  1.9786 -1.0786
 1031TIP3    H224585   0.517   6.321   0.837 -1.5726 -1.6964  0.9822
 1032TIP3   OH224586   4.893   5.130  11.489 -0.0806 -0.8765  0.1770
 1032TIP3    H124587   4.808   5.092  11.511 -0.1441  0.4280  2.4777
 1032TIP3    H224588   4.891   5.218  11.527  1.5807 -0.0524 -1.4361
 1033TIP3   OH224589   2.965   4.871   5.879 -0.4536  0.3279 -0.2088
 1033TIP3    H124590   2.923   4.792   5.845  0.1492  0.3097 -0.9367
 1033TIP3    H224591   2.956   4.865   5.974 -2.7067  0.6638 -0.3453
 1034TIP3   OH224592   5.632   6.001   2.573  0.0507 -0.4070 -0.6108
 1034TIP3    H124593   5.686   6.040   2.642 -1.9394 -0.9802  1.3970
 1034TIP3    H224594   5.664   5.911   2.566 -0.4572 -0.6801  0.4117
 1035TIP3   OH224595   3.580   4.720   5.670  0.0732 -0.2823  0.2564
 1035TIP3    H124596   3.501   4.698   5.621 -0.0150  1.2601 -0.3471
 1035TIP3    H224597   3.628   4.637   5.676 -0.8770 -0.9319 -0.6703
 1036TIP3   OH224598   2.513   3.452  13.098  0.0891  0.1305  0.4300
 1036TIP3    H124599   2.433   3.414  13.134  1.1239 -1.6007  0.9980
 1036TIP3    H224600   2.532   3.527  13.155 -0.4785 -0.1540  1.0013
 1037TIP3   OH224601   0.899   6.616  13.042 -0.3511  0.0054 -0.6067
 1037TIP3    H124602   0.863   6.581  12.961  0.6593 -0.1953 -0.9839
 1037TIP3    H224603   0.992   6.631  13.023 -0.7374  3.2301 -0.6212
 1038TIP3   OH224604   5.917   1.076   3.315 -0.2872 -0.0553 -0.3413
 1038TIP3    H124605   5.870   1.046   3.238  0.0384  1.3190 -1.1128
 1038TIP3    H224606   5.894   1.169   3.322 -1.6423 -0.4911  2.2100
 1039TIP3   OH224607   5.436   2.974  12.252 -0.1695  0.6689  0.0131
 1039TIP3    H124608   5.414   2.968  12.344  0.6435 -0.7114  0.1363
 1039TIP3    H224609   5.521   3.018  12.250  0.3747 -0.3562  0.0182
 1040TIP3   OH224610   2.600   6.167  13.059  0.3185  0.0278  0.2687
 1040TIP3    H124611   2.634   6.256  13.068 -0.4420  0.2946  0.5231
 1040TIP3    H224612   2.552   6.168  12.976 -0.7589  0.2084  0.8881
 1041TIP3   OH224613   1.161   5.446  13.953 -0.0319  0.4797  0.1179
 1041TIP3    H124614   1.251   5.436  13.984 -0.3449 -0.2178  0.8211
 1041TIP3    H224615   1.162   5.407  13.865 -0.3564 -2.5694  1.3570
 1042TIP3   OH224616   6.233   6.241  12.009 -0.2277  0.1009  0.4631
 1042TIP3    H124617   6.186   6.219  11.928  1.5263  0.7086 -0.7817
 1042TIP3    H224618   6.192   6.186  12.076 -1.7294 -0.4280 -0.8206
 1043TIP3   OH224619   6.548   1.045  13.644  0.0110 -0.1495  0.4488
 1043TIP3    H124620   6.582   1.057  13.555 -0.2552  0.0794  0.3799
 1043TIP3    H224621   6.624   1.012  13.693  0.7428  1.7008  0.6300
 1044TIP3   OH224622   0.229   3.749   3.460 -0.8613  0.7923 -0.3366
 1044TIP3    H124623   0.264   3.767   3.372 -1.0642  1.5650 -0.2621
 1044TIP3    H224624   0.193   3.661   3.454  0.4622  0.2431 -0.6182
 1045TIP3   OH224625   0.144   0.158  10.837 -0.3974 -0.4422  0.2641
 1045TIP3    H124626   0.238   0.143  10.825 -0.4096 -1.6963  1.5353
 1045TIP3    H224627   0.124   0.230  10.777  1.8158  1.3949  1.5710
 1046TIP3   OH224628   5.889   5.999  16.649  0.2596 -0.1472  0.1649
 1046TIP3    H124629   5.871   6.060  16.720 -1.8394  0.1022 -0.5086
 1046TIP3    H224630   5.876   5.912  16.688  2.4689 -0.2189  0.9109
 1047TIP3   OH224631   5.262   4.794  15.918  0.2210  0.1686  0.3462
 1047TIP3    H124632   5.329   4.781  15.986  0.1709  0.4539  0.4532
 1047TIP3    H224633   5.184   4.751  15.953  0.6379 -1.1397 -0.2683
 1048TIP3   OH224634   1.445   2.091  12.894 -0.1251 -0.1052 -0.1039
 1048TIP3    H124635   1.461   2.185  12.899 -2.3076  0.3384 -0.3620
 1048TIP3    H224636   1.486   2.063  12.813 -0.2438  0.8069 -0.4842
 1049TIP3   OH224637   4.007   3.097  14.770  0.0915 -0.2028  0.1541
 1049TIP3    H124638   3.977   3.006  14.769  0.6834 -0.4063 -0.7260
 1049TIP3    H224639   4.068   3.103  14.696  1.0469  0.5822  0.9726
 1050TIP3   OH224640   4.352   6.229   2.578  0.3853 -0.0249 -0.3081
 1050TIP3    H124641   4.415   6.162   2.551  0.2983  0.0594 -0.7189
 1050TIP3    H224642   4.276   6.215   2.521  0.3347  0.3728 -0.3406
 1051TIP3   OH224643   5.736   0.975   0.971 -0.1392 -0.2374 -0.7626
 1051TIP3    H124644   5.752   0.993   0.879 -1.1955 -1.1151 -1.1434
 1051TIP3    H224645   5.794   0.901   0.992  0.8246  0.5844 -0.4338
 1052TIP3   OH224646   1.518   6.377  15.354  0.4069  0.6207 -0.4665
 1052TIP3    H124647   1.431   6.347  15.328  0.4226  0.6524 -0.5576
 1052TIP3    H224648   1.540   6.445  15.290  1.1188 -0.3988 -1.3458
 1053TIP3   OH224649   3.260   5.600   2.566 -0.0067 -0.3554  0.0616
 1053TIP3    H124650   3.287   5.511   2.585 -1.2195 -1.7419 -3.7621
 1053TIP3    H224651   3.180   5.612   2.617  1.4154 -0.4574  2.4551
 1054TIP3   OH224652   6.466   5.004   1.808  0.1426  0.1070  0.2760
 1054TIP3    H124653   6.529   5.051   1.863 -0.6360 -1.1200  2.3459
 1054TIP3    H224654   6.519   4.941   1.760  0.7338  0.5351  0.3492
 1055TIP3   OH224655   5.822   3.466   2.918 -0.0884 -0.6191  0.1174
 1055TIP3    H124656   5.881   3.391   2.917  1.5951  0.5965  1.4916
 1055TIP3    H224657   5.735   3.428   2.907  0.7594 -2.6856  0.0577
 1056TIP3   OH224658   0.206   6.584   4.766 -0.2033 -0.1583 -0.0787
 1056TIP3    H124659   0.148   6.583   4.842  0.7657  1.2486  0.7162
 1056TIP3    H224660   0.257   6.664   4.776  3.8199 -2.5233  0.7793
 1057TIP3   OH224661   2.218   5.347   5.644  0.3018  0.6859 -0.4212
 1057TIP3    H124662   2.304   5.389   5.639  0.5005  0.5932  1.4953
 1057TIP3    H224663   2.177   5.387   5.720 -0.4852 -0.8283 -0.0268
 1058TIP3   OH224664   3.207   0.873  13.382 -0.3055  0.3836  0.0453
 1058TIP3    H124665   3.254   0.890  13.300 -0.0396 -1.6444 -0.2686
 1058TIP3    H224666   3.129   0.928  13.376  0.2038  1.0301 -1.1030
 1059TIP3   OH224667   2.195   5.040   1.515  0.2824 -0.4942 -0.1682
 1059TIP3    H124668   2.250   4.977   1.562  0.8127 -1.1421 -1.6299
 1059TIP3    H224669   2.224   5.035   1.424 -0.1001  1.4179 -0.4290
 1060TIP3   OH224670   2.678   6.566   3.895 -0.1330 -0.7400  0.4319
 1060TIP3    H124671   2.627   6.485   3.897  0.6179 -1.2494 -0.1431
 1060TIP3    H224672   2.759   6.542   3.849 -0.4307  0.6299 -0.9190
 1061TIP3   OH224673   5.086   6.526  16.238 -0.5956 -0.0243 -0.2716
 1061TIP3    H124674   5.066   6.478  16.319 -1.1927 -0.8192 -0.8792
 1061TIP3    H224675   5.157   6.476  16.198  0.3470  0.9024  0.2151
 1062TIP3   OH224676   0.021   4.017   3.888 -0.3360 -0.0889 -0.4516
 1062TIP3    H124677   0.089   4.067   3.932 -0.0291  0.6477 -1.7088
 1062TIP3    H224678  -0.058   4.033   3.940  0.6042 -1.7979  1.6266
 1063TIP3   OH224679   1.551   3.059   0.391  0.3675  0.3253  0.4195
 1063TIP3    H124680   1.591   2.978   0.359 -1.2024 -0.2070 -0.3370
 1063TIP3    H224681   1.593   3.075   0.475  1.5341 -0.6420  0.0567
 1064TIP3   OH224682   6.560   3.529  13.260  0.1830  0.7050 -0.1504
 1064TIP3    H124683   6.601   3.503  13.177 -0.3936  0.5386 -0.3854
 1064TIP3    H224684   6.578   3.623  13.266  1.7612  0.3910  0.4139
 1065TIP3   OH224685   4.899   0.517  14.838  0.6336  0.1099  0.2321
 1065TIP3    H124686   4.953   0.569  14.778 -0.5880  0.9529 -0.1719
 1065TIP3    H224687   4.920   0.551  14.925 -0.7445  1.9071 -0.0843
 1066TIP3   OH224688   4.221   0.275  17.123  0.2005 -0.2085  0.0201
 1066TIP3    H124689   4.307   0.309  17.095  0.2278  0.7473  1.1812
 1066TIP3    H224690   4.186   0.233  17.044  2.3066 -1.8868 -0.1258
 1067TIP3   OH224691   6.429   6.703  13.508 -0.0867 -0.5139 -0.0551
 1067TIP3    H124692   6.354   6.647  13.525 -0.7568  0.1063 -0.8674
 1067TIP3    H224693   6.404   6.753  13.430  0.8884  0.1975  0.0728
 1068TIP3   OH224694   3.994   6.190   1.463 -0.0131  0.3763  0.9477
 1068TIP3    H124695   4.010   6.245   1.386  0.0099 -1.2648 -0.2780
 1068TIP3    H224696   4.068   6.207   1.521  0.8453  0.4394 -0.1334
 1069TIP3   OH224697   4.644   5.202  11.679  0.1765  0.1834 -0.4212
 1069TIP3    H124698   4.615   5.149  11.753 -1.0971 -0.3060 -1.2445
 1069TIP3    H224699   4.710   5.261  11.716  0.2395 -0.6753  0.8996
 1070TIP3   OH224700   2.940   5.665  12.200  0.2552  0.0371 -0.1127
 1070TIP3    H124701   2.955   5.574  12.173 -0.9518 -0.0003 -0.7089
 1070TIP3    H224702   3.003   5.679  12.270  0.5441 -1.2260 -0.0883
 1071TIP3   OH224703   4.129   0.020   3.962 -0.1456 -0.0419  0.1612
 1071TIP3    H124704   4.134  -0.047   4.030  0.5629 -0.7341 -0.5519
 1071TIP3    H224705   4.071  -0.018   3.896 -3.1240  1.7641  1.5799
 1072TIP3   OH224706   1.861   5.578   5.815 -0.0305  0.1803  0.4837
 1072TIP3    H124707   1.838   5.661   5.857 -2.2587  1.3638 -2.7239
 1072TIP3    H224708   1.793   5.517   5.845 -1.3857  0.9177 -0.9400
 1073TIP3   OH224709   5.042   1.746   1.791 -0.2789 -0.5170 -0.2580
 1073TIP3    H124710   5.118   1.709   1.747 -0.9278 -1.0657 -0.9344
 1073TIP3    H224711   5.079   1.806   1.856  0.7083 -0.2704 -1.0268
 1074TIP3   OH224712   1.162   5.159   0.180  0.2805  0.5544  0.2607
 1074TIP3    H124713   1.123   5.140   0.094 -1.6101 -1.1456  1.4003
 1074TIP3    H224714   1.142   5.082   0.233 -2.2054  3.1050  3.4421
 1075TIP3   OH224715   1.058   4.741   5.675  0.0953 -0.2929 -0.3662
 1075TIP3    H124716   0.984   4.748   5.613 -0.5521 -0.8837  0.3214
 1075TIP3    H224717   1.024   4.776   5.757  1.2064  1.2386 -0.5201
 1076TIP3   OH224718   3.045   5.009   0.710  0.1089 -0.2487 -0.0997
 1076TIP3    H124719   2.963   5.047   0.744 -1.0260 -1.4654 -1.3559
 1076TIP3    H224720   3.086   4.969   0.787 -0.1437  0.8926  0.6640
 1077TIP3   OH224721   2.991   2.673   2.202 -0.0889  0.0768 -0.4863
 1077TIP3    H124722   2.968   2.764   2.183  0.1889  0.4364  0.8407
 1077TIP3    H224723   3.074   2.659   2.156  2.3107  1.9597  2.8616
 1078TIP3   OH224724   3.785   0.547   0.085 -0.2078 -0.1388 -0.9035
 1078TIP3    H124725   3.788   0.460   0.046 -0.2839  0.4167 -2.1994
 1078TIP3    H224726   3.771   0.531   0.178  2.3322 -1.6187 -0.6751
 1079TIP3   OH224727   1.663   0.089   3.918  0.5714 -0.4367  0.3426
 1079TIP3    H124728   1.677   0.018   3.979 -1.0244  0.1671  1.4636
 1079TIP3    H224729   1.662   0.168   3.972 -1.4131  0.0620 -0.3491
 1080TIP3   OH224730   4.611   5.500   2.835  1.1231 -0.1006  0.1744
 1080TIP3    H124731   4.662   5.570   2.794 -0.2835  0.4919 -0.6338
 1080TIP3    H224732   4.569   5.541   2.910 -2.3693  0.9911 -2.1160
 1081TIP3   OH224733   1.247   3.647  15.403 -0.5800  0.2879  0.0398
 1081TIP3    H124734   1.234   3.741  15.386 -1.1214  0.4523  1.2468
 1081TIP3    H224735   1.158   3.610  15.400 -0.5555  0.1059  1.0939
 1082TIP3   OH224736   0.387   6.098   0.566  0.2032  0.1772 -0.5457
 1082TIP3    H124737   0.460   6.099   0.628 -0.3940  1.9269  0.1874
 1082TIP3    H224738   0.387   6.009   0.531  1.9992 -0.1797  0.2417
 1083TIP3   OH224739   1.209   4.571   6.626  0.9486  0.3458  0.2540
 1083TIP3    H124740   1.257   4.534   6.552  0.0751  0.3793 -0.3428
 1083TIP3    H224741   1.267   4.558   6.701  1.4170 -0.6072 -0.2559
 1084TIP3   OH224742   5.896   6.742  12.338  0.3467 -0.5092 -0.9975
 1084TIP3    H124743   5.933   6.737  12.250  2.0990 -0.1051 -0.3203
 1084TIP3    H224744   5.870   6.652  12.358 -0.1876 -0.5885 -1.9431
 1085TIP3   OH224745   3.468   3.965   1.738  0.7241  0.0822 -0.1269
 1085TIP3    H124746   3.547   3.995   1.783 -0.5529 -0.0848  2.4210
 1085TIP3    H224747   3.495   3.886   1.692  2.0716  0.0828  0.6192
 1086TIP3   OH224748   3.216   2.140   2.093 -0.0374  0.0824  0.0014
 1086TIP3    H124749   3.187   2.073   2.031 -0.0352 -1.3790  1.5076
 1086TIP3    H224750   3.137   2.168   2.138 -0.0407  1.1568 -0.6296
 1087TIP3   OH224751   5.261   3.356   6.364  0.5269  0.4517  0.2006
 1087TIP3    H124752   5.235   3.448   6.371 -0.7595  0.0210  1.4851
 1087TIP3    H224753   5.347   3.359   6.323 -0.2347  2.1284 -1.4358
 1088TIP3   OH224754   5.077   3.360   3.604 -0.4181 -0.0560 -0.0047
 1088TIP3    H124755   5.034   3.356   3.518  0.0239 -1.0995 -0.1958
 1088TIP3    H224756   5.165   3.394   3.584  0.1962 -1.6705 -0.2050
 1089TIP3   OH224757   4.820   4.244   1.945 -0.4638 -0.5127  0.0613
 1089TIP3    H124758   4.731   4.219   1.922 -0.5480  0.8241 -1.2689
 1089TIP3    H224759   4.813   4.337   1.968  0.1505 -1.0393  2.7561
 1090TIP3   OH224760   5.544   4.613   2.507 -0.2683  0.4628  0.1549
 1090TIP3    H124761   5.526   4.521   2.488  0.2410  0.6411 -1.3051
 1090TIP3    H224762   5.503   4.629   2.592 -0.8346 -0.9626  0.1647
 1091TIP3   OH224763   6.317   5.683  12.068 -0.3327 -0.3564  0.5719
 1091TIP3    H124764   6.318   5.656  11.976 -0.2789  1.1832  0.0956
 1091TIP3    H224765   6.277   5.609  12.114 -0.8284 -0.9473 -0.7490
 1092TIP3   OH224766   2.480   0.894   3.854  0.2345 -0.2941  0.1489
 1092TIP3    H124767   2.479   0.812   3.903 -0.5134  0.5214  1.5771
 1092TIP3    H224768   2.568   0.929   3.867  1.2590 -1.7641 -2.1434
 1093TIP3   OH224769   3.973   3.834  13.520  0.3049 -0.3979 -0.2547
 1093TIP3    H124770   3.944   3.918  13.556 -0.6855 -0.1579 -1.5577
 1093TIP3    H224771   3.956   3.771  13.591  0.7230  0.4203  0.6023
 1094TIP3   OH224772   1.956   5.663  12.456  0.4789  0.2424  0.3186
 1094TIP3    H124773   1.986   5.596  12.518  0.2408 -0.1290  0.0395
 1094TIP3    H224774   1.909   5.614  12.389 -0.0972  0.7409  0.3519
 1095TIP3   OH224775   6.220   2.832  16.006  0.7087  0.5874  0.0082
 1095TIP3    H124776   6.280   2.759  15.995 -0.7781 -0.6957  0.1196
 1095TIP3    H224777   6.202   2.862  15.917 -0.5045 -0.7633 -0.2425
 1096TIP3   OH224778   2.352   1.582  15.558 -0.0278  0.3281  0.4512
 1096TIP3    H124779   2.324   1.511  15.500 -0.2694  0.0633  0.8900
 1096TIP3    H224780   2.372   1.539  15.641  3.4797  0.1811 -0.3101
 1097TIP3   OH224781   4.662   4.457   1.399  0.1016  0.7413 -0.3876
 1097TIP3    H124782   4.573   4.447   1.434  0.3614 -1.2771 -0.2251
 1097TIP3    H224783   4.716   4.470   1.477  0.4362 -2.0060 -0.0562
 1098TIP3   OH224784   5.877   4.680   2.259  0.0016 -0.4071 -0.3454
 1098TIP3    H124785   5.813   4.730   2.208  0.0498 -0.5931 -0.5900
 1098TIP3    H224786   5.917   4.744   2.317  2.0325  0.4662 -2.5161
 1099TIP3   OH224787   3.019   1.114  12.231 -0.0613 -0.2669  0.0522
 1099TIP3    H124788   3.020   1.018  12.234 -2.4142 -0.3227  1.5948
 1099TIP3    H224789   2.946   1.135  12.172  0.6901  0.6198 -0.5930
 1100TIP3   OH224790   4.745   3.761   1.481 -0.5601  0.5573  0.4199
 1100TIP3    H124791   4.836   3.778   1.507  0.2119 -3.9487  1.5733
 1100TIP3    H224792   4.692   3.790   1.555  0.4473 -0.7544  1.7046
 1101TIP3   OH224793   2.849   5.218   4.418  0.2707 -0.3812 -0.0072
 1101TIP3    H124794   2.890   5.134   4.435 -0.0505 -0.4348  0.4930
 1101TIP3    H224795   2.759   5.198   4.395  0.4276 -0.2372 -0.7769
 1102TIP3   OH224796   4.020   6.569   3.013 -0.3711  0.2360  0.1195
 1102TIP3    H124797   4.048   6.596   2.926  3.0131 -2.5100  0.1420
 1102TIP3    H224798   3.978   6.484   2.998  1.6629 -1.0263  1.2039
 1103TIP3   OH224799   5.649   1.317  13.809 -0.4024 -0.3514  0.2024
 1103TIP3    H124800   5.590   1.298  13.736 -0.8759  2.7881 -0.3809
 1103TIP3    H224801   5.709   1.384  13.775  1.2855 -0.9322  1.8441
 1104TIP3   OH224802   6.748   3.715  14.258 -0.4542  0.2997 -0.2552
 1104TIP3    H124803   6.759   3.810  14.252  0.9757  0.0915 -1.5104
 1104TIP3    H224804   6.707   3.690  14.176 -1.1356 -0.1553  0.2082
 1105TIP3   OH224805   1.852   0.889   2.484  0.4123  0.2535  0.4820
 1105TIP3    H124806   1.785   0.843   2.534 -0.8378  1.6961  0.2296
 1105TIP3    H224807   1.888   0.953   2.546 -0.4345  1.3604 -0.1291
 1106TIP3   OH224808   2.364   1.083  12.071  0.2353 -0.9638  0.0569
 1106TIP3    H124809   2.322   1.111  11.990 -1.0641 -2.6397  0.0868
 1106TIP3    H224810   2.417   1.158  12.098 -0.4464  0.1599 -1.5584
 1107TIP3   OH224811   5.744   0.770  17.011 -0.5312 -0.0048 -0.3852
 1107TIP3    H124812   5.780   0.687  17.040 -1.0741 -0.5835 -1.2926
 1107TIP3    H224813   5.658   0.747  16.973 -0.7062  0.9643 -0.6073
 1108TIP3   OH224814   5.227   1.739  15.880 -0.2952  0.1949  0.0045
 1108TIP3    H124815   5.251   1.810  15.820 -1.2830  1.2821  0.8555
 1108TIP3    H224816   5.131   1.738  15.879 -0.2978 -0.8513  0.3374
 1109TIP3   OH224817   2.477   2.714  16.409  0.1612 -0.5012 -0.8885
 1109TIP3    H124818   2.545   2.748  16.349  0.6575  1.9655  0.9044
 1109TIP3    H224819   2.526   2.661  16.472  0.1199 -0.3781 -0.7545
 1110TIP3   OH224820   4.035   4.343   4.418  0.2602  0.6669 -0.6091
 1110TIP3    H124821   3.969   4.285   4.457  0.6566 -0.2899 -1.3298
 1110TIP3    H224822   4.099   4.358   4.488  0.1956  0.1642 -0.4429
 1111TIP3   OH224823   6.798   3.774   5.761 -0.2069  0.2315 -0.3422
 1111TIP3    H124824   6.705   3.800   5.759 -0.9336 -2.0147  0.8240
 1111TIP3    H224825   6.799   3.695   5.816  2.4994  0.5222  0.1257
 1112TIP3   OH224826   4.277   5.439   0.688  0.0699  0.2691  0.5445
 1112TIP3    H124827   4.299   5.436   0.595  0.4623  0.1123  0.6384
 1112TIP3    H224828   4.196   5.390   0.696 -0.3121  0.8335  0.1904
 1113TIP3   OH224829   0.224   4.581   5.006 -0.0500  0.3609  0.1143
 1113TIP3    H124830   0.315   4.559   4.983  0.0543  0.3430  0.5263
 1113TIP3    H224831   0.208   4.665   4.963 -0.7690 -0.9162 -2.2871
 1114TIP3   OH224832   4.692   5.410  11.401  0.2442 -0.1652  0.6339
 1114TIP3    H124833   4.711   5.334  11.347  1.7359 -0.3623  1.3583
 1114TIP3    H224834   4.719   5.384  11.490 -1.8395  0.2481  1.4360
 1115TIP3   OH224835   0.366   5.575  12.099 -0.6188  0.5125 -0.0153
 1115TIP3    H124836   0.418   5.507  12.142  0.1381  2.2612  2.0182
 1115TIP3    H224837   0.293   5.592  12.160 -0.9207  1.3435 -0.5907
 1116TIP3   OH224838   5.077   1.777  14.738 -0.0908  0.0328 -0.0854
 1116TIP3    H124839   5.025   1.812  14.810  0.4839  0.2428  0.2320
 1116TIP3    H224840   5.149   1.839  14.728 -0.5321  0.3735 -1.2896
 1117TIP3   OH224841   5.375   6.308   0.821 -0.1627 -0.0357  0.0278
 1117TIP3    H124842   5.334   6.390   0.795  0.1099  0.3726  0.8432
 1117TIP3    H224843   5.356   6.300   0.915 -0.1609 -0.8857 -0.0336
 1118TIP3   OH224844   2.836   0.685  11.104  0.3520  0.5155 -0.1341
 1118TIP3    H124845   2.773   0.687  11.032 -0.8785  0.8560  0.9238
 1118TIP3    H224846   2.807   0.613  11.159  0.8821  0.6903  0.3799
 1119TIP3   OH224847   1.029   5.350   4.773  0.1128  0.0161 -0.5739
 1119TIP3    H124848   0.985   5.423   4.728 -1.0533 -0.8276 -0.8663
 1119TIP3    H224849   1.052   5.289   4.703  0.4113 -0.2430 -0.2568
 1120TIP3   OH224850   5.637   2.561  13.094 -0.3420 -0.0123  0.0075
 1120TIP3    H124851   5.648   2.536  13.003 -0.6327  0.4141 -0.1450
 1120TIP3    H224852   5.545   2.543  13.113  0.4195 -3.5271  1.2693
 1121TIP3   OH224853   5.371   1.644   0.033 -0.2853  0.6686  0.0028
 1121TIP3    H124854   5.330   1.566  -0.004 -1.4987  1.1864  0.1938
 1121TIP3    H224855   5.406   1.691  -0.043 -0.2061  0.3116 -0.1833
 1122TIP3   OH224856   6.744   0.296  16.300 -0.2310 -0.0643 -0.2521
 1122TIP3    H124857   6.654   0.323  16.319  0.8340  1.6866  3.3226
 1122TIP3    H224858   6.786   0.376  16.268  0.1822 -0.7791 -1.5637
 1123TIP3   OH224859   6.462   6.159   1.972 -0.0526 -0.0378  0.0053
 1123TIP3    H124860   6.406   6.232   2.000  0.8786  0.8767 -0.4614
 1123TIP3    H224861   6.550   6.187   1.995  0.1327 -2.2080  2.3937
 1124TIP3   OH224862   4.008   3.106  16.761 -0.0171  0.2680  0.4950
 1124TIP3    H124863   4.014   3.158  16.841  0.3973  0.0398  0.6130
 1124TIP3    H224864   3.946   3.154  16.706 -1.2884 -0.2110  1.4377
 1125TIP3   OH224865   2.672   6.242  11.007 -0.6182 -0.2782 -0.1131
 1125TIP3    H124866   2.655   6.196  11.089 -1.3861  0.7933  0.3528
 1125TIP3    H224867   2.726   6.182  10.956  0.5506 -0.6287  1.4971
 1126TIP3   OH224868   0.135   3.466   1.865  0.8611 -0.2725 -0.2338
 1126TIP3    H124869   0.192   3.488   1.939  0.8218  1.7987 -0.7428
 1126TIP3    H224870   0.052   3.441   1.905  1.0605  0.1306  0.4482
 1127TIP3   OH224871   5.611   5.342  10.594  0.0122 -0.1276 -0.2761
 1127TIP3    H124872   5.668   5.373  10.664  0.4889  0.0657 -0.7443
 1127TIP3    H224873   5.670   5.322  10.522 -0.6272  1.9359 -1.4726
 1128TIP3   OH224874   3.385   4.342  11.204  0.0795 -0.3317 -0.5385
 1128TIP3    H124875   3.456   4.295  11.249 -0.5404 -0.4111  0.3873
 1128TIP3    H224876   3.317   4.352  11.271 -0.2650  0.8782 -1.0413
 1129TIP3   OH224877   2.169   0.591  15.983 -0.3217  0.2337  0.1540
 1129TIP3    H124878   2.191   0.682  16.006  0.8116  0.1422 -0.4954
 1129TIP3    H224879   2.231   0.568  15.914  0.0222 -1.3461  0.9395
 1130TIP3   OH224880   4.987   5.336   3.364  1.1947  0.0923  0.3554
 1130TIP3    H124881   5.038   5.325   3.284 -1.9741 -2.3651 -1.5789
 1130TIP3    H224882   4.981   5.248   3.401 -1.7983  0.1052  0.2074
 1131TIP3   OH224883   3.236   2.861   0.146  0.8414  0.4272  0.6771
 1131TIP3    H124884   3.318   2.854   0.098  0.5545  0.1094  0.2174
 1131TIP3    H224885   3.228   2.954   0.167  1.0296  0.5509  0.2053
 1132TIP3   OH224886   0.095   3.370   1.601 -0.1978  0.4581  0.1930
 1132TIP3    H124887   0.054   3.421   1.671 -0.8052 -0.2942  0.4010
 1132TIP3    H224888   0.133   3.294   1.646  1.9386  1.3867  0.0824
 1133TIP3   OH224889   3.709   3.230   4.084 -0.3062  0.1541 -0.0991
 1133TIP3    H124890   3.784   3.251   4.139 -0.1142  0.7707 -0.5807
 1133TIP3    H224891   3.633   3.243   4.141 -0.1568  1.6224 -0.1936
 1134TIP3   OH224892   2.996   2.255  10.947 -0.5613  0.2480 -0.6590
 1134TIP3    H124893   3.025   2.293  10.864  3.3449 -0.1296  0.2991
 1134TIP3    H224894   3.003   2.160  10.934 -0.3177  0.1775 -0.0785
 1135TIP3   OH224895   3.882   0.780   1.813  0.3325 -0.5049  0.1097
 1135TIP3    H124896   3.850   0.860   1.772  1.1560 -0.4011 -0.3384
 1135TIP3    H224897   3.816   0.714   1.792 -0.8314  0.2418  1.2530
 1136TIP3   OH224898   1.001   1.915   4.567  0.3790 -0.2506 -1.0772
 1136TIP3    H124899   1.095   1.898   4.556  0.5788 -1.3013  1.5532
 1136TIP3    H224900   0.992   2.009   4.551  2.3123  0.3263  0.7324
 1137TIP3   OH224901   3.018   0.842  12.216 -0.7607 -0.2326  0.3285
 1137TIP3    H124902   3.090   0.806  12.164  1.2909  3.9590 -0.2408
 1137TIP3    H224903   2.940   0.797  12.184  1.0992 -1.8721 -2.3388
 1138TIP3   OH224904   6.109   5.272  16.784 -0.1359  0.3376 -0.6917
 1138TIP3    H124905   6.203   5.260  16.769 -0.0958  0.6279 -0.6784
 1138TIP3    H224906   6.067   5.221  16.715  0.0282 -0.0154 -0.5349
 1139TIP3   OH224907   3.724   1.193  13.983 -0.0119  0.8421  0.2350
 1139TIP3    H124908   3.663   1.163  14.050 -0.9416 -0.1126 -0.9947
 1139TIP3    H224909   3.774   1.115  13.959  1.5956  1.5643  1.0668
 1140TIP3   OH224910   3.563   3.873  12.020 -0.2515 -0.3013  0.2556
 1140TIP3    H124911   3.646   3.829  11.999  0.5273  0.5019  1.5592
 1140TIP3    H224912   3.529   3.824  12.095 -0.3059  0.1695  0.5385
 1141TIP3   OH224913   5.299   4.791  10.886 -0.1639 -0.2886  0.2763
 1141TIP3    H124914   5.340   4.822  10.967  0.9037 -0.8357 -0.0291
 1141TIP3    H224915   5.277   4.700  10.904 -0.0338 -0.3771 -0.0164
 1142TIP3   OH224916   4.354   4.159   1.699 -0.5179  0.3052 -0.2486
 1142TIP3    H124917   4.292   4.232   1.710 -1.2116 -0.2024 -0.6779
 1142TIP3    H224918   4.313   4.104   1.631 -0.6727 -1.1942  1.0093
 1143TIP3   OH224919   3.565   3.633   2.069  0.0087  0.3858  0.5909
 1143TIP3    H124920   3.633   3.611   2.005  0.8980  1.3773  1.1511
 1143TIP3    H224921   3.491   3.578   2.045  1.2890 -1.3677  0.4726
 1144TIP3   OH224922   5.496   5.860  11.227  0.0843  0.2030  0.2839
 1144TIP3    H124923   5.575   5.811  11.250  0.2231  0.0534 -0.4841
 1144TIP3    H224924   5.498   5.865  11.131  0.8551  3.0232  0.3639
 1145TIP3   OH224925   4.731   3.499  14.228 -0.9933 -0.0937 -0.1371
 1145TIP3    H124926   4.792   3.484  14.301 -2.0867 -0.8671  0.6580
 1145TIP3    H224927   4.705   3.590  14.237  2.3268  1.2443 -2.3361
 1146TIP3   OH224928   4.908   5.269  12.428 -0.6890 -0.5023 -0.0161
 1146TIP3    H124929   4.876   5.239  12.343 -1.6195 -2.1002  0.8554
 1146TIP3    H224930   4.954   5.194  12.465  2.7061  1.1741 -0.4536
 1147TIP3   OH224931   5.747   2.882  11.710  0.2661  0.0436 -0.7280
 1147TIP3    H124932   5.749   2.978  11.703  0.6183  0.0686 -0.3119
 1147TIP3    H224933   5.659   2.858  11.681  0.5275  0.4061 -1.8682
 1148TIP3   OH224934   3.123   2.353   5.292 -0.1124  0.2585 -0.5458
 1148TIP3    H124935   3.044   2.300   5.306 -0.0123  0.0655 -0.6983
 1148TIP3    H224936   3.094   2.424   5.235 -0.1984  0.2366 -0.5295
 1149TIP3   OH224937   1.568   6.652  14.122  0.4896 -0.0738  0.0363
 1149TIP3    H124938   1.514   6.685  14.194  2.2404 -0.3599  1.5526
 1149TIP3    H224939   1.568   6.557  14.134  1.8362 -0.0341  0.4807
 1150TIP3   OH224940   4.150   6.197  11.425  0.1426 -0.0263  0.2301
 1150TIP3    H124941   4.158   6.102  11.434 -2.1099 -0.2977 -0.1400
 1150TIP3    H224942   4.164   6.214  11.332 -1.7781 -0.3230 -0.1495
 1151TIP3   OH224943   0.170   2.562   5.962 -0.5800 -0.3785 -0.2716
 1151TIP3    H124944   0.156   2.585   6.053 -0.1918 -3.2199  0.5915
 1151TIP3    H224945   0.100   2.501   5.941  0.3559 -1.1431 -1.3000
 1152TIP3   OH224946   6.797   3.269  13.301 -0.5485  0.8025  0.4942
 1152TIP3    H124947   6.834   3.343  13.348 -1.2084  1.3625  0.1525
 1152TIP3    H224948   6.764   3.211  13.369  2.5772 -0.6483  0.9216
 1153TIP3   OH224949   2.027   0.760   1.501 -0.3492  0.4503 -0.1051
 1153TIP3    H124950   1.994   0.849   1.505  1.1653  1.0449  0.0183
 1153TIP3    H224951   1.960   0.706   1.543 -1.2134  1.5502 -0.0572
 1154TIP3   OH224952   4.977   2.536  15.244  0.5986  0.6670 -0.4396
 1154TIP3    H124953   4.971   2.568  15.154 -0.6053 -0.3443 -0.7558
 1154TIP3    H224954   4.886   2.527  15.272  0.8377 -1.9098 -0.2288
 1155TIP3   OH224955   3.234   6.473   3.654  0.1028  0.4548 -0.5117
 1155TIP3    H124956   3.280   6.518   3.725 -1.3137  0.1770  0.6160
 1155TIP3    H224957   3.304   6.428   3.606  1.2134  1.5184  0.0421
 1156TIP3   OH224958   5.036   5.741  15.284  0.0268 -0.0965  0.0389
 1156TIP3    H124959   4.968   5.807  15.275  0.2058  0.0264 -0.4123
 1156TIP3    H224960   5.093   5.754  15.209 -0.0985 -0.9557 -0.2213
 1157TIP3   OH224961   4.092   1.068  11.629 -0.5107 -0.6245  0.2032
 1157TIP3    H124962   4.030   1.098  11.694 -0.1661 -0.6376  0.5426
 1157TIP3    H224963   4.145   1.146  11.608  1.8376 -1.3826  2.6977
 1158TIP3   OH224964   1.659   0.958  16.494 -0.3404 -0.6479  0.3007
 1158TIP3    H124965   1.619   0.890  16.440  1.4002 -1.1670 -0.3949
 1158TIP3    H224966   1.695   0.911  16.569  2.3356 -0.8150 -0.9972
 1159TIP3   OH224967   3.052   4.578  15.003  0.2881 -0.2021  0.4363
 1159TIP3    H124968   3.110   4.502  14.997 -0.6148 -0.9224  0.4908
 1159TIP3    H224969   3.110   4.653  15.005  1.2543 -0.9501  1.4804
 1160TIP3   OH224970   2.172   0.752  13.681 -0.0295 -0.4694 -0.5177
 1160TIP3    H124971   2.256   0.723  13.717 -0.3441 -3.6539 -2.0804
 1160TIP3    H224972   2.192   0.836  13.639  2.4158 -1.1432 -0.8498
 1161TIP3   OH224973   6.096   0.397  10.505 -0.4871 -0.1969 -0.0435
 1161TIP3    H124974   6.068   0.314  10.467 -0.8696 -1.0081  1.9410
 1161TIP3    H224975   6.040   0.463  10.463 -0.0119 -0.8515 -1.8147
 1162TIP3   OH224976   0.822   4.126  14.763 -0.1745  0.1969 -0.2136
 1162TIP3    H124977   0.740   4.159  14.800  0.5155  0.4554  1.1433
 1162TIP3    H224978   0.805   4.034  14.744 -0.9557  0.3942 -0.5160
 1163TIP3   OH224979   2.795   2.916  13.315 -0.2801 -0.2588 -0.1122
 1163TIP3    H124980   2.725   2.902  13.251 -0.3797 -1.6674  0.2696
 1163TIP3    H224981   2.850   2.984  13.275 -0.8695 -0.4202 -1.2475
 1164TIP3   OH224982   0.455   5.772   4.521  0.1137 -0.3879 -0.6306
 1164TIP3    H124983   0.465   5.682   4.552  0.4402  0.8156  3.2331
 1164TIP3    H224984   0.543   5.797   4.490  0.3496 -0.9899 -0.4525
 1165TIP3   OH224985   3.276   4.570  12.069 -0.3031  0.0254  0.0132
 1165TIP3    H124986   3.270   4.475  12.080 -1.2117  0.0228 -0.3957
 1165TIP3    H224987   3.341   4.598  12.133 -0.6451 -0.7694  0.7216
 1166TIP3   OH224988   0.467   2.098  11.418  0.8833  0.4626  0.1644
 1166TIP3    H124989   0.483   2.026  11.357  1.8997  1.8835 -1.3148
 1166TIP3    H224990   0.549   2.109  11.466  1.0362  1.2089 -0.2555
 1167TIP3   OH224991   6.354   3.198   2.924 -0.0239  0.2358 -0.3596
 1167TIP3    H124992   6.342   3.259   2.851 -3.1930 -0.7556 -0.8428
 1167TIP3    H224993   6.381   3.116   2.883 -0.9947 -0.0920 -0.3801
 1168TIP3   OH224994   4.241   4.404   5.372 -0.0160 -0.2168 -0.1373
 1168TIP3    H124995   4.150   4.375   5.378 -0.0109 -0.1645  0.2028
 1168TIP3    H224996   4.242   4.488   5.418  0.1919 -0.1857 -0.1997
 1169TIP3   OH224997   4.320   5.676  13.478  0.1191  0.2470 -0.4922
 1169TIP3    H124998   4.341   5.595  13.432  0.6535 -0.3151  0.6869
 1169TIP3    H224999   4.323   5.652  13.571 -2.3471  0.9706 -0.1563
 1170TIP3   OH225000   5.306   0.135   1.348  0.0333  0.3512  0.2066
 1170TIP3    H125001   5.343   0.188   1.418 -0.7088  2.7775 -1.1108
 1170TIP3    H225002   5.375   0.073   1.325  1.5302  1.7171  0.8786
 1171TIP3   OH225003   3.779   2.819  14.955 -0.1173  0.5994  0.0042
 1171TIP3    H125004   3.789   2.794  14.863 -0.6488 -2.9304  0.7697
 1171TIP3    H225005   3.690   2.855  14.961 -0.2429  0.4324 -0.7931
 1172TIP3   OH225006   4.969   4.604   2.619  0.8704  0.2206 -0.4678
 1172TIP3    H125007   4.947   4.684   2.572  0.0453 -0.0167 -0.5079
 1172TIP3    H225008   5.061   4.587   2.597  1.5400  1.9817  0.7808
 1173TIP3   OH225009   1.908   3.372  10.925  0.1064  0.1673 -0.2958
 1173TIP3    H125010   1.818   3.370  10.893 -0.4339  3.1259  0.7526
 1173TIP3    H225011   1.962   3.368  10.846 -1.0210  0.7129 -1.1118
 1174TIP3   OH225012   6.547   0.045   1.849 -0.0986  0.1270 -0.1282
 1174TIP3    H125013   6.572   0.138   1.844  0.7099 -0.1141 -0.6777
 1174TIP3    H225014   6.559   0.023   1.942 -0.8232  0.7050  0.1176
 1175TIP3   OH225015   3.480   0.273  12.217 -0.1300 -0.2362  0.5329
 1175TIP3    H125016   3.443   0.348  12.170 -0.2114 -0.7474 -0.2295
 1175TIP3    H225017   3.419   0.201  12.199  1.9462 -1.4956 -1.9568
 1176TIP3   OH225018   4.458   1.181   3.007 -0.1366 -0.8431 -0.8268
 1176TIP3    H125019   4.434   1.104   3.058  1.5664 -0.6907  0.2714
 1176TIP3    H225020   4.388   1.244   3.023  0.9093 -0.3234  2.4156
 1177TIP3   OH225021   1.535   0.847  10.858 -0.0574  0.3443  0.2899
 1177TIP3    H125022   1.478   0.794  10.912  2.3020 -1.9019  0.7556
 1177TIP3    H225023   1.518   0.817  10.768  0.0534  0.0487  0.3692
 1178TIP3   OH225024   2.220   5.909  15.522 -0.0049 -0.3107  0.2182
 1178TIP3    H125025   2.161   5.920  15.447 -0.5829 -0.5333  0.6366
 1178TIP3    H225026   2.193   5.977  15.584 -1.2792 -1.7846  1.3376
 1179TIP3   OH225027   6.157   3.461   4.604 -0.1632  0.1538  0.3921
 1179TIP3    H125028   6.065   3.471   4.579 -0.2971  2.1186  1.4765
 1179TIP3    H225029   6.203   3.528   4.553  0.5514 -0.2302  0.5176
 1180TIP3   OH225030   3.348   0.016  14.122 -0.4457 -0.3212 -0.1094
 1180TIP3    H125031   3.439   0.038  14.102  0.0131  1.1675  3.0287
 1180TIP3    H225032   3.350  -0.077  14.146  0.0164 -0.5828 -1.1318
 1181TIP3   OH225033   0.788   2.969  13.028 -0.0079 -0.3163  0.1335
 1181TIP3    H125034   0.699   3.000  13.044  0.6936  1.0335  1.5995
 1181TIP3    H225035   0.819   2.939  13.114  1.3685  0.3705 -0.0994
 1182TIP3   OH225036   2.371   3.070   4.097 -0.0173 -0.0271 -0.3884
 1182TIP3    H125037   2.342   2.996   4.149  2.3848  0.3095  1.6173
 1182TIP3    H225038   2.332   3.147   4.139 -0.1836  0.0532 -0.6880
 1183TIP3   OH225039   1.160   5.986  12.046  0.5888 -0.0096  0.8292
 1183TIP3    H125040   1.256   5.985  12.043  0.6073  1.2378 -1.0620
 1183TIP3    H225041   1.134   6.002  11.955 -1.5374 -3.4617  0.6446
 1184TIP3   OH225042   6.115   1.068  12.143  0.3247  0.1413 -0.3203
 1184TIP3    H125043   6.207   1.071  12.169 -0.3955  0.8003  2.5034
 1184TIP3    H225044   6.069   1.032  12.220 -1.9738  1.5844 -0.8988
 1185TIP3   OH225045   1.695   0.228   5.642 -0.0682  0.1465 -0.4521
 1185TIP3    H125046   1.737   0.143   5.659  0.0374  0.4650  0.9740
 1185TIP3    H225047   1.715   0.281   5.719 -1.1287  1.0919 -0.7992
 1186TIP3   OH225048   4.966   4.954   2.777  0.6893  0.0825 -0.0987
 1186TIP3    H125049   4.882   4.962   2.821  1.6089  0.7645  1.6247
 1186TIP3    H225050   4.944   4.941   2.685 -1.3161 -1.6274  0.5548
 1187TIP3   OH225051   1.055   6.428   1.129  0.1602  0.1284  0.0276
 1187TIP3    H125052   1.012   6.371   1.193  0.3682  0.8528  0.8330
 1187TIP3    H225053   1.085   6.369   1.061  2.9482 -1.1814  2.1990
 1188TIP3   OH225054   6.688   0.124  15.195 -0.2045 -0.4140 -0.3054
 1188TIP3    H125055   6.708   0.061  15.264 -2.1696  0.1778  0.8706
 1188TIP3    H225056   6.595   0.110  15.175 -0.6724  1.9386 -0.1265
 1189TIP3   OH225057   6.286   3.105  16.830  0.2479 -0.4663  0.2543
 1189TIP3    H125058   6.228   3.181  16.836 -0.2608 -0.8832  0.7578
 1189TIP3    H225059   6.298   3.091  16.736 -2.0243 -1.5156  0.0570
 1190TIP3   OH225060   2.836   2.763  16.245 -0.0445  0.6463  0.0626
 1190TIP3    H125061   2.875   2.850  16.247  2.2001 -0.2608 -0.1778
 1190TIP3    H225062   2.873   2.719  16.322 -1.6552  0.0955  0.5496
 1191TIP3   OH225063   4.113   1.531  12.899 -0.3728  0.0234  0.2903
 1191TIP3    H125064   4.092   1.550  12.991  0.3358 -0.1742  0.4935
 1191TIP3    H225065   4.096   1.614  12.854 -1.7352 -0.1568  0.4106
 1192TIP3   OH225066   3.116   2.648  13.892  0.0981 -0.2561  0.8145
 1192TIP3    H125067   3.146   2.739  13.892  0.1460 -0.2668  0.1947
 1192TIP3    H225068   3.098   2.628  13.984 -1.2598  0.8350  0.8176
 1193TIP3   OH225069   6.397   5.924  15.295  0.4562 -0.4102  0.0666
 1193TIP3    H125070   6.333   5.862  15.331 -0.0779  0.3486  0.4285
 1193TIP3    H225071   6.482   5.886  15.319  0.1687  0.5631  3.1226
 1194TIP3   OH225072   4.745   4.266  12.007  0.4910 -0.0634  0.7339
 1194TIP3    H125073   4.670   4.256  11.948 -0.4559  0.1834  1.8596
 1194TIP3    H225074   4.796   4.186  11.995  0.2977 -0.0417 -0.3706
 1195TIP3   OH225075   0.385   4.117  15.381  0.3467  0.3297  0.2910
 1195TIP3    H125076   0.399   4.173  15.305 -2.1058 -0.3041 -0.7132
 1195TIP3    H225077   0.386   4.177  15.455 -0.5665  1.4701 -0.5851
 1196TIP3   OH225078   3.525   3.083  14.672 -0.2935 -0.0377 -0.1187
 1196TIP3    H125079   3.475   3.161  14.698 -2.7831 -1.3319 -0.7253
 1196TIP3    H225080   3.467   3.010  14.690  0.9610 -1.5800 -1.9426
 1197TIP3   OH225081   0.085   4.430  10.946  0.1390  0.0518 -0.1761
 1197TIP3    H125082   0.131   4.391  10.872  0.4506 -0.2301  0.1621
 1197TIP3    H225083  -0.003   4.446  10.914  0.3980  0.3495 -0.7490
 1198TIP3   OH225084   4.003   2.047  11.369  0.0926  0.2394 -0.8569
 1198TIP3    H125085   3.976   2.113  11.305 -0.6972 -0.7055 -1.5320
 1198TIP3    H225086   3.928   2.038  11.427  0.9936  1.4604  0.5613
 1199TIP3   OH225087   6.123   4.200  12.906  0.1510  0.4258 -0.1281
 1199TIP3    H125088   6.135   4.217  12.999 -0.5676 -1.5409  0.3820
 1199TIP3    H225089   6.057   4.130  12.903  1.2344 -0.6087 -2.0288
 1200TIP3   OH225090   1.569   2.164  11.802  0.0256  0.2277 -0.2557
 1200TIP3    H125091   1.476   2.157  11.784 -0.6631  1.8595  2.2288
 1200TIP3    H225092   1.590   2.256  11.789  1.3996 -0.1584 -1.0433
 1201TIP3   OH225093   1.441   4.965   3.034 -0.4877 -0.2238  0.1131
 1201TIP3    H125094   1.484   4.886   3.001 -0.4718 -0.1745  0.0139
 1201TIP3    H225095   1.510   5.031   3.034 -0.9862  0.3609 -1.8318
 1202TIP3   OH225096   3.479   2.658   1.305  0.1132  0.6332 -0.0964
 1202TIP3    H125097   3.481   2.567   1.276  0.2446  0.4054  0.6079
 1202TIP3    H225098   3.460   2.653   1.399  2.3267  1.2244  0.4310
 1203TIP3   OH225099   1.019   5.429   1.595  0.0028 -0.1227  0.1778
 1203TIP3    H125100   0.947   5.396   1.648  2.5622 -1.0939  3.3746
 1203TIP3    H225101   1.023   5.522   1.614 -1.1441  0.2431 -1.1292
 1204TIP3   OH225102   6.024   0.394   3.407 -0.2638 -0.4556  0.3273
 1204TIP3    H125103   6.068   0.452   3.344  0.9451 -0.0093  1.5172
 1204TIP3    H225104   5.932   0.416   3.400  0.1695  1.7884  0.8584
 1205TIP3   OH225105   2.274   0.829  11.550 -0.1486  0.3318 -0.0762
 1205TIP3    H125106   2.292   0.754  11.606  0.5432  0.3398 -0.2816
 1205TIP3    H225107   2.330   0.816  11.474 -0.6491  0.6249 -0.4987
 1206TIP3   OH225108   1.494   6.781   1.551 -0.0106  0.1801  0.4506
 1206TIP3    H125109   1.442   6.711   1.513  0.6277  0.5331 -1.1304
 1206TIP3    H225110   1.429   6.841   1.588 -0.8055  0.7403 -1.7007
 1207TIP3   OH225111   0.792   1.789  12.970 -0.0584 -0.1541 -0.2368
 1207TIP3    H125112   0.841   1.788  12.888 -1.2438 -0.7916 -0.9721
 1207TIP3    H225113   0.842   1.733  13.029  0.8846  0.4307 -0.4605
 1208TIP3   OH225114   2.851   1.482  14.753 -0.7300  0.0381  0.5864
 1208TIP3    H125115   2.893   1.402  14.722  1.9655  2.1332 -1.7380
 1208TIP3    H225116   2.784   1.501  14.688  1.8745  2.0045 -1.8235
 1209TIP3   OH225117   5.795   6.251  14.662  0.2820 -0.0324  0.4317
 1209TIP3    H125118   5.881   6.275  14.698 -0.8715  1.9549  2.0140
 1209TIP3    H225119   5.777   6.317  14.597  0.0554 -0.6297 -0.1228
 1210TIP3   OH225120   2.129   5.662   2.859  0.5668  0.6959 -0.2366
 1210TIP3    H125121   2.078   5.582   2.851 -0.5170  1.4143 -0.7111
 1210TIP3    H225122   2.217   5.637   2.832  0.5696 -0.6430  0.9188
 1211TIP3   OH225123   6.010   0.446  15.377 -0.2323  0.0469 -0.0186
 1211TIP3    H125124   5.918   0.421  15.384 -0.6743  1.4183 -0.5682
 1211TIP3    H225125   6.053   0.401  15.451 -1.1303 -1.4037 -0.3433
 1212TIP3   OH225126   4.149   2.324  10.989  0.0510  0.0706 -0.1774
 1212TIP3    H125127   4.064   2.342  10.949 -0.3400  0.3049  0.7195
 1212TIP3    H225128   4.184   2.410  11.012 -0.4495 -0.1105  1.3748
 1213TIP3   OH225129   5.179   4.806   3.179 -0.0124 -0.0174  0.2785
 1213TIP3    H125130   5.208   4.767   3.096 -0.2720 -0.5041  0.4142
 1213TIP3    H225131   5.100   4.856   3.155  0.5600  0.7828  0.0275
 1214TIP3   OH225132   2.986   5.654   0.768 -0.1189 -0.2460 -0.5832
 1214TIP3    H125133   2.899   5.627   0.738 -0.6066  0.2309  0.3335
 1214TIP3    H225134   2.968   5.708   0.846  1.0438 -0.8435  0.1222
 1215TIP3   OH225135   1.023   3.786   5.608 -0.2869  0.0682  0.4530
 1215TIP3    H125136   0.931   3.797   5.587  0.0776 -0.1892 -1.4999
 1215TIP3    H225137   1.053   3.715   5.551  0.8793 -0.6110  1.8338
 1216TIP3   OH225138   4.218   6.617  11.566  0.2694 -0.3131  0.3760
 1216TIP3    H125139   4.182   6.531  11.543 -1.2069  0.3621  0.0304
 1216TIP3    H225140   4.245   6.655  11.483 -1.7266  0.6732  0.1270
 1217TIP3   OH225141   5.062   3.942   0.045  0.0595 -0.4468  0.4910
 1217TIP3    H125142   5.123   4.015   0.051 -1.0658  0.4346  1.5457
 1217TIP3    H225143   5.076   3.893   0.126  0.4388 -1.1365  0.0239
 1218TIP3   OH225144   1.040   2.066  16.757 -0.4612  0.3011 -0.0356
 1218TIP3    H125145   1.111   2.089  16.817  0.2834  0.5468 -0.9961
 1218TIP3    H225146   1.041   1.971  16.753  0.3431  0.3316 -0.6639
 1219TIP3   OH225147   5.177   1.605  10.376  0.5325 -0.0252  0.4433
 1219TIP3    H125148   5.090   1.600  10.415 -0.2226  1.9978 -0.7909
 1219TIP3    H225149   5.215   1.686  10.411  2.2150 -1.1728  1.4330
 1220TIP3   OH225150   3.529   2.450  14.826  0.1762 -0.1755 -0.0543
 1220TIP3    H125151   3.493   2.484  14.744  2.6919 -0.5175 -1.4083
 1220TIP3    H225152   3.487   2.502  14.894 -1.8693  0.2573 -1.5257
 1221TIP3   OH225153   0.452   3.243  16.338  0.3174 -0.1751  0.3430
 1221TIP3    H125154   0.444   3.209  16.427 -1.6947 -0.9100 -0.0721
 1221TIP3    H225155   0.463   3.337  16.349 -1.4000 -0.0525  1.3824
 1222TIP3   OH225156   1.645   0.092  15.347  0.1987  1.1367 -0.4438
 1222TIP3    H125157   1.613   0.110  15.259 -0.9100  0.3043 -0.2339
 1222TIP3    H225158   1.572   0.114  15.404  0.3574  0.2205  0.1366
 1223TIP3   OH225159   5.287   2.306  10.320 -0.6813 -0.3374 -0.7682
 1223TIP3    H125160   5.282   2.234  10.258  0.3519  0.0780 -1.3562
 1223TIP3    H225161   5.342   2.372  10.277  0.0870 -0.0463  0.5820
 1224TIP3   OH225162   1.385   0.634  13.309 -0.4354  0.4437  0.7702
 1224TIP3    H125163   1.437   0.587  13.374  0.1725 -0.0013 -0.0207
 1224TIP3    H225164   1.401   0.588  13.227 -1.2228  0.9697  0.3058
 1225TIP3   OH225165   4.704   0.644  14.508 -0.6889  0.0078 -0.2153
 1225TIP3    H125166   4.644   0.717  14.524 -0.1685  0.2304  0.8558
 1225TIP3    H225167   4.787   0.673  14.547  0.2084 -0.1551 -1.9327
 1226TIP3   OH225168   4.455   1.508  14.782  0.2650 -1.1797 -0.0747
 1226TIP3    H125169   4.384   1.467  14.831  0.2474 -1.6550 -0.4887
 1226TIP3    H225170   4.525   1.442  14.782  0.5089 -0.9222 -0.1186
 1227TIP3   OH225171   5.815   6.232  13.194  0.5919  0.1540  0.1560
 1227TIP3    H125172   5.738   6.274  13.156  1.6610  0.6100 -1.6097
 1227TIP3    H225173   5.783   6.192  13.275 -1.8066 -0.8243 -1.1733
 1228TIP3   OH225174   6.623   0.189  12.642 -0.5271  0.3206  0.0361
 1228TIP3    H125175   6.528   0.190  12.641 -0.5952 -1.7209 -0.2258
 1228TIP3    H225176   6.646   0.147  12.725  0.0428 -1.2886 -0.8854
 1229TIP3   OH225177   5.542   4.083   0.773  0.0213  0.4326 -0.2374
 1229TIP3    H125178   5.481   4.018   0.808  1.6562 -0.5601  0.9149
 1229TIP3    H225179   5.626   4.037   0.769  1.5082  2.7401  1.6374
 1230TIP3   OH225180   4.591   2.625   6.354  0.3272  0.0991 -0.0198
 1230TIP3    H125181   4.668   2.651   6.404  0.5484 -0.5605  0.0008
 1230TIP3    H225182   4.626   2.594   6.270 -0.0380  1.1547 -0.5732
 1231TIP3   OH225183   0.738   2.488  17.143 -0.0272 -0.2666  0.5045
 1231TIP3    H125184   0.741   2.395  17.163 -0.8929 -1.0794 -2.6771
 1231TIP3    H225185   0.812   2.503  17.084 -0.5177  0.8212  0.1390
 1232TIP3   OH225186   0.159   2.604  11.192  0.0799  0.0888 -0.6653
 1232TIP3    H125187   0.124   2.630  11.107 -0.9996  2.0203  0.3154
 1232TIP3    H225188   0.210   2.525  11.173  0.1558  0.6444 -3.1429
 1233TIP3   OH225189   6.452   4.992  14.382 -0.0937 -0.0074 -0.2499
 1233TIP3    H125190   6.364   5.012  14.349 -0.4843  0.5318  1.0811
 1233TIP3    H225191   6.446   4.903  14.415  0.4878 -0.8258 -2.1665
 1234TIP3   OH225192   5.632   6.573  13.698 -0.0328  0.2076  0.4500
 1234TIP3    H125193   5.614   6.625  13.620 -0.2612 -0.0633  0.3196
 1234TIP3    H225194   5.684   6.499  13.666  2.0276  1.3840  0.9406
 1235TIP3   OH225195   6.666   4.238   1.749 -0.2107 -0.1187  0.4056
 1235TIP3    H125196   6.706   4.151   1.750  0.1544  0.0529  0.9810
 1235TIP3    H225197   6.667   4.264   1.656 -1.0564 -1.0568  0.1211
 1236TIP3   OH225198   4.236   1.773  15.747  0.4479 -0.3275 -0.0162
 1236TIP3    H125199   4.202   1.813  15.667 -0.3724 -1.6110 -0.3441
 1236TIP3    H225200   4.166   1.787  15.811  0.7570 -0.0170  0.2536
 1237TIP3   OH225201   6.161   4.730  13.654 -0.2590  0.0718 -0.2140
 1237TIP3    H125202   6.178   4.799  13.589 -1.1422  1.3918  0.8956
 1237TIP3    H225203   6.150   4.777  13.736  0.9802 -1.5719  0.9634
 1238TIP3   OH225204   3.361   4.308  11.595  0.6018  0.0879 -0.7803
 1238TIP3    H125205   3.333   4.216  11.594  1.9015 -0.4113  1.5347
 1238TIP3    H225206   3.280   4.358  11.599 -0.1714 -0.8725 -2.9542
 1239TIP3   OH225207   1.205   3.197  16.510  0.1043 -0.9141 -0.3958
 1239TIP3    H125208   1.133   3.252  16.543  0.3260  0.8024 -2.5741
 1239TIP3    H225209   1.161   3.129  16.459 -0.0705  0.7862 -2.6835
 1240TIP3   OH225210   0.119   2.138  12.033 -0.5022  0.0884 -0.2605
 1240TIP3    H125211   0.032   2.152  12.070  0.0653 -0.5015  1.3819
 1240TIP3    H225212   0.103   2.119  11.941 -1.9245  2.4695 -0.5932
 1241TIP3   OH225213   5.916   0.135  16.884  0.0070  0.5609  0.2424
 1241TIP3    H125214   5.931   0.148  16.978  1.3829 -0.0117  0.1248
 1241TIP3    H225215   5.854   0.204  16.860 -0.5825  0.5547  1.6167
 1242TIP3   OH225216   2.547   0.263  14.516 -0.1932 -0.0450 -0.4297
 1242TIP3    H125217   2.596   0.308  14.584 -0.0595 -1.2818  0.3209
 1242TIP3    H225218   2.487   0.205  14.563 -0.3789 -0.6384 -1.3547
 1243TIP3   OH225219   5.238   2.104   0.260  0.2938  0.3868 -0.1956
 1243TIP3    H125220   5.241   2.151   0.177  0.6182 -0.5427 -0.7304
 1243TIP3    H225221   5.289   2.024   0.244 -0.5589 -0.3360  0.5600
 1244TIP3   OH225222   3.238   0.880  14.634  0.3798  0.2233 -0.1734
 1244TIP3    H125223   3.142   0.885  14.631  0.2224 -2.1415 -1.0898
 1244TIP3    H225224   3.267   0.971  14.631 -1.8248  0.9869 -0.0227
 1245TIP3   OH225225   1.010   6.760   2.113  0.6256  0.6296 -0.2925
 1245TIP3    H125226   0.968   6.830   2.163  0.3655  0.7086 -0.6222
 1245TIP3    H225227   0.942   6.694   2.102  1.3595 -0.5773  1.6729
 1246TIP3   OH225228   4.259   1.419  14.572  0.1662  0.4348  0.4315
 1246TIP3    H125229   4.196   1.482  14.537  1.6081  0.5339 -2.1857
 1246TIP3    H225230   4.325   1.473  14.616  0.0744  0.5492  0.4280
 1247TIP3   OH225231   4.737   6.040   5.545  0.6026  0.5008 -0.4057
 1247TIP3    H125232   4.815   6.042   5.600  1.4180  1.2163 -1.5517
 1247TIP3    H225233   4.678   6.105   5.584  0.5040 -0.1246  0.5288
 1248TIP3   OH225234   0.525   5.113   3.354  0.1448  0.0244  0.0611
 1248TIP3    H125235   0.502   5.035   3.303  1.0879  1.7553 -3.3270
 1248TIP3    H225236   0.593   5.157   3.302  1.3929  1.9198  3.0082
 1249TIP3   OH225237   2.782   2.590  13.313  0.3510  0.0987  0.3231
 1249TIP3    H125238   2.741   2.676  13.304 -0.0687 -0.0255  0.9935
 1249TIP3    H225239   2.750   2.556  13.396  0.1582 -0.8996 -0.1365
 1250TIP3   OH225240   4.172   5.634   2.637 -0.3114 -0.5176 -0.4189
 1250TIP3    H125241   4.196   5.542   2.648 -2.4207 -1.0032  0.4851
 1250TIP3    H225242   4.079   5.633   2.614 -0.5803  1.4048  0.3901
 1251TIP3   OH225243   3.152   3.772   2.461 -0.2021  0.6471  0.3550
 1251TIP3    H125244   3.175   3.807   2.547 -0.7674  2.2632 -0.1158
 1251TIP3    H225245   3.175   3.841   2.399  1.2686 -0.9138 -0.9701
 1252TIP3   OH225246   1.567   1.287  14.276 -0.0661  1.1330 -0.1123
 1252TIP3    H125247   1.632   1.277  14.207  0.0513  1.6185 -0.0734
 1252TIP3    H225248   1.494   1.332  14.233 -0.0407  1.3279  0.0469
 1253TIP3   OH225249   3.610   5.809  15.353  0.3214 -0.5612  0.6594
 1253TIP3    H125250   3.551   5.736  15.332 -1.4677  0.7020  1.1208
 1253TIP3    H225251   3.675   5.807  15.283 -1.8662 -0.3223 -1.5172
 1254TIP3   OH225252   3.095   4.598   3.647 -0.6833 -0.2393  0.7013
 1254TIP3    H125253   3.012   4.644   3.641 -0.2127  0.6411  0.6972
 1254TIP3    H225254   3.160   4.662   3.617 -0.2329 -1.6581 -1.6276
 1255TIP3   OH225255   6.673   2.367   2.416 -0.2664  0.0709  0.8798
 1255TIP3    H125256   6.627   2.283   2.411 -1.3245  0.7089 -1.2410
 1255TIP3    H225257   6.640   2.408   2.496  0.9252 -1.8215  2.4506
 1256TIP3   OH225258   5.674   4.924   2.491  0.1369 -0.0540  0.3355
 1256TIP3    H125259   5.672   5.014   2.461  2.9961 -0.2025 -0.5180
 1256TIP3    H225260   5.604   4.881   2.441 -0.9604  1.5283  0.4214
 1257TIP3   OH225261   0.796   1.084  15.454  0.3225  0.1111 -0.2485
 1257TIP3    H125262   0.758   0.996  15.448 -1.9104  1.0494 -1.2639
 1257TIP3    H225263   0.873   1.081  15.397 -0.6815 -0.7703 -1.6348
 1258TIP3   OH225264   4.306   6.616  12.388 -0.1723  0.2920 -0.1086
 1258TIP3    H125265   4.309   6.684  12.454 -0.1272  0.0479  0.1415
 1258TIP3    H225266   4.362   6.648  12.317 -2.4249  1.8625 -1.3020
 1259TIP3   OH225267   4.886   6.682  14.587  0.0662 -0.1371 -0.0022
 1259TIP3    H125268   4.822   6.614  14.605 -0.9505  0.5860 -0.7667
 1259TIP3    H225269   4.861   6.717  14.501  1.3788  0.2805 -0.2408
 1260TIP3   OH225270   4.487   4.990  16.365 -0.3325  0.4152  0.0877
 1260TIP3    H125271   4.568   5.036  16.343  0.3785 -1.1333 -0.7109
 1260TIP3    H225272   4.495   4.969  16.458  0.6007 -0.5032 -0.1912
 1261TIP3   OH225273   2.875   0.310   3.757  0.7176 -0.0827  0.0239
 1261TIP3    H125274   2.806   0.294   3.822 -0.5889  2.4217 -0.5908
 1261TIP3    H225275   2.919   0.226   3.747 -0.6408 -1.1709  2.2889
 1262TIP3   OH225276   1.880   4.940   2.130  0.0453  0.2958  0.0331
 1262TIP3    H125277   1.859   4.847   2.137  0.7441  0.0880 -0.5703
 1262TIP3    H225278   1.873   4.973   2.220  1.8215 -0.7748  0.6032
 1263TIP3   OH225279   3.107   0.720   1.678 -0.0026  0.0437  0.4321
 1263TIP3    H125280   3.163   0.725   1.601  0.5560 -0.9215  0.7532
 1263TIP3    H225281   3.026   0.765   1.653  0.1949 -0.2035 -0.6858
 1264TIP3   OH225282   1.637   2.647   1.695  0.5820  0.6100  0.0788
 1264TIP3    H125283   1.550   2.687   1.701  0.2390  0.1980 -1.7159
 1264TIP3    H225284   1.674   2.659   1.783 -1.2952  0.7342  0.9113
 1265TIP3   OH225285   3.055   2.514  12.558  0.3588  0.0613  0.0638
 1265TIP3    H125286   3.052   2.444  12.623 -0.5422  1.0318  1.0948
 1265TIP3    H225287   3.044   2.468  12.474  1.0356 -1.1533  0.6130
 1266TIP3   OH225288   4.135   0.019  16.033  0.3328  0.1212  0.7722
 1266TIP3    H125289   4.209  -0.035  16.004  0.8829  1.5482 -0.6807
 1266TIP3    H225290   4.065  -0.043  16.051  1.1556 -1.1209 -0.1328
 1267TIP3   OH225291   2.604   2.179   3.305 -0.0982  0.3229  0.1441
 1267TIP3    H125292   2.509   2.195   3.306 -0.2121 -0.3130  0.6982
 1267TIP3    H225293   2.629   2.190   3.213 -1.0334 -1.2348 -0.3473
 1268TIP3   OH225294   3.826   6.131  13.668 -0.0342  0.1716 -0.3265
 1268TIP3    H125295   3.863   6.209  13.710  0.7560 -0.1450 -0.4296
 1268TIP3    H225296   3.735   6.129  13.699  0.0090  0.9835 -0.1154
 1269TIP3   OH225297   6.808   3.441  15.131  0.2536 -0.1962 -0.1576
 1269TIP3    H125298   6.880   3.450  15.068  0.5505  1.2270  0.3354
 1269TIP3    H225299   6.839   3.489  15.208 -0.6002 -0.8890  0.6247
 1270TIP3   OH225300   1.945   5.145  14.890 -0.2550  0.3360 -0.0310
 1270TIP3    H125301   1.962   5.164  14.797 -1.1903  0.9302 -0.0912
 1270TIP3    H225302   1.994   5.213  14.937  2.6267 -1.6260  0.0836
 1271TIP3   OH225303   5.165   1.276  16.253 -0.2344 -0.2354  0.4161
 1271TIP3    H125304   5.196   1.361  16.220  0.5004 -0.9975 -0.9488
 1271TIP3    H225305   5.100   1.299  16.319  0.0166  1.3964  0.1548
 1272TIP3   OH225306   6.359   1.805  10.529  0.1659 -0.3787 -0.0425
 1272TIP3    H125307   6.297   1.871  10.498  2.3019  0.9660 -1.6880
 1272TIP3    H225308   6.348   1.731  10.469  1.0291  0.3712 -1.1475
 1273TIP3   OH225309   6.743   5.627   5.972 -0.4263 -0.7965  0.2045
 1273TIP3    H125310   6.797   5.596   6.045 -0.1383 -0.1349  0.2842
 1273TIP3    H225311   6.654   5.599   5.994 -0.6390  0.8366  1.6949
 1274TIP3   OH225312   6.336   5.179  15.759 -0.6708  0.5506  0.0784
 1274TIP3    H125313   6.320   5.203  15.668  1.1851  0.3156 -0.3470
 1274TIP3    H225314   6.346   5.262  15.805  0.1354  0.6569 -0.2846
 1275TIP3   OH225315   4.159   4.863  13.890 -0.1128 -0.9079  0.1084
 1275TIP3    H125316   4.148   4.810  13.969 -0.0851 -0.2768  0.5432
 1275TIP3    H225317   4.070   4.887  13.864 -0.0490  1.5393  1.7997
 1276TIP3   OH225318   4.311   0.633  13.458  0.0278 -0.1435 -0.1877
 1276TIP3    H125319   4.399   0.604  13.433  0.2684 -0.8659  1.3783
 1276TIP3    H225320   4.290   0.581  13.536 -1.2080  1.0158  0.2892
 1277TIP3   OH225321   1.085   2.281  12.744 -0.0047  0.1568  0.2582
 1277TIP3    H125322   1.163   2.317  12.702  0.1963 -0.2232  0.3021
 1277TIP3    H225323   1.051   2.217  12.682 -1.0289  1.2137 -0.3397
 1278TIP3   OH225324   2.503   5.626  17.102  0.1618  0.0447 -0.1517
 1278TIP3    H125325   2.470   5.702  17.149  0.6377  1.2570 -1.6875
 1278TIP3    H225326   2.426   5.572  17.085  0.1064 -0.9890  2.8571
 1279TIP3   OH225327   2.343   2.309   3.673 -0.0250 -0.2690 -0.5412
 1279TIP3    H125328   2.250   2.319   3.695 -0.0731  0.7118 -1.0879
 1279TIP3    H225329   2.369   2.396   3.642  0.7380 -0.8736 -1.6575
 1280TIP3   OH225330   2.776   3.857  16.388 -0.2770  0.3045 -0.1446
 1280TIP3    H125331   2.839   3.894  16.325  0.3393 -2.5275 -1.3392
 1280TIP3    H225332   2.786   3.912  16.466 -0.0537  3.0826 -1.9778
 1281TIP3   OH225333   3.784   0.878  14.160  0.2819  0.4522  0.1367
 1281TIP3    H125334   3.771   0.967  14.192  2.6781  0.8986  0.0472
 1281TIP3    H225335   3.821   0.889  14.072 -1.4728 -0.7011 -0.8172
 1282TIP3   OH225336   6.736   4.522  15.609 -0.0637  0.6679 -0.1976
 1282TIP3    H125337   6.688   4.510  15.527  0.8553 -0.5665 -0.5971
 1282TIP3    H225338   6.760   4.614  15.610  0.5581  0.5544 -1.7109
 1283TIP3   OH225339   2.482   4.392   2.765  0.6331  0.0943 -0.2401
 1283TIP3    H125340   2.474   4.487   2.766 -2.3645 -0.0649 -0.8231
 1283TIP3    H225341   2.515   4.372   2.677 -1.3849  0.5171 -1.1397
 1284TIP3   OH225342   5.358   4.296   3.740  0.1173  0.0916 -0.6206
 1284TIP3    H125343   5.334   4.389   3.741 -1.2438 -0.1769 -2.6383
 1284TIP3    H225344   5.404   4.285   3.657  1.5438 -0.7875  0.2475
 1285TIP3   OH225345   5.599   6.210  16.113  0.6218  0.7169 -0.7636
 1285TIP3    H125346   5.556   6.139  16.066 -1.0802  0.0318  1.6086
 1285TIP3    H225347   5.680   6.170  16.148  0.0104  0.0888 -0.0133
 1286TIP3   OH225348   1.490   1.554   4.825 -0.7154  0.0481  0.1296
 1286TIP3    H125349   1.567   1.608   4.805 -1.2452  0.3621 -1.1695
 1286TIP3    H225350   1.458   1.587   4.909  0.4856 -0.0104  0.6324
 1287TIP3   OH225351   5.468   1.594   3.130  0.0942 -0.1111 -0.7184
 1287TIP3    H125352   5.387   1.588   3.179  0.6550  1.3323  0.4534
 1287TIP3    H225353   5.454   1.539   3.052 -1.2514 -1.4720  0.4329
 1288TIP3   OH225354   5.690   5.849   2.816  0.5777  0.0193  0.4732
 1288TIP3    H125355   5.693   5.780   2.882  0.1465  0.3056  0.7998
 1288TIP3    H225356   5.627   5.818   2.751 -1.1835  0.9949  1.6601
 1289TIP3   OH225357   2.441   1.343   4.944 -0.2576 -0.3109  0.1346
 1289TIP3    H125358   2.412   1.401   5.015 -0.1292  0.1682 -0.2040
 1289TIP3    H225359   2.385   1.266   4.952 -0.6421 -0.0068  0.3847
 1290TIP3   OH225360   4.964   2.289   5.022  0.1773  0.4807 -0.4728
 1290TIP3    H125361   5.054   2.290   4.992  0.0595  0.8409 -0.8225
 1290TIP3    H225362   4.918   2.349   4.963  0.0821  1.7744  0.8539
 1291TIP3   OH225363   6.210   0.733  11.688  0.1321  0.0246 -0.6156
 1291TIP3    H125364   6.115   0.738  11.676  0.3276  1.8375 -1.7278
 1291TIP3    H225365   6.233   0.813  11.735  0.9156 -1.3418  1.4971
 1292TIP3   OH225366   3.143   0.465   3.961 -0.1367 -0.1597  0.2635
 1292TIP3    H125367   3.129   0.535   4.024 -0.0902 -1.3736  1.6957
 1292TIP3    H225368   3.056   0.428   3.946 -0.0239 -0.4677  0.3497
 1293TIP3   OH225369   2.221   3.177   3.543  0.2307  0.4282 -0.2525
 1293TIP3    H125370   2.282   3.116   3.501 -0.1911 -0.8384  0.8758
 1293TIP3    H225371   2.247   3.263   3.511  1.1178 -0.2992 -1.5888
 1294TIP3   OH225372   5.711   4.482  15.668  0.3721  0.4593 -0.0562
 1294TIP3    H125373   5.690   4.509  15.578 -0.2648  1.2160  0.3196
 1294TIP3    H225374   5.800   4.447  15.661 -0.2047 -0.9137 -1.2742
 1295TIP3   OH225375   4.450   6.195   2.032 -0.7773  0.1825  0.2211
 1295TIP3    H125376   4.407   6.165   2.112  0.0080  0.3368  0.7050
 1295TIP3    H225377   4.542   6.202   2.055 -0.7484  1.7226 -0.2504
 1296TIP3   OH225378   1.738   1.789   5.210 -0.0083  0.1269  0.3054
 1296TIP3    H125379   1.677   1.805   5.283 -0.4571  1.6914 -0.3756
 1296TIP3    H225380   1.825   1.803   5.248 -0.2360  0.8509  0.5728
 1297TIP3   OH225381   2.247   1.388   5.607 -0.7124  0.2752 -0.6369
 1297TIP3    H125382   2.233   1.454   5.539  0.6862 -0.1761 -1.3942
 1297TIP3    H225383   2.226   1.305   5.564 -1.1940  0.1021 -0.0808
 1298TIP3   OH225384   6.771   3.382   6.299  0.3516 -0.2136  0.1169
 1298TIP3    H125385   6.703   3.322   6.332  0.5894 -0.6418 -0.1562
 1298TIP3    H225386   6.813   3.416   6.378  0.4032 -0.6320  0.2731
 1299TIP3   OH225387   1.754   0.569  13.648 -0.2152 -0.2870 -0.5415
 1299TIP3    H125388   1.699   0.589  13.724  0.4331  0.0098 -0.1403
 1299TIP3    H225389   1.784   0.479  13.662  0.5477  0.0335 -0.0259
 1300TIP3   OH225390   5.476   1.069   0.320 -0.3132  0.2393 -0.3064
 1300TIP3    H125391   5.553   1.052   0.374  0.1641  1.1524 -0.6941
 1300TIP3    H225392   5.508   1.123   0.248 -0.9321 -0.9819 -1.5428
 1301TIP3   OH225393   5.244   3.634  16.309  0.3408  0.5655  1.0365
 1301TIP3    H125394   5.269   3.726  16.319  0.4592  0.5768  0.6315
 1301TIP3    H225395   5.149   3.634  16.320  0.2358  0.8576  0.1868
 1302TIP3   OH225396   1.707   0.434   4.616  0.2391  0.0743  0.1178
 1302TIP3    H125397   1.733   0.518   4.578  0.0750  0.3941  0.7049
 1302TIP3    H225398   1.616   0.447   4.643  0.7386  0.2953  1.8181
 1303TIP3   OH225399   5.690   4.851   5.719  0.1239  0.1471  0.0044
 1303TIP3    H125400   5.704   4.925   5.659  1.0223 -0.7610 -0.9428
 1303TIP3    H225401   5.634   4.791   5.670 -0.4753  0.1194  0.7106
 1304TIP3   OH225402   0.809   3.938  16.380 -0.6116 -0.3674  0.0474
 1304TIP3    H125403   0.901   3.956  16.398 -0.8126  0.1975  0.5839
 1304TIP3    H225404   0.775   4.021  16.347 -1.7185  0.5842  3.1662
 1305TIP3   OH225405   1.653   4.732   4.291 -0.1494 -0.4552 -0.4696
 1305TIP3    H125406   1.705   4.665   4.248  0.6850 -2.3346  3.0411
 1305TIP3    H225407   1.717   4.799   4.316 -0.1138 -0.7442  0.2347
 1306TIP3   OH225408   4.353   2.535   0.719  0.2295  0.1553 -0.1381
 1306TIP3    H125409   4.286   2.585   0.765  1.1731  1.1948  0.1543
 1306TIP3    H225410   4.383   2.469   0.782  0.8128  0.9275  0.4022
 1307TIP3   OH225411   5.509   2.271   1.710  0.7262  0.4194  0.6856
 1307TIP3    H125412   5.574   2.337   1.733  2.0021 -0.1300 -1.1547
 1307TIP3    H225413   5.464   2.307   1.634  0.4975 -0.2446  0.4997
 1308TIP3   OH225414   1.627   2.046   0.820 -0.1825  0.4461  0.3460
 1308TIP3    H125415   1.576   2.040   0.739 -0.0788  1.6105  0.1674
 1308TIP3    H225416   1.562   2.050   0.889 -0.2782 -0.3133  0.3010
 1309TIP3   OH225417   1.258   0.138  13.812  0.1515 -0.2048  0.2325
 1309TIP3    H125418   1.193   0.077  13.847 -0.3736  1.5081  2.4269
 1309TIP3    H225419   1.300   0.176  13.889 -0.6499  3.3335 -0.9073
 1310TIP3   OH225420   2.424   0.232  13.149 -0.0295  0.0348  0.3185
 1310TIP3    H125421   2.456   0.322  13.149  0.0354  0.0121  0.5568
 1310TIP3    H225422   2.371   0.225  13.069  0.5438  0.0785 -0.0677
 1311TIP3   OH225423   2.936   2.080   2.155 -0.1150 -0.6423 -0.3868
 1311TIP3    H125424   2.853   2.058   2.112 -0.9773 -2.1509  1.8488
 1311TIP3    H225425   2.913   2.147   2.219  0.7959  0.2839 -0.9939
 1312TIP3   OH225426   3.382   5.619  12.939 -0.9528  0.1399  0.6267
 1312TIP3    H125427   3.302   5.605  12.991 -0.0047 -1.3806  1.7759
 1312TIP3    H225428   3.388   5.541  12.883 -0.0507  0.0334  0.8585
 1313TIP3   OH225429   1.047   5.417  15.870 -0.7035 -0.1167  0.6126
 1313TIP3    H125430   1.016   5.479  15.805  0.2693  1.0984  1.2602
 1313TIP3    H225431   0.967   5.384  15.912 -1.2284  0.9365  0.4680
 1314TIP3   OH225432   5.230   0.730   5.683  0.0999 -0.2267 -0.3239
 1314TIP3    H125433   5.168   0.798   5.707 -0.5148 -0.1041 -2.0947
 1314TIP3    H225434   5.291   0.774   5.622  0.9503 -0.7533  0.1205
 1315TIP3   OH225435   3.999   4.362   1.343 -0.0825  0.2137 -0.2454
 1315TIP3    H125436   4.087   4.391   1.366 -0.6005  2.3595 -0.7375
 1315TIP3    H225437   4.012   4.277   1.302  1.6263 -0.0307  0.6836
 1316TIP3   OH225438   2.796   3.334   4.184  0.1301 -0.0544  0.1461
 1316TIP3    H125439   2.721   3.372   4.230  0.2217 -0.6704  0.8214
 1316TIP3    H225440   2.761   3.254   4.144  0.3509 -0.1909  0.2241
 1317TIP3   OH225441   5.292   0.365   3.222 -0.6996 -0.2486  0.1013
 1317TIP3    H125442   5.362   0.302   3.237  0.1314  0.6699  0.2131
 1317TIP3    H225443   5.258   0.344   3.135  1.4877  0.8922 -1.1163
 1318TIP3   OH225444   4.832   2.905  12.584  0.4519 -0.3114 -0.2633
 1318TIP3    H125445   4.859   2.880  12.673  0.9740  1.8093  0.2177
 1318TIP3    H225446   4.896   2.971  12.557  0.2337 -0.8282 -2.1961
 1319TIP3   OH225447   2.479   1.951   2.499  0.3325 -0.0525  0.4079
 1319TIP3    H125448   2.549   2.016   2.499 -0.3094  0.8359 -2.8861
 1319TIP3    H225449   2.509   1.884   2.438 -0.4963 -1.1073  1.1286
 1320TIP3   OH225450   0.171   5.297  16.168  0.4065 -0.3672 -0.4780
 1320TIP3    H125451   0.138   5.219  16.212 -0.0932 -0.6877 -1.3976
 1320TIP3    H225452   0.266   5.287  16.168  0.4004 -0.5085  0.2368
 1321TIP3   OH225453   6.656   4.850  13.763 -0.4755 -0.4995  1.0296
 1321TIP3    H125454   6.599   4.876  13.690  1.2977  0.3740 -0.1269
 1321TIP3    H225455   6.693   4.766  13.735  0.6674  0.1238  0.6038
 1322TIP3   OH225456   1.415   0.271   5.572  0.4092 -0.0208  0.3593
 1322TIP3    H125457   1.486   0.270   5.636  2.1955  0.8398 -1.4820
 1322TIP3    H225458   1.457   0.248   5.489 -1.9158 -1.6632 -0.4565
 1323TIP3   OH225459   0.565   1.575   4.132 -0.3024  0.5398 -0.3036
 1323TIP3    H125460   0.623   1.511   4.173  0.0601  1.6213  0.9253
 1323TIP3    H225461   0.523   1.527   4.061 -0.2199 -1.1321  0.7243
 1324TIP3   OH225462   3.759   5.328   0.684  0.0155 -0.4047 -0.0066
 1324TIP3    H125463   3.798   5.252   0.640  0.5060 -0.3150  0.2624
 1324TIP3    H225464   3.667   5.306   0.693 -0.0527 -0.5215 -0.8743
 1325TIP3   OH225465   4.893   2.972  11.319  0.3820 -0.1704  0.0036
 1325TIP3    H125466   4.861   3.058  11.344  1.2161  0.5691 -1.3196
 1325TIP3    H225467   4.961   2.952  11.383  0.4556  0.3382  0.0883
 1326TIP3   OH225468   5.473   6.579  16.336 -0.2031  0.4985  0.3040
 1326TIP3    H125469   5.455   6.625  16.417  0.1654  1.0069  0.1035
 1326TIP3    H225470   5.528   6.504  16.362  0.9868  1.3679  0.3826
 1327TIP3   OH225471   0.378   2.218  13.664  0.2423  0.6698  0.4503
 1327TIP3    H125472   0.373   2.151  13.596  1.3737  0.3922  0.6299
 1327TIP3    H225473   0.422   2.292  13.622  0.3113  0.7595  0.6798
 1328TIP3   OH225474   0.181   5.373   0.616  0.0649  0.2947  0.3196
 1328TIP3    H125475   0.106   5.336   0.662  1.6206 -1.6545  1.4364
 1328TIP3    H225476   0.180   5.330   0.530 -1.2939  1.9481 -0.5739
 1329TIP3   OH225477   1.881   3.970  16.349  0.0077  0.3752  0.2132
 1329TIP3    H125478   1.871   4.004  16.260 -0.3355  0.7009  0.3733
 1329TIP3    H225479   1.815   4.016  16.400 -2.5535 -2.6165 -0.1018
 1330TIP3   OH225480   3.369   0.681  14.509  0.3579 -0.0914  0.0946
 1330TIP3    H125481   3.326   0.748  14.562  2.2916  0.2102  1.3870
 1330TIP3    H225482   3.380   0.721  14.423  0.2531  0.7451  0.4612
 1331TIP3   OH225483   2.043   5.083   1.833  0.2674  0.1131  0.0835
 1331TIP3    H125484   1.998   5.041   1.759 -1.1602  0.2856  0.8146
 1331TIP3    H225485   2.093   5.013   1.874 -0.3926 -0.4043  0.0278
 1332TIP3   OH225486   6.510   4.237   5.585  0.0441 -0.6558  0.7470
 1332TIP3    H125487   6.605   4.239   5.599  0.0920  0.6266  0.3657
 1332TIP3    H225488   6.475   4.200   5.666  0.7884  0.0185  1.3953
 1333TIP3   OH225489   4.022   5.460  12.939 -0.3661 -0.0681  0.7263
 1333TIP3    H125490   3.942   5.436  12.892 -0.1179  0.8205 -0.1772
 1333TIP3    H225491   4.032   5.554  12.923  1.4983 -0.3862 -0.1663
 1334TIP3   OH225492   1.143   4.292  13.835  0.1089  0.8420  0.1627
 1334TIP3    H125493   1.061   4.293  13.883 -0.2851  1.5378 -0.4820
 1334TIP3    H225494   1.196   4.359  13.878 -0.7340  2.4215 -1.1181
 1335TIP3   OH225495   5.831   3.858   0.945  0.3218  0.3709  0.5183
 1335TIP3    H125496   5.823   3.947   0.980  1.3610  0.3113  0.9725
 1335TIP3    H225497   5.918   3.830   0.973 -0.4120 -1.2079  1.3371
 1336TIP3   OH225498   6.421   1.378  11.782  0.2903  0.2388 -0.0704
 1336TIP3    H125499   6.441   1.461  11.825 -2.8001  0.7214  0.6550
 1336TIP3    H225500   6.486   1.317  11.817  0.7346  1.6763  1.7673
 1337TIP3   OH225501   5.856   3.727   1.383 -0.2158  0.0257  0.0588
 1337TIP3    H125502   5.779   3.781   1.363 -0.1481 -0.3061 -1.1910
 1337TIP3    H225503   5.900   3.715   1.298 -0.1361 -1.8257  0.3096
 1338TIP3   OH225504   2.957   4.473   5.486 -0.1344 -0.0616  0.2857
 1338TIP3    H125505   2.864   4.455   5.496 -0.0642 -1.0609 -0.7088
 1338TIP3    H225506   2.992   4.469   5.575 -0.9768 -0.0454  0.6211
 1339TIP3   OH225507   5.961   3.096   3.617 -0.1181  0.4804  0.3788
 1339TIP3    H125508   5.905   3.173   3.607 -0.6964  0.1916  1.2990
 1339TIP3    H225509   6.024   3.103   3.545  0.5296  2.3865  1.0785
 1340TIP3   OH225510   2.659   4.137  10.972  0.1623 -0.8897 -0.4179
 1340TIP3    H125511   2.641   4.197  11.045  1.2805 -2.8588  1.5918
 1340TIP3    H225512   2.586   4.075  10.974 -1.1992  0.4994 -2.7333
 1341TIP3   OH225513   4.675   0.876  11.082  0.1811  0.1133 -0.5296
 1341TIP3    H125514   4.594   0.852  11.127  0.4241  0.4765  0.1183
 1341TIP3    H225515   4.660   0.853  10.991 -0.5858  0.0174 -0.3821
 1342TIP3   OH225516   2.458   6.616  12.339  0.3714 -0.1359  0.3060
 1342TIP3    H125517   2.477   6.705  12.310 -2.3399  0.4952  0.2209
 1342TIP3    H225518   2.433   6.569  12.260 -0.8992 -0.1658  0.6989
 1343TIP3   OH225519   4.330   3.338   5.926 -0.0973 -0.2217 -0.0435
 1343TIP3    H125520   4.305   3.323   6.016  2.2684 -0.3031  0.6713
 1343TIP3    H225521   4.390   3.413   5.930 -0.1280 -0.0808 -1.5712
 1344TIP3   OH225522   6.571   4.689   0.371 -0.7065  0.2424 -0.2547
 1344TIP3    H125523   6.628   4.755   0.330 -1.2583  1.4006  0.7874
 1344TIP3    H225524   6.575   4.614   0.311  0.5234  0.9385 -1.0966
 1345TIP3   OH225525   5.480   2.946  17.166  0.1206  0.2005 -0.4257
 1345TIP3    H125526   5.537   2.910  17.235 -0.4985  0.7231  0.3814
 1345TIP3    H225527   5.392   2.937  17.201 -0.1044  1.7574 -0.5350
 1346TIP3   OH225528   2.756   3.160   3.753  0.4039  0.1181  0.3089
 1346TIP3    H125529   2.704   3.158   3.673  0.2532  0.4576  0.3958
 1346TIP3    H225530   2.794   3.072   3.759 -0.1861 -0.1473  0.2651
 1347TIP3   OH225531   2.373   2.596   3.611  0.0418  0.1834  0.4537
 1347TIP3    H125532   2.455   2.587   3.562 -0.2576 -0.5286  0.0677
 1347TIP3    H225533   2.367   2.689   3.631  1.1997  0.1784  0.9201
 1348TIP3   OH225534   4.016   5.860   3.254  0.1337 -0.3796 -0.1004
 1348TIP3    H125535   3.952   5.928   3.232 -0.7753 -0.8751  0.9273
 1348TIP3    H225536   3.999   5.790   3.191 -1.1108 -0.9665  0.8523
 1349TIP3   OH225537   6.172   6.543   4.001  0.3622 -0.4234  0.1409
 1349TIP3    H125538   6.131   6.563   4.085 -0.4950  0.2301 -0.4149
 1349TIP3    H225539   6.258   6.508   4.024  0.9605  1.6103  1.2489
 1350TIP3   OH225540   2.820   2.559   0.391 -0.4790  0.3361  0.0933
 1350TIP3    H125541   2.734   2.560   0.433 -0.0097  2.6248  1.1720
 1350TIP3    H225542   2.820   2.480   0.338 -2.9216 -0.1702  0.7218
 1351TIP3   OH225543   0.851   5.406   5.366  0.5011  0.1549 -0.5689
 1351TIP3    H125544   0.756   5.414   5.362  0.3406 -1.3539 -0.3067
 1351TIP3    H225545   0.880   5.486   5.411 -0.8357 -0.3033  1.2134
 1352TIP3   OH225546   4.388   1.903   0.495  0.8725  0.0720 -0.1275
 1352TIP3    H125547   4.396   1.938   0.406  1.3148  0.4763  0.0655
 1352TIP3    H225548   4.469   1.854   0.508 -0.7603 -3.2803 -1.3273
 1353TIP3   OH225549   2.456   4.627  14.863  0.7418  0.2555 -0.1058
 1353TIP3    H125550   2.412   4.549  14.830  1.1216 -0.1260  0.2971
 1353TIP3    H225551   2.454   4.688  14.789 -4.7373  2.1773  1.0681
 1354TIP3   OH225552   5.473   4.166  12.199 -0.0079 -0.1067 -0.0731
 1354TIP3    H125553   5.419   4.087  12.203  0.5649 -0.5264 -0.4208
 1354TIP3    H225554   5.419   4.234  12.238  0.2875 -1.0992  2.1868
 1355TIP3   OH225555   4.811   1.012   6.201 -0.0774 -0.3208  0.2410
 1355TIP3    H125556   4.891   1.040   6.156  0.6695 -0.3793  1.5001
 1355TIP3    H225557   4.840   0.946   6.264 -0.8386  0.8590  1.9071
 1356TIP3   OH225558   1.092   1.237  15.690  0.1932 -0.4440  0.5578
 1356TIP3    H125559   1.154   1.307  15.710 -1.1375  0.9837 -0.1038
 1356TIP3    H225560   1.009   1.281  15.677 -0.7317 -2.1806  0.2278
 1357TIP3   OH225561   5.564   3.232   2.496  0.6554  0.1702 -0.2577
 1357TIP3    H125562   5.479   3.195   2.472 -0.0014  0.6856  1.1824
 1357TIP3    H225563   5.626   3.159   2.484  0.1784  0.0120 -2.0818
 1358TIP3   OH225564   4.794   1.132   1.810 -0.3030  0.2734  0.6240
 1358TIP3    H125565   4.760   1.220   1.795 -0.7253 -0.2855 -2.3649
 1358TIP3    H225566   4.716   1.078   1.819 -0.2730 -0.3961 -2.1803
 1359TIP3   OH225567   2.783   3.037   4.956 -0.2961 -0.0450 -0.2810
 1359TIP3    H125568   2.773   3.018   5.049 -0.0661  0.2673 -0.1943
 1359TIP3    H225569   2.694   3.032   4.921 -0.2496 -1.3548 -0.2734
 1360TIP3   OH225570   5.665   1.555  10.973  0.6512 -0.2406  0.1426
 1360TIP3    H125571   5.584   1.580  11.018  0.8516 -0.1689  0.4696
 1360TIP3    H225572   5.656   1.461  10.957  0.6488 -0.2997  0.4868
 1361TIP3   OH225573   1.904   5.331  10.486 -0.3153  0.0644 -0.3525
 1361TIP3    H125574   1.818   5.289  10.490 -0.4773  0.4414  0.1632
 1361TIP3    H225575   1.908   5.386  10.564  1.7399 -2.4702  1.4674
 1362TIP3   OH225576   3.973   1.942   4.386 -0.0443 -0.0793 -0.0101
 1362TIP3    H125577   4.043   1.883   4.413 -0.5152  0.1727  1.9628
 1362TIP3    H225578   3.985   2.020   4.442  0.0335  1.3551 -1.9238
 1363TIP3   OH225579   0.427   2.030   5.716  0.1429 -0.2990  0.0178
 1363TIP3    H125580   0.378   2.050   5.636 -0.3323 -0.0265  0.3738
 1363TIP3    H225581   0.468   1.946   5.698 -0.1788 -0.3682 -0.4165
 1364TIP3   OH225582   6.789   0.611  13.041  0.1908 -0.2783  0.1570
 1364TIP3    H125583   6.708   0.648  13.008  0.7034  1.4267  0.7143
 1364TIP3    H225584   6.827   0.565  12.966  0.3909  1.8430 -1.1111
 1365TIP3   OH225585   3.860   0.638  14.680 -0.3062  0.0988 -0.0987
 1365TIP3    H125586   3.772   0.674  14.665 -1.4416 -2.2652  0.3507
 1365TIP3    H225587   3.857   0.552  14.639  1.5723 -0.3251  0.5721
 1366TIP3   OH225588   3.828   3.805  14.739 -0.0707  0.1888 -0.0594
 1366TIP3    H125589   3.857   3.716  14.716 -1.2204  0.2590 -2.0017
 1366TIP3    H225590   3.871   3.823  14.823  2.1879 -1.2337 -0.8098
 1367TIP3   OH225591   1.394   0.293  13.987 -0.2518  0.1761  0.6855
 1367TIP3    H125592   1.487   0.300  13.966 -0.6757  1.2754 -1.0680
 1367TIP3    H225593   1.370   0.380  14.018 -1.5186  1.3620 -2.9998
 1368TIP3   OH225594   5.384   5.894   0.521  0.1525  0.4815  0.1008
 1368TIP3    H125595   5.422   5.953   0.586 -1.8904  0.8750  1.0171
 1368TIP3    H225596   5.290   5.895   0.539 -0.3074 -0.6319 -1.8779
 1369TIP3   OH225597   1.961   4.687  16.831 -0.5569 -0.0028 -0.2415
 1369TIP3    H125598   1.933   4.623  16.895 -0.3588 -2.3886 -2.3711
 1369TIP3    H225599   1.973   4.768  16.881 -1.3171 -1.4576  2.4820
 1370TIP3   OH225600   5.418   2.943   4.710  0.0102  0.0757 -0.2675
 1370TIP3    H125601   5.503   2.928   4.751  0.4198  2.1407 -0.2421
 1370TIP3    H225602   5.366   2.984   4.779 -0.3500  0.6341 -0.8654
 1371TIP3   OH225603   2.755   1.491  11.346 -0.3935 -0.0752 -0.4071
 1371TIP3    H125604   2.716   1.519  11.263  0.9012 -0.1287 -1.0530
 1371TIP3    H225605   2.840   1.534  11.348  0.7233 -2.1989 -0.3717
 1372TIP3   OH225606   0.106   0.796   2.445  0.2233 -0.5770  0.0992
 1372TIP3    H125607   0.119   0.748   2.527 -0.6265  0.4265  0.8424
 1372TIP3    H225608   0.012   0.810   2.440  0.4451  1.1061 -0.0326
 1373TIP3   OH225609   0.119   1.368  11.799  0.4316 -0.0897  0.1465
 1373TIP3    H125610   0.056   1.438  11.782  0.6185  0.0251 -0.0766
 1373TIP3    H225611   0.185   1.379  11.731  0.2575 -0.7244 -0.1320
 1374TIP3   OH225612   0.855   2.466  15.503  0.1929 -0.6089 -0.1987
 1374TIP3    H125613   0.894   2.392  15.457  1.7401  0.2871 -0.3900
 1374TIP3    H225614   0.840   2.531  15.434 -0.6404 -0.5248  0.0546
 1375TIP3   OH225615   2.332   5.909  15.073  0.7014  0.5993  0.3120
 1375TIP3    H125616   2.272   5.887  15.002 -1.1745 -0.4036  2.0867
 1375TIP3    H225617   2.341   6.005  15.069 -0.9943  0.7685 -0.0638
 1376TIP3   OH225618   3.293   1.344   4.594  0.7918 -0.0135 -0.0594
 1376TIP3    H125619   3.290   1.427   4.642  1.8281 -0.2241  0.3986
 1376TIP3    H225620   3.277   1.278   4.661 -0.9243 -0.1603 -0.5752
 1377TIP3   OH225621   5.913   6.609  15.412  0.2837  0.6448  0.5239
 1377TIP3    H125622   5.885   6.537  15.469  1.4989  0.6604  1.1685
 1377TIP3    H225623   5.979   6.571  15.355  1.3156  1.3382  1.2105
 1378TIP3   OH225624   4.104   3.785  11.178 -0.4727  0.0208 -0.6934
 1378TIP3    H125625   4.120   3.769  11.085 -1.5178 -0.6473 -0.7645
 1378TIP3    H225626   4.189   3.815  11.212  0.4751 -1.6694 -1.4330
 1379TIP3   OH225627   3.207   3.189  16.636 -0.2873  0.4676  0.3266
 1379TIP3    H125628   3.174   3.228  16.555  0.2238  2.1207  0.8717
 1379TIP3    H225629   3.297   3.222  16.643  0.0217 -0.5002  1.0427
 1380TIP3   OH225630   2.263   5.889   0.208 -0.1992  0.1522  0.1972
 1380TIP3    H125631   2.291   5.838   0.284 -1.8451  0.2156  0.8895
 1380TIP3    H225632   2.167   5.892   0.215 -0.3785  0.3278 -1.7758
 1381TIP3   OH225633   4.899   5.537  17.090 -0.1486  0.4545  0.5382
 1381TIP3    H125634   4.856   5.592  17.155 -1.1725 -0.4327  0.6496
 1381TIP3    H225635   4.982   5.511  17.130 -0.0378  1.2090  0.8183
 1382TIP3   OH225636   1.415   2.142  14.198 -0.3767 -0.2598  0.2471
 1382TIP3    H125637   1.495   2.134  14.146 -1.3271 -3.8337 -0.9793
 1382TIP3    H225638   1.381   2.229  14.177  0.7647 -0.4542 -2.9657
 1383TIP3   OH225639   0.874   5.699  16.357 -0.3213  0.2261  0.2474
 1383TIP3    H125640   0.818   5.769  16.324 -0.6724 -0.7121 -1.2508
 1383TIP3    H225641   0.813   5.630  16.382  0.0288  0.3865  1.6287
 1384TIP3   OH225642   0.731   0.988  11.256  0.6063 -0.0486  0.0735
 1384TIP3    H125643   0.661   0.955  11.201  0.2517  0.8471 -0.0331
 1384TIP3    H225644   0.799   0.922  11.251 -0.3648 -1.1161  0.4701
 1385TIP3   OH225645   4.169   6.374  12.376  0.1081 -0.5685  0.0724
 1385TIP3    H125646   4.232   6.445  12.360 -0.8919  0.6465  1.3003
 1385TIP3    H225647   4.222   6.303  12.412  0.8161  0.3825  0.9537
 1386TIP3   OH225648   0.481   0.868   3.214 -0.5067 -0.0533 -0.0112
 1386TIP3    H125649   0.560   0.846   3.166 -0.5278  0.6412 -0.3811
 1386TIP3    H225650   0.511   0.915   3.291 -0.5723  0.6807 -0.4203
 1387TIP3   OH225651   5.076   3.219   4.172  0.5537 -0.1385 -0.6522
 1387TIP3    H125652   5.076   3.157   4.245  0.0166  0.6160  0.0065
 1387TIP3    H225653   5.076   3.165   4.094  0.6304 -0.9618 -0.0886
 1388TIP3   OH225654   4.611   3.342  12.690  0.3041  0.0521  0.2715
 1388TIP3    H125655   4.667   3.334  12.768  2.0164  0.4562 -0.8736
 1388TIP3    H225656   4.545   3.273  12.701  1.8610 -1.3728  1.0046
 1389TIP3   OH225657   6.655   2.493  11.869  0.0405 -0.3876 -0.0695
 1389TIP3    H125658   6.670   2.399  11.856  1.4307 -0.4209  1.4485
 1389TIP3    H225659   6.740   2.526  11.900 -1.0618  0.9041  1.7132
 1390TIP3   OH225660   6.622   1.432  12.200 -0.9472  0.2577  0.5476
 1390TIP3    H125661   6.606   1.372  12.274 -0.0215  0.1810  0.7004
 1390TIP3    H225662   6.684   1.496  12.235  0.5212 -0.5276 -0.5270
 1391TIP3   OH225663   3.905   2.810   3.115  0.4128 -0.1315 -0.5639
 1391TIP3    H125664   3.913   2.868   3.040  0.5860 -0.2938 -0.6713
 1391TIP3    H225665   3.991   2.815   3.158  0.5123 -0.5107 -0.7209
 1392TIP3   OH225666   0.771   4.248  13.515  0.0905  0.1929 -0.5202
 1392TIP3    H125667   0.737   4.265  13.428 -2.2164  1.7259  0.5942
 1392TIP3    H225668   0.821   4.327  13.538  2.3843 -0.9854 -1.1211
 1393TIP3   OH225669   3.907   1.668   0.451  0.3545 -0.1125 -0.2572
 1393TIP3    H125670   3.869   1.644   0.367 -3.1877 -0.7046  1.3336
 1393TIP3    H225671   3.936   1.584   0.488 -0.2095 -0.1933  0.0174
 1394TIP3   OH225672   2.473   1.114  16.074  0.0692  0.2721 -0.1674
 1394TIP3    H125673   2.378   1.115  16.058 -0.4134 -1.3499  2.0502
 1394TIP3    H225674   2.499   1.024  16.053  0.5596 -0.0604  1.6804
 1395TIP3   OH225675   3.885   5.242  14.096 -0.1827  0.3021  0.4436
 1395TIP3    H125676   3.868   5.268  14.186 -0.9509 -0.4201  0.5230
 1395TIP3    H225677   3.936   5.314  14.059 -0.3375  0.8592  1.2930
 1396TIP3   OH225678   3.925   2.204  11.135  0.3455  0.0043 -0.1124
 1396TIP3    H125679   3.900   2.257  11.211  1.8604 -0.8009  1.0073
 1396TIP3    H225680   4.002   2.248  11.099  0.8930 -0.7559  0.0986
 1397TIP3   OH225681   2.347   4.795  16.027 -0.2102  0.2194  0.2716
 1397TIP3    H125682   2.384   4.855  15.961 -0.3838 -1.5127 -1.5146
 1397TIP3    H225683   2.262   4.833  16.049 -1.0791 -0.1379 -2.1069
 1398TIP3   OH225684   5.002   4.067   1.464 -0.2171  0.0625 -0.0148
 1398TIP3    H125685   5.083   4.019   1.448 -0.6649 -0.6021 -0.3573
 1398TIP3    H225686   4.956   4.015   1.530 -1.6961 -1.2507 -1.9346
 1399TIP3   OH225687   0.062   6.620  11.079  0.5418  0.0750 -0.6095
 1399TIP3    H125688   0.081   6.700  11.128  1.6664 -0.5621  0.0350
 1399TIP3    H225689   0.005   6.649  11.009  1.3751  1.5568 -0.7312
 1400TIP3   OH225690   0.862   3.533   1.322  0.3353 -0.3604  0.6034
 1400TIP3    H125691   0.799   3.585   1.271  0.8079 -0.0114  0.3602
 1400TIP3    H225692   0.829   3.444   1.318 -0.7977 -0.0003  1.4902
 1401TIP3   OH225693   5.132   6.649  15.137 -0.5153  0.3080  0.6134
 1401TIP3    H125694   5.163   6.685  15.055  1.8409 -2.0065  0.3346
 1401TIP3    H225695   5.043   6.620  15.119 -0.1729  0.2064 -1.0133
 1402TIP3   OH225696   1.277   6.479   1.860 -0.3436 -0.0118 -0.0776
 1402TIP3    H125697   1.368   6.462   1.883 -0.8993 -0.5745  1.9280
 1402TIP3    H225698   1.280   6.559   1.808  1.3204 -0.2124 -0.3380
 1403TIP3   OH225699   0.330   2.303   1.092  0.5410 -0.3074  0.2437
 1403TIP3    H125700   0.252   2.358   1.080  0.1746 -0.5702  1.2935
 1403TIP3    H225701   0.375   2.307   1.008 -1.4636 -1.5025 -0.9588
 1404TIP3   OH225702   4.663   1.970   2.420  0.0602  0.3671  0.3265
 1404TIP3    H125703   4.598   1.995   2.355  2.2172  1.5763 -1.5322
 1404TIP3    H225704   4.729   1.922   2.370  1.4194  0.6416  1.7842
 1405TIP3   OH225705   2.774   4.957  14.581  0.1547  0.0100 -0.3915
 1405TIP3    H125706   2.766   4.910  14.664  1.6923 -0.8318 -0.6750
 1405TIP3    H225707   2.860   4.998  14.586  0.4248 -0.3561 -1.7016
 1406TIP3   OH225708   4.053   5.693   4.796  0.6710 -0.7111  0.2550
 1406TIP3    H125709   4.105   5.773   4.805  0.5547 -0.6692  0.5801
 1406TIP3    H225710   4.116   5.622   4.803  0.9152 -0.6374 -1.0203
 1407TIP3   OH225711   6.393   2.177   5.814  0.4238 -0.0280  0.2204
 1407TIP3    H125712   6.336   2.255   5.812 -1.5864 -1.2897  2.5453
 1407TIP3    H225713   6.367   2.127   5.737  1.9542  1.6114 -1.4837
 1408TIP3   OH225714   5.598   4.040  16.702  0.6347 -0.7111 -0.6616
 1408TIP3    H125715   5.682   4.066  16.740  0.1099  2.1288 -1.1855
 1408TIP3    H225716   5.616   4.024  16.610  0.8088 -1.3042 -0.5254
 1409TIP3   OH225717   4.422   1.303   0.301  0.2516 -0.2621  0.3298
 1409TIP3    H125718   4.388   1.335   0.385  2.1925 -0.7187  1.3747
 1409TIP3    H225719   4.485   1.369   0.274  1.9955 -1.5674  0.9302
 1410TIP3   OH225720   1.339   5.354   0.593 -0.0264  0.0640  0.1412
 1410TIP3    H125721   1.397   5.311   0.655  0.1108 -0.1638 -0.1443
 1410TIP3    H225722   1.273   5.398   0.648  0.3979  0.3061  0.4660
 1411TIP3   OH225723   1.123   1.480   6.128  0.1628 -0.3650 -0.1434
 1411TIP3    H125724   1.054   1.450   6.069 -0.2797  0.8645 -0.2900
 1411TIP3    H225725   1.192   1.511   6.070  0.7388 -1.3417  0.0045
 1412TIP3   OH225726   5.770   3.608   3.450 -0.0074 -0.1426 -0.5665
 1412TIP3    H125727   5.829   3.654   3.390 -1.3526 -0.5616 -2.2928
 1412TIP3    H225728   5.683   3.644   3.430 -0.2859  1.4222  2.8246
 1413TIP3   OH225729   0.846   2.508  14.294  0.1942 -0.0824  0.0454
 1413TIP3    H125730   0.767   2.482  14.341  1.6980 -0.9428  2.2358
 1413TIP3    H225731   0.859   2.600  14.319 -0.4474  0.2636 -0.8513
 1414TIP3   OH225732   3.325   0.119  13.080  0.0980 -0.3435 -0.1600
 1414TIP3    H125733   3.366   0.035  13.099 -0.9317 -1.1767 -1.4760
 1414TIP3    H225734   3.388   0.184  13.112  0.5883 -1.5906  1.5606
 1415TIP3   OH225735   0.235   1.929   4.039  0.4422 -0.0873  0.3876
 1415TIP3    H125736   0.252   1.839   4.012 -1.5186 -0.1537 -0.7865
 1415TIP3    H225737   0.147   1.948   4.008  1.0402  2.4669 -0.0425
 1416TIP3   OH225738   2.592   6.020  17.083  0.4555  0.5753  0.3794
 1416TIP3    H125739   2.574   6.073  17.160 -0.9904 -1.6284  1.6923
 1416TIP3    H225740   2.602   5.931  17.117 -1.5631 -0.7224 -2.0195
 1417TIP3   OH225741   4.262   1.151   1.066 -0.0238  0.1772 -0.2547
 1417TIP3    H125742   4.253   1.109   0.981 -1.0661  0.8608 -0.4900
 1417TIP3    H225743   4.187   1.210   1.073  0.5691  0.8542  0.7256
 1418TIP3   OH225744   4.884   5.117   5.407  0.4489  0.1070 -0.7533
 1418TIP3    H125745   4.895   5.025   5.382 -1.7299 -0.7036  0.9279
 1418TIP3    H225746   4.829   5.154   5.338 -0.8336 -0.6068 -0.1617
 1419TIP3   OH225747   4.148   3.597  16.185  0.2413  0.4312  0.0835
 1419TIP3    H125748   4.186   3.577  16.271 -1.8320  0.3893  1.0553
 1419TIP3    H225749   4.139   3.513  16.142 -0.5165  0.2028  0.6591
 1420TIP3   OH225750   3.964   0.780  13.484  0.6280 -0.2764 -0.6706
 1420TIP3    H125751   3.936   0.738  13.403 -1.0419  0.0049 -0.2865
 1420TIP3    H225752   3.985   0.870  13.458  0.3496 -0.2599 -0.8456
 1421TIP3   OH225753   3.820   1.571   5.554  0.1832 -0.5727 -0.1842
 1421TIP3    H125754   3.775   1.496   5.515  0.5629  0.4819 -2.9017
 1421TIP3    H225755   3.750   1.631   5.580 -0.1081 -1.6685  1.6708
 1422TIP3   OH225756   2.065   0.231   1.947 -0.4162  0.7124  0.2685
 1422TIP3    H125757   2.121   0.261   2.019  0.2672  0.8510 -0.3069
 1422TIP3    H225758   2.126   0.195   1.883 -1.0503  0.2283 -0.0765
 1423TIP3   OH225759   5.016   2.747   3.889 -0.4339  0.3599 -0.0286
 1423TIP3    H125760   5.011   2.653   3.874  0.4369  0.1317  1.0443
 1423TIP3    H225761   5.109   2.766   3.899 -0.6173  1.2944  0.0493
 1424TIP3   OH225762   0.219   0.836   1.867 -0.3450  0.0361  0.2784
 1424TIP3    H125763   0.299   0.784   1.877  0.6390  0.8944 -2.1752
 1424TIP3    H225764   0.177   0.832   1.952  1.9688 -1.0244  1.4820
 1425TIP3   OH225765   5.017   0.257  17.111  0.0613 -0.8772 -0.1675
 1425TIP3    H125766   4.985   0.167  17.106 -0.6985 -0.6498  0.4326
 1425TIP3    H225767   5.113   0.249  17.106 -0.0088 -1.6960 -0.2946
 1426TIP3   OH225768   1.362   4.704   4.791  0.0686  0.1504 -0.4347
 1426TIP3    H125769   1.317   4.754   4.859  0.0352 -0.8899  0.3378
 1426TIP3    H225770   1.426   4.650   4.839 -0.4140 -1.0943 -1.1484
 1427TIP3   OH225771   3.225   3.207  11.243  0.2193 -0.0221  0.1240
 1427TIP3    H125772   3.242   3.172  11.155  1.7511 -0.2382  0.4775
 1427TIP3    H225773   3.135   3.182  11.261 -0.1138 -0.0045 -1.3751
 1428TIP3   OH225774   5.495   5.303  11.894  0.0518  0.0656 -0.0940
 1428TIP3    H125775   5.535   5.390  11.887 -0.7705  0.4409 -0.2538
 1428TIP3    H225776   5.506   5.265  11.807  0.0549  0.1772 -0.1437
 1429TIP3   OH225777   5.608   1.431   5.044  0.0263 -0.3689  0.1469
 1429TIP3    H125778   5.649   1.465   5.124 -2.2112 -0.9857  1.6852
 1429TIP3    H225779   5.640   1.342   5.036  0.0364 -0.4023  0.5463
 1430TIP3   OH225780   3.919   4.294  11.811 -0.0573  0.5042 -0.0762
 1430TIP3    H125781   3.841   4.285  11.866 -0.5944  1.2722 -0.6930
 1430TIP3    H225782   3.992   4.285  11.871 -0.6278  1.9446  0.8800
 1431TIP3   OH225783   3.289   4.259   3.686  0.1051  0.3668  0.0016
 1431TIP3    H125784   3.350   4.298   3.624 -0.0549 -2.0086 -1.7875
 1431TIP3    H225785   3.333   4.180   3.717  0.9132  2.2864  4.3750
 1432TIP3   OH225786   2.756   4.613   5.298  0.2609 -0.0967 -0.1671
 1432TIP3    H125787   2.746   4.518   5.298  0.0920 -0.1200  1.8763
 1432TIP3    H225788   2.847   4.627   5.325 -0.1208  0.3161  0.9482
 1433TIP3   OH225789   2.853   3.169  13.182  0.1860  0.8014  0.6316
 1433TIP3    H125790   2.856   3.156  13.088  0.7182 -0.6957  0.8211
 1433TIP3    H225791   2.904   3.249  13.198  0.5654  0.7498 -0.2967
 1434TIP3   OH225792   0.986   3.600   5.054  0.9004 -0.4672 -0.1403
 1434TIP3    H125793   1.037   3.598   4.973  0.1980  1.4157 -0.6968
 1434TIP3    H225794   0.973   3.508   5.077 -0.1510 -1.1474 -2.9883
 1435TIP3   OH225795   5.919   0.738  11.703  0.1740  0.2460 -0.4722
 1435TIP3    H125796   5.955   0.796  11.771  0.7623 -0.0719 -0.5055
 1435TIP3    H225797   5.856   0.683  11.750 -0.1631  0.6998 -0.3814
 1436TIP3   OH225798   5.171   3.058   5.660  0.0653  0.4776 -0.1562
 1436TIP3    H125799   5.184   3.071   5.754 -0.0632  0.3214 -0.1162
 1436TIP3    H225800   5.138   3.142   5.628  1.4445  0.9730 -0.3143
 1437TIP3   OH225801   3.014   5.158   4.868  0.0537 -0.3631  0.3167
 1437TIP3    H125802   2.924   5.144   4.836 -0.4865  1.5415  0.8298
 1437TIP3    H225803   3.016   5.251   4.892  2.3993 -0.1670 -0.3919
 1438TIP3   OH225804   1.618   1.574   3.880  0.1095 -0.0534 -0.1790
 1438TIP3    H125805   1.530   1.602   3.855  0.0958 -0.3626 -0.4962
 1438TIP3    H225806   1.667   1.655   3.890 -0.0827  0.1062 -0.4958
 1439TIP3   OH225807   4.461   1.030   3.922  0.4535  0.6524  0.1519
 1439TIP3    H125808   4.373   1.068   3.928  0.3881  0.5265  0.0002
 1439TIP3    H225809   4.448   0.947   3.877  0.8716  1.4271 -1.4899
 1440TIP3   OH225810   0.270   5.658   0.652  0.0635 -0.3049  0.3277
 1440TIP3    H125811   0.334   5.614   0.707 -0.2769 -1.0589  0.1332
 1440TIP3    H225812   0.232   5.588   0.599 -0.3131  0.2616 -0.1660
 1441TIP3   OH225813   2.763   1.435   3.930 -0.2924 -0.1994  0.5565
 1441TIP3    H125814   2.784   1.462   4.019  1.8582 -0.2555  0.1167
 1441TIP3    H225815   2.674   1.467   3.916 -0.8870 -0.6131  2.8629
 1442TIP3   OH225816   3.402   0.714   6.154  0.3359 -0.1134 -0.0852
 1442TIP3    H125817   3.470   0.649   6.169  0.1174 -0.1083  1.0063
 1442TIP3    H225818   3.396   0.721   6.059  1.3979 -0.5893 -0.1970
 1443TIP3   OH225819   1.821   0.103   6.051 -0.4485 -0.6169 -0.0292
 1443TIP3    H125820   1.772   0.086   6.131  3.5443 -0.7513  2.6989
 1443TIP3    H225821   1.798   0.031   5.992 -1.1157 -2.4360  2.3171
 1444TIP3   OH225822   2.972   3.163  10.753 -0.0274  0.4621  0.6293
 1444TIP3    H125823   2.935   3.249  10.773 -1.7330  0.1984 -1.1689
 1444TIP3    H225824   2.972   3.118  10.838 -2.4844  1.0200  1.0055
 1445TIP3   OH225825   2.282   2.928  16.034 -0.1697  1.0180  0.0968
 1445TIP3    H125826   2.190   2.937  16.010  0.3855  2.3851 -1.7478
 1445TIP3    H225827   2.284   2.854  16.094 -2.5584  1.4386  0.7917
 1446TIP3   OH225828   0.981   5.630   5.621 -0.4682  0.6371  0.0754
 1446TIP3    H125829   0.996   5.644   5.714 -0.5801  0.2364  0.1540
 1446TIP3    H225830   0.895   5.588   5.616 -0.7037  1.1322 -0.2449
 1447TIP3   OH225831   0.082   1.839   5.411 -0.5369 -0.1216  0.1192
 1447TIP3    H125832   0.095   1.745   5.396  0.1200  0.0951 -0.7980
 1447TIP3    H225833   0.017   1.865   5.346 -0.8337  0.0264  0.4761
 1448TIP3   OH225834   2.040   6.578  16.877 -0.1647  0.2024  0.0715
 1448TIP3    H125835   2.122   6.607  16.917  0.2507 -0.8503  0.0129
 1448TIP3    H225836   2.027   6.490  16.911 -1.4583  0.4764  0.3431
 1449TIP3   OH225837   3.188   6.732   4.723 -0.1440  0.0589  0.3953
 1449TIP3    H125838   3.217   6.641   4.730 -1.4280 -0.4112 -0.1620
 1449TIP3    H225839   3.261   6.783   4.757  0.7227 -1.1618  0.4177
 1450TIP3   OH225840   0.342   3.334  14.419 -0.3184 -0.2051  0.3065
 1450TIP3    H125841   0.359   3.330  14.325  0.1707 -0.3512  0.3977
 1450TIP3    H225842   0.346   3.427  14.440  1.6265 -0.3147  0.5422
 1451TIP3   OH225843   1.608   5.319  16.098 -0.2332 -0.4606  0.0850
 1451TIP3    H125844   1.534   5.368  16.133  1.1367  2.3551 -0.6276
 1451TIP3    H225845   1.684   5.375  16.115  1.3333 -1.8850 -1.7233
 1452TIP3   OH225846   6.002   4.874   1.951 -0.8152  0.1614 -0.0256
 1452TIP3    H125847   6.046   4.926   1.884 -1.2668  0.2382 -0.2668
 1452TIP3    H225848   6.072   4.844   2.008 -0.5183  0.8079 -0.0419
 1453TIP3   OH225849   1.518   5.994   3.750  0.0453  0.5363  0.0965
 1453TIP3    H125850   1.570   5.918   3.724  0.4675  0.7911  0.1804
 1453TIP3    H225851   1.523   5.995   3.845  0.9251  1.2728  0.0544
 1454TIP3   OH225852   5.220   1.954  11.532  0.4453  0.6312 -0.1964
 1454TIP3    H125853   5.301   1.904  11.522  0.1248 -0.4589  1.9090
 1454TIP3    H225854   5.245   2.045  11.513  2.4885  0.5124  1.4982
 1455TIP3   OH225855   2.299   0.429   4.239  0.0107  0.0576 -0.5028
 1455TIP3    H125856   2.309   0.465   4.328 -1.2012  0.4328 -0.5091
 1455TIP3    H225857   2.225   0.370   4.246  0.6862 -0.8761 -0.9963
 1456TIP3   OH225858   2.070   3.800  16.434  0.4991  0.1983 -0.1721
 1456TIP3    H125859   2.002   3.842  16.382 -0.6076 -1.3139 -0.0292
 1456TIP3    H225860   2.049   3.824  16.525  0.8245  0.6478 -0.2153
 1457TIP3   OH225861   6.354   4.133   2.114  0.3371 -0.2661 -0.4388
 1457TIP3    H125862   6.387   4.151   2.026 -1.1774 -0.6426 -1.1183
 1457TIP3    H225863   6.300   4.209   2.136 -0.2115 -0.6793 -0.3183
 1458TIP3   OH225864   5.472   6.281   5.104 -0.3067  0.0303  0.0841
 1458TIP3    H125865   5.451   6.228   5.180  1.8889 -2.0592 -0.6437
 1458TIP3    H225866   5.498   6.219   5.036 -2.5328  1.7565 -2.6241
 1459TIP3   OH225867   3.481   1.082  11.508  0.0415  0.4035 -0.2273
 1459TIP3    H125868   3.575   1.099  11.512  0.3525 -1.2370  3.2830
 1459TIP3    H225869   3.442   1.166  11.484  2.3092  1.5072 -0.3043
 1460TIP3   OH225870   5.448   0.248   5.134  0.3307 -0.4644  0.5935
 1460TIP3    H125871   5.543   0.243   5.150  0.3007 -0.6076  0.7334
 1460TIP3    H225872   5.426   0.160   5.103  0.5619  0.0667 -1.1889
 1461TIP3   OH225873   3.945   6.530   5.947 -0.5390  0.0164  0.2575
 1461TIP3    H125874   3.901   6.484   6.019 -1.1887  2.0935  1.2605
 1461TIP3    H225875   3.876   6.584   5.907  0.1071 -0.1177 -1.1066
 1462TIP3   OH225876   5.166   0.820  13.585 -0.6988 -0.3270  0.1019
 1462TIP3    H125877   5.130   0.850  13.501 -1.6152 -2.1073 -0.1736
 1462TIP3    H225878   5.092   0.819  13.645  0.0875  1.6471  1.2070
 1463TIP3   OH225879   3.357   1.150   0.605  0.1180 -0.9070 -0.2308
 1463TIP3    H125880   3.350   1.210   0.530  1.5515 -2.7029 -1.9327
 1463TIP3    H225881   3.449   1.158   0.632 -0.2124 -0.8193  0.9003
 1464TIP3   OH225882   4.000   3.421  12.466  0.1629 -0.1782  0.2427
 1464TIP3    H125883   3.963   3.500  12.427  1.9400  0.0080 -1.1501
 1464TIP3    H225884   3.934   3.353  12.449 -0.2282  0.4574 -0.8252
 1465TIP3   OH225885   1.750   2.940   2.366 -0.1505  0.2687 -0.3653
 1465TIP3    H125886   1.783   2.973   2.450 -0.3005  0.4450 -0.3753
 1465TIP3    H225887   1.817   2.878   2.337  0.0603  0.4493 -0.2714
 1466TIP3   OH225888   5.905   6.641   6.040  0.2623  0.1520  0.0633
 1466TIP3    H125889   5.848   6.568   6.063  0.5064  0.1620  0.7508
 1466TIP3    H225890   5.917   6.688   6.123  0.6318  0.5908 -0.2370
 1467TIP3   OH225891   3.482   2.609   5.236 -0.1016 -0.3645 -0.1642
 1467TIP3    H125892   3.467   2.529   5.184 -0.0674 -0.5188  0.0604
 1467TIP3    H225893   3.481   2.680   5.172  1.3765 -0.6893 -0.5999
 1468TIP3   OH225894   3.054   1.551   4.092 -0.2415  0.1543  0.7157
 1468TIP3    H125895   3.132   1.554   4.146  1.0877 -0.6956 -1.0645
 1468TIP3    H225896   3.086   1.537   4.003 -2.3432  1.1822 -0.2895
 1469TIP3   OH225897   5.055   4.929   3.944  0.2078 -0.0620  0.2751
 1469TIP3    H125898   4.966   4.893   3.949  0.5247 -1.1769 -1.4045
 1469TIP3    H225899   5.043   5.023   3.952 -1.2833 -0.0810 -1.1539
 1470TIP3   OH225900   5.127   5.055   4.816 -0.4903  0.0643 -0.1356
 1470TIP3    H125901   5.210   5.051   4.865 -1.3389 -4.8076  1.4468
 1470TIP3    H225902   5.082   5.132   4.852  1.3015 -0.0240  2.6596
 1471TIP3   OH225903   5.102   1.816   4.601 -0.5391  0.3322  0.1981
 1471TIP3    H125904   5.021   1.825   4.550 -0.2043  2.6478 -0.0232
 1471TIP3    H225905   5.081   1.857   4.685 -0.1533 -0.7672  0.8490
 1472TIP3   OH225906   5.068   6.164  16.641 -0.5261 -1.3174 -0.3871
 1472TIP3    H125907   5.059   6.086  16.587 -0.0802 -0.7635 -1.2851
 1472TIP3    H225908   4.997   6.158  16.704 -0.7856 -2.2032 -0.7503
 1473TIP3   OH225909   2.356   1.249  14.786  0.3505  0.5351 -0.0077
 1473TIP3    H125910   2.332   1.341  14.774 -0.3234  0.5801  1.5218
 1473TIP3    H225911   2.277   1.200  14.765  0.1628  0.4248  0.9297
 1474TIP3   OH225912   6.344   1.373  12.325  0.0515 -0.3679 -0.0468
 1474TIP3    H125913   6.289   1.331  12.391  1.1947  0.8236  1.7689
 1474TIP3    H225914   6.415   1.413  12.375  0.8395  0.8228 -1.9919
 1475TIP3   OH225915   2.065   3.930  12.775  0.2965  0.2093  0.6858
 1475TIP3    H125916   2.027   3.959  12.692 -0.2720 -0.7018  0.6094
 1475TIP3    H225917   2.021   3.847  12.794  1.2022 -0.1447  1.3456
 1476TIP3   OH225918   4.397   3.761   3.438  0.4026 -0.0464  0.4358
 1476TIP3    H125919   4.485   3.747   3.402  0.0522 -2.1838  0.3122
 1476TIP3    H225920   4.356   3.822   3.377 -0.0249 -3.1973 -2.7469
 1477TIP3   OH225921   1.861   5.771   2.064 -0.1178 -0.9665 -0.2026
 1477TIP3    H125922   1.917   5.831   2.114 -0.3912 -1.0609  0.2241
 1477TIP3    H225923   1.919   5.698   2.040  0.9666  0.7036 -3.1133
 1478TIP3   OH225924   1.418   2.369  15.047 -0.2980  0.8878 -0.1972
 1478TIP3    H125925   1.368   2.429  14.992 -2.6154 -0.3147  0.4428
 1478TIP3    H225926   1.449   2.301  14.988  1.1831  1.9613 -0.7016
 1479TIP3   OH225927   5.663   0.330  11.471  0.0425 -0.1387 -0.0771
 1479TIP3    H125928   5.748   0.372  11.485  0.4927 -0.7236 -0.9545
 1479TIP3    H225929   5.683   0.253  11.418 -0.8242 -1.2001  1.0671
 1480TIP3   OH225930   6.566   2.699  14.197  0.1611 -0.1721 -1.1186
 1480TIP3    H125931   6.602   2.782  14.229  1.7322 -1.5215  0.8937
 1480TIP3    H225932   6.636   2.663  14.142 -0.0213 -0.6935 -1.0115
 1481TIP3   OH225933   4.413   1.365  12.177  0.2084 -0.0844  0.2896
 1481TIP3    H125934   4.421   1.348  12.083 -1.8197 -0.8759  0.2199
 1481TIP3    H225935   4.466   1.296  12.218  2.5628  1.3007 -0.2366
 1482TIP3   OH225936   5.488   6.822   4.435  0.0544  0.4866  0.3032
 1482TIP3    H125937   5.572   6.857   4.465 -0.6026  0.1587  2.7070
 1482TIP3    H225938   5.428   6.839   4.507 -1.3330 -1.6173 -0.2880
 1483TIP3   OH225939   1.517   4.249  11.303 -0.1061  0.3980  0.1796
 1483TIP3    H125940   1.524   4.154  11.295 -0.4643  0.2495  1.4304
 1483TIP3    H225941   1.564   4.283  11.227  0.2252 -0.7718 -0.1593
 1484TIP3   OH225942   6.138   4.205   0.482 -0.8535  0.5784 -0.4181
 1484TIP3    H125943   6.087   4.285   0.490 -0.1528  0.8481  2.0578
 1484TIP3    H225944   6.082   4.137   0.519  0.0141  0.6642  1.1562
 1485TIP3   OH225945   0.756   0.657   4.887 -0.3367 -0.1833  0.0946
 1485TIP3    H125946   0.837   0.679   4.934  0.6505 -1.6941 -0.8270
 1485TIP3    H225947   0.752   0.722   4.817 -1.2197  1.3721  1.5100
 1486TIP3   OH225948   3.447   3.253  16.417 -0.2340  0.1033  0.2158
 1486TIP3    H125949   3.507   3.178  16.425 -0.4002 -0.0736 -0.1891
 1486TIP3    H225950   3.460   3.302  16.498 -0.4908 -0.6385  0.7248
 1487TIP3   OH225951   3.678   3.487   0.884  0.5952  0.0180  0.2676
 1487TIP3    H125952   3.595   3.534   0.871  1.2417  0.6738 -1.7733
 1487TIP3    H225953   3.666   3.405   0.836  0.1295 -1.2432  2.3659
 1488TIP3   OH225954   5.302   3.649  12.090  0.3290 -0.7964 -0.0565
 1488TIP3    H125955   5.249   3.596  12.150 -0.6855 -1.4758 -1.5100
 1488TIP3    H225956   5.364   3.587  12.051 -1.4684 -1.2038 -2.4596
 1489TIP3   OH225957   2.896   2.243   5.103  0.0656  0.1272  0.2197
 1489TIP3    H125958   2.953   2.231   5.027 -0.3146  0.1626 -0.0747
 1489TIP3    H225959   2.838   2.314   5.078  0.1862  0.3974  0.6964
 1490TIP3   OH225960   3.913   6.254   5.510 -0.3779 -0.3126  0.4692
 1490TIP3    H125961   3.874   6.216   5.589  0.2294  0.3897  1.1333
 1490TIP3    H225962   3.845   6.313   5.476 -0.6673 -0.6681  0.4267
 1491TIP3   OH225963   2.181   5.583   5.511  0.3413 -0.3130 -0.4023
 1491TIP3    H125964   2.171   5.573   5.606 -0.1514 -2.0846 -0.5993
 1491TIP3    H225965   2.264   5.628   5.501 -0.0230  0.7173  0.8896
 1492TIP3   OH225966   1.027   2.164  15.761 -0.0303  0.7149  0.2647
 1492TIP3    H125967   1.040   2.259  15.755  1.1053  0.5654  0.1446
 1492TIP3    H225968   1.112   2.130  15.786  0.2928 -0.5018 -2.2175
 1493TIP3   OH225969   2.182   2.079  16.514  0.1301  0.2421 -0.6344
 1493TIP3    H125970   2.103   2.090  16.567  0.2805 -0.1609 -0.3273
 1493TIP3    H225971   2.165   2.133  16.436  0.0167  1.0560 -0.0674
 1494TIP3   OH225972   5.531   1.826  12.501 -0.2883 -0.0814 -0.0662
 1494TIP3    H125973   5.450   1.877  12.506  0.1781  0.5759  1.2542
 1494TIP3    H225974   5.581   1.866  12.430 -1.0766 -0.4294 -0.8248
 1495TIP3   OH225975   5.294   1.964  12.506  0.0468  0.1666  0.1485
 1495TIP3    H125976   5.246   2.011  12.437 -0.9983 -1.8887 -0.6186
 1495TIP3    H225977   5.313   2.031  12.572 -0.7972  1.7706 -1.1464
 1496TIP3   OH225978   0.611   5.420  13.627  0.5352 -0.7490 -0.3699
 1496TIP3    H125979   0.636   5.512  13.631 -0.9666 -0.2487 -1.5077
 1496TIP3    H225980   0.674   5.375  13.683  1.5752  0.9034 -0.1608
 1497TIP3   OH225981   1.091   2.895  14.759  0.0737  0.3325  0.7305
 1497TIP3    H125982   0.998   2.873  14.756 -0.5992  2.8774  0.0124
 1497TIP3    H225983   1.111   2.927  14.671  1.1588  1.3622  1.3200
 1498TIP3   OH225984   5.724   3.233   5.674  0.7053 -0.0280 -0.4345
 1498TIP3    H125985   5.737   3.281   5.756 -1.6057  0.2812 -0.1814
 1498TIP3    H225986   5.742   3.142   5.698 -1.8747 -0.2522  1.0389
 1499TIP3   OH225987   3.611   2.055   1.194  0.0045  0.6590 -0.0480
 1499TIP3    H125988   3.607   1.997   1.118 -0.4023  0.0117  0.4520
 1499TIP3    H225989   3.599   2.143   1.158 -1.4850  0.2562 -0.6054
 1500TIP3   OH225990   0.593   3.009   5.794  0.3307  0.3112 -0.3234
 1500TIP3    H125991   0.537   2.943   5.751 -0.5471  1.4560 -0.9939
 1500TIP3    H225992   0.660   2.957   5.838 -1.3576 -1.1435  0.6808
 1501TIP3   OH225993   1.931   4.500   2.246 -0.7426  0.6319  0.1781
 1501TIP3    H125994   1.896   4.453   2.170  1.1208  1.0789 -1.0153
 1501TIP3    H225995   1.941   4.432   2.314  0.2385 -0.3852 -0.9354
 1502TIP3   OH225996   6.366   5.801   4.923 -0.0101 -0.1604  0.1277
 1502TIP3    H125997   6.456   5.809   4.892 -0.2126  0.1515 -0.3852
 1502TIP3    H225998   6.365   5.850   5.005  0.1397  0.3612 -0.1769
 1503TIP3   OH225999   2.335   5.615   0.508 -0.2933 -0.0784 -0.2733
 1503TIP3    H126000   2.262   5.553   0.508 -0.5258  0.1925 -0.2672
 1503TIP3    H226001   2.296   5.698   0.538 -0.5688  0.7398 -2.6933
 1504TIP3   OH226002   4.493   1.913  13.419 -0.2922 -0.2024 -0.0962
 1504TIP3    H126003   4.543   1.917  13.337  0.7993  0.9399  0.5812
 1504TIP3    H226004   4.427   1.981  13.410  0.4842  0.6427  0.3425
 1505TIP3   OH226005   3.361   5.495   3.799  0.1107  0.1148 -1.0388
 1505TIP3    H126006   3.370   5.576   3.750  2.9929  1.0041  0.6999
 1505TIP3    H226007   3.408   5.430   3.746 -1.5595 -0.3113 -2.0655
 1506TIP3   OH226008   5.077   3.274  12.180  0.5932 -0.1306  0.1598
 1506TIP3    H126009   5.047   3.364  12.187 -0.8841 -0.5457 -0.5645
 1506TIP3    H226010   5.069   3.239  12.269 -2.7174 -0.6971 -0.2563
 1507TIP3   OH226011   5.423   0.604   2.556  0.4060  0.1425 -0.2214
 1507TIP3    H126012   5.501   0.634   2.508  0.1848  0.1843 -0.5613
 1507TIP3    H226013   5.368   0.563   2.488  0.9384 -1.5218  0.3068
 1508TIP3   OH226014   4.840   5.444   4.704 -0.0617 -0.4330  0.2892
 1508TIP3    H126015   4.819   5.515   4.643 -0.9183 -2.5540 -2.1138
 1508TIP3    H226016   4.793   5.466   4.784 -1.2361  1.1636 -0.7652
 1509TIP3   OH226017   2.703   4.161  14.482 -0.1564  0.8999 -0.0821
 1509TIP3    H126018   2.727   4.205  14.564 -0.8021  0.9320  0.0883
 1509TIP3    H226019   2.778   4.105  14.463 -0.6993 -0.4394  1.4477
 1510TIP3   OH226020   6.582   4.484  13.412 -0.1421  0.7592 -0.4997
 1510TIP3    H126021   6.568   4.400  13.368  3.8754 -0.0737 -0.5761
 1510TIP3    H226022   6.556   4.550  13.348 -3.0947 -0.3003 -0.5534
 1511TIP3   OH226023   1.467   2.785   0.859 -0.0768 -0.4813  0.3570
 1511TIP3    H126024   1.498   2.810   0.772  2.4594  0.4312  1.4580
 1511TIP3    H226025   1.521   2.710   0.883 -0.9535 -0.9068  1.0469
 1512TIP3   OH226026   2.895   6.644   3.404 -0.0499 -0.0827 -0.3240
 1512TIP3    H126027   2.858   6.732   3.408  0.6210  0.1584  2.8055
 1512TIP3    H226028   2.978   6.650   3.452  0.1442 -2.3858 -0.2493
 1513TIP3   OH226029   0.097   1.171  15.787  0.3564 -0.5535  0.0085
 1513TIP3    H126030   0.159   1.232  15.825  0.0239  0.3443 -0.8498
 1513TIP3    H226031   0.025   1.226  15.757  0.4590 -1.2577 -1.6072
 1514TIP3   OH226032   6.784   5.516   2.938 -0.1835  0.1364  0.2755
 1514TIP3    H126033   6.699   5.549   2.968 -0.4486 -1.4058  1.3367
 1514TIP3    H226034   6.845   5.588   2.953 -1.1009  0.8791  0.5313
 1515TIP3   OH226035   3.331   3.251   5.100 -0.3883  0.6690  0.0685
 1515TIP3    H126036   3.270   3.197   5.050  0.9647 -0.8712 -0.0513
 1515TIP3    H226037   3.289   3.262   5.185 -1.3597  0.6887 -0.3999
 1516TIP3   OH226038   1.896   3.985   2.878  0.1779 -0.4271  0.1741
 1516TIP3    H126039   1.885   3.979   2.973 -0.7700  0.4463  0.1423
 1516TIP3    H226040   1.960   4.055   2.865 -0.7040  0.3992  0.1549
 1517TIP3   OH226041   4.724   5.581  11.976  0.8139 -0.3597 -0.8508
 1517TIP3    H126042   4.780   5.504  11.969  4.0996  1.4618  1.8858
 1517TIP3    H226043   4.769   5.648  11.924 -0.4991  0.4270 -1.0234
 1518TIP3   OH226044   4.539   2.339   1.802  0.1885  0.4928  0.1463
 1518TIP3    H126045   4.581   2.363   1.885 -0.5157 -0.3160  0.7474
 1518TIP3    H226046   4.457   2.298   1.827 -0.1077  0.3709 -0.9672
 1519TIP3   OH226047   5.267   6.504   0.536 -0.2810 -0.4905  0.7318
 1519TIP3    H126048   5.214   6.424   0.542  0.5779 -1.2136 -0.6992
 1519TIP3    H226049   5.298   6.519   0.626  1.6461 -3.2950  0.6802
 1520TIP3   OH226050   2.613   1.720   5.129  0.0192 -0.5274  0.1307
 1520TIP3    H126051   2.655   1.638   5.103 -0.7458 -1.0188  0.4250
 1520TIP3    H226052   2.628   1.779   5.055  0.5887 -0.9198 -0.0741
 1521TIP3   OH226053   1.848   4.679   1.336  0.2178 -0.0617 -0.4052
 1521TIP3    H126054   1.935   4.715   1.319 -0.8839  1.7715 -2.8230
 1521TIP3    H226055   1.811   4.665   1.249 -2.6870  1.3363  0.4937
 1522TIP3   OH226056   2.117   3.491  16.790 -0.2201  0.1889  0.2315
 1522TIP3    H126057   2.166   3.426  16.841  1.2909  0.5101 -0.7394
 1522TIP3    H226058   2.123   3.461  16.700  0.8855  1.8506 -0.2941
 1523TIP3   OH226059   0.995   2.963  12.794  0.0065 -0.6692  0.1337
 1523TIP3    H126060   0.925   2.958  12.860 -0.4589 -1.5295 -0.4057
 1523TIP3    H226061   1.009   3.057  12.781 -0.0149 -0.4893  1.3251
 1524TIP3   OH226062   3.085   2.579  14.153  0.0905 -0.1500  0.1389
 1524TIP3    H126063   3.062   2.526  14.229 -0.8606 -0.0009 -0.0322
 1524TIP3    H226064   3.180   2.591  14.160 -0.1504  1.1781  2.1719
 1525TIP3   OH226065   0.029   6.295  13.854 -0.1165 -0.5926 -0.3200
 1525TIP3    H126066  -0.057   6.255  13.871 -0.5650 -0.3405 -1.8963
 1525TIP3    H226067   0.044   6.351  13.930 -0.9682 -1.2603  0.3639
 1526TIP3   OH226068   2.470   4.692  14.597  0.3999 -0.2154 -0.3634
 1526TIP3    H126069   2.565   4.704  14.595  0.5453 -1.0419  0.4606
 1526TIP3    H226070   2.435   4.768  14.551  1.3533  1.6257  1.7011
 1527TIP3   OH226071   4.372   4.791  11.941  0.3045 -0.0440 -0.2152
 1527TIP3    H126072   4.348   4.808  12.032 -0.3228 -0.4441 -0.2971
 1527TIP3    H226073   4.351   4.698  11.928 -0.8349  0.3165 -1.1268
 1528TIP3   OH226074   0.270   4.288  12.594 -0.2381  0.0638  0.2016
 1528TIP3    H126075   0.251   4.194  12.588  0.4214 -0.1092  0.7091
 1528TIP3    H226076   0.192   4.330  12.558 -0.8377 -0.6603  0.6277
 1529TIP3   OH226077   3.463   1.941   2.565 -0.6468  0.8840  0.1427
 1529TIP3    H126078   3.389   1.886   2.538 -0.7319  1.0142  0.1091
 1529TIP3    H226079   3.540   1.895   2.532 -0.5137 -0.4786  2.1321
 1530TIP3   OH226080   4.906   1.228   5.109 -0.1473  0.1332 -0.0621
 1530TIP3    H126081   4.833   1.195   5.056  0.8013 -0.2116 -1.1742
 1530TIP3    H226082   4.880   1.208   5.199 -0.9820 -0.8890 -0.4993
 1531TIP3   OH226083   2.682   1.248  15.183 -0.5430  0.1055  0.2741
 1531TIP3    H126084   2.769   1.280  15.161 -1.8034  2.2646 -1.9602
 1531TIP3    H226085   2.665   1.282  15.271  0.5571  0.2959  0.4198
 1532TIP3   OH226086   4.987   6.711  11.769  0.0769  0.3028 -0.7316
 1532TIP3    H126087   5.017   6.700  11.859 -0.4266  3.6356 -0.0377
 1532TIP3    H226088   4.915   6.648  11.760 -0.1400  0.1823  1.3368
 1533TIP3   OH226089   5.671   1.211  11.772  0.4274 -0.0584  0.1277
 1533TIP3    H126090   5.679   1.144  11.839  1.0696 -0.0762  0.0400
 1533TIP3    H226091   5.749   1.202  11.719  0.6510  0.9154  0.2621
 1534TIP3   OH226092   4.507   6.701  15.774 -0.3974  0.4213  0.1984
 1534TIP3    H126093   4.491   6.778  15.719 -0.2320  0.2714 -0.0596
 1534TIP3    H226094   4.584   6.660  15.736 -1.8085 -1.1803 -1.0962
 1535TIP3   OH226095   1.330   1.368   0.737  0.4964 -0.0606  0.3734
 1535TIP3    H126096   1.238   1.343   0.725  0.0178  1.8753 -0.3416
 1535TIP3    H226097   1.326   1.448   0.790  1.8657 -0.7357  1.5454
 1536TIP3   OH226098   0.059   4.421  11.913  0.1022  0.5736  0.5284
 1536TIP3    H126099   0.000   4.347  11.926  0.8410  0.0972  1.3181
 1536TIP3    H226100   0.021   4.470  11.841 -1.0714  0.1001  0.8011
 1537TIP3   OH226101   0.273   3.545   2.132  0.5438  0.2544  0.2308
 1537TIP3    H126102   0.348   3.604   2.138 -0.0374  0.8431  2.8187
 1537TIP3    H226103   0.310   3.457   2.143  1.0850  0.3253 -0.8649
 1538TIP3   OH226104   1.659   5.123  13.756  0.0660  0.1057 -0.3816
 1538TIP3    H126105   1.566   5.136  13.739  0.0279 -0.1642 -0.3949
 1538TIP3    H226106   1.688   5.062  13.688 -0.0370 -0.7932  0.3566
 1539TIP3   OH226107   2.687   1.470  14.515 -0.5929  0.0394  0.3192
 1539TIP3    H126108   2.726   1.406  14.454 -0.7172 -0.0297  0.3134
 1539TIP3    H226109   2.746   1.545  14.510  1.3200 -1.1931  2.6228
 1540TIP3   OH226110   0.294   0.474  14.530 -0.1940 -0.0890 -0.2447
 1540TIP3    H126111   0.251   0.448  14.448  0.0057 -0.0958 -0.3493
 1540TIP3    H226112   0.387   0.459  14.513 -0.1881 -0.4928  0.1290
 1541TIP3   OH226113   2.829   4.283  11.569  0.1044 -0.5139 -0.2360
 1541TIP3    H126114   2.855   4.339  11.642 -0.1160 -0.8207  0.0807
 1541TIP3    H226115   2.911   4.266  11.522  0.0704  0.6159 -0.7242
 1542TIP3   OH226116   3.212   3.403   1.678  0.2654 -0.5133  0.1802
 1542TIP3    H126117   3.141   3.432   1.736 -0.2102 -0.0244 -0.6201
 1542TIP3    H226118   3.191   3.311   1.659 -0.9331 -0.0279 -1.0961
 1543TIP3   OH226119   3.252   0.875   6.569  0.4137 -0.2569 -0.2564
 1543TIP3    H126120   3.182   0.810   6.578  0.1563 -0.3339 -2.3701
 1543TIP3    H226121   3.206   0.958   6.559  0.6647 -0.1063 -0.1440
 1544TIP3   OH226122   5.824   0.577  16.765  0.6717  0.4318  0.3596
 1544TIP3    H126123   5.865   0.579  16.679 -0.8835  0.6559 -0.4003
 1544TIP3    H226124   5.864   0.651  16.812  1.4561  0.3649 -0.1801
 1545TIP3   OH226125   4.715   0.729   3.789  0.3931 -0.1571  0.4303
 1545TIP3    H126126   4.763   0.811   3.804  0.7348 -0.3678  0.5135
 1545TIP3    H226127   4.746   0.699   3.703  0.1694 -0.1309  0.3403
 1546TIP3   OH226128   0.920   4.016   4.716 -0.3934 -0.3037 -0.3576
 1546TIP3    H126129   0.828   4.014   4.743 -0.4829  0.0506 -0.6328
 1546TIP3    H226130   0.930   4.100   4.672  0.2736  0.0323  0.4045
 1547TIP3   OH226131   0.589   3.500   2.242  0.0595  0.0889  0.7156
 1547TIP3    H126132   0.583   3.502   2.146 -2.5289 -1.9873  0.7247
 1547TIP3    H226133   0.679   3.527   2.260  1.0538 -0.6583 -2.3651
 1548TIP3   OH226134   1.897   0.876   0.885 -0.0392  0.5971  0.7291
 1548TIP3    H126135   1.887   0.876   0.790 -0.4619 -1.1281  0.7365
 1548TIP3    H226136   1.822   0.927   0.917 -0.0864  0.8987  0.1515
 1549TIP3   OH226137   5.953   4.228   5.860 -0.0099  0.1163 -0.3823
 1549TIP3    H126138   5.868   4.184   5.857  0.6724 -1.2868 -0.2038
 1549TIP3    H226139   5.968   4.243   5.954 -0.1845  0.6462 -0.4345
 1550TIP3   OH226140   4.003   2.279  11.603 -0.0760 -0.8917 -0.5687
 1550TIP3    H126141   4.071   2.213  11.619  0.7879  0.1705  0.2731
 1550TIP3    H226142   3.954   2.283  11.686  1.4329  1.2432  0.3117
 1551TIP3   OH226143   0.990   0.656   0.645 -0.0975  0.4378 -0.0740
 1551TIP3    H126144   1.074   0.628   0.608 -0.3239 -0.8613  0.3414
 1551TIP3    H226145   0.929   0.652   0.572 -0.4298 -1.6111  0.2536
 1552TIP3   OH226146   6.357   3.530  12.249 -0.2236 -0.2127 -0.1911
 1552TIP3    H126147   6.355   3.591  12.175  0.1573  0.5458  0.4162
 1552TIP3    H226148   6.410   3.573  12.315  1.1425 -1.7641 -0.2135
 1553TIP3   OH226149   4.174   3.432   5.321  0.5480  0.2863 -0.2808
 1553TIP3    H126150   4.212   3.507   5.276  0.9810 -1.1286 -2.4549
 1553TIP3    H226151   4.146   3.466   5.405 -0.5788  3.2205 -1.7013
 1554TIP3   OH226152   0.184   5.998   2.883 -0.5084  0.1785  0.0520
 1554TIP3    H126153   0.122   6.063   2.916  0.0847  0.8324 -0.1069
 1554TIP3    H226154   0.181   6.007   2.788  0.3816  0.7507  0.0627
 1555TIP3   OH226155   6.518   6.302   2.631 -0.2062 -0.1116  0.0748
 1555TIP3    H126156   6.439   6.356   2.627  0.5023  1.0064  0.6009
 1555TIP3    H226157   6.580   6.355   2.680  1.4870 -0.1587 -1.8570
 1556TIP3   OH226158   4.347   4.814  15.306  0.1695 -0.1854 -0.7545
 1556TIP3    H126159   4.434   4.842  15.337 -0.3633 -0.2101  0.8447
 1556TIP3    H226160   4.341   4.722  15.332 -1.2291  0.4340  1.3234
 1557TIP3   OH226161   1.374   5.455  15.892  0.4673  0.0175 -0.1863
 1557TIP3    H126162   1.331   5.372  15.870 -0.4369  0.6569 -0.9127
 1557TIP3    H226163   1.377   5.456  15.988  0.1456 -0.6758 -0.1619
 1558TIP3   OH226164   0.489   0.085   3.678  0.6679  0.3849 -0.1516
 1558TIP3    H126165   0.398   0.107   3.700  0.2289 -1.1393 -0.2985
 1558TIP3    H226166   0.509   0.142   3.603  0.0592  1.1818  0.2663
 1559TIP3   OH226167   1.606   5.140   6.011 -1.0277  0.1445 -0.4285
 1559TIP3    H126168   1.666   5.205   6.048  0.0107 -1.3864  0.7544
 1559TIP3    H226169   1.537   5.132   6.076 -1.0738 -0.0272 -0.4984
 1560TIP3   OH226170   4.321   6.446  11.830  0.4504  0.2705 -0.1318
 1560TIP3    H126171   4.279   6.406  11.906  0.0103 -0.0747 -0.5530
 1560TIP3    H226172   4.334   6.374  11.768  1.8226  0.3336  0.0451
 1561TIP3   OH226173   1.162   3.753  12.611 -0.2921  0.1510 -0.2137
 1561TIP3    H126174   1.089   3.754  12.549  0.4322 -0.2443 -1.0763
 1561TIP3    H226175   1.214   3.677  12.587  1.3443  1.3885 -0.7104
 1562TIP3   OH226176   4.640   1.941  16.071  0.0467 -0.4189 -0.0316
 1562TIP3    H126177   4.686   1.898  15.999 -0.1345 -1.6131  0.5393
 1562TIP3    H226178   4.675   1.899  16.150  0.3430  0.9609  0.5904
 1563TIP3   OH226179   1.253   0.415   1.402  0.3281 -0.1224  0.3802
 1563TIP3    H126180   1.298   0.473   1.342 -1.3858 -0.1694 -1.0175
 1563TIP3    H226181   1.286   0.327   1.380  0.7669  0.0003  0.5277
 1564TIP3   OH226182   3.446   3.830   6.396 -0.1331  0.5898 -0.8295
 1564TIP3    H126183   3.451   3.920   6.430  0.6226  0.7203 -1.2735
 1564TIP3    H226184   3.359   3.800   6.422  0.3230  0.7523  1.0646
 1565TIP3   OH226185   5.030   6.701  16.464  0.4947 -0.1749 -0.5341
 1565TIP3    H126186   4.990   6.626  16.507 -0.2380  0.6512  0.2521
 1565TIP3    H226187   5.046   6.672  16.374 -2.5172 -0.3255 -1.1078
 1566TIP3   OH226188   6.211   4.754  16.530  0.1294  0.2450 -0.0977
 1566TIP3    H126189   6.157   4.824  16.567  0.6682 -0.2339  1.7163
 1566TIP3    H226190   6.250   4.793  16.452 -0.4363  1.5972  0.2547
 1567TIP3   OH226191   4.231   2.311  15.353  0.2912  0.7524 -0.2161
 1567TIP3    H126192   4.189   2.390  15.386 -1.0222 -0.1687  0.3793
 1567TIP3    H226193   4.211   2.244  15.417  0.3153 -0.3635 -1.3341
 1568TIP3   OH226194   1.006   4.879   6.157 -0.0532  0.1265  0.0438
 1568TIP3    H126195   1.083   4.931   6.181  0.5295 -0.8249  0.2908
 1568TIP3    H226196   0.932   4.937   6.173  0.5964  0.9732  0.0447
 1569TIP3   OH226197   0.089   1.214  12.751 -0.5813  1.0465  0.4924
 1569TIP3    H126198   0.051   1.267  12.821  1.9149 -0.5523  3.3279
 1569TIP3    H226199   0.040   1.132  12.755 -1.2564  1.3778 -0.5732
 1570TIP3   OH226200   2.062   2.882   6.119 -0.2228 -0.3156  0.4402
 1570TIP3    H126201   2.057   2.852   6.209  1.0010  1.5581  1.2161
 1570TIP3    H226202   1.975   2.914   6.099 -0.4708 -0.6218  1.0116
 1571TIP3   OH226203   4.878   6.009  14.317 -0.1355  0.8191  0.2783
 1571TIP3    H126204   4.824   5.987  14.241 -0.2419 -0.2622  0.6538
 1571TIP3    H226205   4.933   5.932  14.331  1.2171  1.7320  0.1700
 1572TIP3   OH226206   0.422   0.389  12.756  0.4041 -0.3593 -0.0175
 1572TIP3    H126207   0.509   0.376  12.717  0.5098 -1.3466  0.5092
 1572TIP3    H226208   0.377   0.306  12.743  0.3517 -0.6417  1.6870
 1573TIP3   OH226209   0.924   5.804  13.315 -0.1969  0.1352 -0.2822
 1573TIP3    H126210   0.854   5.816  13.379  0.6585 -0.3896  0.7952
 1573TIP3    H226211   0.979   5.882  13.323 -0.8689  0.7558 -1.4409
 1574TIP3   OH226212   3.066   5.899  14.700  0.5886 -0.5837 -0.2648
 1574TIP3    H126213   3.140   5.890  14.759  1.1875 -1.3120 -1.1043
 1574TIP3    H226214   3.043   5.992  14.705  0.2108 -0.7268  1.5587
 1575TIP3   OH226215   3.459   2.036   2.153 -0.6609 -0.2722 -0.0562
 1575TIP3    H126216   3.470   1.999   2.066  0.1681 -2.4056  0.8903
 1575TIP3    H226217   3.374   2.080   2.150 -1.1069 -1.1748 -1.6376
 1576TIP3   OH226218   4.983   3.269  14.375  0.8100  0.0994 -0.4604
 1576TIP3    H126219   4.953   3.186  14.337  1.4875 -0.3835  0.0279
 1576TIP3    H226220   5.010   3.245  14.464 -1.0397  1.2455  0.4850
 1577TIP3   OH226221   6.018   2.010  13.962 -0.7585 -0.4370 -0.4119
 1577TIP3    H126222   6.068   2.090  13.977  0.0793 -1.1452  0.7817
 1577TIP3    H226223   5.942   2.017  14.021 -0.2846 -0.8306  0.2688
 1578TIP3   OH226224   2.224   4.480   4.746  0.4854  0.5001  0.3804
 1578TIP3    H126225   2.256   4.398   4.708  0.8183  1.2380 -0.9763
 1578TIP3    H226226   2.142   4.455   4.789  1.2727 -0.8029  1.2209
 1579TIP3   OH226227   4.938   2.535   1.660  0.0917  0.5281  0.6840
 1579TIP3    H126228   4.984   2.596   1.601 -0.8864  0.0675 -0.6113
 1579TIP3    H226229   4.929   2.584   1.742  1.7269  1.0979  0.5762
 1580TIP3   OH226230   6.409   6.518  10.911  0.7415  0.0537 -0.0026
 1580TIP3    H126231   6.336   6.575  10.936  0.7087 -0.3636  0.9055
 1580TIP3    H226232   6.449   6.561  10.836 -0.3305  0.3840 -0.3959
 1581TIP3   OH226233   1.242   0.609   4.625 -0.2556  0.0732 -0.1112
 1581TIP3    H126234   1.248   0.701   4.600 -0.5196  0.5165  1.3444
 1581TIP3    H226235   1.149   0.596   4.646 -0.2654 -0.5983 -0.5324
 1582TIP3   OH226236   5.268   4.893  14.464 -0.0047  0.4775 -0.0619
 1582TIP3    H126237   5.209   4.838  14.412  0.9754 -1.1177  0.4344
 1582TIP3    H226238   5.225   4.900  14.549 -0.3649  0.8927 -0.2774
 1583TIP3   OH226239   0.771   3.299   2.656 -0.7806  0.2652  0.2478
 1583TIP3    H126240   0.709   3.246   2.606 -0.4861 -0.0242  0.1828
 1583TIP3    H226241   0.850   3.245   2.661  0.1280  1.3596 -1.2744
 1584TIP3   OH226242   4.150   6.188  11.774  0.2682  0.7102  0.0776
 1584TIP3    H126243   4.167   6.102  11.735 -0.1478  0.7582 -0.2198
 1584TIP3    H226244   4.069   6.218  11.732 -0.6323  0.4268  1.5291
 1585TIP3   OH226245   3.280   6.298   6.068 -0.1716  0.7000  0.2684
 1585TIP3    H126246   3.268   6.393   6.070 -0.8306  0.6223  1.5844
 1585TIP3    H226247   3.362   6.284   6.021 -0.9501  1.8119 -1.5080
 1586TIP3   OH226248   0.373   0.745   2.593 -0.3204 -0.0394  0.0103
 1586TIP3    H126249   0.392   0.689   2.517  0.3240  1.9664 -1.3860
 1586TIP3    H226250   0.321   0.817   2.558 -1.0959  0.3009  1.7372
 1587TIP3   OH226251   5.119   1.339   5.723 -0.2789  0.0605 -0.4646
 1587TIP3    H126252   5.198   1.388   5.744  0.6394 -0.8789 -1.5992
 1587TIP3    H226253   5.136   1.250   5.755 -2.0003  0.4110  1.7540
 1588TIP3   OH226254   6.444   2.770  17.193 -0.1461 -0.1491 -0.5190
 1588TIP3    H126255   6.478   2.851  17.154 -0.0744 -0.8588 -1.9948
 1588TIP3    H226256   6.519   2.734  17.240 -0.0399  0.3905 -0.2648
 1589TIP3   OH226257   0.733   4.824  15.761  0.1397  0.0332  0.6217
 1589TIP3    H126258   0.798   4.880  15.718 -3.2737  4.5069  0.5488
 1589TIP3    H226259   0.758   4.825  15.854  0.8155  0.7548  0.4447
 1590TIP3   OH226260   1.185   2.629   4.151 -0.3050 -0.5897  0.6413
 1590TIP3    H126261   1.152   2.581   4.227 -2.7431 -1.1496 -0.6846
 1590TIP3    H226262   1.211   2.561   4.090 -3.3994 -0.3853 -1.0902
 1591TIP3   OH226263   0.385   5.550  15.888 -0.5047  0.4100 -0.6610
 1591TIP3    H126264   0.354   5.636  15.857 -1.0362  0.7111  0.6559
 1591TIP3    H226265   0.476   5.566  15.914  0.0947  0.0529 -2.3928
 1592TIP3   OH226266   0.333   0.272   2.209  0.7893 -0.2457 -0.5579
 1592TIP3    H126267   0.314   0.182   2.180  0.6095  0.2008 -1.8933
 1592TIP3    H226268   0.338   0.266   2.304  0.5429 -1.6304 -0.6130
 1593TIP3   OH226269   3.584   3.134  11.159 -0.2198  0.0160  0.0814
 1593TIP3    H126270   3.651   3.103  11.220 -0.8799  0.2287  0.9348
 1593TIP3    H226271   3.502   3.129  11.209 -0.4064  3.0128  0.2711
 1594TIP3   OH226272   0.256   1.838  16.888  0.4330 -0.1418 -0.0809
 1594TIP3    H126273   0.253   1.926  16.851 -1.7189 -1.0038 -2.2024
 1594TIP3    H226274   0.294   1.784  16.819 -1.7211 -1.4545 -0.3297
 1595TIP3   OH226275   2.476   6.089   3.753  0.2341  1.5640 -1.1493
 1595TIP3    H126276   2.464   6.041   3.671  2.3681 -0.0584 -0.6238
 1595TIP3    H226277   2.449   6.027   3.821  0.2153  2.2111 -0.5574
 1596TIP3   OH226278   3.805   6.373  16.479 -0.3272 -0.4162  0.0779
 1596TIP3    H126279   3.890   6.414  16.493  0.9422 -3.4149  2.2024
 1596TIP3    H226280   3.748   6.414  16.544 -0.3805  1.1187 -0.8872
 1597TIP3   OH226281   2.507   6.664  12.947 -0.0370  0.2657  0.1208
 1597TIP3    H126282   2.550   6.734  12.996 -1.2415  0.7870  0.4638
 1597TIP3    H226283   2.444   6.709  12.890  0.7647 -0.3935 -1.3281
 1598TIP3   OH226284   6.311   5.152   4.267 -0.0917  0.0431 -0.0309
 1598TIP3    H126285   6.398   5.187   4.243 -0.6066  0.3178 -1.6257
 1598TIP3    H226286   6.260   5.230   4.288  0.1169 -0.1427  1.2450
 1599TIP3   OH226287   2.709   1.303  16.472  0.0941 -0.2302 -0.0648
 1599TIP3    H126288   2.677   1.289  16.383  1.3456  0.8416 -0.7284
 1599TIP3    H226289   2.793   1.257  16.475 -0.4386 -1.1554  0.9185
 1600TIP3   OH226290   3.646   4.980  12.223  0.1697  0.4236 -0.2311
 1600TIP3    H126291   3.629   4.929  12.144 -0.4590 -0.3509  0.3810
 1600TIP3    H226292   3.741   4.973  12.236  0.1882  0.0211 -0.5596
 1601TIP3   OH226293   3.772   3.571   1.884  0.0222  0.2499  0.2330
 1601TIP3    H126294   3.798   3.482   1.860  1.0525  0.8249 -0.8961
 1601TIP3    H226295   3.855   3.615   1.905 -0.2627  1.4352 -0.9982
 1602TIP3   OH226296   4.443   2.053  15.153  0.0088  0.2812 -0.0748
 1602TIP3    H126297   4.435   1.987  15.085 -0.8091  0.0760  0.2043
 1602TIP3    H226298   4.364   2.106  15.144  1.1182  1.8593 -0.9336
 1603TIP3   OH226299   2.801   3.164   5.769  0.0018  0.1125  0.2884
 1603TIP3    H126300   2.747   3.123   5.837  0.0040 -0.4884 -0.0593
 1603TIP3    H226301   2.738   3.202   5.708 -0.0291 -0.2579  0.0836
 1604TIP3   OH226302   0.834   5.614  13.641  0.5607 -0.5633  0.4283
 1604TIP3    H126303   0.873   5.527  13.648  2.0606 -0.0547 -1.0482
 1604TIP3    H226304   0.887   5.668  13.700  1.0702 -0.2208 -0.3226
 1605TIP3   OH226305   5.710   5.315   1.278 -0.3893 -0.2827 -0.4670
 1605TIP3    H126306   5.658   5.237   1.257 -0.2801 -0.0240 -1.7624
 1605TIP3    H226307   5.759   5.334   1.198  2.8120 -1.3268  1.1213
 1606TIP3   OH226308   1.201   4.562   0.402 -0.6665  0.3935  0.3770
 1606TIP3    H126309   1.147   4.533   0.329  0.3988  0.0868 -0.2973
 1606TIP3    H226310   1.148   4.630   0.445 -0.8944  1.2898 -1.2495
 1607TIP3   OH226311   0.096   6.559   3.111 -0.0077  0.0034 -0.4270
 1607TIP3    H126312   0.168   6.513   3.068 -0.0894  0.8092 -1.4670
 1607TIP3    H226313   0.132   6.645   3.133 -0.4298  0.1441 -0.2706
 1608TIP3   OH226314   5.694   4.735  14.150 -0.1034 -0.4566  0.0165
 1608TIP3    H126315   5.611   4.713  14.192  0.1485 -0.9915  0.2468
 1608TIP3    H226316   5.761   4.704  14.211  0.3145  2.0711  0.9576
 1609TIP3   OH226317   2.888   3.065   2.972 -0.2791  0.4863  0.4716
 1609TIP3    H126318   2.929   3.147   2.946  0.2381 -0.1128 -0.7048
 1609TIP3    H226319   2.823   3.047   2.903  1.9447 -1.7315 -1.2404
 1610TIP3   OH226320   4.568   3.798   2.338  0.2287  0.0192  0.6911
 1610TIP3    H126321   4.481   3.808   2.300 -0.5349 -2.1885  1.7166
 1610TIP3    H226322   4.572   3.707   2.366  3.2356 -0.2135 -0.1577
 1611TIP3   OH226323   5.347   2.240   4.656  0.1992 -0.0312  0.0938
 1611TIP3    H126324   5.303   2.177   4.599 -1.7189  0.3538  1.0705
 1611TIP3    H226325   5.397   2.186   4.717 -1.2173 -0.6546  0.7633
 1612TIP3   OH226326   1.194   1.850   2.504 -0.5010 -0.2768  0.1268
 1612TIP3    H126327   1.137   1.856   2.428 -0.0720 -1.6222 -0.3252
 1612TIP3    H226328   1.267   1.794   2.476  0.1733  0.0198  1.2121
 1613TIP3   OH226329   4.778   2.819   2.694  0.5008  0.9477  0.1713
 1613TIP3    H126330   4.723   2.741   2.691  1.9006 -0.2103  1.9076
 1613TIP3    H226331   4.717   2.893   2.696 -1.1072 -0.2858  2.9357
 1614TIP3   OH226332   6.604   5.656  12.319 -0.0574  0.1724  0.2912
 1614TIP3    H126333   6.555   5.734  12.292  1.2690  1.1924  0.7321
 1614TIP3    H226334   6.683   5.658  12.264  1.1210  0.4841  1.9248
 1615TIP3   OH226335   5.406   6.423   3.017 -0.6415 -0.1988  0.1675
 1615TIP3    H126336   5.498   6.394   3.016 -0.5984 -0.0494 -0.3349
 1615TIP3    H226337   5.410   6.515   2.993 -1.0361 -0.5349 -1.2843
 1616TIP3   OH226338   2.881   3.188  12.424 -0.1517  0.0634  0.2828
 1616TIP3    H126339   2.870   3.098  12.455 -1.2362  0.7424  2.0518
 1616TIP3    H226340   2.811   3.201  12.361  0.6890 -0.6450 -0.8274
 1617TIP3   OH226341   1.172   5.966  13.061 -0.0371 -0.2171  0.1359
 1617TIP3    H126342   1.267   5.952  13.056 -0.2176 -1.9174  0.5993
 1617TIP3    H226343   1.153   5.962  13.155 -0.8098 -2.1888 -0.0484
 1618TIP3   OH226344   2.736   1.498  11.879 -0.1484 -0.1898 -0.4221
 1618TIP3    H126345   2.673   1.548  11.931  1.3135  0.1548  1.1062
 1618TIP3    H226346   2.697   1.411  11.872 -0.1948 -0.4152  1.7559
 1619TIP3   OH226347   4.812   1.180   2.451  0.4115 -0.5945  0.2823
 1619TIP3    H126348   4.881   1.201   2.388 -0.0887  0.3906  0.0313
 1619TIP3    H226349   4.733   1.174   2.398 -0.1587  1.0707  0.8859
 1620TIP3   OH226350   0.451   1.594   2.667 -0.0190  0.3457  0.5890
 1620TIP3    H126351   0.449   1.659   2.737  2.6350  3.5536 -2.0099
 1620TIP3    H226352   0.520   1.533   2.693  0.4294  1.0642  1.1199
 1621TIP3   OH226353   4.429   5.526   0.915 -0.3175  0.4805  0.4791
 1621TIP3    H126354   4.418   5.471   0.838 -2.2160 -0.3194  1.2510
 1621TIP3    H226355   4.422   5.616   0.882  1.9304  0.2991 -0.6639
 1622TIP3   OH226356   4.839   5.985  17.182 -0.0791  0.6507 -0.1432
 1622TIP3    H126357   4.773   5.921  17.156  0.9018 -0.2653 -0.4619
 1622TIP3    H226358   4.813   6.013  17.269 -0.3925 -0.3868  0.1052
 1623TIP3   OH226359   0.377   3.621  14.486  0.1292 -0.2686  0.7415
 1623TIP3    H126360   0.422   3.556  14.540 -0.8629 -1.6355 -0.0057
 1623TIP3    H226361   0.446   3.659  14.431  0.7130 -0.7649  1.1299
 1624TIP3   OH226362   0.257   4.967  11.035  0.7071  0.1756  0.5369
 1624TIP3    H126363   0.300   4.883  11.052 -0.3719 -0.3524  0.7375
 1624TIP3    H226364   0.203   4.950  10.958 -2.3016 -0.4010  2.6246
 1625TIP3   OH226365   3.279   6.531  13.059 -0.4272  0.4296 -0.1681
 1625TIP3    H126366   3.281   6.468  13.130  1.0590 -0.4741 -0.9544
 1625TIP3    H226367   3.348   6.594  13.081  2.7268 -1.8786 -2.4334
 1626TIP3   OH226368   0.034   5.740   0.066  0.5629  0.2365  0.3142
 1626TIP3    H126369   0.083   5.658   0.060 -1.0273 -0.9351  2.0386
 1626TIP3    H226370   0.008   5.759  -0.024 -0.9991 -2.4832  0.0748
 1627TIP3   OH226371   5.792   0.481  11.726 -0.0320 -0.2309  0.4344
 1627TIP3    H126372   5.723   0.538  11.693  1.6611  1.6922 -0.0035
 1627TIP3    H226373   5.842   0.456  11.647  0.1934 -1.0276  0.8150
 1628TIP3   OH226374   4.999   2.303  15.425 -0.3433 -0.8088  0.6364
 1628TIP3    H126375   4.993   2.362  15.350  1.0698 -0.1553  0.9976
 1628TIP3    H226376   4.995   2.215  15.388  0.7354 -0.4957 -0.2569
 1629TIP3   OH226377   3.059   2.936   6.838 -0.2862  0.0998 -0.4470
 1629TIP3    H126378   3.067   3.004   6.770  1.0018 -0.9220 -1.3683
 1629TIP3    H226379   3.149   2.907   6.853 -0.5321  0.4089  1.8604
 1630TIP3   OH226380   3.153   0.447   2.383  0.1126  0.7695  0.2207
 1630TIP3    H126381   3.113   0.498   2.454  0.3786  0.1367  0.8439
 1630TIP3    H226382   3.105   0.473   2.305 -1.5384  0.0297  0.9324
 1631TIP3   OH226383   2.569   3.646   6.148  0.4925  0.0431 -0.5377
 1631TIP3    H126384   2.560   3.639   6.053 -1.6468  0.2275 -0.3766
 1631TIP3    H226385   2.554   3.558   6.180  1.1176  0.0010 -0.3363
 1632TIP3   OH226386   2.883   6.643   1.766  0.1078  0.7103  0.2266
 1632TIP3    H126387   2.970   6.615   1.796 -1.0513 -3.7687  0.0932
 1632TIP3    H226388   2.830   6.646   1.845 -0.4220 -0.4039 -0.0567
 1633TIP3   OH226389   2.938   0.446   6.586  0.0304  0.1683 -0.1252
 1633TIP3    H126390   2.984   0.386   6.529 -0.5913 -0.9042  0.4728
 1633TIP3    H226391   2.934   0.402   6.671  0.2548  1.3914  0.5573
 1634TIP3   OH226392   6.749   4.110   2.518 -0.1080  0.5212 -0.1944
 1634TIP3    H126393   6.724   4.115   2.426 -0.4063 -0.9729 -0.2330
 1634TIP3    H226394   6.768   4.017   2.532 -0.3934  0.6641  1.3222
 1635TIP3   OH226395   0.023   5.349   5.320  0.0878  0.3173  0.9751
 1635TIP3    H126396   0.062   5.426   5.279  0.6300  0.4708  1.7593
 1635TIP3    H226397  -0.062   5.339   5.277  0.6230  0.4833 -0.1692
 1636TIP3   OH226398   4.717   0.247  13.658  0.0096  0.0645 -0.2777
 1636TIP3    H126399   4.672   0.264  13.575 -0.9652  0.8967  0.3933
 1636TIP3    H226400   4.668   0.175  13.698 -0.5459  0.7505  0.3028
 1637TIP3   OH226401   2.250   4.644   3.838  0.4473  0.1675  0.0647
 1637TIP3    H126402   2.278   4.665   3.927  2.5538 -1.1404 -0.2422
 1637TIP3    H226403   2.211   4.726   3.806  1.1450  1.1582  1.6099
 1638TIP3   OH226404   0.957   2.159  12.531 -0.5830 -0.0936  0.0445
 1638TIP3    H126405   0.994   2.072  12.521 -0.1749 -0.3973  3.1761
 1638TIP3    H226406   0.865   2.150  12.508 -0.2342 -0.9681 -1.0716
 1639TIP3   OH226407   1.519   2.140   2.987  0.7751  0.3991  0.4507
 1639TIP3    H126408   1.571   2.108   2.914  1.1758  1.0225  0.4558
 1639TIP3    H226409   1.474   2.217   2.952  1.0230  0.7416  0.8722
 1640TIP3   OH226410   3.679   1.795  12.542  0.3444  0.7365 -0.4784
 1640TIP3    H126411   3.765   1.789  12.501 -0.4324  0.1435 -2.1135
 1640TIP3    H226412   3.675   1.884  12.577  1.0949  1.2234 -1.5885
 1641TIP3   OH226413   0.107   1.703  15.291 -0.7903  0.2959  0.2698
 1641TIP3    H126414   0.153   1.786  15.282  1.9061 -0.7812  2.5850
 1641TIP3    H226415   0.089   1.694  15.384 -0.7356 -1.8146  0.1426
 1642TIP3   OH226416   5.171   1.045   2.783  0.4458  0.4185  0.5391
 1642TIP3    H126417   5.097   0.993   2.753  1.2710 -0.2784 -0.3585
 1642TIP3    H226418   5.244   0.983   2.788  1.8131  1.6571 -1.9305
 1643TIP3   OH226419   0.507   4.197  14.596 -0.2597  0.7042 -0.0152
 1643TIP3    H126420   0.528   4.287  14.622  1.1220  0.2332  0.5877
 1643TIP3    H226421   0.518   4.196  14.501  2.1672  0.6299  0.1901
 1644TIP3   OH226422   4.081   5.500   6.668  0.5446  0.3903 -0.1665
 1644TIP3    H126423   4.159   5.471   6.715 -0.0493 -0.0908  0.5381
 1644TIP3    H226424   4.104   5.490   6.575  0.9857 -0.6271  0.0423
 1645TIP3   OH226425   5.862   5.404  12.871 -0.1745 -0.3667 -0.0478
 1645TIP3    H126426   5.948   5.446  12.877  0.2613 -1.2974  0.4760
 1645TIP3    H226427   5.874   5.319  12.913 -1.2412 -0.6933 -0.3685
 1646TIP3   OH226428   0.800   3.012   1.223 -0.5571  0.4798 -0.5270
 1646TIP3    H126429   0.858   2.938   1.239 -1.5324 -0.0231  0.7867
 1646TIP3    H226430   0.840   3.085   1.270 -0.7495  0.2456 -0.0003
 1647TIP3   OH226431   2.778   1.488   1.676  0.0252  0.8207  0.0422
 1647TIP3    H126432   2.863   1.486   1.632  0.2450  1.5051  0.4174
 1647TIP3    H226433   2.767   1.400   1.710  0.6194  0.7425  0.0497
 1648TIP3   OH226434   3.726   6.564  15.414 -0.0773 -0.2442 -0.6628
 1648TIP3    H126435   3.726   6.489  15.355  0.8397 -0.5656 -0.2671
 1648TIP3    H226436   3.818   6.581  15.432 -0.3281  0.1235  0.3322
 1649TIP3   OH226437   4.938   3.239   3.799 -0.1040 -0.5106  0.2952
 1649TIP3    H126438   4.867   3.292   3.836 -0.6818 -1.3832  0.4499
 1649TIP3    H226439   4.969   3.291   3.725 -0.2024  0.3648  0.8494
 1650TIP3   OH226440   1.370   3.510  10.941  0.9009  0.0984  0.4682
 1650TIP3    H126441   1.356   3.492  11.035 -0.7651 -1.8367 -0.0588
 1650TIP3    H226442   1.385   3.423  10.903  1.5213  0.8549 -1.0654
 1651TIP3   OH226443   1.115   3.664  14.286  0.4423  0.1839  0.1836
 1651TIP3    H126444   1.195   3.682  14.237 -0.2285  1.2134 -0.5623
 1651TIP3    H226445   1.068   3.600  14.232  0.8751 -0.6290  0.7556
 1652TIP3   OH226446   2.728   0.681   2.900 -0.7605 -0.5208 -0.1406
 1652TIP3    H126447   2.635   0.681   2.923 -1.2675  0.1463 -2.0053
 1652TIP3    H226448   2.738   0.755   2.840  0.8780 -0.8882 -0.3703
 1653TIP3   OH226449   5.876   6.147   6.264 -0.5485 -0.3308 -0.1309
 1653TIP3    H126450   5.949   6.090   6.238 -0.0405 -0.7376  2.0481
 1653TIP3    H226451   5.901   6.181   6.349 -2.2927  0.6705  0.0236
 1654TIP3   OH226452   5.378   4.704  12.576 -0.7537  0.0005 -0.0624
 1654TIP3    H126453   5.321   4.634  12.609 -1.7041  0.5812 -0.4336
 1654TIP3    H226454   5.441   4.659  12.520  0.8379 -1.0129  2.3784
 1655TIP3   OH226455   5.446   6.436  15.218  0.8219 -0.8899  0.0776
 1655TIP3    H126456   5.439   6.483  15.300 -3.1630  0.8040 -1.0039
 1655TIP3    H226457   5.530   6.462  15.182  0.5975  2.1197  1.4815
 1656TIP3   OH226458   1.509   2.009   5.561  0.9163  0.1838 -0.7925
 1656TIP3    H126459   1.519   1.940   5.496  0.6618  0.1595 -0.8077
 1656TIP3    H226460   1.421   2.043   5.547  0.7680  0.0176 -0.3077
 1657TIP3   OH226461   1.162   3.564  16.327  0.0553  0.6426  0.3978
 1657TIP3    H126462   1.166   3.656  16.301  0.7342  0.7270  0.7850
 1657TIP3    H226463   1.147   3.567  16.422  1.0049  0.3645  0.5650
 1658TIP3   OH226464   5.253   4.097   2.106 -0.2443 -0.0654  0.4782
 1658TIP3    H126465   5.174   4.054   2.140  0.1538  0.0323  1.5622
 1658TIP3    H226466   5.223   4.142   2.027 -0.9794 -1.1253  0.1373
 1659TIP3   OH226467   4.156   3.700   2.583  0.3110  0.6568 -0.0746
 1659TIP3    H126468   4.122   3.624   2.631  1.5103  0.4583  0.4994
 1659TIP3    H226469   4.169   3.767   2.650  2.5165  0.1984  0.0158
 1660TIP3   OH226470   3.299   2.838   1.239  0.5641  0.1468 -0.0167
 1660TIP3    H126471   3.362   2.776   1.275 -0.6580 -1.1873 -0.1266
 1660TIP3    H226472   3.287   2.811   1.148 -0.6771 -0.0476  0.1909
 1661TIP3   OH226473   1.256   6.588   3.758 -0.1485 -0.2250  0.5151
 1661TIP3    H126474   1.194   6.617   3.825 -1.8193 -0.6778 -0.7499
 1661TIP3    H226475   1.247   6.654   3.688 -0.9749 -1.5259 -0.6601
 1662TIP3   OH226476   0.417   4.200   1.405 -0.3754 -0.0666  0.3564
 1662TIP3    H126477   0.411   4.105   1.416 -0.4173 -0.0685  0.3172
 1662TIP3    H226478   0.365   4.218   1.327 -0.0108 -0.0627  0.1152
 1663TIP3   OH226479   2.360   6.023   5.667  0.3263  0.2934 -0.4610
 1663TIP3    H126480   2.443   6.065   5.689  0.1140  1.0508 -1.0603
 1663TIP3    H226481   2.383   5.934   5.641  1.2492  1.2132 -3.0219
 1664TIP3   OH226482   2.900   2.214  14.217  0.2035  0.1948 -0.6417
 1664TIP3    H126483   2.921   2.123  14.193  0.8860  0.3671 -0.7278
 1664TIP3    H226484   2.824   2.236  14.164 -1.6765 -1.2020  1.3178
 1665TIP3   OH226485   4.686   3.059  16.434 -0.0792  0.2443 -0.0990
 1665TIP3    H126486   4.616   3.016  16.482 -0.4281  2.0901  1.1673
 1665TIP3    H226487   4.659   3.151  16.429  2.3211  1.0698  0.6594
 1666TIP3   OH226488   5.614   5.779   4.479  0.2105  0.1152 -0.3534
 1666TIP3    H126489   5.543   5.785   4.415 -0.4858  0.6463  0.4557
 1666TIP3    H226490   5.649   5.868   4.483  1.1338 -0.2020 -0.9601
 1667TIP3   OH226491   2.908   5.078  15.898  0.3580 -0.6658 -0.6134
 1667TIP3    H126492   2.867   5.165  15.906  0.2315 -0.7894  0.1294
 1667TIP3    H226493   2.859   5.036  15.827 -0.1066 -0.4197 -0.4481
 1668TIP3   OH226494   1.999   5.349  11.511 -0.1731  0.0062 -0.4770
 1668TIP3    H126495   1.966   5.296  11.584 -1.8807  1.0797 -0.4095
 1668TIP3    H226496   1.967   5.437  11.530 -0.2919  0.3924 -2.3066
 1669TIP3   OH226497   3.751   2.558  15.248 -0.3509 -0.7713  0.5367
 1669TIP3    H126498   3.820   2.516  15.299 -0.1545 -2.2566 -0.8978
 1669TIP3    H226499   3.670   2.516  15.278 -0.4749 -0.2132  1.0198
 1670TIP3   OH226500   6.274   3.937  12.518  0.6047 -0.1605  0.2677
 1670TIP3    H126501   6.349   3.910  12.570  2.2231  1.6787 -0.9815
 1670TIP3    H226502   6.262   4.030  12.538 -0.3674 -0.0478 -0.6973
 1671TIP3   OH226503   0.025   0.356  10.998 -0.4320  0.5163 -0.1419
 1671TIP3    H126504   0.060   0.280  10.952 -0.2695  0.0765  0.6833
 1671TIP3    H226505  -0.025   0.403  10.932  0.3737  0.2838 -0.9342
 1672TIP3   OH226506   0.460   1.101  14.254 -1.1172 -0.0474 -0.1650
 1672TIP3    H126507   0.475   1.027  14.313  1.2583 -0.2311 -0.8745
 1672TIP3    H226508   0.479   1.178  14.308 -2.1877 -0.0056  0.1769
 1673TIP3   OH226509   0.363   3.313  15.380 -0.4828  0.5158 -0.0092
 1673TIP3    H126510   0.343   3.391  15.431  0.4730  0.4334  0.5181
 1673TIP3    H226511   0.423   3.263  15.435 -0.7482 -0.3867 -0.5219
 1674TIP3   OH226512   2.990   2.639  15.824  0.0769 -0.5867 -0.5516
 1674TIP3    H126513   2.903   2.608  15.800 -0.5888  0.7445  0.0745
 1674TIP3    H226514   3.045   2.615  15.749 -0.9298 -0.9376 -1.2049
 1675TIP3   OH226515   5.475   3.009  13.042  0.7946  0.2127  0.1964
 1675TIP3    H126516   5.519   2.984  13.123 -1.6116  1.4295  2.0178
 1675TIP3    H226517   5.538   3.064  12.996  3.4281 -3.0128 -0.4286
 1676TIP3   OH226518   5.748   0.149   1.279  0.2282  0.1160 -0.3750
 1676TIP3    H126519   5.693   0.196   1.342 -0.2538  0.1857 -0.8412
 1676TIP3    H226520   5.734   0.057   1.298  0.5827  0.1418  0.0363
 1677TIP3   OH226521   5.528   1.655   4.420 -0.5843  0.0446  0.1836
 1677TIP3    H126522   5.454   1.612   4.463 -0.7443  0.4182  0.2797
 1677TIP3    H226523   5.502   1.746   4.413  0.1442  0.3125  0.8307
 1678TIP3   OH226524   1.730   2.279   5.856  0.0901 -0.2613 -0.8276
 1678TIP3    H126525   1.701   2.304   5.943 -1.3264  1.4277 -1.7178
 1678TIP3    H226526   1.767   2.191   5.867  0.1163 -0.0234  1.4692
 1679TIP3   OH226527   3.639   4.939   5.528 -0.8605 -0.6010  0.2822
 1679TIP3    H126528   3.725   4.904   5.505 -0.3871  0.4726  0.3467
 1679TIP3    H226529   3.602   4.876   5.589 -0.8670 -1.9608 -1.0694
 1680TIP3   OH226530   2.620   2.512  16.953  0.2055  0.0729 -0.9094
 1680TIP3    H126531   2.574   2.476  16.877 -0.7688  0.5251 -0.5511
 1680TIP3    H226532   2.612   2.444  17.020  0.9951 -0.2918 -1.1659
 1681TIP3   OH226533   4.881   5.907   5.301 -0.4925  0.2522 -0.4390
 1681TIP3    H126534   4.862   5.853   5.378  0.4647 -0.9132 -0.9851
 1681TIP3    H226535   4.804   5.897   5.245  0.2955 -1.9543 -1.2686
 1682TIP3   OH226536   3.509   4.551   6.420 -0.1073  0.2421  0.4940
 1682TIP3    H126537   3.425   4.556   6.466 -1.4150 -0.5218 -1.6537
 1682TIP3    H226538   3.534   4.642   6.407 -2.1479  0.6173 -1.3751
 1683TIP3   OH226539   3.069   2.969  15.059  0.1735 -0.1352 -0.5289
 1683TIP3    H126540   3.117   2.949  15.140  0.7855 -0.1221 -0.8775
 1683TIP3    H226541   2.978   2.946  15.078  0.1424  0.7385  0.4619
 1684TIP3   OH226542   2.674   3.596  16.537  0.0545 -0.2082  0.1382
 1684TIP3    H126543   2.706   3.679  16.503  1.0424 -0.6202  0.0104
 1684TIP3    H226544   2.591   3.617  16.580  0.8271  1.0397  1.0688
 1685TIP3   OH226545   5.407   1.375  11.053 -0.1376  0.3936 -0.5374
 1685TIP3    H126546   5.422   1.322  11.131  1.3170  1.8036  0.2053
 1685TIP3    H226547   5.410   1.466  11.084  0.5437  0.9997 -2.2159
 1686TIP3   OH226548   0.951   3.605   0.615  0.1202  0.6640 -0.3086
 1686TIP3    H126549   0.972   3.604   0.521  0.4265  3.1987 -0.3397
 1686TIP3    H226550   0.904   3.523   0.630  1.5703 -0.6185 -2.2965
 1687TIP3   OH226551   2.279   4.527  15.775  0.3856  0.3545  0.5632
 1687TIP3    H126552   2.367   4.491  15.787  0.3560  0.2748  0.5445
 1687TIP3    H226553   2.281   4.568  15.689  0.9575  1.9757  1.3029
 1688TIP3   OH226554   3.758   0.895  10.907 -0.0514  0.1227 -0.1804
 1688TIP3    H126555   3.820   0.896  10.979  1.8080  0.1322 -1.6971
 1688TIP3    H226556   3.766   0.982  10.868 -0.9873  0.1011 -0.4566
 1689TIP3   OH226557   1.016   4.378  12.930  0.2295  0.5313  0.2422
 1689TIP3    H126558   1.060   4.293  12.924 -1.7547 -0.5424 -0.3984
 1689TIP3    H226559   1.009   4.407  12.839  0.4778  1.1698  0.4199
 1690TIP3   OH226560   4.096   1.140   5.040  0.2109 -0.6281 -0.1753
 1690TIP3    H126561   4.160   1.207   5.060 -1.3920  2.0513 -3.1152
 1690TIP3    H226562   4.015   1.169   5.082 -0.0037 -1.9309  0.3599
 1691TIP3   OH226563   4.559   1.443  11.729 -0.7484 -0.3004  0.4367
 1691TIP3    H126564   4.574   1.356  11.765  1.6278 -0.2231 -0.2290
 1691TIP3    H226565   4.508   1.489  11.796 -0.6684 -1.6926  1.4813
 1692TIP3   OH226566   5.526   4.748   3.764 -0.0544  0.3066  0.7616
 1692TIP3    H126567   5.527   4.675   3.702 -1.9291 -0.8018  1.9482
 1692TIP3    H226568   5.447   4.797   3.743  1.7796  2.8249 -0.8109
 1693TIP3   OH226569   6.182   0.956   4.127  0.3783  0.0443  0.5744
 1693TIP3    H126570   6.212   0.879   4.079 -1.4119 -0.0614 -0.4434
 1693TIP3    H226571   6.189   1.028   4.064 -0.3609  0.2307  0.6983
 1694TIP3   OH226572   4.758   5.449  15.568  0.3117  0.0848 -0.4542
 1694TIP3    H126573   4.755   5.463  15.473 -0.4520 -0.8617 -0.5832
 1694TIP3    H226574   4.843   5.409  15.584 -0.7340 -2.7404 -1.2255
 1695TIP3   OH226575   0.372   5.078   1.536  0.5499 -0.3536 -0.0198
 1695TIP3    H126576   0.285   5.044   1.512 -0.1022  0.9689  0.3656
 1695TIP3    H226577   0.394   5.033   1.617  0.6366 -1.3707 -0.5984
 1696TIP3   OH226578   2.750   5.626   2.655 -0.3172  0.0175 -0.0700
 1696TIP3    H126579   2.720   5.644   2.566 -1.1288 -0.7465  0.0312
 1696TIP3    H226580   2.670   5.606   2.703  0.2621 -1.1831  0.4346
 1697TIP3   OH226581   6.276   6.456   1.108  0.1624 -0.2083  0.5448
 1697TIP3    H126582   6.250   6.539   1.149 -0.2236 -0.7959  1.5074
 1697TIP3    H226583   6.320   6.408   1.178  3.2995  0.4418 -0.8020
 1698TIP3   OH226584   3.247   1.253   1.542 -0.3219  0.8548  0.1697
 1698TIP3    H126585   3.240   1.307   1.463  2.1201  2.0774  0.6870
 1698TIP3    H226586   3.269   1.165   1.509  0.8679  1.3945 -0.5391
 1699TIP3   OH226587   0.888   6.222   2.975 -0.3949  0.7523  0.3957
 1699TIP3    H126588   0.976   6.190   2.991  0.0284  1.4768 -0.3675
 1699TIP3    H226589   0.900   6.299   2.919 -1.4663  1.2607  0.8190
 1700TIP3   OH226590   2.061   0.686   5.201  0.4391 -0.8694 -0.2518
 1700TIP3    H126591   2.117   0.640   5.264  1.7270  1.3921  0.3943
 1700TIP3    H226592   2.114   0.693   5.122  0.2099 -0.6167 -0.3857
 1701TIP3   OH226593   3.667   3.695   1.330  0.1703 -0.3183 -0.3578
 1701TIP3    H126594   3.710   3.633   1.389 -0.7304  1.8717  2.8652
 1701TIP3    H226595   3.580   3.657   1.315 -0.7099  0.4084  2.3258
 1702TIP3   OH226596   6.580   4.509   4.235 -0.2473  0.2517 -0.4653
 1702TIP3    H126597   6.615   4.464   4.313 -0.5735  0.5179 -0.1637
 1702TIP3    H226598   6.651   4.505   4.171 -0.0017 -0.0299 -0.1781
 1703TIP3   OH226599   6.640   4.608   6.201  0.4190  0.5403  0.3587
 1703TIP3    H126600   6.590   4.560   6.267  0.2892 -0.4420 -0.4306
 1703TIP3    H226601   6.622   4.700   6.220 -2.7562  0.2601 -0.6390
 1704TIP3   OH226602   4.316   3.244   3.289  0.5415  0.1499  0.5184
 1704TIP3    H126603   4.247   3.192   3.328  1.0393 -1.2105 -0.3319
 1704TIP3    H226604   4.320   3.324   3.342 -0.2423 -0.6737  1.8593
 1705TIP3   OH226605   6.670   5.738  13.246 -0.0485  0.0147 -0.4437
 1705TIP3    H126606   6.642   5.745  13.337  0.1946  0.4627 -0.3982
 1705TIP3    H226607   6.593   5.763  13.195  0.2726  1.3282 -0.3186
 1706TIP3   OH226608   3.781   5.914  10.843 -0.1047  0.5771 -0.3617
 1706TIP3    H126609   3.782   5.843  10.778 -1.9967  0.3043 -0.1312
 1706TIP3    H226610   3.741   5.988  10.799 -0.6613  0.6442  0.2421
 1707TIP3   OH226611   4.913   2.996  14.263 -0.6429  0.0340  0.1878
 1707TIP3    H126612   4.921   2.919  14.206  0.6686 -1.1618  1.8647
 1707TIP3    H226613   4.824   2.991  14.297 -0.8737 -0.2196 -0.4412
 1708TIP3   OH226614   0.063   5.567   3.519 -0.2110 -0.3541 -0.7615
 1708TIP3    H126615   0.068   5.544   3.612  2.9404 -0.0843 -0.7489
 1708TIP3    H226616   0.028   5.656   3.518  1.9850  0.6304  0.4845
 1709TIP3   OH226617   5.688   2.961   4.048  0.0392 -0.2900  0.5889
 1709TIP3    H126618   5.756   2.907   4.009  0.1998  0.3150  0.0013
 1709TIP3    H226619   5.657   2.911   4.123  0.7206 -0.8382  0.5152
 1710TIP3   OH226620   5.605   2.630  16.463 -0.6224  0.3920  0.2961
 1710TIP3    H126621   5.596   2.594  16.551  3.3754  0.6654  0.9900
 1710TIP3    H226622   5.622   2.554  16.407  0.9096  0.5159  0.5483
 1711TIP3   OH226623   3.244   1.638   4.270 -0.4831  0.6655 -0.0398
 1711TIP3    H126624   3.289   1.560   4.302  1.0471  1.8790  0.9424
 1711TIP3    H226625   3.216   1.683   4.349 -1.3919  1.1117 -0.5971
 1712TIP3   OH226626   0.936   3.871   6.415 -0.0272  0.0586 -0.3334
 1712TIP3    H126627   1.030   3.889   6.421  0.8171 -3.0425 -2.1334
 1712TIP3    H226628   0.899   3.913   6.492  3.2360 -0.9773  2.0323
 1713TIP3   OH226629   3.458   4.477  13.441  0.5792 -0.1134  0.0768
 1713TIP3    H126630   3.477   4.570  13.431 -0.1815 -0.0162 -0.5672
 1713TIP3    H226631   3.541   4.433  13.423  0.7109  0.3942 -0.5805
 1714TIP3   OH226632   0.172   4.030  10.847  0.1036 -0.1370  0.5702
 1714TIP3    H126633   0.090   4.030  10.896 -1.1851  3.4218 -1.2369
 1714TIP3    H226634   0.239   4.053  10.911 -0.4479 -1.7220  1.7866
 1715TIP3   OH226635   4.172   1.697   0.609  0.1424 -0.0569 -0.0594
 1715TIP3    H126636   4.245   1.746   0.573 -0.9065  1.6768  0.0568
 1715TIP3    H226637   4.114   1.681   0.535 -0.1573  0.0573  0.1487
 1716TIP3   OH226638   1.982   0.119   1.341  0.0366 -0.7528 -0.3422
 1716TIP3    H126639   1.928   0.147   1.267  0.5121  0.3074 -0.3105
 1716TIP3    H226640   2.072   0.143   1.316  0.0429  1.1326  1.2041
 1717TIP3   OH226641   3.262   6.392  14.922 -0.3080  0.2000  0.1494
 1717TIP3    H126642   3.269   6.344  14.839  0.6536  1.7300 -0.6876
 1717TIP3    H226643   3.249   6.483  14.896  0.1509  0.7245  1.6822
 1718TIP3   OH226644   2.625   1.257  14.694 -0.7177 -0.4404 -0.1241
 1718TIP3    H126645   2.641   1.332  14.637  0.7226  0.0637  0.8785
 1718TIP3    H226646   2.533   1.264  14.718 -0.0712  2.7101  2.1615
 1719TIP3   OH226647   6.006   4.386  11.796  0.1416 -0.1731  0.4124
 1719TIP3    H126648   6.034   4.450  11.729 -1.7779  1.2386  0.8834
 1719TIP3    H226649   6.065   4.403  11.870  0.5207  0.1259  0.0527
 1720TIP3   OH226650   0.568   2.279  14.381 -0.1157 -0.5361 -0.3594
 1720TIP3    H126651   0.475   2.268  14.402 -0.0238  1.5657  1.6160
 1720TIP3    H226652   0.598   2.346  14.442  2.7652 -1.2520 -0.8417
 1721TIP3   OH226653   6.701   6.300   2.019  0.3842 -0.4078 -0.0066
 1721TIP3    H126654   6.701   6.369   1.952 -0.4286 -1.7976 -1.5206
 1721TIP3    H226655   6.793   6.280   2.032  0.6305  0.9013  0.4143
 1722TIP3   OH226656   1.571   3.843   2.736  0.3937  0.5129 -0.0443
 1722TIP3    H126657   1.587   3.937   2.740 -1.1216  0.7592  1.2363
 1722TIP3    H226658   1.488   3.834   2.690  0.0572 -0.1189  0.6562
 1723TIP3   OH226659   2.161   5.329  16.300 -0.0998  0.4469  0.2754
 1723TIP3    H126660   2.110   5.318  16.381 -1.5527 -0.5740 -0.7352
 1723TIP3    H226661   2.240   5.277  16.314 -0.1052  0.6574  1.1926
 1724TIP3   OH226662   6.133   6.636   5.225  0.1353 -0.0561  0.7485
 1724TIP3    H126663   6.182   6.642   5.143  0.3995 -0.0123  0.9113
 1724TIP3    H226664   6.150   6.548   5.258  0.9872  0.3316  1.3612
 1725TIP3   OH226665   4.420   1.961   0.757  0.0567 -0.0592 -0.1044
 1725TIP3    H126666   4.475   2.039   0.757 -0.9899  0.7086 -0.4060
 1725TIP3    H226667   4.403   1.944   0.664  0.2128 -0.6001 -0.0348
 1726TIP3   OH226668   2.180   3.453  17.171 -0.1113  0.1481 -0.3348
 1726TIP3    H126669   2.110   3.516  17.190  0.5548  1.3874 -1.8290
 1726TIP3    H226670   2.199   3.464  17.078  3.0500  0.9365  0.2622
 1727TIP3   OH226671   1.998   5.167   4.234 -0.3058 -0.4802  0.2529
 1727TIP3    H126672   1.996   5.190   4.141 -0.2842 -0.6970  0.1986
 1727TIP3    H226673   2.049   5.237   4.275  0.3865 -0.8140 -0.0208
 1728TIP3   OH226674   5.259   3.290   4.469 -0.3577 -0.2342  0.2985
 1728TIP3    H126675   5.228   3.351   4.402 -1.6568 -0.6909  0.4555
 1728TIP3    H226676   5.184   3.278   4.527 -0.0806 -1.8716  0.3603
 1729TIP3   OH226677   2.161   4.241  12.334  1.0163 -0.2521 -0.3817
 1729TIP3    H126678   2.112   4.253  12.253 -0.4775 -2.2025  0.1289
 1729TIP3    H226679   2.094   4.243  12.402  1.7478 -2.0455  0.4480
 1730TIP3   OH226680   5.157   6.765   3.654  0.0701  0.3036 -0.0408
 1730TIP3    H126681   5.158   6.669   3.654 -0.2393  0.2993  0.5251
 1730TIP3    H226682   5.130   6.788   3.565  3.1253 -0.0730 -1.1900
 1731TIP3   OH226683   1.191   1.773   1.893 -0.3910 -0.0175  0.0629
 1731TIP3    H126684   1.228   1.821   1.819 -0.0317  1.4189  1.1230
 1731TIP3    H226685   1.248   1.697   1.904  0.2019  0.3417 -0.4504
 1732TIP3   OH226686   6.444   4.535  14.862 -0.2654  0.2219 -0.1143
 1732TIP3    H126687   6.441   4.513  14.769 -0.9037  0.8903 -0.2563
 1732TIP3    H226688   6.364   4.583  14.878  0.6667  1.6616  0.3875
 1733TIP3   OH226689   4.270   4.288   4.158  0.2578  0.1871  0.5965
 1733TIP3    H126690   4.332   4.329   4.219  0.3737  0.5388  0.2465
 1733TIP3    H226691   4.201   4.253   4.214  1.4188 -1.3908  1.1148
 1734TIP3   OH226692   1.535   3.530  11.701 -0.0662  0.2332 -0.1441
 1734TIP3    H126693   1.498   3.443  11.715 -0.5281  0.4243 -0.1682
 1734TIP3    H226694   1.538   3.570  11.789 -1.3479  0.7847 -0.3342
 1735TIP3   OH226695   4.942   0.130  11.339 -0.2122  0.2789  0.1740
 1735TIP3    H126696   4.861   0.109  11.292 -0.9760 -0.6932  1.8599
 1735TIP3    H226697   4.979   0.046  11.364  1.8119  0.6557 -1.2651
 1736TIP3   OH226698   1.846   0.401  15.502  0.1355 -0.3805  0.6796
 1736TIP3    H126699   1.883   0.319  15.470  0.7608 -0.4386  1.5191
 1736TIP3    H226700   1.761   0.375  15.538  0.8308 -0.8969  2.0281
 1737TIP3   OH226701   1.109   0.656   1.160 -0.0770  0.2065  0.5718
 1737TIP3    H126702   1.047   0.585   1.174 -1.2097  0.1557 -3.4325
 1737TIP3    H226703   1.186   0.613   1.121  0.4018  0.8428  0.7971
 1738TIP3   OH226704   4.484   6.086  17.095  0.0892 -0.0484 -0.2851
 1738TIP3    H126705   4.465   6.105  17.003  0.6704 -1.9313 -0.8438
 1738TIP3    H226706   4.477   5.991  17.102 -0.1727  0.0649  1.6907
 1739TIP3   OH226707   5.720   3.540  12.857  0.0429  0.5069 -0.2524
 1739TIP3    H126708   5.677   3.614  12.812 -1.2791  0.4919  0.9200
 1739TIP3    H226709   5.676   3.535  12.942 -0.9889 -2.5781 -0.8519
 1740TIP3   OH226710   6.334   6.243   3.295 -0.4099  0.2617 -0.2107
 1740TIP3    H126711   6.420   6.258   3.335 -0.6324 -1.0750  0.8244
 1740TIP3    H226712   6.326   6.148   3.290 -2.9757  0.2126  2.3196
 1741TIP3   OH226713   3.673   5.522  13.142 -0.1644  0.7852  0.2270
 1741TIP3    H126714   3.663   5.440  13.093  1.6282  0.2344  0.7326
 1741TIP3    H226715   3.604   5.519  13.209 -3.0006  1.7674 -2.3958
 1742TIP3   OH226716   0.173   6.768   3.307 -0.4939 -0.2207  0.0678
 1742TIP3    H126717   0.267   6.786   3.294 -0.8654  0.5600 -2.1145
 1742TIP3    H226718   0.151   6.815   3.387  0.9016 -0.0513  0.3888
 1743TIP3   OH226719   4.663   5.953  14.625 -0.6605 -0.3561 -0.1806
 1743TIP3    H126720   4.743   5.935  14.674  0.1358  1.2895 -0.7592
 1743TIP3    H226721   4.651   5.877  14.569 -0.8512 -1.6764  1.5561
 1744TIP3   OH226722   1.243   1.437  15.818 -0.3799 -0.1666 -0.7015
 1744TIP3    H126723   1.243   1.527  15.784 -0.6266 -0.6070 -1.9107
 1744TIP3    H226724   1.174   1.437  15.884 -0.0216  0.6646 -0.3109
 1745TIP3   OH226725   0.027   0.517  14.623 -0.0996  0.4066 -0.0577
 1745TIP3    H126726   0.113   0.479  14.604 -0.7336 -0.6363 -0.9445
 1745TIP3    H226727   0.043   0.575  14.698  1.0669 -1.0047  0.8416
 1746TIP3   OH226728   3.020   5.475  17.165 -0.0125 -0.0688 -0.2704
 1746TIP3    H126729   3.110   5.507  17.171  0.5276 -1.7018  1.0045
 1746TIP3    H226730   2.988   5.511  17.082  1.2960  1.7669 -0.0387
 1747TIP3   OH226731   3.283   2.019  11.127  0.3052  0.0086 -0.0229
 1747TIP3    H126732   3.294   2.014  11.221 -1.1618 -0.2246  0.1639
 1747TIP3    H226733   3.213   1.957  11.108 -0.3541  1.0400 -1.0897
 1748TIP3   OH226734   3.441   0.251  10.567  0.1513 -0.2999  0.2278
 1748TIP3    H126735   3.386   0.216  10.497 -0.3560 -0.1466  0.5467
 1748TIP3    H226736   3.515   0.292  10.522 -0.9413  1.1547 -0.2989
 1749TIP3   OH226737   6.110   1.401  12.188  0.5229 -0.4288  0.2425
 1749TIP3    H126738   6.197   1.420  12.221  0.9901 -1.2976 -0.4282
 1749TIP3    H226739   6.091   1.312  12.218  0.3740 -0.6950 -0.5871
 1750TIP3   OH226740   1.104   1.869  16.008 -0.8202  0.7169  0.0810
 1750TIP3    H126741   1.013   1.888  15.984 -0.0617  1.4861 -2.4481
 1750TIP3    H226742   1.135   1.811  15.938  1.2507  2.2447 -0.3551
 1751TIP3   OH226743   5.777   2.426  11.850  0.5991 -0.2912  0.0055
 1751TIP3    H126744   5.738   2.339  11.839  2.1406 -1.4089  2.4708
 1751TIP3    H226745   5.867   2.416  11.819  1.1534  0.0327  1.4352
 1752TIP3   OH226746   1.241   0.066   0.720 -0.5014 -0.6393  0.6446
 1752TIP3    H126747   1.170   0.125   0.693  0.3669 -0.1641 -0.6715
 1752TIP3    H226748   1.207  -0.022   0.701 -1.4270 -0.5398  1.7197
 1753TIP3   OH226749   3.013   4.865   0.022 -0.3411  0.5558 -0.2961
 1753TIP3    H126750   3.099   4.858   0.064 -0.1921  0.3155 -0.6377
 1753TIP3    H226751   3.007   4.956  -0.005 -0.0089  0.4756 -0.6530
 1754TIP3   OH226752   1.667   0.613   1.961 -0.2248  0.1352  0.1927
 1754TIP3    H126753   1.593   0.647   2.010  1.3459  0.5354  2.4358
 1754TIP3    H226754   1.733   0.593   2.027  0.4351 -3.5950 -1.3234
 1755TIP3   OH226755   4.020   4.611   4.341  0.0705  0.2030  0.2859
 1755TIP3    H126756   4.018   4.517   4.325 -0.6440  0.4955 -1.5887
 1755TIP3    H226757   4.052   4.619   4.431  1.6837 -1.7595 -0.0247
 1756TIP3   OH226758   0.556   2.953  17.086  0.1578  0.4977 -1.2750
 1756TIP3    H126759   0.584   3.044  17.090  2.0341 -0.0765 -0.2619
 1756TIP3    H226760   0.633   2.902  17.111 -1.2356 -1.3079 -0.3402
 1757TIP3   OH226761   5.709   4.774  12.308  0.1008  0.3708  0.1063
 1757TIP3    H126762   5.645   4.825  12.357  0.2493  0.5007  0.1644
 1757TIP3    H226763   5.755   4.722  12.375  0.2982  0.5424  0.1032
 1758TIP3   OH226764   6.808   1.106   1.699 -0.3984  0.1077 -0.5161
 1758TIP3    H126765   6.818   1.139   1.610  0.2156  0.1797 -0.4271
 1758TIP3    H226766   6.820   1.011   1.692  0.0271  0.1526 -0.4650
 1759TIP3   OH226767   4.664   4.767  12.718 -0.4310  0.5162 -0.3431
 1759TIP3    H126768   4.632   4.820  12.645 -0.7566  1.2023  0.2824
 1759TIP3    H226769   4.585   4.729  12.757 -0.1537 -1.1058 -1.2576
 1760TIP3   OH226770   1.786   3.971   2.624  0.3727 -0.1972 -0.3015
 1760TIP3    H126771   1.745   3.886   2.640  2.1062 -0.7470  1.6280
 1760TIP3    H226772   1.829   3.992   2.707  2.4437  1.1758 -1.6474
 1761TIP3   OH226773   2.309   5.695  11.452  0.0571  0.0796  0.1985
 1761TIP3    H126774   2.392   5.703  11.405  1.3734  1.6535  2.5982
 1761TIP3    H226775   2.299   5.779  11.497 -1.9434 -0.7423  1.4187
 1762TIP3   OH226776   5.683   0.395  11.952 -0.0652 -0.3193  0.2165
 1762TIP3    H126777   5.721   0.312  11.984 -0.9712 -0.4396  1.0358
 1762TIP3    H226778   5.733   0.415  11.874  1.9259 -0.2931  1.4223
 1763TIP3   OH226779   4.925   2.400  13.555  0.1934 -0.0059  0.5649
 1763TIP3    H126780   4.875   2.363  13.628  2.4095  0.9518  2.7469
 1763TIP3    H226781   4.991   2.333  13.536 -0.7013 -0.4730 -0.9763
 1764TIP3   OH226782   4.209   2.852   0.757  0.0847  0.7488  0.6772
 1764TIP3    H126783   4.192   2.784   0.824 -1.2740  1.7960  1.4580
 1764TIP3    H226784   4.180   2.812   0.675  0.2954  0.0010  0.9559
 1765TIP3   OH226785   4.213   5.492  16.880 -0.2492  0.1707  0.3996
 1765TIP3    H126786   4.180   5.523  16.965 -0.4392 -0.2083  0.4629
 1765TIP3    H226787   4.138   5.498  16.822 -0.3143 -0.2784  0.4381
 1766TIP3   OH226788   0.363   0.434   2.953 -0.0066  0.5364  0.3693
 1766TIP3    H126789   0.324   0.489   3.021 -0.9069 -1.9577  2.0195
 1766TIP3    H226790   0.437   0.391   2.996 -0.4347 -0.8951 -0.2548
 1767TIP3   OH226791   0.178   1.678   2.153  0.2446  0.4507  0.6383
 1767TIP3    H126792   0.139   1.670   2.066 -1.7064  1.8974  1.2969
 1767TIP3    H226793   0.237   1.752   2.147 -1.3605  1.8224  0.9583
 1768TIP3   OH226794   1.138   4.178   5.672 -0.0424 -0.5112 -0.1289
 1768TIP3    H126795   1.148   4.272   5.690  0.6038 -0.4353 -0.8189
 1768TIP3    H226796   1.043   4.164   5.669 -0.1471  0.1958 -0.3533
 1769TIP3   OH226797   0.932   4.192  10.607 -0.3907 -0.1876  0.5617
 1769TIP3    H126798   1.015   4.192  10.558 -0.6865 -0.8261  0.0394
 1769TIP3    H226799   0.889   4.111  10.580 -1.8098  0.7874 -0.2415
 1770TIP3   OH226800   2.076   5.573  14.439  0.1577 -0.0142 -0.0714
 1770TIP3    H126801   2.118   5.503  14.390 -1.1984 -0.8314 -0.1297
 1770TIP3    H226802   2.017   5.615  14.376 -0.5764 -0.1841  0.4841
 1771TIP3   OH226803   6.381   3.607   3.194  0.1700 -0.8700 -0.5697
 1771TIP3    H126804   6.411   3.642   3.111  1.4089  0.2914  0.3140
 1771TIP3    H226805   6.446   3.638   3.258 -1.5584 -0.4242  1.0560
 1772TIP3   OH226806   4.879   1.509  16.642  0.1417 -0.3641 -0.1841
 1772TIP3    H126807   4.956   1.557  16.673  1.0693 -2.4318  0.9364
 1772TIP3    H226808   4.811   1.529  16.705  1.1332 -2.0624  1.5401
 1773TIP3   OH226809   0.567   1.566   4.682  0.2575  0.0676  0.3906
 1773TIP3    H126810   0.652   1.554   4.723 -0.4044  0.5977  1.9816
 1773TIP3    H226811   0.534   1.648   4.719 -0.7779  0.0675 -0.4981
 1774TIP3   OH226812   1.278   2.123  15.895 -0.0908 -0.0788 -0.4054
 1774TIP3    H126813   1.365   2.135  15.857 -0.7018 -0.0142 -1.8500
 1774TIP3    H226814   1.287   2.045  15.951  0.8394 -0.1844 -0.6811
 1775TIP3   OH226815   3.892   2.860  12.876  0.5595 -0.1123 -0.0840
 1775TIP3    H126816   3.844   2.889  12.953 -0.2175  1.1129 -0.9881
 1775TIP3    H226817   3.834   2.879  12.802  0.7626 -2.4089 -0.9052
 1776TIP3   OH226818   2.882   0.617  10.809  0.0422  0.7100  0.5454
 1776TIP3    H126819   2.953   0.633  10.747  0.9377 -0.3435  1.2796
 1776TIP3    H226820   2.865   0.703  10.849  1.4253  0.8386  0.8957
 1777TIP3   OH226821   3.394   2.779   2.148  0.0327  0.6143 -0.5512
 1777TIP3    H126822   3.437   2.705   2.106 -1.4836  0.6620 -2.3288
 1777TIP3    H226823   3.455   2.851   2.140 -0.0585  0.5269 -2.4506
 1778TIP3   OH226824   4.556   2.366  11.037 -0.5226 -0.1487 -0.2980
 1778TIP3    H126825   4.522   2.415  11.112  1.9650  0.7944  0.3267
 1778TIP3    H226826   4.491   2.381  10.968 -1.7839  0.7995  1.0140
 1779TIP3   OH226827   2.265   1.174   3.567  0.1415  0.6732 -0.5085
 1779TIP3    H126828   2.248   1.204   3.656 -0.9461  0.3259 -0.5942
 1779TIP3    H226829   2.265   1.254   3.514 -0.9514  0.7175 -0.4572
 1780TIP3   OH226830   0.376   1.957   2.937  0.0674 -0.3415  0.2922
 1780TIP3    H126831   0.404   2.031   2.990  2.3704  0.2365 -1.5439
 1780TIP3    H226832   0.333   1.996   2.861 -0.7261 -1.0042  0.3931
 1781TIP3   OH226833   0.051   5.091   4.404  0.0901  0.7139  0.1801
 1781TIP3    H126834   0.123   5.139   4.445  1.5035 -0.0292 -1.2903
 1781TIP3    H226835   0.023   5.029   4.470  0.7625  1.0722  0.8166
 1782TIP3   OH226836   1.140   0.900  14.842  0.6160 -0.5012  0.5055
 1782TIP3    H126837   1.112   0.824  14.790  1.4041 -1.0849  0.9188
 1782TIP3    H226838   1.208   0.866  14.900 -1.1372 -0.2187  2.9034
 1783TIP3   OH226839   1.022   3.094   1.022  0.0617 -0.1421 -0.1280
 1783TIP3    H126840   0.993   3.003   1.015 -0.5907  0.1556 -1.5306
 1783TIP3    H226841   1.006   3.116   1.114 -1.3034 -0.9541 -0.1342
 1784TIP3   OH226842   0.020   0.955   0.138  0.5087 -0.5194  0.2561
 1784TIP3    H126843   0.032   0.902   0.059  1.0691  1.6414 -1.2033
 1784TIP3    H226844  -0.074   0.967   0.145  0.3564 -1.9328  0.7836
 1785TIP3   OH226845   5.295   0.796  12.463  0.1627 -0.6846  0.1835
 1785TIP3    H126846   5.244   0.868  12.501  1.3550  2.0311 -2.9320
 1785TIP3    H226847   5.382   0.833  12.450  0.8142 -2.6998 -1.6222
 1786TIP3   OH226848   0.882   0.206   0.952 -0.4509  0.6905  0.3989
 1786TIP3    H126849   0.970   0.243   0.944 -0.7704  1.9335  2.0446
 1786TIP3    H226850   0.872   0.151   0.875  2.4122 -0.8747  1.0288
 1787TIP3   OH226851   3.480   5.931   2.317 -0.4341  0.3005  0.3979
 1787TIP3    H126852   3.488   5.955   2.410 -1.9622  0.2948  0.5616
 1787TIP3    H226853   3.474   6.015   2.272 -0.3807  0.2912  0.3733
 1788TIP3   OH226854   6.182   5.255   3.838  0.3862 -0.2548  0.4900
 1788TIP3    H126855   6.191   5.166   3.804 -1.5698 -1.2734  2.4198
 1788TIP3    H226856   6.136   5.303   3.769  1.4681 -0.6879 -0.5670
 1789TIP3   OH226857   0.577   1.378  16.102 -0.2322  0.3117 -0.1299
 1789TIP3    H126858   0.499   1.327  16.124 -1.0608  0.9138 -1.5222
 1789TIP3    H226859   0.558   1.466  16.133 -0.0250  0.4118 -0.2831
 1790TIP3   OH226860   2.548   3.200   3.528 -0.1324 -0.0216 -0.4406
 1790TIP3    H126861   2.549   3.112   3.490 -0.0537 -0.6159  0.8761
 1790TIP3    H226862   2.632   3.238   3.503  0.5254 -0.9285  0.3025
 1791TIP3   OH226863   0.273   1.303  11.590 -0.0219 -0.4085 -0.0135
 1791TIP3    H126864   0.217   1.319  11.514 -1.8140 -1.0749  1.0959
 1791TIP3    H226865   0.289   1.209  11.589 -1.2229 -0.6690  1.1310
 1792TIP3   OH226866   1.925   2.908   3.501  0.1879 -0.6503  0.0695
 1792TIP3    H126867   2.007   2.896   3.454  0.5089 -0.3280  0.5402
 1792TIP3    H226868   1.920   3.002   3.518  0.9651 -0.9352  2.2165
 1793TIP3   OH226869   6.080   3.567  17.205  0.6204 -0.8222 -0.7104
 1793TIP3    H126870   6.122   3.617  17.275 -0.2493 -0.7107 -0.2422
 1793TIP3    H226871   6.114   3.479  17.213  2.1067 -0.3450 -1.4854
 1794TIP3   OH226872   6.409   6.345  11.379  0.0593  0.5968 -0.2416
 1794TIP3    H126873   6.490   6.327  11.330  2.1758  2.3015  2.3361
 1794TIP3    H226874   6.408   6.278  11.448 -2.3343 -1.1483 -1.8264
 1795TIP3   OH226875   5.004   6.254  15.141  0.3741  0.5127  0.3469
 1795TIP3    H126876   5.094   6.245  15.110  0.3200  2.4041 -0.5227
 1795TIP3    H226877   5.008   6.328  15.202 -0.4729  0.1061  0.9113
 1796TIP3   OH226878   6.206   6.399  15.641  0.9014 -0.3829  0.0709
 1796TIP3    H126879   6.177   6.341  15.571  1.0034 -0.8407  0.3994
 1796TIP3    H226880   6.164   6.365  15.720  1.9200 -0.7676  0.4749
 1797TIP3   OH226881   4.133   2.822   3.284 -0.2472  0.0816 -0.7325
 1797TIP3    H126882   4.221   2.851   3.307  0.4108 -1.4531 -1.1416
 1797TIP3    H226883   4.134   2.727   3.300 -1.7229 -0.0155 -1.0421
 1798TIP3   OH226884   3.578   0.439   3.873  0.1083  0.4124 -0.2763
 1798TIP3    H126885   3.598   0.533   3.868 -0.3925  0.6057  0.9985
 1798TIP3    H226886   3.644   0.404   3.933 -0.1343  0.0681 -0.2092
 1799TIP3   OH226887   0.932   2.368   2.015 -0.9961  0.0056  0.1904
 1799TIP3    H126888   0.957   2.277   2.032  0.7930  0.4001 -0.1712
 1799TIP3    H226889   0.943   2.412   2.099 -2.7558 -0.2616  0.6003
 1800TIP3   OH226890   6.392   6.071  16.007  0.3942  0.0591  0.2731
 1800TIP3    H126891   6.445   6.072  16.087 -0.7623 -0.8672  1.0814
 1800TIP3    H226892   6.398   6.161  15.974  1.0545  0.4114  1.2906
 1801TIP3   OH226893   0.809   1.021   3.660  0.9903  0.1222 -0.5294
 1801TIP3    H126894   0.748   1.094   3.649  1.0377  0.4228  1.0405
 1801TIP3    H226895   0.811   0.978   3.574 -1.3436  0.1716 -0.6598
 1802TIP3   OH226896   4.448   5.118   1.235 -0.0906 -0.5806 -0.3823
 1802TIP3    H126897   4.448   5.189   1.300  0.7745 -0.1873 -0.7918
 1802TIP3    H226898   4.366   5.129   1.187  0.3089  0.5351 -0.8439
 1803TIP3   OH226899   6.577   1.805  10.679  0.1476  0.4455  0.2399
 1803TIP3    H126900   6.600   1.716  10.703 -0.0401  0.6922  1.3993
 1803TIP3    H226901   6.495   1.797  10.629  0.6417 -0.0973 -0.5042
 1804TIP3   OH226902   6.252   4.200   4.170  0.5938  0.0510  0.3419
 1804TIP3    H126903   6.237   4.118   4.216 -0.3726  0.8797  1.5739
 1804TIP3    H226904   6.343   4.223   4.190  1.0664 -1.0201 -0.5353
 1805TIP3   OH226905   1.391   0.134   4.899 -0.4881 -0.0801 -0.1109
 1805TIP3    H126906   1.375   0.059   4.955 -2.4217 -0.4308 -1.0441
 1805TIP3    H226907   1.350   0.111   4.815 -0.0952  1.5386 -0.7958
 1806TIP3   OH226908   1.273   4.053  14.898  0.3832 -0.4543  0.0712
 1806TIP3    H126909   1.271   3.958  14.908  0.1311 -0.4613 -0.0370
 1806TIP3    H226910   1.338   4.068  14.829  0.3342 -0.5569  0.0018
 1807TIP3   OH226911   4.580   2.561  10.588  0.2348  0.1769 -0.0221
 1807TIP3    H126912   4.669   2.582  10.616  0.2509  3.2322 -1.9374
 1807TIP3    H226913   4.529   2.638  10.613 -1.1319 -0.0271 -1.9997
 1808TIP3   OH226914   3.564   2.317  12.307 -0.3761  0.0776  0.3529
 1808TIP3    H126915   3.554   2.399  12.258  0.0427  0.5748  1.0968
 1808TIP3    H226916   3.623   2.264  12.253 -0.8913  0.1341 -0.2822
 1809TIP3   OH226917   4.474   5.571  16.263  0.2059 -0.4433 -0.3571
 1809TIP3    H126918   4.520   5.588  16.180  1.0909 -0.6785  0.0785
 1809TIP3    H226919   4.528   5.614  16.329 -0.4651 -0.3118  0.1154
 1810TIP3   OH226920   2.477   4.706  12.693  0.1295  0.3833 -0.2964
 1810TIP3    H126921   2.449   4.615  12.682  0.8207  0.2560 -1.0363
 1810TIP3    H226922   2.398   4.751  12.724 -0.8162 -0.0563 -1.9282
 1811TIP3   OH226923   1.952   3.853  14.205  0.0574 -0.3651  0.2079
 1811TIP3    H126924   1.924   3.881  14.118 -2.2667  1.0566  1.3218
 1811TIP3    H226925   1.953   3.933  14.257  1.6003 -1.1562  1.4846
 1812TIP3   OH226926   0.027   6.541   2.223 -0.4031  0.0447 -0.1355
 1812TIP3    H126927   0.092   6.554   2.292  1.4509 -0.3282 -1.6923
 1812TIP3    H226928  -0.048   6.501   2.267  0.6236  0.0102  1.6774
 1813TIP3   OH226929   0.559   0.070   1.419  0.7080 -0.1092  0.1143
 1813TIP3    H126930   0.511   0.052   1.499  1.2932 -1.8365  0.1207
 1813TIP3    H226931   0.493   0.097   1.356  0.3943  2.7305  1.5182
 1814TIP3   OH226932   6.212   1.875   4.621 -0.5089  0.4518  0.5301
 1814TIP3    H126933   6.263   1.857   4.699 -1.5029 -0.0366  1.0826
 1814TIP3    H226934   6.121   1.869   4.649 -0.8978  1.6099 -0.3559
 1815TIP3   OH226935   6.019   0.659  15.639  0.6111  0.5001  0.1017
 1815TIP3    H126936   6.067   0.590  15.684  1.8064  0.8652 -0.5788
 1815TIP3    H226937   5.931   0.623  15.628  1.0904 -0.7423  0.1326
 1816TIP3   OH226938   5.589   2.165  10.753  0.0050 -0.1701 -0.1906
 1816TIP3    H126939   5.555   2.111  10.824  0.0294  1.1115  0.8417
 1816TIP3    H226940   5.515   2.175  10.693 -0.5410  0.0904  0.5091
 1817TIP3   OH226941   6.033   4.758  15.939  0.0450 -0.2899  0.6621
 1817TIP3    H126942   6.010   4.666  15.950  2.1208 -0.8635  0.6223
 1817TIP3    H226943   6.095   4.758  15.866 -0.6276  1.2808  0.0515
 1818TIP3   OH226944   1.042   0.431   3.853 -0.6015 -0.3353 -0.1108
 1818TIP3    H126945   0.980   0.359   3.866  0.5877 -1.8399 -2.1286
 1818TIP3    H226946   1.128   0.389   3.856  0.0707  0.6347 -2.8962
 1819TIP3   OH226947   2.654   2.586   4.103 -0.1581 -0.1722 -0.7546
 1819TIP3    H126948   2.641   2.632   4.186 -1.5262 -0.1755 -0.9541
 1819TIP3    H226949   2.692   2.502   4.128 -1.7229 -0.6833  0.0048
 1820TIP3   OH226950   1.158   3.997  12.353  0.3045 -0.4295 -0.6873
 1820TIP3    H126951   1.127   4.048  12.428 -0.4292 -0.9796 -0.6063
 1820TIP3    H226952   1.220   4.055  12.309 -1.1495  0.8850 -1.1040
 1821TIP3   OH226953   1.560   4.427   0.578 -0.1873  0.2483  0.2258
 1821TIP3    H126954   1.562   4.418   0.483  0.6389 -0.6756  0.3136
 1821TIP3    H226955   1.573   4.338   0.611  1.2231  0.7670  1.1849
 1822TIP3   OH226956   0.515   0.692  14.908  0.0186  0.2181 -0.9583
 1822TIP3    H126957   0.582   0.651  14.963  1.7005  1.0725 -2.2698
 1822TIP3    H226958   0.561   0.716  14.828 -1.2506  3.1796 -0.9292
 1823TIP3   OH226959   2.995   4.069  13.279  0.2845 -0.2835  0.2786
 1823TIP3    H126960   3.047   4.150  13.277 -0.1381 -0.0164 -0.0251
 1823TIP3    H226961   2.912   4.095  13.319 -0.3455 -0.2699 -0.9841
 1824TIP3   OH226962   4.830   5.667   2.464  0.1937 -0.5986  0.3163
 1824TIP3    H126963   4.835   5.577   2.431 -0.2231 -0.4432 -0.1786
 1824TIP3    H226964   4.920   5.699   2.459 -0.0587 -0.0960 -2.0644
 1825TIP3   OH226965   4.720   5.081   4.849 -0.8892 -0.4731  0.1105
 1825TIP3    H126966   4.760   5.081   4.762  0.2257 -1.9202  0.5803
 1825TIP3    H226967   4.681   5.168   4.858  0.1600  0.1766 -1.2987
 1826TIP3   OH226968   1.548   4.755  12.904  0.8415 -0.2214  0.1879
 1826TIP3    H126969   1.469   4.806  12.921 -1.0528 -2.8231 -0.1807
 1826TIP3    H226970   1.589   4.798  12.829 -0.5808  0.8221 -0.0230
 1827TIP3   OH226971   6.348   6.376  11.748  0.4897 -0.0710 -0.3866
 1827TIP3    H126972   6.412   6.432  11.705  0.4971 -0.3736 -0.7801
 1827TIP3    H226973   6.364   6.387  11.842  0.1894  0.9246 -0.4419
 1828TIP3   OH226974   6.641   4.531   2.573  0.2635 -0.6553  0.4410
 1828TIP3    H126975   6.613   4.560   2.659 -0.6583  1.4960 -0.5069
 1828TIP3    H226976   6.724   4.575   2.557  0.6297 -1.3510  0.3655
 1829TIP3   OH226977   6.110   1.341   1.090 -0.2381 -0.3131  0.1169
 1829TIP3    H126978   6.084   1.397   1.164 -0.3303  1.8792 -1.4788
 1829TIP3    H226979   6.200   1.315   1.110 -0.6954 -0.9062  1.6056
 1830TIP3   OH226980   0.481   4.476   4.006 -0.2159  0.1706 -0.2452
 1830TIP3    H126981   0.396   4.504   4.039  0.0430  0.0100  0.5792
 1830TIP3    H226982   0.522   4.557   3.975 -1.1909  0.0628 -1.9200
 1831TIP3   OH226983   4.052   2.959   2.694  0.7423  0.2241 -0.1008
 1831TIP3    H126984   4.099   3.029   2.739  1.2975 -0.5773  0.5947
 1831TIP3    H226985   3.961   2.990   2.690  0.8481  0.6835  0.8095
 1832TIP3   OH226986   5.667   6.519   4.623 -1.0232 -0.6000  0.0393
 1832TIP3    H126987   5.594   6.534   4.563 -3.9827 -1.4603  3.1799
 1832TIP3    H226988   5.699   6.431   4.601  0.9401  0.6803 -2.9718
 1833TIP3   OH226989   0.731   1.085   6.356  0.5609  0.5740  0.0885
 1833TIP3    H126990   0.646   1.042   6.344  0.1841  1.3886 -0.2265
 1833TIP3    H226991   0.740   1.095   6.451  1.1887 -1.2257  0.2607
 1834TIP3   OH226992   3.652   5.819   5.300 -0.1505 -0.2432 -0.5501
 1834TIP3    H126993   3.601   5.899   5.314  0.9177  0.4114 -0.2560
 1834TIP3    H226994   3.663   5.813   5.205  0.0158  0.1242 -0.5549
 1835TIP3   OH226995   0.937   0.882   5.588 -0.2079  0.4642 -0.4510
 1835TIP3    H126996   0.958   0.950   5.524 -0.4302  1.2846  0.3365
 1835TIP3    H226997   1.021   0.857   5.625 -0.3155  1.8789  0.8179
 1836TIP3   OH226998   2.221   2.161  15.796  0.0548  0.0363 -0.6557
 1836TIP3    H126999   2.238   2.068  15.809  1.7567  0.4999  0.8856
 1836TIP3    H227000   2.308   2.200  15.785 -0.5393  1.5905 -0.0936
 1837TIP3   OH227001   0.144   4.892   1.676 -0.3061  0.6585  0.0362
 1837TIP3    H127002   0.176   4.909   1.765 -1.6710 -2.2057  1.1784
 1837TIP3    H227003   0.169   4.801   1.658 -0.6059  0.9738 -2.2954
 1838TIP3   OH227004   5.572   1.965   4.605 -0.0292  0.1414 -0.1757
 1838TIP3    H127005   5.520   1.937   4.530 -1.2001  2.4540 -0.3225
 1838TIP3    H227006   5.510   1.969   4.678  1.1003 -2.1533  1.0131
 1839TIP3   OH227007   5.396   1.754  11.443  0.2811 -0.5827 -0.0429
 1839TIP3    H127008   5.338   1.684  11.412  0.7348 -0.5580 -0.9863
 1839TIP3    H227009   5.461   1.710  11.498  0.2768 -0.8333 -0.2384
 1840TIP3   OH227010   2.524   3.909  11.309  0.2273 -0.0495  0.1866
 1840TIP3    H127011   2.469   3.934  11.383 -0.3750 -0.9193  0.0504
 1840TIP3    H227012   2.611   3.939  11.332 -0.1854  0.7964  0.6884
 1841TIP3   OH227013   1.064   2.458  15.694 -0.1876 -0.3336  0.1029
 1841TIP3    H127014   1.103   2.545  15.692  1.2035 -0.9429 -0.8693
 1841TIP3    H227015   0.971   2.472  15.675 -0.0850  0.9781  0.5211
 1842TIP3   OH227016   2.975   4.202   4.438  0.3905 -0.1793  0.8374
 1842TIP3    H127017   2.988   4.272   4.501 -0.3775  0.5794  0.1834
 1842TIP3    H227018   2.883   4.210   4.411  0.2635 -1.4858  0.8010
 1843TIP3   OH227019   4.716   1.658  13.305 -0.3997 -0.5387  0.0793
 1843TIP3    H127020   4.690   1.637  13.395 -1.1271  2.3940  0.6830
 1843TIP3    H227021   4.648   1.719  13.275  2.7193  3.1312 -0.3050
 1844TIP3   OH227022   1.503   2.058  13.187 -0.4011  0.1803 -0.0032
 1844TIP3    H127023   1.454   1.990  13.234 -0.4565 -0.0088 -0.3307
 1844TIP3    H227024   1.472   2.051  13.097 -0.5438  0.7676 -0.0002
 1845TIP3   OH227025   5.436   4.692  16.517  0.4833  0.4837  0.8055
 1845TIP3    H127026   5.346   4.710  16.490  0.3868 -2.0972 -1.0109
 1845TIP3    H227027   5.428   4.639  16.596  0.5706  2.6620  2.3458
 1846TIP3   OH227028   2.974   6.260  15.646 -0.3703  0.1609  0.2261
 1846TIP3    H127029   3.027   6.184  15.626  0.5124  1.4958 -3.1125
 1846TIP3    H227030   2.885   6.235  15.621 -0.2939 -0.1300  0.2472
 1847TIP3   OH227031   3.279   3.010  15.533 -0.2862 -0.0414  0.0104
 1847TIP3    H127032   3.196   3.044  15.499 -1.1391 -2.6820 -0.7837
 1847TIP3    H227033   3.337   3.009  15.458  0.6105  1.9818  0.6066
 1848TIP3   OH227034   3.055   5.457  11.228  0.1740  0.1792 -0.0982
 1848TIP3    H127035   3.082   5.387  11.287 -0.9066 -1.0283 -0.9714
 1848TIP3    H227036   3.075   5.423  11.140 -2.9562 -0.3070 -0.7223
 1849TIP3   OH227037   5.792   4.140   1.843 -0.0071  0.2736  0.0921
 1849TIP3    H127038   5.858   4.163   1.777  0.6692 -1.9000 -0.0798
 1849TIP3    H227039   5.836   4.155   1.927 -0.1366  1.0367  0.0336
 1850TIP3   OH227040   2.250   4.465  12.659  0.4642 -0.3187 -0.2016
 1850TIP3    H127041   2.234   4.559  12.663  1.1903 -0.0907 -1.7884
 1850TIP3    H227042   2.295   4.452  12.575  1.8835 -1.8558  0.7331
 1851TIP3   OH227043   5.496   3.279   5.520 -0.0151  0.4722 -0.0582
 1851TIP3    H127044   5.412   3.287   5.566  0.1580 -1.3635  0.6935
 1851TIP3    H227045   5.562   3.289   5.589  0.4037  1.9064 -0.6426
 1852TIP3   OH227046   4.382   6.637  11.344 -0.1543  0.3796  0.6937
 1852TIP3    H127047   4.324   6.665  11.272  0.1831  0.8679  0.6139
 1852TIP3    H227048   4.412   6.550  11.316 -1.3284 -0.1572  1.0230
 1853TIP3   OH227049   0.056   2.001  11.567 -0.0276  0.0880  0.2045
 1853TIP3    H127050  -0.021   2.049  11.538 -0.7433 -1.6310 -0.8892
 1853TIP3    H227051   0.058   1.922  11.512  1.5428 -0.7503  1.3699
 1854TIP3   OH227052   0.341   2.203  15.116  0.0508  0.9735 -0.0511
 1854TIP3    H127053   0.362   2.120  15.072 -1.4717  0.7088 -0.3392
 1854TIP3    H227054   0.310   2.259  15.045 -0.3993  1.2607  0.3683
 1855TIP3   OH227055   1.904   1.090  15.358  0.2823 -0.1143  0.6201
 1855TIP3    H127056   1.890   1.114  15.450  2.8212 -4.1085  2.3382
 1855TIP3    H227057   1.967   1.154  15.326  1.1510  0.0132  2.4598
 1856TIP3   OH227058   1.686   2.978   1.825  0.0959 -0.3088 -0.2072
 1856TIP3    H127059   1.670   2.910   1.890 -0.2185 -0.3399 -0.3144
 1856TIP3    H227060   1.632   2.952   1.750  0.8565 -0.5536 -0.6790
 1857TIP3   OH227061   5.302   0.553   5.247  0.1169 -0.1923 -0.3067
 1857TIP3    H127062   5.249   0.564   5.168  0.3788 -0.7885 -0.5693
 1857TIP3    H227063   5.383   0.599   5.228 -1.3677  3.4129  1.2348
 1858TIP3   OH227064   5.957   3.301   1.792  0.4886 -0.3392  0.2622
 1858TIP3    H127065   6.041   3.346   1.776 -0.0763  0.1515 -1.5355
 1858TIP3    H227066   5.897   3.371   1.817 -0.7396  0.3246 -3.8225
 1859TIP3   OH227067   0.316   3.544  15.530 -0.2175  0.7239  0.0653
 1859TIP3    H127068   0.382   3.598  15.573 -1.1831  1.1851  1.0167
 1859TIP3    H227069   0.242   3.543  15.591 -0.1033 -2.0004  0.2874
 1860TIP3   OH227070   2.446   0.901   4.730  0.3341 -0.3604  0.5955
 1860TIP3    H127071   2.459   0.820   4.680  0.8848  1.3519 -2.2580
 1860TIP3    H227072   2.525   0.910   4.783  1.6899 -0.2487 -1.3355
 1861TIP3   OH227073   1.357   1.304   5.062 -1.1004  0.5059  0.1196
 1861TIP3    H127074   1.386   1.393   5.084  1.4499 -0.2715  0.2001
 1861TIP3    H227075   1.376   1.296   4.968  0.6808 -0.5887  0.5279
 1862TIP3   OH227076   0.237   2.045   0.358 -0.3127  0.2219  0.3945
 1862TIP3    H127077   0.319   2.079   0.320  0.2176 -0.9417  0.4518
 1862TIP3    H227078   0.217   1.968   0.305 -1.8033  0.9197 -0.0967
 1863TIP3   OH227079   3.481   2.857   5.065  0.8226  0.3720 -0.4431
 1863TIP3    H127080   3.519   2.924   5.122 -2.5558  1.8014  0.3459
 1863TIP3    H227081   3.465   2.902   4.983 -0.7473  0.3459 -0.1682
 1864TIP3   OH227082   1.516   0.114   0.734  0.3602  0.1948 -0.5528
 1864TIP3    H127083   1.526   0.021   0.756  1.2481  0.6433  1.0718
 1864TIP3    H227084   1.421   0.128   0.734  0.2499 -0.0761  2.2457
 1865TIP3   OH227085   4.078   3.607   5.515 -0.2476 -0.1541  0.0995
 1865TIP3    H127086   4.134   3.663   5.569 -1.3525  1.2785 -0.1663
 1865TIP3    H227087   3.990   3.618   5.553 -0.5749 -1.3720 -0.2563
 1866TIP3   OH227088   1.775   3.442  16.962  0.6891 -0.9806 -0.9408
 1866TIP3    H127089   1.756   3.396  16.881 -0.2397  0.2339 -1.4401
 1866TIP3    H227090   1.843   3.505  16.939  1.3192 -1.4743 -0.4712
 1867TIP3   OH227091   5.698   4.624  10.872 -0.0399 -0.4884  0.4048
 1867TIP3    H127092   5.771   4.604  10.813 -0.4401 -0.5043 -0.0966
 1867TIP3    H227093   5.637   4.550  10.860 -0.9853  0.4113 -0.5798
 1868TIP3   OH227094   6.597   2.604   0.306  0.4941 -0.7045 -0.1854
 1868TIP3    H127095   6.534   2.544   0.267 -0.3932 -0.2362  0.4849
 1868TIP3    H227096   6.609   2.571   0.395 -1.2551  0.9730  0.7565
 1869TIP3   OH227097   3.433   4.102   6.459  0.3045 -0.1726  0.7566
 1869TIP3    H127098   3.408   4.186   6.499  0.0014  0.8407 -1.4083
 1869TIP3    H227099   3.504   4.070   6.514  0.5507  1.5911  1.5541
 1870TIP3   OH227100   1.224   2.978   4.479 -0.6308 -0.9412 -0.1544
 1870TIP3    H127101   1.227   3.048   4.414 -1.2647  0.1255  0.9022
 1870TIP3    H227102   1.276   2.908   4.442  0.2185  0.1830 -1.1693
 1871TIP3   OH227103   1.614   0.457   2.474  0.1607  0.6003 -0.1663
 1871TIP3    H127104   1.643   0.371   2.503 -0.0699 -0.0935 -1.8970
 1871TIP3    H227105   1.658   0.518   2.533  2.0146 -0.5970 -0.2429
 1872TIP3   OH227106   2.896   1.837   0.726  0.5723 -0.2559  0.1928
 1872TIP3    H127107   2.846   1.918   0.719  0.4149 -0.3378  0.3623
 1872TIP3    H227108   2.850   1.786   0.792  1.3304  0.0039  0.9382
 1873TIP3   OH227109   3.875   6.789   3.805 -0.1024 -0.2876  0.2513
 1873TIP3    H127110   3.805   6.848   3.777 -0.5344 -2.0080 -2.6700
 1873TIP3    H227111   3.835   6.734   3.872 -0.2641  1.3621  1.5719
 1874TIP3   OH227112   4.920   2.478   2.496 -0.8998 -0.7199  0.4756
 1874TIP3    H127113   4.991   2.424   2.461  0.3572  0.8669  0.4371
 1874TIP3    H227114   4.844   2.455   2.443  0.0449 -1.1022 -0.7729
 1875TIP3   OH227115   1.461   6.008  13.105  0.2740 -0.4767 -0.6041
 1875TIP3    H127116   1.488   6.084  13.054 -0.0551 -0.9441 -1.4948
 1875TIP3    H227117   1.522   5.939  13.079  0.7822 -0.4418  0.4512
 1876TIP3   OH227118   0.476   3.427  14.690  1.0184  1.0287 -0.0925
 1876TIP3    H127119   0.513   3.458  14.772 -1.9390  2.0187  1.0156
 1876TIP3    H227120   0.449   3.337  14.708 -0.0211  1.3848  0.2208
 1877TIP3   OH227121   3.734   4.976  16.288  0.7785 -0.3338 -0.4210
 1877TIP3    H127122   3.797   5.026  16.235  1.0433  0.7172  0.8463
 1877TIP3    H227123   3.668   4.947  16.225  0.9756  1.0503 -1.3223
 1878TIP3   OH227124   6.631   1.539  13.152 -0.5989 -0.2918 -0.6009
 1878TIP3    H127125   6.596   1.580  13.232 -0.0632  0.5945 -0.8114
 1878TIP3    H227126   6.659   1.613  13.098  1.2960 -0.9496 -0.5866
 1879TIP3   OH227127   6.090   5.435   5.778 -0.3059 -0.3132 -0.1543
 1879TIP3    H127128   6.019   5.384   5.817 -0.5429 -0.3580 -0.6400
 1879TIP3    H227129   6.083   5.521   5.818 -0.0810 -0.5779  0.4614
 1880TIP3   OH227130   1.633   2.066   5.000  0.0444 -0.0764 -0.6001
 1880TIP3    H127131   1.634   2.120   4.921  2.4363 -0.1938 -0.7279
 1880TIP3    H227132   1.643   2.129   5.072  1.7078 -0.1988 -0.6808
 1881TIP3   OH227133   1.355   0.340   5.957  0.1199 -0.1375 -0.4144
 1881TIP3    H127134   1.374   0.286   5.880 -0.9721 -1.2565  0.0676
 1881TIP3    H227135   1.426   0.323   6.018  0.4756  0.0050 -0.7871
 1882TIP3   OH227136   4.314   4.758  12.468 -0.1874  0.1990  0.3325
 1882TIP3    H127137   4.373   4.705  12.521  0.0593  0.6929  0.5618
 1882TIP3    H227138   4.334   4.849  12.493 -0.0082  0.4493 -0.6676
 1883TIP3   OH227139   6.508   0.794  14.397  0.5629  0.0657 -0.2488
 1883TIP3    H127140   6.495   0.852  14.472 -1.7167  0.0275 -0.5347
 1883TIP3    H227141   6.491   0.706  14.432 -0.2472  0.0229 -0.7389
 1884TIP3   OH227142   1.015   3.506   3.682  0.5338 -0.5520 -0.1271
 1884TIP3    H127143   1.098   3.552   3.670  0.4661 -0.5496 -0.6105
 1884TIP3    H227144   0.951   3.561   3.637  0.0815  0.0081  1.1515
 1885TIP3   OH227145   1.724   2.252   2.529  0.0288  0.2604 -0.4686
 1885TIP3    H127146   1.635   2.256   2.563 -0.1002  0.6173 -0.8368
 1885TIP3    H227147   1.722   2.307   2.450  0.4939  0.0156 -0.6560
 1886TIP3   OH227148   0.884   1.199  14.475  0.6010  0.1450 -0.0176
 1886TIP3    H127149   0.812   1.139  14.495 -0.0796  0.8762 -0.2381
 1886TIP3    H227150   0.845   1.286  14.479  1.1153  0.4781 -1.6568
 1887TIP3   OH227151   2.631   4.226   0.178 -0.1469  0.3199 -0.4142
 1887TIP3    H127152   2.633   4.320   0.193 -0.1608  0.7117 -2.5569
 1887TIP3    H227153   2.676   4.214   0.094  1.9519 -1.8570  0.8799
 1888TIP3   OH227154   3.588   5.022   6.200  0.1478  0.1391  0.3406
 1888TIP3    H127155   3.651   5.091   6.181  0.8839 -0.8572 -1.0804
 1888TIP3    H227156   3.505   5.055   6.166  0.6633  0.0120 -1.1036
 1889TIP3   OH227157   6.713   5.587  16.025  0.7841 -0.2816  0.3096
 1889TIP3    H127158   6.685   5.572  16.115  0.5057  1.5296  0.5537
 1889TIP3    H227159   6.785   5.525  16.012  0.6865 -0.7226  1.6909
 1890TIP3   OH227160   4.805   3.194  12.018 -0.0475 -0.1031  0.7195
 1890TIP3    H127161   4.803   3.128  12.088  0.2772 -0.2651  0.5773
 1890TIP3    H227162   4.882   3.247  12.038 -1.4038  1.5017  1.9851
 1891TIP3   OH227163   2.743   4.329   5.293 -0.2215 -0.1677  0.5467
 1891TIP3    H127164   2.768   4.325   5.201  1.1955  1.4770  0.8028
 1891TIP3    H227165   2.818   4.291   5.339 -0.3725  0.1886  1.0893
 1892TIP3   OH227166   2.457   1.089   3.078  0.1960  0.0609 -0.6604
 1892TIP3    H127167   2.512   1.022   3.037  0.7158 -0.5626  0.9987
 1892TIP3    H227168   2.507   1.120   3.153 -0.5144  1.5506 -0.7583
 1893TIP3   OH227169   6.242   6.648   2.081  0.7412  0.2101  0.0516
 1893TIP3    H127170   6.244   6.742   2.064 -1.1060  0.1505 -0.7645
 1893TIP3    H227171   6.284   6.638   2.166  1.9403  1.6302 -0.3282
 1894TIP3   OH227172   4.712   0.906  15.217  0.0977 -0.8632 -0.4366
 1894TIP3    H127173   4.742   0.927  15.129 -1.3681  0.0087 -0.7649
 1894TIP3    H227174   4.627   0.950  15.224 -0.2376 -1.7010  1.0784
 1895TIP3   OH227175   3.073   4.428   2.064  0.1873 -0.0527  0.2421
 1895TIP3    H127176   3.111   4.510   2.098 -1.2712  1.6871 -2.0212
 1895TIP3    H227177   3.130   4.403   1.992  0.2030 -0.6517  0.4544
 1896TIP3   OH227178   2.687   0.888   4.890 -0.6944 -0.2048 -0.3007
 1896TIP3    H127179   2.761   0.878   4.951 -2.0818  0.9686  1.6946
 1896TIP3    H227180   2.614   0.844   4.934 -1.5474 -0.0700 -1.5457
 1897TIP3   OH227181   0.613   2.361  14.956  0.0957  0.3930  0.0510
 1897TIP3    H127182   0.571   2.433  15.004 -2.0550 -0.6401 -0.1607
 1897TIP3    H227183   0.544   2.328  14.898  0.9797 -1.9409  0.2509
 1898TIP3   OH227184   6.332   1.782   4.249 -0.3776  0.0848  0.3088
 1898TIP3    H127185   6.250   1.733   4.252  1.3909 -3.5391 -2.0777
 1898TIP3    H227186   6.365   1.766   4.160  3.5740  0.0559  1.6089
 1899TIP3   OH227187   0.657   2.937   0.982 -0.0317  0.0812  0.2549
 1899TIP3    H127188   0.735   2.977   1.020  0.3252  0.9098 -1.2729
 1899TIP3    H227189   0.666   2.951   0.888 -1.1453 -1.4238 -0.1067
 1900TIP3   OH227190   3.360   0.928   3.467 -0.1350 -0.0471  0.1874
 1900TIP3    H127191   3.442   0.946   3.422  0.4283  0.2853  1.3227
 1900TIP3    H227192   3.358   0.832   3.474  0.4400 -0.0301  0.6636
 1901TIP3   OH227193   3.578   2.291   2.063 -0.2701 -0.1205 -0.1027
 1901TIP3    H127194   3.547   2.211   2.105 -0.8456 -0.1955 -0.6675
 1901TIP3    H227195   3.670   2.299   2.091  0.1148 -1.5549 -0.9010
 1902TIP3   OH227196   3.469   0.184  14.871 -0.1373 -0.3136 -0.5556
 1902TIP3    H127197   3.547   0.127  14.872 -0.2127 -0.4173 -0.6263
 1902TIP3    H227198   3.395   0.124  14.875 -0.2007 -0.1666  1.4384
 1903TIP3   OH227199   1.561   0.288   1.671  0.1645 -0.3289 -0.0940
 1903TIP3    H127200   1.642   0.262   1.714  0.0493 -0.3671  0.1003
 1903TIP3    H227201   1.562   0.384   1.674  1.4055 -0.2016 -2.2967
 1904TIP3   OH227202   3.120   0.376  11.157 -0.3181 -0.4143  0.2076
 1904TIP3    H127203   3.063   0.362  11.082 -0.3703  1.7541 -0.2198
 1904TIP3    H227204   3.062   0.409  11.226  0.2391  1.0096  0.0295
 1905TIP3   OH227205   4.822   0.593  16.236  0.4004 -0.1015 -0.0293
 1905TIP3    H127206   4.799   0.564  16.147  0.2019 -0.0561  0.0064
 1905TIP3    H227207   4.738   0.609  16.278  0.4963  2.3522 -0.6356
 1906TIP3   OH227208   1.149   2.917   2.671 -0.0927 -0.4947 -0.1029
 1906TIP3    H127209   1.152   2.850   2.739  0.2442 -0.0365  0.3444
 1906TIP3    H227210   1.232   2.908   2.624 -0.9977 -1.8941 -1.5425
 1907TIP3   OH227211   0.014   1.499  11.236  0.4910  0.2964  0.1622
 1907TIP3    H127212   0.067   1.578  11.251  0.9782  0.0961 -0.4622
 1907TIP3    H227213   0.031   1.476  11.145  0.6571 -0.7511  0.4453
 1908TIP3   OH227214   0.379   1.439   3.587 -0.1640 -0.3661  0.2667
 1908TIP3    H127215   0.355   1.371   3.524  0.4337 -1.7294  1.4795
 1908TIP3    H227216   0.445   1.491   3.541 -0.1815 -0.9591 -0.4545
 1909TIP3   OH227217   6.482   1.772   3.377 -0.7524  0.2242 -0.1341
 1909TIP3    H127218   6.461   1.804   3.289  1.2523 -1.1719 -1.2167
 1909TIP3    H227219   6.523   1.847   3.420 -1.0413  0.7063 -0.6805
 1910TIP3   OH227220   4.999   0.485   1.912  0.0080 -0.4253 -0.0643
 1910TIP3    H127221   4.941   0.415   1.941  1.1725 -1.5229 -0.3169
 1910TIP3    H227222   4.971   0.505   1.823 -1.0331  0.2238  0.3867
 1911TIP3   OH227223   4.691   3.835   4.631 -0.0334 -0.0467 -0.1185
 1911TIP3    H127224   4.622   3.769   4.630  1.2161 -1.4196 -0.4854
 1911TIP3    H227225   4.646   3.918   4.621 -1.5430 -0.9897 -1.6005
 1912TIP3   OH227226   6.593   0.175   4.468  0.0355  0.3805  0.1872
 1912TIP3    H127227   6.631   0.113   4.405 -0.4623  0.1446  0.1156
 1912TIP3    H227228   6.627   0.260   4.442  0.9498  0.1035  0.4549
 1913TIP3   OH227229   4.894   2.961  16.721 -0.8483 -0.0956 -0.1412
 1913TIP3    H127230   4.915   3.049  16.690  0.7198 -1.0982 -2.1932
 1913TIP3    H227231   4.830   2.974  16.791 -1.4729  2.5880 -1.1213
 1914TIP3   OH227232   2.467   3.007  13.097 -0.0321 -0.1950  0.0609
 1914TIP3    H127233   2.440   2.931  13.149  0.1444  0.1950  0.7317
 1914TIP3    H227234   2.388   3.061  13.090 -0.3738 -0.7937 -1.0844
 1915TIP3   OH227235   4.242   1.876  11.729 -0.4348  0.4326  0.7745
 1915TIP3    H127236   4.284   1.893  11.813  0.3080  3.4322 -0.0560
 1915TIP3    H227237   4.176   1.945  11.721 -0.8168 -0.0718 -0.8803
 1916TIP3   OH227238   0.090   6.382  12.008 -1.1470 -0.1412  0.8517
 1916TIP3    H127239   0.132   6.465  12.031  0.4997 -0.9191  0.8045
 1916TIP3    H227240   0.163   6.324  11.987 -2.1448 -2.1779  2.7329
 1917TIP3   OH227241   3.450   6.413   3.956 -0.6512 -0.0810  0.1782
 1917TIP3    H127242   3.432   6.385   4.046 -0.4976 -0.0365  0.2231
 1917TIP3    H227243   3.394   6.489   3.943  1.3999  1.7097  1.2223
 1918TIP3   OH227244   5.967   1.110  10.735 -0.2750 -0.1142 -0.2480
 1918TIP3    H127245   5.886   1.115  10.684  0.4590  0.9387 -1.3556
 1918TIP3    H227246   6.014   1.036  10.696  0.0460  0.3549 -0.7737
 1919TIP3   OH227247   1.384   6.801  13.162  0.1058 -0.0663 -0.1567
 1919TIP3    H127248   1.335   6.883  13.164  1.5441  0.8213  0.1334
 1919TIP3    H227249   1.406   6.785  13.254  0.2181 -0.5319 -0.2651
 1920TIP3   OH227250   1.966   1.500   2.681 -0.0657 -0.8094 -0.5184
 1920TIP3    H127251   1.979   1.462   2.768 -3.2239 -1.2793 -0.1229
 1920TIP3    H227252   1.981   1.427   2.621 -1.1962 -1.4156 -0.0955
 1921TIP3   OH227253   4.064   1.114   2.980 -0.2532 -0.6024  0.0521
 1921TIP3    H127254   4.096   1.185   2.923  0.4374 -1.4605 -0.6513
 1921TIP3    H227255   4.042   1.158   3.062 -0.9809  0.6181 -0.7616
 1922TIP3   OH227256   0.122   5.631  13.166  0.7363 -1.0585 -0.1182
 1922TIP3    H127257   0.036   5.604  13.198  1.3070 -1.8836  0.7597
 1922TIP3    H227258   0.155   5.689  13.234  0.9695 -0.9123 -0.3559
 1923TIP3   OH227259   2.912   4.042   4.712  0.3003  0.1139 -0.4119
 1923TIP3    H127260   2.828   4.084   4.725  0.5750  0.3256  0.7384
 1923TIP3    H227261   2.970   4.112   4.681  0.4992  0.3838  0.5326
 1924TIP3   OH227262   3.595   2.875   2.602 -0.2554  0.2183  0.0680
 1924TIP3    H127263   3.514   2.870   2.552  0.5110  0.4128 -1.2583
 1924TIP3    H227264   3.624   2.784   2.609 -0.9552  0.0659  1.2156
 1925TIP3   OH227265   6.699   6.443  11.445 -0.3772 -0.1854  0.2101
 1925TIP3    H127266   6.710   6.396  11.362  0.9149 -0.5378  0.5562
 1925TIP3    H227267   6.691   6.374  11.511 -0.7727  0.0913  0.4542
 1926TIP3   OH227268   3.646   6.148  13.415 -0.5897  0.5237  0.0000
 1926TIP3    H127269   3.590   6.117  13.486  0.2330  1.4171  1.0766
 1926TIP3    H227270   3.697   6.072  13.389  0.0615  0.4842  1.3146
 1927TIP3   OH227271   6.483   3.912   5.286  0.5138 -0.9048  0.0573
 1927TIP3    H127272   6.427   3.850   5.240 -0.6049  0.3026 -0.3074
 1927TIP3    H227273   6.480   3.991   5.231  0.8405 -0.1191  1.1427
 1928TIP3   OH227274   5.586   6.624   4.865  0.1250 -0.2253 -0.1315
 1928TIP3    H127275   5.631   6.588   4.788  2.9296 -1.7861  2.0339
 1928TIP3    H227276   5.650   6.615   4.936 -1.0838  4.1034  1.8166
 1929TIP3   OH227277   3.506   3.318   1.922  0.1228 -0.2290 -0.0564
 1929TIP3    H127278   3.601   3.334   1.924 -0.0966  1.1515  0.1769
 1929TIP3    H227279   3.467   3.404   1.911 -1.0659 -0.9704 -2.3824
 1930TIP3   OH227280   1.879   3.852   5.390  0.1619  0.2238 -0.3136
 1930TIP3    H127281   1.908   3.895   5.471 -1.1786  0.9211 -0.1708
 1930TIP3    H227282   1.852   3.765   5.418 -0.0940  0.3884 -0.0435
 1931TIP3   OH227283   1.308   5.228  15.131  0.1269  0.7979 -0.0766
 1931TIP3    H127284   1.215   5.212  15.147  0.2989 -0.3166 -0.1167
 1931TIP3    H227285   1.327   5.180  15.050  0.4967  1.9382 -0.6983
 1932TIP3   OH227286   5.795   6.513  11.812  0.5443  0.6963 -0.4762
 1932TIP3    H127287   5.885   6.500  11.781  0.1693 -0.4909 -1.1197
 1932TIP3    H227288   5.740   6.490  11.737 -0.3047  1.0495  0.0249
 1933TIP3   OH227289   4.843   3.103   1.434  0.1680 -0.0655 -0.0169
 1933TIP3    H127290   4.768   3.063   1.391  0.0353  1.0916 -0.9115
 1933TIP3    H227291   4.853   3.054   1.516  0.7938 -2.7363 -1.5589
 1934TIP3   OH227292   3.869   5.401  11.725 -0.5231 -0.0329  0.1484
 1934TIP3    H127293   3.947   5.432  11.681 -0.6399  0.6635  0.4194
 1934TIP3    H227294   3.848   5.470  11.789 -1.9967  0.3371 -0.6908
 1935TIP3   OH227295   4.989   0.804   0.484  0.3383  0.0904 -0.2127
 1935TIP3    H127296   4.901   0.834   0.505  0.6268  1.2620 -0.6085
 1935TIP3    H227297   5.042   0.833   0.558  0.6847  0.8905 -0.7680
 1936TIP3   OH227298   0.105   0.657  12.551 -0.3860  0.3009 -0.3269
 1936TIP3    H127299   0.097   0.708  12.631  1.0617 -0.7622  0.5460
 1936TIP3    H227300   0.077   0.569  12.575  0.6199 -0.1718 -0.7997
 1937TIP3   OH227301   0.364   4.089  11.002  0.1006 -0.3500 -0.2121
 1937TIP3    H127302   0.370   4.121  11.092 -2.1181 -0.3263 -0.0131
 1937TIP3    H227303   0.400   4.160  10.949  1.1003 -0.2173  0.6261
 1938TIP3   OH227304   5.722   4.058   5.791 -0.8946 -0.2008  0.2707
 1938TIP3    H127305   5.735   3.964   5.777  3.1654 -0.1213  1.9774
 1938TIP3    H227306   5.685   4.064   5.879 -1.6703 -0.1873 -0.0512
 1939TIP3   OH227307   1.198   0.105  14.087  0.0226 -0.5871 -0.0363
 1939TIP3    H127308   1.205   0.036  14.153 -1.0057 -0.0942  0.6183
 1939TIP3    H227309   1.282   0.150  14.091 -0.4353  0.2332  1.9018
 1940TIP3   OH227310   2.878   1.778  16.669 -0.3138 -0.3611 -0.0052
 1940TIP3    H127311   2.924   1.764  16.752  1.3017 -0.8791 -0.9464
 1940TIP3    H227312   2.892   1.697  16.620 -0.6415  0.2113 -1.0679
 1941TIP3   OH227313   3.721   2.332  12.014 -0.0992 -0.3768 -0.1278
 1941TIP3    H127314   3.773   2.286  12.079 -2.2025 -1.4182  0.9101
 1941TIP3    H227315   3.745   2.424  12.024  2.5782 -0.9420 -0.7448
 1942TIP3   OH227316   3.623   0.279  14.573 -0.0833  0.5045 -0.6331
 1942TIP3    H127317   3.608   0.206  14.513 -0.2709 -0.2133  0.2623
 1942TIP3    H227318   3.536   0.308  14.599 -0.0131  1.2239 -1.1852
 1943TIP3   OH227319   3.286   2.978   3.495  0.3576  0.6454 -0.4392
 1943TIP3    H127320   3.217   2.960   3.432  0.6300  1.9068 -1.1135
 1943TIP3    H227321   3.240   3.006   3.574  0.0855  1.1523 -0.7773
 1944TIP3   OH227322   1.265   6.512  14.851 -0.0944  0.2270 -0.0595
 1944TIP3    H127323   1.335   6.535  14.790  0.5991 -1.6041 -0.0070
 1944TIP3    H227324   1.287   6.560  14.932  0.1183  1.0270 -0.5828
 1945TIP3   OH227325   5.774   1.051  16.138 -0.2746 -0.0844  0.0798
 1945TIP3    H127326   5.778   0.994  16.215 -0.1011 -0.4514 -0.2020
 1945TIP3    H227327   5.809   1.135  16.169 -1.3364  0.1401  0.7291
 1946TIP3   OH227328   6.548   4.043  12.598 -0.1523  0.1921  0.6243
 1946TIP3    H127329   6.526   4.136  12.596 -0.8233  0.0192 -0.6432
 1946TIP3    H227330   6.528   4.016  12.688  0.3612  1.3296  1.1009
 1947TIP3   OH227331   1.495   0.169  13.387  0.6982  0.3532  0.1108
 1947TIP3    H127332   1.576   0.120  13.375 -0.2663 -1.5595  1.0279
 1947TIP3    H227333   1.498   0.199  13.478  0.0180 -0.4551  0.4111
 1948TIP3   OH227334   2.422   0.749  11.313 -0.0044 -0.5590  0.2470
 1948TIP3    H127335   2.512   0.767  11.285  0.2740 -2.7029 -0.4274
 1948TIP3    H227336   2.369   0.766  11.235  0.1656 -1.7694 -0.1555
 1949TIP3   OH227337   6.680   3.531  16.451  0.3510 -0.3990  0.0833
 1949TIP3    H127338   6.627   3.611  16.447  2.7688  1.4673  2.1119
 1949TIP3    H227339   6.618   3.463  16.478 -1.9139  0.5474 -2.2974
 1950TIP3   OH227340   6.625   5.018  14.143 -0.2056 -0.2705  0.0269
 1950TIP3    H127341   6.606   5.080  14.214 -2.3808  0.2984 -0.9765
 1950TIP3    H227342   6.561   4.947  14.156 -0.6706 -0.1250 -1.3888
 1951TIP3   OH227343   5.569   6.203   5.765 -0.1561  0.0891 -0.5517
 1951TIP3    H127344   5.484   6.184   5.726 -0.1072 -0.1059 -0.5666
 1951TIP3    H227345   5.600   6.117   5.795 -0.4297  0.3031  0.3827
 1952TIP3   OH227346   3.404   3.905   3.635  0.5241  0.4986  0.0016
 1952TIP3    H127347   3.429   3.941   3.721 -0.8725  2.3853 -0.3142
 1952TIP3    H227348   3.397   3.981   3.578  0.9016 -0.6706 -1.6996
 1953TIP3   OH227349   5.961   4.172   2.061  0.6581  0.4053 -0.3078
 1953TIP3    H127350   6.002   4.254   2.088 -0.5283  1.6522 -2.1163
 1953TIP3    H227351   5.897   4.154   2.131 -0.8844  2.4472 -1.0971
 1954TIP3   OH227352   3.705   0.172  16.876 -0.3108 -0.2667  0.1837
 1954TIP3    H127353   3.628   0.117  16.884 -0.4849  0.0491  0.7539
 1954TIP3    H227354   3.773   0.114  16.840 -0.1646 -1.1713  1.8256
 1955TIP3   OH227355   1.939   2.121   1.938 -0.1870  0.3607  0.1147
 1955TIP3    H127356   1.887   2.042   1.922 -1.8784  1.6353 -1.1136
 1955TIP3    H227357   1.972   2.111   2.027 -0.7734 -1.4702  0.1720
 1956TIP3   OH227358   1.944   1.268  12.909 -0.2977  0.2903 -0.7102
 1956TIP3    H127359   1.996   1.188  12.895 -1.4718 -0.2144 -2.6750
 1956TIP3    H227360   1.906   1.257  12.996  0.6282 -0.6349 -0.3938
 1957TIP3   OH227361   4.500   5.611  11.825 -0.3998  0.5322  0.1569
 1957TIP3    H127362   4.539   5.567  11.900 -0.1758  0.6527  0.1128
 1957TIP3    H227363   4.442   5.546  11.786 -0.3113  0.3810  0.2766
 1958TIP3   OH227364   2.340   4.329  11.832  0.2871  0.3753 -0.1543
 1958TIP3    H127365   2.292   4.403  11.867 -3.7008 -1.3277 -1.4174
 1958TIP3    H227366   2.347   4.268  11.905  1.2167  0.8839  0.2003
 1959TIP3   OH227367   6.368   4.940   4.831  0.3646 -0.3670  0.1234
 1959TIP3    H127368   6.293   4.993   4.804  0.8634 -0.0450 -0.6769
 1959TIP3    H227369   6.400   4.901   4.750  0.9694 -0.6146  0.4728
 1960TIP3   OH227370   3.112   4.114  16.817 -0.1484  0.0602 -0.4842
 1960TIP3    H127371   3.169   4.038  16.807  0.5522  0.5777 -0.5336
 1960TIP3    H227372   3.038   4.082  16.868  0.2833 -0.5907 -0.2484
 1961TIP3   OH227373   5.223   4.375  14.508  0.5264  0.5213 -0.3513
 1961TIP3    H127374   5.184   4.306  14.562 -0.4335  0.4221 -1.1475
 1961TIP3    H227375   5.263   4.328  14.435  1.2866  0.7018 -0.0630
 1962TIP3   OH227376   5.212   6.480   5.917  0.1642  0.2776  0.4963
 1962TIP3    H127377   5.181   6.542   5.851  0.0101 -0.8650 -0.5364
 1962TIP3    H227378   5.191   6.522   6.001  0.4301  1.7937 -0.1515
 1963TIP3   OH227379   4.709   2.392  12.113  0.6804  0.4364 -0.1094
 1963TIP3    H127380   4.667   2.457  12.170  0.4738 -0.2221  0.5060
 1963TIP3    H227381   4.798   2.385  12.146  0.2193 -0.8683  0.9997
 1964TIP3   OH227382   0.729   1.180  13.895 -0.3359 -0.5621 -0.2311
 1964TIP3    H127383   0.780   1.220  13.965 -2.0736  2.3381 -0.4389
 1964TIP3    H227384   0.640   1.173  13.931 -0.7977 -1.1324 -1.4126
 1965TIP3   OH227385   5.483   0.521   1.311  0.4957 -0.0208  0.8148
 1965TIP3    H127386   5.421   0.562   1.371 -2.0666 -1.4548 -0.6970
 1965TIP3    H227387   5.440   0.524   1.225  3.1551  0.1680 -0.6296
 1966TIP3   OH227388   4.487   1.865  14.152 -0.0610  0.1137  0.4826
 1966TIP3    H127389   4.442   1.791  14.192 -1.3051  0.9614  0.7094
 1966TIP3    H227390   4.504   1.837  14.062 -2.4234  0.2868 -0.0866
 1967TIP3   OH227391   1.791   1.988   4.315  0.3864 -0.1924 -0.2489
 1967TIP3    H127392   1.716   2.036   4.348  0.3805  0.9899 -1.8463
 1967TIP3    H227393   1.860   2.001   4.381 -0.9249 -1.8544  1.5683
 1968TIP3   OH227394   3.426   6.148   3.126  0.3553  0.5905 -0.3184
 1968TIP3    H127395   3.397   6.189   3.044 -2.3066 -0.6861 -0.1490
 1968TIP3    H227396   3.368   6.184   3.193 -2.1195 -3.1261 -0.1682
 1969TIP3   OH227397   1.474   5.922  13.567 -0.0933  0.2985 -0.1045
 1969TIP3    H127398   1.433   5.844  13.529 -1.0630  0.8817 -0.2877
 1969TIP3    H227399   1.452   5.992  13.506  1.6840  0.5431 -0.5106
 1970TIP3   OH227400   2.951   2.935  12.259  0.0374 -0.0511  0.2270
 1970TIP3    H127401   3.019   2.915  12.195  0.5789 -2.9498  1.5559
 1970TIP3    H227402   2.992   2.918  12.344 -0.9977  2.5946  1.3838
 1971TIP3   OH227403   2.935   6.613  13.085  0.1437 -0.2886  0.2248
 1971TIP3    H127404   2.964   6.704  13.096  0.6249 -0.0127 -2.6145
 1971TIP3    H227405   3.003   6.573  13.030 -1.3028 -1.6690 -0.6213
 1972TIP3   OH227406   2.075   1.127   1.941  0.1032 -0.2149 -0.1143
 1972TIP3    H127407   2.027   1.193   1.891  2.2696  1.0557 -0.6553
 1972TIP3    H227408   2.058   1.150   2.033  0.2556  0.6943 -0.2965
 1973TIP3   OH227409   4.267   5.501  13.068 -0.3812  0.8152 -0.1229
 1973TIP3    H127410   4.177   5.469  13.067 -0.0146 -0.2295 -1.1033
 1973TIP3    H227411   4.316   5.440  13.013  0.9352  1.3710  0.3714
 1974TIP3   OH227412   6.038   0.858  15.439 -0.4020 -0.2682  0.3511
 1974TIP3    H127413   6.128   0.860  15.406  0.0196  1.0523  1.4628
 1974TIP3    H227414   6.035   0.781  15.496 -0.2654 -0.8582 -0.4324
 1975TIP3   OH227415   1.767   2.592  11.381 -0.2729 -0.1823  0.1178
 1975TIP3    H127416   1.688   2.570  11.331 -0.0774  2.2960 -1.4741
 1975TIP3    H227417   1.836   2.542  11.338 -0.0798  2.0267 -2.4132
 1976TIP3   OH227418   3.461   1.513   0.840 -0.1539 -0.1318  0.0434
 1976TIP3    H127419   3.387   1.466   0.880 -0.2852  1.3575  1.6890
 1976TIP3    H227420   3.447   1.605   0.865  0.1209  0.8565 -2.9890
 1977TIP3   OH227421   3.206   5.341   0.136  0.5951  0.8989 -0.4979
 1977TIP3    H127422   3.114   5.318   0.150  1.0771  0.3755  2.4710
 1977TIP3    H227423   3.236   5.280   0.069 -1.0616  0.6919 -1.1016
 1978TIP3   OH227424   3.874   5.024  13.519  0.3069 -0.3604  0.5837
 1978TIP3    H127425   3.915   5.074  13.589  0.9839  0.9770 -0.7067
 1978TIP3    H227426   3.849   5.090  13.454 -0.4322 -1.5309 -0.3654
 1979TIP3   OH227427   5.576   6.055   1.941  0.2159  0.1669 -0.5275
 1979TIP3    H127428   5.576   6.000   1.863  0.3130  1.3924 -1.4204
 1979TIP3    H227429   5.508   6.017   1.997 -1.3114  0.4643 -2.0907
 1980TIP3   OH227430   2.074   5.022  16.672 -0.1007 -0.2258  0.2947
 1980TIP3    H127431   2.112   4.934  16.666 -1.6159 -0.8925 -0.2811
 1980TIP3    H227432   2.018   5.028  16.595  0.4780  1.5271 -0.0179
 1981TIP3   OH227433   0.899   1.453  13.361 -0.0417  0.0514  0.0241
 1981TIP3    H127434   0.906   1.405  13.278 -0.3287 -2.1452  1.1967
 1981TIP3    H227435   0.963   1.524  13.353  2.6215 -2.2459 -0.7403
 1982TIP3   OH227436   4.763   2.529   3.616  0.1889 -0.3305  0.7202
 1982TIP3    H127437   4.837   2.561   3.565 -0.4035 -0.4246 -0.2232
 1982TIP3    H227438   4.798   2.515   3.704  2.3104 -4.0214 -0.5104
 1983TIP3   OH227439   2.185   6.751   2.804 -0.1143  0.2036 -0.1306
 1983TIP3    H127440   2.149   6.828   2.848  0.7183 -0.0432  1.0098
 1983TIP3    H227441   2.197   6.780   2.713 -2.1363  0.6221 -0.3244
 1984TIP3   OH227442   2.744   1.914  15.493  0.0719  0.1828 -0.1983
 1984TIP3    H127443   2.657   1.883  15.464 -0.3901  1.5479 -0.3319
 1984TIP3    H227444   2.786   1.944  15.412  0.0524  0.9723  0.0790
 1985TIP3   OH227445   0.625   1.138  14.587 -0.4209  0.2052  0.0270
 1985TIP3    H127446   0.590   1.209  14.532  0.1011  0.2103 -0.2974
 1985TIP3    H227447   0.650   1.182  14.669  1.3108  0.6825 -0.7169
 1986TIP3   OH227448   3.665   2.302  17.002  0.0979 -0.3726  0.0666
 1986TIP3    H127449   3.720   2.230  17.034  0.0250  0.0728  1.2303
 1986TIP3    H227450   3.620   2.334  17.080 -0.2137  0.6510 -0.5199
 1987TIP3   OH227451   1.465   0.297   3.251 -0.0986 -0.0325  0.0432
 1987TIP3    H127452   1.497   0.384   3.275 -1.1494 -0.1663  2.1741
 1987TIP3    H227453   1.542   0.240   3.257 -0.2268 -0.0688  3.5645
 1988TIP3   OH227454   1.111   1.323  16.803 -0.2065  0.0549  1.0878
 1988TIP3    H127455   1.186   1.272  16.772 -0.9980 -0.4945  0.0013
 1988TIP3    H227456   1.039   1.261  16.804 -0.6947  0.6209  1.9523
 1989TIP3   OH227457   5.857   0.649   4.155 -0.0281  0.0143  0.9119
 1989TIP3    H127458   5.854   0.554   4.150 -3.4966 -0.0746  2.0547
 1989TIP3    H227459   5.869   0.677   4.064 -1.8552 -1.5774  0.0915
 1990TIP3   OH227460   6.054   4.069   2.522 -0.3235  0.1422  0.2890
 1990TIP3    H127461   6.103   4.111   2.592  1.5523  0.3777 -1.0848
 1990TIP3    H227462   5.973   4.120   2.515  0.6541  1.7793  0.5363
 1991TIP3   OH227463   1.190   1.680  15.327  0.7537 -0.0558 -0.6256
 1991TIP3    H127464   1.143   1.701  15.247 -1.1814 -1.5900  0.0122
 1991TIP3    H227465   1.161   1.747  15.390  1.8305  0.8075 -1.0244
 1992TIP3   OH227466   2.880   6.306   0.867 -0.0130  0.0761 -0.1266
 1992TIP3    H127467   2.896   6.309   0.962  0.2370 -0.2953 -0.1547
 1992TIP3    H227468   2.950   6.250   0.833 -0.9883 -1.0548 -0.3392
 1993TIP3   OH227469   2.884   2.611  15.428 -0.2813 -0.0566  0.2538
 1993TIP3    H127470   2.952   2.663  15.471 -0.1918 -0.3589  0.4793
 1993TIP3    H227471   2.931   2.558  15.363 -0.7107  2.5910 -2.4488
 1994TIP3   OH227472   3.233   4.070   0.531 -0.3733  0.1389 -0.0321
 1994TIP3    H127473   3.181   4.121   0.593  0.3649 -1.4860  2.0266
 1994TIP3    H227474   3.173   4.051   0.459 -2.8532 -1.9046  2.3667
 1995TIP3   OH227475   0.221   3.983   6.028 -0.2832  0.6468 -0.2414
 1995TIP3    H127476   0.221   3.892   6.000  1.5724  0.4856  0.1256
 1995TIP3    H227477   0.129   4.006   6.039 -0.8314 -0.7941 -1.5407
 1996TIP3   OH227478   6.593   6.754  12.400  0.2688  0.5095  0.1315
 1996TIP3    H127479   6.527   6.717  12.458  1.0429 -1.4437 -0.1461
 1996TIP3    H227480   6.650   6.680  12.379 -0.0066  1.0888 -3.1739
 1997TIP3   OH227481   1.932   2.742  15.149  0.2182 -0.4186 -0.1130
 1997TIP3    H127482   1.872   2.668  15.155  0.4774 -0.5280  1.7459
 1997TIP3    H227483   1.926   2.771  15.058 -1.6601 -1.2362 -0.2958
 1998TIP3   OH227484   0.831   1.330  15.689 -0.5810 -0.0607  0.1002
 1998TIP3    H127485   0.830   1.371  15.775 -0.6422  0.6598 -0.2340
 1998TIP3    H227486   0.746   1.353  15.651  0.0461  0.9535 -0.7478
 1999TIP3   OH227487   1.651   0.010  16.094  0.1242  0.2379  0.5426
 1999TIP3    H127488   1.698   0.071  16.038 -0.8151 -0.9079 -1.6264
 1999TIP3    H227489   1.567  -0.003  16.050  0.1108 -2.2409  1.1490
 2000TIP3   OH227490   3.346   0.984   1.651 -0.0810  0.2582 -0.1892
 2000TIP3    H127491   3.292   0.924   1.600 -0.3054 -0.2143  0.5923
 2000TIP3    H227492   3.285   1.047   1.689 -0.0702 -0.1356  0.5021
 2001TIP3   OH227493   2.324   4.653  11.459 -0.1156 -0.0665 -0.2774
 2001TIP3    H127494   2.338   4.559  11.446 -0.3067 -0.1558  0.1263
 2001TIP3    H227495   2.313   4.662  11.554 -0.4446  0.3173 -0.3504
 2002TIP3   OH227496   5.352   5.535  12.223 -0.3372 -0.0730 -0.0759
 2002TIP3    H127497   5.378   5.503  12.309 -0.8788  1.1033  0.5562
 2002TIP3    H227498   5.288   5.604  12.242 -2.7142 -1.7495 -1.4974
 2003TIP3   OH227499   5.461   6.693  16.621  0.8046 -0.2454  0.2796
 2003TIP3    H127500   5.526   6.755  16.654  0.3553 -0.1036  0.9143
 2003TIP3    H227501   5.377   6.729  16.650  0.1770  0.9141 -2.5776
 2004TIP3   OH227502   3.115   0.760   2.098  0.1259  0.2339 -0.3755
 2004TIP3    H127503   3.088   0.760   2.190 -1.0783 -0.4407 -0.7049
 2004TIP3    H227504   3.035   0.784   2.050 -0.8286 -4.4027 -1.6123
 2005TIP3   OH227505   3.270   3.341   4.731 -0.3985 -0.0261 -0.2217
 2005TIP3    H127506   3.228   3.259   4.755  0.8998 -0.3228  1.2569
 2005TIP3    H227507   3.217   3.376   4.659 -2.1031 -1.1947  0.4022
 2006TIP3   OH227508   2.816   0.856   5.833  0.2236 -0.3374  0.1606
 2006TIP3    H127509   2.866   0.778   5.808  0.2845  0.7611 -3.8785
 2006TIP3    H227510   2.867   0.929   5.798 -2.2995  1.0927 -0.8512
 2007TIP3   OH227511   5.940   0.377  11.197  0.2281  0.1810  0.2734
 2007TIP3    H127512   5.854   0.366  11.157  0.9337 -0.3009 -1.1522
 2007TIP3    H227513   5.982   0.292  11.187  1.7590  1.0790 -1.2287
 2008TIP3   OH227514   2.199   5.491  15.360  0.2858 -0.5461  0.1238
 2008TIP3    H127515   2.117   5.509  15.405  1.1279  0.0480  1.5066
 2008TIP3    H227516   2.194   5.542  15.280  0.1529  1.1995  1.1952
 2009TIP3   OH227517   5.578   5.312  12.253 -0.1869 -0.2851  0.2669
 2009TIP3    H127518   5.659   5.294  12.300  0.1240 -0.4489 -0.3229
 2009TIP3    H227519   5.590   5.400  12.217 -0.1891 -0.3865  0.0148
 2010TIP3   OH227520   5.767   3.486   0.394  0.0926  0.3810  0.0087
 2010TIP3    H127521   5.681   3.490   0.436 -0.1705  0.8366 -0.5595
 2010TIP3    H227522   5.799   3.398   0.411  0.4980  0.8851  2.1420
 2011TIP3   OH227523   5.173   3.599   6.395 -0.3085  0.3190 -0.2456
 2011TIP3    H127524   5.228   3.677   6.401 -1.5288  1.1338  0.8040
 2011TIP3    H227525   5.122   3.612   6.314  0.7979 -0.2987 -1.0621
 2012TIP3   OH227526   6.018   2.634   2.355  0.3295  0.2472  0.1929
 2012TIP3    H127527   5.989   2.545   2.337  1.2296 -0.0257  0.0589
 2012TIP3    H227528   6.025   2.639   2.450  2.6713 -0.6259  0.1188
 2013TIP3   OH227529   5.644   4.819  14.440 -0.5686 -0.4822  0.6879
 2013TIP3    H127530   5.697   4.765  14.498 -1.0076  0.1879  1.7440
 2013TIP3    H227531   5.623   4.896  14.492  0.7686  1.1523 -1.0359
 2014TIP3   OH227532   2.532   6.033   1.573 -0.1718 -0.1160 -0.0754
 2014TIP3    H127533   2.530   6.127   1.554  0.5838 -0.1269 -0.2454
 2014TIP3    H227534   2.442   6.004   1.564 -0.3216  0.4928 -0.5478
 2015TIP3   OH227535   6.325   5.335  15.512  0.5710 -0.0548 -0.1621
 2015TIP3    H127536   6.419   5.319  15.506  0.6301  0.0176  0.5021
 2015TIP3    H227537   6.297   5.346  15.421  1.1739 -0.2312 -0.3766
 2016TIP3   OH227538   5.660   5.409   4.921  0.0396 -0.1165  0.1736
 2016TIP3    H127539   5.750   5.377   4.921 -0.0804 -0.4554  0.5022
 2016TIP3    H227540   5.655   5.466   4.844 -0.1546 -2.0081 -1.2873
 2017TIP3   OH227541   0.344   2.512   2.962  0.1507 -0.7967 -0.2470
 2017TIP3    H127542   0.253   2.496   2.935  0.0774  0.3322 -0.7385
 2017TIP3    H227543   0.396   2.473   2.892  0.0014  0.0303 -0.8331
 2018TIP3   OH227544   2.735   3.126   6.808  0.3595  0.0409  0.1238
 2018TIP3    H127545   2.756   3.039   6.842  2.8549  0.7690  0.6450
 2018TIP3    H227546   2.758   3.186   6.879  1.7284  1.3099 -1.3079
 2019TIP3   OH227547   6.224   4.748   2.068  0.0998 -0.5701  0.3450
 2019TIP3    H127548   6.242   4.656   2.088 -0.1452 -0.3911  1.4623
 2019TIP3    H227549   6.194   4.785   2.151 -0.6633  0.3120 -0.3017
 2020TIP3   OH227550   5.991   1.494  14.273 -0.4796 -1.1586 -0.3041
 2020TIP3    H127551   6.068   1.550  14.260  0.7695 -2.5168  0.8968
 2020TIP3    H227552   5.932   1.547  14.325  0.3766 -0.6843  0.2075
 2021TIP3   OH227553   6.817   4.176  15.961 -0.4045 -0.2046 -0.1570
 2021TIP3    H127554   6.752   4.209  15.899 -1.5000 -0.3558  0.8786
 2021TIP3    H227555   6.783   4.090  15.988  0.1411 -0.2147  0.5289
 2022TIP3   OH227556   5.664   2.490   1.793  0.1530  0.6349  0.0729
 2022TIP3    H127557   5.712   2.451   1.866 -0.5672  0.4510  0.4615
 2022TIP3    H227558   5.580   2.517   1.831  0.6660  2.7051 -0.1449
 2023TIP3   OH227559   0.865   3.567   2.321  0.8670 -0.1805  0.3354
 2023TIP3    H127560   0.911   3.651   2.311  1.6199 -0.4814  1.1561
 2023TIP3    H227561   0.893   3.515   2.246 -0.0026  0.4651 -0.4621
 2024TIP3   OH227562   1.777   2.746   1.317  0.3840  0.4011 -0.0077
 2024TIP3    H127563   1.822   2.786   1.392  0.2993 -0.6482  0.6176
 2024TIP3    H227564   1.691   2.721   1.352  0.2603  0.1076 -0.5218
 2025TIP3   OH227565   0.710   5.962  17.042 -0.2527  0.3720  0.0249
 2025TIP3    H127566   0.775   5.957  17.111  0.1257  1.8401 -0.1855
 2025TIP3    H227567   0.705   6.055  17.020 -1.2277  0.0884 -1.1009
 2026TIP3   OH227568   5.328   4.123  17.113 -0.3288  0.6597 -0.2089
 2026TIP3    H127569   5.329   4.204  17.061  1.8045  1.9586  1.6938
 2026TIP3    H227570   5.282   4.146  17.194  0.7271  0.1205  0.5649
 2027TIP3   OH227571   4.121   4.448  12.272 -0.8449 -0.1059 -0.5839
 2027TIP3    H127572   4.202   4.496  12.260 -0.8227  0.0584  0.1819
 2027TIP3    H227573   4.056   4.515  12.295 -0.7274 -0.4546  0.8921
 2028TIP3   OH227574   4.807   1.666   2.462  0.1899  0.0142  0.1398
 2028TIP3    H127575   4.898   1.689   2.445 -0.1010  0.9217 -0.2514
 2028TIP3    H227576   4.775   1.632   2.378 -0.2864  1.2786 -0.2170
 2029TIP3   OH227577   3.927   5.593  13.233 -0.1337  0.0115  0.8251
 2029TIP3    H127578   3.978   5.610  13.153  1.7172 -1.5446  1.6007
 2029TIP3    H227579   3.842   5.562  13.201  0.2088  0.4015 -0.5319
 2030TIP3   OH227580   0.388   5.349  12.502 -0.4310  0.3092  0.1675
 2030TIP3    H127581   0.430   5.278  12.551 -0.1325  0.3826  0.0256
 2030TIP3    H227582   0.424   5.429  12.541  1.0684  0.3716 -1.1948
 2031TIP3   OH227583   5.222   4.580  13.301  0.9176  0.1221 -0.7940
 2031TIP3    H127584   5.147   4.639  13.294 -0.1377 -1.0128  0.4229
 2031TIP3    H227585   5.272   4.595  13.220  0.5143  2.3848 -0.6916
 2032TIP3   OH227586   4.787   0.065  14.912 -0.2621  0.2030 -0.2964
 2032TIP3    H127587   4.703   0.022  14.896 -0.0703 -0.4268  0.3157
 2032TIP3    H227588   4.801   0.054  15.006  0.3616  0.5765 -0.3430
 2033TIP3   OH227589   3.877   0.163   5.095  0.0256  0.2993 -0.0941
 2033TIP3    H127590   3.784   0.176   5.113 -0.4563 -0.9766 -1.4733
 2033TIP3    H227591   3.912   0.127   5.176 -1.0482 -0.7725 -0.0820
 2034TIP3   OH227592   5.949   3.396   2.510 -0.2535 -0.0631 -0.0154
 2034TIP3    H127593   5.924   3.390   2.418  0.5209 -0.8846 -0.1902
 2034TIP3    H227594   5.923   3.485   2.537  1.1573  0.8699 -1.5338
 2035TIP3   OH227595   6.501   1.534  14.582  0.1041 -0.1620 -0.2402
 2035TIP3    H127596   6.547   1.459  14.621  1.0421 -0.7041 -2.2400
 2035TIP3    H227597   6.530   1.609  14.632  0.9411 -0.8649  0.3577
 2036TIP3   OH227598   1.222   1.844   3.593 -0.3676 -0.7844  0.2983
 2036TIP3    H127599   1.161   1.881   3.529  0.6724  0.7245  0.1182
 2036TIP3    H227600   1.308   1.857   3.554  0.1656 -1.6638  1.1378
 2037TIP3   OH227601   0.084   1.576   1.896 -0.2429 -0.1882  0.1244
 2037TIP3    H127602   0.041   1.595   1.813  2.6371 -2.3043 -2.0533
 2037TIP3    H227603   0.062   1.485   1.915  2.1923 -1.0044 -0.5348
 2038TIP3   OH227604   3.392   2.273   5.226 -0.0340 -0.2856 -0.0811
 2038TIP3    H127605   3.436   2.296   5.308  1.6524 -0.5882 -0.8580
 2038TIP3    H227606   3.301   2.300   5.239  0.2083 -0.2882  1.8605
 2039TIP3   OH227607   5.956   6.579   5.774 -0.3106  0.0708  0.0625
 2039TIP3    H127608   5.991   6.490   5.783 -1.7594 -0.4736  0.6031
 2039TIP3    H227609   5.963   6.617   5.861  1.1779  0.8574 -0.3686
 2040TIP3   OH227610   1.467   1.141  16.467  1.1345  0.2354  0.2587
 2040TIP3    H127611   1.403   1.115  16.400  0.0114 -0.1817  1.4525
 2040TIP3    H227612   1.533   1.071  16.465  0.2016 -0.6784  0.7509
 2041TIP3   OH227613   0.214   4.817   4.873  0.0211  0.2846 -0.1630
 2041TIP3    H127614   0.199   4.805   4.779 -2.0740 -0.9678  0.2644
 2041TIP3    H227615   0.186   4.906   4.891  1.2693  0.8362 -0.8546
 2042TIP3   OH227616   5.395   4.442   0.899  0.6316 -0.6495 -0.5404
 2042TIP3    H127617   5.382   4.526   0.855  1.1188 -0.4822 -0.3758
 2042TIP3    H227618   5.490   4.437   0.913  0.3672 -0.0017  1.8655
 2043TIP3   OH227619   6.135   0.741   2.958  0.2755  0.0849 -0.1642
 2043TIP3    H127620   6.109   0.781   3.041  1.1326  2.1945 -0.8359
 2043TIP3    H227621   6.065   0.679   2.938  0.5114 -1.2123  2.5630
 2044TIP3   OH227622   1.900   5.651   0.555  0.0909 -0.0584 -0.3362
 2044TIP3    H127623   1.874   5.573   0.506  0.1953 -1.0839  1.1411
 2044TIP3    H227624   1.984   5.628   0.594 -1.3051 -0.5316  2.7194
 2045TIP3   OH227625   4.321   2.609  13.591  0.1317 -0.0082  0.1389
 2045TIP3    H127626   4.393   2.669  13.573 -0.4949  0.4318 -1.0341
 2045TIP3    H227627   4.301   2.621  13.684  2.1688 -0.8426  0.7323
 2046TIP3   OH227628   5.339   1.279   2.234  0.1651 -0.1943 -0.5688
 2046TIP3    H127629   5.364   1.341   2.166  2.4097  0.4501  0.7380
 2046TIP3    H227630   5.382   1.197   2.208  0.0134 -0.2751 -0.5632
 2047TIP3   OH227631   1.025   2.530  14.059 -0.3185 -0.0968 -0.2561
 2047TIP3    H127632   0.970   2.529  14.138  2.5139 -0.8923  1.8928
 2047TIP3    H227633   1.022   2.621  14.029 -0.6601  0.4703  1.3915
 2048TIP3   OH227634   2.028   3.237  17.222  0.3767 -0.1840 -0.0999
 2048TIP3    H127635   2.106   3.291  17.231 -0.4307  0.9996 -0.0230
 2048TIP3    H227636   2.048   3.179  17.149  1.1441  0.4377 -0.3966
 2049TIP3   OH227637   5.613   0.305   5.727 -0.1742 -0.0207 -0.2666
 2049TIP3    H127638   5.695   0.356   5.722 -0.3208  0.4112  1.2930
 2049TIP3    H227639   5.545   0.369   5.708 -0.1181 -0.8629 -4.0650
 2050TIP3   OH227640   1.956   4.187  12.789  0.0263  0.0450  0.2730
 2050TIP3    H127641   1.868   4.149  12.791  0.5589 -1.2318  1.7834
 2050TIP3    H227642   2.014   4.111  12.783  1.0921  0.7011  1.8785
 2051TIP3   OH227643   2.779   6.441   3.275  0.0970  0.2256 -0.4674
 2051TIP3    H127644   2.691   6.474   3.297 -0.0036  0.1033 -0.6818
 2051TIP3    H227645   2.838   6.509   3.306 -0.0486  0.1114  0.0747
 2052TIP3   OH227646   0.067   3.158  13.065  0.0055 -0.0588 -0.5760
 2052TIP3    H127647   0.037   3.193  13.149 -1.2509 -0.7693 -0.7126
 2052TIP3    H227648   0.115   3.079  13.088 -2.4085 -1.6309 -0.6201
 2053TIP3   OH227649   2.984   6.696   3.120 -0.2240 -0.5107 -0.5350
 2053TIP3    H127650   2.923   6.762   3.088  0.3878 -0.2800 -1.2439
 2053TIP3    H227651   2.960   6.685   3.212 -1.0148 -0.0744 -0.6741
 2054TIP3   OH227652   3.040   3.758   1.275 -0.1375 -0.2792  0.5469
 2054TIP3    H127653   2.950   3.759   1.242 -0.1542 -1.0199  0.5505
 2054TIP3    H227654   3.085   3.826   1.225 -0.5269 -0.3959  0.0328
 2055TIP3   OH227655   5.778   5.726   0.948 -0.0400 -0.4849  0.3058
 2055TIP3    H127656   5.851   5.712   0.888  0.2593 -1.0242  0.7836
 2055TIP3    H227657   5.796   5.812   0.987 -0.6600  0.2280 -0.9499
 2056TIP3   OH227658   4.809   1.208   5.380 -0.2453 -0.3230 -0.3600
 2056TIP3    H127659   4.789   1.149   5.452 -1.3581  1.0205  0.4793
 2056TIP3    H227660   4.807   1.296   5.419 -2.1665  0.5576 -2.2110
 2057TIP3   OH227661   3.486   2.880   0.021  1.0424 -0.2067 -0.3566
 2057TIP3    H127662   3.558   2.942   0.010  0.9536 -0.3818 -2.2589
 2057TIP3    H227663   3.512   2.803  -0.031 -0.3813 -0.3812 -0.8554
 2058TIP3   OH227664   4.965   0.467   3.765 -0.3379  0.4013  0.2841
 2058TIP3    H127665   5.036   0.418   3.806  0.3690  2.8483  2.1818
 2058TIP3    H227666   5.007   0.518   3.696 -0.2703  1.5574  1.1542
 2059TIP3   OH227667   6.364   2.841   1.670  0.2762 -0.0914  0.2901
 2059TIP3    H127668   6.278   2.830   1.630  0.1916 -2.0555  0.9022
 2059TIP3    H227669   6.346   2.845   1.764  0.6539  2.3551  0.3306
 2060TIP3   OH227670   1.871   5.958   5.362 -0.4689 -0.4987 -0.3318
 2060TIP3    H127671   1.890   6.021   5.292  0.7467 -0.4089  0.0720
 2060TIP3    H227672   1.803   6.001   5.415 -1.6394 -0.6944 -1.6027
 2061TIP3   OH227673   1.777   5.810  15.943 -0.0748  0.4245  0.0675
 2061TIP3    H127674   1.788   5.741  16.008 -0.1305 -0.1848 -0.5563
 2061TIP3    H227675   1.694   5.790  15.901 -0.4107  1.2546  0.3251
 2062TIP3   OH227676   3.903   2.027   2.147  0.5892 -0.0599  0.1247
 2062TIP3    H127677   3.827   2.004   2.201 -0.0926  0.5857 -0.5507
 2062TIP3    H227678   3.968   2.060   2.210 -0.7314  2.0860  0.4566
 2063TIP3   OH227679   1.434   3.544   3.086  0.4864  0.8309 -0.2439
 2063TIP3    H127680   1.369   3.607   3.116  0.2013  1.2092 -1.5714
 2063TIP3    H227681   1.409   3.461   3.127 -1.2940  0.8091 -1.2970
 2064TIP3   OH227682   2.579   5.683  14.130 -0.0525  0.6398  0.0954
 2064TIP3    H127683   2.548   5.612  14.074  0.6577  0.9205 -0.6814
 2064TIP3    H227684   2.511   5.693  14.196 -0.1745 -0.7436  0.2075
 2065TIP3   OH227685   5.665   4.610  16.842  0.3706  0.5257 -0.0393
 2065TIP3    H127686   5.712   4.674  16.788  0.8401  0.5624  0.4005
 2065TIP3    H227687   5.593   4.660  16.880 -0.0003  0.4838 -0.6789
 2066TIP3   OH227688   0.926   1.678  15.738  0.0160  0.1793 -1.0765
 2066TIP3    H127689   0.924   1.621  15.661 -0.6929  0.1428 -1.0352
 2066TIP3    H227690   0.841   1.664  15.781  0.5629 -0.1217 -0.0507
 2067TIP3   OH227691   1.947   6.357  16.162 -0.4407  0.2439 -0.0870
 2067TIP3    H127692   1.934   6.295  16.091 -1.1307 -0.5904  0.7363
 2067TIP3    H227693   1.916   6.441  16.128 -1.0767 -0.2167 -0.6516
 2068TIP3   OH227694   0.705   6.817  15.020  0.1882 -0.3910  0.4438
 2068TIP3    H127695   0.791   6.775  15.010 -1.2262 -3.6364  0.5779
 2068TIP3    H227696   0.643   6.746  15.008 -2.5812  2.0522 -0.8125
 2069TIP3   OH227697   3.157   3.461  13.883  0.4394 -0.1041  0.1111
 2069TIP3    H127698   3.106   3.539  13.861  0.5872 -0.0997 -0.2254
 2069TIP3    H227699   3.114   3.390  13.835  0.6865 -0.1185 -0.0897
 2070TIP3   OH227700   1.699   1.547   2.537  0.8051 -0.7620 -0.1245
 2070TIP3    H127701   1.699   1.498   2.619 -0.7261  0.5731  0.7412
 2070TIP3    H227702   1.791   1.556   2.514  1.4367  0.4024  2.4632
 2071TIP3   OH227703   4.095   5.255   2.200  0.0230  0.7579  0.3044
 2071TIP3    H127704   4.042   5.318   2.152 -1.1765 -0.5864 -0.2091
 2071TIP3    H227705   4.122   5.301   2.279 -1.8440  1.5299  0.5441
 2072TIP3   OH227706   5.302   5.135   1.302 -0.5608 -0.5450  0.0519
 2072TIP3    H127707   5.257   5.050   1.295  0.5575 -1.3131  1.4606
 2072TIP3    H227708   5.393   5.115   1.279 -0.9178  1.1120 -3.4171
 2073TIP3   OH227709   1.697   5.751  11.216  0.3543  0.7763  0.1445
 2073TIP3    H127710   1.649   5.713  11.143 -0.1241  0.1680  0.7631
 2073TIP3    H227711   1.690   5.846  11.203  0.6283  0.6792 -0.8134
 2074TIP3   OH227712   0.032   0.860  11.999 -0.3465 -0.0144 -0.1881
 2074TIP3    H127713  -0.031   0.836  11.932  0.1310 -0.0772 -0.6272
 2074TIP3    H227714   0.080   0.779  12.018 -0.6324 -0.0517  0.4026
 2075TIP3   OH227715   6.122   6.099   5.422  0.0986  0.0305 -0.3567
 2075TIP3    H127716   6.035   6.106   5.382  0.7078 -0.3590 -1.8152
 2075TIP3    H227717   6.111   6.037   5.493 -1.3915  1.9638  1.2352
 2076TIP3   OH227718   5.151   0.659  14.429  0.1684  0.7623 -0.3462
 2076TIP3    H127719   5.159   0.565  14.411 -0.2389  0.5611  0.4789
 2076TIP3    H227720   5.241   0.692  14.428  0.2863  0.4537 -1.0451
 2077TIP3   OH227721   5.005   5.637   4.439  0.1790  0.2109  0.3144
 2077TIP3    H127722   5.037   5.548   4.424 -2.8680 -0.5663 -3.0251
 2077TIP3    H227723   5.034   5.687   4.363 -1.4770  0.9442  0.1234
 2078TIP3   OH227724   5.280   3.565   6.109 -0.2364  0.1065  0.5098
 2078TIP3    H127725   5.366   3.597   6.137 -0.4886 -0.7564  2.3701
 2078TIP3    H227726   5.300   3.500   6.041  0.6324 -0.4300  1.2534
 2079TIP3   OH227727   4.066   1.862   5.326  0.5381 -0.0319  0.1186
 2079TIP3    H127728   4.025   1.776   5.329  1.1326 -0.3117  0.4281
 2079TIP3    H227729   4.080   1.879   5.233  1.4744 -0.7891  0.1097
 2080TIP3   OH227730   2.490   1.048  10.906 -0.4136  0.0112  0.0451
 2080TIP3    H127731   2.550   1.114  10.940 -0.8374  0.2355  0.3712
 2080TIP3    H227732   2.499   1.054  10.810 -1.0239  1.0967  0.0374
 2081TIP3   OH227733   3.031   0.221   6.020 -0.7980  0.2147  0.1611
 2081TIP3    H127734   3.098   0.250   6.082  0.0472  2.8039 -1.8176
 2081TIP3    H227735   3.062   0.136   5.990 -1.1786 -1.0933  3.0689
 2082TIP3   OH227736   4.757   4.662  16.131  0.1262 -0.0956 -0.1368
 2082TIP3    H127737   4.816   4.590  16.156 -0.8873 -0.9104  0.0045
 2082TIP3    H227738   4.678   4.646  16.183  0.1638  1.5912  0.4875
 2083TIP3   OH227739   6.183   6.116   3.576 -0.1979  0.2180  0.0954
 2083TIP3    H127740   6.146   6.121   3.487 -0.2685  0.4303  0.1359
 2083TIP3    H227741   6.131   6.049   3.619  1.2793 -1.5184 -0.7000
 2084TIP3   OH227742   2.963   2.050   0.989 -0.2846 -1.0376  0.0634
 2084TIP3    H127743   2.979   2.092   1.074  2.0547  0.5881 -1.0556
 2084TIP3    H227744   2.870   2.064   0.973 -0.5943 -0.5968  1.9502
 2085TIP3   OH227745   1.697   2.253   1.845 -0.0304 -0.0242 -0.2539
 2085TIP3    H127746   1.789   2.226   1.846  0.4502  1.5202 -0.7208
 2085TIP3    H227747   1.691   2.322   1.911 -0.9425 -0.3575  0.0248
 2086TIP3   OH227748   6.578   0.918   5.882 -0.3533  0.0677 -0.2062
 2086TIP3    H127749   6.623   0.863   5.946  1.9317 -1.7372 -3.1025
 2086TIP3    H227750   6.509   0.861   5.847 -0.2307  0.2948 -0.8176
 2087TIP3   OH227751   5.375   3.415   5.905  0.1816 -0.3703 -0.1542
 2087TIP3    H127752   5.306   3.419   5.838  1.1267  0.9587 -1.0993
 2087TIP3    H227753   5.382   3.322   5.926 -1.0212 -0.6723 -0.9557
 2088TIP3   OH227754   2.855   6.245   4.629  0.3060 -0.2863 -0.1293
 2088TIP3    H127755   2.887   6.237   4.719  0.0403  0.9379  0.0892
 2088TIP3    H227756   2.805   6.326   4.628  0.4816 -0.1689 -1.4432
 2089TIP3   OH227757   3.595   4.374   4.440 -0.2197  0.5007  0.5565
 2089TIP3    H127758   3.664   4.422   4.486  1.1831 -0.2268 -0.7130
 2089TIP3    H227759   3.612   4.389   4.347 -2.7298  1.5843  0.1930
 2090TIP3   OH227760   5.130   2.292  16.920 -0.4275  0.4403  1.1661
 2090TIP3    H127761   5.151   2.215  16.868  0.3077  0.0510  2.0240
 2090TIP3    H227762   5.200   2.298  16.984 -1.0005  1.2619  1.7362
 2091TIP3   OH227763   1.967   0.434  15.869 -0.0430 -0.0828  0.2966
 2091TIP3    H127764   2.021   0.492  15.923 -3.1479  0.0485  3.6523
 2091TIP3    H227765   1.945   0.486  15.792  2.5530  0.6566 -0.0475
 2092TIP3   OH227766   6.467   1.308  14.851  0.0939 -0.1451  0.1845
 2092TIP3    H127767   6.428   1.247  14.789  2.2905 -3.4237  1.7160
 2092TIP3    H227768   6.415   1.299  14.931 -0.7475  1.5758 -0.1221
 2093TIP3   OH227769   1.497   5.924   2.995 -0.1672 -0.2970  0.4044
 2093TIP3    H127770   1.548   5.857   3.040  1.3999  0.0014 -0.8438
 2093TIP3    H227771   1.562   5.983   2.957 -1.4414  2.4110  2.0404
 2094TIP3   OH227772   0.793   4.576  12.909 -0.1400  0.3607  0.0358
 2094TIP3    H127773   0.750   4.593  12.992  1.7345  2.4629  0.6711
 2094TIP3    H227774   0.858   4.508  12.930 -1.6020 -1.2834 -0.4625
 2095TIP3   OH227775   2.287   6.590  16.334 -0.1213 -0.2068  0.4667
 2095TIP3    H127776   2.309   6.594  16.427 -1.0039 -1.7308  0.7808
 2095TIP3    H227777   2.274   6.496  16.316 -0.4656  0.0989 -1.0682
 2096TIP3   OH227778   4.027   2.156  14.318 -0.0094  0.1240  0.2184
 2096TIP3    H127779   4.039   2.232  14.262 -0.1549  0.0061  0.0279
 2096TIP3    H227780   3.936   2.131  14.306 -0.0546  0.1234  0.5400
 2097TIP3   OH227781   3.171   6.747  12.655 -0.3153  0.0085  0.4426
 2097TIP3    H127782   3.239   6.805  12.688 -0.2174  0.1666 -0.0357
 2097TIP3    H227783   3.211   6.703  12.580  0.1873 -1.9028  1.7598
 2098TIP3   OH227784   3.782   6.682   4.532  0.1672 -0.6520  0.0393
 2098TIP3    H127785   3.863   6.726   4.506  0.1087  1.6710  3.2889
 2098TIP3    H227786   3.805   6.631   4.609 -0.7174 -3.2688 -1.2809
 2099TIP3   OH227787   3.636   1.704   0.216  0.5698  0.7540  0.2341
 2099TIP3    H127788   3.619   1.639   0.148 -0.2796  0.8349  0.3592
 2099TIP3    H227789   3.624   1.657   0.298  0.7510  0.8703  0.3282
 2100TIP3   OH227790   1.910   3.305  14.242 -0.5465  0.3765  0.1384
 2100TIP3    H127791   1.995   3.317  14.200 -2.3616  2.9450 -3.3632
 2100TIP3    H227792   1.911   3.365  14.317  0.8207  0.1163  0.3477
 2101TIP3   OH227793   5.029   5.341  15.476 -0.1496  0.0608 -0.4589
 2101TIP3    H127794   5.067   5.428  15.461  0.1843 -0.2619 -1.6143
 2101TIP3    H227795   5.101   5.289  15.512 -0.3357  0.2535  0.1872
 2102TIP3   OH227796   2.661   2.290   6.267 -0.4754  0.3283 -0.1915
 2102TIP3    H127797   2.675   2.303   6.173 -0.2596  0.9431 -0.0816
 2102TIP3    H227798   2.632   2.376   6.298 -0.8561  0.0411  0.2456
 2103TIP3   OH227799   6.227   6.191  14.545 -0.3890  0.2160 -0.3948
 2103TIP3    H127800   6.289   6.188  14.617 -2.1335  0.3802  1.1696
 2103TIP3    H227801   6.238   6.279  14.507 -0.4466  0.6574  0.5895
 2104TIP3   OH227802   3.456   3.092   6.167 -0.1505  0.8685  0.0291
 2104TIP3    H127803   3.393   3.163   6.170  0.7686  1.6922  0.1262
 2104TIP3    H227804   3.469   3.074   6.074 -1.5796 -0.2843  0.0150
 2105TIP3   OH227805   5.582   0.213   1.491  0.2028  0.2068 -0.5049
 2105TIP3    H127806   5.549   0.288   1.540  0.4399  0.6620 -1.0352
 2105TIP3    H227807   5.616   0.153   1.558 -1.3521 -0.1269  0.0435
 2106TIP3   OH227808   6.439   5.145   2.165 -0.2870  0.1731  0.7736
 2106TIP3    H127809   6.529   5.149   2.196  0.3009 -0.0149 -0.8471
 2106TIP3    H227810   6.417   5.052   2.165  0.4268 -0.0420 -1.2294
 2107TIP3   OH227811   6.030   5.072   4.132 -0.6397 -0.3516  0.2040
 2107TIP3    H127812   6.028   5.074   4.036  0.1180 -1.3778  0.1472
 2107TIP3    H227813   6.093   5.139   4.156 -1.6215  0.6546  0.0479
 2108TIP3   OH227814   1.985   5.603   2.361  0.4363 -0.2945 -0.0946
 2108TIP3    H127815   2.059   5.561   2.404 -0.7530 -0.6299  1.7271
 2108TIP3    H227816   1.960   5.674   2.421 -0.7160 -0.1947 -0.6634
 2109TIP3   OH227817   4.991   5.197   4.005 -0.2520  0.5387 -0.0778
 2109TIP3    H127818   5.015   5.219   4.095 -2.1519  0.2348  0.5490
 2109TIP3    H227819   5.011   5.277   3.955  2.1231  0.2613  0.2874
 2110TIP3   OH227820   0.558   3.209   4.356 -0.0828  0.1855  0.0920
 2110TIP3    H127821   0.513   3.221   4.272  2.1578  1.5080 -1.0357
 2110TIP3    H227822   0.631   3.271   4.352  0.7660 -0.5578  2.5507
 2111TIP3   OH227823   3.503   5.409   6.256  0.3305  0.1876  0.0933
 2111TIP3    H127824   3.412   5.438   6.255  0.7336  1.5077 -1.3726
 2111TIP3    H227825   3.554   5.487   6.276  1.2891  0.0258 -1.5708
 2112TIP3   OH227826   5.299   5.411   3.587 -0.7163 -0.2452  0.0618
 2112TIP3    H127827   5.334   5.471   3.653 -1.5179  0.2110  0.0851
 2112TIP3    H227828   5.310   5.458   3.504  1.9175 -1.5167 -0.4208
 2113TIP3   OH227829   2.403   6.636   0.176 -0.3299 -0.2804  0.6953
 2113TIP3    H127830   2.385   6.582   0.253  0.7741 -1.4027  0.2099
 2113TIP3    H227831   2.499   6.643   0.174 -0.2212 -1.4576 -1.3074
 2114TIP3   OH227832   3.941   1.268   5.260  0.0477  0.0160  0.2581
 2114TIP3    H127833   3.963   1.342   5.316 -0.9637  0.1124  0.5653
 2114TIP3    H227834   3.973   1.192   5.308  0.7607  0.2251  0.1186
 2115TIP3   OH227835   4.841   4.722  11.071  0.4670  0.4311  0.6729
 2115TIP3    H127836   4.847   4.756  10.982 -1.4145  1.0392  0.7325
 2115TIP3    H227837   4.780   4.781  11.115  0.4582 -0.5477  2.0248
 2116TIP3   OH227838   4.981   4.827  16.181 -0.5343  0.1562  0.1548
 2116TIP3    H127839   4.998   4.752  16.123  0.2458  0.5190 -0.0990
 2116TIP3    H227840   4.891   4.814  16.211 -0.4118 -0.8868  0.1114
 2117TIP3   OH227841   6.644   1.112   2.336  0.0671 -0.3672 -0.6008
 2117TIP3    H127842   6.702   1.081   2.267 -1.3768 -3.1842 -0.6998
 2117TIP3    H227843   6.638   1.039   2.398 -1.2083  0.8574  0.8163
 2118TIP3   OH227844   2.565   2.101   5.054  0.0088 -0.3779  0.0660
 2118TIP3    H127845   2.592   2.034   4.991 -0.6321 -0.8182  0.2535
 2118TIP3    H227846   2.590   2.184   5.013  0.9099 -0.7282 -0.1173
 2119TIP3   OH227847   3.404   4.761   3.393  0.3639  0.0193  0.2134
 2119TIP3    H127848   3.336   4.758   3.326  1.3963 -0.9179 -0.8432
 2119TIP3    H227849   3.356   4.764   3.476 -0.9401  2.0586 -0.5416
 2120TIP3   OH227850   6.692   2.001   0.632 -0.1064  0.3054  0.1554
 2120TIP3    H127851   6.703   2.081   0.580 -2.4407 -1.0053 -2.6686
 2120TIP3    H227852   6.598   1.998   0.651  0.3130 -0.5952  2.3839
 2121TIP3   OH227853   5.864   3.344   1.003 -0.0788 -0.2423  0.1260
 2121TIP3    H127854   5.826   3.258   1.022  2.9722 -1.4890  1.2102
 2121TIP3    H227855   5.959   3.329   1.002  0.5119  2.6675 -2.1354
 2122TIP3   OH227856   2.216   4.673   6.094  0.0244  0.3838  0.6802
 2122TIP3    H127857   2.146   4.627   6.140  0.1889  0.5937  1.1509
 2122TIP3    H227858   2.197   4.661   6.001  0.4587 -1.2493  0.7734
 2123TIP3   OH227859   4.869   1.577   1.444 -0.1029 -0.8338  0.4739
 2123TIP3    H127860   4.843   1.636   1.515 -0.5208  0.2538 -0.5609
 2123TIP3    H227861   4.886   1.634   1.370  0.8603 -1.9182 -0.1621
 2124TIP3   OH227862   1.198   0.007   5.850  0.2835  0.4751  0.7794
 2124TIP3    H127863   1.135   0.018   5.921 -0.3123 -1.4039  0.5963
 2124TIP3    H227864   1.162  -0.064   5.797  1.2080  1.1815 -0.8684
 2125TIP3   OH227865   4.366   2.446   5.974  0.3170 -0.5323  0.0113
 2125TIP3    H127866   4.295   2.508   5.994  1.2153  0.3279  0.6657
 2125TIP3    H227867   4.360   2.433   5.879 -1.4739 -1.4680  0.2035
 2126TIP3   OH227868   6.057   6.009  16.393  0.2948  0.3190 -0.3658
 2126TIP3    H127869   6.138   6.059  16.407  1.0126 -0.5768 -1.2045
 2126TIP3    H227870   6.075   5.923  16.431  0.7733 -0.7825 -2.8704
 2127TIP3   OH227871   1.985   2.326   1.247 -0.5099  0.7120 -0.1044
 2127TIP3    H127872   1.932   2.266   1.299  0.5052  1.1299  1.5162
 2127TIP3    H227873   2.060   2.346   1.304  0.3979  1.6150 -1.5570
 2128TIP3   OH227874   1.244   3.730   2.498 -0.2151 -0.1690 -0.2730
 2128TIP3    H127875   1.300   3.808   2.504  0.1529 -0.2277 -2.1985
 2128TIP3    H227876   1.165   3.753   2.547 -0.4655  1.7514 -1.4592
 2129TIP3   OH227877   3.352   4.197   4.079  0.6215  0.8741  0.4769
 2129TIP3    H127878   3.306   4.228   4.157 -0.4679  0.0687  0.1849
 2129TIP3    H227879   3.392   4.114   4.106  1.4650  1.3072  0.5770
 2130TIP3   OH227880   6.533   4.277  12.187 -0.3685  0.5424  0.1903
 2130TIP3    H127881   6.485   4.195  12.179  0.0071  0.3324  0.1162
 2130TIP3    H227882   6.471   4.337  12.229 -0.7491  0.3134 -0.0420
 2131TIP3   OH227883   1.618   0.744  11.729  0.4043 -0.1995  0.1366
 2131TIP3    H127884   1.552   0.811  11.749  1.4016  0.6548  0.6660
 2131TIP3    H227885   1.617   0.686  11.805 -0.5775 -0.9146 -0.3946
 2132TIP3   OH227886   0.936   2.836   0.993 -0.1464  0.0451 -0.2733
 2132TIP3    H127887   0.853   2.797   0.968  0.4561  0.0079 -2.3878
 2132TIP3    H227888   0.971   2.778   1.061 -1.4623 -0.3568  0.0858
 2133TIP3   OH227889   4.870   6.239   0.867  0.0170 -0.3104 -0.3430
 2133TIP3    H127890   4.914   6.168   0.913 -0.9752 -1.5046 -1.1928
 2133TIP3    H227891   4.814   6.280   0.934  0.1748 -0.6726  0.0127
 2134TIP3   OH227892   5.646   2.512   6.254  0.2969 -0.0530  0.4091
 2134TIP3    H127893   5.711   2.573   6.289  0.1800 -0.3889  1.2298
 2134TIP3    H227894   5.572   2.517   6.315 -0.2229 -0.1019 -0.1972
 2135TIP3   OH227895   6.417   1.876   0.736 -0.3685 -0.0856 -0.3158
 2135TIP3    H127896   6.443   1.785   0.718  1.3264  0.1183  0.9099
 2135TIP3    H227897   6.417   1.883   0.831 -0.0048  1.3317 -0.3988
 2136TIP3   OH227898   0.105   4.113   5.222  1.1316 -0.2593 -0.0636
 2136TIP3    H127899   0.151   4.195   5.207 -0.2668  0.4010 -0.9355
 2136TIP3    H227900   0.043   4.106   5.149 -0.8035 -0.6250  1.5454
 2137TIP3   OH227901   0.042   4.178  16.952  0.0352  0.1480 -0.7504
 2137TIP3    H127902  -0.049   4.175  16.982  0.1984 -1.5710 -0.3310
 2137TIP3    H227903   0.036   4.208  16.861 -1.1859 -1.8807 -1.4088
 2138TIP3   OH227904   0.563   1.149  12.583 -0.1897 -0.0988  0.0690
 2138TIP3    H127905   0.596   1.093  12.653  0.1692 -0.8806 -0.7005
 2138TIP3    H227906   0.472   1.168  12.607  0.7759  2.2388  2.3147
 2139TIP3   OH227907   5.641   2.725   0.741 -0.2281 -0.4873  0.2910
 2139TIP3    H127908   5.563   2.779   0.746 -0.6301 -1.0453  0.1239
 2139TIP3    H227909   5.609   2.635   0.740  0.4127 -0.7257  0.1836
 2140TIP3   OH227910   4.099   6.354   4.231  0.0763 -0.2898 -0.5221
 2140TIP3    H127911   4.069   6.288   4.169 -1.1577  0.4883 -0.7823
 2140TIP3    H227912   4.187   6.376   4.201  0.1138 -1.0920 -1.0245
 2141TIP3   OH227913   1.397   3.544   4.701 -0.1306  0.2434 -0.4018
 2141TIP3    H127914   1.382   3.551   4.607 -2.4976 -0.5488 -0.1270
 2141TIP3    H227915   1.310   3.546   4.740  0.8078  1.0284  1.8377
 2142TIP3   OH227916   1.315   2.921  15.796  0.1893  0.1442  0.5193
 2142TIP3    H127917   1.360   2.990  15.749  1.8624  0.7999  2.8611
 2142TIP3    H227918   1.385   2.862  15.825 -0.8605 -0.8184  1.2175
 2143TIP3   OH227919   3.048   2.432   3.754 -0.8033 -0.6780  0.4246
 2143TIP3    H127920   2.967   2.428   3.805 -1.7652 -0.0116 -1.0079
 2143TIP3    H227921   3.113   2.467   3.815 -1.9418  0.2025  1.1693
 2144TIP3   OH227922   0.899   1.515  12.570  0.0930 -0.0714 -0.1564
 2144TIP3    H127923   0.892   1.473  12.484 -2.4948 -0.5931  0.2176
 2144TIP3    H227924   0.900   1.442  12.632 -0.5076  0.3442  0.3496
 2145TIP3   OH227925   1.421   3.149  17.169 -0.1646  0.1306  0.0884
 2145TIP3    H127926   1.480   3.148  17.094 -1.2116  2.0160 -0.8225
 2145TIP3    H227927   1.479   3.156  17.245  0.8429 -0.0827 -0.6353
 2146TIP3   OH227928   1.066   0.692   5.158  0.0048  0.0419  0.0746
 2146TIP3    H127929   1.082   0.611   5.110 -0.5344  0.0862 -0.1936
 2146TIP3    H227930   0.970   0.697   5.165  0.0417  0.5469  0.2690
 2147TIP3   OH227931   5.656   1.389   3.175  0.3317  0.3280 -0.0012
 2147TIP3    H127932   5.604   1.323   3.220  1.8759 -0.3785  0.8424
 2147TIP3    H227933   5.593   1.457   3.151 -1.2113 -1.1728 -0.3962
 2148TIP3   OH227934   5.049   4.249   0.641  0.9124  0.2492 -0.3041
 2148TIP3    H127935   5.137   4.210   0.638  0.9026  0.1343  0.6151
 2148TIP3    H227936   5.057   4.318   0.708  0.3303  0.3005 -0.2900
 2149TIP3   OH227937   2.249   6.599  15.072 -0.2946  0.1506  0.5805
 2149TIP3    H127938   2.341   6.625  15.076 -0.4146  1.1137 -1.6038
 2149TIP3    H227939   2.202   6.671  15.115 -0.2619  1.6485 -1.6727
 2150TIP3   OH227940   1.875   1.543  11.383 -0.5574  0.3981  0.2937
 2150TIP3    H127941   1.894   1.469  11.441  1.0313 -0.8043 -1.6182
 2150TIP3    H227942   1.954   1.597  11.387 -0.8392  0.8312  0.0242
 2151TIP3   OH227943   0.964   0.547  11.595  0.6929  0.5972  0.0082
 2151TIP3    H127944   0.977   0.527  11.502  1.3964 -1.3115  0.4621
 2151TIP3    H227945   0.905   0.478  11.626  2.3996 -0.2698  1.4836
 2152TIP3   OH227946   2.673   3.288  11.090  0.6945 -0.8882  0.2710
 2152TIP3    H127947   2.744   3.351  11.101 -0.8375  0.8552  0.6200
 2152TIP3    H227948   2.619   3.298  11.169 -1.0963 -0.6050 -0.9321
 2153TIP3   OH227949   2.947   0.981  16.613 -0.0464 -0.0204 -0.4841
 2153TIP3    H127950   2.879   0.941  16.667 -1.0335  1.2921 -0.6839
 2153TIP3    H227951   2.989   0.908  16.569  0.4519 -1.0926  1.6315
 2154TIP3   OH227952   0.135   4.646  10.343  0.0967  0.7496 -0.0267
 2154TIP3    H127953   0.171   4.707  10.278  1.6354  0.3768  0.4265
 2154TIP3    H227954   0.112   4.568  10.292  1.2501  0.4751 -0.1660
 2155TIP3   OH227955   5.963   3.768  11.685  0.1476  0.6187  0.1672
 2155TIP3    H127956   6.017   3.689  11.685  0.0357  0.5259 -0.6006
 2155TIP3    H227957   5.878   3.738  11.652 -0.0308  0.9707  0.3077
 2156TIP3   OH227958   2.288   5.618   0.900 -0.1054 -0.1663  0.0623
 2156TIP3    H127959   2.231   5.606   0.824  0.0931 -0.3823 -0.0540
 2156TIP3    H227960   2.228   5.624   0.975 -0.3134  0.2316 -0.1280
 2157TIP3   OH227961   2.095   0.492   2.892  0.4338  0.4018 -0.1504
 2157TIP3    H127962   2.007   0.459   2.871 -0.1022  1.5500  0.2048
 2157TIP3    H227963   2.142   0.490   2.809  0.3523 -1.0129 -0.1852
 2158TIP3   OH227964   1.759   1.760   5.716 -0.0775  0.0512  0.3036
 2158TIP3    H127965   1.754   1.710   5.797 -2.6812 -1.6026 -0.7223
 2158TIP3    H227966   1.821   1.711   5.661  1.1514  0.7838  1.0039
 2159TIP3   OH227967   2.828   5.848   2.862  0.4721  0.0034  0.2848
 2159TIP3    H127968   2.785   5.920   2.908  0.4369 -0.0110  0.2747
 2159TIP3    H227969   2.906   5.888   2.822  0.9019 -0.1352  0.9594
 2160TIP3   OH227970   4.659   0.731  11.401 -0.7219  0.6394 -0.0360
 2160TIP3    H127971   4.741   0.768  11.367 -0.7255  0.7014  0.0226
 2160TIP3    H227972   4.667   0.637  11.384  0.3794  0.3057  2.0364
 2161TIP3   OH227973   5.198   3.028   4.865 -0.3986  0.0047 -0.0298
 2161TIP3    H127974   5.120   3.081   4.851  0.4270  1.0650 -0.7511
 2161TIP3    H227975   5.256   3.084   4.916  0.9833  0.3210 -1.8511
 2162TIP3   OH227976   0.410   1.862   1.503 -0.5421  0.0206 -0.0577
 2162TIP3    H127977   0.457   1.924   1.447  0.1651  1.2019  1.7817
 2162TIP3    H227978   0.319   1.891   1.499 -0.9126 -1.1712 -2.1645
 2163TIP3   OH227979   4.017   4.420  14.292  0.3948 -0.5033 -0.6209
 2163TIP3    H127980   4.008   4.348  14.353  0.1197 -1.0632 -1.3151
 2163TIP3    H227981   4.025   4.379  14.206 -0.2920  0.3015 -1.0851
 2164TIP3   OH227982   4.890   3.222   5.256  0.3073 -0.1737  0.8115
 2164TIP3    H127983   4.950   3.149   5.269  2.0939  0.7418 -1.5898
 2164TIP3    H227984   4.943   3.290   5.214 -2.1432  1.1386 -0.3814
 2165TIP3   OH227985   3.136   6.703   3.479  0.2516 -0.4403 -0.2651
 2165TIP3    H127986   3.182   6.681   3.398  0.7927 -0.7834  0.1301
 2165TIP3    H227987   3.182   6.653   3.547 -1.7162 -2.0947 -0.0650
 2166TIP3   OH227988   2.206   0.262   1.237  0.1657 -0.2018  0.3588
 2166TIP3    H127989   2.222   0.273   1.144 -1.5895 -2.7843 -0.3677
 2166TIP3    H227990   2.286   0.293   1.279  0.2030  3.0350 -1.7671
 2167TIP3   OH227991   6.690   4.140  14.827  0.1835 -0.5568 -0.3834
 2167TIP3    H127992   6.629   4.168  14.895  1.6302  1.3512  0.1992
 2167TIP3    H227993   6.640   4.149  14.745 -0.2274  1.3855  0.0350
 2168TIP3   OH227994   6.710   4.648   0.611  0.0250  0.3808 -0.3365
 2168TIP3    H127995   6.629   4.646   0.662  0.2551 -1.0623  0.0122
 2168TIP3    H227996   6.681   4.672   0.522 -0.5719  1.3228  0.0898
 2169TIP3   OH227997   2.114   0.052   2.330  0.1046  0.5827 -0.2277
 2169TIP3    H127998   2.060  -0.022   2.356 -0.6816  0.8360 -1.0807
 2169TIP3    H227999   2.168   0.020   2.259  0.4405  0.5778  0.0264
 2170TIP3   OH228000   5.977   4.948   3.884 -0.5562  0.3515  0.2674
 2170TIP3    H128001   5.886   4.926   3.903 -0.1413 -0.0461  1.9650
 2170TIP3    H228002   6.009   4.874   3.832 -1.7172  1.4575 -2.2393
 2171TIP3   OH228003   6.766   6.713  15.935 -0.2597  0.0584  0.0136
 2171TIP3    H128004   6.704   6.781  15.962  0.6441  2.6036 -3.5793
 2171TIP3    H228005   6.823   6.701  16.012 -2.0533  1.3789  1.6519
 2172TIP3   OH228006   6.436   3.554  12.917 -0.0836  0.6016 -0.4639
 2172TIP3    H128007   6.415   3.460  12.914 -0.1296  0.6367 -1.6026
 2172TIP3    H228008   6.363   3.596  12.872  0.2249  1.1437 -0.4595
 2173TIP3   OH228009   2.462   0.757   4.207 -0.1477 -0.0707  0.4532
 2173TIP3    H128010   2.503   0.679   4.171 -1.8896 -0.3249 -1.1266
 2173TIP3    H228011   2.387   0.774   4.149  0.1416  2.7425  0.7676
 2174TIP3   OH228012   0.995   3.135  11.892  0.4892 -0.1128  0.5866
 2174TIP3    H128013   1.057   3.202  11.865  0.3288  0.2280  1.0475
 2174TIP3    H228014   1.045   3.078  11.951  0.0452  0.9066  2.0002
 2175TIP3   OH228015   0.144   3.316  16.219  0.3201  0.0656  0.0959
 2175TIP3    H128016   0.209   3.291  16.286  0.6998 -0.2679 -0.3903
 2175TIP3    H228017   0.118   3.405  16.243 -0.9226 -0.6861  1.7638
 2176TIP3   OH228018   4.680   6.030  16.852 -0.6196 -0.2796  0.6430
 2176TIP3    H128019   4.615   6.021  16.781 -0.3730 -0.0813  0.3902
 2176TIP3    H228020   4.674   5.947  16.899  0.0488 -0.9120 -0.3333
 2177TIP3   OH228021   4.377   6.737  12.790  0.1486 -0.4147 -0.1651
 2177TIP3    H128022   4.375   6.644  12.768 -1.8871  0.0925 -2.5311
 2177TIP3    H228023   4.446   6.773  12.734 -0.5602 -0.1903 -0.9206
 2178TIP3   OH228024   1.544   4.891   4.925  0.1502  0.9572 -0.2502
 2178TIP3    H128025   1.559   4.862   4.835 -1.4636 -1.1510  0.0808
 2178TIP3    H228026   1.592   4.828   4.979  1.6048  2.5546  0.4090
 2179TIP3   OH228027   5.626   2.989  14.183  0.5211 -0.8096 -0.3392
 2179TIP3    H128028   5.714   2.956  14.162  0.3320  0.0189 -2.7631
 2179TIP3    H228029   5.567   2.920  14.155  0.3135 -0.1427 -1.6597
 2180TIP3   OH228030   1.909   1.428   5.702 -0.1747  0.4265 -0.0405
 2180TIP3    H128031   1.891   1.482   5.779  0.6448  0.3912  0.1924
 2180TIP3    H228032   1.891   1.486   5.627 -0.4302  0.6443  0.1875
 2181TIP3   OH228033   1.208   5.830  11.760  0.5419  0.0233  0.2239
 2181TIP3    H128034   1.126   5.865  11.726  0.1979 -0.9547  0.0285
 2181TIP3    H228035   1.185   5.795  11.846  0.2009 -2.3171 -0.7413
 2182TIP3   OH228036   1.549   5.264  11.809 -0.0069  0.0749 -0.1856
 2182TIP3    H128037   1.553   5.231  11.719  0.4471  0.0489 -0.1547
 2182TIP3    H228038   1.638   5.255  11.843  0.2395  1.7303 -0.3174
 2183TIP3   OH228039   0.102   4.097  15.061  0.0461 -0.1248 -0.6696
 2183TIP3    H128040   0.162   4.162  15.025 -0.5357 -0.1407 -1.7118
 2183TIP3    H228041   0.061   4.142  15.136  1.1623 -0.0447 -0.0826
 2184TIP3   OH228042   5.439   1.246   3.299  0.1014  0.0727 -0.3967
 2184TIP3    H128043   5.480   1.268   3.382 -0.2679  1.9037 -0.6712
 2184TIP3    H228044   5.348   1.271   3.309 -0.1427 -0.4990 -1.0661
 2185TIP3   OH228045   0.652   1.251   3.597  0.2236 -0.5773 -0.3769
 2185TIP3    H128046   0.641   1.324   3.657  0.2861 -1.1725  0.3848
 2185TIP3    H228047   0.717   1.281   3.533 -0.6196  0.4443 -0.7852
 2186TIP3   OH228048   5.621   2.915  12.051 -0.1086 -0.0203  0.2444
 2186TIP3    H128049   5.543   2.887  12.098 -0.6658  1.5242  0.3007
 2186TIP3    H228050   5.658   2.834  12.015 -1.1219 -0.9030  1.1278
 2187TIP3   OH228051   3.871   3.537   5.256 -0.5416 -0.0904  0.5233
 2187TIP3    H128052   3.932   3.605   5.285  1.4191 -1.1912 -0.7973
 2187TIP3    H228053   3.828   3.574   5.179 -1.4616  0.6127  1.3441
 2188TIP3   OH228054   3.876   0.113  11.351 -0.1497 -0.2433 -0.4740
 2188TIP3    H128055   3.878   0.193  11.299 -1.3458  0.9252  1.1711
 2188TIP3    H228056   3.962   0.110  11.395  0.3541 -0.5368 -1.4526
 2189TIP3   OH228057   2.359   0.387   2.789 -0.6229 -0.3958  0.3344
 2189TIP3    H128058   2.441   0.384   2.839 -0.8557  1.1836  0.8573
 2189TIP3    H228059   2.370   0.460   2.729 -0.7392 -1.6754 -1.3036
 2190TIP3   OH228060   2.193   6.197   5.551  0.7312  0.4109  1.4164
 2190TIP3    H128061   2.253   6.128   5.577  1.0152  0.1219  0.0693
 2190TIP3    H228062   2.111   6.175   5.596  0.8935 -0.6581  1.2209
 2191TIP3   OH228063   6.353   3.928   2.778  0.4945  0.3805  0.5214
 2191TIP3    H128064   6.397   3.974   2.707 -0.1912 -0.0537 -0.2024
 2191TIP3    H228065   6.386   3.838   2.772 -1.6126 -0.3790 -1.0728
 2192TIP3   OH228066   4.918   2.823  14.582  0.2662  0.2750 -0.0237
 2192TIP3    H128067   4.861   2.786  14.515  0.7532  1.0427 -0.8928
 2192TIP3    H228068   4.887   2.913  14.592 -0.1792 -0.0004  1.2332
 2193TIP3   OH228069   2.825   2.722   3.220 -0.4119 -0.4890  0.4725
 2193TIP3    H128070   2.901   2.778   3.207  0.3339 -1.0740  1.9983
 2193TIP3    H228071   2.838   2.648   3.160  0.2784 -0.6198  0.7777
 2194TIP3   OH228072   5.133   3.269   6.112  0.4157 -0.0637 -0.2907
 2194TIP3    H128073   5.079   3.194   6.139 -1.6480  2.1146  2.1904
 2194TIP3    H228074   5.192   3.283   6.185  2.5643 -0.6881 -1.8129
 2195TIP3   OH228075   0.606   4.880   2.406  0.0528  0.3127  0.2017
 2195TIP3    H128076   0.627   4.801   2.457  0.6241 -0.4860 -1.2157
 2195TIP3    H228077   0.554   4.934   2.466  1.5455 -0.1229  1.9753
 2196TIP3   OH228078   1.949   4.470   2.930  0.0199 -0.5312  0.2270
 2196TIP3    H128079   1.979   4.472   3.020 -0.0388 -1.9372  0.2999
 2196TIP3    H228080   1.857   4.445   2.935 -0.5163  1.2064 -0.1450
 2197TIP3   OH228081   0.595   3.998   3.012 -0.4340 -0.0128  0.0436
 2197TIP3    H128082   0.578   3.906   2.990 -1.5228  0.3542 -0.7004
 2197TIP3    H228083   0.597   4.043   2.928  1.4305  0.4685  0.2966
 2198TIP3   OH228084   1.014   5.371   0.566 -0.1343 -0.2147 -0.1840
 2198TIP3    H128085   0.995   5.464   0.559 -1.1821 -0.5015 -1.6313
 2198TIP3    H228086   1.007   5.352   0.660  0.9558  1.3017  0.2368
 2199TIP3   OH228087   3.956   0.972  16.594  0.0332  0.4549  0.3020
 2199TIP3    H128088   3.884   0.975  16.657  1.8151  0.3904  2.4554
 2199TIP3    H228089   3.989   1.061  16.590  0.8739  0.1663  0.6213
 2200TIP3   OH228090   5.607   2.704  12.250  0.4684  0.0242 -0.0094
 2200TIP3    H128091   5.697   2.676  12.239 -0.1903 -1.9274 -0.9905
 2200TIP3    H228092   5.563   2.675  12.169 -1.2019  0.1096  0.8186
 2201TIP3   OH228093   0.365   1.339   3.037  0.0329 -0.4907  0.1463
 2201TIP3    H128094   0.458   1.330   3.013  0.3951  0.5869  1.0162
 2201TIP3    H228095   0.350   1.269   3.101  0.4564 -0.2275  0.5433
 2202TIP3   OH228096   6.784   3.166  13.579  0.5525 -0.5503 -0.2850
 2202TIP3    H128097   6.776   3.120  13.662  0.0449 -0.6360 -0.3802
 2202TIP3    H228098   6.754   3.255  13.598  0.5120 -0.5482 -0.3583
 2203TIP3   OH228099   0.610   2.293  12.518 -0.1137  0.1190  0.3011
 2203TIP3    H128100   0.651   2.254  12.596 -0.7522  0.3080  0.7364
 2203TIP3    H228101   0.648   2.380  12.512 -1.1248  0.6473  1.2516
 2204TIP3   OH228102   4.278   2.516   0.345 -0.1766 -0.6736  0.1464
 2204TIP3    H128103   4.266   2.431   0.304  0.4710 -1.7377  2.0527
 2204TIP3    H228104   4.373   2.528   0.348 -0.2529  0.8799 -1.4905
 2205TIP3   OH228105   3.177   1.183  12.640  0.4113  0.7724  0.1859
 2205TIP3    H128106   3.085   1.184  12.614  0.6143  2.4343 -0.5938
 2205TIP3    H228107   3.176   1.198  12.735 -0.1317 -0.0083  0.3122
 2206TIP3   OH228108   5.492   1.080  16.454  0.8994 -0.0860  0.0510
 2206TIP3    H128109   5.543   1.000  16.462  1.0487  0.0510  0.4765
 2206TIP3    H228110   5.503   1.124  16.538 -2.2054 -1.4035  1.3065
 2207TIP3   OH228111   2.893   1.225  16.165  0.0855 -0.0776  0.1764
 2207TIP3    H128112   2.799   1.240  16.175  0.0504  1.2948 -1.5815
 2207TIP3    H228113   2.934   1.297  16.213  0.2118 -0.2072  0.2639
 2208TIP3   OH228114   2.760   0.928   1.409 -0.1130  0.0092 -0.2581
 2208TIP3    H128115   2.709   0.855   1.375 -0.0917  0.0083 -0.2879
 2208TIP3    H228116   2.779   0.982   1.332  0.5488 -0.3618 -0.3612
 2209TIP3   OH228117   1.337   5.064  13.530 -0.0577 -0.0343  0.1998
 2209TIP3    H128118   1.352   4.976  13.495  0.9128  0.4803 -0.7479
 2209TIP3    H228119   1.291   5.111  13.460 -0.1599  0.3479  0.5169
 2210TIP3   OH228120   6.240   1.527   3.640 -0.0651 -0.1033 -0.0677
 2210TIP3    H128121   6.163   1.529   3.697  0.0667 -0.6076  0.1347
 2210TIP3    H228122   6.205   1.512   3.552 -0.2738  0.7290 -0.1399
 2211TIP3   OH228123   5.405   4.660   1.721  0.1696  1.1118  0.6064
 2211TIP3    H128124   5.500   4.659   1.708  0.3127  0.0533  1.6018
 2211TIP3    H228125   5.387   4.580   1.770 -1.4531  0.4795 -0.9333
 2212TIP3   OH228126   3.697   6.734   0.334  0.4087 -0.2239 -0.1039
 2212TIP3    H128127   3.708   6.673   0.261 -1.5313  0.3252 -0.9090
 2212TIP3    H228128   3.696   6.821   0.292 -1.6290  0.0473  0.4014
 2213TIP3   OH228129   4.638   3.344  10.411  0.0506 -0.8094  0.3922
 2213TIP3    H128130   4.661   3.382  10.496  1.4411 -1.3056  0.2517
 2213TIP3    H228131   4.679   3.402  10.347 -0.5214 -0.7588  0.0601
 2214TIP3   OH228132   1.953   3.640   0.718 -0.0043  0.2402  0.2209
 2214TIP3    H128133   1.974   3.572   0.782  0.8424 -0.1913 -0.5031
 2214TIP3    H228134   2.010   3.714   0.743 -0.4618  0.4635  0.6181
 2215TIP3   OH228135   5.444   0.637  12.174  0.4199 -0.1400 -0.3813
 2215TIP3    H128136   5.418   0.729  12.168 -0.4808 -0.4424 -1.3135
 2215TIP3    H228137   5.362   0.589  12.186  0.9664 -0.7577  1.1274
 2216TIP3   OH228138   1.417   1.094   0.379 -0.1743 -0.7561  0.5341
 2216TIP3    H128139   1.487   1.081   0.315  1.3218  0.7412  1.7824
 2216TIP3    H228140   1.359   1.159   0.339  0.4678 -0.2082  0.4940
 2217TIP3   OH228141   0.825   2.647  12.159 -0.2977 -0.5935 -0.0848
 2217TIP3    H128142   0.910   2.664  12.200 -0.7152 -0.3558  0.7168
 2217TIP3    H228143   0.845   2.597  12.080  0.6542  0.3020 -0.4290
 2218TIP3   OH228144   0.937   5.394   2.268  0.3193 -0.3105  0.0558
 2218TIP3    H128145   0.955   5.467   2.328  0.9285  0.2220 -0.7554
 2218TIP3    H228146   0.929   5.435   2.182 -1.5376 -0.9390 -0.1239
 2219TIP3   OH228147   2.497   4.455   0.477 -0.0493  0.8740 -0.0350
 2219TIP3    H128148   2.493   4.362   0.497 -0.4643  0.3149 -2.4051
 2219TIP3    H228149   2.591   4.474   0.472  0.0676  0.9595  1.8052
 2220TIP3   OH228150   5.008   3.828  11.208 -0.1147 -0.6113 -0.5256
 2220TIP3    H128151   5.006   3.923  11.195  1.8562 -0.6232 -1.2759
 2220TIP3    H228152   5.098   3.810  11.237 -0.4905 -2.2439 -0.2982
 2221TIP3   OH228153   4.182   5.571   1.067 -0.2731 -0.6208  0.1650
 2221TIP3    H128154   4.263   5.536   1.030 -0.2659 -0.1290 -0.3211
 2221TIP3    H228155   4.124   5.579   0.991  0.3410  2.0964 -0.1235
 2222TIP3   OH228156   3.914   0.279  13.868  0.6172 -0.5884 -0.1092
 2222TIP3    H128157   3.908   0.366  13.908  0.0516 -0.8318  0.3393
 2222TIP3    H228158   4.008   0.260  13.867  0.6270 -0.8106  1.6200
 2223TIP3   OH228159   2.118   5.522  12.143 -0.1484 -0.4831  0.2501
 2223TIP3    H128160   2.126   5.518  12.238 -0.1690  0.6728  0.3046
 2223TIP3    H228161   2.208   5.531  12.111 -0.2825  1.2300  0.2847
 2224TIP3   OH228162   1.166   2.301  13.176  0.3537  0.2564  0.4191
 2224TIP3    H128163   1.189   2.392  13.160  2.2238 -0.4740 -1.5419
 2224TIP3    H228164   1.249   2.258  13.195 -0.4217 -1.1517  0.8229
 2225TIP3   OH228165   4.118   1.528   3.494  0.2853 -0.5114 -0.0055
 2225TIP3    H128166   4.178   1.507   3.423 -0.7089  1.1201 -1.4020
 2225TIP3    H228167   4.158   1.603   3.538  0.1351 -0.5243  0.1544
 2226TIP3   OH228168   1.215   2.383   0.361  0.3157 -0.0195  0.1692
 2226TIP3    H128169   1.157   2.365   0.287  1.1602  1.4548 -0.9070
 2226TIP3    H228170   1.159   2.428   0.425  0.0973  0.8637 -0.6112
 2227TIP3   OH228171   2.775   5.891  16.518 -0.2564  0.6461  0.1600
 2227TIP3    H128172   2.794   5.912  16.609 -0.8614  0.6624  0.2805
 2227TIP3    H228173   2.697   5.941  16.497  1.1527  2.4910 -1.0718
 2228TIP3   OH228174   6.053   2.960  13.551  0.7516  0.0842 -0.2351
 2228TIP3    H128175   6.050   2.876  13.595  0.0982  0.1892 -0.0706
 2228TIP3    H228176   5.961   2.980  13.530  1.1093 -0.4860 -2.6152
 2229TIP3   OH228177   5.535   2.645   3.902 -0.1703 -0.0597 -0.0663
 2229TIP3    H128178   5.469   2.631   3.970  0.5199  0.9494  0.8462
 2229TIP3    H228179   5.618   2.621   3.944  0.2525  0.4560 -0.5926
 2230TIP3   OH228180   2.858   2.324  15.027 -0.0201  0.1606 -0.2629
 2230TIP3    H128181   2.805   2.305  14.950  0.4420 -0.7030 -0.3848
 2230TIP3    H228182   2.942   2.281  15.009 -0.2145 -0.8967  1.1221
 2231TIP3   OH228183   0.623   5.119  12.806  0.2624  0.1475  0.1795
 2231TIP3    H128184   0.647   5.141  12.896  0.6122 -1.6609  0.5686
 2231TIP3    H228185   0.706   5.098  12.763 -0.0922 -1.2794  0.1255
 2232TIP3   OH228186   0.317   0.604   0.648  0.1653 -0.0061  0.0481
 2232TIP3    H128187   0.320   0.544   0.573 -1.9232  0.6802 -0.6719
 2232TIP3    H228188   0.250   0.567   0.705  0.0631  0.7260  0.4109
 2233TIP3   OH228189   0.540   2.975  12.380 -0.1123 -0.8016  0.2327
 2233TIP3    H128190   0.575   2.887  12.395  1.8603  0.1502  1.6452
 2233TIP3    H228191   0.604   3.017  12.323  1.4587  1.1238  3.2024
 2234TIP3   OH228192   5.950   4.134  16.468  0.4196  0.1635 -0.7665
 2234TIP3    H128193   5.896   4.182  16.531 -1.6566 -0.7157 -1.7792
 2234TIP3    H228194   6.032   4.182  16.467 -0.6327  2.1496  0.1758
 2235TIP3   OH228195   3.053   2.634  13.253 -0.0550 -0.3342 -0.0672
 2235TIP3    H128196   3.031   2.621  13.161 -0.1480  2.4549 -0.5114
 2235TIP3    H228197   2.970   2.620  13.299  0.0816 -2.1591 -0.3116
 2236TIP3   OH228198   4.294   1.021   5.706 -0.5271 -0.4732  0.5952
 2236TIP3    H128199   4.363   1.077   5.743 -1.4527  0.2183  1.3131
 2236TIP3    H228200   4.283   0.952   5.771 -1.1544 -0.0608  0.9325
 2237TIP3   OH228201   3.889   2.338  11.359 -0.5662 -0.0403  0.0576
 2237TIP3    H128202   3.951   2.332  11.432 -0.5693  1.8661  0.2617
 2237TIP3    H228203   3.808   2.301  11.393 -0.2856 -0.0931  0.6849
 2238TIP3   OH228204   5.165   6.504   5.322 -0.4532  0.4548  0.0290
 2238TIP3    H128205   5.117   6.586   5.336 -1.3203 -0.2643  1.4658
 2238TIP3    H228206   5.130   6.469   5.241 -0.2002  1.3994 -0.5117
 2239TIP3   OH228207   0.817   0.599  14.478 -0.0518  0.1484 -0.4569
 2239TIP3    H128208   0.881   0.531  14.497  0.5527  0.7664 -0.2475
 2239TIP3    H228209   0.862   0.659  14.420  0.3787  1.7966  1.4534
 2240TIP3   OH228210   3.022   2.970  16.977  0.3398  0.0603  0.3457
 2240TIP3    H128211   3.018   3.044  16.916 -1.6866 -0.3320 -0.0579
 2240TIP3    H228212   3.094   2.916  16.944  1.2288  1.3437  0.0890
 2241TIP3   OH228213   3.688   5.080   2.040 -0.0813  0.2003  0.3462
 2241TIP3    H128214   3.660   5.023   2.112 -2.4116  0.8275  0.0229
 2241TIP3    H228215   3.610   5.092   1.987  0.9990  1.6378 -1.0247
 2242TIP3   OH228216   5.411   2.777  15.906 -0.3078  0.4629  0.6476
 2242TIP3    H128217   5.462   2.817  15.836 -0.2597 -2.3764 -1.1191
 2242TIP3    H228218   5.476   2.728  15.958 -0.8537 -1.3775 -0.3067
 2243TIP3   OH228219   4.683   6.536  15.650  0.5648  0.0163 -0.1582
 2243TIP3    H128220   4.771   6.545  15.614  0.9290 -1.7154  0.1908
 2243TIP3    H228221   4.694   6.476  15.724 -1.1293 -1.5687 -1.0999
 2244TIP3   OH228222   5.393   1.912   4.368 -0.0330  0.6616  0.7343
 2244TIP3    H128223   5.358   1.933   4.282  0.9671  1.4280  0.4832
 2244TIP3    H228224   5.332   1.952   4.429 -0.1889  1.0261  0.3443
 2245TIP3   OH228225   4.693   3.348  14.581 -0.5918  0.0454 -0.3482
 2245TIP3    H128226   4.740   3.423  14.544 -2.5324  1.7182  0.3856
 2245TIP3    H228227   4.601   3.374  14.579 -1.5048 -2.8395 -1.1605
 2246TIP3   OH228228   4.792   1.121  14.445  0.1634  0.3342  0.3674
 2246TIP3    H128229   4.798   1.205  14.489  0.6664  0.4289  0.1250
 2246TIP3    H228230   4.705   1.121  14.405  0.3188  0.9082  0.0212
 2247TIP3   OH228231   1.670   0.558   0.947  0.1873  0.7649 -0.5362
 2247TIP3    H128232   1.612   0.482   0.950 -1.1272  1.6822 -1.6719
 2247TIP3    H228233   1.716   0.549   0.863 -0.2489  1.3998 -0.8494
 2248TIP3   OH228234   4.550   4.159   2.218 -0.0984 -0.0928  0.6561
 2248TIP3    H128235   4.455   4.168   2.227 -0.1090  0.5154  0.0526
 2248TIP3    H228236   4.561   4.080   2.165 -0.3110  0.2779  0.0434
 2249TIP3   OH228237   1.160   6.182   2.952 -0.4366 -0.1758 -0.4029
 2249TIP3    H128238   1.127   6.111   2.897 -0.7353 -1.2914  1.1830
 2249TIP3    H228239   1.208   6.238   2.891 -1.8617 -0.6522 -2.0423
 2250TIP3   OH228240   2.529   0.833  14.779  0.2163  0.2434  0.4048
 2250TIP3    H128241   2.493   0.745  14.767 -1.4759  1.1807 -2.1668
 2250TIP3    H228242   2.490   0.864  14.861  1.3431 -1.5208  1.7200
 2251TIP3   OH228243   2.598   0.891   4.464 -0.7091 -0.4880 -0.5797
 2251TIP3    H128244   2.569   0.853   4.381 -0.6597  0.0929 -0.8729
 2251TIP3    H228245   2.517   0.921   4.506 -0.7786 -1.1659 -0.2131
 2252TIP3   OH228246   0.738   3.469   6.052 -0.6687 -0.0503 -0.1682
 2252TIP3    H128247   0.773   3.558   6.054 -2.0063  0.4962  0.0082
 2252TIP3    H228248   0.763   3.435   5.966  0.0041  0.4261 -0.1684
 2253TIP3   OH228249   3.607   2.624  15.822 -0.1569  0.4394 -0.1346
 2253TIP3    H128250   3.660   2.703  15.815  2.0168 -0.7634  1.3797
 2253TIP3    H228251   3.582   2.604  15.732  0.3044  2.1388 -0.6820
 2254TIP3   OH228252   5.616   0.722  12.516 -0.0923 -0.0812 -0.4356
 2254TIP3    H128253   5.582   0.806  12.486  0.9124  0.8062  0.8002
 2254TIP3    H228254   5.673   0.692  12.445  0.0519  0.6115 -0.6165
 2255TIP3   OH228255   0.090   3.657   2.688  0.2907 -0.0003 -0.2803
 2255TIP3    H128256   0.053   3.570   2.670 -0.3447  0.3922 -0.9047
 2255TIP3    H228257   0.079   3.668   2.782 -0.4516 -0.2352 -0.3291
 2256TIP3   OH228258   6.088   3.036   5.530 -0.2211 -0.5568 -0.2255
 2256TIP3    H128259   6.182   3.041   5.511  0.0941  0.7963  1.4189
 2256TIP3    H228260   6.083   2.977   5.606 -0.5491  0.2561  0.4020
 2257TIP3   OH228261   5.990   0.141  12.531  0.2649 -0.5528  0.2499
 2257TIP3    H128262   5.971   0.103  12.445  0.4088  0.0656 -0.0592
 2257TIP3    H228263   5.970   0.234  12.520  0.0040 -0.5199  0.9718
 2258TIP3   OH228264   4.686   5.039   1.121  0.6462 -0.0803  0.3556
 2258TIP3    H128265   4.735   5.120   1.102  0.6761  0.3306  1.9976
 2258TIP3    H228266   4.618   5.066   1.182 -0.1774 -1.0881 -0.0810
 2259TIP3   OH228267   6.289   2.748  15.024 -0.3320  0.4693  0.1069
 2259TIP3    H128268   6.321   2.660  15.006  1.8138  1.1985  0.0194
 2259TIP3    H228269   6.194   2.740  15.024 -0.2535 -2.4764  3.3123
 2260TIP3   OH228270   5.372   5.829  16.098  0.6785 -0.1095 -0.3986
 2260TIP3    H128271   5.361   5.924  16.089 -0.0892 -0.1841 -0.3267
 2260TIP3    H228272   5.300   5.802  16.155  1.2922 -0.6421  0.1432
 2261TIP3   OH228273   3.547   6.767  11.054 -0.7136  0.7886 -0.3981
 2261TIP3    H128274   3.642   6.760  11.052 -0.7855 -0.2772 -2.0112
 2261TIP3    H228275   3.524   6.810  10.972 -1.6477  0.8122 -0.1426
 2262TIP3   OH228276   1.022   5.735   5.893 -0.0652 -0.1209 -0.9350
 2262TIP3    H128277   1.044   5.817   5.937 -2.0669 -0.2767  0.5236
 2262TIP3    H228278   0.928   5.742   5.875 -0.5613 -2.5033  0.3204
 2263TIP3   OH228279   1.419   6.763   1.031  0.4058  0.4289 -0.0014
 2263TIP3    H128280   1.391   6.676   1.059 -0.4405  0.5688 -0.3981
 2263TIP3    H228281   1.438   6.753   0.938  3.1360 -0.0176  0.5064
 2264TIP3   OH228282   1.887   6.565  14.969 -0.0325  0.4160 -0.6081
 2264TIP3    H128283   1.827   6.636  14.995 -1.3566 -1.6116  2.4752
 2264TIP3    H228284   1.947   6.557  15.044 -0.2366 -1.9878 -0.6509
 2265TIP3   OH228285   4.450   3.089   5.656  0.4885  0.1181  0.6330
 2265TIP3    H128286   4.494   3.017   5.700  0.2553 -0.1773  0.3888
 2265TIP3    H228287   4.427   3.055   5.570  0.0704  0.3656  0.6397
 2266TIP3   OH228288   6.279   3.267   6.031 -0.9401 -0.0945 -0.1372
 2266TIP3    H128289   6.255   3.213   6.107 -1.7334 -0.5164 -0.6791
 2266TIP3    H228290   6.271   3.208   5.956 -1.0097  0.5562 -0.6494
 2267TIP3   OH228291   5.938   4.046   4.359 -0.0730  0.1229  0.1638
 2267TIP3    H128292   5.938   4.059   4.264  0.4049  1.4313  0.3214
 2267TIP3    H228293   5.880   4.114   4.392  0.2943  0.0969  0.8675
 2268TIP3   OH228294   0.105   1.588   0.787  0.2869  0.4600 -0.7288
 2268TIP3    H128295   0.074   1.508   0.745 -0.7852  0.2723  0.3791
 2268TIP3    H228296   0.027   1.643   0.796  0.3205  0.2102  1.6036
 2269TIP3   OH228297   6.256   6.079   1.323 -0.1382  0.3889 -0.0785
 2269TIP3    H128298   6.226   6.166   1.349  0.4000  0.0953  1.6583
 2269TIP3    H228299   6.264   6.030   1.406  2.9797 -0.1964 -0.5782
 2270TIP3   OH228300   6.511   4.623   4.962 -0.3325 -0.3997 -0.1146
 2270TIP3    H128301   6.444   4.676   4.919  1.0121  0.4679 -1.2790
 2270TIP3    H228302   6.515   4.657   5.052 -1.4624 -0.4887 -0.0288
 2271TIP3   OH228303   2.832   1.470  13.882 -0.6652  0.1914  0.2908
 2271TIP3    H128304   2.919   1.506  13.872 -1.3405  1.6980 -0.4082
 2271TIP3    H228305   2.836   1.386  13.836  0.3573  0.3338  0.0926
 2272TIP3   OH228306   6.781   0.457  14.925 -0.3435  0.1677 -0.3753
 2272TIP3    H128307   6.724   0.446  15.000  0.8896  1.5202  0.8352
 2272TIP3    H228308   6.785   0.371  14.884 -1.8596 -0.3431  0.4927
 2273TIP3   OH228309   6.649   0.204   2.678  0.3697 -0.1393 -0.2414
 2273TIP3    H128310   6.694   0.288   2.670 -0.0886  0.0301 -1.1333
 2273TIP3    H228311   6.584   0.218   2.747  1.1597 -0.1641  0.5277
 2274TIP3   OH228312   3.499   1.270   1.673 -0.1820 -0.2292 -0.0680
 2274TIP3    H128313   3.412   1.284   1.637 -0.5493 -1.1592  0.4276
 2274TIP3    H228314   3.546   1.351   1.656 -0.5466 -0.3985 -2.0269
 2275TIP3   OH228315   3.351   2.453  16.306  0.3856  0.0322  0.4087
 2275TIP3    H128316   3.424   2.467  16.245 -0.4383  1.5243 -0.2895
 2275TIP3    H228317   3.392   2.416  16.384  1.7757  0.1020 -0.2601
 2276TIP3   OH228318   3.137   2.928   2.382  0.2682  0.1091  0.0603
 2276TIP3    H128319   3.084   2.944   2.460 -0.6760  2.1529 -0.9347
 2276TIP3    H228320   3.160   2.835   2.387  0.3444  0.1888  2.8109
 2277TIP3   OH228321   6.162   4.504   0.811  0.5261  0.5615  0.1305
 2277TIP3    H128322   6.237   4.511   0.751 -0.5629  0.6212 -1.2937
 2277TIP3    H228323   6.140   4.595   0.831  1.2745  0.5305  1.1563
 2278TIP3   OH228324   1.036   3.335  10.710  0.3517 -0.1710 -0.3375
 2278TIP3    H128325   0.977   3.281  10.657 -0.2400 -1.8642  1.8437
 2278TIP3    H228326   0.979   3.402  10.748  0.5354  0.3147 -0.9168
 2279TIP3   OH228327   4.572   5.096  14.115  0.8008  0.1926 -0.3661
 2279TIP3    H128328   4.546   5.154  14.187  0.5452 -2.7056  2.0945
 2279TIP3    H228329   4.495   5.091  14.059  0.4924  1.4309 -0.0739
 2280TIP3   OH228330   3.924   2.885   6.637 -0.2225 -0.0304  0.0285
 2280TIP3    H128331   3.896   2.902   6.547  1.7308 -0.1156 -0.6396
 2280TIP3    H228332   3.894   2.960   6.687 -1.5896 -0.1246 -0.6267
 2281TIP3   OH228333   6.323   4.839  15.626 -0.0235 -0.1071 -0.0203
 2281TIP3    H128334   6.235   4.823  15.592  0.3997  0.0666 -1.2805
 2281TIP3    H228335   6.348   4.755  15.666 -1.2922  0.2846  1.7025
 2282TIP3   OH228336   1.630   3.546  10.869 -0.0761 -0.1757 -0.0718
 2282TIP3    H128337   1.537   3.565  10.879 -0.0139  0.1022 -0.0239
 2282TIP3    H228338   1.667   3.556  10.956  0.0639  0.0675 -0.1585
 2283TIP3   OH228339   3.205   3.713  16.537  0.0887  0.0528  0.3674
 2283TIP3    H128340   3.184   3.805  16.525  0.2455 -0.0917 -1.2829
 2283TIP3    H228341   3.123   3.667  16.523  0.2486 -0.1258 -0.0028
 2284TIP3   OH228342   4.820   4.204   0.950 -0.4212 -0.2338 -0.6169
 2284TIP3    H128343   4.860   4.273   1.002  0.1307  0.2449 -1.6441
 2284TIP3    H228344   4.727   4.210   0.969 -0.2166 -0.1767  0.4205
 2285TIP3   OH228345   0.302   2.068   5.214  0.0346  0.0399  0.5691
 2285TIP3    H128346   0.392   2.077   5.184 -0.7949  0.6110 -1.9843
 2285TIP3    H228347   0.261   2.007   5.153 -2.0041  1.9684 -0.1465
 2286TIP3   OH228348   2.635   1.304  15.476 -0.2403  0.7338  0.6829
 2286TIP3    H128349   2.656   1.396  15.494 -1.4196  1.1430  0.0812
 2286TIP3    H228350   2.650   1.259  15.559 -0.1512  1.5583  1.1240
 2287TIP3   OH228351   2.125   1.778   4.720 -0.5685  0.3163 -0.1741
 2287TIP3    H128352   2.099   1.719   4.650  1.9031 -1.5886  0.3510
 2287TIP3    H228353   2.061   1.764   4.789 -2.8908  2.0375 -1.8253
 2288TIP3   OH228354   3.353   5.403  15.614 -0.2471 -0.1246  0.1496
 2288TIP3    H128355   3.388   5.490  15.594 -0.4510  0.0334  0.4673
 2288TIP3    H228356   3.415   5.342  15.574 -1.1885  0.1749 -1.8883
 2289TIP3   OH228357   2.253   6.377  11.869  0.1022  0.1636  0.2956
 2289TIP3    H128358   2.261   6.283  11.882  0.6750  0.2269  0.3998
 2289TIP3    H228359   2.188   6.405  11.933  1.1505  0.0990  1.4132
 2290TIP3   OH228360   2.766   0.863   2.269 -0.0451  0.8299  0.3980
 2290TIP3    H128361   2.785   0.937   2.211 -0.2663  0.1504 -0.5820
 2290TIP3    H228362   2.845   0.854   2.323 -0.2065  2.0658  0.8590
 2291TIP3   OH228363   6.683   1.215   4.067  0.1714 -0.1992 -0.4296
 2291TIP3    H128364   6.588   1.213   4.075  0.2137  1.4505  1.2396
 2291TIP3    H228365   6.707   1.126   4.040 -1.7494 -1.0407  0.4504
 2292TIP3   OH228366   1.105   3.119  14.145  0.7889 -0.2216  0.2308
 2292TIP3    H128367   1.056   3.173  14.208  0.6167  0.8468 -0.7761
 2292TIP3    H228368   1.193   3.115  14.180  0.5357 -0.1951  0.8817
 2293TIP3   OH228369   4.728   0.844  11.654  0.1542  0.6513 -0.2154
 2293TIP3    H128370   4.796   0.877  11.596 -1.8783  3.7996 -1.0956
 2293TIP3    H228371   4.659   0.813  11.596 -0.4326  0.4544  0.5572
 2294TIP3   OH228372   4.930   6.216   2.383 -0.4150  0.0125  0.1098
 2294TIP3    H128373   4.974   6.197   2.466 -1.3665  2.1767  1.2063
 2294TIP3    H228374   4.996   6.200   2.316  1.3604  1.0154  1.5234
 2295TIP3   OH228375   3.800   0.236  16.270 -0.0995  0.5190  0.0068
 2295TIP3    H128376   3.840   0.150  16.281  0.6019  0.7930 -0.2756
 2295TIP3    H228377   3.788   0.269  16.359  2.0588  1.1893  0.1180
 2296TIP3   OH228378   6.722   6.410  16.718 -0.0066 -0.3378 -0.0109
 2296TIP3    H128379   6.714   6.318  16.691  0.8773 -0.7023  0.9281
 2296TIP3    H228380   6.779   6.408  16.794  2.8636  1.3093 -1.9458
 2297TIP3   OH228381   4.115   0.484   1.241  0.3749 -0.0223 -0.0695
 2297TIP3    H128382   4.123   0.414   1.306 -0.1903  0.6451  0.7317
 2297TIP3    H228383   4.191   0.540   1.255  0.2334  0.1425  0.0373
 2298TIP3   OH228384   4.043   6.378   4.771 -0.2737 -0.3601  0.3325
 2298TIP3    H128385   4.086   6.355   4.853  1.2674 -2.0231 -0.8626
 2298TIP3    H228386   4.111   6.366   4.704 -1.7460 -0.0163 -1.3028
 2299TIP3   OH228387   3.305   1.643   0.482 -0.1348 -0.7894 -0.0303
 2299TIP3    H128388   3.373   1.685   0.535 -1.3785  1.2765  0.0529
 2299TIP3    H228389   3.303   1.696   0.402 -1.5013 -0.9202 -0.1007
 2300TIP3   OH228390   2.732   1.863  12.173  0.0443  0.6329 -0.2004
 2300TIP3    H128391   2.772   1.836  12.256  0.7459  1.3514 -0.2970
 2300TIP3    H228392   2.657   1.916  12.199 -0.2406  0.1505 -0.0244
 2301TIP3   OH228393   6.560   6.719  10.666  0.1177 -0.1910  0.1099
 2301TIP3    H128394   6.494   6.753  10.605  0.2331  0.6899  0.4624
 2301TIP3    H228395   6.571   6.789  10.730  1.5000 -0.2792 -0.0132
 2302TIP3   OH228396   0.902   3.097   4.728  0.0979 -0.3792 -1.0814
 2302TIP3    H128397   0.855   3.014   4.724  0.3542 -0.7021  1.1896
 2302TIP3    H228398   0.854   3.148   4.794  1.6797  0.0942 -0.2575
 2303TIP3   OH228399   5.694   3.225  12.844  0.3711 -0.0601 -0.2257
 2303TIP3    H128400   5.610   3.270  12.849  0.0370 -0.6133 -0.6025
 2303TIP3    H228401   5.750   3.269  12.908 -0.7190 -0.7596  1.2889
 2304TIP3   OH228402   2.186   0.665   1.275  0.2380 -0.3820  0.5148
 2304TIP3    H128403   2.131   0.674   1.353  0.3649  0.8972  0.4762
 2304TIP3    H228404   2.199   0.571   1.266 -2.2020 -0.7732  0.3516
 2305TIP3   OH228405   1.559   3.733   4.775  0.2441  0.0443  0.3750
 2305TIP3    H128406   1.589   3.704   4.861  0.5071  0.2502  0.3532
 2305TIP3    H228407   1.498   3.665   4.747  0.7919 -0.4498  0.3621
 2306TIP3   OH228408   3.834   0.667  16.194  0.1163  0.3245 -0.3729
 2306TIP3    H128409   3.926   0.650  16.175  0.7682  1.1535  1.7547
 2306TIP3    H228410   3.795   0.686  16.108  1.6694 -1.0260 -1.4433
 2307TIP3   OH228411   6.003   0.469   1.275 -0.6083 -0.1135 -0.3207
 2307TIP3    H128412   5.945   0.473   1.200 -0.8565 -1.4413 -0.2249
 2307TIP3    H228413   6.051   0.386   1.265 -0.7722 -0.4046  1.0514
 2308TIP3   OH228414   0.013   0.887   3.739  0.0045  0.5841 -0.0566
 2308TIP3    H128415   0.057   0.808   3.770  0.1082  0.8401  0.4649
 2308TIP3    H228416  -0.012   0.868   3.649 -3.2155 -1.4448  1.0944
 2309TIP3   OH228417   2.090   1.894  11.707 -0.2000  0.0581  0.5001
 2309TIP3    H128418   2.155   1.949  11.749  1.2664 -0.6226 -0.7870
 2309TIP3    H228419   2.075   1.934  11.622  1.6813 -1.9617 -0.9031
 2310TIP3   OH228420   2.478   2.640  11.394 -0.0592 -0.1025  0.3392
 2310TIP3    H128421   2.405   2.585  11.367 -0.4221  1.7188 -2.7774
 2310TIP3    H228422   2.555   2.600  11.353  0.0728  0.2653  0.2210
 2311TIP3   OH228423   4.925   4.934   1.020 -0.1208  0.0796 -0.0570
 2311TIP3    H128424   4.851   4.939   1.081 -0.2835  0.2126 -0.2640
 2311TIP3    H228425   4.936   5.023   0.988 -0.6920 -0.1699 -0.9924
 2312TIP3   OH228426   0.037   3.170  15.727  0.0438 -0.1701 -0.1917
 2312TIP3    H128427   0.006   3.188  15.638  0.1440 -3.6459 -1.0515
 2312TIP3    H228428   0.030   3.075  15.736  1.3874 -0.0711  3.0434
 2313TIP3   OH228429   3.003   1.419  16.317 -0.6229  0.1645  0.0745
 2313TIP3    H128430   2.949   1.474  16.374  1.4712  1.5248  0.8730
 2313TIP3    H228431   3.061   1.371  16.377  0.6585  0.5550 -0.7984
 2314TIP3   OH228432   5.125   0.961  11.270  0.5622 -0.2142 -0.3693
 2314TIP3    H128433   5.220   0.971  11.267  0.7192 -1.2160  0.4335
 2314TIP3    H228434   5.108   0.878  11.225 -0.1203  0.7624 -2.0057
 2315TIP3   OH228435   4.091   3.063  12.863  0.0186  0.5925  0.1561
 2315TIP3    H128436   4.026   3.016  12.811 -0.7226  0.7112  0.9488
 2315TIP3    H228437   4.112   3.003  12.935  0.4802  0.7212  0.1329
 2316TIP3   OH228438   2.846   5.592   4.845 -0.3409 -0.4569  0.0714
 2316TIP3    H128439   2.912   5.572   4.778  2.5685 -0.9745  2.8447
 2316TIP3    H228440   2.776   5.636   4.797  1.3327 -1.1744 -3.3391
 2317TIP3   OH228441   5.357   3.694   0.629 -0.1117 -0.0247 -0.2037
 2317TIP3    H128442   5.307   3.645   0.564 -0.6295  0.4052 -0.1346
 2317TIP3    H228443   5.368   3.781   0.591  0.0056  0.0836  0.0709
 2318TIP3   OH228444   4.253   2.497   0.028 -0.3224  0.4749  0.1365
 2318TIP3    H128445   4.303   2.432   0.078 -0.3237 -0.0388 -0.5164
 2318TIP3    H228446   4.173   2.510   0.079  0.3477  1.1115  1.0560
 2319TIP3   OH228447   3.927   4.412  16.571 -0.0709  0.2111 -0.4254
 2319TIP3    H128448   3.835   4.414  16.546 -0.6155 -2.7949  0.9617
 2319TIP3    H228449   3.973   4.386  16.491 -0.6563 -0.2997 -0.5977
 2320TIP3   OH228450   0.376   5.104   6.562  0.3932  0.1418  0.6736
 2320TIP3    H128451   0.341   5.027   6.606  1.3879 -1.3193 -0.9484
 2320TIP3    H228452   0.311   5.172   6.577 -0.5222 -0.9984  2.1624
 2321TIP3   OH228453   0.884   3.548  13.702 -0.0721  0.0527 -1.0036
 2321TIP3    H128454   0.876   3.614  13.634  2.4749  0.5132 -0.9235
 2321TIP3    H228455   0.795   3.540  13.738 -1.4535 -0.0046 -4.1005
 2322TIP3   OH228456   4.970   3.042   6.199  0.2816 -0.1607 -0.4571
 2322TIP3    H128457   4.994   2.953   6.225  2.6207  0.2540 -0.9347
 2322TIP3    H228458   4.932   3.081   6.278  0.0593 -1.2916  0.0104
 2323TIP3   OH228459   6.784   0.123   2.451 -0.3469  0.1361  0.3103
 2323TIP3    H128460   6.734   0.121   2.533 -3.0913  0.4613 -1.2242
 2323TIP3    H228461   6.870   0.157   2.476 -0.7923 -0.5480  3.1545
 2324TIP3   OH228462   2.582   3.139  12.516 -0.2260 -0.4068  0.0331
 2324TIP3    H128463   2.667   3.101  12.536 -0.2826  0.0258  1.1632
 2324TIP3    H228464   2.584   3.226  12.557 -0.8674 -0.0106 -0.7357
 2325TIP3   OH228465   2.718   5.027  12.185 -0.2191  0.7527  0.4626
 2325TIP3    H128466   2.773   4.984  12.250  0.0698  0.5794  0.1085
 2325TIP3    H228467   2.703   5.115  12.220  1.3359  1.2439 -0.0094
 2326TIP3   OH228468   0.377   0.704  13.422 -0.0264  0.5170  0.4868
 2326TIP3    H128469   0.381   0.680  13.330 -0.9690 -0.3081  0.6377
 2326TIP3    H228470   0.393   0.622  13.469 -1.4981  0.5018  1.0227
 2327TIP3   OH228471   4.858   1.571   1.145 -0.2599 -0.6700  0.0108
 2327TIP3    H128472   4.819   1.595   1.061  1.2559  0.1258 -0.4958
 2327TIP3    H228473   4.920   1.642   1.164  0.7776 -1.7654  0.8868
 2328TIP3   OH228474   1.299   6.263  14.641 -0.6704  0.3625  0.0271
 2328TIP3    H128475   1.361   6.191  14.648  0.2390  0.9654 -1.4310
 2328TIP3    H228476   1.299   6.304  14.728  1.9831  1.1377 -0.2727
 2329TIP3   OH228477   4.764   5.820   2.897  0.4389 -0.2326 -0.6632
 2329TIP3    H128478   4.703   5.856   2.961 -0.2921 -1.5325 -0.5867
 2329TIP3    H228479   4.709   5.799   2.821  0.9338 -0.5974 -0.9293
 2330TIP3   OH228480   1.620   1.246   5.804 -0.9801  0.2035 -0.3277
 2330TIP3    H128481   1.593   1.236   5.713 -1.5745  1.6596 -0.3333
 2330TIP3    H228482   1.588   1.166   5.847  0.9354 -1.4066 -1.7054
 2331TIP3   OH228483   3.248   5.256   5.252  0.0478 -0.2102 -0.0307
 2331TIP3    H128484   3.254   5.205   5.170 -1.5184 -2.7610  1.2931
 2331TIP3    H228485   3.316   5.219   5.308  0.8360  1.2409  0.0043
 2332TIP3   OH228486   6.742   3.911  11.161 -0.3057 -0.4675 -0.6012
 2332TIP3    H128487   6.670   3.848  11.160 -0.7449 -0.0292  0.6498
 2332TIP3    H228488   6.706   3.989  11.119  0.0109 -0.8020 -1.5167
 2333TIP3   OH228489   1.276   1.506   2.933  0.4907 -0.2531  0.2548
 2333TIP3    H128490   1.196   1.455   2.944 -0.4832  1.0586 -0.4499
 2333TIP3    H228491   1.280   1.562   3.011  0.5400 -0.0739  0.1233
 2334TIP3   OH228492   0.189   2.303  13.095  0.2828  0.4052  0.2246
 2334TIP3    H128493   0.240   2.308  13.176 -0.0571  1.7299  0.3731
 2334TIP3    H228494   0.249   2.263  13.032  1.8219  2.6105  0.1837
 2335TIP3   OH228495   2.968   6.114  12.255  0.1178 -0.4752  0.3422
 2335TIP3    H128496   2.922   6.037  12.219  0.1889 -0.1430 -0.4777
 2335TIP3    H228497   3.060   6.088  12.257  0.2914 -0.0386 -0.9801
 2336TIP3   OH228498   6.041   3.159  12.490  0.0363 -0.8228 -0.6123
 2336TIP3    H128499   5.966   3.197  12.444 -1.1956 -2.3972 -0.0101
 2336TIP3    H228500   6.047   3.208  12.572  0.6011  0.2720 -1.2961
 2337TIP3   OH228501   0.703   5.730  16.789  0.7903 -0.3494  0.4540
 2337TIP3    H128502   0.696   5.665  16.859  0.0870 -0.6862  0.0928
 2337TIP3    H228503   0.797   5.742  16.775  0.9300 -1.5333  0.3092
 2338TIP3   OH228504   0.939   4.479   0.648  0.1258  0.1074  0.2349
 2338TIP3    H128505   0.897   4.557   0.612 -0.0253  1.5157  3.2071
 2338TIP3    H228506   1.032   4.500   0.651  0.2880 -0.4699 -0.3601
 2339TIP3   OH228507   3.787   2.917  13.126 -0.3598  0.0300  0.1884
 2339TIP3    H128508   3.797   2.979  13.198  0.2762  0.8450 -0.5736
 2339TIP3    H228509   3.694   2.920  13.105 -0.4860  0.0484  0.7406
 2340TIP3   OH228510   1.720   1.815  17.189  0.0504 -0.3476 -0.0315
 2340TIP3    H128511   1.645   1.874  17.193  1.0106  1.0191 -1.1710
 2340TIP3    H228512   1.757   1.817  17.277  0.6247  1.5647 -0.2805
 2341TIP3   OH228513   2.485   6.651  14.754 -0.3456  0.5224  0.8082
 2341TIP3    H128514   2.399   6.664  14.713 -0.2569 -2.9997 -0.8623
 2341TIP3    H228515   2.545   6.699  14.697 -0.9678  1.2925  0.7827
 2342TIP3   OH228516   1.066   5.083   3.967 -0.4413 -0.2380 -0.1190
 2342TIP3    H128517   1.060   5.015   3.900  0.3130  0.9336 -1.4539
 2342TIP3    H228518   1.097   5.038   4.045  0.6187 -1.3423 -1.1374
 2343TIP3   OH228519   3.312   5.314  12.868 -0.3239  0.1255  0.0900
 2343TIP3    H128520   3.221   5.337  12.888 -0.9065  0.0470 -2.1731
 2343TIP3    H228521   3.313   5.218  12.868 -0.3135  0.1251 -0.1524
 2344TIP3   OH228522   3.706   3.981   3.321 -0.6570 -0.0395  0.3221
 2344TIP3    H128523   3.656   3.903   3.346  1.1771 -2.2654 -2.3976
 2344TIP3    H228524   3.673   4.005   3.235  1.5619 -0.3982 -0.6898
 2345TIP3   OH228525   6.116   4.463  12.023  0.4178  0.0844  0.1796
 2345TIP3    H128526   6.052   4.439  12.089 -0.8173  0.4362 -0.8460
 2345TIP3    H228527   6.160   4.540  12.059 -1.8294  1.7027 -0.3145
 2346TIP3   OH228528   4.764   3.190   2.936  0.1329  0.2137  0.2393
 2346TIP3    H128529   4.697   3.243   2.979  0.2663 -0.6379  1.5478
 2346TIP3    H228530   4.847   3.221   2.975  0.5419  1.2311 -1.3282
 2347TIP3   OH228531   0.985   3.623  16.861 -0.0265 -0.3638 -0.4189
 2347TIP3    H128532   0.958   3.588  16.946  0.1528 -0.4050 -0.3801
 2347TIP3    H228533   1.015   3.711  16.880 -0.5368 -0.1599 -0.5306
 2348TIP3   OH228534   4.467   0.474   3.449 -0.4838 -0.0978 -0.4084
 2348TIP3    H128535   4.399   0.458   3.515 -0.1373  0.3082  0.0542
 2348TIP3    H228536   4.497   0.387   3.424 -1.4735 -0.3097 -0.9473
 2349TIP3   OH228537   1.135   3.713   2.133 -0.0839 -0.0465 -0.7629
 2349TIP3    H128538   1.055   3.761   2.112  0.4092  1.2982  0.2860
 2349TIP3    H228539   1.203   3.780   2.137  0.9098 -1.0331 -0.6324
 2350TIP3   OH228540   4.358   3.602  13.756  0.4853  0.4938 -0.0143
 2350TIP3    H128541   4.414   3.551  13.814  1.2246  0.3152 -0.8593
 2350TIP3    H228542   4.273   3.558  13.759  0.7244  0.0546  0.3645
 2351TIP3   OH228543   5.685   6.355  11.999  0.1868 -0.3218  0.1744
 2351TIP3    H128544   5.603   6.333  11.955  0.7044  1.4009 -1.7858
 2351TIP3    H228545   5.745   6.380  11.929  1.7838  0.4044  1.7051
 2352TIP3   OH228546   1.023   6.387  12.436  0.7483  0.0529 -0.6212
 2352TIP3    H128547   1.054   6.430  12.516 -1.1587  1.9803 -0.8516
 2352TIP3    H228548   0.934   6.419  12.424  0.0226 -2.2643 -2.1079
 2353TIP3   OH228549   5.033   2.935  17.034 -0.5971 -0.3393  0.4903
 2353TIP3    H128550   5.038   2.985  16.952 -1.3176 -1.6427 -0.3757
 2353TIP3    H228551   4.975   2.862  17.014 -1.4440 -0.2359  2.4223
 2354TIP3   OH228552   6.493   3.106   3.530  0.3224 -0.1861  0.7691
 2354TIP3    H128553   6.531   3.135   3.613  0.9862 -2.1002  1.1754
 2354TIP3    H228554   6.407   3.148   3.528  0.4241  0.1613  2.2765
 2355TIP3   OH228555   6.793   2.451  13.288 -0.1088 -0.0043 -0.0707
 2355TIP3    H128556   6.780   2.538  13.326 -1.0577  0.2607 -0.9414
 2355TIP3    H228557   6.858   2.465  13.219  0.5907 -0.2206  0.5315
 2356TIP3   OH228558   2.191   3.659  13.497 -0.1284 -0.7488  0.1484
 2356TIP3    H128559   2.101   3.637  13.519 -1.4234  0.8819 -2.9086
 2356TIP3    H228560   2.197   3.753  13.514  1.8258 -1.2068  2.5355
 2357TIP3   OH228561   5.986   3.196   4.564 -0.3339 -0.0817 -0.1828
 2357TIP3    H128562   5.969   3.289   4.577  0.4983  0.2029 -1.0353
 2357TIP3    H228563   6.022   3.191   4.476  0.9519 -1.0419  0.3788
 2358TIP3   OH228564   0.092   4.024  14.636  0.8300 -0.0156  0.1471
 2358TIP3    H128565   0.152   3.962  14.595  0.6632 -0.1051  0.0353
 2358TIP3    H228566   0.090   4.099  14.577  0.7480 -0.0585  0.0947
 2359TIP3   OH228567   2.641   0.332   2.449  0.5097  0.1376 -0.5635
 2359TIP3    H128568   2.699   0.259   2.426  0.2603 -0.2444  0.0008
 2359TIP3    H228569   2.700   0.403   2.474  0.7416 -0.0923 -0.4549
 2360TIP3   OH228570   0.535   6.500  11.698 -0.1016  0.2607 -0.2119
 2360TIP3    H128571   0.476   6.428  11.722  2.9349 -1.7855  1.8369
 2360TIP3    H228572   0.546   6.490  11.603 -1.2001 -0.7256 -0.2680
 2361TIP3   OH228573   4.212   1.576   6.108 -0.4355  0.3981 -0.6759
 2361TIP3    H128574   4.124   1.596   6.139  0.0801  3.3662 -0.8366
 2361TIP3    H228575   4.256   1.539   6.184 -1.1829  0.9887  0.0687
 2362TIP3   OH228576   3.103   0.803   5.992 -0.2133 -0.1318 -0.1376
 2362TIP3    H128577   3.138   0.718   5.967  1.6353  0.8441 -1.0450
 2362TIP3    H228578   3.146   0.824   6.075  0.8170  0.7440 -0.8781
 2363TIP3   OH228579   2.572   3.413   0.144 -0.6054 -0.1795  0.1185
 2363TIP3    H128580   2.481   3.443   0.144  0.0446  2.0495 -1.0464
 2363TIP3    H228581   2.571   3.334   0.090 -1.8185 -0.1015 -0.0056
 2364TIP3   OH228582   4.774   4.691   3.230 -0.3573  0.4061  0.1828
 2364TIP3    H128583   4.770   4.784   3.251  0.5731  0.5083 -0.0408
 2364TIP3    H228584   4.833   4.654   3.295 -1.8561 -0.3236  1.1926
 2365TIP3   OH228585   6.818   2.587  14.092 -0.7892 -0.3643 -0.0396
 2365TIP3    H128586   6.871   2.636  14.029  0.3202 -1.0494  0.3281
 2365TIP3    H228587   6.875   2.579  14.169 -0.3222 -3.4774 -0.5968
 2366TIP3   OH228588   1.083   0.164  12.688 -0.5670  0.1344 -0.0266
 2366TIP3    H128589   1.146   0.107  12.642 -2.5514 -1.3333 -1.0688
 2366TIP3    H228590   1.074   0.125  12.775 -0.1014  0.3217  0.1100
 2367TIP3   OH228591   2.510   1.864   3.522 -0.1262 -0.4557 -0.1156
 2367TIP3    H128592   2.517   1.939   3.580  1.1002 -1.6797  1.3853
 2367TIP3    H228593   2.417   1.858   3.501 -0.2963  1.2108  0.0499
 2368TIP3   OH228594   6.439   5.908  15.733  0.2335 -0.4560  0.1970
 2368TIP3    H128595   6.484   5.974  15.680  2.2418 -1.6875  0.2747
 2368TIP3    H228596   6.509   5.857  15.773 -1.0764 -4.1937 -1.7346
 2369TIP3   OH228597   0.336   4.907  12.966 -0.4961 -0.3708  0.2811
 2369TIP3    H128598   0.383   4.867  12.893 -1.2864 -0.7636 -0.0289
 2369TIP3    H228599   0.271   4.964  12.925  0.6920  1.3830  0.7207
 2370TIP3   OH228600   5.287   5.669  13.084 -0.1697  0.3219 -0.3399
 2370TIP3    H128601   5.315   5.699  13.171 -0.5664  1.2894 -0.5344
 2370TIP3    H228602   5.222   5.602  13.102 -0.0580  0.3297  0.1106
 2371TIP3   OH228603   0.006   6.034  15.764 -0.0917 -0.1925  0.1954
 2371TIP3    H128604   0.098   6.035  15.793 -0.6000  0.9140  1.9324
 2371TIP3    H228605  -0.023   6.125  15.776 -1.7501 -0.7891  0.8567
 2372TIP3   OH228606   0.599   5.284   1.959 -0.0053 -0.3860  0.5638
 2372TIP3    H128607   0.532   5.347   1.986  1.2853  0.5535  1.7036
 2372TIP3    H228608   0.593   5.283   1.863 -0.5799  0.8792  0.5629
 2373TIP3   OH228609   4.411   1.258  11.912 -0.3889 -0.6124  0.1191
 2373TIP3    H128610   4.414   1.171  11.872  0.0060 -0.1765 -0.8269
 2373TIP3    H228611   4.320   1.285  11.903 -0.0839 -0.0297 -1.6195
 2374TIP3   OH228612   4.388   3.234   2.817 -0.0155 -0.0324 -0.4477
 2374TIP3    H128613   4.428   3.151   2.791 -1.0542 -1.0057  0.9216
 2374TIP3    H228614   4.426   3.254   2.902 -1.4282 -0.3109  0.2787
 2375TIP3   OH228615   5.835   4.534   2.497 -0.5868 -0.4346 -0.2986
 2375TIP3    H128616   5.816   4.555   2.405 -1.9250  0.2873  0.1145
 2375TIP3    H228617   5.765   4.576   2.546  0.8614  0.3634  1.1828
 2376TIP3   OH228618   3.145   4.654  15.685  0.2007 -0.1934  0.1309
 2376TIP3    H128619   3.124   4.747  15.693  0.6323  0.0175 -0.9685
 2376TIP3    H228620   3.075   4.609  15.732 -1.9320  0.5454 -2.1793
 2377TIP3   OH228621   6.780   6.332   0.808  0.1481  0.5381 -0.2361
 2377TIP3    H128622   6.730   6.286   0.875  1.0912 -1.0070 -0.5266
 2377TIP3    H228623   6.838   6.265   0.771  1.5117  1.9457 -0.7877
 2378TIP3   OH228624   1.105   5.242  15.442  0.2655 -0.2557  0.4232
 2378TIP3    H128625   1.090   5.148  15.433  1.7922 -0.4260 -0.9738
 2378TIP3    H228626   1.037   5.282  15.388 -0.3197 -0.5629  0.9295
 2379TIP3   OH228627   1.513   3.493  15.768 -0.2524  0.5633 -0.3330
 2379TIP3    H128628   1.529   3.464  15.678 -0.1761 -1.6192  0.3329
 2379TIP3    H228629   1.597   3.526  15.798  0.6028 -1.6275 -0.1000
 2380TIP3   OH228630   2.468   6.510   5.927 -0.3681  0.2623  0.0809
 2380TIP3    H128631   2.427   6.440   5.876 -1.9535  1.3962 -0.2845
 2380TIP3    H228632   2.493   6.468   6.009 -1.9427 -0.6008  0.1680
 2381TIP3   OH228633   2.489   1.554   4.532  0.3903 -0.4220 -0.3759
 2381TIP3    H128634   2.404   1.560   4.489 -1.3430  2.4220  2.8929
 2381TIP3    H228635   2.549   1.598   4.473 -1.2676  0.9967 -1.1103
 2382TIP3   OH228636   6.503   4.195   4.286 -0.3998  0.5548  0.8816
 2382TIP3    H128637   6.564   4.268   4.301  2.2500 -1.2943 -0.0970
 2382TIP3    H228638   6.517   4.136   4.360  0.7563 -0.9265 -0.4277
 2383TIP3   OH228639   4.733   3.504  14.833 -0.2611 -0.0877 -0.2472
 2383TIP3    H128640   4.707   3.561  14.905 -0.8743 -1.0727  0.3293
 2383TIP3    H228641   4.653   3.457  14.809 -0.0421  0.1318 -1.4953
 2384TIP3   OH228642   1.578   2.262   6.545 -0.0985  0.0495  0.3229
 2384TIP3    H128643   1.545   2.297   6.462 -0.5040 -1.5422 -0.2262
 2384TIP3    H228644   1.526   2.306   6.612 -1.1444 -0.0841 -0.3760
 2385TIP3   OH228645   4.536   1.973   0.202 -0.9257 -0.0104 -0.0027
 2385TIP3    H128646   4.569   1.921   0.129 -1.3600  1.4650 -1.3162
 2385TIP3    H228647   4.615   2.001   0.249 -0.4968  0.5012 -0.9941
 2386TIP3   OH228648   6.818   4.561  11.651 -0.3969 -0.0501  0.3761
 2386TIP3    H128649   6.793   4.644  11.691  1.0203  0.7471 -0.3033
 2386TIP3    H228650   6.896   4.582  11.599  0.8182 -2.0495  1.2556
 2387TIP3   OH228651   0.434   0.536  12.451 -0.0904  0.2131  0.3747
 2387TIP3    H128652   0.420   0.600  12.520  0.9624  1.0675 -0.1687
 2387TIP3    H228653   0.506   0.481  12.483  0.5669  0.7641 -0.1185
 2388TIP3   OH228654   3.656   2.602  12.473 -0.3173  0.5669  0.1191
 2388TIP3    H128655   3.569   2.609  12.435 -0.1063 -1.7478 -0.9631
 2388TIP3    H228656   3.643   2.612  12.567 -2.1374 -1.9525  0.2248
 2389TIP3   OH228657   6.489   5.289  14.069 -0.3054  0.1091  0.3327
 2389TIP3    H128658   6.450   5.227  14.130  0.4591  0.2862  1.0076
 2389TIP3    H228659   6.414   5.336  14.032 -0.9225 -1.4072 -0.4336
 2390TIP3   OH228660   2.870   4.821  14.039 -0.1633 -0.1114  0.0610
 2390TIP3    H128661   2.878   4.778  14.125 -1.1371 -0.5827 -0.0732
 2390TIP3    H228662   2.842   4.910  14.060 -2.9454 -0.9310  0.1770
 2391TIP3   OH228663   6.516   0.882  13.219 -0.0510  0.4383  0.3428
 2391TIP3    H128664   6.514   0.954  13.283  2.3454  1.1415 -0.2430
 2391TIP3    H228665   6.490   0.805  13.269  1.9568  0.9226  2.3381
 2392TIP3   OH228666   6.509   6.044   2.752 -0.1090  0.3548 -0.2878
 2392TIP3    H128667   6.535   6.116   2.695 -1.6658  0.3730 -1.0231
 2392TIP3    H228668   6.483   5.974   2.693  1.1308 -0.7538  0.4215
 2393TIP3   OH228669   0.710   2.083  13.379 -0.0904 -0.1016  0.5604
 2393TIP3    H128670   0.699   2.005  13.325  0.6779 -0.2376  0.5880
 2393TIP3    H228671   0.755   2.145  13.322 -1.0779  0.4889  0.3963
 2394TIP3   OH228672   2.731   0.148   1.372  0.0749 -0.7952 -0.3242
 2394TIP3    H128673   2.780   0.096   1.308  0.8464 -0.8229  0.2616
 2394TIP3    H228674   2.724   0.091   1.449 -0.2329 -0.5160 -0.1406
 2395TIP3   OH228675   6.289   1.021   0.328  0.3089  0.0615 -0.0166
 2395TIP3    H128676   6.352   0.999   0.397  1.8810 -0.3153 -1.5122
 2395TIP3    H228677   6.261   0.936   0.294  0.9827  0.2478 -1.0701
 2396TIP3   OH228678   6.335   5.337   1.275 -0.1368 -0.7598  0.4728
 2396TIP3    H128679   6.398   5.402   1.307 -0.2718 -0.6247  0.4635
 2396TIP3    H228680   6.358   5.325   1.183 -1.7458  1.2310 -0.2736
 2397TIP3   OH228681   2.457   5.252   1.592 -0.0019  0.0182 -0.2325
 2397TIP3    H128682   2.435   5.159   1.587  1.0191 -0.2909  0.6093
 2397TIP3    H228683   2.509   5.268   1.514  1.5571 -0.6438  0.6219
 2398TIP3   OH228684   0.415   1.216   6.178  0.1090 -0.2804 -0.2457
 2398TIP3    H128685   0.452   1.294   6.220 -0.5262 -0.2524  0.2782
 2398TIP3    H228686   0.321   1.223   6.194 -0.1581 -0.3025 -1.6278
 2399TIP3   OH228687   6.208   0.797  14.649  0.0396 -0.0375  0.6092
 2399TIP3    H128688   6.194   0.749  14.731 -1.4303  1.2301  1.1582
 2399TIP3    H228689   6.122   0.830  14.626  0.6894  0.8164 -0.7146
 2400TIP3   OH228690   3.560   4.569   0.395  0.5096  0.6574 -0.0652
 2400TIP3    H128691   3.645   4.540   0.360  0.6445  0.4951  0.3901
 2400TIP3    H228692   3.550   4.519   0.476 -0.5796 -0.2217 -0.7086
 2401TIP3   OH228693   1.156   5.787  12.235 -0.5177 -0.1202  0.4414
 2401TIP3    H128694   1.246   5.803  12.266 -1.3651 -1.0784  3.7870
 2401TIP3    H228695   1.145   5.849  12.163  1.6294  2.7296  2.3215
 2402TIP3   OH228696   5.470   2.267   4.330  0.2516 -0.0350 -0.7738
 2402TIP3    H128697   5.458   2.279   4.236 -0.3972 -3.1046 -1.1873
 2402TIP3    H228698   5.564   2.279   4.343 -0.0526  3.6941 -1.1419
 2403TIP3   OH228699   5.369   6.279  16.399 -0.1791 -0.6682  0.1650
 2403TIP3    H128700   5.318   6.199  16.407 -1.2165 -0.1517 -1.0663
 2403TIP3    H228701   5.336   6.336  16.469 -1.4766 -0.2667 -0.7343
 2404TIP3   OH228702   2.535   1.968  14.749  0.0054  0.0011 -0.3107
 2404TIP3    H128703   2.535   1.874  14.730 -1.2788  0.0051 -0.4161
 2404TIP3    H228704   2.468   1.979  14.817 -0.9175  1.0248 -1.3438
 2405TIP3   OH228705   4.652   5.531  15.329  0.1723  0.0073  0.2542
 2405TIP3    H128706   4.609   5.576  15.256  0.8916 -0.4412 -0.4631
 2405TIP3    H228707   4.608   5.565  15.407 -1.1413 -0.0692 -0.4130
 2406TIP3   OH228708   0.585   1.308   6.827  0.4095 -0.3366 -0.6082
 2406TIP3    H128709   0.535   1.265   6.757  0.1408 -0.6566 -0.2210
 2406TIP3    H228710   0.533   1.385   6.850  0.5197 -0.2072 -0.7867
 2407TIP3   OH228711   4.164   1.897  11.174  0.0799  0.4855 -0.2489
 2407TIP3    H128712   4.191   1.971  11.120 -0.5487  1.3262  0.5498
 2407TIP3    H228713   4.119   1.937  11.249  1.6501 -0.5857  1.3567
 2408TIP3   OH228714   1.840   4.982   5.316 -0.2649  0.2664  0.5354
 2408TIP3    H128715   1.821   4.943   5.401  1.8382 -0.8088  0.5928
 2408TIP3    H228716   1.852   4.906   5.258  1.7673  0.8260  0.1357
 2409TIP3   OH228717   4.323   0.620   5.286  0.0754  0.0405 -0.4145
 2409TIP3    H128718   4.302   0.582   5.371  0.7054  0.9488  0.1664
 2409TIP3    H228719   4.313   0.548   5.224  1.5801 -1.1682  0.6773
 2410TIP3   OH228720   5.222   2.435  12.419 -0.2373  0.2949 -0.1694
 2410TIP3    H128721   5.253   2.434  12.329  0.2293 -0.8053 -0.0125
 2410TIP3    H228722   5.301   2.426  12.472 -0.4804  1.2070  0.3610
 2411TIP3   OH228723   3.030   4.725   3.984 -0.0075 -0.8974  0.5970
 2411TIP3    H128724   3.125   4.714   3.996  0.0691 -1.7070 -0.5562
 2411TIP3    H228725   3.018   4.819   3.972  0.6823 -0.8149  0.5258
 2412TIP3   OH228726   4.665   2.470   2.986  0.3314  0.0470 -0.2632
 2412TIP3    H128727   4.751   2.427   2.987 -0.6543 -2.0141  0.2658
 2412TIP3    H228728   4.603   2.400   3.003 -1.5016  1.4678 -0.8266
 2413TIP3   OH228729   2.901   1.233  13.699  0.0466 -0.6408  0.5179
 2413TIP3    H128730   2.825   1.181  13.673  0.5523 -1.1866  0.0867
 2413TIP3    H228731   2.948   1.176  13.761  0.2101 -0.3958  0.6198
 2414TIP3   OH228732   1.006   4.818  12.939  0.2116  0.6097  0.1752
 2414TIP3    H128733   1.059   4.868  12.877  0.9114  1.0955  1.1367
 2414TIP3    H228734   0.916   4.828  12.907  0.6685 -0.2668 -1.5024
 2415TIP3   OH228735   6.497   4.641  16.956 -0.0293  0.4068  0.0544
 2415TIP3    H128736   6.588   4.666  16.944 -0.0869  0.2371 -0.7385
 2415TIP3    H228737   6.448   4.693  16.892 -0.1377 -1.7077 -1.6984
 2416TIP3   OH228738   6.742   6.639   4.531 -0.4488 -0.1325 -0.4092
 2416TIP3    H128739   6.736   6.715   4.473  1.8808  0.2880 -0.2079
 2416TIP3    H228740   6.670   6.582   4.504 -1.4229  1.5235 -1.4784
 2417TIP3   OH228741   1.059   1.444   4.284 -0.2474  0.1575 -0.5817
 2417TIP3    H128742   1.017   1.526   4.260 -1.3239 -0.0990  0.3779
 2417TIP3    H228743   1.044   1.386   4.209 -2.1548 -0.1173 -0.0271
 2418TIP3   OH228744   4.120   6.443   6.391  0.3063  0.0953  0.0333
 2418TIP3    H128745   4.206   6.401   6.389 -0.1228 -0.7824 -0.0834
 2418TIP3    H228746   4.119   6.491   6.473  1.3902  1.1523 -0.5349
 2419TIP3   OH228747   5.605   4.550  13.393  0.1410 -0.0340  0.4179
 2419TIP3    H128748   5.666   4.623  13.376 -1.0543  1.0159  0.4756
 2419TIP3    H228749   5.601   4.503  13.310  0.2430  0.5098  0.0974
 2420TIP3   OH228750   5.578   1.282   4.505 -0.3005 -0.0103  0.1568
 2420TIP3    H128751   5.528   1.216   4.458  0.8018 -1.5240  1.0303
 2420TIP3    H228752   5.521   1.307   4.579 -1.5907  1.6163 -1.2931
 2421TIP3   OH228753   5.632   2.500   5.992 -0.3386 -0.5815 -0.2605
 2421TIP3    H128754   5.628   2.406   5.973  0.8426 -0.2746 -2.4154
 2421TIP3    H228755   5.633   2.506   6.088  1.0539 -2.8568 -0.0673
 2422TIP3   OH228756   3.029   0.585   2.591  0.0559  0.5737 -0.0704
 2422TIP3    H128757   3.058   0.539   2.670  0.0027 -0.6779 -0.7748
 2422TIP3    H228758   2.934   0.585   2.597  0.0540  0.5529 -0.1061
 2423TIP3   OH228759   6.455   4.521   3.082  0.5371  0.1829 -0.1381
 2423TIP3    H128760   6.421   4.487   3.165 -0.2989  0.5744 -0.3041
 2423TIP3    H228761   6.549   4.507   3.087  0.9292  2.7636  2.1393
 2424TIP3   OH228762   0.021   4.457  16.383 -0.2996  0.3857  0.3625
 2424TIP3    H128763   0.055   4.478  16.296  0.5997 -0.1314  0.5721
 2424TIP3    H228764  -0.065   4.417  16.366  0.4746 -1.0359 -0.4126
 2425TIP3   OH228765   0.279   4.473   3.788 -0.1021  0.8312 -0.1845
 2425TIP3    H128766   0.325   4.416   3.850 -2.0265 -0.9767 -0.3017
 2425TIP3    H228767   0.328   4.465   3.706  0.5871  0.6820  0.2319
 2426TIP3   OH228768   3.228   6.448   3.060 -0.3264 -0.0042  0.0901
 2426TIP3    H128769   3.173   6.381   3.102 -1.5328 -0.8819 -2.6432
 2426TIP3    H228770   3.289   6.398   3.007 -0.0416  1.0617 -0.6007
 2427TIP3   OH228771   2.686   4.109   6.157  0.8824 -0.1566 -0.0823
 2427TIP3    H128772   2.604   4.152   6.181  1.0460 -0.1559  0.4910
 2427TIP3    H228773   2.749   4.180   6.146  1.4553 -0.2648  2.0182
 2428TIP3   OH228774   6.726   2.268  12.172  0.1701 -0.0818  0.0080
 2428TIP3    H128775   6.757   2.358  12.171  1.2350 -0.3014 -3.5175
 2428TIP3    H228776   6.636   2.272  12.204  0.1024  2.2636 -0.3590
 2429TIP3   OH228777   6.396   3.724  17.074 -0.3638  0.6083  0.2669
 2429TIP3    H128778   6.452   3.647  17.081 -0.6650  0.4087  0.4775
 2429TIP3    H228779   6.457   3.798  17.073 -0.0270  0.3324 -0.7543
 2430TIP3   OH228780   1.328   3.204  14.419 -0.5733 -0.8177  0.3422
 2430TIP3    H128781   1.367   3.145  14.355 -1.4230 -0.0772 -0.9113
 2430TIP3    H228782   1.291   3.275  14.366  1.6343  1.6242  1.8382
 2431TIP3   OH228783   0.014   2.685  13.451 -0.2824 -0.0954 -0.4130
 2431TIP3    H128784   0.055   2.764  13.485  1.3928 -0.9038 -0.4913
 2431TIP3    H228785  -0.079   2.696  13.473  0.3863  0.2749  2.8008
 2432TIP3   OH228786   4.696   6.819   2.606 -0.2923  0.0608 -0.0813
 2432TIP3    H128787   4.741   6.794   2.525 -1.7708 -1.5464 -0.4732
 2432TIP3    H228788   4.765   6.821   2.672  0.5475 -1.1996 -0.8764
 2433TIP3   OH228789   3.021   5.211  12.457 -0.3073  0.5326  0.0063
 2433TIP3    H128790   3.039   5.217  12.363 -2.4245 -0.9609 -0.5599
 2433TIP3    H228791   3.093   5.157  12.492  0.7369  1.4653 -0.6408
 2434TIP3   OH228792   2.712   6.625  13.237  0.6438  0.2495 -0.2194
 2434TIP3    H128793   2.788   6.607  13.182 -1.2574  1.2585 -3.4633
 2434TIP3    H228794   2.742   6.691  13.299  2.6148  0.0131 -0.8751
 2435TIP3   OH228795   0.593   0.056  15.546  0.3744  0.2738 -0.2144
 2435TIP3    H128796   0.688   0.045  15.545  0.5556  1.6164 -0.1597
 2435TIP3    H228797   0.576   0.129  15.486 -0.4876  0.8455  0.6728
 2436TIP3   OH228798   2.109   1.941   5.811 -0.1054  0.2556  0.1638
 2436TIP3    H128799   2.092   1.847   5.806  0.5976  0.1344 -0.2029
 2436TIP3    H228800   2.067   1.977   5.732  0.8259  0.0346 -0.4562
 2437TIP3   OH228801   5.546   2.947  10.909  0.2915  0.4015  0.7598
 2437TIP3    H128802   5.458   2.965  10.877  0.8150  0.0308 -1.0391
 2437TIP3    H228803   5.577   3.032  10.942 -0.3603  0.7742  0.4354
 2438TIP3   OH228804   6.814   0.409   2.751  0.4684  0.2824 -0.4525
 2438TIP3    H128805   6.854   0.495   2.738  0.9278  0.0833 -0.3699
 2438TIP3    H228806   6.884   0.355   2.789 -0.2456  0.2820  0.9147
 2439TIP3   OH228807   2.204   0.352  15.559 -0.0753  0.1669  0.2386
 2439TIP3    H128808   2.196   0.336  15.654  1.3534  0.6449  0.4553
 2439TIP3    H228809   2.277   0.297  15.532  0.1860  0.8234 -0.3943
 2440TIP3   OH228810   3.027   6.510  16.885 -0.3750 -0.5052 -0.2236
 2440TIP3    H128811   2.989   6.449  16.949 -1.9491  2.2867  1.7321
 2440TIP3    H228812   3.121   6.507  16.903 -0.4634 -1.9611  0.1411
 2441TIP3   OH228813   2.280   3.372  12.374 -0.4335  0.1523  0.1072
 2441TIP3    H128814   2.238   3.371  12.461  0.4049  0.1943  0.5242
 2441TIP3    H228815   2.354   3.431  12.384  0.5432 -0.9658 -0.2035
 2442TIP3   OH228816   4.167   1.687   4.809  0.1548 -0.5230  0.9024
 2442TIP3    H128817   4.195   1.686   4.717 -0.1991  0.8465  0.7541
 2442TIP3    H228818   4.072   1.698   4.804  0.3289  1.8697  1.3866
 2443TIP3   OH228819   2.378   4.885  13.716 -0.2845 -0.4665  0.8889
 2443TIP3    H128820   2.375   4.876  13.621 -3.1334  0.9008  0.7289
 2443TIP3    H228821   2.420   4.969  13.731 -0.9823 -0.0757  0.7250
 2444TIP3   OH228822   1.210   5.818  14.781  0.0625 -0.0822  0.6054
 2444TIP3    H128823   1.298   5.783  14.797  0.4143 -0.8698 -2.4462
 2444TIP3    H228824   1.192   5.797  14.689 -2.8172  1.2063  0.7672
 2445TIP3   OH228825   5.131   5.734  12.238 -0.8435  0.0913 -0.6434
 2445TIP3    H128826   5.113   5.723  12.331  0.4146 -0.7242 -0.4558
 2445TIP3    H228827   5.098   5.653  12.197 -0.8776  0.1904 -0.8137
 2446TIP3   OH228828   0.238   0.470   0.392 -0.4536 -0.7841  0.0384
 2446TIP3    H128829   0.244   0.524   0.313  0.5404  0.2808  0.7952
 2446TIP3    H228830   0.147   0.477   0.420 -0.1208  1.5160  0.7562
 2447TIP3   OH228831   3.818   4.552   1.504 -0.4553  0.1276  0.6215
 2447TIP3    H128832   3.725   4.567   1.523 -1.4493 -1.8507 -2.1242
 2447TIP3    H228833   3.819   4.476   1.448  2.9855 -0.5027  1.3243
 2448TIP3   OH228834   5.322   2.390  12.164 -0.5328  0.2684 -0.1729
 2448TIP3    H128835   5.416   2.378  12.176 -0.6237 -0.5001 -0.1309
 2448TIP3    H228836   5.314   2.466  12.107  0.1107  0.3872 -0.1133
 2449TIP3   OH228837   6.471   1.305   2.449 -0.1524 -0.3091 -0.8991
 2449TIP3    H128838   6.519   1.229   2.419 -1.8700 -2.1336  0.6969
 2449TIP3    H228839   6.442   1.349   2.369  0.4281 -1.6188 -1.8472
 2450TIP3   OH228840   1.847   5.480  10.933 -0.1328  0.0676 -0.1235
 2450TIP3    H128841   1.878   5.418  10.999 -1.4139 -1.7776 -1.1705
 2450TIP3    H228842   1.757   5.454  10.914  0.0739  0.6941 -2.3673
 2451TIP3   OH228843   5.502   1.345  11.578 -0.2506  0.1253  0.3410
 2451TIP3    H128844   5.456   1.274  11.535 -0.3847  0.6701 -0.4374
 2451TIP3    H228845   5.569   1.302  11.631 -1.2810 -0.6495  1.0609
 2452TIP3   OH228846   2.254   2.280   0.102  0.4822 -0.2978  0.2580
 2452TIP3    H128847   2.243   2.283   0.007  1.3480 -1.2857  0.1193
 2452TIP3    H228848   2.208   2.358   0.133 -1.0205 -0.6981 -0.8457
 2453TIP3   OH228849   1.681   0.287  13.968  0.0782 -0.0894  0.1895
 2453TIP3    H128850   1.761   0.248  13.935 -0.6547 -1.4385 -0.0693
 2453TIP3    H228851   1.687   0.280  14.063  2.0173  3.4495  0.4995
 2454TIP3   OH228852   6.335   2.821  13.656  0.3121  0.8904 -0.2545
 2454TIP3    H128853   6.249   2.786  13.635  0.1612  2.5536 -2.9295
 2454TIP3    H228854   6.320   2.880  13.730 -0.6384  0.4039 -0.0453
 2455TIP3   OH228855   4.969   5.237  14.138 -0.2612 -0.3861 -0.0590
 2455TIP3    H128856   4.994   5.315  14.089 -1.4980 -0.9556 -1.6880
 2455TIP3    H228857   5.035   5.230  14.207  0.5864  1.3887 -0.6194
 2456TIP3   OH228858   6.240   1.674  15.313  0.0632  0.4985  1.0718
 2456TIP3    H128859   6.190   1.606  15.268 -0.0888  0.5898  1.1020
 2456TIP3    H228860   6.178   1.746  15.324  1.0742  1.9631 -1.8758
 2457TIP3   OH228861   3.356   0.672  14.124 -0.1850  0.3775  0.0049
 2457TIP3    H128862   3.312   0.712  14.050 -0.6619  2.4079  1.2979
 2457TIP3    H228863   3.290   0.617  14.165 -0.8435  1.5709  0.5887
 2458TIP3   OH228864   2.451   2.185   0.317  0.6550  0.4361 -0.1438
 2458TIP3    H128865   2.400   2.146   0.388  0.1218  2.2748  0.5266
 2458TIP3    H228866   2.388   2.199   0.246  1.4156 -2.5817 -1.6126
 2459TIP3   OH228867   0.691   5.043   1.328 -0.1322 -0.3260 -0.0304
 2459TIP3    H128868   0.744   5.010   1.401  0.5799 -1.4369 -1.0145
 2459TIP3    H228869   0.637   4.968   1.302 -1.7611  0.5983  0.5313
 2460TIP3   OH228870   5.914   4.999  14.334  0.2854 -0.0859 -0.0423
 2460TIP3    H128871   5.888   4.948  14.410 -2.4437  0.2833 -0.6358
 2460TIP3    H228872   5.854   4.972  14.265  1.4520  0.9763 -1.5502
 2461TIP3   OH228873   5.469   2.669  14.544  0.0876 -0.1149 -0.1535
 2461TIP3    H128874   5.450   2.713  14.627 -0.2392  0.2738 -0.4315
 2461TIP3    H228875   5.398   2.695  14.486  1.2368  1.0167 -1.0832
 2462TIP3   OH228876   3.645   5.226  11.680 -0.0086 -0.1273 -0.1278
 2462TIP3    H128877   3.593   5.303  11.701 -0.6071 -0.9874  1.7878
 2462TIP3    H228878   3.735   5.251  11.701 -0.0721  0.3162 -0.3733
 2463TIP3   OH228879   0.992   6.692   5.263  0.1176  0.5959 -0.2826
 2463TIP3    H128880   0.897   6.700   5.249  0.2701  1.6934 -0.7751
 2463TIP3    H228881   1.009   6.742   5.342  0.2999  0.4685 -0.2398
 2464TIP3   OH228882   1.104   1.016  12.865  0.7894 -0.2334  0.4566
 2464TIP3    H128883   1.111   0.991  12.773  1.0282 -0.7090  0.6024
 2464TIP3    H228884   1.038   0.958  12.902 -1.0080  1.4817  0.0678
 2465TIP3   OH228885   4.060   3.978   2.043 -0.3569 -0.2468  0.0178
 2465TIP3    H128886   3.972   4.016   2.055  0.3328  1.1188  0.9449
 2465TIP3    H228887   4.118   4.036   2.092  0.7012 -2.9657  2.2060
 2466TIP3   OH228888   4.065   5.259  16.496 -0.2771 -0.0366 -0.2846
 2466TIP3    H128889   4.149   5.231  16.534  0.7210  2.6356 -0.2880
 2466TIP3    H228890   3.999   5.224  16.557  1.0516  0.6668  1.6683
 2467TIP3   OH228891   6.706   3.010  15.281 -0.0333  0.0234 -0.2548
 2467TIP3    H128892   6.765   3.072  15.239 -1.0100  0.8661 -0.4230
 2467TIP3    H228893   6.705   2.935  15.221  1.8175 -0.5651  0.3740
 2468TIP3   OH228894   1.147   5.812  11.044 -0.7334  0.1789 -0.0293
 2468TIP3    H128895   1.214   5.850  11.102 -0.0980  3.7936 -2.7557
 2468TIP3    H228896   1.198   5.764  10.978 -1.2932 -1.5705  0.7345
 2469TIP3   OH228897   2.776   5.836   0.468 -0.1641  0.6578 -0.2534
 2469TIP3    H128898   2.725   5.901   0.420  0.7765  1.8494  0.3110
 2469TIP3    H228899   2.724   5.756   0.463 -1.3060  1.4257 -1.0485
 2470TIP3   OH228900   6.364   1.315   1.151  0.1581 -0.3787  1.0275
 2470TIP3    H128901   6.419   1.366   1.210  0.2045 -0.5345  1.1188
 2470TIP3    H228902   6.424   1.253   1.110  0.0469 -0.5605  1.1402
 2471TIP3   OH228903   0.091   5.841   0.744  0.1089 -0.7635 -0.0559
 2471TIP3    H128904   0.117   5.929   0.716 -1.8382 -0.0779  0.0913
 2471TIP3    H228905   0.143   5.782   0.690 -0.7184  0.5004 -2.3659
 2472TIP3   OH228906   3.955   5.665  11.223 -0.0748 -0.1834  0.2173
 2472TIP3    H128907   4.023   5.715  11.177  0.3810 -0.3420  0.7073
 2472TIP3    H228908   3.954   5.702  11.311 -0.4475 -0.3600  0.2909
 2473TIP3   OH228909   1.689   1.296  15.906 -0.1031 -0.7231 -0.1854
 2473TIP3    H128910   1.761   1.304  15.844 -0.6258  0.8858 -0.6513
 2473TIP3    H228911   1.611   1.284  15.850 -0.3517 -1.1757  0.2498
 2474TIP3   OH228912   1.019   0.095  17.167 -0.2759  0.2247  0.2080
 2474TIP3    H128913   1.095   0.039  17.184  0.7270  1.7598  0.9663
 2474TIP3    H228914   1.050   0.184  17.181 -1.6257  1.0769 -1.6681
 2475TIP3   OH228915   4.992   1.784   0.605 -0.0850  0.4325  0.2102
 2475TIP3    H128916   5.003   1.776   0.700  0.7778  0.4393  0.1162
 2475TIP3    H228917   5.042   1.862   0.581 -0.6486  0.6786 -0.1962
 2476TIP3   OH228918   2.509   2.182   0.853  0.0631  0.1581  0.0032
 2476TIP3    H128919   2.474   2.102   0.893 -1.6686  1.0837  0.4192
 2476TIP3    H228920   2.604   2.168   0.853 -0.0764 -1.1931  1.5981
 2477TIP3   OH228921   1.062   5.275   1.386  0.6923 -0.0480 -0.1362
 2477TIP3    H128922   1.053   5.326   1.467  1.5422 -1.2788  0.7700
 2477TIP3    H228923   0.998   5.314   1.326  0.7080  1.4999  0.8004
 2478TIP3   OH228924   6.042   4.652   0.534  0.0803  0.0304 -0.2908
 2478TIP3    H128925   6.002   4.738   0.549 -0.3829  0.0174 -1.3795
 2478TIP3    H228926   6.132   4.672   0.509  0.5057  0.1004  1.1720
 2479TIP3   OH228927   2.346   4.470  12.412 -0.1104 -0.3060  0.5641
 2479TIP3    H128928   2.283   4.398  12.405 -0.3774 -0.0392  0.2589
 2479TIP3    H228929   2.375   4.486  12.323  0.4542 -0.4798  0.7098
 2480TIP3   OH228930   4.626   5.049  15.946  0.5186  0.0545 -0.0391
 2480TIP3    H128931   4.578   4.967  15.953 -2.0018  1.4848  0.8628
 2480TIP3    H228932   4.688   5.046  16.018  1.0585 -1.3825 -0.5288
 2481TIP3   OH228933   5.098   4.008   0.852 -0.2029  0.1899  0.2445
 2481TIP3    H128934   5.054   4.002   0.937  0.2995 -0.0567  0.4960
 2481TIP3    H228935   5.136   4.096   0.850 -2.4336  1.1951 -0.8560
 2482TIP3   OH228936   5.782   4.947  11.627  0.2043 -0.7443 -0.4043
 2482TIP3    H128937   5.874   4.959  11.652  0.4382  1.9280 -2.0935
 2482TIP3    H228938   5.733   4.961  11.708  1.1880  1.5240 -0.1203
 2483TIP3   OH228939   6.772   3.687  13.711  0.4074  0.2279 -0.0745
 2483TIP3    H128940   6.691   3.704  13.662  0.5729 -1.5358 -1.0589
 2483TIP3    H228941   6.827   3.639  13.649  1.4137 -0.3646  1.2363
 2484TIP3   OH228942   0.410   1.518   2.192  0.2568 -0.3001  0.3151
 2484TIP3    H128943   0.340   1.583   2.185  0.4025 -0.1187  0.5273
 2484TIP3    H228944   0.451   1.536   2.277  1.4516  0.4801 -0.3998
 2485TIP3   OH228945   4.882   4.750   3.610  0.2335 -0.5009 -0.5795
 2485TIP3    H128946   4.902   4.843   3.620  0.0395 -0.5758  0.7161
 2485TIP3    H228947   4.908   4.729   3.520  0.0703  0.8506 -0.9648
 2486TIP3   OH228948   3.979   6.571  10.985 -0.4386 -0.0563  0.0090
 2486TIP3    H128949   3.925   6.569  10.906 -0.1014  0.6822 -0.2498
 2486TIP3    H228950   4.066   6.594  10.954  0.0079 -1.1086  0.4439
 2487TIP3   OH228951   3.396   4.988  16.638 -0.1478 -0.2431 -0.0539
 2487TIP3    H128952   3.476   4.987  16.586 -1.1372 -0.7409 -1.6336
 2487TIP3    H228953   3.343   4.917  16.601 -1.8371  0.8982  0.0790
 2488TIP3   OH228954   3.774   0.378   6.481  0.3828 -0.5873 -0.3719
 2488TIP3    H128955   3.724   0.459   6.473  0.0969 -0.8034 -0.8536
 2488TIP3    H228956   3.772   0.358   6.575 -2.4886 -1.8285 -0.5810
 2489TIP3   OH228957   0.045   4.342   2.569  0.5082 -0.0659  0.1250
 2489TIP3    H128958  -0.040   4.387   2.567  0.8141  0.5800  1.0076
 2489TIP3    H228959   0.022   4.249   2.575 -0.1306 -0.0201 -1.2657
 2490TIP3   OH228960   3.390   2.538  17.010  0.1817 -0.4105  0.2457
 2490TIP3    H128961   3.343   2.622  17.016  0.4785 -0.2780  0.8350
 2490TIP3    H228962   3.331   2.481  16.962  0.6020  0.5700 -1.5210
 2491TIP3   OH228963   4.236   0.895  15.674  0.4078  0.1717  0.3125
 2491TIP3    H128964   4.327   0.923  15.667  0.2742  0.4949 -0.1592
 2491TIP3    H228965   4.241   0.804  15.705  0.8518  0.5723  1.4660
 2492TIP3   OH228966   2.128   6.582   2.487 -0.1749 -0.0460  0.0058
 2492TIP3    H128967   2.087   6.553   2.568 -2.0857  0.4306 -0.7343
 2492TIP3    H228968   2.056   6.591   2.425  1.3192 -1.3086 -2.0636
 2493TIP3   OH228969   0.779   3.933  15.433 -1.2597 -0.7001 -0.0196
 2493TIP3    H128970   0.766   4.006  15.494  1.2481 -0.1163 -0.0556
 2493TIP3    H228971   0.746   3.965  15.349 -2.0434 -0.3927  0.3977
 2494TIP3   OH228972   1.190   3.864   2.774 -0.3912 -0.3791  0.0150
 2494TIP3    H128973   1.127   3.793   2.760 -0.3977 -0.4219  0.2604
 2494TIP3    H228974   1.191   3.877   2.869  0.3484 -0.7187  0.0563
 2495TIP3   OH228975   0.764   2.319   0.543  0.2604 -0.0280  0.0456
 2495TIP3    H128976   0.752   2.337   0.636  1.8604  1.3380  0.0273
 2495TIP3    H228977   0.859   2.325   0.529 -0.1153  3.6636 -2.3612
 2496TIP3   OH228978   2.154   0.312  16.954 -0.3698 -0.6626 -0.1416
 2496TIP3    H128979   2.159   0.305  17.050  0.4342  0.7092 -0.0617
 2496TIP3    H228980   2.061   0.302  16.935 -0.3418 -2.8363  0.5892
 2497TIP3   OH228981   2.786   0.935   0.133  0.5799 -0.3258 -0.5017
 2497TIP3    H128982   2.868   0.914   0.179  0.1063 -2.4270 -0.5174
 2497TIP3    H228983   2.720   0.881   0.176 -0.6262  0.6167 -1.1222
 2498TIP3   OH228984   5.378   0.696  11.011 -0.0429  0.0935 -0.6351
 2498TIP3    H128985   5.306   0.634  11.024  1.1444 -1.2270  0.0065
 2498TIP3    H228986   5.339   0.770  10.966 -1.7107 -0.7591 -0.6565
 2499TIP3   OH228987   2.624   5.542   4.464 -0.0681 -0.7762  0.1669
 2499TIP3    H128988   2.600   5.566   4.374  1.9340 -0.1019 -0.2515
 2499TIP3    H228989   2.720   5.541   4.463  0.0123 -0.2257  2.4326
 2500TIP3   OH228990   2.182   3.615   4.762 -0.3288 -0.5117 -0.7319
 2500TIP3    H128991   2.177   3.556   4.686  0.4147 -0.8096 -0.5639
 2500TIP3    H228992   2.234   3.567   4.826 -0.2531  0.0702 -0.3463
 2501TIP3   OH228993   1.861   3.061  14.105  0.1481  0.3705 -0.4022
 2501TIP3    H128994   1.885   3.124  14.173  0.1905  0.6316 -0.6633
 2501TIP3    H228995   1.941   3.047  14.055  0.3912 -0.5923  0.2182
 2502TIP3   OH228996   1.733   2.464   2.384  0.2391  0.2670  0.3463
 2502TIP3    H128997   1.744   2.554   2.413 -0.8466  0.6321 -0.2814
 2502TIP3    H228998   1.798   2.453   2.314 -0.7137  1.1301 -0.7227
 2503TIP3   OH228999   5.641   5.551   0.760  0.3297  0.5017  0.1318
 2503TIP3    H129000   5.558   5.551   0.809  1.0507  2.9836  1.5547
 2503TIP3    H229001   5.674   5.640   0.770  1.5198  0.5953 -3.3606
 2504TIP3   OH229002   5.484   6.172   2.429 -0.0707  0.3548 -0.0499
 2504TIP3    H129003   5.535   6.107   2.476 -2.3348 -1.4375  0.0755
 2504TIP3    H229004   5.541   6.198   2.356  1.6516 -0.2631  1.0017
 2505TIP3   OH229005   1.559   0.354   6.158  0.0899 -0.5412 -0.4442
 2505TIP3    H129006   1.526   0.362   6.247  1.1866  0.2145 -0.0893
 2505TIP3    H229007   1.653   0.368   6.166  0.5128 -2.4616 -1.4397
 2506TIP3   OH229008   5.607   6.104   3.394  0.2081  0.5919  0.2980
 2506TIP3    H129009   5.639   6.144   3.313 -2.4657  0.2114 -1.0583
 2506TIP3    H229010   5.584   6.178   3.450  0.1568  0.8892 -0.1077
 2507TIP3   OH229011   4.330   4.903  12.966 -0.7413  0.2199 -0.1260
 2507TIP3    H129012   4.327   4.894  13.062 -0.5818  0.2033 -0.1217
 2507TIP3    H229013   4.337   4.997  12.951 -1.9836  0.3182 -0.1597
 2508TIP3   OH229014   1.422   1.170   6.583  0.1406  0.2189  0.4037
 2508TIP3    H129015   1.390   1.080   6.584  0.9528 -0.0719  1.5983
 2508TIP3    H229016   1.489   1.173   6.651  0.1445  1.7255  0.3702
 2509TIP3   OH229017   4.042   1.577   5.283 -0.8278  0.2623 -0.3935
 2509TIP3    H129018   4.056   1.502   5.341 -0.0662  0.0411 -0.8434
 2509TIP3    H229019   4.008   1.538   5.202  3.7023 -0.2604 -2.3271
 2510TIP3   OH229020   4.695   1.862   0.576  0.0257 -0.1066  0.1058
 2510TIP3    H129021   4.700   1.950   0.614  1.1767 -0.0160 -0.2007
 2510TIP3    H229022   4.777   1.820   0.602 -0.1230 -0.7827 -0.4773
 2511TIP3   OH229023   3.074   3.673  12.446  0.4143  0.5519  0.1394
 2511TIP3    H129024   2.998   3.630  12.406  0.4012  0.8579 -0.1715
 2511TIP3    H229025   3.037   3.745  12.496  0.3978 -0.0493  1.0259
 2512TIP3   OH229026   2.357   0.073   4.374  0.3003  0.3832  0.1858
 2512TIP3    H129027   2.333   0.037   4.289 -0.0515  0.1877  0.3637
 2512TIP3    H229028   2.368  -0.003   4.430  0.5064  0.5118  0.3220
 2513TIP3   OH229029   1.883   4.166  13.898  0.0270  0.3786  0.0662
 2513TIP3    H129030   1.810   4.166  13.960 -0.5801  2.1832 -0.5850
 2513TIP3    H229031   1.947   4.227  13.934  1.0272 -0.8047  0.3734
 2514TIP3   OH229032   1.680   2.137   3.771 -0.7629  0.0649 -0.2121
 2514TIP3    H129033   1.721   2.185   3.843 -0.6507  2.0460 -1.5162
 2514TIP3    H229034   1.747   2.131   3.704 -1.5898  0.4947 -1.1132
 2515TIP3   OH229035   6.232   5.382   6.084 -0.2920 -0.3739  0.5373
 2515TIP3    H129036   6.147   5.358   6.046  0.2662 -0.3407 -0.7835
 2515TIP3    H229037   6.210   5.414   6.172 -1.6698 -0.1503  0.1455
 2516TIP3   OH229038   0.104   1.504  14.028 -0.2288  0.6659  0.0476
 2516TIP3    H129039   0.060   1.587  14.048 -0.8778  1.2477 -3.2838
 2516TIP3    H229040   0.054   1.467  13.955  1.0287 -1.9006  0.3686
 2517TIP3   OH229041   1.610   3.628  13.899  0.0413 -0.1982 -0.1706
 2517TIP3    H129042   1.523   3.660  13.876 -0.3935 -1.6216 -0.5527
 2517TIP3    H229043   1.667   3.704  13.887 -1.1541  0.7964  0.2393
 2518TIP3   OH229044   5.324   4.250   4.573  0.5703  0.1187 -0.8140
 2518TIP3    H129045   5.275   4.171   4.550 -0.5540  0.5287  0.0109
 2518TIP3    H229046   5.359   4.282   4.490  1.5570 -1.5485 -1.0826
 2519TIP3   OH229047   5.591   6.546  11.602 -0.2865 -0.0353  0.0916
 2519TIP3    H129048   5.520   6.536  11.538  0.8973 -2.1465 -1.0207
 2519TIP3    H229049   5.641   6.621  11.570  0.5703 -1.3552 -1.8335
 2520TIP3   OH229050   0.011   4.595  14.140 -0.3025 -0.3070 -0.3558
 2520TIP3    H129051  -0.048   4.648  14.087 -0.2709 -0.0950 -0.1801
 2520TIP3    H229052  -0.046   4.531  14.183 -0.0450 -2.3387 -2.7980
 2521TIP3   OH229053   4.119   3.000   3.971  0.3097 -0.2258 -0.2309
 2521TIP3    H129054   4.061   3.075   3.959  0.8974  0.3854  0.6750
 2521TIP3    H229055   4.194   3.019   3.915 -0.5355 -1.2547 -1.7991
 2522TIP3   OH229056   2.187   4.950   5.816  0.1873 -0.7785  0.0727
 2522TIP3    H129057   2.117   4.904   5.863 -0.2970 -0.0919  0.0399
 2522TIP3    H229058   2.157   5.040   5.811  1.6333 -0.2061  1.1178
 2523TIP3   OH229059   2.673   3.392  12.630 -0.0278  0.0569 -1.1162
 2523TIP3    H129060   2.622   3.447  12.690 -1.5099 -0.4668 -1.8394
 2523TIP3    H229061   2.721   3.454  12.575  0.2420  0.5634 -0.3249
 2524TIP3   OH229062   3.678   3.017  10.632  0.2725 -0.1743 -0.1041
 2524TIP3    H129063   3.762   2.984  10.666  0.5870 -0.5849 -1.2434
 2524TIP3    H229064   3.701   3.097  10.586 -0.3743  1.2425  1.8928
 2525TIP3   OH229065   6.320   3.528  14.450  0.1602  0.0992  0.4804
 2525TIP3    H129066   6.354   3.439  14.445 -1.1026 -0.3421 -1.0354
 2525TIP3    H229067   6.298   3.551  14.360 -0.3539  1.6145  0.9622
 2526TIP3   OH229068   2.592   2.514   1.569  0.6324  0.0828  0.3940
 2526TIP3    H129069   2.683   2.538   1.551  0.2945 -0.1611 -2.0163
 2526TIP3    H229070   2.597   2.428   1.610  1.4982 -0.0255  0.0834
 2527TIP3   OH229071   1.705   2.911  12.217 -0.0455  0.0513  0.3446
 2527TIP3    H129072   1.634   2.874  12.166  0.7842 -1.0674 -0.0426
 2527TIP3    H229073   1.784   2.894  12.164  0.9490 -1.8374  2.2695
 2528TIP3   OH229074   4.983   6.462  12.220  0.2738 -0.3493  0.3115
 2528TIP3    H129075   4.986   6.383  12.274 -2.2944  0.8638  2.4923
 2528TIP3    H229076   4.898   6.458  12.177 -0.2647  1.5293  1.0976
 2529TIP3   OH229077   0.591   5.329   0.575  0.0117  0.2250  0.1164
 2529TIP3    H129078   0.645   5.278   0.635  1.1509 -0.4710 -1.4318
 2529TIP3    H229079   0.506   5.287   0.578  0.4867 -0.7760  0.0869
 2530TIP3   OH229080   6.273   4.918   2.945  0.1616 -0.0874  0.0006
 2530TIP3    H129081   6.227   4.942   2.864  1.1923 -2.4319 -1.4039
 2530TIP3    H229082   6.366   4.917   2.920  0.4228 -1.8008  0.9080
 2531TIP3   OH229083   2.645   2.540   2.387  0.4853 -0.1165 -0.6022
 2531TIP3    H129084   2.614   2.610   2.446  0.5726  0.3729 -1.1298
 2531TIP3    H229085   2.642   2.579   2.300  0.9395 -0.6392 -0.8562
 2532TIP3   OH229086   1.255   0.483   5.510 -0.1337  0.0476 -0.2031
 2532TIP3    H129087   1.324   0.417   5.516 -1.7884 -1.9306 -1.5444
 2532TIP3    H229088   1.297   0.558   5.468  1.4784 -0.6519  0.0922
 2533TIP3   OH229089   5.604   1.427  15.656  0.2012  0.3472  0.2874
 2533TIP3    H129090   5.657   1.468  15.724  0.3543  0.6221  0.0101
 2533TIP3    H229091   5.523   1.401  15.700 -0.4581  2.1111  0.2197
 2534TIP3   OH229092   4.725   1.169  11.678 -0.4318  0.1338 -0.3915
 2534TIP3    H129093   4.748   1.223  11.603 -0.7086  1.3953  0.3969
 2534TIP3    H229094   4.656   1.111  11.646 -0.9867  1.0832 -0.9467
 2535TIP3   OH229095   0.688   2.664  11.018  0.0440  0.2916  0.4496
 2535TIP3    H129096   0.723   2.711  11.093  0.6890  0.1809  0.2267
 2535TIP3    H229097   0.623   2.604  11.055 -0.1821  0.7672  0.8265
 2536TIP3   OH229098   2.226   1.956   4.496  0.3273  0.1150 -0.6249
 2536TIP3    H129099   2.280   1.930   4.421 -0.3402  0.5514 -1.2666
 2536TIP3    H229100   2.284   1.943   4.572  1.3647  0.6171 -1.2966
 2537TIP3   OH229101   0.471   0.839  17.040  0.4391  0.0599 -0.0478
 2537TIP3    H129102   0.510   0.860  16.955 -0.7725 -1.3610 -1.0085
 2537TIP3    H229103   0.501   0.750  17.059  0.7164  0.3680  1.0537
 2538TIP3   OH229104   1.680   3.885  16.843 -0.0169 -0.2124 -0.6876
 2538TIP3    H129105   1.629   3.832  16.781  0.6401 -1.3815 -0.2735
 2538TIP3    H229106   1.740   3.822  16.884  0.8918  0.8911 -0.2649
 2539TIP3   OH229107   2.615   1.831   3.241  0.2594  0.5766  0.3190
 2539TIP3    H129108   2.710   1.835   3.231  0.3022  0.2139  0.5838
 2539TIP3    H229109   2.599   1.853   3.332  0.1379 -0.0264  0.4463
 2540TIP3   OH229110   2.857   6.664  17.148 -0.4278  0.7277  0.1374
 2540TIP3    H129111   2.811   6.713  17.216 -1.0304  1.3893 -0.7143
 2540TIP3    H229112   2.949   6.677  17.168 -0.5902  1.5114  0.4171
 2541TIP3   OH229113   2.157   3.326   1.257  0.0699 -0.4223 -0.0699
 2541TIP3    H129114   2.209   3.406   1.257  0.3249 -0.5849 -0.3682
 2541TIP3    H229115   2.212   3.262   1.211 -0.6405 -0.4263 -0.9482
 2542TIP3   OH229116   3.935   1.757  13.615 -0.2228 -0.3783  0.0044
 2542TIP3    H129117   3.976   1.739  13.530  1.5907 -0.0650  0.7775
 2542TIP3    H229118   3.934   1.853  13.621  0.2100 -0.4034  0.5770
 2543TIP3   OH229119   5.968   3.379   0.601 -0.3168  0.3106  0.5900
 2543TIP3    H129120   5.982   3.433   0.679  0.3222 -1.2228  1.5916
 2543TIP3    H229121   6.050   3.385   0.552  0.6346 -1.4651  1.8500
 2544TIP3   OH229122   4.418   5.151  12.779  0.5966  0.1602  0.0006
 2544TIP3    H129123   4.357   5.213  12.741 -0.0360  0.6747  1.7635
 2544TIP3    H229124   4.399   5.068  12.735  0.1127  0.7780 -0.9849
 2545TIP3   OH229125   2.086   3.054  14.601 -0.2692 -0.5711 -0.3783
 2545TIP3    H129126   2.000   3.031  14.637 -0.8814 -3.1640 -3.0845
 2545TIP3    H229127   2.071   3.059  14.507  2.0065  1.9498 -0.7043
 2546TIP3   OH229128   5.168   5.353  15.179 -0.0411  0.8950  0.2281
 2546TIP3    H129129   5.234   5.423  15.182  1.2613 -0.3246  2.8026
 2546TIP3    H229130   5.126   5.356  15.264 -0.6371 -0.8426  0.0286
 2547TIP3   OH229131   4.009   5.728  11.581 -0.6533  0.0389  0.0318
 2547TIP3    H129132   4.056   5.799  11.537  0.2153 -0.6577 -0.1917
 2547TIP3    H229133   4.034   5.736  11.673 -1.1914  0.5058  0.1407
 2548TIP3   OH229134   0.467   0.235   4.846 -0.0202  0.0028 -0.5831
 2548TIP3    H129135   0.489   0.301   4.912  1.1453 -1.0592  0.1225
 2548TIP3    H229136   0.510   0.266   4.766 -0.2798  0.5743 -0.5110
 2549TIP3   OH229137   4.034   4.633   4.628  0.1647 -0.1191  0.0516
 2549TIP3    H129138   3.967   4.699   4.610 -0.5027 -1.4333 -2.8035
 2549TIP3    H229139   4.023   4.612   4.721 -2.2255  0.9256  0.0646
 2550TIP3   OH229140   5.266   3.536   5.655  0.1135  0.2659  0.5376
 2550TIP3    H129141   5.324   3.599   5.697  2.0332 -1.0774  0.0041
 2550TIP3    H229142   5.183   3.583   5.644  1.3205  2.4984  0.6106
 2551TIP3   OH229143   0.969   1.591  13.037 -0.1677  0.8175 -0.3816
 2551TIP3    H129144   1.051   1.579  12.989 -0.1783 -1.2644  0.0686
 2551TIP3    H229145   0.995   1.593  13.129 -0.6913 -0.9798 -0.1666
 2552TIP3   OH229146   6.406   1.430  15.342  0.3041  0.0504  0.4506
 2552TIP3    H129147   6.484   1.452  15.290  0.1509 -1.9896 -0.7251
 2552TIP3    H229148   6.357   1.512  15.346  0.8183  0.5467 -1.8043
 2553TIP3   OH229149   1.241   6.386  15.252 -0.2717  0.0297 -0.3384
 2553TIP3    H129150   1.204   6.474  15.257 -1.6630 -0.4631 -1.4490
 2553TIP3    H229151   1.183   6.333  15.306 -0.1873 -0.4369 -0.7016
 2554TIP3   OH229152   3.888   6.610   0.476 -0.0465  0.2585 -0.2596
 2554TIP3    H129153   3.812   6.651   0.435 -0.6730  0.7444  1.2916
 2554TIP3    H229154   3.885   6.641   0.567  1.3711 -0.6124  0.1115
 2555TIP3   OH229155   5.247   1.127   4.847  0.2470 -0.0619  0.0155
 2555TIP3    H129156   5.174   1.183   4.871  0.5210  0.4250 -0.2732
 2555TIP3    H229157   5.262   1.072   4.924  0.8268  1.1620  0.7981
 2556TIP3   OH229158   3.964   4.428   0.960 -0.2223 -0.1514 -0.0778
 2556TIP3    H129159   3.900   4.491   0.991 -0.8449 -0.7411 -0.1338
 2556TIP3    H229160   3.915   4.345   0.955 -0.7347  0.1768 -4.2285
 2557TIP3   OH229161   1.697   5.644   6.284 -0.1582  0.4759 -0.4414
 2557TIP3    H129162   1.636   5.709   6.319  0.1900  0.9063 -0.6447
 2557TIP3    H229163   1.691   5.571   6.346 -0.9025  0.4998 -0.4720
 2558TIP3   OH229164   3.479   6.092   5.386 -0.1274  0.0528  0.1874
 2558TIP3    H129165   3.527   6.086   5.468 -2.1581  0.1036  1.4410
 2558TIP3    H229166   3.434   6.176   5.390 -0.2419  0.0776 -1.0166
 2559TIP3   OH229167   4.115   2.634   3.930  0.5987  0.2356  0.2639
 2559TIP3    H129168   4.066   2.716   3.934  0.1590 -0.0193  0.1479
 2559TIP3    H229169   4.154   2.625   4.017 -1.5754 -0.7734  1.1997
 2560TIP3   OH229170   3.204   0.424  13.257  0.0411  0.5343 -0.2846
 2560TIP3    H129171   3.210   0.453  13.348  1.9079  0.9478 -0.4916
 2560TIP3    H229172   3.271   0.476  13.211 -0.8831  0.3620 -1.9052
 2561TIP3   OH229173   4.463   1.288   5.569 -0.4659  0.1249  0.0232
 2561TIP3    H129174   4.440   1.209   5.521  0.2475  0.2623 -0.5603
 2561TIP3    H229175   4.531   1.260   5.631 -1.9971 -0.2484  1.6409
 2562TIP3   OH229176   5.794   4.876   3.624  0.0820 -0.3040  0.0164
 2562TIP3    H129177   5.704   4.909   3.633  0.7487  1.3070  1.2516
 2562TIP3    H229178   5.795   4.833   3.539 -2.4283 -2.2608  0.8571
 2563TIP3   OH229179   0.916   5.358  16.735  0.1938 -0.1172  0.1089
 2563TIP3    H129180   0.995   5.404  16.764  0.9125 -2.6843  2.6730
 2563TIP3    H229181   0.846   5.395  16.789  0.1783  0.1840 -0.1183
 2564TIP3   OH229182   5.895   1.632  11.184 -0.3546 -0.8008  0.1974
 2564TIP3    H129183   5.813   1.630  11.135 -0.4487  0.7330  0.2493
 2564TIP3    H229184   5.948   1.699  11.140 -0.3962  0.5577  2.0989
 2565TIP3   OH229185   3.120   5.968  15.454 -0.0050  0.3830 -0.5402
 2565TIP3    H129186   3.105   5.977  15.548 -0.7603  0.5517 -0.6637
 2565TIP3    H229187   3.090   6.051  15.417 -0.3971  0.0421 -0.9996
 2566TIP3   OH229188   3.423   3.263  12.337  0.9243 -0.1464  0.2202
 2566TIP3    H129189   3.350   3.312  12.298 -0.7649 -2.3260  0.4806
 2566TIP3    H229190   3.482   3.246  12.264  0.4878  0.4094 -0.2739
 2567TIP3   OH229191   4.568   3.136  13.702 -0.5937 -0.1228  0.3684
 2567TIP3    H129192   4.646   3.131  13.645  1.1237  1.3832  2.4301
 2567TIP3    H229193   4.503   3.183  13.650  0.6476  0.5398 -0.6347
 2568TIP3   OH229194   0.873   4.520   5.203 -1.0251 -0.4276 -0.5298
 2568TIP3    H129195   0.959   4.520   5.247 -1.5555  0.0598  0.5536
 2568TIP3    H229196   0.887   4.572   5.124 -0.5612  0.5296  0.1585
 2569TIP3   OH229197   4.835   6.619   1.075 -0.9698 -0.2406 -0.4060
 2569TIP3    H129198   4.881   6.651   0.997 -2.2551  1.0517 -0.6800
 2569TIP3    H229199   4.769   6.686   1.093  0.4371  0.4283  2.9136
 2570TIP3   OH229200   1.539   0.203  11.086  1.1459  0.0407  0.6258
 2570TIP3    H129201   1.494   0.194  11.002  1.9818 -0.7386  0.2451
 2570TIP3    H229202   1.597   0.127  11.091  3.6891  1.8253  0.3340
 2571TIP3   OH229203   0.069   4.217   4.724 -0.0285  0.4748  0.2533
 2571TIP3    H129204   0.019   4.135   4.723 -0.2705  0.5270  2.7248
 2571TIP3    H229205   0.017   4.275   4.779 -0.2691  2.6193 -2.0885
 2572TIP3   OH229206   5.665   4.512   4.326 -0.0438  0.5275 -0.6335
 2572TIP3    H129207   5.651   4.470   4.241  0.8894  0.6719 -0.8725
 2572TIP3    H229208   5.588   4.567   4.339 -0.1520  0.5710 -1.4307
 2573TIP3   OH229209   4.680   5.226  12.831  0.7159 -0.4123  0.0996
 2573TIP3    H129210   4.696   5.239  12.738  2.9833 -0.4112  0.4333
 2573TIP3    H229211   4.586   5.212  12.837  0.0528  2.3990 -1.8389
 2574TIP3   OH229212   1.286   6.143   0.656 -0.6528  0.0966 -0.5508
 2574TIP3    H129213   1.377   6.141   0.626 -1.0730  2.1743 -2.2074
 2574TIP3    H229214   1.282   6.077   0.725  1.9942 -0.3551 -0.7281
 2575TIP3   OH229215   0.005   1.622   1.641  0.3591  0.6957 -0.7054
 2575TIP3    H129216   0.040   1.607   1.553  0.4562 -2.0215 -0.2935
 2575TIP3    H229217  -0.082   1.582   1.639  0.5874  0.0820  0.5477
 2576TIP3   OH229218   0.730   3.211  11.996  0.0481 -0.2673  0.4512
 2576TIP3    H129219   0.815   3.199  11.955 -0.2125 -0.5857 -0.0094
 2576TIP3    H229220   0.743   3.282  12.058  0.1677  1.1333 -1.0904
 2577TIP3   OH229221   4.908   6.366   2.764 -0.3611 -0.8149 -0.4648
 2577TIP3    H129222   4.937   6.457   2.770  0.9196 -1.2637  3.5877
 2577TIP3    H229223   4.812   6.372   2.763 -0.3314  0.6287  0.7977
 2578TIP3   OH229224   2.073   0.986  11.421  0.0666 -0.1630  0.2912
 2578TIP3    H129225   2.031   0.967  11.505 -0.8609  1.7806  0.3225
 2578TIP3    H229226   2.158   0.944  11.427 -0.9765 -2.3381  1.1156
 2579TIP3   OH229227   1.979   4.054  11.824 -0.6555  0.4746 -0.1845
 2579TIP3    H129228   1.968   3.962  11.799 -0.4286  0.5308 -0.4906
 2579TIP3    H229229   1.926   4.102  11.761  0.6818  0.6910 -1.1862
 2580TIP3   OH229230   4.376   6.498   1.609  0.0819  0.3610 -0.3963
 2580TIP3    H129231   4.433   6.466   1.539 -1.6629 -0.6962 -1.4084
 2580TIP3    H229232   4.404   6.450   1.687  0.4773 -0.2509 -0.9108
 2581TIP3   OH229233   4.657   0.240  15.841 -0.3873 -0.8336  0.0483
 2581TIP3    H129234   4.654   0.278  15.754  0.5246  0.0109  0.3648
 2581TIP3    H229235   4.567   0.212  15.858 -0.9056  0.4024 -0.5505
 2582TIP3   OH229236   5.156   4.971  16.736 -0.0190 -0.6247 -0.0252
 2582TIP3    H129237   5.069   4.978  16.775  0.3913 -1.3140  1.0470
 2582TIP3    H229238   5.217   4.990  16.807  0.7199 -0.0828 -0.7798
 2583TIP3   OH229239   1.911   4.935  12.026 -0.4239  0.5695  0.0404
 2583TIP3    H129240   1.938   4.970  11.941 -1.3735  1.0671 -0.0675
 2583TIP3    H229241   1.861   4.857  12.005 -0.8626  0.8249  0.1211
 2584TIP3   OH229242   4.293   1.154   1.663 -0.0608  0.0471  0.0807
 2584TIP3    H129243   4.294   1.065   1.626  1.7184  0.3581 -0.7645
 2584TIP3    H229244   4.363   1.200   1.615  2.1197  0.6490  3.4673
 2585TIP3   OH229245   5.592   0.832   2.226 -0.3169  0.2717 -0.6858
 2585TIP3    H129246   5.684   0.849   2.245 -0.4064 -0.9052  1.1008
 2585TIP3    H229247   5.564   0.772   2.296 -2.0992 -0.4230 -1.9182
 2586TIP3   OH229248   0.328   3.852  12.891  0.1255 -0.0449  0.1690
 2586TIP3    H129249   0.265   3.923  12.879  0.5996  0.2510 -0.6766
 2586TIP3    H229250   0.314   3.795  12.815 -0.3488 -0.9443  0.9120
 2587TIP3   OH229251   2.404   5.452   0.722  0.7473  0.1965  0.4327
 2587TIP3    H129252   2.377   5.505   0.797  2.4056  2.7021 -0.6098
 2587TIP3    H229253   2.405   5.513   0.648 -0.8853 -2.1774 -1.7282
 2588TIP3   OH229254   4.991   2.514  12.920 -0.0999 -0.1701  0.4648
 2588TIP3    H129255   5.055   2.555  12.979 -0.7372 -0.4915  1.4042
 2588TIP3    H229256   5.023   2.534  12.833  0.6294  0.7170  0.9131
 2589TIP3   OH229257   0.210   5.522   3.279 -0.2043 -0.2175  0.0336
 2589TIP3    H129258   0.178   5.578   3.208 -2.6597 -2.3125 -0.6839
 2589TIP3    H229259   0.152   5.540   3.352 -0.4608 -1.1608  0.0763
 2590TIP3   OH229260   2.827   4.396   1.960  0.2042  0.3091 -0.3051
 2590TIP3    H129261   2.823   4.431   1.871 -0.4741 -1.2430 -0.9270
 2590TIP3    H229262   2.910   4.427   1.995  0.7347  0.4942 -1.6760
 2591TIP3   OH229263   6.400   0.985   5.441  0.2863  0.1304 -0.0384
 2591TIP3    H129264   6.340   1.057   5.421  0.3941  0.2120 -0.0685
 2591TIP3    H229265   6.365   0.910   5.394  0.4579  0.2869 -0.4173
 2592TIP3   OH229266   2.581   3.913  12.906  0.4509 -0.1280  0.1651
 2592TIP3    H129267   2.506   3.860  12.932  0.8627  0.2780  2.3459
 2592TIP3    H229268   2.548   4.003  12.906  0.5018 -0.1012 -0.6377
 2593TIP3   OH229269   0.865   5.652  11.471 -0.4893  0.2417  0.1414
 2593TIP3    H129270   0.838   5.572  11.426  1.1043  0.5019 -1.3386
 2593TIP3    H229271   0.784   5.702  11.481 -1.1364 -0.5353 -1.0020
 2594TIP3   OH229272   0.325   4.207   2.740  0.0883  0.1403  0.1401
 2594TIP3    H129273   0.279   4.279   2.697  0.1998  0.0450 -0.1368
 2594TIP3    H229274   0.332   4.139   2.674  0.1523 -0.0537  0.3447
 2595TIP3   OH229275   1.457   1.900  15.043 -0.1628 -0.0016 -0.5434
 2595TIP3    H129276   1.516   1.872  14.973 -0.3022 -1.4739 -0.0914
 2595TIP3    H229277   1.443   1.822  15.096 -1.0415  0.7875  0.4332
 2596TIP3   OH229278   2.709   2.267  11.315 -0.0566 -0.0261  0.4851
 2596TIP3    H129279   2.793   2.229  11.343  0.8303  1.8487  0.5293
 2596TIP3    H229280   2.710   2.259  11.220 -0.0422 -0.4396  0.5199
 2597TIP3   OH229281   2.861   6.721  12.141 -0.6164  1.1265  0.2185
 2597TIP3    H129282   2.927   6.748  12.078  0.4395  0.0438  0.8299
 2597TIP3    H229283   2.886   6.764  12.222 -0.2531  0.1715  0.6225
 2598TIP3   OH229284   5.654   3.890  12.416 -0.4723  0.1329 -0.5788
 2598TIP3    H129285   5.596   3.835  12.363 -0.2340 -1.0498  0.3413
 2598TIP3    H229286   5.742   3.870  12.383 -0.3249 -0.6032  0.2216
 2599TIP3   OH229287   0.666   5.150   0.760  0.1023  0.0715  0.2710
 2599TIP3    H129288   0.683   5.168   0.852 -2.0450 -0.8201  0.8960
 2599TIP3    H229289   0.683   5.057   0.750 -0.5887 -0.0275 -0.0085
 2600TIP3   OH229290   6.493   2.510  13.504  0.1447  0.2890 -0.1209
 2600TIP3    H129291   6.467   2.428  13.462  0.8337  0.3800 -0.7389
 2600TIP3    H229292   6.517   2.484  13.594  0.0991 -0.1436 -0.2311
 2601TIP3   OH229293   0.786   2.763  14.379  0.4124  0.4539 -0.6361
 2601TIP3    H129294   0.824   2.787  14.463 -2.6606  0.2558  0.9782
 2601TIP3    H229295   0.819   2.829  14.318  2.3177  0.9215  0.8097
 2602TIP3   OH229296   4.970   3.634  16.378  0.0173 -0.6233 -0.0293
 2602TIP3    H129297   4.932   3.710  16.335 -0.2729 -1.4789 -1.3327
 2602TIP3    H229298   4.980   3.661  16.470 -0.1337  0.9461 -0.4442
 2603TIP3   OH229299   0.149   1.922   1.437 -0.5710 -0.0134  0.6350
 2603TIP3    H129300   0.157   1.998   1.380 -2.0448 -0.3792 -0.1138
 2603TIP3    H229301   0.062   1.887   1.418 -0.5936 -0.8934  2.2077
 2604TIP3   OH229302   5.075   5.472   2.068  0.4047  0.2598  0.0663
 2604TIP3    H129303   4.989   5.514   2.071  0.4886  0.4965 -0.5465
 2604TIP3    H229304   5.134   5.535   2.109  0.0999 -0.4306  1.6330
 2605TIP3   OH229305   1.191   2.915   0.759 -0.0951  0.4553  0.1132
 2605TIP3    H129306   1.267   2.903   0.815 -1.1932  0.8712  1.7773
 2605TIP3    H229307   1.136   2.839   0.777 -0.0687  0.1232 -1.1170
 2606TIP3   OH229308   0.850   4.271  16.613  0.1942 -0.1782  0.5694
 2606TIP3    H129309   0.822   4.324  16.688 -0.1713 -1.8117  1.6436
 2606TIP3    H229310   0.929   4.314  16.582 -0.4928  1.4075  0.9142
 2607TIP3   OH229311   3.898   4.000  10.797  0.0812 -0.2794  0.6558
 2607TIP3    H129312   3.894   3.980  10.891 -1.2651  0.4095  0.7761
 2607TIP3    H229313   3.923   4.092  10.793 -1.4572  0.1553  0.4260
 2608TIP3   OH229314   1.343   5.885   4.208 -0.5057  0.3793  0.0881
 2608TIP3    H129315   1.356   5.884   4.303  2.2546  0.0491 -0.1940
 2608TIP3    H229316   1.349   5.793   4.183  1.6663  0.6469 -0.6237
 2609TIP3   OH229317   4.267   1.826   5.498  0.2038 -0.2850  0.1125
 2609TIP3    H129318   4.348   1.848   5.452 -0.0106 -1.4561 -0.8899
 2609TIP3    H229319   4.198   1.863   5.444  0.0015 -0.5604  0.1818
 2610TIP3   OH229320   0.405   4.856   4.087 -0.0760  0.9857  0.1598
 2610TIP3    H129321   0.466   4.897   4.148 -0.5271 -0.9990  2.0467
 2610TIP3    H229322   0.319   4.891   4.113 -0.1969  0.6577  0.2014
 2611TIP3   OH229323   4.724   3.523   0.613  0.2247  0.0088 -0.1024
 2611TIP3    H129324   4.720   3.443   0.561 -2.1688 -1.2502  1.8461
 2611TIP3    H229325   4.635   3.535   0.647  1.1484  2.0062  1.8677
 2612TIP3   OH229326   1.228   1.528   0.511  0.7521  0.2018  0.5273
 2612TIP3    H129327   1.304   1.517   0.568  0.8341  0.9774  0.5865
 2612TIP3    H229328   1.216   1.623   0.506 -0.4522  0.0865  0.8448
 2613TIP3   OH229329   6.505   5.363   0.649  0.1073 -0.9646  0.0336
 2613TIP3    H129330   6.438   5.431   0.654 -0.2457 -1.0426 -2.4277
 2613TIP3    H229331   6.586   5.407   0.671 -0.3668 -0.1904  0.2656
 2614TIP3   OH229332   6.075   2.569   1.782 -0.7183 -1.0386  0.6156
 2614TIP3    H129333   5.989   2.541   1.814 -0.8944 -0.6381  0.4976
 2614TIP3    H229334   6.132   2.494   1.798 -2.0039 -3.1584 -3.3815
 2615TIP3   OH229335   6.354   5.290   2.894  0.1844  0.0769 -0.2943
 2615TIP3    H129336   6.335   5.374   2.853 -0.8110 -0.2225 -0.4814
 2615TIP3    H229337   6.334   5.225   2.826  1.2845 -0.3076 -0.2765
 2616TIP3   OH229338   3.529   0.206   5.360 -0.9760  0.2850 -0.0534
 2616TIP3    H129339   3.435   0.220   5.374 -0.8304  1.1769  0.1393
 2616TIP3    H229340   3.534   0.135   5.297 -1.7472 -1.4105  1.6946
 2617TIP3   OH229341   3.231   0.646  15.999 -0.4704 -0.7257  0.1718
 2617TIP3    H129342   3.273   0.685  16.076 -0.1536 -2.2691  0.8207
 2617TIP3    H229343   3.304   0.625  15.940 -0.7928  1.6382 -1.1904
 2618TIP3   OH229344   5.642   1.150   4.946 -0.1234 -0.0769 -0.1945
 2618TIP3    H129345   5.645   1.096   4.867  0.0464  0.8497 -0.8386
 2618TIP3    H229346   5.703   1.108   5.007  0.2601 -0.4246 -0.8133
 2619TIP3   OH229347   1.138   2.891  13.631 -0.0110 -0.6622 -0.2080
 2619TIP3    H129348   1.209   2.879  13.567  1.3122 -1.4381  1.3191
 2619TIP3    H229349   1.160   2.972  13.677 -1.3033  0.2392 -1.1111
 2620TIP3   OH229350   2.222   5.579  15.097 -0.5669  0.2902 -0.4335
 2620TIP3    H129351   2.191   5.544  15.013 -0.7695 -0.7751  0.0727
 2620TIP3    H229352   2.317   5.566  15.094 -0.3903  1.5332 -1.0587
 2621TIP3   OH229353   5.829   6.597  16.320 -0.0334 -0.3730 -0.1016
 2621TIP3    H129354   5.766   6.527  16.338 -0.4082 -0.3692 -1.3138
 2621TIP3    H229355   5.786   6.653  16.256  0.2396  1.0319  0.8936
 2622TIP3   OH229356   1.554   5.970  17.000 -0.2822  0.1469 -0.5002
 2622TIP3    H129357   1.490   5.935  17.061  0.6213  0.8605  0.9029
 2622TIP3    H229358   1.508   5.972  16.916 -2.0976  0.6615  0.4589
 2623TIP3   OH229359   2.059   2.673  12.065  0.3877  0.4704  0.4196
 2623TIP3    H129360   1.997   2.605  12.040  1.0567  0.7446 -2.2366
 2623TIP3    H229361   2.136   2.625  12.095  1.0096 -0.0364 -1.8239
 2624TIP3   OH229362   2.346   1.033  15.520 -0.0894 -0.3360  0.0832
 2624TIP3    H129363   2.260   0.998  15.545  0.6068 -3.5002 -1.5121
 2624TIP3    H229364   2.402   1.014  15.595 -0.6336  1.4878  1.0148
 2625TIP3   OH229365   5.025   1.175  13.859  0.5309  0.1011 -0.0465
 2625TIP3    H129366   4.963   1.129  13.802 -2.8544 -1.2589  4.1503
 2625TIP3    H229367   4.997   1.266  13.856  0.2543  0.0070 -0.3783
 2626TIP3   OH229368   1.858   4.117  12.173  0.9207  1.1232 -0.3253
 2626TIP3    H129369   1.893   4.199  12.137  3.9163  0.2086  0.2697
 2626TIP3    H229370   1.908   4.048  12.129 -1.6243 -0.4781 -0.9151
 2627TIP3   OH229371   1.139   0.681  13.961  0.1485 -0.0141 -0.0213
 2627TIP3    H129372   1.066   0.619  13.964 -0.5620  0.5505 -2.9449
 2627TIP3    H229373   1.213   0.632  13.995 -0.8040 -1.8398 -0.4468
 2628TIP3   OH229374   1.241   6.280   2.456  0.1184 -0.9873  0.2917
 2628TIP3    H129375   1.171   6.217   2.470 -0.5689  0.0293  1.6182
 2628TIP3    H229376   1.245   6.331   2.537  0.5751  0.7413 -0.7565
 2629TIP3   OH229377   3.022   3.826  15.781 -0.1216  0.1782  0.0734
 2629TIP3    H129378   3.106   3.841  15.737 -0.7032  0.7918 -0.8462
 2629TIP3    H229379   2.956   3.848  15.716 -1.0084  0.1546  0.9388
 2630TIP3   OH229380   3.265   1.821  14.880 -0.1229  0.1899 -0.0678
 2630TIP3    H129381   3.240   1.879  14.808 -0.5410 -0.5170 -0.5142
 2630TIP3    H229382   3.183   1.803  14.926 -0.1359 -0.6110 -0.3782
 2631TIP3   OH229383   0.259   4.605  12.682 -0.0145 -0.3657 -0.4407
 2631TIP3    H129384   0.245   4.691  12.643  1.0540  0.8945  1.7338
 2631TIP3    H229385   0.278   4.547  12.608  1.2148  1.6906 -1.8481
 2632TIP3   OH229386   4.788   2.958  13.110  0.5863  0.1007  0.4704
 2632TIP3    H129387   4.759   3.046  13.086  2.0325  0.1058 -1.6039
 2632TIP3    H229388   4.713   2.919  13.154 -0.7037  1.7810 -0.1122
 2633TIP3   OH229389   3.144   4.005  11.818  0.3597 -0.4169 -0.5202
 2633TIP3    H129390   3.098   3.945  11.760 -0.4486  0.0023 -0.3264
 2633TIP3    H229391   3.236   3.983  11.807  0.0780 -1.6766 -0.4636
 2634TIP3   OH229392   6.309   0.238   5.255  0.5940  0.5688  0.0597
 2634TIP3    H129393   6.214   0.234   5.243  0.2108  1.7076  2.3477
 2634TIP3    H229394   6.342   0.167   5.200 -1.5573  0.1846 -0.8530
 2635TIP3   OH229395   2.345   1.303  15.487  0.2599  0.1658  0.7808
 2635TIP3    H129396   2.438   1.314  15.471  0.3350  1.0061  1.6742
 2635TIP3    H229397   2.336   1.213  15.518  0.4008 -0.7463 -1.6612
 2636TIP3   OH229398   0.073   0.838   0.932 -0.0957  0.0260 -0.3352
 2636TIP3    H129399   0.160   0.802   0.914 -0.0820 -0.2050  0.2050
 2636TIP3    H229400   0.087   0.933   0.934  0.1947 -0.0245  0.0281
 2637TIP3   OH229401   2.446   1.636   0.718  0.1745 -0.5172 -0.0285
 2637TIP3    H129402   2.352   1.620   0.722  0.1258 -0.0748  2.7433
 2637TIP3    H229403   2.482   1.556   0.680 -1.1930 -1.5005  0.6397
 2638TIP3   OH229404   4.921   0.302   2.577 -0.2770  0.5174  0.1707
 2638TIP3    H129405   4.877   0.311   2.661  0.2240  0.8288  0.4025
 2638TIP3    H229406   4.977   0.225   2.589  1.4735  1.8307  0.8919
 2639TIP3   OH229407   3.909   0.840   0.691 -0.3370 -0.4436 -0.0951
 2639TIP3    H129408   3.840   0.858   0.755 -0.0432  0.7751 -0.0939
 2639TIP3    H229409   3.863   0.841   0.606 -0.8348 -2.6664  0.1023
 2640TIP3   OH229410   0.508   1.625  17.199  0.1359 -0.3334  0.2130
 2640TIP3    H129411   0.598   1.627  17.230  0.3391  0.7146 -0.3923
 2640TIP3    H229412   0.457   1.662  17.271  0.5430  1.6222 -0.4436
 2641TIP3   OH229413   6.445   0.879   5.000 -0.0480  0.0012  0.0292
 2641TIP3    H129414   6.533   0.903   4.972  0.5196 -1.8929  0.0029
 2641TIP3    H229415   6.405   0.961   5.029  1.4401  1.0252 -0.6964
 2642TIP3   OH229416   3.847   4.128   4.416 -0.6245  0.6011  0.3741
 2642TIP3    H129417   3.809   4.058   4.470 -0.2433  1.0723  1.2834
 2642TIP3    H229418   3.772   4.176   4.382 -0.9081 -0.5189 -0.6517
 2643TIP3   OH229419   6.298   2.908  14.450 -0.1849  0.1052 -0.6511
 2643TIP3    H129420   6.240   2.883  14.523 -1.7329  0.1054 -1.8231
 2643TIP3    H229421   6.386   2.891  14.483 -0.7880  0.6042  1.4170
 2644TIP3   OH229422   1.059   4.908   0.328 -0.1730 -0.0431  0.0371
 2644TIP3    H129423   1.044   4.836   0.389 -0.1548  0.7314  0.9729
 2644TIP3    H229424   1.030   4.986   0.375  3.7686  1.1833  0.7870
 2645TIP3   OH229425   5.037   6.011  13.596 -0.2233 -0.2751 -0.2944
 2645TIP3    H129426   4.977   6.016  13.670 -1.8203 -1.6085 -1.4209
 2645TIP3    H229427   5.033   6.097  13.554 -0.1412  0.1306  0.5178
 2646TIP3   OH229428   2.639   0.554   5.954  0.8280  0.2043  0.3075
 2646TIP3    H129429   2.612   0.637   5.914  2.1735 -0.8648 -3.2287
 2646TIP3    H229430   2.707   0.579   6.017 -0.9496  1.9612  1.6598
 2647TIP3   OH229431   2.518   1.494  16.490  0.3661 -0.8873  0.3756
 2647TIP3    H129432   2.545   1.514  16.401 -2.1899 -2.6932 -0.9298
 2647TIP3    H229433   2.576   1.423  16.518  2.0648  0.5788  0.7518
 2648TIP3   OH229434   6.734   1.530   2.796  0.2257  0.2707 -0.4797
 2648TIP3    H129435   6.719   1.491   2.710  1.4781  1.0579 -1.0862
 2648TIP3    H229436   6.829   1.528   2.807  0.1319  0.7797  0.6090
 2649TIP3   OH229437   3.244   0.014  17.092  0.1792  0.2668 -0.5228
 2649TIP3    H129438   3.181   0.054  17.032 -0.9002  0.3359  0.6266
 2649TIP3    H229439   3.195  -0.001  17.173  1.0062 -1.8499 -0.3585
 2650TIP3   OH229440   2.133   5.428   0.525  0.2428 -0.1187 -0.0792
 2650TIP3    H129441   2.083   5.425   0.443  2.9444 -0.5099 -1.8323
 2650TIP3    H229442   2.113   5.346   0.569  0.9020 -1.2351 -1.7706
 2651TIP3   OH229443   6.574   2.125   6.450  0.0395  0.0046 -0.0263
 2651TIP3    H129444   6.569   2.032   6.473 -0.2244  0.2036  0.7387
 2651TIP3    H229445   6.668   2.143   6.440  0.0465 -1.3340 -4.4101
 2652TIP3   OH229446   1.022   6.105  13.860 -0.7059  0.3975  0.1737
 2652TIP3    H129447   0.936   6.111  13.819 -1.2965  0.6261  1.4163
 2652TIP3    H229448   1.046   6.013  13.852 -0.0128  0.6995 -2.1946
 2653TIP3   OH229449   0.941   5.825  11.886 -0.0888 -0.3192  0.2400
 2653TIP3    H129450   0.950   5.825  11.791  1.0306 -0.0927  0.3300
 2653TIP3    H229451   0.859   5.871  11.903 -0.3023 -0.3776 -0.6147
 2654TIP3   OH229452   5.442   4.332   5.255 -0.1951  0.3879  0.0310
 2654TIP3    H129453   5.536   4.323   5.267 -0.1800  0.7922  0.2504
 2654TIP3    H229454   5.421   4.272   5.184  0.2475  0.3813 -0.0989
 2655TIP3   OH229455   1.052   2.386   0.744  0.1435 -0.1726  0.5266
 2655TIP3    H129456   1.144   2.363   0.758  0.7573  1.0134 -1.2595
 2655TIP3    H229457   1.054   2.481   0.730 -1.5396  0.0748  1.7147
 2656TIP3   OH229458   5.843   5.072  13.459  0.3226 -0.1932  0.1435
 2656TIP3    H129459   5.755   5.052  13.429  0.0316 -1.8863  1.9074
 2656TIP3    H229460   5.832   5.145  13.520  0.5907  1.5306 -1.7456
 2657TIP3   OH229461   0.597   4.985   3.576 -0.4405 -0.3548  0.0058
 2657TIP3    H129462   0.538   5.005   3.649  1.4004  2.7258  0.8298
 2657TIP3    H229463   0.578   5.054   3.512  1.9478  0.5324  0.1613
 2658TIP3   OH229464   3.586   0.773   1.527 -0.0047  0.5662  0.5877
 2658TIP3    H129465   3.595   0.741   1.437  1.8331  0.1413  0.8747
 2658TIP3    H229466   3.531   0.708   1.571  0.3373 -0.0324  0.1416
 2659TIP3   OH229467   6.645   6.818  12.073  0.4720 -0.0554  0.8274
 2659TIP3    H129468   6.608   6.770  12.147 -0.2546  1.2027  1.2987
 2659TIP3    H229469   6.583   6.803  12.002  0.0455  0.4941  1.0818
 2660TIP3   OH229470   1.217   0.604  16.596  0.5874  0.1206 -0.0667
 2660TIP3    H129471   1.156   0.534  16.619 -0.1063  0.4907 -0.7345
 2660TIP3    H229472   1.304   0.570  16.620  0.2361 -0.8673 -0.1651
 2661TIP3   OH229473   6.535   5.449   6.069  0.0945  0.1255  0.5025
 2661TIP3    H129474   6.604   5.403   6.116  1.3757  2.9318  1.6118
 2661TIP3    H229475   6.469   5.467   6.137 -0.2788  0.1173  0.1419
 2662TIP3   OH229476   3.367   3.311   2.276 -0.2325 -0.0884  0.5255
 2662TIP3    H129477   3.312   3.386   2.298 -2.6566 -1.3969 -0.7478
 2662TIP3    H229478   3.456   3.342   2.293 -0.9073  3.7750 -1.7403
 2663TIP3   OH229479   6.137   1.809  14.974  0.0387 -0.3197  1.1795
 2663TIP3    H129480   6.184   1.726  14.981  0.1010 -0.3036  0.9613
 2663TIP3    H229481   6.176   1.864  15.042  0.7347 -0.1174  0.6371
 2664TIP3   OH229482   2.809   2.358   4.206  0.1735 -0.4925 -0.6747
 2664TIP3    H129483   2.828   2.418   4.277 -2.0702  1.5370 -1.6285
 2664TIP3    H229484   2.790   2.274   4.249  1.5327 -0.0645  0.8334
 2665TIP3   OH229485   3.049   0.819  16.418  0.1306 -0.5150 -0.0057
 2665TIP3    H129486   3.124   0.775  16.458  0.5949 -0.4931 -0.8298
 2665TIP3    H229487   3.084   0.858  16.338 -0.6148  0.0730 -0.0529
 2666TIP3   OH229488   4.902   2.889  15.017 -0.1120 -0.3691 -0.4071
 2666TIP3    H129489   4.962   2.903  15.090 -2.0481  0.3199  1.1336
 2666TIP3    H229490   4.866   2.802  15.031 -1.3803  0.2149  0.2232
 2667TIP3   OH229491   1.383   0.507  12.630  0.7700 -0.1285  0.5533
 2667TIP3    H129492   1.411   0.420  12.658  1.1155 -0.2617 -0.1597
 2667TIP3    H229493   1.300   0.492  12.585  1.5979 -0.3393 -0.9726
 2668TIP3   OH229494   5.073   1.621   3.567 -0.2376  0.0453 -0.5038
 2668TIP3    H129495   5.048   1.713   3.558 -0.4343 -0.1476 -2.3314
 2668TIP3    H229496   5.162   1.616   3.532 -1.0762 -0.8098 -2.7064
 2669TIP3   OH229497   3.572   5.758  13.288  0.6570 -0.0429  0.0487
 2669TIP3    H129498   3.525   5.746  13.371  0.2546 -2.3588 -0.4309
 2669TIP3    H229499   3.506   5.738  13.221  1.4732 -0.0865 -0.7528
 2670TIP3   OH229500   6.361   3.725  11.994 -0.0604 -0.4477  0.3081
 2670TIP3    H129501   6.307   3.709  11.916 -1.6370  1.1411  1.0156
 2670TIP3    H229502   6.399   3.811  11.979  2.0130 -1.3545  0.0355
 2671TIP3   OH229503   0.953   2.329   1.110  0.2022  0.1208 -0.8159
 2671TIP3    H129504   0.920   2.373   1.188  0.0530 -1.3072 -0.0334
 2671TIP3    H229505   1.031   2.379   1.085 -0.2158  1.0807 -0.2398
 2672TIP3   OH229506   6.758   2.060  15.785  0.0612  0.3846 -0.2813
 2672TIP3    H129507   6.713   1.975  15.785 -1.3147  1.0651 -0.9790
 2672TIP3    H229508   6.848   2.040  15.808 -0.7152 -0.9852  1.8740
 2673TIP3   OH229509   0.811   6.104  12.768  0.4686  0.2739  0.1862
 2673TIP3    H129510   0.807   6.033  12.704 -1.3903  0.8754 -0.4297
 2673TIP3    H229511   0.894   6.148  12.750 -0.2574  0.8024 -2.2905
 2674TIP3   OH229512   1.874   6.297   3.002 -0.6732 -0.0374  0.1383
 2674TIP3    H129513   1.788   6.285   3.042 -0.5599  0.6950  0.6286
 2674TIP3    H229514   1.858   6.356   2.928 -0.2852  1.9744  1.5781
 2675TIP3   OH229515   0.682   1.796  13.495  0.4515 -0.0509 -0.0860
 2675TIP3    H129516   0.633   1.744  13.433  3.4509 -1.0806 -1.7677
 2675TIP3    H229517   0.629   1.794  13.575 -2.7754  0.0375 -2.0327
 2676TIP3   OH229518   5.169   0.083   2.408  0.0347 -0.1883  0.4805
 2676TIP3    H129519   5.253   0.038   2.419 -0.1139 -0.3740  0.8685
 2676TIP3    H229520   5.189   0.175   2.426  0.8926  0.3828 -2.7788
 2677TIP3   OH229521   4.758   2.114   0.671 -0.1416  0.1365 -0.0612
 2677TIP3    H129522   4.702   2.176   0.718 -1.5875 -0.2555 -1.2020
 2677TIP3    H229523   4.816   2.078   0.739 -2.2390 -0.5209  1.4955
 2678TIP3   OH229524   4.055   2.130   2.365  0.5526  0.1754  0.2101
 2678TIP3    H129525   4.050   2.150   2.458  1.8352  0.8777  0.1544
 2678TIP3    H229526   4.071   2.214   2.322 -0.2114 -0.1085 -0.6756
 2679TIP3   OH229527   0.044   3.583   6.468 -0.9386  0.1409  0.6792
 2679TIP3    H129528   0.076   3.673   6.466 -1.6227  0.3822  0.0147
 2679TIP3    H229529  -0.035   3.586   6.522  0.1947 -0.4789  2.4492
 2680TIP3   OH229530   5.611   4.041  17.187  0.1446  0.6450 -0.3845
 2680TIP3    H129531   5.648   3.987  17.118  1.1921  2.7697 -1.5720
 2680TIP3    H229532   5.517   4.046  17.167 -0.1894 -1.5947  0.4135
 2681TIP3   OH229533   5.337   6.774  15.555 -0.1521 -0.6403 -0.3147
 2681TIP3    H129534   5.391   6.852  15.539 -0.9687 -0.4863 -2.6170
 2681TIP3    H229535   5.313   6.781  15.648  2.6156 -0.0293  0.4720
 2682TIP3   OH229536   5.320   0.579   1.103  0.1548  0.1809  0.2926
 2682TIP3    H129537   5.264   0.501   1.104 -0.5870  0.7020  0.9481
 2682TIP3    H229538   5.266   0.647   1.143  0.2782  1.3978 -1.5398
 2683TIP3   OH229539   2.842   6.257   1.808  0.5624  0.2831  0.3392
 2683TIP3    H129540   2.847   6.259   1.713  0.7837 -0.4040  0.3242
 2683TIP3    H229541   2.931   6.275   1.837  0.2515  1.7327  0.4606
 2684TIP3   OH229542   4.914   0.818  15.381  0.7882  0.1388  0.0262
 2684TIP3    H129543   4.832   0.858  15.353  0.6027  0.3600  0.8385
 2684TIP3    H229544   4.957   0.791  15.300  0.0468  0.2797 -0.4254
 2685TIP3   OH229545   5.445   3.999   4.104 -0.3286  0.0940  0.3684
 2685TIP3    H129546   5.516   3.988   4.040  1.6279  2.6585  1.9288
 2685TIP3    H229547   5.435   3.912   4.144  1.7016 -0.4103 -0.1251
 2686TIP3   OH229548   2.847   4.493   3.138  0.2270  0.1798  0.1627
 2686TIP3    H129549   2.903   4.423   3.170 -1.8827 -0.8837  1.8012
 2686TIP3    H229550   2.821   4.541   3.217 -1.4413  0.4004 -0.4762
 2687TIP3   OH229551   3.124   1.800   1.016  0.3059 -0.5841  0.4256
 2687TIP3    H129552   3.035   1.833   1.028  0.6677  1.0820 -1.1074
 2687TIP3    H229553   3.181   1.871   1.046  1.1090  0.1712 -2.5624
 2688TIP3   OH229554   3.248   3.035   2.728  0.0164  0.0033 -0.2344
 2688TIP3    H129555   3.291   3.086   2.659 -2.4391 -1.3178 -2.9603
 2688TIP3    H229556   3.287   2.948   2.721  0.2149  0.0300  0.5132
 2689TIP3   OH229557   6.341   4.747   6.337 -0.0314 -0.5591  0.5438
 2689TIP3    H129558   6.364   4.657   6.312  2.0157 -0.1129  0.6672
 2689TIP3    H229559   6.423   4.796   6.328 -1.2326  1.4194 -0.0038
 2690TIP3   OH229560   0.988   3.163   0.377 -0.7491 -0.0085 -0.3254
 2690TIP3    H129561   1.083   3.152   0.376 -0.6108  1.1219 -0.7642
 2690TIP3    H229562   0.973   3.243   0.327 -1.9687 -0.4200 -0.6379
 2691TIP3   OH229563   1.952   1.764  17.016 -0.2086  0.0206  0.7042
 2691TIP3    H129564   1.926   1.798  16.930 -0.2960 -0.5960  0.4821
 2691TIP3    H229565   1.881   1.789  17.075 -0.8873 -0.8752  0.2856
 2692TIP3   OH229566   6.419   5.153  16.470  0.6179 -0.1121 -0.0112
 2692TIP3    H129567   6.465   5.210  16.408  2.3970 -2.6398 -1.2114
 2692TIP3    H229568   6.433   5.065  16.435 -0.4966 -1.4361  2.6566
 2693TIP3   OH229569   5.501   4.076  14.644 -0.5533  0.2512  0.6962
 2693TIP3    H129570   5.503   4.160  14.690  1.2362  0.6690 -0.0624
 2693TIP3    H229571   5.583   4.033  14.670 -1.7539 -1.5904  1.6209
 2694TIP3   OH229572   2.245   2.124  11.771  0.1156  0.4302  0.2314
 2694TIP3    H129573   2.174   2.163  11.822 -0.4249 -1.1438  0.7584
 2694TIP3    H229574   2.304   2.088  11.837  0.3985  0.0531 -0.2231
 2695TIP3   OH229575   0.259   5.115   3.960 -0.2730 -0.2428  0.4262
 2695TIP3    H129576   0.188   5.082   4.015  0.7776 -0.7788  1.5217
 2695TIP3    H229577   0.231   5.202   3.934 -2.5061 -1.3599 -1.3668
 2696TIP3   OH229578   1.334   2.298  13.448  0.2676  1.0577 -0.1501
 2696TIP3    H129579   1.410   2.256  13.408  1.1324  2.5796 -0.1899
 2696TIP3    H229580   1.357   2.391  13.451 -1.3565  1.4748  0.3899
 2697TIP3   OH229581   4.464   2.295  16.263  0.6398  0.2299 -0.3234
 2697TIP3    H129582   4.378   2.300  16.222 -0.0094  1.8774  1.1357
 2697TIP3    H229583   4.523   2.268  16.192 -1.1003 -1.3554 -1.2547
 2698TIP3   OH229584   4.367   4.633   6.374 -0.2576  0.2028 -0.3906
 2698TIP3    H129585   4.420   4.713   6.381 -2.1545  1.5235 -0.1680
 2698TIP3    H229586   4.420   4.566   6.416  0.3256  1.9568  1.9315
 2699TIP3   OH229587   4.252   1.328   3.148  0.7196  0.2863 -0.7131
 2699TIP3    H129588   4.186   1.279   3.198  0.9552 -0.2959 -0.9621
 2699TIP3    H229589   4.297   1.381   3.213  1.2992 -0.7717 -0.2370
 2700TIP3   OH229590   0.620   2.920  14.113  0.4783 -0.4391  0.3995
 2700TIP3    H129591   0.716   2.916  14.110  0.7227  2.5108  1.0645
 2700TIP3    H229592   0.601   2.959  14.198 -1.1925  0.7153 -0.4550
 2701TIP3   OH229593   0.747   5.244   2.682 -0.0578  0.3718 -0.8698
 2701TIP3    H129594   0.785   5.222   2.597 -1.9136 -2.4659 -1.0962
 2701TIP3    H229595   0.666   5.289   2.660 -0.5760 -0.4323 -0.6291
 2702TIP3   OH229596   5.484   6.376  14.830  0.1572 -0.2906  0.0590
 2702TIP3    H129597   5.490   6.460  14.783  1.3380 -1.4449 -1.9764
 2702TIP3    H229598   5.568   6.368  14.875 -1.0480  0.9155  2.7646
 2703TIP3   OH229599   5.988   2.614   5.483  0.3828  0.2182  0.0372
 2703TIP3    H129600   5.951   2.697   5.454 -0.5039 -0.8709 -2.1940
 2703TIP3    H229601   6.070   2.606   5.433  0.9318  0.1377  0.9234
 2704TIP3   OH229602   6.309   0.867  14.220  0.3801 -0.1074  0.3152
 2704TIP3    H129603   6.368   0.855  14.294 -1.4717  0.2618  1.9305
 2704TIP3    H229604   6.231   0.817  14.242 -1.0917  1.7430 -0.3368
 2705TIP3   OH229605   6.033   5.440  13.395 -0.0424 -0.2631 -0.8834
 2705TIP3    H129606   6.032   5.410  13.486  0.3332 -0.1386 -0.8355
 2705TIP3    H229607   6.082   5.374  13.348 -0.1969 -0.3035 -0.9873
 2706TIP3   OH229608   1.633   5.366   2.628 -0.1920 -0.0626  0.0075
 2706TIP3    H129609   1.571   5.339   2.696  0.2890 -0.1011  0.4430
 2706TIP3    H229610   1.657   5.456   2.652 -0.8802  0.3286 -0.7603
 2707TIP3   OH229611   1.443   1.431  16.601  0.1630  0.2298 -0.8002
 2707TIP3    H129612   1.452   1.339  16.577 -0.1667  0.0562 -0.2711
 2707TIP3    H229613   1.401   1.471  16.524  1.0996  0.1211 -1.3790
 2708TIP3   OH229614   5.859   0.582   1.472 -0.0642 -0.1590  0.6891
 2708TIP3    H129615   5.825   0.511   1.526 -2.2832  0.1407 -0.2198
 2708TIP3    H229616   5.884   0.539   1.390 -4.9071  0.3631 -1.3688
 2709TIP3   OH229617   1.165   3.792   3.509 -0.0741  0.6019 -0.1241
 2709TIP3    H129618   1.255   3.762   3.498 -0.5147 -0.3206 -1.3056
 2709TIP3    H229619   1.111   3.724   3.469 -1.3647  0.7145  1.3354
 2710TIP3   OH229620   4.052   4.930  15.317 -0.3079 -0.7225 -0.2639
 2710TIP3    H129621   4.061   4.849  15.368  1.2474  0.5258  1.5734
 2710TIP3    H229622   4.143   4.956  15.299 -0.7980  0.3899 -1.2282
 2711TIP3   OH229623   3.450   6.020  17.110 -0.2649 -0.2010  0.1974
 2711TIP3    H129624   3.444   5.934  17.070  1.5263 -0.6465  0.8027
 2711TIP3    H229625   3.365   6.033  17.152  0.1750 -2.7300  2.1035
 2712TIP3   OH229626   3.205   2.380  15.804  0.0583  0.0793 -0.4759
 2712TIP3    H129627   3.297   2.357  15.821 -0.1131 -1.0081 -0.9765
 2712TIP3    H229628   3.157   2.340  15.877  0.0915  1.8702  0.6071
 2713TIP3   OH229629   2.152   1.013   3.979 -0.2197  0.6875  0.6087
 2713TIP3    H129630   2.074   0.988   4.029 -0.7912  0.3867 -0.4148
 2713TIP3    H229631   2.183   0.931   3.940 -0.7295  1.1518 -0.8365
 2714TIP3   OH229632   3.046   5.284  14.069 -0.6063 -0.4851  0.3786
 2714TIP3    H129633   3.114   5.331  14.021  0.1693 -1.2987  0.6500
 2714TIP3    H229634   3.037   5.201  14.023 -1.2200 -0.5039  0.5200
 2715TIP3   OH229635   4.867   6.283   1.847  0.1775 -0.4494  0.2742
 2715TIP3    H129636   4.859   6.188   1.851  2.6008 -0.7940 -1.5006
 2715TIP3    H229637   4.950   6.302   1.891 -0.0710  0.8253  0.2290
 2716TIP3   OH229638   1.403   0.774   0.517  0.3212 -0.9403  1.0828
 2716TIP3    H129639   1.414   0.869   0.510 -0.2037 -0.7724  2.2768
 2716TIP3    H229640   1.460   0.749   0.590  1.2197 -1.7006  0.1443
 2717TIP3   OH229641   6.258   0.451  12.893 -0.3114 -0.0599  0.1471
 2717TIP3    H129642   6.273   0.538  12.930 -0.1940  0.3305 -0.7859
 2717TIP3    H229643   6.278   0.461  12.799  1.6490 -1.5708  0.3356
 2718TIP3   OH229644   3.783   6.404   1.751 -0.1885 -0.0371 -0.2634
 2718TIP3    H129645   3.837   6.369   1.822  1.6886 -1.1732 -2.1599
 2718TIP3    H229646   3.803   6.498   1.750  0.5031 -0.1806  0.0748
 2719TIP3   OH229647   1.879   6.379   5.580  0.0805 -0.0969 -0.2582
 2719TIP3    H129648   1.931   6.371   5.660  0.1873 -0.4076 -0.3607
 2719TIP3    H229649   1.804   6.433   5.607  1.0188  1.3401 -0.3901
 2720TIP3   OH229650   3.847   4.539  14.094 -0.1892 -0.2342 -0.3177
 2720TIP3    H129651   3.901   4.558  14.171 -0.5483  0.0009 -0.1198
 2720TIP3    H229652   3.785   4.473  14.125  1.0797 -1.8295 -1.0135
 2721TIP3   OH229653   3.650   6.128   2.963 -0.4959 -0.3497  0.2408
 2721TIP3    H129654   3.573   6.160   3.010  0.7194  2.3604  0.5705
 2721TIP3    H229655   3.636   6.156   2.873  1.0365  2.2788  0.7180
 2722TIP3   OH229656   5.657   0.614   2.425 -0.3317  0.2070 -0.0679
 2722TIP3    H129657   5.737   0.666   2.413  1.2855 -1.8739  0.9397
 2722TIP3    H229658   5.677   0.531   2.382 -2.8729  0.3495 -1.7341
 2723TIP3   OH229659   1.405   2.181   3.740  0.1581  0.1068  0.1163
 2723TIP3    H129660   1.397   2.274   3.759 -0.8805 -0.2141  1.3862
 2723TIP3    H229661   1.497   2.161   3.758  0.5241  0.9790 -0.7069
 2724TIP3   OH229662   4.688   4.848   5.454  0.4085  0.0799  0.9504
 2724TIP3    H129663   4.775   4.838   5.415  0.9020  3.0240  1.0645
 2724TIP3    H229664   4.633   4.785   5.407  2.3830 -1.1647  0.1928
 2725TIP3   OH229665   0.154   2.885   4.775 -0.3083  0.4589 -0.1713
 2725TIP3    H129666   0.107   2.859   4.854  1.0603  0.2319  0.6158
 2725TIP3    H229667   0.116   2.832   4.705  0.5794 -1.7731  0.9226
 2726TIP3   OH229668   1.425   4.160  15.191 -0.5718  0.4956  0.2473
 2726TIP3    H129669   1.398   4.231  15.249 -1.2370  0.5529 -0.1181
 2726TIP3    H229670   1.347   4.140  15.140 -0.3290 -0.3608  0.1958
 2727TIP3   OH229671   6.142   0.585   0.773  0.0848 -0.0184 -0.1042
 2727TIP3    H129672   6.198   0.508   0.779  0.4336  0.2297 -0.0935
 2727TIP3    H229673   6.112   0.601   0.862  2.6659  1.7734  0.5625
 2728TIP3   OH229674   1.767   5.223   4.412  0.2056  0.1326 -0.2179
 2728TIP3    H129675   1.699   5.163   4.382  0.6980 -0.0444 -1.0018
 2728TIP3    H229676   1.838   5.214   4.348  0.8042  0.6155  0.3556
 2729TIP3   OH229677   2.703   1.199  15.768  0.1963  0.6339 -0.3133
 2729TIP3    H129678   2.750   1.191  15.852  3.1354  0.9916 -1.7714
 2729TIP3    H229679   2.694   1.110  15.736 -0.4537  0.5384  0.1211
 2730TIP3   OH229680   0.524   2.189   4.977  0.1179 -0.2592 -0.3707
 2730TIP3    H129681   0.592   2.202   4.912 -0.4800 -1.3907 -1.2681
 2730TIP3    H229682   0.465   2.125   4.937 -0.6847 -0.3960  0.9712
 2731TIP3   OH229683   1.164   1.519  12.833  0.2926 -0.0363 -0.6717
 2731TIP3    H129684   1.143   1.428  12.813  0.3978 -0.2290  0.0766
 2731TIP3    H229685   1.250   1.515  12.876 -0.0090  0.3479 -0.0255
 2732TIP3   OH229686   3.541   4.722  13.424  0.1806 -0.3544 -0.4812
 2732TIP3    H129687   3.556   4.786  13.493  1.8370 -2.2448  1.0291
 2732TIP3    H229688   3.624   4.717  13.377  0.4942 -2.2004  0.2012
 2733TIP3   OH229689   2.077   4.836  11.385 -0.4081  0.1362  0.1807
 2733TIP3    H129690   2.127   4.771  11.334 -1.0943 -0.3352  0.0930
 2733TIP3    H229691   2.068   4.796  11.472 -2.0786 -0.5611 -0.2826
 2734TIP3   OH229692   2.591   1.248   6.454  0.4074 -0.2454  0.3516
 2734TIP3    H129693   2.631   1.208   6.377  0.1013 -2.5050  1.2801
 2734TIP3    H229694   2.662   1.295   6.497  1.3242 -1.4910  0.2495
 2735TIP3   OH229695   2.180   2.077  12.611 -0.6576 -0.2774  0.4162
 2735TIP3    H129696   2.227   2.004  12.570  2.1428  1.3599  0.4710
 2735TIP3    H229697   2.101   2.087  12.558  0.2467 -1.5908 -1.2949
 2736TIP3   OH229698   2.938   0.853   2.979 -0.3452 -0.3248  0.1922
 2736TIP3    H129699   2.849   0.835   3.010 -1.1422  1.8117 -0.7361
 2736TIP3    H229700   2.983   0.887   3.056 -1.6936  2.8888 -0.3087
 2737TIP3   OH229701   3.372   0.754  13.635  0.1183 -0.7519 -0.0574
 2737TIP3    H129702   3.363   0.667  13.598  0.7396 -0.8011 -0.1007
 2737TIP3    H229703   3.335   0.813  13.569  1.8945 -0.7619 -1.1293
 2738TIP3   OH229704   0.938   2.112   0.683 -0.3758 -0.7121  0.0759
 2738TIP3    H129705   0.990   2.192   0.696 -0.1677 -0.9914  1.0392
 2738TIP3    H229706   0.927   2.076   0.771 -0.7401 -1.5821 -0.3133
 2739TIP3   OH229707   0.010   3.988  12.921  0.5225 -0.3581 -0.3745
 2739TIP3    H129708  -0.084   4.005  12.930  0.8093  0.5424  1.1639
 2739TIP3    H229709   0.037   3.953  13.006  1.0341 -3.6645 -1.7298
 2740TIP3   OH229710   6.489   6.646  13.790 -0.2525 -0.5175 -0.0475
 2740TIP3    H129711   6.510   6.572  13.733  0.4220 -0.7675  0.5161
 2740TIP3    H229712   6.519   6.723  13.740 -0.1583 -0.6864 -0.2541
 2741TIP3   OH229713   4.188   2.579  16.993  0.0905  0.0532  0.7245
 2741TIP3    H129714   4.094   2.594  16.989 -0.0248  0.6354  3.4750
 2741TIP3    H229715   4.207   2.574  17.087  2.7313 -0.5609  0.2332
 2742TIP3   OH229716   4.893   1.250   3.440 -0.0530 -0.0681 -0.2290
 2742TIP3    H129717   4.958   1.304   3.394  0.9194 -0.7530  0.2869
 2742TIP3    H229718   4.882   1.173   3.384 -0.4299  0.0464 -0.3156
 2743TIP3   OH229719   1.918   2.853   3.087  0.1895 -0.5068  0.2426
 2743TIP3    H129720   1.908   2.771   3.136  0.7446 -0.3613  0.6071
 2743TIP3    H229721   2.010   2.876   3.096  0.2020 -0.2404 -0.5058
 2744TIP3   OH229722   0.548   1.639  15.348 -0.6437 -0.2748  0.5172
 2744TIP3    H129723   0.511   1.637  15.436 -0.5575 -1.3739  0.5394
 2744TIP3    H229724   0.541   1.549  15.317  1.3284 -0.3783  0.2431
 2745TIP3   OH229725   0.869   5.246  11.702  0.3149  0.2791 -0.3720
 2745TIP3    H129726   0.777   5.250  11.677 -0.2725 -3.8213  0.3974
 2745TIP3    H229727   0.868   5.214  11.792  2.4748 -0.2629 -0.4854
 2746TIP3   OH229728   0.784   5.348  14.268  0.1371 -0.3420 -0.0910
 2746TIP3    H129729   0.691   5.372  14.267 -0.1199 -1.3054 -1.0909
 2746TIP3    H229730   0.828   5.423  14.227  0.1385  1.1933  2.4844
 2747TIP3   OH229731   6.289   1.181   0.053 -0.6799 -1.0011  0.3925
 2747TIP3    H129732   6.288   1.137   0.138  0.9718 -0.6369  0.6388
 2747TIP3    H229733   6.210   1.149   0.009 -1.0600 -1.9431  1.6803
 2748TIP3   OH229734   0.295   1.073   3.843  0.0986  0.0420  0.2400
 2748TIP3    H129735   0.272   1.166   3.837 -0.8274 -0.0782  1.4465
 2748TIP3    H229736   0.224   1.035   3.895 -0.2556 -1.6037 -1.3493
 2749TIP3   OH229737   6.546   4.561  15.399  0.4086 -0.0471 -0.2534
 2749TIP3    H129738   6.456   4.562  15.367 -0.2487  0.1941  1.4980
 2749TIP3    H229739   6.567   4.654  15.412  0.9214 -0.1040 -0.6355
 2750TIP3   OH229740   2.280   4.531   0.335 -0.0883  0.5026 -0.2560
 2750TIP3    H129741   2.291   4.537   0.240  0.0841 -1.0024 -0.3510
 2750TIP3    H229742   2.369   4.524   0.369 -0.1931 -0.1007 -0.0884
 2751TIP3   OH229743   0.814   5.186  14.511  0.0193 -0.0132  0.3336
 2751TIP3    H129744   0.782   5.256  14.567 -1.2375  0.6374 -1.1049
 2751TIP3    H229745   0.811   5.223  14.422  0.1687 -1.5794 -0.3652
 2752TIP3   OH229746   2.098   2.533   2.752  0.7780  0.0089 -0.0605
 2752TIP3    H129747   2.118   2.450   2.795 -1.1684 -0.8736 -0.7087
 2752TIP3    H229748   2.166   2.544   2.686  1.1122 -1.0433  0.1027
 2753TIP3   OH229749   4.028   0.853   3.034  0.7093  0.1576  0.1382
 2753TIP3    H129750   4.065   0.844   3.122  0.8149 -1.0774 -0.0221
 2753TIP3    H229751   4.044   0.945   3.011  0.8115  0.4602  1.3405
 2754TIP3   OH229752   4.171   0.481  15.375 -0.4799  0.2473 -0.3047
 2754TIP3    H129753   4.185   0.554  15.315  1.2836  0.4475  0.2783
 2754TIP3    H229754   4.152   0.406  15.317 -4.3620  1.4330 -0.8482
 2755TIP3   OH229755   6.173   4.004   6.520 -0.1757 -0.2416  0.1200
 2755TIP3    H129756   6.247   4.008   6.581 -0.8685 -1.9573  1.1415
 2755TIP3    H229757   6.097   4.029   6.573 -0.8525 -2.1886  0.1535
 2756TIP3   OH229758   4.360   3.471   0.823  0.0338  0.0486 -0.3708
 2756TIP3    H129759   4.375   3.376   0.817  1.3234  0.2665 -1.0305
 2756TIP3    H229760   4.268   3.479   0.849 -0.1649 -1.3759 -0.5233
 2757TIP3   OH229761   5.095   5.880   4.790  0.7452  0.2321  0.0816
 2757TIP3    H129762   5.103   5.939   4.865  1.1512 -1.2727  1.2642
 2757TIP3    H229763   5.184   5.869   4.758  0.7869 -0.4017  0.4045
 2758TIP3   OH229764   0.325   5.792  13.319  0.0939 -0.5231  0.2796
 2758TIP3    H129765   0.369   5.866  13.275 -1.4112 -0.4056 -1.1687
 2758TIP3    H229766   0.396   5.739  13.355  1.2769  0.9203  0.1689
 2759TIP3   OH229767   4.385   6.028  13.780 -0.0077 -0.1394 -0.0469
 2759TIP3    H129768   4.464   6.075  13.756 -0.0803 -0.1462 -0.2934
 2759TIP3    H229769   4.322   6.050  13.712 -0.7539  1.2222  1.0246
 2760TIP3   OH229770   5.321   6.794   1.694  0.6983 -0.8704  0.0238
 2760TIP3    H129771   5.285   6.731   1.631 -2.2359  0.7929 -0.1564
 2760TIP3    H229772   5.321   6.747   1.777  0.2296 -1.6846 -0.4229
 2761TIP3   OH229773   1.925   0.440   1.099  0.1217  0.1162 -0.1166
 2761TIP3    H129774   1.985   0.410   1.031  1.6107  0.6989  0.8841
 2761TIP3    H229775   1.852   0.479   1.052  1.5082  1.2834 -1.3885
 2762TIP3   OH229776   6.660   2.521  16.813 -0.9176 -0.0124  1.1870
 2762TIP3    H129777   6.627   2.608  16.791 -2.7524 -1.2117 -1.2344
 2762TIP3    H229778   6.597   2.486  16.876 -2.0414 -0.7558 -0.3066
 2763TIP3   OH229779   2.582   4.380   1.072  0.3333 -0.1356 -0.0873
 2763TIP3    H129780   2.603   4.391   0.980 -0.4542 -0.7856 -0.3629
 2763TIP3    H229781   2.487   4.394   1.076  0.2112 -1.0147  0.4575
 2764TIP3   OH229782   0.255   2.081  14.653  0.5926  0.2963 -0.6149
 2764TIP3    H129783   0.162   2.101  14.655  0.4731 -0.2024 -1.0094
 2764TIP3    H229784   0.260   1.993  14.616  1.0287 -0.7966  1.8255
 2765TIP3   OH229785   3.678   1.171  14.888  0.2083 -0.1426  0.1536
 2765TIP3    H129786   3.704   1.246  14.941  0.3059 -0.8292  1.0902
 2765TIP3    H229787   3.703   1.196  14.799 -0.4269  1.2266  0.3405
 2766TIP3   OH229788   1.523   1.656   3.541  0.3180  0.2241 -0.3569
 2766TIP3    H129789   1.614   1.649   3.512 -0.0941  1.8428 -2.2062
 2766TIP3    H229790   1.485   1.724   3.486 -1.9045 -0.0692  0.7051
 2767TIP3   OH229791   1.807   3.502  12.964 -0.4089  0.3980 -0.1200
 2767TIP3    H129792   1.863   3.489  13.041  1.1654 -0.9126 -1.4211
 2767TIP3    H229793   1.727   3.452  12.984 -0.3696  0.7334  0.9669
 2768TIP3   OH229794   6.781   6.612   1.441 -0.3391  0.8102 -0.3237
 2768TIP3    H129795   6.803   6.519   1.445 -1.4488  0.4877 -1.0084
 2768TIP3    H229796   6.865   6.657   1.448  0.2358 -0.2453 -0.1532
 2769TIP3   OH229797   4.127   3.609  12.746  0.0550 -0.1260  0.1585
 2769TIP3    H129798   4.132   3.518  12.774 -0.8042  0.1303  1.2181
 2769TIP3    H229799   4.038   3.619  12.713  0.7669 -0.1802 -1.9030
 2770TIP3   OH229800   3.492   4.169  16.901  0.0441 -0.0992  0.7190
 2770TIP3    H129801   3.482   4.235  16.833 -2.1459 -1.0281  0.0555
 2770TIP3    H229802   3.435   4.198  16.972 -2.3856 -2.0669 -0.2928
 2771TIP3   OH229803   5.512   0.978   3.325  1.0628 -0.1628  0.1007
 2771TIP3    H129804   5.487   1.068   3.306  0.1770  0.0457  2.0430
 2771TIP3    H229805   5.429   0.933   3.344  1.7096 -0.4571  2.6942
 2772TIP3   OH229806   5.685   6.690  13.189 -0.0900 -0.4563  0.0086
 2772TIP3    H129807   5.758   6.700  13.127  1.1370 -0.2981  1.4202
 2772TIP3    H229808   5.636   6.615  13.156  0.6863 -0.5449 -1.0133
 2773TIP3   OH229809   1.808   1.484  15.716  0.2522  0.0876 -0.1136
 2773TIP3    H129810   1.874   1.507  15.782  1.0742  1.0010 -1.1993
 2773TIP3    H229811   1.729   1.530  15.745  0.7549  0.9307 -0.0443
 2774TIP3   OH229812   5.910   5.539   3.058  0.3496  0.6679 -0.7869
 2774TIP3    H129813   5.905   5.569   3.148  1.9615 -0.7250 -0.1954
 2774TIP3    H229814   5.823   5.559   3.022 -0.3946  1.0821  1.1021
 2775TIP3   OH229815   0.222   0.062  15.396 -0.7560  0.3295  1.0862
 2775TIP3    H129816   0.291   0.112  15.441 -0.5241 -0.6446  1.8389
 2775TIP3    H229817   0.253   0.056  15.305 -0.9355  1.7949  0.9056
 2776TIP3   OH229818   2.134   4.029  16.213 -0.4103  0.6872 -0.2506
 2776TIP3    H129819   2.196   4.091  16.250 -0.0087  1.0503 -1.4946
 2776TIP3    H229820   2.056   4.039  16.268  0.5181  0.3941  1.1771
 2777TIP3   OH229821   5.298   6.224  10.478  0.1926  0.1088  0.6627
 2777TIP3    H129822   5.233   6.262  10.419 -0.6139 -2.0775  0.0474
 2777TIP3    H229823   5.247   6.189  10.551  0.9240  0.2739  1.2697
 2778TIP3   OH229824   2.350   1.503  13.309  0.0965  0.1292 -0.0032
 2778TIP3    H129825   2.414   1.493  13.380  0.5688  1.1948 -0.2676
 2778TIP3    H229826   2.273   1.542  13.352  0.5133  1.1118 -0.1348
 2779TIP3   OH229827   2.872   2.590   5.570 -0.4479 -0.0462 -0.3730
 2779TIP3    H129828   2.878   2.495   5.561 -0.9921 -0.1184  0.0366
 2779TIP3    H229829   2.842   2.620   5.484  0.4501 -0.1640 -0.7487
 2780TIP3   OH229830   1.817   2.755  16.624 -1.0191 -0.3502  0.3127
 2780TIP3    H129831   1.877   2.758  16.699 -1.2543  0.6984  0.4782
 2780TIP3    H229832   1.852   2.820  16.563 -1.9261  0.2295  0.3830
 2781TIP3   OH229833   1.790   2.119  16.328 -0.1862 -0.0976  0.1545
 2781TIP3    H129834   1.839   2.051  16.375 -1.9090 -1.0355  0.6979
 2781TIP3    H229835   1.810   2.103  16.236  1.3991  0.2760  0.4103
 2782TIP3   OH229836   0.150   5.303  16.758 -0.4765  0.2226 -0.1301
 2782TIP3    H129837   0.097   5.364  16.810  0.4232 -1.3376  2.8184
 2782TIP3    H229838   0.104   5.219  16.765  0.6736 -0.4344 -0.2425
 2783TIP3   OH229839   5.715   5.169   5.280 -0.0799  0.3087  0.3570
 2783TIP3    H129840   5.629   5.187   5.243  0.6519  3.0636 -0.1930
 2783TIP3    H229841   5.745   5.089   5.235 -1.5174  0.4240 -0.8659
 2784TIP3   OH229842   0.224   2.684  12.247 -0.7358 -0.0160  0.0338
 2784TIP3    H129843   0.158   2.663  12.313 -0.5337 -0.9134 -0.0412
 2784TIP3    H229844   0.239   2.779  12.257 -1.1450 -0.0318  0.8581
 2785TIP3   OH229845   1.930   5.427  11.206 -0.0412  0.2804  0.1737
 2785TIP3    H129846   1.898   5.514  11.228  0.6833  0.3671  0.9573
 2785TIP3    H229847   1.863   5.367  11.238 -0.7532  0.5477 -0.7636
 2786TIP3   OH229848   4.019   4.178  16.129 -0.3602  0.1328 -0.5288
 2786TIP3    H129849   3.978   4.263  16.116 -1.1432  0.0299  1.0456
 2786TIP3    H229850   4.007   4.132  16.046 -2.0649  0.6843 -0.6155
 2787TIP3   OH229851   5.950   4.134  15.096  0.1432  0.2505 -0.0859
 2787TIP3    H129852   5.877   4.179  15.052  0.4030  0.6227 -0.1411
 2787TIP3    H229853   6.025   4.149  15.038  0.4786  0.7104  0.4647
 2788TIP3   OH229854   5.226   5.623   4.014 -0.0671  0.6229 -0.7036
 2788TIP3    H129855   5.259   5.553   4.072  0.6264  0.5623 -1.1549
 2788TIP3    H229856   5.305   5.656   3.970 -0.7064 -0.1502 -2.5155
 2789TIP3   OH229857   0.979   5.878   5.453  0.0311  0.2047 -0.0427
 2789TIP3    H129858   0.988   5.788   5.485  1.3454 -0.5408 -2.3081
 2789TIP3    H229859   1.011   5.932   5.525  1.3127 -1.2884  0.5792
 2790TIP3   OH229860   4.618   4.098  12.292 -0.2945 -0.0793  0.2648
 2790TIP3    H129861   4.653   4.186  12.306  1.6834 -0.5397 -1.4121
 2790TIP3    H229862   4.645   4.074  12.204 -1.4683 -2.0950  0.3823
 2791TIP3   OH229863   1.978   0.850   3.375  0.1327 -0.0187 -0.1171
 2791TIP3    H129864   2.069   0.821   3.367  0.2969  0.8855 -1.9995
 2791TIP3    H229865   1.983   0.937   3.415  0.0219 -0.3149  0.5537
 2792TIP3   OH229866   2.633   5.315  14.256  0.0468 -0.5254 -0.0757
 2792TIP3    H129867   2.660   5.238  14.306 -0.5954 -1.0601 -0.5337
 2792TIP3    H229868   2.547   5.337  14.291 -0.3901 -0.8815 -0.8944
 2793TIP3   OH229869   4.650   2.254   5.743  0.3066  0.2354  0.6170
 2793TIP3    H129870   4.589   2.324   5.765 -0.0275 -0.2640  1.3571
 2793TIP3    H229871   4.594   2.181   5.717  0.6735  0.4957 -1.0050
 2794TIP3   OH229872   2.590   1.873  11.412 -0.1101  0.0980  0.0315
 2794TIP3    H129873   2.585   1.935  11.484 -1.2079 -2.1747  2.0413
 2794TIP3    H229874   2.545   1.917  11.339  1.9688  2.8777  0.2827
 2795TIP3   OH229875   1.235   4.934  16.841 -0.3130 -0.6885  0.1774
 2795TIP3    H129876   1.288   5.013  16.846  0.4558 -1.0375 -1.4317
 2795TIP3    H229877   1.227   4.903  16.931 -1.0403  1.4453  0.8908
 2796TIP3   OH229878   5.169   0.697  15.455 -0.3907  0.7954  0.1984
 2796TIP3    H129879   5.172   0.760  15.383  1.8545 -0.2376 -0.7014
 2796TIP3    H229880   5.200   0.746  15.531  0.8950  0.9328 -0.3924
 2797TIP3   OH229881   6.693   3.655  13.990  0.1397  0.4754 -0.1432
 2797TIP3    H129882   6.647   3.580  13.952 -0.3846  0.3959  0.6407
 2797TIP3    H229883   6.739   3.695  13.916 -1.2781  0.6259 -0.9778
 2798TIP3   OH229884   5.506   3.521  15.669  0.5009 -0.1715  0.4371
 2798TIP3    H129885   5.414   3.542  15.661  0.3305  0.5800  3.1532
 2798TIP3    H229886   5.512   3.429  15.643 -0.6939  0.2095 -1.2930
 2799TIP3   OH229887   1.365   5.480  16.697  0.1654 -0.8128 -0.0839
 2799TIP3    H129888   1.421   5.521  16.631 -1.9702  0.5755 -1.1580
 2799TIP3    H229889   1.385   5.386  16.690  0.3445 -0.6731 -2.4098
 2800TIP3   OH229890   5.343   5.649   4.477 -0.1035  0.0831  0.4961
 2800TIP3    H129891   5.271   5.588   4.466 -0.0052 -0.1415  1.0960
 2800TIP3    H229892   5.305   5.735   4.458 -0.1963 -0.1713 -0.5240
 2801TIP3   OH229893   1.988   5.425   6.070 -0.2040  0.0672 -0.0553
 2801TIP3    H129894   1.959   5.395   5.984  0.7401  0.8395 -0.6449
 2801TIP3    H229895   2.081   5.403   6.074  0.1043  1.3733  0.1788
 2802TIP3   OH229896   4.885   4.603  12.718 -0.0328  0.2497 -0.4646
 2802TIP3    H129897   4.866   4.531  12.778  0.2339  1.2142  0.8071
 2802TIP3    H229898   4.803   4.651  12.711  0.0973  0.4832 -0.3959
 2803TIP3   OH229899   0.444   5.915   5.380 -0.5296 -0.1958 -0.2576
 2803TIP3    H129900   0.352   5.911   5.404 -0.2565 -0.6205  0.7679
 2803TIP3    H229901   0.490   5.930   5.462  0.3368 -0.2221 -0.7246
 2804TIP3   OH229902   1.253   6.501  11.582 -0.0377 -0.2121  0.0251
 2804TIP3    H129903   1.326   6.482  11.523 -0.9571 -1.7891 -0.6636
 2804TIP3    H229904   1.294   6.542  11.658  1.4996 -0.5535 -0.5774
 2805TIP3   OH229905   5.533   6.715   5.385  0.1404  0.4523 -0.1912
 2805TIP3    H129906   5.621   6.739   5.411 -0.2487  0.7490  0.8888
 2805TIP3    H229907   5.537   6.620   5.371  0.1254  0.0946  2.0030
 2806TIP3   OH229908   3.706   4.561  15.425 -0.5026 -0.8328  0.4810
 2806TIP3    H129909   3.615   4.581  15.402 -0.4302 -0.9504  0.0785
 2806TIP3    H229910   3.755   4.638  15.398 -0.3920 -1.0456  0.0617
 2807TIP3   OH229911   4.679   4.893   4.248  0.3894  0.1663  0.6008
 2807TIP3    H129912   4.761   4.872   4.292  1.3382  2.6213  0.1408
 2807TIP3    H229913   4.697   4.878   4.155  0.3469  0.7467  0.4949
 2808TIP3   OH229914   2.577   2.455  13.750 -0.0574 -0.5336  0.4772
 2808TIP3    H129915   2.530   2.382  13.789 -1.6346 -0.2536 -0.8199
 2808TIP3    H229916   2.545   2.532  13.797 -0.6208 -0.3849 -0.1384
 2809TIP3   OH229917   5.220   0.142  15.759  0.1559  0.6333  0.0458
 2809TIP3    H129918   5.233   0.188  15.842  0.7510  0.7314 -0.0934
 2809TIP3    H229919   5.289   0.176  15.702  1.5004 -1.4278  0.3592
 2810TIP3   OH229920   0.599   4.902   4.302 -0.3194  0.0636 -0.0024
 2810TIP3    H129921   0.572   4.853   4.380  0.3498  1.1911  0.9839
 2810TIP3    H229922   0.592   4.994   4.328  2.4405  0.4633 -0.3357
 2811TIP3   OH229923   2.943   3.384  13.729 -0.1301  0.1557  0.4060
 2811TIP3    H129924   2.873   3.386  13.794 -0.3099 -0.0092  0.2149
 2811TIP3    H229925   2.919   3.314  13.669  2.2309 -2.7458  2.5899
 2812TIP3   OH229926   2.685   5.804   1.509 -0.2348 -0.5882 -0.1576
 2812TIP3    H129927   2.642   5.883   1.541  0.6223  0.4164 -1.3704
 2812TIP3    H229928   2.724   5.765   1.587  0.2809  0.8148  0.3298
 2813TIP3   OH229929   6.700   3.344   3.640 -0.3597  0.0323  0.2244
 2813TIP3    H129930   6.629   3.354   3.576 -1.1509 -0.2185  1.0438
 2813TIP3    H229931   6.732   3.255   3.627  0.0626  0.2672 -0.3937
 2814TIP3   OH229932   4.419   1.591  14.228 -0.7598  0.1208  0.1377
 2814TIP3    H129933   4.437   1.515  14.172 -0.5497  1.7606 -2.1843
 2814TIP3    H229934   4.493   1.593  14.289  1.5002  0.7148 -2.4339
 2815TIP3   OH229935   4.270   2.679   4.570 -0.2881 -0.3780  0.3627
 2815TIP3    H129936   4.221   2.743   4.518 -0.7311 -0.1263  1.0703
 2815TIP3    H229937   4.312   2.622   4.506 -2.3743 -1.2657 -0.3027
 2816TIP3   OH229938   4.265   6.183   1.503 -0.3384  0.5096  0.3239
 2816TIP3    H129939   4.356   6.154   1.501 -0.7069 -0.9016  1.5431
 2816TIP3    H229940   4.259   6.236   1.583 -0.3831  1.4522 -0.2848
 2817TIP3   OH229941   5.598   3.382  16.815 -0.4280  0.3449 -0.1019
 2817TIP3    H129942   5.646   3.454  16.775 -1.3751  2.0658  1.6752
 2817TIP3    H229943   5.534   3.424  16.872 -0.7402 -1.9135  1.3708
 2818TIP3   OH229944   6.493   5.198   3.188 -0.1748 -0.5960  0.2573
 2818TIP3    H129945   6.538   5.176   3.270 -0.7663  1.0327  1.0669
 2818TIP3    H229946   6.563   5.202   3.123  0.2024 -2.7227  0.4657
 2819TIP3   OH229947   3.122   3.170  12.260 -0.0560 -0.1980  0.4616
 2819TIP3    H129948   3.067   3.173  12.338  0.3419 -2.6007  0.9096
 2819TIP3    H229949   3.154   3.080  12.256  1.6123  0.3920 -1.3368
 2820TIP3   OH229950   4.310   6.633  16.817  0.0724 -0.4890  0.3677
 2820TIP3    H129951   4.269   6.547  16.819 -1.4845  0.2323  1.2190
 2820TIP3    H229952   4.267   6.679  16.744 -0.8042  0.3300  1.3671
 2821TIP3   OH229953   2.472   5.652  12.642  0.4091 -0.6733  0.5712
 2821TIP3    H129954   2.410   5.674  12.711 -0.7208 -2.3680  0.1788
 2821TIP3    H229955   2.553   5.629  12.688  0.2303 -0.0506  1.2051
 2822TIP3   OH229956   3.454   2.685   4.845  0.3885 -0.3885 -0.1704
 2822TIP3    H129957   3.500   2.673   4.762  0.0540 -0.2000 -0.3831
 2822TIP3    H229958   3.520   2.721   4.904  0.6803 -0.7063 -0.2972
 2823TIP3   OH229959   1.110   3.883  12.952 -0.0384 -0.1365  0.0220
 2823TIP3    H129960   1.131   3.873  13.045  1.0239 -0.9572 -0.2912
 2823TIP3    H229961   1.085   3.796  12.923 -1.6388  0.3584 -0.1857
 2824TIP3   OH229962   6.515   0.023  11.645 -0.4289 -0.1672 -0.1674
 2824TIP3    H129963   6.438   0.059  11.688  0.9066  0.1482  2.1543
 2824TIP3    H229964   6.571   0.099  11.627 -0.8511 -0.3109 -2.4180
 2825TIP3   OH229965   2.614   6.813   4.218 -0.0394  0.0503  0.3137
 2825TIP3    H129966   2.632   6.825   4.311 -0.3035  0.9981  0.2452
 2825TIP3    H229967   2.569   6.892   4.191  0.4047 -0.0310 -0.7252
 2826TIP3   OH229968   6.085   2.630   3.176  0.3618  0.1894 -0.8298
 2826TIP3    H129969   6.092   2.676   3.260  1.4414 -1.2658 -0.0954
 2826TIP3    H229970   6.148   2.674   3.120  0.6426  0.2708 -0.4569
 2827TIP3   OH229971   5.056   1.436  16.927 -0.5487  0.3969 -0.7366
 2827TIP3    H129972   4.963   1.417  16.936 -0.2400 -0.7543  0.3019
 2827TIP3    H229973   5.095   1.353  16.899  0.2817  0.6277 -0.3087
 2828TIP3   OH229974   3.423   4.882  16.362 -0.2635 -0.2586  0.5470
 2828TIP3    H129975   3.346   4.866  16.417 -1.1479 -1.4100 -0.9495
 2828TIP3    H229976   3.407   4.968  16.323 -1.1018 -0.7268 -0.1908
 2829TIP3   OH229977   0.526   4.502  12.318  0.7898  0.8009 -0.0034
 2829TIP3    H129978   0.455   4.522  12.379  2.4592  0.8002  2.0193
 2829TIP3    H229979   0.530   4.407  12.316  0.5133  0.7938 -0.4159
 2830TIP3   OH229980   4.879   2.638  10.934 -0.4102 -0.7118 -0.0337
 2830TIP3    H129981   4.956   2.695  10.935  0.7032 -2.1359  0.6517
 2830TIP3    H229982   4.816   2.682  10.991  0.8616 -0.6837  1.4373
 2831TIP3   OH229983   3.078   4.623  13.763  0.5743 -0.5659 -0.0934
 2831TIP3    H129984   2.990   4.596  13.792  0.1586  1.0372  0.2712
 2831TIP3    H229985   3.117   4.663  13.841  0.8159  0.5811 -0.7798
 2832TIP3   OH229986   3.113   0.915  14.201 -0.1241 -0.3271  0.3892
 2832TIP3    H129987   3.030   0.879  14.170  0.4161 -0.5565 -0.8512
 2832TIP3    H229988   3.180   0.867  14.151  0.7719 -0.4095  1.6294
 2833TIP3   OH229989   1.678   2.367  13.581  0.0434 -0.2661  0.1737
 2833TIP3    H129990   1.660   2.332  13.494 -3.0058  0.0384  0.5695
 2833TIP3    H229991   1.608   2.431  13.596 -0.5105 -1.4630  3.4641
 2834TIP3   OH229992   2.786   4.949   1.080 -0.0997  0.3400 -0.0604
 2834TIP3    H129993   2.830   5.013   1.024  0.8778 -0.8428 -0.6781
 2834TIP3    H229994   2.798   4.984   1.169  0.0653  1.2198 -0.4150
 2835TIP3   OH229995   6.800   2.561  15.085 -0.3010 -0.7753  0.1327
 2835TIP3    H129996   6.831   2.514  15.162 -0.5140  0.4009  0.9656
 2835TIP3    H229997   6.754   2.638  15.120  0.9426  0.6329 -1.1553
 2836TIP3   OH229998   4.764   4.718  13.689 -0.0733  0.0576  0.9789
 2836TIP3    H129999   4.705   4.720  13.613  0.2693 -1.7785  0.6307
 2836TIP3    H230000   4.708   4.687  13.760  0.0676 -0.0627  1.0355
 2837TIP3   OH230001   4.392   1.947  14.413  0.4580 -0.1426  0.4208
 2837TIP3    H130002   4.360   1.962  14.325  0.1316 -1.8840  0.1976
 2837TIP3    H230003   4.483   1.918  14.401 -0.1018 -2.0716  0.4669
 2838TIP3   OH230004   0.287   2.361  16.586  0.4019  0.1081  0.2162
 2838TIP3    H130005   0.358   2.427  16.588  0.2273  0.3022  0.0511
 2838TIP3    H230006   0.218   2.399  16.640  0.2352  0.1355 -0.0139
 2839TIP3   OH230007   0.664   2.634  11.421 -0.9589  0.2084  0.7946
 2839TIP3    H130008   0.638   2.725  11.413 -0.1084  0.4192  0.2912
 2839TIP3    H230009   0.754   2.632  11.390 -1.2159 -0.9396  0.0743
 2840TIP3   OH230010   1.370   3.108   5.401 -0.2417  0.5285  0.2593
 2840TIP3    H130011   1.392   3.199   5.384  2.4741 -0.4768 -2.5029
 2840TIP3    H230012   1.307   3.085   5.333  0.5900 -0.1053 -0.3267
 2841TIP3   OH230013   5.885   4.217  15.788 -0.3829  0.8427 -0.3239
 2841TIP3    H130014   5.964   4.173  15.759  0.0181  1.3524 -0.0275
 2841TIP3    H230015   5.816   4.151  15.782  0.1086  0.3322 -0.3663
 2842TIP3   OH230016   5.999   2.388   3.732 -0.5847  0.3867 -0.4469
 2842TIP3    H130017   6.083   2.427   3.711 -0.2000 -0.7535 -1.1690
 2842TIP3    H230018   6.013   2.341   3.814 -1.4630  2.9399  1.2658
 2843TIP3   OH230019   5.533   3.399  13.102 -0.3264 -0.7922 -0.0897
 2843TIP3    H130020   5.559   3.365  13.188 -0.0893  0.8563  0.5220
 2843TIP3    H230021   5.534   3.494  13.113 -1.6911 -0.5750 -1.5089
 2844TIP3   OH230022   2.340   0.536  16.577  0.0127  0.1878  0.0198
 2844TIP3    H130023   2.381   0.450  16.586  1.1764  0.7884  0.6872
 2844TIP3    H230024   2.299   0.552  16.662  0.5336  0.6565  0.1843
 2845TIP3   OH230025   0.785   6.284   1.513 -0.8519  0.3292 -0.4063
 2845TIP3    H130026   0.843   6.254   1.582 -1.3570  0.0351 -0.1040
 2845TIP3    H230027   0.773   6.378   1.530  0.0157  0.5316 -0.8329
 2846TIP3   OH230028   6.497   6.092  14.425  0.6972 -0.1855 -0.3127
 2846TIP3    H130029   6.542   6.085  14.510  1.2181  0.0331 -0.5650
 2846TIP3    H230030   6.418   6.142  14.445  1.1325  0.4245 -0.0625
 2847TIP3   OH230031   3.140   0.653   4.631 -0.3419  0.2855  0.2618
 2847TIP3    H130032   3.062   0.701   4.660 -0.4450 -0.4377  1.2437
 2847TIP3    H230033   3.146   0.671   4.538 -1.3774  0.7934  0.2789
 2848TIP3   OH230034   4.257   5.467   0.421 -0.1381 -0.4029  0.0794
 2848TIP3    H130035   4.173   5.508   0.400 -0.0042 -0.5284 -0.7567
 2848TIP3    H230036   4.250   5.379   0.384  0.0965 -0.6568  0.6357
 2849TIP3   OH230037   0.714   5.834  13.501  0.1408 -0.6921  0.2358
 2849TIP3    H130038   0.620   5.824  13.488 -0.1395  0.0447  1.4944
 2849TIP3    H230039   0.743   5.751  13.539 -0.7752  0.3372  3.5439
 2850TIP3   OH230040   2.972   1.257  16.604 -0.4941  0.0269 -0.1494
 2850TIP3    H130041   2.938   1.168  16.603 -0.9478  0.1651 -2.3061
 2850TIP3    H230042   3.036   1.257  16.675 -1.5514 -1.5755  0.8712
 2851TIP3   OH230043   1.860   2.510  17.217 -0.1358  0.2937  0.5236
 2851TIP3    H130044   1.935   2.451  17.204 -0.6038 -0.0300 -0.8562
 2851TIP3    H230045   1.821   2.518  17.131 -2.1880 -0.2085  1.3417
 2852TIP3   OH230046   4.092   5.299  16.224 -0.3028  0.3742 -0.3264
 2852TIP3    H130047   4.174   5.258  16.195  1.0143  1.9676  0.9320
 2852TIP3    H230048   4.090   5.284  16.318 -0.2294  2.3490  0.0258
 2853TIP3   OH230049   4.936   4.831  10.846  0.4470 -0.0039  0.0099
 2853TIP3    H130050   4.999   4.776  10.798  0.3385  0.9655 -1.3066
 2853TIP3    H230051   4.868   4.851  10.782 -1.3711 -1.2077  1.4751
 2854TIP3   OH230052   4.784   3.995   3.692  0.0288 -0.0753  0.1060
 2854TIP3    H130053   4.827   3.995   3.606 -0.5454 -1.4116 -0.2122
 2854TIP3    H230054   4.840   3.938   3.746  0.0480  0.2556  0.4319
 2855TIP3   OH230055   2.983   3.566  16.524  0.2371  0.0194  0.2727
 2855TIP3    H130056   2.970   3.545  16.431  1.6839 -1.3825  0.3433
 2855TIP3    H230057   2.908   3.528  16.568 -1.2402  1.9518 -0.4203
 2856TIP3   OH230058   2.371   2.605  15.479 -0.4363 -0.7215  0.4856
 2856TIP3    H130059   2.293   2.623  15.426 -0.3876 -0.6613  0.4350
 2856TIP3    H230060   2.373   2.675  15.543  0.6203  0.3534 -0.6715
 2857TIP3   OH230061   0.042   5.217  14.600  0.1049 -0.1305 -0.4172
 2857TIP3    H130062   0.063   5.224  14.693  0.8775  1.0262 -0.6499
 2857TIP3    H230063  -0.053   5.208  14.596  0.0089  0.4358  0.4626
 2858TIP3   OH230064   0.319   2.770   3.066 -0.2409  0.0189  0.2534
 2858TIP3    H130065   0.386   2.799   3.127 -0.4270  1.1389 -0.0559
 2858TIP3    H230066   0.344   2.680   3.044  1.3045  0.4898 -0.0520
 2859TIP3   OH230067   0.527   5.631   3.004 -0.1813 -0.0440  0.1535
 2859TIP3    H130068   0.498   5.719   3.025  0.0635  0.0960 -0.0871
 2859TIP3    H230069   0.573   5.602   3.082 -2.3527 -0.9005  1.1893
 2860TIP3   OH230070   3.794   5.088   1.102 -0.0854 -0.2460 -0.2309
 2860TIP3    H130071   3.731   5.122   1.039 -1.3160 -2.4067 -0.2627
 2860TIP3    H230072   3.809   4.997   1.074  2.0493 -0.1948  0.5577
 2861TIP3   OH230073   6.060   6.665  14.620 -0.5412 -0.4069 -0.2665
 2861TIP3    H130074   6.065   6.754  14.653  0.9466  0.5177 -2.7558
 2861TIP3    H230075   5.971   6.636  14.641 -2.1805  2.8191 -2.0919
 2862TIP3   OH230076   4.858   4.156  14.686 -0.3306 -0.2095 -0.5531
 2862TIP3    H130077   4.782   4.211  14.664 -1.7332 -2.1694 -0.9069
 2862TIP3    H230078   4.842   4.128  14.777  1.0408  0.9658  0.0857
 2863TIP3   OH230079   1.196   5.997  15.255 -0.7400  0.1291 -0.0724
 2863TIP3    H130080   1.283   5.967  15.282 -1.6313 -1.1235  1.5931
 2863TIP3    H230081   1.198   5.993  15.159  1.1696  0.6012 -0.0865
 2864TIP3   OH230082   5.560   6.494   1.808 -0.1490 -0.2831  0.9056
 2864TIP3    H130083   5.593   6.541   1.731  1.1030 -0.5298  1.2595
 2864TIP3    H230084   5.637   6.446   1.841 -1.0687 -1.5187  1.3277
 2865TIP3   OH230085   4.076   2.674  12.993 -0.0443  0.1901  0.0835
 2865TIP3    H130086   4.017   2.628  13.052  0.0497  2.4538  2.0912
 2865TIP3    H230087   4.020   2.729  12.939  0.0452  0.5519  0.3487
 2866TIP3   OH230088   3.540   4.728  15.954  0.2697  0.7174 -0.3379
 2866TIP3    H130089   3.540   4.821  15.979  0.5720  0.6454 -0.0595
 2866TIP3    H230090   3.519   4.728  15.861  2.3400  1.2141 -0.8571
 2867TIP3   OH230091   4.124   3.345  13.523  0.2912 -0.0030  0.6179
 2867TIP3    H130092   4.033   3.317  13.534  0.7595 -1.1311  2.0080
 2867TIP3    H230093   4.118   3.431  13.481 -1.3912 -0.2145  0.3480
 2868TIP3   OH230094   6.219   2.206  11.995 -0.5203 -0.3249 -0.1350
 2868TIP3    H130095   6.274   2.283  12.009  1.2300 -1.0047 -2.6714
 2868TIP3    H230096   6.240   2.148  12.068  0.0191  0.5642  0.4340
 2869TIP3   OH230097   6.809   6.033  11.972  1.0554  0.1946  0.2157
 2869TIP3    H130098   6.829   6.058  11.882  0.5825 -0.0949  0.0258
 2869TIP3    H230099   6.840   5.942  11.978 -0.3925 -0.3470 -0.1582
 2870TIP3   OH230100   5.414   0.885  17.143 -0.0709  0.4389 -0.0631
 2870TIP3    H130101   5.451   0.823  17.080  0.7776 -0.1320  0.9742
 2870TIP3    H230102   5.430   0.845  17.228 -0.1699  1.7424  0.5885
 2871TIP3   OH230103   4.903   4.498   4.516 -0.8286 -0.5231  0.2802
 2871TIP3    H130104   4.963   4.519   4.588 -2.1240 -2.0767  1.8789
 2871TIP3    H230105   4.843   4.573   4.512 -1.7600 -1.1420  1.9533
 2872TIP3   OH230106   4.418   5.754   2.558  0.5630 -0.9598 -0.3771
 2872TIP3    H130107   4.388   5.755   2.649 -0.0740 -3.6181 -0.4828
 2872TIP3    H230108   4.342   5.723   2.508  0.7568  0.8837 -1.9201
 2873TIP3   OH230109   3.151   3.517   0.710  0.6252  0.9430  0.7023
 2873TIP3    H130110   3.167   3.571   0.633 -2.6194  2.5227  1.0046
 2873TIP3    H230111   3.203   3.558   0.780  0.6582  1.7372  0.2150
 2874TIP3   OH230112   6.176   1.577  13.678 -0.0894 -0.0026  0.6861
 2874TIP3    H130113   6.140   1.511  13.737 -0.5196  0.8467  1.3993
 2874TIP3    H230114   6.138   1.659  13.708 -2.0051  0.2293 -2.0882
 2875TIP3   OH230115   6.461   5.864   5.534 -0.1329  0.3254  0.7462
 2875TIP3    H130116   6.527   5.888   5.600 -1.1106  1.1489  1.4693
 2875TIP3    H230117   6.446   5.945   5.485  1.5659 -0.5931 -1.4590
 2876TIP3   OH230118   0.005   4.507   1.785 -0.4290 -0.0780 -0.2455
 2876TIP3    H130119   0.075   4.457   1.744  0.0369 -1.3913  2.0219
 2876TIP3    H230120  -0.048   4.443   1.832 -1.3374  1.2606  0.6550
 2877TIP3   OH230121   1.504   2.747   5.857 -0.0768  0.1483  0.5657
 2877TIP3    H130122   1.516   2.837   5.887 -1.6879  0.3520  0.6880
 2877TIP3    H230123   1.574   2.698   5.900  0.7203  1.3041  0.6335
 2878TIP3   OH230124   6.114   1.586   5.405  0.1893 -0.6560 -0.0951
 2878TIP3    H130125   6.038   1.584   5.463  0.2124 -2.6501 -0.0807
 2878TIP3    H230126   6.187   1.607   5.463  0.0221 -1.2949  0.3538
 2879TIP3   OH230127   6.646   6.266  11.234  0.0804 -0.3108  0.2075
 2879TIP3    H130128   6.631   6.245  11.142 -2.4318 -0.4905  0.5907
 2879TIP3    H230129   6.666   6.182  11.275  2.1673 -0.1025 -0.2820
 2880TIP3   OH230130   1.339   0.806  15.009  0.4702 -0.3592 -0.1847
 2880TIP3    H130131   1.411   0.844  15.059  0.0889  1.1478 -0.7157
 2880TIP3    H230132   1.275   0.780  15.075  0.0788  1.3809  0.1776
 2881TIP3   OH230133   1.101   1.897  12.489 -0.0689  0.1226  0.6538
 2881TIP3    H130134   1.113   1.807  12.458 -0.3151  0.8732 -1.8772
 2881TIP3    H230135   1.177   1.913  12.545  0.6864 -1.2644  0.0835
 2882TIP3   OH230136   6.312   3.443  14.856 -0.1089  0.7032  0.0243
 2882TIP3    H130137   6.404   3.457  14.832  0.6891  0.7485  2.7937
 2882TIP3    H230138   6.272   3.529  14.847  0.8405  1.3364  1.4409
 2883TIP3   OH230139   6.477   0.366   4.219  0.4204 -0.0045 -0.2351
 2883TIP3    H130140   6.473   0.318   4.302 -1.3131 -1.1519 -0.9343
 2883TIP3    H230141   6.553   0.328   4.174 -1.0918 -2.4639 -0.9132
 2884TIP3   OH230142   6.513   6.567  11.662 -0.0299  0.4249  0.3522
 2884TIP3    H130143   6.523   6.662  11.654  0.4065  0.2495 -1.9473
 2884TIP3    H230144   6.537   6.533  11.576  0.5845 -1.8538  1.3344
 2885TIP3   OH230145   0.288   2.031  16.669  0.3447 -0.0290  0.1036
 2885TIP3    H130146   0.256   2.039  16.579 -2.2996  0.4920  0.9698
 2885TIP3    H230147   0.383   2.040  16.662  0.1382  1.1544 -2.5009
 2886TIP3   OH230148   4.697   4.083  13.823  0.5899  0.3565  0.1891
 2886TIP3    H130149   4.670   3.995  13.796  3.1147 -0.2871 -0.5373
 2886TIP3    H230150   4.636   4.141  13.778  0.0911 -0.9682 -0.9256
 2887TIP3   OH230151   2.276   2.575   0.162 -0.2126  0.0856  0.0978
 2887TIP3    H130152   2.369   2.570   0.139 -0.7988 -0.3055 -2.3857
 2887TIP3    H230153   2.264   2.666   0.189  0.7542  0.3069 -0.1693
 2888TIP3   OH230154   2.467   4.294  10.704 -0.5904 -0.5329  0.2171
 2888TIP3    H130155   2.449   4.275  10.796  2.5245 -0.3502  0.9718
 2888TIP3    H230156   2.510   4.380  10.705  2.3853 -1.8586 -0.9247
 2889TIP3   OH230157   3.667   1.849  17.050 -0.1854 -0.0594 -0.6858
 2889TIP3    H130158   3.736   1.806  16.999 -1.4906 -3.0395 -0.1047
 2889TIP3    H230159   3.587   1.832  17.001 -1.1997 -1.3018  1.2649
 2890TIP3   OH230160   3.764   6.363   4.280 -0.7144  0.4849 -0.1553
 2890TIP3    H130161   3.787   6.397   4.193 -0.6821  1.2186  0.1375
 2890TIP3    H230162   3.669   6.377   4.286 -0.7312  0.3492 -0.1102
 2891TIP3   OH230163   5.807   6.054  12.985  1.0068  0.4374 -0.3062
 2891TIP3    H130164   5.882   6.105  12.955  0.8144  1.0601  0.2613
 2891TIP3    H230165   5.801   6.071  13.079  0.8334 -0.4932 -0.1401
 2892TIP3   OH230166   1.408   1.519   2.206  0.0392  0.0437 -0.1513
 2892TIP3    H130167   1.315   1.528   2.228 -0.3217  0.3727 -1.6592
 2892TIP3    H230168   1.447   1.602   2.233 -0.1951  0.0648  0.1254
 2893TIP3   OH230169   1.764   2.412   3.177 -0.1587  0.3485  0.0322
 2893TIP3    H130170   1.706   2.488   3.166  0.1804  0.5112 -0.6503
 2893TIP3    H230171   1.729   2.346   3.118 -0.9586 -0.3513  1.2334
 2894TIP3   OH230172   4.289   2.292   1.871 -0.2747  0.4546 -0.1356
 2894TIP3    H130173   4.283   2.290   1.967 -0.5703  2.2175 -0.0917
 2894TIP3    H230174   4.237   2.368   1.845  0.3694  0.4037 -1.6542
 2895TIP3   OH230175   5.141   2.794   3.093  0.1383  0.2769  0.0157
 2895TIP3    H130176   5.062   2.791   3.040 -0.5347 -2.3387  1.0135
 2895TIP3    H230177   5.124   2.861   3.159 -0.6586  0.7341 -0.6454
 2896TIP3   OH230178   4.306   2.363   3.629 -0.6929  0.4130 -0.5045
 2896TIP3    H130179   4.392   2.328   3.648 -0.2773  1.0262 -1.1714
 2896TIP3    H230180   4.317   2.458   3.634 -1.6667  0.4877  0.7561
 2897TIP3   OH230181   3.939   5.862   0.438  0.6195  0.5172  0.1892
 2897TIP3    H130182   3.875   5.856   0.509 -0.6080 -0.2562 -0.9273
 2897TIP3    H230183   3.966   5.953   0.438 -1.1294  1.0843  0.1920
 2898TIP3   OH230184   5.442   5.181  11.262 -0.4423  0.2673 -1.0659
 2898TIP3    H130185   5.499   5.222  11.328  0.3275  1.2135 -2.2865
 2898TIP3    H230186   5.354   5.196  11.296 -0.0389 -0.3091  0.3343
 2899TIP3   OH230187   0.868   6.816  13.233  0.4921  0.1807  0.0143
 2899TIP3    H130188   0.852   6.765  13.153  0.7214 -0.3830  0.3194
 2899TIP3    H230189   0.941   6.771  13.275  2.0427  1.9464 -0.7007
 2900TIP3   OH230190   4.778   3.398  12.900  0.2899 -0.2167  0.4458
 2900TIP3    H130191   4.835   3.449  12.843 -1.5576  0.3907 -0.9577
 2900TIP3    H230192   4.764   3.453  12.976  3.2682 -1.2772  1.9256
 2901TIP3   OH230193   3.447   3.753  14.081  0.0928 -0.2286  0.0410
 2901TIP3    H130194   3.404   3.667  14.082  0.5001 -0.4598  1.8157
 2901TIP3    H230195   3.456   3.776  14.174 -0.8620  2.1821 -0.3885
 2902TIP3   OH230196   4.154   2.886  13.876 -0.5535 -0.5222 -0.2106
 2902TIP3    H130197   4.090   2.894  13.947 -0.9203 -3.8223 -0.0092
 2902TIP3    H230198   4.180   2.976  13.857 -1.9095  0.6317  2.7389
 2903TIP3   OH230199   1.154   6.235  11.528 -0.3351 -0.2795 -0.2714
 2903TIP3    H130200   1.121   6.221  11.439 -0.6923 -1.5706  0.0389
 2903TIP3    H230201   1.211   6.312  11.521  0.4256 -0.9399 -1.8081
 2904TIP3   OH230202   3.190   4.025  15.999 -0.3003  0.5205  0.1002
 2904TIP3    H130203   3.248   3.951  15.985 -1.7987 -0.2028 -3.2491
 2904TIP3    H230204   3.219   4.091  15.936 -0.7648  1.6634  1.0456
 2905TIP3   OH230205   0.544   3.868   1.017 -0.0127 -0.1884  1.0089
 2905TIP3    H130206   0.507   3.801   0.960  0.8849  0.5180 -0.4848
 2905TIP3    H230207   0.580   3.933   0.956  1.0805  0.5558  2.3947
 2906TIP3   OH230208   6.365   4.761   4.604 -0.2627  0.4833  0.6398
 2906TIP3    H130209   6.294   4.779   4.542 -0.5112  2.0193  1.3381
 2906TIP3    H230210   6.324   4.708   4.672 -0.6446  0.9975  0.8181
 2907TIP3   OH230211   2.699   0.020   3.646 -0.0924 -0.7325 -0.6091
 2907TIP3    H130212   2.673  -0.068   3.671 -1.8161 -0.8142 -2.4021
 2907TIP3    H230213   2.790   0.028   3.674 -0.9689 -1.6772  3.0660
 2908TIP3   OH230214   6.354   5.669   5.958 -0.4893 -0.2528  0.2115
 2908TIP3    H130215   6.406   5.594   5.986  1.5146  1.2293  0.6497
 2908TIP3    H230216   6.272   5.661   6.007  0.6247 -0.8854  2.0570
 2909TIP3   OH230217   5.784   6.825  10.898 -0.5145  0.2305 -0.1979
 2909TIP3    H130218   5.797   6.735  10.866 -2.6890 -0.2614  0.1267
 2909TIP3    H230219   5.872   6.861  10.905  0.4550 -1.9879 -0.0458
 2910TIP3   OH230220   0.021   4.196  14.415 -0.7053  0.4443 -0.2947
 2910TIP3    H130221   0.110   4.232  14.411 -0.6618  0.6644  1.5836
 2910TIP3    H230222  -0.030   4.253  14.358  0.2857  0.5246 -1.1311
 2911TIP3   OH230223   2.683   0.308  14.971  0.6551 -0.1019 -0.6657
 2911TIP3    H130224   2.588   0.301  14.964  0.6407  0.8659 -1.7148
 2911TIP3    H230225   2.704   0.270  15.057 -0.5243 -1.5941 -0.9990
 2912TIP3   OH230226   2.806   0.213  16.784  0.1855 -0.7732  0.0221
 2912TIP3    H130227   2.808   0.305  16.758 -2.3105 -0.0829  1.9125
 2912TIP3    H230228   2.778   0.166  16.705  2.1496 -0.0727 -1.1594
 2913TIP3   OH230229   1.116   3.839  11.540 -0.0417  0.2119 -0.3457
 2913TIP3    H130230   1.077   3.847  11.453 -0.3517  2.4262 -0.0770
 2913TIP3    H230231   1.049   3.796  11.593  0.3939 -1.7291 -1.3041
 2914TIP3   OH230232   5.081   1.671   2.891 -0.1728  0.4835  0.4119
 2914TIP3    H130233   5.027   1.604   2.850 -0.8994  0.6727  1.0272
 2914TIP3    H230234   5.063   1.663   2.984  0.7553  0.6572  0.6141
 2915TIP3   OH230235   0.770   5.867   0.975  0.2643 -0.3205  0.0214
 2915TIP3    H130236   0.770   5.958   1.003 -0.1400  0.6384 -2.7483
 2915TIP3    H230237   0.861   5.840   0.980  0.3384  0.0719  1.2190
 2916TIP3   OH230238   4.804   3.652   1.771 -0.0918 -0.2545  0.9754
 2916TIP3    H130239   4.820   3.744   1.751 -0.1959 -0.3068  0.6517
 2916TIP3    H230240   4.891   3.616   1.787  0.3103 -0.8113 -1.9185
 2917TIP3   OH230241   0.320   4.860   5.736 -0.0655 -0.3074  0.1043
 2917TIP3    H130242   0.361   4.781   5.701 -0.4592  0.4588 -2.2713
 2917TIP3    H230243   0.298   4.911   5.659 -1.9433  1.0841  1.4795
 2918TIP3   OH230244   2.683   3.854  14.151 -0.1533 -0.1055  0.1224
 2918TIP3    H130245   2.713   3.887  14.066 -0.3827  3.3346  1.2244
 2918TIP3    H230246   2.763   3.836  14.200  0.0976  1.2899  0.2912
 2919TIP3   OH230247   0.965   6.805   5.987 -0.5399 -0.5386 -0.0412
 2919TIP3    H130248   0.895   6.856   6.028  0.2045 -0.0858  0.6946
 2919TIP3    H230249   0.936   6.793   5.897 -0.6950  1.3005 -0.2788
 2920TIP3   OH230250   3.495   3.803  14.348 -0.2264  0.4843  0.5955
 2920TIP3    H130251   3.559   3.747  14.392 -0.9683 -2.2456 -1.5861
 2920TIP3    H230252   3.411   3.774  14.382 -0.6155  0.4407 -0.3879
 2921TIP3   OH230253   3.603   0.683  14.237 -0.0915 -0.1958 -0.0128
 2921TIP3    H130254   3.645   0.764  14.208 -0.5170 -0.5379 -1.7030
 2921TIP3    H230255   3.524   0.677  14.183  0.1717 -1.9499 -0.2471
 2922TIP3   OH230256   3.727   4.532   3.421  0.7543 -0.2401  0.0836
 2922TIP3    H130257   3.759   4.564   3.505  1.3241 -2.0675  0.6156
 2922TIP3    H230258   3.645   4.488   3.442 -0.0390  0.8453 -0.6323
 2923TIP3   OH230259   3.727   5.707  15.109 -0.3161  0.5446  0.7178
 2923TIP3    H130260   3.657   5.646  15.087  0.3167 -0.4238  1.3160
 2923TIP3    H230261   3.772   5.725  15.027  0.6523 -1.2890  0.7938
 2924TIP3   OH230262   2.262   0.574   0.945 -0.5779 -0.2516 -0.2234
 2924TIP3    H130263   2.274   0.480   0.955 -1.3767 -0.4125 -0.7199
 2924TIP3    H230264   2.225   0.585   0.857 -1.1440  0.4629  0.0946
 2925TIP3   OH230265   4.984   5.126  12.203  0.7199 -0.1937  0.7629
 2925TIP3    H130266   4.961   5.196  12.142 -1.7872 -1.0259  0.6181
 2925TIP3    H230267   4.979   5.046  12.150  3.4495 -0.5844  0.9408
 2926TIP3   OH230268   4.584   0.278  13.416  0.3615 -0.2564 -0.0409
 2926TIP3    H130269   4.522   0.212  13.384 -0.7988 -0.8055  3.0250
 2926TIP3    H230270   4.670   0.236  13.406 -0.2742 -1.8973  0.8900
 2927TIP3   OH230271   0.730   3.216  15.819  0.0921  0.4697  0.2950
 2927TIP3    H130272   0.667   3.264  15.873  1.9565  3.4605  0.0633
 2927TIP3    H230273   0.784   3.284  15.779  1.5734 -1.8141 -1.9036
 2928TIP3   OH230274   5.746   2.818  11.024 -0.4151  0.1745 -0.1960
 2928TIP3    H130275   5.659   2.849  11.001 -0.3939  0.0916 -0.3864
 2928TIP3    H230276   5.804   2.853  10.957 -0.5005 -0.8939 -0.8517
 2929TIP3   OH230277   3.462   1.322   3.087 -0.9725 -0.1327  0.0249
 2929TIP3    H130278   3.498   1.316   3.175 -1.4737  2.0795  0.4454
 2929TIP3    H230279   3.407   1.401   3.089 -2.8137 -1.2741 -1.6400
 2930TIP3   OH230280   2.696   1.735   1.927 -0.2476 -0.7796 -0.1343
 2930TIP3    H130281   2.633   1.681   1.879 -1.3431  0.8070 -0.5277
 2930TIP3    H230282   2.774   1.734   1.872 -0.8729 -0.4880 -1.0444
 2931TIP3   OH230283   4.883   3.209   5.945  0.3308  0.3410 -0.2677
 2931TIP3    H130284   4.802   3.243   5.906  1.5780  1.2737 -2.2419
 2931TIP3    H230285   4.889   3.254   6.029 -0.3780  1.5548 -0.8320
 2932TIP3   OH230286   1.021   4.064   5.187  0.9222  0.1798 -0.3218
 2932TIP3    H130287   0.966   4.126   5.140  0.0731 -1.1148 -1.1046
 2932TIP3    H230288   1.035   4.104   5.273  2.1136  2.3859 -1.4509
 2933TIP3   OH230289   2.338   6.732  13.413 -0.2288 -0.0873 -0.5436
 2933TIP3    H130290   2.281   6.759  13.341  0.4424  1.1149 -0.6485
 2933TIP3    H230291   2.388   6.811  13.435 -0.8171 -0.2628  1.6237
 2934TIP3   OH230292   5.079   0.411  16.853 -0.1630 -0.5244  0.1434
 2934TIP3    H130293   5.011   0.355  16.888 -0.4223  0.3648  1.1293
 2934TIP3    H230294   5.132   0.436  16.929 -0.3983  1.0049 -0.1521
 2935TIP3   OH230295   5.352   2.293   1.478 -0.4070 -0.0735 -0.0037
 2935TIP3    H130296   5.308   2.224   1.428  1.4342 -0.4091 -1.2813
 2935TIP3    H230297   5.305   2.373   1.454 -0.7050 -0.4849 -0.8425
 2936TIP3   OH230298   3.254   6.357   4.564  0.2764 -0.7383 -0.5918
 2936TIP3    H130299   3.288   6.443   4.591 -0.6672 -0.0499 -1.4950
 2936TIP3    H230300   3.179   6.378   4.508 -1.3025 -2.1860  0.8742
 2937TIP3   OH230301   1.109   6.007  13.344  0.4993 -0.1773  0.1599
 2937TIP3    H130302   1.158   6.089  13.353  0.1649 -0.0128  0.5210
 2937TIP3    H230303   1.120   5.964  13.429 -0.8831  0.3647  0.6352
 2938TIP3   OH230304   0.006   4.366   1.168 -0.7487 -0.0518 -0.2904
 2938TIP3    H130305   0.032   4.411   1.087 -1.2141 -0.6225 -0.7596
 2938TIP3    H230306  -0.083   4.396   1.184 -0.0666  1.4281  0.9883
 2939TIP3   OH230307   1.116   4.063   2.619 -0.0227 -0.0959  0.1735
 2939TIP3    H130308   1.141   3.985   2.667  2.0197  0.4945  0.1672
 2939TIP3    H230309   1.040   4.098   2.667  1.2152 -0.1613  2.3207
 2940TIP3   OH230310   0.282   5.096  11.477  0.3711  0.6578  0.3215
 2940TIP3    H130311   0.191   5.078  11.453  0.7757 -0.2979 -0.5729
 2940TIP3    H230312   0.278   5.176  11.529 -0.9529  0.7507  0.1071
 2941TIP3   OH230313   2.792   5.045   6.204  0.1539 -0.6361  0.0046
 2941TIP3    H130314   2.844   4.981   6.155  0.0662 -0.8475  0.1813
 2941TIP3    H230315   2.753   4.994   6.275  1.7605  0.0288  1.4142
 2942TIP3   OH230316   5.345   2.991  12.625 -0.3804 -0.4494  0.4886
 2942TIP3    H130317   5.341   2.902  12.591  0.9118 -1.2647  2.3449
 2942TIP3    H230318   5.436   3.017  12.612 -0.8659  0.8713 -0.5688
 2943TIP3   OH230319   5.671   5.557   2.916  0.0990 -0.0173  0.1173
 2943TIP3    H130320   5.678   5.474   2.963  0.3690 -0.1120 -0.0851
 2943TIP3    H230321   5.578   5.579   2.920 -0.0565 -0.5793 -0.2503
 2944TIP3   OH230322   4.077   1.880  17.068  0.3388  0.2337  0.1343
 2944TIP3    H130323   4.154   1.863  17.014  1.8474  1.4109  1.7896
 2944TIP3    H230324   4.110   1.881  17.158 -1.4713  1.4317  0.8558
 2945TIP3   OH230325   1.033   0.199  11.867 -0.3649  0.0426 -0.9763
 2945TIP3    H130326   1.070   0.202  11.956 -0.4125  1.2584 -0.9761
 2945TIP3    H230327   0.943   0.227  11.878 -0.1385  1.0388 -1.5067
 2946TIP3   OH230328   2.929   4.591   4.335  0.0746 -0.5622  0.2375
 2946TIP3    H130329   2.858   4.596   4.399 -0.0553 -0.6563  0.1036
 2946TIP3    H230330   2.997   4.648   4.370 -0.7764  1.0087 -0.5051
 2947TIP3   OH230331   1.993   2.889  13.152  0.0036  0.4251 -0.0125
 2947TIP3    H130332   1.955   2.803  13.136 -1.4007  0.4664  2.5549
 2947TIP3    H230333   1.924   2.951  13.132  0.1309  0.7804  0.6105
 2948TIP3   OH230334   1.954   4.615  14.090 -0.2892 -0.2201 -0.5866
 2948TIP3    H130335   1.887   4.645  14.151 -0.5974 -2.5239  0.3213
 2948TIP3    H230336   1.949   4.676  14.017  0.3112  2.8774  1.7379
 2949TIP3   OH230337   2.785   0.251  12.435  0.1020  0.5650  0.3085
 2949TIP3    H130338   2.746   0.226  12.351 -0.0231  1.1183  0.1987
 2949TIP3    H230339   2.839   0.328  12.415  1.4278 -0.3038  0.4216
 2950TIP3   OH230340   4.211   5.472   5.625  0.3654 -0.0884 -0.3004
 2950TIP3    H130341   4.267   5.506   5.694 -0.5618 -1.6809  1.3140
 2950TIP3    H230342   4.264   5.408   5.579  0.0923 -1.1775  0.8610
 2951TIP3   OH230343   6.520   1.608  11.672 -0.2386 -0.4204  0.2681
 2951TIP3    H130344   6.448   1.575  11.618 -0.3792  0.3421 -0.0238
 2951TIP3    H230345   6.479   1.672  11.731  0.1174 -0.3276  0.4194
 2952TIP3   OH230346   6.258   3.695  11.716 -0.6477  0.1082 -0.2971
 2952TIP3    H130347   6.205   3.618  11.697 -2.1625  0.9585  0.2892
 2952TIP3    H230348   6.347   3.669  11.693 -1.4896 -0.8906 -2.7138
 2953TIP3   OH230349   1.951   3.666  11.426 -0.4884  0.5824 -0.1166
 2953TIP3    H130350   1.932   3.575  11.450 -3.4966  1.2507  0.5292
 2953TIP3    H230351   2.024   3.691  11.482  0.0244 -1.2421  0.1056
 2954TIP3   OH230352   2.856   1.722   3.889 -0.7950  0.1295 -0.5511
 2954TIP3    H130353   2.790   1.653   3.880  0.0195 -0.6777 -0.5859
 2954TIP3    H230354   2.896   1.706   3.974 -1.8362  1.7158  0.2779
 2955TIP3   OH230355   5.377   5.870   2.732 -0.6107  0.3173  0.0133
 2955TIP3    H130356   5.332   5.845   2.651  0.2687 -0.4854 -0.2369
 2955TIP3    H230357   5.442   5.934   2.705 -0.5115  0.2683  0.1372
 2956TIP3   OH230358   6.366   3.615   1.298 -0.5768 -0.3528 -0.1913
 2956TIP3    H130359   6.294   3.677   1.294 -1.7113 -1.6097 -0.1257
 2956TIP3    H230360   6.328   3.536   1.337  0.9671 -0.8867  0.3339
 2957TIP3   OH230361   0.100   3.542  15.350 -0.1622 -0.2762 -0.1801
 2957TIP3    H130362   0.185   3.541  15.393 -0.3643 -0.8003  0.2208
 2957TIP3    H230363   0.040   3.574  15.417 -0.5590 -1.5596  0.1005
 2958TIP3   OH230364   4.621   4.942   3.736 -0.2485 -0.4249 -0.2742
 2958TIP3    H130365   4.688   5.005   3.708 -1.4780  0.5811 -1.0455
 2958TIP3    H230366   4.567   4.929   3.658  0.6684 -3.4197 -0.5054
 2959TIP3   OH230367   0.517   2.676   4.998  0.0650  0.5923 -0.2247
 2959TIP3    H130368   0.549   2.673   5.089  2.9269 -2.4313 -1.1195
 2959TIP3    H230369   0.588   2.719   4.950 -0.2379 -0.1346 -1.3553
 2960TIP3   OH230370   4.102   2.641  11.888  0.2169 -0.2640 -0.0251
 2960TIP3    H130371   4.092   2.736  11.889  0.8217 -0.1539  2.8270
 2960TIP3    H230372   4.103   2.618  11.795 -1.2964  2.3382 -0.7802
 2961TIP3   OH230373   2.024   1.111   3.466  0.0828 -0.0046 -0.3686
 2961TIP3    H130374   2.028   1.177   3.396 -0.2825  0.7496  0.3058
 2961TIP3    H230375   2.112   1.112   3.504  0.3336 -0.5414 -0.9193
 2962TIP3   OH230376   1.368   2.513  16.607  0.6801  0.2292 -0.2943
 2962TIP3    H130377   1.288   2.565  16.609  0.3792 -0.1498 -1.4825
 2962TIP3    H230378   1.435   2.569  16.644 -0.4769 -0.0963  2.4773
 2963TIP3   OH230379   2.905   3.629   0.996  0.2393 -0.0476  0.1574
 2963TIP3    H130380   2.852   3.644   1.075  1.0193  3.3323  0.1786
 2963TIP3    H230381   2.878   3.698   0.936  0.7009 -1.6750 -2.0728
 2964TIP3   OH230382   5.845   5.255  13.657  0.4459 -0.4400  0.0986
 2964TIP3    H130383   5.881   5.341  13.678 -0.7707  0.1639 -0.2390
 2964TIP3    H230384   5.808   5.223  13.740 -0.1451 -0.1283 -0.0469
 2965TIP3   OH230385   1.858   0.134  16.689 -0.3533  0.0027  0.4031
 2965TIP3    H130386   1.882   0.224  16.666 -1.8328  0.3169  0.0287
 2965TIP3    H230387   1.764   0.130  16.676 -0.6933 -0.9198  2.7470
 2966TIP3   OH230388   5.731   4.994  14.122  0.1125 -0.4706  0.6181
 2966TIP3    H130389   5.709   4.903  14.104 -1.2458  0.1782 -1.3954
 2966TIP3    H230390   5.682   5.015  14.201 -1.8401 -0.7557 -0.4596
 2967TIP3   OH230391   0.979   6.587   0.908 -0.0526 -0.3288  0.0833
 2967TIP3    H130392   0.919   6.651   0.948  0.2919  0.1492 -0.1651
 2967TIP3    H230393   1.014   6.537   0.983  0.8392  0.7801  0.4289
 2968TIP3   OH230394   4.659   4.049  12.562 -0.0491 -0.5525 -0.5485
 2968TIP3    H130395   4.568   4.036  12.589 -0.0127 -0.0997 -0.1982
 2968TIP3    H230396   4.660   4.025  12.469 -1.1032  1.8679 -1.2691
 2969TIP3   OH230397   3.303   0.773   0.009  0.0697  0.0028  0.4605
 2969TIP3    H130398   3.384   0.724   0.020 -0.0662 -0.4497 -0.3927
 2969TIP3    H230399   3.252   0.753   0.087 -0.6348 -2.5461 -0.5261
 2970TIP3   OH230400   2.973   6.018  16.787  0.4497  0.0532 -0.2901
 2970TIP3    H130401   2.990   5.986  16.876 -0.4943 -3.0887 -1.1020
 2970TIP3    H230402   2.884   6.052  16.790 -0.5672 -2.3785 -0.4778
 2971TIP3   OH230403   0.299   6.733  16.214 -0.6941  0.5355  0.1018
 2971TIP3    H130404   0.383   6.706  16.252 -1.6030 -0.2258  1.6258
 2971TIP3    H230405   0.307   6.828  16.205  0.5278  0.4208 -0.3102
 2972TIP3   OH230406   1.414   5.118  14.888 -0.1039  0.0606 -0.2486
 2972TIP3    H130407   1.505   5.104  14.913 -0.5581 -0.6321  1.1024
 2972TIP3    H230408   1.401   5.060  14.812  0.0541 -1.3985  0.7939
 2973TIP3   OH230409   6.344   5.281  14.380 -0.3176 -0.1495  0.7341
 2973TIP3    H130410   6.258   5.277  14.340  0.0251  1.9120 -0.3020
 2973TIP3    H230411   6.336   5.347  14.449  0.0267 -1.1587  1.7881
 2974TIP3   OH230412   1.061   6.510  13.534  0.2133 -0.6694  0.0322
 2974TIP3    H130413   1.031   6.484  13.621  0.3919  2.0452  1.0092
 2974TIP3    H230414   1.156   6.512  13.540  0.2303 -0.5632 -0.2470
 2975TIP3   OH230415   2.319   5.656   6.167  0.5815  0.3574  0.3430
 2975TIP3    H130416   2.358   5.640   6.253  1.0481 -0.3786  0.0022
 2975TIP3    H230417   2.373   5.724   6.127  2.9159 -2.1134 -0.9857
 2976TIP3   OH230418   3.519   3.195  13.764  0.6034  0.4123 -0.2726
 2976TIP3    H130419   3.505   3.106  13.796  0.8819  0.0613 -1.0856
 2976TIP3    H230420   3.614   3.201  13.751  0.4603  0.3591 -1.4853
 2977TIP3   OH230421   1.237   6.673  16.683 -0.5583 -0.3613  0.1281
 2977TIP3    H130422   1.329   6.652  16.701 -0.8091 -0.1835  1.7016
 2977TIP3    H230423   1.241   6.752  16.628  0.2499 -1.6629 -1.8083
 2978TIP3   OH230424   5.762   5.689  12.043  0.5472  0.0763  0.0607
 2978TIP3    H130425   5.731   5.641  12.121 -0.5808 -0.2517 -0.5655
 2978TIP3    H230426   5.857   5.679  12.045  0.5359  0.0919  1.4129
 2979TIP3   OH230427   1.004   1.146   4.627  0.0257 -0.0971  0.4815
 2979TIP3    H130428   0.993   1.240   4.610  0.8830  0.2453  1.5963
 2979TIP3    H230429   1.026   1.142   4.720  1.6323 -1.2539  0.0945
 2980TIP3   OH230430   4.902   4.698   1.496  0.0761  0.3583 -0.0466
 2980TIP3    H130431   4.838   4.705   1.425  0.1361  0.1073 -0.1249
 2980TIP3    H230432   4.976   4.650   1.458 -0.4518 -0.9933  0.5649
 2981TIP3   OH230433   2.907   4.715   1.967  0.0185  0.4878 -0.1515
 2981TIP3    H130434   2.979   4.765   1.931  1.1169 -0.6109  0.4282
 2981TIP3    H230435   2.929   4.704   2.060  0.4774 -2.0323 -0.4687
 2982TIP3   OH230436   2.572   4.824  13.208 -0.6648  0.4674 -0.2526
 2982TIP3    H130437   2.664   4.806  13.189 -0.1445  0.7695  1.8100
 2982TIP3    H230438   2.525   4.752  13.166  0.3349  0.9960 -2.4754
 2983TIP3   OH230439   5.984   1.329  15.594 -0.9354  0.1404 -0.3192
 2983TIP3    H130440   5.991   1.319  15.499 -3.6918 -0.4103 -0.5712
 2983TIP3    H230441   5.954   1.419  15.607 -0.0216  0.3978  0.1044
 2984TIP3   OH230442   4.620   4.172  17.140 -0.6574  0.5882 -0.7069
 2984TIP3    H130443   4.620   4.101  17.204  4.3507  0.2913 -0.6589
 2984TIP3    H230444   4.629   4.251  17.192 -2.9791  1.0593 -0.9178
 2985TIP3   OH230445   1.522   3.315   2.777 -0.5393 -0.4625  0.1212
 2985TIP3    H130446   1.604   3.336   2.732 -0.6035 -2.7389 -1.2598
 2985TIP3    H230447   1.459   3.377   2.741  0.0230 -0.4208 -0.8437
 2986TIP3   OH230448   1.243   4.894  15.684  0.0719 -0.1077  0.0552
 2986TIP3    H130449   1.192   4.930  15.756  0.2729 -0.4386  0.3699
 2986TIP3    H230450   1.196   4.921  15.605 -0.1559  0.2493  0.3088
 2987TIP3   OH230451   6.070   2.064  17.159  0.3846  0.4392 -0.2431
 2987TIP3    H130452   6.108   2.151  17.153  0.3425  0.3996 -1.1873
 2987TIP3    H230453   6.139   2.005  17.127 -0.3018  0.3334 -1.5912
 2988TIP3   OH230454   2.547   3.243  11.365  0.1954 -0.7340  0.3161
 2988TIP3    H130455   2.488   3.275  11.433 -1.1111 -2.8054  0.2684
 2988TIP3    H230456   2.523   3.150  11.355  1.1470 -0.7874 -2.1371
 2989TIP3   OH230457   5.487   5.731  11.634  0.1167 -0.4064 -0.3829
 2989TIP3    H130458   5.560   5.694  11.584 -1.2813 -0.9274 -2.1747
 2989TIP3    H230459   5.410   5.714  11.579 -1.4134 -0.2003  1.5952
 2990TIP3   OH230460   5.147   3.737  17.145 -0.6329  0.0308 -0.2778
 2990TIP3    H130461   5.110   3.817  17.182 -0.9658  0.0173 -0.5820
 2990TIP3    H230462   5.234   3.763  17.114 -0.3799  0.0636  0.4215
 2991TIP3   OH230463   4.715   0.243  17.013 -0.3595  0.1412 -0.3265
 2991TIP3    H130464   4.781   0.266  17.078 -0.5280  1.3287 -0.5543
 2991TIP3    H230465   4.762   0.245  16.929 -0.8801  2.0603 -0.6155
 2992TIP3   OH230466   1.517   5.579   0.475 -0.4545 -0.2724 -0.1493
 2992TIP3    H130467   1.518   5.501   0.530  0.3956 -0.1763 -0.0149
 2992TIP3    H230468   1.480   5.648   0.531  0.3723 -0.1824  0.2991
 2993TIP3   OH230469   2.232   2.996  15.575  0.0327  0.4045  0.4285
 2993TIP3    H130470   2.231   3.078  15.623  1.3758 -0.1546  1.4860
 2993TIP3    H230471   2.323   2.967  15.579 -0.3854 -1.0750 -0.0256
 2994TIP3   OH230472   0.695   1.008  12.772  0.1580  0.6777  0.0551
 2994TIP3    H130473   0.752   0.931  12.776 -0.9328 -0.0987  1.3752
 2994TIP3    H230474   0.625   0.990  12.835 -1.4103  1.7154 -1.2902
 2995TIP3   OH230475   0.027   0.467  15.329 -0.5911 -0.0848 -0.1547
 2995TIP3    H130476   0.047   0.415  15.252  4.5462  1.0704  0.0690
 2995TIP3    H230477  -0.014   0.405  15.389  1.1936 -2.7724 -1.5066
 2996TIP3   OH230478   6.300   4.383   0.155  0.1379  0.1745  0.2622
 2996TIP3    H130479   6.263   4.469   0.134  0.7174 -0.2114 -2.6679
 2996TIP3    H230480   6.228   4.335   0.196 -0.7548  1.4125  0.1953
 2997TIP3   OH230481   5.767   5.313   2.541 -0.3569  0.1863  0.1291
 2997TIP3    H130482   5.699   5.296   2.607 -1.1384  0.0244 -0.6977
 2997TIP3    H230483   5.739   5.263   2.465  0.4134  0.5614 -0.4108
 2998TIP3   OH230484   4.391   0.736   0.661 -0.2261  0.6633 -0.5565
 2998TIP3    H130485   4.427   0.682   0.590  1.9793  0.0073  0.9565
 2998TIP3    H230486   4.301   0.755   0.633  0.6791  0.8526 -3.7151
 2999TIP3   OH230487   1.330   4.394   4.482  0.1262 -0.0146 -0.1397
 2999TIP3    H130488   1.315   4.430   4.569 -0.7525 -0.2019 -0.2084
 2999TIP3    H230489   1.385   4.317   4.498  0.6050  0.3782  0.1640
 3000TIP3   OH230490   0.078   1.285  16.259 -0.4921  0.2710 -0.4375
 3000TIP3    H130491   0.035   1.225  16.320 -0.6647  1.6331  0.8623
 3000TIP3    H230492   0.012   1.302  16.191 -0.8095 -0.2097 -0.2535
 3001TIP3   OH230493   4.151   1.666  12.414 -0.4955 -0.0190  0.3172
 3001TIP3    H130494   4.093   1.608  12.366 -0.2501  0.8644 -1.1018
 3001TIP3    H230495   4.238   1.649  12.377  0.3090 -1.6116  2.6760
 3002TIP3   OH230496   5.580   2.096  12.065  1.0341  0.0363  0.2228
 3002TIP3    H130497   5.622   2.135  11.988 -1.2365  1.4662 -0.3808
 3002TIP3    H230498   5.577   2.167  12.130 -0.9017  0.1983  0.0201
 3003TIP3   OH230499   1.861   3.690  15.559 -0.2838 -0.0068  0.5816
 3003TIP3    H130500   1.826   3.720  15.475  0.1773  0.6346  0.6098
 3003TIP3    H230501   1.784   3.684  15.616 -0.6741 -0.9332 -0.0135
 3004TIP3   OH230502   1.144   2.167  16.456 -0.4649 -0.1231  0.2845
 3004TIP3    H130503   1.100   2.094  16.500 -0.4441 -0.7244 -0.6489
 3004TIP3    H230504   1.205   2.125  16.395 -2.1577  0.5679 -2.0447
 3005TIP3   OH230505   5.527   4.054   1.784 -0.2931  0.2923  0.2184
 3005TIP3    H130506   5.614   4.080   1.813  1.1121 -0.3067 -3.0619
 3005TIP3    H230507   5.525   3.959   1.793 -0.3004  0.2260 -0.4397
 3006TIP3   OH230508   3.384   3.144   3.875 -0.0296 -0.1769  0.5001
 3006TIP3    H130509   3.334   3.128   3.795  0.5855 -0.8112  0.2342
 3006TIP3    H230510   3.329   3.202   3.926 -2.0127 -2.4793  1.1445
 3007TIP3   OH230511   6.012   0.483   6.059 -0.4649 -0.2877  0.1569
 3007TIP3    H130512   6.052   0.457   6.142  0.5603 -1.5359 -0.6871
 3007TIP3    H230513   5.936   0.425   6.050 -1.1779  0.5455  0.6900
 3008TIP3   OH230514   4.531   2.295  15.271  0.4037  0.2925 -0.3905
 3008TIP3    H130515   4.540   2.204  15.242  1.1960 -0.2323  1.3705
 3008TIP3    H230516   4.441   2.300  15.304  0.6243 -0.1184  0.2987
 3009TIP3   OH230517   0.420   6.533  13.494 -0.2610 -0.2093 -0.1520
 3009TIP3    H130518   0.501   6.524  13.445 -0.3524 -2.6125  0.0120
 3009TIP3    H230519   0.438   6.489  13.578 -1.2529  0.5772  0.4962
 3010TIP3   OH230520   1.593   0.589   1.708 -0.0491  0.8573  0.8526
 3010TIP3    H130521   1.542   0.669   1.695  1.1032  1.7475  1.6077
 3010TIP3    H230522   1.615   0.590   1.801 -0.1073 -0.4184  0.8988
 3011TIP3   OH230523   2.039   5.201  12.353  0.2394  0.4442  0.0531
 3011TIP3    H130524   2.095   5.132  12.387 -0.6778 -0.2655  0.1497
 3011TIP3    H230525   2.008   5.247  12.431 -0.7568 -0.3152  0.1242
 3012TIP3   OH230526   3.523   2.606   1.600  0.5338 -0.6546  0.0498
 3012TIP3    H130527   3.532   2.701   1.597 -0.0474 -0.5568  1.2482
 3012TIP3    H230528   3.614   2.574   1.603  0.7181 -0.0326  2.0987
 3013TIP3   OH230529   5.049   0.564  16.383 -0.0464 -0.3538 -0.3269
 3013TIP3    H130530   5.020   0.512  16.457 -0.8557  1.3736  0.6369
 3013TIP3    H230531   4.973   0.569  16.325 -0.0484 -0.0681 -0.3033
 3014TIP3   OH230532   5.516   1.849  15.661  0.0041  0.2612  0.5192
 3014TIP3    H130533   5.566   1.920  15.623  0.0641  0.5664  1.1469
 3014TIP3    H230534   5.424   1.876  15.652 -0.1710 -0.9338 -1.8997
 3015TIP3   OH230535   4.218   0.438  14.350  0.0126 -0.3101  0.2228
 3015TIP3    H130536   4.188   0.529  14.358 -0.6847 -0.5921  0.8617
 3015TIP3    H230537   4.314   0.444  14.355  0.0341  0.4895 -0.7636
 3016TIP3   OH230538   5.802   0.962   4.070  0.0508  0.3462  0.3190
 3016TIP3    H130539   5.711   0.990   4.083 -0.1684 -0.5070  0.6798
 3016TIP3    H230540   5.817   0.897   4.138  0.9072  0.4015  0.1964
 3017TIP3   OH230541   5.970   4.911   0.593  0.1950 -0.1418  0.1738
 3017TIP3    H130542   5.901   4.927   0.656  0.6039 -0.3865  0.6885
 3017TIP3    H230543   5.988   4.998   0.555  0.8630  0.2531  1.3478
 3018TIP3   OH230544   2.295   2.075   5.101  0.9777  0.5043  0.3906
 3018TIP3    H130545   2.390   2.062   5.095  1.0431  0.7563  0.7987
 3018TIP3    H230546   2.262   2.058   5.013  1.1169 -1.7871  0.7102
 3019TIP3   OH230547   1.714   4.514   3.564  0.1948 -0.0380  0.8028
 3019TIP3    H130548   1.661   4.575   3.511  1.5393  1.8569  1.5371
 3019TIP3    H230549   1.739   4.445   3.502 -0.3167  0.8040 -0.3903
 3020TIP3   OH230550   4.117   2.090   2.640  0.2215  0.0157  0.1754
 3020TIP3    H130551   4.112   2.171   2.690  1.9411 -0.2154  0.7846
 3020TIP3    H230552   4.070   2.026   2.694 -0.6331  0.4560 -0.0285
 3021TIP3   OH230553   6.079   1.076  14.188  0.2121 -0.0130 -0.1671
 3021TIP3    H130554   6.012   1.091  14.121  0.4228  0.5680 -0.2566
 3021TIP3    H230555   6.071   0.983  14.210 -0.7478  0.0884 -0.0420
 3022TIP3   OH230556   0.192   3.500   4.242  0.2354 -0.2792  0.0266
 3022TIP3    H130557   0.143   3.447   4.305 -0.6597 -0.0851 -0.4858
 3022TIP3    H230558   0.153   3.479   4.157  0.2151  0.7965 -0.2464
 3023TIP3   OH230559   3.762   5.866  14.493 -0.2990 -0.3653  0.0140
 3023TIP3    H130560   3.835   5.916  14.528 -0.5046 -0.0412 -0.0153
 3023TIP3    H230561   3.717   5.926  14.434 -0.5895 -0.5600  0.0325
 3024TIP3   OH230562   5.717   2.388  12.790 -0.3361 -0.2053  0.3013
 3024TIP3    H130563   5.694   2.468  12.743 -0.1654 -0.2866  0.0759
 3024TIP3    H230564   5.801   2.409  12.832 -0.2879 -0.2682  0.2362
 3025TIP3   OH230565   0.529   0.074  12.738  0.5251 -0.5577  0.5036
 3025TIP3    H130566   0.562   0.034  12.818 -0.4215 -1.7710  0.3201
 3025TIP3    H230567   0.605   0.076  12.679  0.6732 -1.8705  0.6168
 3026TIP3   OH230568   0.102   2.780  13.882  0.4645  0.6795 -0.0341
 3026TIP3    H130569   0.127   2.749  13.795  0.0445  1.1831 -0.3340
 3026TIP3    H230570   0.185   2.785  13.930  1.2153  3.6063 -1.4135
 3027TIP3   OH230571   6.601   4.978   5.540  0.8641  0.1505 -0.5070
 3027TIP3    H130572   6.605   5.054   5.598  1.8581  0.5096 -1.0167
 3027TIP3    H230573   6.533   4.922   5.577 -2.0717  2.6139 -1.7223
 3028TIP3   OH230574   2.882   6.807  12.407 -0.2185 -0.2557 -0.1842
 3028TIP3    H130575   2.863   6.897  12.433  3.4349  0.4032  0.7589
 3028TIP3    H230576   2.835   6.753  12.471 -2.4489  0.8673 -0.7500
 3029TIP3   OH230577   4.260   0.300  10.383 -0.0372 -0.2275 -0.1739
 3029TIP3    H130578   4.227   0.211  10.374 -1.0723  0.0239  0.9100
 3029TIP3    H230579   4.343   0.290  10.431 -1.4627 -0.4521  2.4207
 3030TIP3   OH230580   0.126   3.856   4.403 -0.4675 -0.4515 -0.1883
 3030TIP3    H130581   0.157   3.879   4.315 -0.3778  0.1545 -0.0086
 3030TIP3    H230582   0.170   3.919   4.461 -0.8684 -0.5561  0.2385
 3031TIP3   OH230583   1.711   0.844  16.796 -0.5258  0.1307  0.1675
 3031TIP3    H130584   1.619   0.851  16.821 -0.3719  2.3259  0.2443
 3031TIP3    H230585   1.757   0.905  16.854  1.1368 -1.5602  0.7326
 3032TIP3   OH230586   5.549   4.746  15.664  0.2914  0.0695  0.4263
 3032TIP3    H130587   5.569   4.720  15.754 -1.4394 -2.4231  0.1877
 3032TIP3    H230588   5.612   4.699  15.610  0.6411  0.7209  0.2542
 3033TIP3   OH230589   3.396   4.835  15.124  0.5681  0.4469  0.2651
 3033TIP3    H130590   3.439   4.921  15.128 -2.4442  2.0410  2.2506
 3033TIP3    H230591   3.406   4.800  15.213 -0.3334 -0.1627  0.1358
 3034TIP3   OH230592   6.207   5.004  14.256  0.5918 -0.0711 -0.4135
 3034TIP3    H130593   6.128   4.972  14.299 -0.4504 -1.2060 -2.9655
 3034TIP3    H230594   6.179   5.080  14.206  1.8244  1.3686  0.9612
 3035TIP3   OH230595   2.523   5.074   1.326  0.7928 -0.0603  0.6891
 3035TIP3    H130596   2.559   4.987   1.345  3.1962  0.3119 -1.5586
 3035TIP3    H230597   2.600   5.132   1.329 -0.1435  1.3786 -1.1732
 3036TIP3   OH230598   4.431   5.526  12.310 -0.1821 -0.0270 -0.9247
 3036TIP3    H130599   4.518   5.558  12.334  0.1908 -0.3468 -1.8236
 3036TIP3    H230600   4.425   5.440  12.353  0.1645 -0.2439 -1.3045
 3037TIP3   OH230601   1.911   4.674  16.137 -0.0359  0.2885 -0.4018
 3037TIP3    H130602   1.892   4.760  16.100  0.5322  0.0347 -1.3342
 3037TIP3    H230603   1.831   4.624  16.123  0.6310 -0.2731 -2.8007
 3038TIP3   OH230604   6.000   4.319   3.498 -0.1683 -0.4517 -0.4223
 3038TIP3    H130605   5.925   4.331   3.557 -0.2152 -0.3248 -0.5058
 3038TIP3    H230606   5.967   4.262   3.428  0.0608 -1.0975 -0.0130
 3039TIP3   OH230607   1.084   3.629  12.845  0.1532  0.4365  0.1689
 3039TIP3    H130608   1.092   3.680  12.765  0.0053  1.2367  0.6545
 3039TIP3    H230609   1.174   3.616  12.875  0.1568  1.0399  0.4285
 3040TIP3   OH230610   0.578   5.746  16.553 -0.0526 -0.1470 -0.2926
 3040TIP3    H130611   0.582   5.665  16.502 -0.4497 -0.6960  0.5274
 3040TIP3    H230612   0.642   5.733  16.624  1.8690  1.3445 -1.6259
 3041TIP3   OH230613   4.725   0.022   3.338  0.7763  0.2372  0.1787
 3041TIP3    H130614   4.810  -0.017   3.356  1.9670  2.3775 -0.4704
 3041TIP3    H230615   4.687  -0.034   3.270  2.7109  0.5422 -1.2414
 3042TIP3   OH230616   1.786   5.437   3.258 -0.0063 -0.2188  0.1666
 3042TIP3    H130617   1.706   5.398   3.222  0.6589 -1.7506  0.2920
 3042TIP3    H230618   1.774   5.532   3.246 -1.3733 -0.4867 -0.7696
 3043TIP3   OH230619   6.722   3.204   4.573 -0.5337  0.9433  0.5505
 3043TIP3    H130620   6.657   3.238   4.511 -1.4806 -0.2778  0.8526
 3043TIP3    H230621   6.671   3.167   4.644  0.5205  0.7322  1.2158
 3044TIP3   OH230622   6.092   5.647   0.836  0.2957 -0.2595 -0.4995
 3044TIP3    H130623   6.150   5.722   0.847 -0.8183  0.6742 -0.7831
 3044TIP3    H230624   6.090   5.605   0.922 -0.9904  1.4901  0.3846
 3045TIP3   OH230625   4.455   4.418  13.361 -0.1901 -0.5266 -0.0743
 3045TIP3    H130626   4.451   4.458  13.274 -1.0593 -0.7043 -0.1241
 3045TIP3    H230627   4.458   4.492  13.421 -0.1920 -0.3994 -0.2296
 3046TIP3   OH230628   5.119   4.450  14.185 -0.1206  0.2891 -0.3458
 3046TIP3    H130629   5.064   4.521  14.218  0.1990  0.6834 -0.6584
 3046TIP3    H230630   5.069   4.371  14.205 -0.3420  0.5757  0.2816
 3047TIP3   OH230631   1.945   5.298  16.493 -0.1516 -0.2269  0.0596
 3047TIP3    H130632   1.953   5.211  16.455  0.5111 -0.4722  0.7562
 3047TIP3    H230633   1.900   5.284  16.577 -0.3556  0.1430  0.0165
 3048TIP3   OH230634   5.933   6.017   6.695  0.3154  0.0095  0.4705
 3048TIP3    H130635   5.911   5.925   6.707 -0.0641  0.1774  1.1480
 3048TIP3    H230636   6.025   6.016   6.667  0.5393 -0.5549  1.1718
 3049TIP3   OH230637   4.587   2.404   3.871 -0.2108 -0.4665 -0.6457
 3049TIP3    H130638   4.523   2.434   3.806  0.8758 -0.7220 -1.8818
 3049TIP3    H230639   4.659   2.369   3.819  0.3130 -1.5140  0.7270
 3050TIP3   OH230640   1.369   5.315   0.309  0.1744 -0.8735  0.0767
 3050TIP3    H130641   1.315   5.239   0.288  1.9139 -2.1201 -0.1365
 3050TIP3    H230642   1.344   5.340   0.397 -1.8319 -0.4012 -0.5836
 3051TIP3   OH230643   2.170   5.496   3.666  0.5676 -0.3844  0.1501
 3051TIP3    H130644   2.094   5.490   3.609  0.7504  0.8332 -0.2563
 3051TIP3    H230645   2.234   5.546   3.616  1.1643 -0.2780  0.9865
 3052TIP3   OH230646   0.976   5.266   4.255 -0.0458 -0.0286  0.3290
 3052TIP3    H130647   1.023   5.183   4.248  1.9538  0.9678  1.1199
 3052TIP3    H230648   1.041   5.327   4.291 -1.1073  2.1511 -1.2166
 3053TIP3   OH230649   2.812   1.638   0.295 -0.5225 -0.0843  0.8030
 3053TIP3    H130650   2.734   1.598   0.255  0.9482 -0.3466 -2.0958
 3053TIP3    H230651   2.864   1.563   0.326  0.2818 -0.2391 -0.7938
 3054TIP3   OH230652   2.362   6.414  12.911  0.2254 -0.4604 -0.1810
 3054TIP3    H130653   2.268   6.427  12.897  0.6931  3.4487 -0.8538
 3054TIP3    H230654   2.376   6.436  13.003  0.3548 -2.9412  0.4836
 3055TIP3   OH230655   2.872   1.522  10.513 -0.0903 -0.3112  0.3575
 3055TIP3    H130656   2.814   1.585  10.471  0.2782 -0.3167 -0.1677
 3055TIP3    H230657   2.915   1.572  10.582 -0.7218 -0.3110  0.7628
 3056TIP3   OH230658   3.569   4.453   1.785  0.2888  0.5568  0.2800
 3056TIP3    H130659   3.576   4.363   1.752 -1.1298 -0.3007  2.1539
 3056TIP3    H230660   3.634   4.457   1.856 -2.3538 -0.4155  2.9647
 3057TIP3   OH230661   3.690   5.543   3.767  0.1605 -0.4876  0.1494
 3057TIP3    H130662   3.726   5.574   3.683  0.8442 -1.2305  0.1557
 3057TIP3    H230663   3.637   5.467   3.743 -0.9981  0.2857  0.2072
 3058TIP3   OH230664   2.307   6.183   3.182 -0.1814  0.7555  0.0190
 3058TIP3    H130665   2.334   6.274   3.173  0.4887  0.7998  2.1210
 3058TIP3    H230666   2.333   6.143   3.099 -0.6502  2.4727 -1.0215
 3059TIP3   OH230667   5.254   1.612  15.009 -0.6560 -0.0904  0.0719
 3059TIP3    H130668   5.317   1.651  14.948  0.8186 -0.7892  1.1049
 3059TIP3    H230669   5.237   1.525  14.973  0.5226 -0.6539  0.8515
 3060TIP3   OH230670   3.060   4.963   3.477 -0.4256 -0.1220 -0.1168
 3060TIP3    H130671   2.969   4.940   3.456 -0.7376  0.8332  0.1205
 3060TIP3    H230672   3.053   5.046   3.525  0.5352 -0.3336  0.4160
 3061TIP3   OH230673   0.272   3.913  14.852  0.1459 -0.2054 -0.4256
 3061TIP3    H130674   0.320   3.858  14.915  2.7023  2.1472 -0.1217
 3061TIP3    H230675   0.330   3.919  14.776 -0.5488  1.1808 -0.8794
 3062TIP3   OH230676   0.628   6.527  16.182  0.0691  0.4082 -0.0811
 3062TIP3    H130677   0.579   6.491  16.108  0.6383  0.6413 -0.5782
 3062TIP3    H230678   0.589   6.486  16.259 -0.4319  0.0509 -0.5228
 3063TIP3   OH230679   4.265   4.192  12.338 -0.4650  0.4974  0.2148
 3063TIP3    H130680   4.338   4.232  12.290  0.9888  0.0798  1.9778
 3063TIP3    H230681   4.207   4.265  12.358 -0.0571  0.9982 -0.3800
 3064TIP3   OH230682   2.054   4.347  14.088 -0.3016  0.1236 -0.1862
 3064TIP3    H130683   2.140   4.390  14.082 -1.3129  2.2486 -0.6380
 3064TIP3    H230684   1.997   4.414  14.127 -2.3459 -0.1853 -2.3914
 3065TIP3   OH230685   0.266   0.842  14.957 -0.1428  0.1000 -0.5057
 3065TIP3    H130686   0.343   0.798  14.920  0.0966  1.7714 -2.1556
 3065TIP3    H230687   0.192   0.798  14.915 -0.1231 -1.3696  0.9243
 3066TIP3   OH230688   3.482   2.996   0.439  0.1234  0.1608 -0.6252
 3066TIP3    H130689   3.423   3.061   0.401  0.1434  0.4916 -0.1038
 3066TIP3    H230690   3.424   2.932   0.480  0.0776 -0.5726 -1.7774
 3067TIP3   OH230691   3.627   3.286  12.168  0.2535  0.5515  0.6500
 3067TIP3    H130692   3.623   3.381  12.158 -0.9003  0.4335 -0.2599
 3067TIP3    H230693   3.613   3.252  12.079 -2.0261 -0.4930  1.3338
 3068TIP3   OH230694   3.158   4.832  14.008  0.1125  0.2789  0.3535
 3068TIP3    H130695   3.172   4.737  14.004  1.5830  0.4884  0.2269
 3068TIP3    H230696   3.070   4.841  14.045  0.9474 -1.0915  2.9549
 3069TIP3   OH230697   4.894   1.415   0.519  0.5489 -0.6184  0.0604
 3069TIP3    H130698   4.845   1.444   0.596 -0.6031  0.4611 -1.0365
 3069TIP3    H230699   4.835   1.431   0.445  2.2630  0.0048 -1.2431
 3070TIP3   OH230700   2.446   4.034   1.630 -0.1170 -0.2126  0.2861
 3070TIP3    H130701   2.372   3.993   1.584 -0.0309  3.0799 -3.3040
 3070TIP3    H230702   2.405   4.097   1.690 -0.1497 -1.3205  1.4885
 3071TIP3   OH230703   3.230   0.193  11.348  0.9690 -0.2358  0.7537
 3071TIP3    H130704   3.196   0.261  11.289  2.6039  0.7152  0.8404
 3071TIP3    H230705   3.191   0.111  11.315 -0.9497  0.6874  0.5786
 3072TIP3   OH230706   3.961   3.281   5.154  0.1271 -0.2951 -0.5784
 3072TIP3    H130707   3.878   3.245   5.122  0.3954 -1.3445 -0.1563
 3072TIP3    H230708   3.935   3.348   5.217 -0.3935  0.4022 -1.5250
 3073TIP3   OH230709   4.419   4.680  12.831  0.2041  0.4333 -0.4142
 3073TIP3    H130710   4.361   4.652  12.760 -0.1818  0.5334 -0.1434
 3073TIP3    H230711   4.370   4.747  12.878 -1.4890 -2.5638  2.6014
 3074TIP3   OH230712   5.284   4.739   1.133 -0.0841  0.0007 -0.1475
 3074TIP3    H130713   5.223   4.665   1.128  0.9202 -0.7932 -1.5786
 3074TIP3    H230714   5.361   4.704   1.177  1.3063 -0.5643 -2.8321
 3075TIP3   OH230715   4.125   5.881   5.094  0.3577  0.3306  0.2502
 3075TIP3    H130716   4.062   5.946   5.064  1.3669  1.3876  0.3650
 3075TIP3    H230717   4.164   5.919   5.172  1.3542 -0.1570  0.0107
 3076TIP3   OH230718   5.210   0.929  11.926 -0.7778 -0.2074  0.4081
 3076TIP3    H130719   5.144   0.923  11.857 -1.7796 -0.5905  1.3737
 3076TIP3    H230720   5.229   1.023  11.933 -0.2080 -0.2151 -0.7884
 3077TIP3   OH230721   3.537   1.897  14.150 -0.0903  0.5706 -0.1896
 3077TIP3    H130722   3.591   1.883  14.072 -0.0747  1.3811 -0.3386
 3077TIP3    H230723   3.513   1.809  14.179 -0.4838  0.2651 -1.3817
 3078TIP3   OH230724   3.925   0.106   2.627  0.1888 -0.4824  0.0896
 3078TIP3    H130725   3.906   0.043   2.556 -0.1217  0.6322 -0.8468
 3078TIP3    H230726   3.951   0.186   2.581 -0.6343  0.4612  1.2271
 3079TIP3   OH230727   5.264   5.952  14.902  0.2106 -0.2359 -0.4448
 3079TIP3    H130728   5.335   6.008  14.934 -1.1628  0.7977  0.8753
 3079TIP3    H230729   5.249   5.981  14.812  0.6004  0.4012 -0.3109
 3080TIP3   OH230730   2.619   3.087   4.365 -0.1359 -0.2030  0.1864
 3080TIP3    H130731   2.676   3.044   4.301  0.0685  0.4337 -0.0674
 3080TIP3    H230732   2.663   3.073   4.449 -0.8515 -1.8044  0.3348
 3081TIP3   OH230733   0.447   0.431   4.133 -0.5923  0.1895  0.1114
 3081TIP3    H130734   0.445   0.435   4.038 -0.9789  2.4135  0.1487
 3081TIP3    H230735   0.461   0.522   4.161 -0.4547 -0.3969  2.1809
 3082TIP3   OH230736   3.539   3.117  10.866 -0.2196 -0.4232  0.5549
 3082TIP3    H130737   3.544   3.140  10.959 -0.1687  0.1175  0.4232
 3082TIP3    H230738   3.600   3.044  10.856 -0.8336 -1.0353  1.1065
 3083TIP3   OH230739   5.587   2.158   1.445  0.1050 -0.0260 -0.1580
 3083TIP3    H130740   5.558   2.107   1.369  0.8585 -1.2587  0.3572
 3083TIP3    H230741   5.506   2.191   1.484 -0.3021  0.5839 -1.4338
 3084TIP3   OH230742   0.794   5.410  14.679 -0.1089 -0.5820  0.3963
 3084TIP3    H130743   0.772   5.431  14.770 -0.4530 -1.1495  0.4466
 3084TIP3    H230744   0.750   5.479  14.628  1.0305  0.4110  0.7185
 3085TIP3   OH230745   1.514   5.992   6.626  0.5348  0.3511  0.3786
 3085TIP3    H130746   1.564   6.067   6.596 -0.9027  1.1816 -0.0385
 3085TIP3    H230747   1.530   5.988   6.720  0.4577  1.3367  0.4421
 3086TIP3   OH230748   0.272   0.604   6.190  0.0737 -0.4959 -0.1364
 3086TIP3    H130749   0.246   0.694   6.170 -0.4913 -1.3289 -4.0194
 3086TIP3    H230750   0.355   0.592   6.142  0.4670 -1.8879  0.8208
 3087TIP3   OH230751   1.508   1.275   3.133 -0.2794  0.0055  0.6365
 3087TIP3    H130752   1.416   1.276   3.161 -1.1911 -1.3853 -1.9525
 3087TIP3    H230753   1.545   1.197   3.174  0.0388  0.9768  2.3046
 3088TIP3   OH230754   5.653   1.235   3.531  0.3251 -0.1712  0.2713
 3088TIP3    H130755   5.691   1.313   3.572  1.0336 -0.5626  0.3760
 3088TIP3    H230756   5.723   1.170   3.535  0.3893 -0.2563 -1.4773
 3089TIP3   OH230757   2.314   1.513  14.710  1.0759  0.1267 -0.2057
 3089TIP3    H130758   2.269   1.533  14.628  2.5443 -0.1440 -1.1374
 3089TIP3    H230759   2.325   1.597  14.753 -1.0100  0.0985  0.4593
 3090TIP3   OH230760   4.481   3.688   5.569  0.4054  0.6158 -0.2124
 3090TIP3    H130761   4.464   3.726   5.655  0.9533  0.2684  0.0570
 3090TIP3    H230762   4.514   3.600   5.588  0.3605  0.4731 -0.7834
 3091TIP3   OH230763   0.581   0.075  14.323 -0.1941 -0.2565  0.4319
 3091TIP3    H130764   0.491   0.046  14.310  0.0997 -0.3245 -1.8411
 3091TIP3    H230765   0.587   0.158  14.275  0.7234  0.2369  1.3483
 3092TIP3   OH230766   4.617   2.029  17.102 -0.9564  0.5225  0.2596
 3092TIP3    H130767   4.614   1.955  17.041  0.5486  0.4591  0.2222
 3092TIP3    H230768   4.682   2.002  17.168 -1.8197  1.0086  1.3363
 3093TIP3   OH230769   3.145   2.943  13.118 -0.1070  0.0835  0.5057
 3093TIP3    H130770   3.212   2.878  13.096  0.2592  0.7038 -0.2594
 3093TIP3    H230771   3.062   2.898  13.101  0.0773 -0.8548  1.9239
 3094TIP3   OH230772   3.153   3.494  15.425 -0.4073  0.2148 -0.1890
 3094TIP3    H130773   3.139   3.506  15.519 -1.8169  1.2284 -0.5079
 3094TIP3    H230774   3.179   3.581  15.393 -1.4585  0.2504 -0.9812
 3095TIP3   OH230775   2.784   4.626  15.026  0.5030 -0.2203 -0.2282
 3095TIP3    H130776   2.846   4.557  15.005  0.6157  0.0376 -0.7666
 3095TIP3    H230777   2.701   4.580  15.042  0.2163 -0.4009 -1.9910
 3096TIP3   OH230778   5.866   5.451   2.184 -0.1490  0.2827 -0.3197
 3096TIP3    H130779   5.860   5.498   2.101 -0.5448  1.3741  0.3098
 3096TIP3    H230780   5.884   5.361   2.159  0.7562  0.7704 -1.5687
 3097TIP3   OH230781   3.854   4.112   5.146 -0.3832 -0.0939 -0.3450
 3097TIP3    H130782   3.846   4.066   5.063  0.7321  1.0691 -1.1244
 3097TIP3    H230783   3.764   4.126   5.175 -0.7584 -1.7290 -0.6476
 3098TIP3   OH230784   3.163   3.431  11.883 -0.2368  0.4270 -0.2176
 3098TIP3    H130785   3.135   3.502  11.940 -2.0284  0.5390 -1.1705
 3098TIP3    H230786   3.194   3.474  11.803  0.3596  0.1928 -0.1194
 3099TIP3   OH230787   0.323   4.789   0.541 -0.2928  0.3539 -0.6634
 3099TIP3    H130788   0.271   4.709   0.538  0.7049 -0.3665  0.4369
 3099TIP3    H230789   0.409   4.764   0.507 -0.2040  1.1603 -1.0569
 3100TIP3   OH230790   5.866   0.999  12.703  0.8017 -0.1819 -0.0796
 3100TIP3    H130791   5.867   1.052  12.784  1.4847  1.2319 -0.9672
 3100TIP3    H230792   5.917   0.921  12.725 -0.6667 -0.7903  1.4297
 3101TIP3   OH230793   0.506   1.134  14.907 -0.4733  0.1270  0.1346
 3101TIP3    H130794   0.598   1.110  14.917 -0.2290  0.5837 -0.8512
 3101TIP3    H230795   0.509   1.224  14.873 -1.2883  0.2817  0.4590
 3102TIP3   OH230796   2.087   1.542   2.112  0.3407 -0.4070  0.2258
 3102TIP3    H130797   2.091   1.621   2.058  0.2594 -0.7586 -0.3018
 3102TIP3    H230798   2.169   1.496   2.092  0.0224 -0.8465 -0.0860
 3103TIP3   OH230799   1.103   3.730  12.298 -0.5320 -0.8440  0.1616
 3103TIP3    H130800   1.177   3.723  12.238 -0.5274 -3.1050  0.3368
 3103TIP3    H230801   1.104   3.821  12.327  0.4003 -0.0917 -2.0517
 3104TIP3   OH230802   5.137   3.280  16.448  0.1726  0.0577 -0.1090
 3104TIP3    H130803   5.158   3.372  16.431  0.3113  0.6989  3.0174
 3104TIP3    H230804   5.222   3.236  16.455  0.3270  0.6281  2.5773
 3105TIP3   OH230805   1.819   4.889  15.968  0.5124  0.0616 -0.2400
 3105TIP3    H130806   1.733   4.855  15.943 -0.7208  2.3132  0.5743
 3105TIP3    H230807   1.850   4.935  15.890  0.9116 -0.5812 -0.4685
 3106TIP3   OH230808   6.581   3.454   1.960 -0.2598  0.0686 -0.1579
 3106TIP3    H130809   6.508   3.510   1.935 -0.7448  0.2888  1.6288
 3106TIP3    H230810   6.659   3.509   1.947 -0.7641  1.4947  2.1544
 3107TIP3   OH230811   0.804   1.500  11.698 -0.4999 -0.1417 -0.2248
 3107TIP3    H130812   0.787   1.408  11.719 -0.1803 -0.2238 -0.3125
 3107TIP3    H230813   0.835   1.498  11.607  0.3868 -0.0517  0.0666
 3108TIP3   OH230814   2.656   5.032  16.588  0.5150 -0.0602 -0.5312
 3108TIP3    H130815   2.569   5.038  16.547 -0.6304 -0.0083  1.7412
 3108TIP3    H230816   2.702   4.966  16.538 -1.5873 -1.5808 -0.5838
 3109TIP3   OH230817   0.753   3.532  11.751  0.5236  0.3363  0.3641
 3109TIP3    H130818   0.695   3.537  11.827 -1.5191  0.5599 -1.1353
 3109TIP3    H230819   0.766   3.438  11.738  1.3476  0.3028  1.2809
 3110TIP3   OH230820   0.431   1.335  12.026 -0.2487 -0.6791  0.2853
 3110TIP3    H130821   0.420   1.273  12.098 -0.8166  0.0890  0.8811
 3110TIP3    H230822   0.343   1.370  12.011  0.1251  0.2765  0.2453
 3111TIP3   OH230823   4.170   4.374  13.519 -0.0378 -0.1021  0.1276
 3111TIP3    H130824   4.220   4.297  13.548 -0.5795  0.2193  2.1096
 3111TIP3    H230825   4.215   4.448  13.559 -1.2364  0.3116  0.7934
 3112TIP3   OH230826   1.743   1.726  15.227  0.5982 -0.0209  0.0131
 3112TIP3    H130827   1.778   1.637  15.221 -0.0417 -0.3118  0.5395
 3112TIP3    H230828   1.649   1.714  15.237  0.6306  0.6846  1.2501
 3113TIP3   OH230829   0.215   4.817  11.401 -0.5161  0.7935 -0.3792
 3113TIP3    H130830   0.289   4.865  11.437 -0.3794  0.5736 -0.3641
 3113TIP3    H230831   0.142   4.879  11.404 -0.6041  0.6619  0.6381
 3114TIP3   OH230832   5.261   1.305   1.211  0.0165  0.0328  0.3612
 3114TIP3    H130833   5.243   1.249   1.136  1.4937 -0.5225  0.3779
 3114TIP3    H230834   5.226   1.258   1.286 -0.9767  0.3323  0.0995
 3115TIP3   OH230835   4.577   0.566  14.263 -0.5059 -0.9564 -0.2073
 3115TIP3    H130836   4.513   0.638  14.270  0.2297 -0.2920 -0.2284
 3115TIP3    H230837   4.633   0.576  14.340  0.6027 -0.5209 -1.0477
 3116TIP3   OH230838   1.926   2.333   6.542  0.1145  0.1833 -0.6330
 3116TIP3    H130839   1.861   2.273   6.579 -0.5026 -0.0554 -2.0106
 3116TIP3    H230840   1.895   2.420   6.567  0.4235 -0.0193  0.4744
 3117TIP3   OH230841   2.987   4.873  13.367 -0.2255 -0.2721  0.2934
 3117TIP3    H130842   3.070   4.877  13.413 -0.1683  0.0468  0.1637
 3117TIP3    H230843   2.968   4.779  13.359  0.0770 -0.3420  0.3970
 3118TIP3   OH230844   6.077   0.005  13.735  0.2175 -0.0414 -0.2461
 3118TIP3    H130845   6.149   0.035  13.680 -0.2699 -0.1728 -0.9677
 3118TIP3    H230846   6.040  -0.069  13.688  2.2472 -2.7931  2.0894
 3119TIP3   OH230847   6.202   5.796   6.453  0.0198 -0.0493  0.4599
 3119TIP3    H130848   6.225   5.713   6.495  1.6477 -0.3744 -0.9218
 3119TIP3    H230849   6.257   5.861   6.496 -0.8397  0.2283  1.1552
 3120TIP3   OH230850   1.932   6.026  11.780 -0.0638  0.8283 -0.6611
 3120TIP3    H130851   1.907   5.934  11.784  0.9004  0.5551 -0.8518
 3120TIP3    H230852   1.861   6.072  11.826  0.7169 -0.2328  1.7239
 3121TIP3   OH230853   2.089   1.981   3.146  0.2261  0.2314 -0.3458
 3121TIP3    H130854   2.136   1.993   3.063  0.2677  1.2436 -0.1797
 3121TIP3    H230855   2.155   1.942   3.205  0.4345  0.2937 -0.5363
 3122TIP3   OH230856   1.952   1.588   3.136 -0.0729 -0.4249  0.1395
 3122TIP3    H130857   2.045   1.573   3.152 -0.6079 -3.2611  1.1212
 3122TIP3    H230858   1.925   1.514   3.082 -1.5422  1.0362 -1.2537
 3123TIP3   OH230859   6.245   2.178  16.186 -0.1538  0.4071  0.0222
 3123TIP3    H130860   6.166   2.133  16.216 -0.0629 -0.1257 -0.5314
 3123TIP3    H230861   6.280   2.220  16.265 -1.5177  1.4777  0.1021
 3124TIP3   OH230862   2.821   3.510   2.864  0.0861 -0.2970 -0.5559
 3124TIP3    H130863   2.800   3.588   2.915  1.2466 -1.3063  1.6199
 3124TIP3    H230864   2.767   3.441   2.903  0.7907 -1.0561 -0.8952
 3125TIP3   OH230865   5.268   0.248   0.764 -0.1037 -0.1856  0.7325
 3125TIP3    H130866   5.348   0.237   0.713  0.9734  4.1888  1.0860
 3125TIP3    H230867   5.296   0.291   0.845 -2.8501  2.9892  0.2092
 3126TIP3   OH230868   0.106   0.794   0.350  0.3189 -0.3397  0.3065
 3126TIP3    H130869   0.159   0.732   0.301 -0.0421  0.1607 -0.7534
 3126TIP3    H230870   0.085   0.863   0.287  0.8585  0.9609  1.4771
 3127TIP3   OH230871   0.263   1.675   3.917  0.1479  0.1412 -0.0326
 3127TIP3    H130872   0.224   1.646   3.834  0.1382 -1.5337  0.5126
 3127TIP3    H230873   0.231   1.612   3.982  0.0643  1.4856  1.2801
 3128TIP3   OH230874   5.342   3.937  16.755  0.0373 -0.1962  0.1382
 3128TIP3    H130875   5.366   3.929  16.848  0.4085 -1.1412 -0.0285
 3128TIP3    H230876   5.424   3.961  16.712 -0.3569  1.3116  0.1766
 3129TIP3   OH230877   6.571   0.881  12.643 -0.2220 -0.0320 -0.5829
 3129TIP3    H130878   6.650   0.893  12.591 -0.1564 -1.7731 -0.9551
 3129TIP3    H230879   6.527   0.806  12.603 -1.5773  0.3058  0.2070
 3130TIP3   OH230880   6.654   1.388   0.200  0.2834  0.5280  0.3246
 3130TIP3    H130881   6.691   1.332   0.132 -0.6620  1.8832 -1.3707
 3130TIP3    H230882   6.713   1.463   0.204 -0.6737  1.3263 -0.3301
 3131TIP3   OH230883   1.915   5.114   3.530 -0.1612 -0.1325 -0.1321
 3131TIP3    H130884   1.900   5.026   3.495 -1.6498 -0.4085  1.1304
 3131TIP3    H230885   1.828   5.151   3.541  0.3942  1.0079  0.6009
 3132TIP3   OH230886   2.344   2.562   4.472  0.3747 -0.0352 -0.3673
 3132TIP3    H130887   2.335   2.546   4.378  0.9842  0.8013 -0.5801
 3132TIP3    H230888   2.329   2.656   4.482 -1.7943 -0.4295  0.6703
 3133TIP3   OH230889   5.869   4.343  12.104 -0.4296  0.4214  0.0908
 3133TIP3    H130890   5.832   4.268  12.058  0.2079 -1.0331  1.8338
 3133TIP3    H230891   5.811   4.416  12.083  0.0128 -0.0397 -3.2231
 3134TIP3   OH230892   4.472   4.011  14.778  0.1619  0.3523  0.1571
 3134TIP3    H130893   4.481   3.923  14.742  0.1565  0.1456  0.6442
 3134TIP3    H230894   4.562   4.042  14.787  0.1737  1.9032 -3.5144
 3135TIP3   OH230895   5.964   2.996   6.198  0.1675  0.3446 -0.4225
 3135TIP3    H130896   6.042   3.050   6.213  1.9597 -2.6051  1.8783
 3135TIP3    H230897   5.902   3.025   6.265  1.0381 -0.2244  0.6668
 3136TIP3   OH230898   0.068   0.354  15.744  0.1326 -0.2475  0.1173
 3136TIP3    H130899   0.133   0.385  15.681  0.8359 -0.2914  0.8043
 3136TIP3    H230900   0.070   0.259  15.734 -0.4045 -0.2069 -0.4164
 3137TIP3   OH230901   4.527   4.087   3.674  0.1542 -0.0077 -0.3245
 3137TIP3    H130902   4.520   3.994   3.655  0.9619 -0.3775  1.0117
 3137TIP3    H230903   4.621   4.102   3.686 -0.0039  0.8814 -0.1097
 3138TIP3   OH230904   5.951   3.732  17.001  0.4650  0.5959  0.0378
 3138TIP3    H130905   5.981   3.649  17.039  0.2104  0.2695 -0.4713
 3138TIP3    H230906   5.999   3.739  16.919  0.2272  0.7890 -0.0844
 3139TIP3   OH230907   3.098   3.825  11.636  0.2070 -0.4967  0.4877
 3139TIP3    H130908   3.096   3.850  11.543 -0.2968 -1.5199  0.2110
 3139TIP3    H230909   3.190   3.805  11.654  0.7278  1.8699  0.8341
 3140TIP3   OH230910   4.827   1.144   0.612  0.5959 -0.0998  0.6435
 3140TIP3    H130911   4.853   1.208   0.545  1.5978 -1.7955 -0.6497
 3140TIP3    H230912   4.812   1.197   0.691  0.8933  1.7738 -0.4982
 3141TIP3   OH230913   1.535   4.255  11.573  0.2083 -0.0274 -0.0899
 3141TIP3    H130914   1.521   4.347  11.595 -3.6170 -0.7925  1.4885
 3141TIP3    H230915   1.531   4.251  11.478  0.4036  1.4049 -0.1676
 3142TIP3   OH230916   5.015   0.072  14.692  0.0404  0.5816  0.2221
 3142TIP3    H130917   4.947   0.134  14.717  0.4193  1.6488 -1.2512
 3142TIP3    H230918   4.968  -0.004  14.660 -0.4369  0.3761  1.3748
 3143TIP3   OH230919   0.648   0.025   2.265  0.1958  0.1534  0.5661
 3143TIP3    H130920   0.633  -0.053   2.319 -0.1794  0.6152  1.1409
 3143TIP3    H230921   0.651   0.097   2.327 -0.4227  0.7221 -0.0472
 3144TIP3   OH230922   4.842   6.603  13.617  0.2534  0.0383  0.5045
 3144TIP3    H130923   4.922   6.551  13.620  1.6687  1.9294 -1.2022
 3144TIP3    H230924   4.793   6.568  13.542  0.3096 -0.0049  0.4884
 3145TIP3   OH230925   1.569   5.236   5.512 -0.2238  0.0133  0.1775
 3145TIP3    H130926   1.495   5.250   5.571  0.9484 -0.7313  1.9114
 3145TIP3    H230927   1.624   5.314   5.524  0.9756 -0.9961  1.6230
 3146TIP3   OH230928   2.011   2.606  14.149 -0.6478 -0.2403 -0.2429
 3146TIP3    H130929   2.082   2.561  14.195  0.5777  1.6561 -0.1497
 3146TIP3    H230930   1.942   2.615  14.215 -0.2603 -0.5335  0.2089
 3147TIP3   OH230931   0.141   5.057   4.937  0.2787 -0.1327 -0.5493
 3147TIP3    H130932   0.167   5.127   4.878 -1.1514  2.0531  1.2369
 3147TIP3    H230933   0.167   5.089   5.024  1.5137 -2.8229  0.1720
 3148TIP3   OH230934   5.340   2.142   1.035 -0.2538 -0.9437  0.1215
 3148TIP3    H130935   5.349   2.047   1.045 -4.0113 -1.5539 -0.5789
 3148TIP3    H230936   5.368   2.159   0.945  1.8282 -1.0714  0.7031
 3149TIP3   OH230937   0.314   5.769  15.462 -0.9496 -0.5575  0.2729
 3149TIP3    H130938   0.311   5.863  15.479  0.2847 -0.2323 -1.1203
 3149TIP3    H230939   0.385   5.737  15.519  0.3242 -0.1810 -1.0328
 3150TIP3   OH230940   1.012   5.536  15.051 -0.3336 -0.3259  0.2161
 3150TIP3    H130941   1.058   5.547  14.968  0.3450 -1.6588  0.3772
 3150TIP3    H230942   0.924   5.569  15.035  0.4206  1.5374 -0.3455
 3151TIP3   OH230943   0.532   4.635   0.169 -0.6911 -0.1749 -0.3377
 3151TIP3    H130944   0.504   4.657   0.081  0.3773  0.0655 -0.6382
 3151TIP3    H230945   0.544   4.719   0.213 -1.7717 -0.3067  0.2272
 3152TIP3   OH230946   0.155   0.230   3.463  0.1238  0.6691  0.0634
 3152TIP3    H130947   0.127   0.321   3.475 -0.0754  0.7291 -0.8143
 3152TIP3    H230948   0.248   0.236   3.440 -0.3914  0.8202 -2.1886
 3153TIP3   OH230949   0.320   5.432  13.199  0.8914 -0.0827 -0.0931
 3153TIP3    H130950   0.237   5.479  13.186  0.3834  0.0994  2.9300
 3153TIP3    H230951   0.305   5.346  13.161 -0.8682 -0.1638  0.6689
 3154TIP3   OH230952   1.894   2.080   5.945  0.1685 -0.3069 -0.4288
 3154TIP3    H130953   1.855   2.011   5.999 -0.9949 -0.6957 -1.7006
 3154TIP3    H230954   1.926   2.034   5.868  0.4853  0.4218 -0.7355
 3155TIP3   OH230955   1.887   4.270   6.012 -0.3282 -0.1317 -0.0993
 3155TIP3    H130956   1.940   4.349   5.999 -0.5609  0.1957  0.8521
 3155TIP3    H230957   1.825   4.294   6.082  0.8636 -1.7310  1.6008
 3156TIP3   OH230958   1.656   6.063  15.869 -0.3409 -0.0983  0.5645
 3156TIP3    H130959   1.745   6.099  15.868 -0.2914 -0.2340 -0.0237
 3156TIP3    H230960   1.668   5.970  15.889 -0.2803 -0.2971 -0.3637
 3157TIP3   OH230961   5.140   0.995  12.576 -0.1035 -0.1212 -0.4633
 3157TIP3    H130962   5.134   1.086  12.604  0.9930 -0.3471  0.6079
 3157TIP3    H230963   5.107   0.944  12.650 -0.8785 -0.6031 -1.1174
 3158TIP3   OH230964   5.080   5.636  16.510  0.0467 -0.5683 -0.0609
 3158TIP3    H130965   5.013   5.697  16.541  1.0430  0.1362  0.7681
 3158TIP3    H230966   5.064   5.555  16.559  0.5205 -0.0252  1.0005
 3159TIP3   OH230967   4.322   5.153   4.660  0.0755 -0.2882  0.2821
 3159TIP3    H130968   4.274   5.071   4.659 -0.7168  0.1583 -0.6386
 3159TIP3    H230969   4.394   5.140   4.598  2.4288 -1.6254  3.0626
 3160TIP3   OH230970   3.070   2.734   4.112  0.0910 -0.2172  0.4795
 3160TIP3    H130971   3.141   2.796   4.124  1.9856 -1.9222 -1.1676
 3160TIP3    H230972   3.044   2.744   4.020 -1.2244 -0.2193  0.8278
 3161TIP3   OH230973   5.432   4.123   5.073 -0.0506  0.3968  0.1846
 3161TIP3    H130974   5.514   4.105   5.028  0.3143  1.3971  0.4221
 3161TIP3    H230975   5.405   4.039   5.109  0.8798  0.0599  0.1072
 3162TIP3   OH230976   1.460   0.794   2.062  0.1195  0.7498 -0.5970
 3162TIP3    H130977   1.474   0.842   1.981  2.2016  1.8559  0.3358
 3162TIP3    H230978   1.530   0.824   2.120  0.5592 -2.2528  0.5963
 3163TIP3   OH230979   4.352   3.966   0.183 -0.0215  0.0177  0.0964
 3163TIP3    H130980   4.349   3.939   0.274  1.0033 -0.4178  0.0074
 3163TIP3    H230981   4.275   3.924   0.143 -0.8962  0.8236  0.9085
 3164TIP3   OH230982   5.873   6.194   2.791  0.0137  0.3156  0.4821
 3164TIP3    H130983   5.935   6.250   2.838  0.1205  2.3406 -1.8796
 3164TIP3    H230984   5.925   6.149   2.725 -0.2938 -1.7456  1.5630
 3165TIP3   OH230985   0.191   2.423   3.828  0.3350 -0.4879 -0.5775
 3165TIP3    H130986   0.132   2.416   3.753 -0.4467  2.0279 -0.2839
 3165TIP3    H230987   0.157   2.359   3.891 -2.9816  1.6497  0.0821
 3166TIP3   OH230988   4.950   2.142  10.895  0.4330  0.0737 -0.2471
 3166TIP3    H130989   4.906   2.162  10.813  1.7328 -1.4515 -1.3673
 3166TIP3    H230990   5.009   2.069  10.875  1.9728  0.6873  1.6473
 3167TIP3   OH230991   4.240   1.830  16.332  0.1788  0.0987 -0.1750
 3167TIP3    H130992   4.196   1.915  16.334 -0.7070 -0.2944 -1.7153
 3167TIP3    H230993   4.331   1.850  16.353 -0.0125  1.4187 -0.5093
 3168TIP3   OH230994   4.020   2.341   6.808  0.0856 -0.1831  0.4039
 3168TIP3    H130995   3.938   2.314   6.767 -0.7217 -0.4497  2.1070
 3168TIP3    H230996   4.052   2.262   6.853  1.7381 -0.3183 -0.8924
 3169TIP3   OH230997   2.828   6.500   5.239  0.6379  0.4781 -1.0829
 3169TIP3    H130998   2.872   6.486   5.155 -0.1282  2.9206 -1.9931
 3169TIP3    H230999   2.739   6.469   5.225  0.8586 -0.3364 -0.7175
 3170TIP3   OH231000   1.208   0.375  16.279  0.3323  0.1252  0.2183
 3170TIP3    H131001   1.243   0.461  16.301 -0.1790  0.4703 -0.2656
 3170TIP3    H231002   1.140   0.359  16.344  1.4081 -0.5712  1.1944
 3171TIP3   OH231003   6.417   4.233   1.866  0.2848 -0.2608 -0.1265
 3171TIP3    H131004   6.506   4.237   1.832  0.4734  1.3509  0.4835
 3171TIP3    H231005   6.371   4.305   1.824 -0.5794 -0.7017  0.0194
 3172TIP3   OH231006   1.920   4.888   3.348 -1.1344  0.1301  0.3634
 3172TIP3    H131007   1.897   4.834   3.272 -0.8785 -1.2029  1.2033
 3172TIP3    H231008   1.952   4.970   3.310 -0.4223 -0.7350 -0.9951
 3173TIP3   OH231009   2.031   2.451   4.410 -0.4770 -0.1431 -0.1317
 3173TIP3    H131010   2.096   2.521   4.407 -1.2183  0.5577 -0.2137
 3173TIP3    H231011   2.081   2.373   4.436  0.5282  0.2059 -0.9425
 3174TIP3   OH231012   2.163   2.816  16.295 -0.6307  0.6785 -0.3992
 3174TIP3    H131013   2.171   2.820  16.390 -0.9714 -1.8504 -0.1803
 3174TIP3    H231014   2.069   2.828  16.278 -1.0459 -1.5818 -0.0945
 3175TIP3   OH231015   0.387   3.015  16.869 -0.6529  0.0640  0.2317
 3175TIP3    H131016   0.307   3.066  16.881 -0.4725  0.5045 -0.4044
 3175TIP3    H231017   0.422   3.004  16.958 -1.5630 -0.3891  0.5489
 3176TIP3   OH231018   5.635   1.076  11.113 -0.1849 -0.6453 -0.4057
 3176TIP3    H131019   5.648   1.022  11.035  0.7944 -0.5721 -0.3044
 3176TIP3    H231020   5.721   1.111  11.133 -0.0975 -1.8183  1.5351
 3177TIP3   OH231021   0.142   0.657   2.722 -0.2717  0.3846  0.5332
 3177TIP3    H131022   0.231   0.643   2.688 -0.9767 -0.6526 -0.9872
 3177TIP3    H231023   0.152   0.727   2.786  1.9468 -0.9440  1.7770
 3178TIP3   OH231024   5.805   1.599  13.525  0.2026  0.3124 -0.0066
 3178TIP3    H131025   5.824   1.509  13.500 -1.1111 -0.2204  0.8048
 3178TIP3    H231026   5.842   1.608  13.613 -2.0952 -0.3837  1.1141
 3179TIP3   OH231027   4.505   6.226  16.153  0.1902  0.3953  0.7352
 3179TIP3    H131028   4.600   6.213  16.142  0.3827  2.2967 -0.2323
 3179TIP3    H231029   4.468   6.197  16.070  0.1086  1.1327  0.5062
 3180TIP3   OH231030   2.595   3.239  10.595  0.2618  0.2726 -0.3665
 3180TIP3    H131031   2.653   3.164  10.579  0.0573 -0.0955  0.5419
 3180TIP3    H231032   2.607   3.295  10.519  1.3105 -0.1156 -0.5086
 3181TIP3   OH231033   1.567   1.611   4.389 -0.3034  0.2816  0.1607
 3181TIP3    H131034   1.605   1.576   4.309  0.5204  1.1871  0.1475
 3181TIP3    H231035   1.609   1.696   4.401 -0.7053  0.3309  1.3402
 3182TIP3   OH231036   0.255   1.261   1.017 -0.0507  0.3871 -0.4411
 3182TIP3    H131037   0.302   1.342   1.035  0.2203 -0.1525  1.5929
 3182TIP3    H231038   0.323   1.193   1.024 -0.5425 -0.1307 -0.6445
 3183TIP3   OH231039   1.805   5.998  17.103 -0.3221  0.1507  0.5290
 3183TIP3    H131040   1.810   6.008  17.198  0.8769 -0.6142  0.5636
 3183TIP3    H231041   1.711   5.999  17.084 -0.5432  3.0814  1.3806
 3184TIP3   OH231042   3.146   6.759  16.063 -0.2565 -0.2251 -0.1660
 3184TIP3    H131043   3.098   6.724  15.989 -3.4118  0.9407  1.1669
 3184TIP3    H231044   3.159   6.851  16.042  1.9317 -0.5980 -0.6878
 3185TIP3   OH231045   3.735   1.316   5.454 -0.5721  0.5564 -0.2660
 3185TIP3    H131046   3.784   1.236   5.438  0.6762  1.3335 -0.4704
 3185TIP3    H231047   3.643   1.290   5.450 -0.2088 -1.2131  1.4938
 3186TIP3   OH231048   5.085   5.194   0.967  0.5590 -0.0791 -0.6575
 3186TIP3    H131049   5.144   5.258   1.008  0.8489 -0.7773  0.0273
 3186TIP3    H231050   5.113   5.110   1.002  0.0452 -0.5684 -1.4017
 3187TIP3   OH231051   6.153   1.926   3.846  0.2932  0.4920 -0.1022
 3187TIP3    H131052   6.102   1.955   3.771 -0.4597 -0.1760  0.1311
 3187TIP3    H231053   6.162   2.004   3.901 -0.3177  0.6683 -0.2414
 3188TIP3   OH231054   0.022   3.773  14.924  0.5648 -0.2451  0.3260
 3188TIP3    H131055   0.058   3.784  15.012  2.5270 -0.3418 -0.4142
 3188TIP3    H231056   0.054   3.687  14.896  0.1248 -0.1265 -0.5577
 3189TIP3   OH231057   5.308   5.899  11.917 -0.2657  0.0282 -0.0364
 3189TIP3    H131058   5.305   5.939  12.004 -2.0397 -0.9255  0.3935
 3189TIP3    H231059   5.385   5.938  11.876  0.4535  0.7365  1.8352
 3190TIP3   OH231060   1.687   3.011   1.530  0.0422  0.2995  0.1862
 3190TIP3    H131061   1.732   3.080   1.579  1.8448  0.9892 -2.2796
 3190TIP3    H231062   1.749   2.937   1.531  0.1441  0.3506 -1.0569
 3191TIP3   OH231063   1.471   4.754  15.634 -0.1663  0.0613  0.0493
 3191TIP3    H131064   1.508   4.791  15.554  0.2039 -0.5096 -0.0528
 3191TIP3    H231065   1.380   4.783  15.634  0.0256  0.6757 -0.1964
 3192TIP3   OH231066   1.157   2.556  11.397 -0.1190 -0.0004  0.3160
 3192TIP3    H131067   1.145   2.620  11.327  0.7868  0.6220  0.7058
 3192TIP3    H231068   1.251   2.542  11.401 -0.3808 -3.1081 -1.2664
 3193TIP3   OH231069   2.653   0.440  14.724 -0.0401 -0.1291 -0.2405
 3193TIP3    H131070   2.718   0.509  14.732  1.1909 -1.2953  0.1426
 3193TIP3    H231071   2.663   0.388  14.804 -0.9499 -0.7481 -0.5077
 3194TIP3   OH231072   5.306   6.106  16.057 -0.4500 -0.5586  0.6566
 3194TIP3    H131073   5.332   6.191  16.092  0.4552 -0.4826 -0.1502
 3194TIP3    H231074   5.211   6.111  16.048 -0.3890  0.4247  0.4703
 3195TIP3   OH231075   3.811   5.594  13.974 -0.2759 -0.0393 -0.8515
 3195TIP3    H131076   3.759   5.559  14.046  0.2958 -2.8415 -1.6786
 3195TIP3    H231077   3.752   5.655  13.929 -1.3268  0.1814  0.7293
 3196TIP3   OH231078   3.602   4.509   0.874 -0.6657  0.0992  0.4608
 3196TIP3    H131079   3.507   4.517   0.882 -0.5498  0.3483  1.7835
 3196TIP3    H231080   3.631   4.472   0.958  0.4775  0.6927  0.3566
 3197TIP3   OH231081   0.198   2.073   2.763  0.6860  0.6194 -0.0839
 3197TIP3    H131082   0.171   1.981   2.762  1.5151  0.3422  0.9549
 3197TIP3    H231083   0.273   2.076   2.703  1.6432  0.2600  1.0435
 3198TIP3   OH231084   0.991   6.327   5.138 -0.2965 -0.0137 -0.2560
 3198TIP3    H131085   0.999   6.405   5.193 -0.7068 -1.2145  1.6156
 3198TIP3    H231086   0.933   6.269   5.188  1.5784 -2.3146 -0.5712
 3199TIP3   OH231087   2.626   4.323  14.845 -0.4016  0.1903 -0.3933
 3199TIP3    H131088   2.697   4.289  14.900 -0.7908 -0.8717 -0.5227
 3199TIP3    H231089   2.670   4.368  14.773  0.1524  3.3107  1.7201
 3200TIP3   OH231090   3.052   5.786   2.215 -0.0881  0.1011  0.3242
 3200TIP3    H131091   3.084   5.869   2.179 -2.1918  0.6645 -0.3629
 3200TIP3    H231092   2.987   5.811   2.280  0.2116 -1.0137  1.0863
 3201TIP3   OH231093   3.866   5.207   1.330  0.5199 -0.1379  1.0338
 3201TIP3    H131094   3.808   5.191   1.255  0.4636 -1.8168  1.4166
 3201TIP3    H231095   3.954   5.202   1.294  0.4796  0.4761  0.8289
 3202TIP3   OH231096   0.169   1.710  15.557  0.2367 -0.3035  0.0372
 3202TIP3    H131097   0.263   1.728  15.553 -0.0508  1.4160  0.5897
 3202TIP3    H231098   0.162   1.632  15.613  1.2447  0.3406  1.1030
 3203TIP3   OH231099   1.387   2.908  12.555 -0.0859 -0.0768 -0.5411
 3203TIP3    H131100   1.296   2.883  12.566 -0.0232 -1.3328 -2.5070
 3203TIP3    H231101   1.434   2.825  12.546  1.0943  0.5850 -0.6663
 3204TIP3   OH231102   1.987   2.993   4.247 -0.4410 -0.0142 -0.1265
 3204TIP3    H131103   1.996   2.971   4.154  1.3487  1.2394 -0.2745
 3204TIP3    H231104   1.973   2.908   4.290  1.8756 -1.0261 -1.1928
 3205TIP3   OH231105   4.451   0.080  15.619 -0.4756 -0.2044 -0.4025
 3205TIP3    H131106   4.362   0.090  15.653 -1.1580 -0.3245 -2.0482
 3205TIP3    H231107   4.477   0.168  15.593  0.5000  0.0938  1.3887
 3206TIP3   OH231108   6.286   0.712   6.229 -0.5712  0.2435  0.0391
 3206TIP3    H131109   6.199   0.709   6.190 -0.6520 -0.1552  0.2329
 3206TIP3    H231110   6.324   0.626   6.209 -0.3188  0.3258  0.1606
 3207TIP3   OH231111   1.017   2.234   1.739 -0.4711 -0.3536 -0.1399
 3207TIP3    H131112   1.044   2.204   1.826  1.2100 -0.6945 -0.7569
 3207TIP3    H231113   1.018   2.156   1.685  2.9339  0.4947 -1.5161
 3208TIP3   OH231114   4.127   5.867   2.415 -0.0456 -0.1912 -0.0428
 3208TIP3    H131115   4.100   5.795   2.471 -2.2950 -0.1039 -0.9019
 3208TIP3    H231116   4.128   5.830   2.327  0.7809  0.3373 -0.2681
 3209TIP3   OH231117   2.960   6.107   0.040 -0.3549  0.2722  0.6250
 3209TIP3    H131118   2.930   6.045  -0.026  0.2801  0.3055  0.2942
 3209TIP3    H231119   3.048   6.133   0.010 -0.0059  0.1847  1.5547
 3210TIP3   OH231120   0.662   4.319   2.372 -0.0671 -0.6945 -0.3668
 3210TIP3    H131121   0.607   4.391   2.342 -1.2351 -1.6179 -0.5595
 3210TIP3    H231122   0.707   4.288   2.293  0.4102 -0.2066 -0.2891
 3211TIP3   OH231123   2.393   0.428   6.030  0.2990  0.2082 -0.5005
 3211TIP3    H131124   2.473   0.470   5.999  0.8648 -1.2603 -1.1320
 3211TIP3    H231125   2.380   0.353   5.971 -0.6699 -0.4962  0.5544
 3212TIP3   OH231126   0.460   5.822   2.752  0.0365  0.7873 -0.3840
 3212TIP3    H131127   0.414   5.772   2.819 -0.3824  0.9308 -0.5593
 3212TIP3    H231128   0.528   5.763   2.720 -0.5890  0.2515 -0.7412
 3213TIP3   OH231129   6.534   3.305  16.240 -0.1378 -0.1010  0.5949
 3213TIP3    H131130   6.486   3.234  16.198 -1.2167  0.2610  1.1725
 3213TIP3    H231131   6.613   3.264  16.276  0.0936 -0.6723 -0.5369
 3214TIP3   OH231132   4.170   1.161  13.945 -0.5519 -0.0803 -0.2917
 3214TIP3    H131133   4.104   1.161  13.876 -0.6905 -0.9431 -0.1759
 3214TIP3    H231134   4.153   1.241  13.995 -0.5279  0.4881 -1.1735
 3215TIP3   OH231135   0.549   2.619   4.464  0.1254 -0.5051 -0.2063
 3215TIP3    H131136   0.591   2.700   4.494  0.0205 -0.0140 -1.3326
 3215TIP3    H231137   0.460   2.624   4.499  0.2008 -0.2603 -0.0457
 3216TIP3   OH231138   5.708   0.069  15.745 -0.1879  0.1959 -0.2706
 3216TIP3    H131139   5.665  -0.016  15.734 -2.0538  1.1089 -0.3108
 3216TIP3    H231140   5.644   0.133  15.715  0.8740  1.6873  0.5059
 3217TIP3   OH231141   6.354   0.154   3.631 -0.0283  0.4438  0.8259
 3217TIP3    H131142   6.302   0.080   3.661  0.6066  0.2876  1.5605
 3217TIP3    H231143   6.357   0.214   3.705 -0.0017  0.9162  0.4537
 3218TIP3   OH231144   6.475   4.749  11.466  0.2407  0.5776  0.8734
 3218TIP3    H131145   6.497   4.772  11.376 -1.9194 -1.4230 -0.2574
 3218TIP3    H231146   6.447   4.832  11.505  0.6526  1.3842 -0.4582
 3219TIP3   OH231147   5.445   1.434   1.060  0.4549 -0.6472 -0.0321
 3219TIP3    H131148   5.382   1.389   1.116 -0.5468 -2.0461 -2.1582
 3219TIP3    H231149   5.444   1.385   0.978  3.6559 -0.1495 -0.4843
 3220TIP3   OH231150   0.299   0.136  11.835 -0.1322 -0.1530 -0.0819
 3220TIP3    H131151   0.326   0.097  11.751 -0.0589 -0.2412 -0.0173
 3220TIP3    H231152   0.212   0.172  11.818 -0.4671 -0.8901  0.0279
 3221TIP3   OH231153   4.934   6.427   5.445 -0.0146  0.4465 -0.0086
 3221TIP3    H131154   5.022   6.463   5.458  0.3810 -0.3914 -0.2943
 3221TIP3    H231155   4.949   6.341   5.407 -0.9784  0.4410 -0.4031
 3222TIP3   OH231156   5.702   5.984   0.788  0.6163  0.3026 -0.3993
 3222TIP3    H131157   5.777   6.041   0.805  1.1652 -0.9929  1.9799
 3222TIP3    H231158   5.659   5.976   0.872 -1.0184 -0.6558 -1.2834
 3223TIP3   OH231159   1.798   3.843   3.826  0.4782  0.3298 -0.0900
 3223TIP3    H131160   1.839   3.804   3.749 -1.3141 -0.0203 -0.9198
 3223TIP3    H231161   1.776   3.932   3.798  3.0905  1.4846  1.2618
 3224TIP3   OH231162   2.819   2.078   4.285  0.0834 -0.4057  0.2994
 3224TIP3    H131163   2.882   2.085   4.357 -1.7577  0.9308  1.8645
 3224TIP3    H231164   2.751   2.020   4.319 -0.5782 -0.1480 -0.5719
 3225TIP3   OH231165   6.079   4.521  10.475  0.0207  0.2282 -0.9344
 3225TIP3    H131166   6.070   4.445  10.417 -0.1432 -0.8401  0.4459
 3225TIP3    H231167   6.144   4.494  10.539 -1.7437  0.2905  1.0014
 3226TIP3   OH231168   1.444   5.462   3.601 -0.2798  0.1692  0.1388
 3226TIP3    H131169   1.417   5.375   3.573 -0.5157  0.1819  0.3279
 3226TIP3    H231170   1.459   5.511   3.520  2.3995 -0.8046 -0.0713
 3227TIP3   OH231171   2.321   1.402   2.172 -0.3088  0.1688  0.0623
 3227TIP3    H131172   2.397   1.365   2.218 -0.0255  1.0077  0.2805
 3227TIP3    H231173   2.359   1.464   2.110 -0.8850  2.5684  1.9404
 3228TIP3   OH231174   3.940   4.555  12.953 -0.5468 -0.5822  0.3202
 3228TIP3    H131175   3.890   4.474  12.967 -2.2903  0.5322  0.8210
 3228TIP3    H231176   3.874   4.625  12.956  1.0613  0.9727  1.1584
 3229TIP3   OH231177   4.001   0.760   0.029  0.1313 -0.4184 -0.0554
 3229TIP3    H131178   3.928   0.711   0.067  0.6285  1.1332  3.2519
 3229TIP3    H231179   3.962   0.808  -0.044 -1.3220 -2.2789 -0.5839
 3230TIP3   OH231180   4.048   5.492   6.040  0.2447  0.3016  0.5438
 3230TIP3    H131181   3.992   5.562   6.074 -1.1177  1.2779 -3.1470
 3230TIP3    H231182   4.136   5.532   6.036 -0.0305  0.9475  0.7833
 3231TIP3   OH231183   5.876   6.400   5.266  0.2104 -0.1393 -0.1446
 3231TIP3    H131184   5.862   6.310   5.293  1.1776  0.0793  1.1499
 3231TIP3    H231185   5.942   6.434   5.326  2.4843  0.3956 -2.7238
 3232TIP3   OH231186   4.964   1.917  11.438  0.0168 -0.4108 -0.6989
 3232TIP3    H131187   5.040   1.933  11.494 -0.2639  2.9287 -1.0812
 3232TIP3    H231188   4.999   1.918  11.349 -0.4040  1.2749 -0.8857
 3233TIP3   OH231189   2.711   3.961   5.168  0.3026 -0.2113 -0.6774
 3233TIP3    H131190   2.758   3.938   5.088  0.0887 -2.3600 -0.2401
 3233TIP3    H231191   2.764   3.924   5.238 -0.3313  0.2748  0.0733
 3234TIP3   OH231192   6.106   2.101   5.913 -0.6002 -0.1521  0.3776
 3234TIP3    H131193   6.172   2.032   5.920 -0.5577 -0.1988 -0.4459
 3234TIP3    H231194   6.106   2.126   5.821 -0.0904  1.4607  0.7786
 3235TIP3   OH231195   3.134   4.535  12.961 -0.0911 -0.3126  0.1279
 3235TIP3    H131196   3.214   4.558  13.008  1.0749 -1.3442 -1.2528
 3235TIP3    H231197   3.135   4.591  12.884 -0.8896 -0.0970  0.2665
 3236TIP3   OH231198   6.574   3.072   4.812 -0.3545 -0.2225 -0.0859
 3236TIP3    H131199   6.517   3.147   4.830  0.4453  0.5987 -0.8888
 3236TIP3    H231200   6.513   2.999   4.798 -1.1376  0.1825  1.0102
 3237TIP3   OH231201   6.133   1.518   5.773 -0.5727 -0.1696  0.2616
 3237TIP3    H131202   6.063   1.547   5.714 -0.3136  0.2877  0.1743
 3237TIP3    H231203   6.162   1.435   5.735  0.2735  0.5990 -0.8582
 3238TIP3   OH231204   5.812   2.522  13.309  0.8210 -0.4809 -0.4791
 3238TIP3    H131205   5.767   2.586  13.363  0.1248 -1.8467  0.6343
 3238TIP3    H231206   5.759   2.516  13.230  1.2703  0.7714 -0.9021
 3239TIP3   OH231207   4.883   4.059  16.614  0.5099 -0.2690  0.1220
 3239TIP3    H131208   4.820   4.034  16.681 -0.9071 -1.2440 -1.4611
 3239TIP3    H231209   4.966   4.023  16.644 -0.0929 -0.6875  1.3402
 3240TIP3   OH231210   1.591   2.801   0.621 -0.3579  0.3505 -0.0977
 3240TIP3    H131211   1.673   2.751   0.619 -1.1484 -0.9403 -1.2084
 3240TIP3    H231212   1.620   2.893   0.618  1.0580 -0.0645  0.0323
 3241TIP3   OH231213   5.947   3.735  15.708  0.1363 -0.3008  0.0002
 3241TIP3    H131214   5.958   3.671  15.639  1.5913  0.0681 -0.1413
 3241TIP3    H231215   5.975   3.690  15.788 -0.8116 -0.4795  0.2516
 3242TIP3   OH231216   3.954   1.416  11.690 -0.1630 -0.0754  0.0623
 3242TIP3    H131217   3.897   1.344  11.717 -2.3115  0.9886 -1.2905
 3242TIP3    H231218   3.897   1.472  11.637  1.9096  1.6616 -0.4589
 3243TIP3   OH231219   0.411   5.113   0.339 -0.6069 -0.0815  1.0933
 3243TIP3    H131220   0.374   5.038   0.386  0.8677 -0.7536  1.2459
 3243TIP3    H231221   0.360   5.118   0.258 -0.7019 -1.3008  1.0527
 3244TIP3   OH231222   6.095   4.787  12.569  0.0727 -0.1607  0.2106
 3244TIP3    H131223   6.140   4.847  12.510  2.1424 -1.9269 -0.1389
 3244TIP3    H231224   6.139   4.798  12.653  1.9025 -2.4805 -0.3236
 3245TIP3   OH231225   6.580   4.449   5.987  0.5979 -0.1871 -0.1976
 3245TIP3    H131226   6.486   4.432   5.998  0.1821  1.8186 -0.3658
 3245TIP3    H231227   6.611   4.472   6.075  0.8651 -0.4642 -0.2156
 3246TIP3   OH231228   1.081   0.322  13.736  0.6040  0.2513 -0.5439
 3246TIP3    H131229   1.128   0.239  13.737 -0.3833 -0.3218 -0.5095
 3246TIP3    H231230   1.055   0.333  13.644  1.5384  1.0064 -0.7375
 3247TIP3   OH231231   1.437   3.012  15.062  0.3350  0.1471 -0.1463
 3247TIP3    H131232   1.486   3.033  15.141  2.3347 -0.2897 -1.2154
 3247TIP3    H231233   1.472   3.072  14.996 -1.9407  1.1482 -0.5486
 3248TIP3   OH231234   0.534   0.493   0.258  0.8270 -0.0762 -0.1374
 3248TIP3    H131235   0.550   0.523   0.347 -0.6284  0.7826 -0.1212
 3248TIP3    H231236   0.476   0.560   0.221  0.5993 -0.9364 -1.3953
 3249TIP3   OH231237   2.455   6.559  11.425 -0.2260  0.9824  0.2507
 3249TIP3    H131238   2.415   6.642  11.398 -0.2058  1.3410  1.2579
 3249TIP3    H231239   2.448   6.502  11.348 -0.7296  1.7420 -0.2792
 3250TIP3   OH231240   6.748   5.816   3.517  0.0388  0.5210  0.3265
 3250TIP3    H131241   6.722   5.823   3.609  0.2123 -1.0591  0.5170
 3250TIP3    H231242   6.671   5.844   3.468 -0.5101  0.1168  0.9399
 3251TIP3   OH231243   4.547   1.024   1.814  0.0291  0.0551  0.5814
 3251TIP3    H131244   4.462   1.065   1.798 -0.5180 -0.5587  1.8069
 3251TIP3    H231245   4.574   0.990   1.729 -1.1096 -0.0425  0.2464
 3252TIP3   OH231246   2.796   4.997   1.908  0.3919  0.0795  0.2350
 3252TIP3    H131247   2.890   4.990   1.918  0.1665  0.6437  3.9073
 3252TIP3    H231248   2.778   5.091   1.912 -0.3831 -0.0382 -0.1227
 3253TIP3   OH231249   3.106   5.328   2.186  0.4432 -0.0062 -0.6203
 3253TIP3    H131250   3.096   5.411   2.233 -0.5337 -0.1202 -0.6232
 3253TIP3    H231251   3.115   5.354   2.094 -0.0310  0.0902 -0.6405
 3254TIP3   OH231252   2.709   2.728  14.554 -0.4611  0.3221  0.1290
 3254TIP3    H131253   2.798   2.718  14.520 -0.5498 -1.7088  0.3404
 3254TIP3    H231254   2.656   2.750  14.476  0.0205  0.1734 -0.2453
 3255TIP3   OH231255   4.540   3.090  14.521  0.5564  0.4215 -0.0714
 3255TIP3    H131256   4.537   3.186  14.520  2.3808  0.5139 -0.4104
 3255TIP3    H231257   4.598   3.069  14.594  0.1925 -0.4397 -0.0240
 3256TIP3   OH231258   2.900   0.678   0.320 -0.3050  0.0570  0.2923
 3256TIP3    H131259   2.808   0.703   0.307 -1.0488 -1.7669  1.6655
 3256TIP3    H231260   2.899   0.583   0.322  1.6940 -0.0057  0.0251
 3257TIP3   OH231261   0.667   2.348  16.718  0.2070 -0.4227 -0.3895
 3257TIP3    H131262   0.735   2.377  16.657 -1.1502  0.8510 -1.3596
 3257TIP3    H231263   0.587   2.390  16.686 -1.0823 -2.0333  0.6086
 3258TIP3   OH231264   5.085   3.848  15.810 -0.0828 -0.0688  0.0969
 3258TIP3    H131265   5.101   3.902  15.887 -0.6680 -1.5764  1.3380
 3258TIP3    H231266   5.054   3.764  15.846 -1.2316 -0.5167 -1.8012
 3259TIP3   OH231267   3.449   3.589   3.569 -0.2051 -0.9922  0.2409
 3259TIP3    H131268   3.440   3.595   3.664  0.2116 -1.5309  0.3151
 3259TIP3    H231269   3.467   3.679   3.541 -2.0646 -0.4948  0.4723
 3260TIP3   OH231270   0.257   3.545  17.096  0.1319  0.0553  0.1133
 3260TIP3    H131271   0.319   3.505  17.035 -0.3364  1.6427 -1.4851
 3260TIP3    H231272   0.304   3.621  17.131 -0.1039 -0.0584  0.6946
 3261TIP3   OH231273   0.875   4.616  16.054 -0.2078 -0.2691  0.1555
 3261TIP3    H131274   0.874   4.595  16.147 -0.9131  0.2049  0.2650
 3261TIP3    H231275   0.812   4.556  16.015 -0.5805  0.1344  0.1282
 3262TIP3   OH231276   1.909   1.390   4.824 -0.1652 -0.4647  0.5883
 3262TIP3    H131277   1.921   1.304   4.864  1.6267  0.0811  1.2921
 3262TIP3    H231278   1.936   1.379   4.733  3.6196  0.0794  1.4807
 3263TIP3   OH231279   1.126   3.257   2.994  0.2037  0.7003 -0.1150
 3263TIP3    H131280   1.185   3.182   2.997  0.1052  0.5476 -1.3275
 3263TIP3    H231281   1.083   3.258   3.080  1.4288  0.3900  0.5236
 3264TIP3   OH231282   0.066   5.714  12.440  0.2003 -0.7196 -0.2130
 3264TIP3    H131283   0.075   5.653  12.368 -0.6094 -0.1424 -0.8181
 3264TIP3    H231284   0.149   5.763  12.441 -0.2801  0.1687 -1.6063
 3265TIP3   OH231285   2.211   3.745  14.555 -0.5521 -0.6902  0.0582
 3265TIP3    H131286   2.231   3.671  14.612  0.3469 -0.5688 -0.0858
 3265TIP3    H231287   2.223   3.710  14.466  0.1741 -0.2893 -0.0030
 3266TIP3   OH231288   0.481   0.934  14.459  0.2190 -0.1316  0.2047
 3266TIP3    H131289   0.554   0.973  14.508  1.1641 -2.0026  0.3645
 3266TIP3    H231290   0.437   0.878  14.522 -0.6702  0.0798 -0.2113
 3267TIP3   OH231291   2.949   5.492  13.449  0.2233  0.0473 -0.6063
 3267TIP3    H131292   2.878   5.547  13.480  1.0118  0.4491  0.5645
 3267TIP3    H231293   2.908   5.433  13.386 -0.9293  0.9584 -0.7456
 3268TIP3   OH231294   3.770   6.260   2.656 -0.0866  0.2742  0.7940
 3268TIP3    H131295   3.796   6.189   2.598  1.1325  0.9377  0.4837
 3268TIP3    H231296   3.822   6.246   2.736 -0.5982  0.2427  1.1238
 3269TIP3   OH231297   3.256   2.165   4.360 -0.0385  0.0062  0.2891
 3269TIP3    H131298   3.193   2.178   4.289  0.8189  0.6649 -0.3698
 3269TIP3    H231299   3.340   2.151   4.315  0.7803  1.7939  1.1756
 3270TIP3   OH231300   4.711   1.592  12.551  0.3772  0.4107  0.5597
 3270TIP3    H131301   4.806   1.586  12.549  0.3494 -0.9627  1.5492
 3270TIP3    H231302   4.682   1.528  12.485  0.1477 -0.3602  1.3863
 3271TIP3   OH231303   2.130   0.331   5.841  0.4401  0.1550 -0.0570
 3271TIP3    H131304   2.101   0.271   5.910  0.2852 -0.6812 -0.8361
 3271TIP3    H231305   2.071   0.313   5.768 -0.4863  2.2043  0.1218
 3272TIP3   OH231306   2.890   0.493   6.130 -0.1586  0.0143 -0.2720
 3272TIP3    H131307   2.884   0.589   6.133  1.2057  0.2064 -1.8269
 3272TIP3    H231308   2.966   0.473   6.185  0.1813 -0.0615 -0.7601
 3273TIP3   OH231309   4.423   6.820   1.563 -0.1284  0.0497  0.1096
 3273TIP3    H131310   4.362   6.812   1.489  0.8787  0.2984 -0.7724
 3273TIP3    H231311   4.443   6.729   1.587 -1.3318 -0.0384  0.8355
 3274TIP3   OH231312   0.510   1.907  16.996 -0.6414  0.0335 -0.2300
 3274TIP3    H131313   0.521   1.841  16.927  0.5624 -0.5343  0.4712
 3274TIP3    H231314   0.437   1.961  16.966  0.7104  0.6647 -2.6358
 3275TIP3   OH231315   5.862   5.282  14.718 -0.3504  0.2120  0.3951
 3275TIP3    H131316   5.774   5.269  14.752 -0.6262  1.6364  0.2797
 3275TIP3    H231317   5.856   5.258  14.625 -0.7909  0.9343  0.2307
 3276TIP3   OH231318   2.228   6.743  17.008  0.3142  0.1761 -0.0837
 3276TIP3    H131319   2.295   6.689  17.050  1.0687  2.6941  2.2325
 3276TIP3    H231320   2.154   6.742  17.069  0.2911  1.5731 -0.0488
 3277TIP3   OH231321   0.107   0.519   5.450 -0.1823 -0.4342  0.0289
 3277TIP3    H131322   0.046   0.451   5.482  1.2373 -1.5051  0.5612
 3277TIP3    H231323   0.125   0.493   5.360  0.0870 -0.5557  0.1189
 3278TIP3   OH231324   5.841   1.526   2.571  0.0786 -0.0617  0.2182
 3278TIP3    H131325   5.759   1.486   2.542  0.1945 -1.3419  1.5576
 3278TIP3    H231326   5.870   1.471   2.644  0.9349  1.7126  1.2718
 3279TIP3   OH231327   0.925   5.426   1.172 -0.2382  0.2875 -0.1279
 3279TIP3    H131328   0.875   5.447   1.093 -0.3679 -0.1956 -0.1805
 3279TIP3    H231329   0.987   5.498   1.181 -1.2900  1.1590  0.2357
 3280TIP3   OH231330   1.941   0.901  11.639 -0.0294  0.1269  0.2409
 3280TIP3    H131331   1.912   0.817  11.603 -0.7667  0.2626  0.4944
 3280TIP3    H231332   1.970   0.881  11.728 -0.3455  0.1628  0.3529
 3281TIP3   OH231333   5.181   1.340  12.028 -0.5662 -0.1140  0.5428
 3281TIP3    H131334   5.091   1.359  12.003  0.3864  0.7598 -2.8061
 3281TIP3    H231335   5.218   1.296  11.951  1.4077 -2.0709  2.4974
 3282TIP3   OH231336   1.703   2.338  10.736  0.4778 -0.4709 -0.3272
 3282TIP3    H131337   1.674   2.258  10.691  0.2189 -0.6496  0.1537
 3282TIP3    H231338   1.637   2.403  10.715  1.9756  0.3987 -2.8767
 3283TIP3   OH231339   3.159   2.963  15.874 -0.3553  0.9623  0.0428
 3283TIP3    H131340   3.206   2.952  15.791  0.5035 -1.2855  0.7534
 3283TIP3    H231341   3.189   2.890  15.928 -0.8100  2.4455  2.4008
 3284TIP3   OH231342   2.490   3.188   3.074  0.0535 -0.6978 -0.0229
 3284TIP3    H131343   2.470   3.267   3.124  0.7912 -0.1237 -0.6076
 3284TIP3    H231344   2.423   3.185   3.006 -0.9297 -1.4593  0.9432
 3285TIP3   OH231345   4.523   4.264   1.885 -0.0156  0.1635  0.4504
 3285TIP3    H131346   4.460   4.316   1.935 -0.2230  1.7440 -1.3504
 3285TIP3    H231347   4.475   4.234   1.808  0.2252 -2.4301  1.1914
 3286TIP3   OH231348   1.679   5.978   0.820  0.7961 -0.0317 -0.1302
 3286TIP3    H131349   1.751   6.027   0.860 -0.8897  1.1384  1.6757
 3286TIP3    H231350   1.659   5.908   0.883 -1.1027  1.0787  0.5836
 3287TIP3   OH231351   2.079   6.789  14.127  0.2693 -0.0756 -0.0218
 3287TIP3    H131352   2.099   6.855  14.062  1.4457 -1.0430 -0.6808
 3287TIP3    H231353   1.983   6.782  14.126  0.2754 -0.2763 -1.8691
 3288TIP3   OH231354   5.138   5.955   0.650 -0.1725 -0.6968 -0.4430
 3288TIP3    H131355   5.045   5.973   0.662 -0.4559 -2.2062 -0.1105
 3288TIP3    H231356   5.171   5.938   0.738  0.2198 -1.0424 -0.6498
 3289TIP3   OH231357   2.762   1.109   5.224 -0.4323 -0.1640 -0.0219
 3289TIP3    H131358   2.675   1.073   5.208  0.3489 -2.7007  0.9726
 3289TIP3    H231359   2.783   1.085   5.314  0.8692  1.4225  0.1614
 3290TIP3   OH231360   5.213   3.400   6.772 -0.0873 -0.3046  0.3654
 3290TIP3    H131361   5.275   3.392   6.844 -0.7325  0.4141  1.0105
 3290TIP3    H231362   5.227   3.321   6.719  3.0356  0.8901 -0.8419
 3291TIP3   OH231363   1.157   4.964  14.212 -0.2065  0.2016  0.1471
 3291TIP3    H131364   1.138   5.057  14.199 -0.1200  0.2972  0.6741
 3291TIP3    H231365   1.251   4.962  14.231  0.1379 -0.1586 -1.3990
 3292TIP3   OH231366   0.258   2.054   5.484 -0.2876  0.1606 -0.3049
 3292TIP3    H131367   0.184   1.993   5.485  0.5254 -0.8495 -0.2189
 3292TIP3    H231368   0.280   2.062   5.391 -0.8888  0.9513 -0.3860
 3293TIP3   OH231369   1.459   6.763   5.620 -0.5684 -0.2548 -0.0186
 3293TIP3    H131370   1.477   6.828   5.688  1.9786 -1.2510  0.3775
 3293TIP3    H231371   1.422   6.689   5.668 -2.4426  0.4333 -0.3223
 3294TIP3   OH231372   2.989   3.962  13.742  0.1680  0.1541  0.3317
 3294TIP3    H131373   3.053   3.918  13.686  0.6233 -0.7293  1.5033
 3294TIP3    H231374   3.013   4.055  13.735  1.7353 -0.1686  0.8938
 3295TIP3   OH231375   3.126   2.726   1.435 -0.1672  0.3563 -0.0064
 3295TIP3    H131376   3.080   2.652   1.395 -0.0026  0.7391 -0.9283
 3295TIP3    H231377   3.177   2.764   1.364  2.5629 -0.7812  1.1849
 3296TIP3   OH231378   2.835   3.664  11.828  0.7507 -0.0128 -0.4904
 3296TIP3    H131379   2.883   3.586  11.803 -0.1429 -0.6731 -0.2204
 3296TIP3    H231380   2.838   3.721  11.751  0.9864 -0.5229 -0.8576
 3297TIP3   OH231381   0.337   0.636   5.084 -0.3274 -0.8884 -0.0456
 3297TIP3    H131382   0.368   0.629   4.993  0.2245 -1.0940  0.1540
 3297TIP3    H231383   0.270   0.704   5.081 -0.0846 -0.6653 -0.5546
 3298TIP3   OH231384   3.473   2.058   5.583 -0.5599  1.2095 -0.1320
 3298TIP3    H131385   3.438   1.985   5.533 -0.1518  1.1665 -0.3620
 3298TIP3    H231386   3.424   2.134   5.554  0.4743  1.4020 -1.4962
 3299TIP3   OH231387   5.457   2.082   1.969 -0.2448  0.6491  0.4725
 3299TIP3    H131388   5.532   2.048   1.920 -0.8799  1.4479 -1.1494
 3299TIP3    H231389   5.464   2.042   2.055  0.4916 -1.4957 -0.5018
 3300TIP3   OH231390   2.983   1.040  13.254 -0.2433 -0.0097 -0.0974
 3300TIP3    H131391   2.966   0.990  13.174 -1.2929  0.7819 -0.3983
 3300TIP3    H231392   3.029   1.118  13.224  0.3204 -0.2158  0.2152
 3301TIP3   OH231393   5.651   5.065  12.850  0.3301  0.0712  0.4623
 3301TIP3    H131394   5.593   4.995  12.819 -0.0258  1.6825 -2.9685
 3301TIP3    H231395   5.739   5.027  12.846  0.0857 -0.4177 -0.7670
 3302TIP3   OH231396   0.934   2.757  15.952  0.0559 -0.1488 -0.3591
 3302TIP3    H131397   0.948   2.669  15.987  0.3570 -0.2702 -0.7706
 3302TIP3    H231398   0.854   2.788  15.995 -0.1407 -0.6847 -0.3295
 3303TIP3   OH231399   3.277   1.545  11.461  0.1181  0.3770  0.9419
 3303TIP3    H131400   3.352   1.550  11.520  0.2954  0.1173  0.7359
 3303TIP3    H231401   3.209   1.598  11.505  0.3561  0.4583  1.2161
 3304TIP3   OH231402   1.998   5.342  15.102  0.1159 -0.1246 -0.3341
 3304TIP3    H131403   1.972   5.424  15.144  2.1633  0.5321 -0.2195
 3304TIP3    H231404   1.984   5.275  15.169 -2.6226 -0.1224 -0.7833
 3305TIP3   OH231405   1.515   2.278   0.008  0.4429 -0.0005 -0.4058
 3305TIP3    H131406   1.541   2.327   0.086 -0.5575  1.9327 -1.2034
 3305TIP3    H231407   1.586   2.293  -0.054 -0.0268  0.8164 -0.7726
 3306TIP3   OH231408   2.497   1.077  16.956  0.0733  0.1818 -0.2003
 3306TIP3    H131409   2.551   1.003  16.982  0.6202  0.8566  0.6203
 3306TIP3    H231410   2.494   1.133  17.033 -0.9517  0.6639 -0.5635
 3307TIP3   OH231411   0.589   2.595  11.734  0.1846  0.5074  0.6066
 3307TIP3    H131412   0.500   2.576  11.707  0.7418 -1.4316 -0.0650
 3307TIP3    H231413   0.618   2.666  11.677  0.1721 -1.1603 -1.5961
 3308TIP3   OH231414   2.486   4.713   0.208 -0.1880 -0.6288 -0.3058
 3308TIP3    H131415   2.528   4.627   0.198 -1.0350 -1.8724  4.2804
 3308TIP3    H231416   2.522   4.748   0.290 -2.2720  1.8958 -0.3233
 3309TIP3   OH231417   3.039   5.252  16.976 -0.5444 -0.1609  0.0456
 3309TIP3    H131418   3.035   5.313  17.050 -0.8414 -0.0294 -0.0761
 3309TIP3    H231419   3.101   5.292  16.915 -0.5925 -0.0768  0.0515
 3310TIP3   OH231420   1.592   2.252   1.595  0.3531 -0.2805 -0.3092
 3310TIP3    H131421   1.508   2.297   1.605  0.1827 -0.8791  1.4149
 3310TIP3    H231422   1.627   2.246   1.685  1.3538 -1.6948 -0.7443
 3311TIP3   OH231423   5.701   5.741   0.313 -0.4346  0.7619  0.1576
 3311TIP3    H131424   5.791   5.739   0.281  0.2249  0.3939  1.9066
 3311TIP3    H231425   5.697   5.669   0.376 -2.6817 -0.8458 -1.6691
 3312TIP3   OH231426   2.736   3.921  13.835  0.3422 -0.2662  0.5892
 3312TIP3    H131427   2.819   3.909  13.788  0.1967  0.0973  0.2364
 3312TIP3    H231428   2.680   3.851  13.802  0.4306 -0.3714  0.6588
 3313TIP3   OH231429   6.027   0.069  15.234  0.4751  0.4979  0.0457
 3313TIP3    H131430   6.113   0.028  15.226  0.5299  0.4516  0.8441
 3313TIP3    H231431   6.016   0.085  15.328 -0.9563 -0.7210  0.1294
 3314TIP3   OH231432   6.381   6.320  16.682  0.1587  0.0939  0.5099
 3314TIP3    H131433   6.339   6.319  16.768  0.1301  1.7263  0.5432
 3314TIP3    H231434   6.374   6.411  16.653  0.2986 -0.4000 -1.1617
 3315TIP3   OH231435   2.729   3.386   4.910 -0.2751  0.8529 -0.5129
 3315TIP3    H131436   2.713   3.410   4.819  1.1941  0.4951 -0.8991
 3315TIP3    H231437   2.816   3.346   4.909 -1.1041 -1.1327  0.7040
 3316TIP3   OH231438   3.863   0.026  16.691  0.1026 -0.5009  0.1208
 3316TIP3    H131439   3.785   0.017  16.636  0.9356 -1.1688 -0.9621
 3316TIP3    H231440   3.935  -0.007  16.638  0.8849 -1.4642  1.7203
 3317TIP3   OH231441   3.262   3.060   5.747 -0.0514 -0.0498  0.3664
 3317TIP3    H131442   3.284   2.990   5.809  1.0220  0.8043  0.9973
 3317TIP3    H231443   3.343   3.074   5.698 -1.1153 -1.2589 -1.8411
 3318TIP3   OH231444   4.433   3.769  14.990 -0.0422 -0.2880  0.1508
 3318TIP3    H131445   4.522   3.735  14.995  0.3533  0.7325  0.1980
 3318TIP3    H231446   4.419   3.788  14.897 -0.1297 -0.2399  0.1727
 3319TIP3   OH231447   5.497   6.817   1.141  0.0671 -0.0147 -0.3311
 3319TIP3    H131448   5.568   6.768   1.182  1.2530 -0.4499 -2.7325
 3319TIP3    H231449   5.428   6.752   1.126  0.5656 -0.3758 -1.0964
 3320TIP3   OH231450   3.461   6.006  15.507 -0.5192  0.1637 -0.2436
 3320TIP3    H131451   3.520   5.941  15.468 -1.0207  0.3100 -1.3067
 3320TIP3    H231452   3.412   5.958  15.573  1.1436  0.1646  1.0625
 3321TIP3   OH231453   4.575   0.625   0.189  0.2406  0.0517 -0.3577
 3321TIP3    H131454   4.548   0.600   0.101 -1.5173  0.9613 -0.1419
 3321TIP3    H231455   4.654   0.678   0.177  0.6239 -0.7162 -1.2733
 3322TIP3   OH231456   0.477   1.729  16.763 -1.1143  0.1033  0.3221
 3322TIP3    H131457   0.492   1.759  16.673 -0.6070  0.4319  0.5098
 3322TIP3    H231458   0.552   1.672  16.781 -1.4095 -0.2645  0.4152
 3323TIP3   OH231459   6.001   5.169  12.979  0.2458 -0.1927  0.1248
 3323TIP3    H131460   5.939   5.205  13.043  0.9494  1.5885 -0.1583
 3323TIP3    H231461   6.068   5.126  13.032 -1.2105 -2.2324  0.4359
 3324TIP3   OH231462   5.958   0.812  16.849 -0.6332  0.1273  0.2630
 3324TIP3    H131463   5.891   0.801  16.916  0.6280  1.5649  1.8281
 3324TIP3    H231464   5.928   0.886  16.797 -0.2661  0.7926  0.9840
 3325TIP3   OH231465   0.911   0.407   2.909 -0.1954 -0.4112 -0.1341
 3325TIP3    H131466   0.949   0.488   2.943  0.3458 -0.8169  0.2377
 3325TIP3    H231467   0.921   0.344   2.980  0.2795 -1.0670 -0.7717
 3326TIP3   OH231468   1.769   3.014   1.237  0.0361  0.0211  0.0296
 3326TIP3    H131469   1.744   2.926   1.212 -0.5298  0.3513 -0.6046
 3326TIP3    H231470   1.864   3.010   1.248 -0.0288 -0.7426  0.3467
 3327TIP3   OH231471   2.921   5.886   4.651  0.1479 -0.0634 -0.5671
 3327TIP3    H131472   2.896   5.894   4.743  0.4657  0.2270 -0.4999
 3327TIP3    H231473   2.860   5.823   4.614 -0.7910  0.7562 -0.4520
 3328TIP3   OH231474   4.175   4.173   0.495  0.3840  0.1750 -0.1151
 3328TIP3    H131475   4.209   4.150   0.582 -0.7673 -0.5181  0.1747
 3328TIP3    H231476   4.179   4.091   0.446  0.1422  0.3373 -0.4085
 3329TIP3   OH231477   3.511   6.424  13.687  0.1307 -0.2634  0.5010
 3329TIP3    H131478   3.418   6.421  13.665  0.4052 -0.3353 -0.7008
 3329TIP3    H231479   3.524   6.349  13.746 -1.0582  1.2110  2.7726
 3330TIP3   OH231480   0.054   4.712  15.167  0.2166 -0.3962 -0.4947
 3330TIP3    H131481   0.060   4.705  15.262 -1.8233  1.5417 -0.1282
 3330TIP3    H231482   0.020   4.627  15.139 -0.8679 -0.4102  0.7586
 3331TIP3   OH231483   2.334   5.538  11.988  0.2306 -1.3818  0.8215
 3331TIP3    H131484   2.427   5.546  11.965  0.3727 -2.3102  1.0165
 3331TIP3    H231485   2.292   5.509  11.908 -0.3132  1.2699  0.0578
 3332TIP3   OH231486   4.288   0.266  11.398 -0.5601 -0.0009  0.4624
 3332TIP3    H131487   4.332   0.332  11.451  0.1537 -1.1859  1.4007
 3332TIP3    H231488   4.351   0.245  11.329 -0.3119 -0.5316  0.8488
 3333TIP3   OH231489   0.187   3.032   3.088 -0.2509  0.2899  0.2133
 3333TIP3    H131490   0.226   2.947   3.107  0.9866  0.6216 -0.7755
 3333TIP3    H231491   0.259   3.094   3.096  0.4309  0.5642 -4.8524
 3334TIP3   OH231492   1.912   4.548   5.966  0.4958  0.5862  0.5350
 3334TIP3    H131493   1.840   4.530   5.906  1.8733 -0.6423 -0.8359
 3334TIP3    H231494   1.981   4.585   5.911  1.2136  0.9889  1.6678
 3335TIP3   OH231495   5.882   5.119   1.565 -0.2046  0.5901 -0.1387
 3335TIP3    H131496   5.885   5.210   1.536 -0.7465  0.7455  0.2841
 3335TIP3    H231497   5.802   5.113   1.617 -0.4921 -0.2791 -0.6590
 3336TIP3   OH231498   0.343   1.500   6.039  0.2719 -0.4716  0.8311
 3336TIP3    H131499   0.256   1.479   6.072 -1.2207  3.1589 -0.3191
 3336TIP3    H231500   0.393   1.527   6.116 -1.0748  1.5236  1.0815
 3337TIP3   OH231501   1.947   2.518   2.240 -0.1807 -0.0328 -0.0445
 3337TIP3    H131502   1.954   2.602   2.194 -0.1928 -1.1368 -2.2083
 3337TIP3    H231503   2.038   2.486   2.246  0.0202  0.7872  2.2016
 3338TIP3   OH231504   2.534   4.481   0.082 -0.5272  0.1339  0.1741
 3338TIP3    H131505   2.588   4.527   0.018 -0.6384  0.5972  0.4099
 3338TIP3    H231506   2.447   4.477   0.041 -0.9130  1.5257  0.7989
 3339TIP3   OH231507   2.723   6.387   0.378 -1.3496  0.0814  0.1040
 3339TIP3    H131508   2.691   6.405   0.467 -1.1541  2.8813 -0.3027
 3339TIP3    H231509   2.818   6.392   0.386 -1.2825 -0.8952 -0.0486
 3340TIP3   OH231510   2.479   0.398  13.575  0.2047 -0.0594 -0.4407
 3340TIP3    H131511   2.522   0.467  13.524  0.3129  0.2197  0.0171
 3340TIP3    H231512   2.532   0.391  13.654  0.5691 -1.1187 -0.7602
 3341TIP3   OH231513   5.713   2.010  14.439 -0.5362  0.8192 -0.2980
 3341TIP3    H131514   5.633   2.031  14.486  0.0636  2.6665 -0.0364
 3341TIP3    H231515   5.780   2.065  14.479  0.9902 -0.9978 -0.2056
 3342TIP3   OH231516   5.972   2.743  11.746 -0.0983  0.0094  0.5993
 3342TIP3    H131517   5.960   2.654  11.713 -0.1298 -0.3959  1.6476
 3342TIP3    H231518   5.906   2.795  11.701 -0.7764 -0.7071  0.7457
 3343TIP3   OH231519   3.745   2.959  14.550 -0.6695  0.0104 -0.0367
 3343TIP3    H131520   3.675   3.015  14.582 -0.4642  0.4640 -0.3715
 3343TIP3    H231521   3.715   2.930  14.464  0.1248  1.2891 -0.7785
 3344TIP3   OH231522   6.124   1.566   2.122 -0.0873 -0.4314  0.2000
 3344TIP3    H131523   6.113   1.609   2.037  0.7983  0.1103  0.3429
 3344TIP3    H231524   6.040   1.576   2.166 -0.3692 -0.2100 -0.3934
 3345TIP3   OH231525   2.166   5.805  13.739 -0.2292  0.5707  0.1470
 3345TIP3    H131526   2.207   5.873  13.686  0.2770  0.9485  1.0166
 3345TIP3    H231527   2.198   5.723  13.701  1.7216  0.8478  1.0687
 3346TIP3   OH231528   5.236   2.780  17.117 -0.6985  0.5537  0.6494
 3346TIP3    H131529   5.176   2.844  17.080 -0.7458  0.0423 -0.1866
 3346TIP3    H231530   5.218   2.781  17.211 -1.4890  0.9451  0.5001
 3347TIP3   OH231531   5.276   5.321  12.037  0.0028 -0.9233  0.1999
 3347TIP3    H131532   5.301   5.401  12.084 -1.5129  0.6566 -1.5036
 3347TIP3    H231533   5.340   5.312  11.967 -0.8279 -0.1232 -0.6983
 3348TIP3   OH231534   3.634   2.259  12.964 -0.0879 -0.6502 -0.2101
 3348TIP3    H131535   3.658   2.166  12.962 -2.0298 -1.2329  1.0393
 3348TIP3    H231536   3.539   2.259  12.951 -0.0225  1.2360 -0.9525
 3349TIP3   OH231537   3.923   3.984  11.090 -0.1800  0.2977  0.4397
 3349TIP3    H131538   3.952   3.894  11.099  0.3356  0.1916 -1.7455
 3349TIP3    H231539   3.986   4.035  11.141  1.1195 -0.3500 -0.4761
 3350TIP3   OH231540   4.281   3.060  13.322  0.1377 -0.0500  0.2517
 3350TIP3    H131541   4.236   3.090  13.401  0.9627 -1.4285  1.2862
 3350TIP3    H231542   4.211   3.035  13.262 -0.4981  0.8886  0.5858
 3351TIP3   OH231543   1.976   2.973  16.471  0.0445  0.5039  0.1329
 3351TIP3    H131544   1.891   3.009  16.445  0.5815  0.6951 -1.4990
 3351TIP3    H231545   2.039   3.022  16.417  1.1639  0.1652  1.1101
 3352TIP3   OH231546   5.135   3.471   0.617 -0.4686 -0.2983  0.3807
 3352TIP3    H131547   5.219   3.425   0.625 -1.0176 -1.3105  0.5611
 3352TIP3    H231548   5.089   3.450   0.699 -1.4050 -0.8280 -0.2665
 3353TIP3   OH231549   4.155   3.375   4.028 -0.3112  0.0366 -0.3684
 3353TIP3    H131550   4.156   3.471   4.026 -0.8954  0.1027  1.1692
 3353TIP3    H231551   4.247   3.350   4.038  0.0193  0.3533 -2.2959
 3354TIP3   OH231552   4.395   2.898   1.134  0.3408 -0.0950 -0.0727
 3354TIP3    H131553   4.400   2.806   1.105  1.0852 -0.4272  1.0415
 3354TIP3    H231554   4.323   2.899   1.197  0.0828  0.1818 -0.3671
 3355TIP3   OH231555   4.023   3.780   5.089  0.0547  0.1507  0.3281
 3355TIP3    H131556   4.010   3.781   4.994  0.8740 -1.5076  0.1607
 3355TIP3    H231557   3.982   3.860   5.120 -1.6379 -0.0544 -1.2421
 3356TIP3   OH231558   1.724   0.962   5.238  0.5554  0.4388  0.2223
 3356TIP3    H131559   1.714   1.029   5.170 -1.9545 -1.1893 -1.2173
 3356TIP3    H231560   1.689   1.002   5.317  0.8316  1.4362 -0.1457
 3357TIP3   OH231561   2.170   3.120   1.066 -0.2864  0.3158 -0.1336
 3357TIP3    H131562   2.132   3.103   1.152  0.9579  0.3022  0.4392
 3357TIP3    H231563   2.207   3.036   1.039  1.8722  0.9372  0.6581
 3358TIP3   OH231564   5.731   1.742  16.168 -0.7334 -0.9095  0.3869
 3358TIP3    H131565   5.740   1.647  16.163 -0.0986 -0.8618  0.5909
 3358TIP3    H231566   5.679   1.766  16.091  1.9980 -1.0494 -1.6070
 3359TIP3   OH231567   3.098   1.928   2.474 -0.7071 -0.5519 -0.5583
 3359TIP3    H131568   3.070   1.838   2.491 -0.5501 -0.8482 -1.7554
 3359TIP3    H231569   3.172   1.919   2.413  0.9200  0.2950  1.2042
 3360TIP3   OH231570   1.763   5.765  10.566 -0.0148  0.1036 -0.1365
 3360TIP3    H131571   1.772   5.845  10.515 -0.8175  0.7667  0.7194
 3360TIP3    H231572   1.796   5.788  10.653 -0.3051 -0.4705  0.1315
 3361TIP3   OH231573   1.654   6.413  13.811 -0.1817 -0.1852  0.0972
 3361TIP3    H131574   1.596   6.438  13.882 -2.2945 -0.4488 -1.4267
 3361TIP3    H231575   1.714   6.349  13.850 -2.6441 -1.9923  1.2162
 3362TIP3   OH231576   0.360   5.105  16.665 -0.2019  0.3161  0.4132
 3362TIP3    H131577   0.343   5.196  16.640  1.3263  0.0661 -1.8064
 3362TIP3    H231578   0.433   5.110  16.726 -1.3030  0.6513  1.7622
 3363TIP3   OH231579   5.799   2.753  13.461 -0.1631 -0.0657  0.2282
 3363TIP3    H131580   5.764   2.786  13.544  1.0028  1.0269  0.3096
 3363TIP3    H231581   5.740   2.788  13.395  0.3595  1.1903  0.4130
 3364TIP3   OH231582   4.811   3.409  15.675  0.1380  0.2071  0.0668
 3364TIP3    H131583   4.732   3.413  15.730 -0.0245 -0.3772 -0.1238
 3364TIP3    H231584   4.864   3.340  15.713 -0.4311 -0.9019 -1.1009
 3365TIP3   OH231585   6.273   4.191  13.135 -0.5266 -0.4382 -0.3341
 3365TIP3    H131586   6.247   4.135  13.208  1.1764  0.1030  0.7558
 3365TIP3    H231587   6.301   4.130  13.067  1.6592 -0.9808  0.9708
 3366TIP3   OH231588   3.500   3.519  13.092 -0.0313  0.2328 -0.2458
 3366TIP3    H131589   3.461   3.489  13.010  1.0035 -1.7241 -0.0847
 3366TIP3    H231590   3.441   3.486  13.160  1.6637 -2.6642 -0.0066
 3367TIP3   OH231591   4.337   3.160  15.901 -0.7042  1.0153  0.8408
 3367TIP3    H131592   4.404   3.130  15.839 -1.3264 -3.0586  1.8169
 3367TIP3    H231593   4.291   3.230  15.856  1.8765  1.5129 -1.2885
 3368TIP3   OH231594   1.899   1.090  12.082 -0.5007  0.1119 -0.3378
 3368TIP3    H131595   1.840   1.135  12.021 -0.7699 -1.4853 -1.3301
 3368TIP3    H231596   1.840   1.050  12.147 -0.6811 -2.0989 -1.7394
 3369TIP3   OH231597   3.367   3.503   6.311  0.0530  0.2420 -0.4631
 3369TIP3    H131598   3.321   3.587   6.316  0.7336  0.5514  1.2015
 3369TIP3    H231599   3.298   3.437   6.314 -0.4031  0.7286 -0.1715
 3370TIP3   OH231600   0.098   0.719  15.265 -0.4548 -0.1313 -0.5648
 3370TIP3    H131601   0.081   0.631  15.298 -1.9365  0.9639  1.9300
 3370TIP3    H231602   0.023   0.738  15.208  0.9488 -1.1721 -2.9194
 3371TIP3   OH231603   6.610   4.248  13.142 -0.4097  0.0698 -0.3995
 3371TIP3    H131604   6.669   4.244  13.216 -0.9788  1.5083  0.1766
 3371TIP3    H231605   6.560   4.167  13.146  1.5899 -1.2753 -1.0182
 3372TIP3   OH231606   3.152   2.707   5.056 -0.0319  0.4863  0.8652
 3372TIP3    H131607   3.176   2.741   5.143  2.1111  0.8212  0.1937
 3372TIP3    H231608   3.128   2.785   5.006 -2.2493  0.2062  1.3684
 3373TIP3   OH231609   0.070   0.255   0.163 -0.4142 -0.2148  0.1447
 3373TIP3    H131610   0.155   0.267   0.122 -1.4092  2.4566 -1.4264
 3373TIP3    H231611   0.082   0.183   0.224  2.5308 -0.9465 -1.1421
 3374TIP3   OH231612   5.726   3.081   2.836 -0.8335 -0.5529  0.5717
 3374TIP3    H131613   5.768   3.027   2.769  0.3077  1.2543 -0.2649
 3374TIP3    H231614   5.633   3.081   2.812 -1.0325 -2.8280  1.1408
 3375TIP3   OH231615   0.895   0.742  16.608 -0.2947 -0.7401 -0.2707
 3375TIP3    H131616   0.910   0.830  16.573 -0.3115  0.1523  1.8313
 3375TIP3    H231617   0.889   0.755  16.703 -2.8112 -2.6418 -0.0749
 3376TIP3   OH231618   5.366   3.902   0.896  0.1609 -0.1277 -0.3067
 3376TIP3    H131619   5.272   3.884   0.890  0.2072  0.0733 -2.6796
 3376TIP3    H231620   5.406   3.815   0.901 -0.1263 -0.2199  0.5304
 3377TIP3   OH231621   3.547   3.523  11.752 -0.3056  0.1895 -0.6371
 3377TIP3    H131622   3.543   3.451  11.815 -0.6454  0.1354 -0.7182
 3377TIP3    H231623   3.611   3.494  11.687 -0.8510 -0.2858 -0.9724
 3378TIP3   OH231624   0.986   1.609   4.535  0.2163 -0.0748  0.0225
 3378TIP3    H131625   0.977   1.638   4.444  2.4312  2.3750  0.4569
 3378TIP3    H231626   1.075   1.574   4.540 -0.5825 -2.1676  0.8381
 3379TIP3   OH231627   3.846   2.235   1.316  0.4105  0.2348  0.3505
 3379TIP3    H131628   3.924   2.190   1.283  0.6875  0.8304  0.1919
 3379TIP3    H231629   3.833   2.199   1.404  0.7689  0.0208  0.3163
 3380TIP3   OH231630   3.988   2.291  12.107  0.1623  0.4696 -0.8074
 3380TIP3    H131631   3.947   2.329  12.186 -0.3267  0.0379 -0.8508
 3380TIP3    H231632   4.051   2.358  12.079  1.4922 -0.0134  0.8526
 3381TIP3   OH231633   3.448   3.856   2.174  0.4859  0.5256 -0.5259
 3381TIP3    H131634   3.521   3.890   2.226  1.4898 -0.3622 -1.2967
 3381TIP3    H231635   3.488   3.790   2.118 -0.5650  1.3881 -2.3857
 3382TIP3   OH231636   5.455   3.174  13.462  0.2194  0.4270  0.1359
 3382TIP3    H131637   5.516   3.241  13.432  0.9013 -0.3076 -0.1600
 3382TIP3    H231638   5.487   3.150  13.550  0.2254  0.2030  0.0734
 3383TIP3   OH231639   3.298   6.568   2.600 -0.2482  0.1084 -0.2820
 3383TIP3    H131640   3.263   6.652   2.630 -1.2447  1.0813 -3.6452
 3383TIP3    H231641   3.221   6.510   2.598 -0.5642  0.4994 -2.0423
 3384TIP3   OH231642   0.325   2.225   3.214  0.0636 -0.5793  0.1243
 3384TIP3    H131643   0.312   2.194   3.304  0.1317 -0.1499  0.2819
 3384TIP3    H231644   0.392   2.166   3.179  1.2961  0.3105  0.9138
 3385TIP3   OH231645   2.048   3.128  11.927  0.3743 -0.1968 -0.3360
 3385TIP3    H131646   2.128   3.154  11.972  0.9877 -2.2985 -0.1374
 3385TIP3    H231647   2.011   3.059  11.981 -2.2748  1.5137  0.2157
 3386TIP3   OH231648   6.553   5.524   4.462 -0.1355 -0.2886 -0.0608
 3386TIP3    H131649   6.564   5.440   4.507  0.9397  0.1589  0.5315
 3386TIP3    H231650   6.626   5.528   4.401  1.4212  1.3737  1.7843
 3387TIP3   OH231651   6.294   2.829  16.638  0.0453 -0.3030 -0.3698
 3387TIP3    H131652   6.204   2.859  16.642  0.2836  0.7309 -1.9903
 3387TIP3    H231653   6.312   2.793  16.725 -1.3382  1.1661  0.5471
 3388TIP3   OH231654   0.579   0.686  13.790 -0.4429 -0.0492 -0.5764
 3388TIP3    H131655   0.661   0.736  13.793 -0.4825 -0.0059  1.2771
 3388TIP3    H231656   0.519   0.735  13.846 -1.0408 -1.2161 -0.1468
 3389TIP3   OH231657   2.838   1.684  15.715 -0.3672 -0.3107 -0.0598
 3389TIP3    H131658   2.751   1.719  15.693  0.1068  0.2379 -1.1594
 3389TIP3    H231659   2.874   1.655  15.631  0.1885 -1.3227  0.5082
 3390TIP3   OH231660   3.092   6.775  13.487  0.7008 -0.6584  0.1656
 3390TIP3    H131661   3.056   6.776  13.399  0.7033  2.6815  0.1006
 3390TIP3    H231662   3.187   6.764  13.475  1.0564  2.3483 -0.5535
 3391TIP3   OH231663   1.939   1.306   4.529 -0.3487  0.0176  0.1929
 3391TIP3    H131664   1.928   1.217   4.562 -0.7262 -0.0809 -0.1898
 3391TIP3    H231665   1.896   1.306   4.444 -1.3428  0.8549  0.6586
 3392TIP3   OH231666   0.872   4.062   3.039 -0.1702  0.0204 -0.2940
 3392TIP3    H131667   0.780   4.038   3.053  0.1640 -1.0691  0.1733
 3392TIP3    H231668   0.912   4.056   3.126  0.2321  1.0664 -0.3899
 3393TIP3   OH231669   1.355   6.565  11.817 -0.0738  0.5573 -0.0545
 3393TIP3    H131670   1.417   6.511  11.868  2.2231  2.7513 -0.3166
 3393TIP3    H231671   1.309   6.616  11.883  0.6093  1.0902  0.0274
 3394TIP3   OH231672   5.083   6.685   0.158 -0.6725 -0.6804 -0.4809
 3394TIP3    H131673   5.155   6.699   0.220 -0.2005  0.0654 -1.1760
 3394TIP3    H231674   5.015   6.747   0.187  0.4383  1.3936 -2.0358
 3395TIP3   OH231675   3.716   5.746  12.960 -0.6120 -0.6609 -0.4783
 3395TIP3    H131676   3.676   5.688  13.024 -2.4082  0.3689 -0.6094
 3395TIP3    H231677   3.647   5.808  12.937  1.0798  1.2414 -0.6993
 3396TIP3   OH231678   0.790   0.746  11.476 -0.0754  0.5014 -0.1153
 3396TIP3    H131679   0.876   0.734  11.516  0.5605 -1.1028 -1.8294
 3396TIP3    H231680   0.806   0.804  11.402 -0.6971  1.1389  0.2441
 3397TIP3   OH231681   5.121   6.162   3.585  0.0271  0.6537  0.0959
 3397TIP3    H131682   5.192   6.144   3.523 -0.0783  0.8536 -0.0851
 3397TIP3    H231683   5.100   6.077   3.623  0.0716  0.5224 -0.1698
 3398TIP3   OH231684   6.734   5.998  15.281  0.6328 -0.6464  0.1590
 3398TIP3    H131685   6.692   6.080  15.256  2.7911  0.8226  1.1156
 3398TIP3    H231686   6.732   5.945  15.200  1.0831  1.1850 -1.1137
 3399TIP3   OH231687   1.363   6.685  15.052 -0.0668  0.9033  0.0200
 3399TIP3    H131688   1.299   6.695  15.124 -0.1236  2.7722 -0.2328
 3399TIP3    H231689   1.448   6.683  15.096 -0.2090 -0.9839  0.3118
 3400TIP3   OH231690   2.876   4.373  16.027  0.0996 -0.4039 -0.4271
 3400TIP3    H131691   2.886   4.280  16.006  0.6815 -0.4409 -0.0105
 3400TIP3    H231692   2.877   4.417  15.941 -1.7526 -0.8938 -0.7495
 3401TIP3   OH231693   3.127   5.801  12.455 -0.3807  0.0902 -0.1436
 3401TIP3    H131694   3.203   5.859  12.444 -0.0213 -0.5202 -0.9920
 3401TIP3    H231695   3.092   5.823  12.541  0.6193  0.5463  0.1579
 3402TIP3   OH231696   4.589   5.833  12.184 -0.5542 -0.2504  0.6181
 3402TIP3    H131697   4.626   5.761  12.234 -0.3733 -1.4932 -1.1951
 3402TIP3    H231698   4.590   5.802  12.093 -1.8802  1.4488 -0.0334
 3403TIP3   OH231699   6.520   6.595   1.343 -0.1856  0.1823 -0.3543
 3403TIP3    H131700   6.607   6.610   1.381 -1.3672 -0.0436  2.6945
 3403TIP3    H231701   6.464   6.660   1.384 -1.6660 -0.3100 -1.5169
 3404TIP3   OH231702   4.507   2.477   4.732  0.1823  0.1518  0.1343
 3404TIP3    H131703   4.464   2.517   4.808 -1.4018 -0.6190 -0.3186
 3404TIP3    H231704   4.582   2.429   4.769 -0.2946  0.1599  1.1511
 3405TIP3   OH231705   3.452   1.775  11.320 -0.5465  0.2927 -0.1689
 3405TIP3    H131706   3.447   1.692  11.366  1.6115  0.7628  1.0618
 3405TIP3    H231707   3.380   1.827  11.356  0.2747  0.1690  1.7818
 3406TIP3   OH231708   0.203   6.295  14.854  0.0030 -0.1531  0.3288
 3406TIP3    H131709   0.109   6.283  14.849 -0.3991  2.8452 -1.6336
 3406TIP3    H231710   0.238   6.241  14.783 -0.5535  0.7417 -0.6580
 3407TIP3   OH231711   6.480   0.329  13.895  0.7522 -0.3476  0.4028
 3407TIP3    H131712   6.560   0.379  13.914  1.1266  0.4398 -2.6015
 3407TIP3    H231713   6.461   0.282  13.975  2.0479  2.3998  2.5095
 3408TIP3   OH231714   4.157   0.089   6.144 -0.2224  0.0206  0.2890
 3408TIP3    H131715   4.105   0.153   6.095 -1.7173 -0.2819  1.4003
 3408TIP3    H231716   4.097   0.017   6.162  0.9924 -1.0060  0.4263
 3409TIP3   OH231717   0.323   1.350  13.633 -0.3463 -0.3142  0.3170
 3409TIP3    H131718   0.292   1.276  13.686 -2.7642  0.6721  0.3793
 3409TIP3    H231719   0.323   1.317  13.543 -1.8268 -0.3027  0.2902
 3410TIP3   OH231720   5.567   5.325  15.307  1.0631 -0.0251  0.0040
 3410TIP3    H131721   5.606   5.298  15.391  1.9755 -0.2669 -0.4865
 3410TIP3    H231722   5.557   5.420  15.316 -0.5011 -0.2492  1.0484
 3411TIP3   OH231723   2.374   1.199   5.931 -1.1242  0.1972 -0.0877
 3411TIP3    H131724   2.467   1.179   5.938 -1.4838 -0.9988  2.7877
 3411TIP3    H231725   2.337   1.124   5.884 -0.6732  0.7607 -1.3976
 3412TIP3   OH231726   4.149   4.431  13.095  0.1755 -0.0899  0.1040
 3412TIP3    H131727   4.149   4.386  13.011  0.3215 -0.3567  0.2433
 3412TIP3    H231728   4.069   4.401  13.139  0.7352 -0.9422  0.5730
 3413TIP3   OH231729   4.675   0.285  15.569 -0.3134  0.1862  0.2786
 3413TIP3    H131730   4.630   0.364  15.540  0.6059  0.4590 -0.4184
 3413TIP3    H231731   4.738   0.266  15.500 -1.8409 -2.3017 -0.5535
 3414TIP3   OH231732   5.939   3.172  15.293  0.7559  0.5764 -0.1325
 3414TIP3    H131733   5.901   3.140  15.211  2.3947  1.5123 -1.3269
 3414TIP3    H231734   5.905   3.113  15.360 -1.3118  0.3090 -1.3542
 3415TIP3   OH231735   0.689   6.569  16.570 -0.3250  0.2988 -0.0878
 3415TIP3    H131736   0.715   6.534  16.655  1.8558 -1.1458 -1.2380
 3415TIP3    H231737   0.736   6.652  16.563 -0.1079  0.1770 -0.0789
 3416TIP3   OH231738   1.530   4.857   1.749 -0.0546  0.0141 -0.2671
 3416TIP3    H131739   1.593   4.864   1.677 -0.0830  0.0171 -0.2911
 3416TIP3    H231740   1.585   4.852   1.828  0.0878 -2.7416 -0.4580
 3417TIP3   OH231741   5.083   6.103   1.530 -0.0348 -0.5276  0.6987
 3417TIP3    H131742   5.133   6.178   1.562  2.2685 -0.9288 -1.6246
 3417TIP3    H231743   5.147   6.032   1.525 -1.4037 -1.7547 -0.1887
 3418TIP3   OH231744   0.377   4.210   4.432 -0.4270  0.1601 -0.0705
 3418TIP3    H131745   0.382   4.116   4.418 -0.4787 -0.1089  1.5339
 3418TIP3    H231746   0.430   4.248   4.362 -0.3679 -1.0577 -0.7027
 3419TIP3   OH231747   4.496   1.792  11.397  0.2061 -0.6747 -0.1603
 3419TIP3    H131748   4.491   1.697  11.405 -0.1803 -1.0940 -3.7439
 3419TIP3    H231749   4.412   1.823  11.430 -0.0882 -1.6729  0.0542
 3420TIP3   OH231750   4.570   2.127  14.192 -0.8161 -0.1438  0.7548
 3420TIP3    H131751   4.638   2.101  14.253 -1.3867  1.3506  2.0783
 3420TIP3    H231752   4.507   2.055  14.194 -0.1072 -0.7727  0.7876
 3421TIP3   OH231753   3.783   5.201   0.019 -0.3424  0.0111 -0.5097
 3421TIP3    H131754   3.816   5.206   0.109 -3.3615 -1.0641  0.8100
 3421TIP3    H231755   3.769   5.292  -0.006  1.4294  0.3711 -0.3117
 3422TIP3   OH231756   6.343   5.479  15.005 -0.5701  0.4109  0.1115
 3422TIP3    H131757   6.437   5.500  15.004 -0.4702 -0.0455 -0.4473
 3422TIP3    H231758   6.336   5.408  15.068 -0.3382 -0.4222 -0.7751
 3423TIP3   OH231759   3.633   0.368  16.107 -0.3976 -0.1780  0.1266
 3423TIP3    H131760   3.545   0.356  16.144 -0.7789  1.3043 -0.2220
 3423TIP3    H231761   3.691   0.321  16.167 -1.4168 -1.1111  0.4095
 3424TIP3   OH231762   5.778   2.851   1.873 -0.2167 -0.0366  0.1114
 3424TIP3    H131763   5.850   2.914   1.867 -0.7239  0.4363 -1.6587
 3424TIP3    H231764   5.708   2.899   1.917 -1.2128  1.3308 -2.7571
 3425TIP3   OH231765   0.810   2.215  14.272 -0.4786 -0.3300  0.1318
 3425TIP3    H131766   0.860   2.296  14.270 -3.0968  1.4064 -1.0897
 3425TIP3    H231767   0.736   2.233  14.330 -1.8127 -1.3293 -1.1594
 3426TIP3   OH231768   5.791   5.840  15.128 -0.2660  0.1703  0.4624
 3426TIP3    H131769   5.857   5.884  15.074  0.2609  0.3291  1.2181
 3426TIP3    H231770   5.709   5.850  15.079 -0.3116  2.6248  0.9148
 3427TIP3   OH231771   4.268   4.715   3.658 -0.9441  0.5790  0.2036
 3427TIP3    H131772   4.336   4.772   3.623  0.4953 -0.1942  1.6216
 3427TIP3    H231773   4.287   4.710   3.751 -1.0694 -2.1111  0.1508
 3428TIP3   OH231774   5.805   4.584  11.160  0.1114  0.3633 -0.3915
 3428TIP3    H131775   5.795   4.667  11.112 -1.1791 -0.9788 -2.6459
 3428TIP3    H231776   5.892   4.553  11.136  0.7549  1.1937  0.7659
 3429TIP3   OH231777   3.802   2.552  16.458  0.1617 -0.4111  0.1144
 3429TIP3    H131778   3.837   2.536  16.370  1.0864 -0.6496  0.5158
 3429TIP3    H231779   3.783   2.464  16.492  1.2427 -0.4239  0.7180
 3430TIP3   OH231780   1.069   4.695   6.401  0.7227 -0.0581 -0.2486
 3430TIP3    H131781   1.092   4.650   6.482 -0.9774 -1.3366 -0.4277
 3430TIP3    H231782   1.011   4.766   6.428  2.7853  1.6500 -0.0514
 3431TIP3   OH231783   3.939   4.844   5.500 -0.6629 -0.6017  0.3909
 3431TIP3    H131784   3.914   4.802   5.583  1.2962 -1.3818  0.6493
 3431TIP3    H231785   4.033   4.860   5.509 -0.2363 -1.3677 -1.9628
 3432TIP3   OH231786   5.525   4.604   5.153  0.0142  0.1096 -0.3830
 3432TIP3    H131787   5.556   4.540   5.089 -1.2939 -0.2883 -0.6537
 3432TIP3    H231788   5.551   4.569   5.238 -0.1369 -0.4596 -0.5719
 3433TIP3   OH231789   6.599   2.693  13.176 -0.0890 -0.0827 -0.4665
 3433TIP3    H131790   6.588   2.721  13.267  0.5604  2.3461 -1.0629
 3433TIP3    H231791   6.582   2.599  13.177 -2.6455  0.3011  1.7049
 3434TIP3   OH231792   2.976   4.058  14.418  0.3503  0.1075  0.3582
 3434TIP3    H131793   2.987   3.968  14.452 -0.9054 -0.1930 -0.0012
 3434TIP3    H231794   3.022   4.057  14.334 -1.6610 -0.9449 -0.8148
 3435TIP3   OH231795   6.399   4.075  10.795  0.0722 -0.1873 -0.1618
 3435TIP3    H131796   6.407   4.148  10.734  0.4616 -0.0876  0.0067
 3435TIP3    H231797   6.338   4.015  10.753  0.2166 -0.0440 -0.5782
 3436TIP3   OH231798   4.197   4.472  14.542 -0.4375  0.1961 -0.5270
 3436TIP3    H131799   4.122   4.469  14.602  0.2708  2.0454  0.5266
 3436TIP3    H231800   4.159   4.461  14.455 -1.7877 -0.0886  0.0760
 3437TIP3   OH231801   0.148   4.541  16.167 -0.7351 -0.1296  0.0733
 3437TIP3    H131802   0.240   4.562  16.148 -0.7900 -0.1118 -0.1818
 3437TIP3    H231803   0.102   4.564  16.086 -1.3530  2.2855  1.0018
 3438TIP3   OH231804   3.372   1.755   3.914 -0.1829 -0.3036  0.1933
 3438TIP3    H131805   3.321   1.803   3.980  1.4949  1.4987  0.2359
 3438TIP3    H231806   3.332   1.779   3.831 -0.2059  0.0911  0.3157
 3439TIP3   OH231807   0.314   1.639   5.766 -0.2753  0.1023 -0.2233
 3439TIP3    H131808   0.234   1.682   5.798  2.0541  3.0340  2.4325
 3439TIP3    H231809   0.329   1.567   5.828 -0.8635 -0.4879 -0.7611
 3440TIP3   OH231810   6.693   4.999   2.012  0.3110 -0.8006  0.5769
 3440TIP3    H131811   6.617   4.951   2.048  0.2775 -1.4978 -0.3705
 3440TIP3    H231812   6.734   5.039   2.088 -1.7825  0.7510  0.9957
 3441TIP3   OH231813   4.949   4.684  16.871 -0.8268  0.2751 -0.5118
 3441TIP3    H131814   4.928   4.594  16.895 -1.6064  0.0700 -1.8350
 3441TIP3    H231815   5.041   4.682  16.846 -0.3547  0.2377  1.1680
 3442TIP3   OH231816   1.160   3.112   5.651  0.1149 -0.6155 -0.1722
 3442TIP3    H131817   1.154   3.134   5.557  0.1194 -0.3548 -0.1140
 3442TIP3    H231818   1.078   3.143   5.688 -0.0485 -1.0651 -0.1546
 3443TIP3   OH231819   4.643   6.376   3.778 -0.0174 -0.9533  0.4767
 3443TIP3    H131820   4.634   6.354   3.685 -0.2646  3.4162 -0.7374
 3443TIP3    H231821   4.738   6.382   3.792  0.0769  1.7127 -0.6056
 3444TIP3   OH231822   6.233   6.238   1.624  0.5235 -0.0636 -0.4982
 3444TIP3    H131823   6.291   6.310   1.645 -0.4377 -0.0259  2.5139
 3444TIP3    H231824   6.258   6.168   1.685 -1.4749 -0.6060 -0.2068
 3445TIP3   OH231825   2.346   1.525   0.371 -0.3917  0.6056  0.6140
 3445TIP3    H131826   2.329   1.498   0.281  1.3542 -0.1135  0.4557
 3445TIP3    H231827   2.365   1.619   0.364  1.4953  0.2284 -0.0976
 3446TIP3   OH231828   3.581   6.229   3.545 -0.3008 -0.4965 -0.2267
 3446TIP3    H131829   3.583   6.307   3.600  0.2074 -1.1446  0.6868
 3446TIP3    H231830   3.659   6.236   3.490 -0.3412 -0.2899 -0.2585
 3447TIP3   OH231831   4.867   5.722  11.434  0.5748 -0.0082  0.0684
 3447TIP3    H131832   4.822   5.728  11.349  0.8147  0.0848 -0.0524
 3447TIP3    H231833   4.800   5.744  11.498  0.1172 -1.0641 -0.0212
 3448TIP3   OH231834   3.511   0.055   0.769 -0.2210  0.2454  0.1351
 3448TIP3    H131835   3.478  -0.017   0.823  1.4000 -1.0178 -0.4891
 3448TIP3    H231836   3.444   0.068   0.702 -0.6328 -0.5218  0.3892
 3449TIP3   OH231837   2.672   4.068  15.742 -0.0659  0.4616 -0.0562
 3449TIP3    H131838   2.716   4.153  15.737  2.5482 -0.8116 -0.2578
 3449TIP3    H231839   2.685   4.029  15.655 -4.0735  1.0203 -1.1373
 3450TIP3   OH231840   2.077   4.132   4.644  0.4429 -0.1630  0.5571
 3450TIP3    H131841   2.043   4.107   4.730 -0.2922 -0.4405  0.1890
 3450TIP3    H231842   2.006   4.181   4.603  0.2374 -1.2492 -0.4508
 3451TIP3   OH231843   4.990   1.514  16.051  0.7297 -0.2350  0.2783
 3451TIP3    H131844   5.054   1.452  16.015  1.3846 -0.6287  1.9905
 3451TIP3    H231845   4.906   1.470  16.039  1.0467 -0.8558  0.2445
 3452TIP3   OH231846   4.062   4.821   1.548  0.2762 -0.0797 -0.0080
 3452TIP3    H131847   4.145   4.806   1.502 -0.9942 -0.0987 -2.4286
 3452TIP3    H231848   4.058   4.917   1.557  0.0950  0.0011 -0.8495
 3453TIP3   OH231849   0.271   3.335  11.698 -0.6255 -0.7193  0.2212
 3453TIP3    H131850   0.212   3.314  11.626 -0.2625  0.3117 -0.3870
 3453TIP3    H231851   0.344   3.382  11.658  1.1171 -2.7443  0.8048
 3454TIP3   OH231852   4.765   4.014  15.814 -0.2638  0.0938 -0.0819
 3454TIP3    H131853   4.751   3.920  15.827  1.1542  0.0531  1.6668
 3454TIP3    H231854   4.834   4.037  15.877 -0.3933  2.2668 -0.6300
 3455TIP3   OH231855   6.333   3.946   2.297  0.2139 -0.2016  0.1479
 3455TIP3    H131856   6.251   3.921   2.255  0.9482  0.5035 -1.8502
 3455TIP3    H231857   6.355   4.030   2.257  1.7127 -0.1994  0.9188
 3456TIP3   OH231858   3.230   1.022   2.132 -0.1395 -0.0715  0.1322
 3456TIP3    H131859   3.230   0.936   2.089 -0.8407 -0.0616  0.1020
 3456TIP3    H231860   3.321   1.051   2.129 -0.1861 -0.0368 -1.4151
 3457TIP3   OH231861   1.184   1.453  16.153 -0.1094 -0.5116 -0.4066
 3457TIP3    H131862   1.222   1.380  16.104  0.6513  0.7841 -1.8381
 3457TIP3    H231863   1.110   1.482  16.099  0.4319  0.6313 -0.5534
 3458TIP3   OH231864   3.858   2.468  12.306 -0.4828 -0.2206  0.2088
 3458TIP3    H131865   3.871   2.519  12.226 -1.9746  0.7855  0.5744
 3458TIP3    H231866   3.797   2.520  12.358 -0.2794 -1.3176  1.5987
 3459TIP3   OH231867   4.247   0.751  11.966  0.3139  0.5986 -0.2747
 3459TIP3    H131868   4.319   0.749  11.903  1.3254  2.2996  0.7506
 3459TIP3    H231869   4.168   0.744  11.913  1.1896 -1.9545 -1.3924
 3460TIP3   OH231870   5.478   5.855  14.301  0.3015  0.2187  0.2562
 3460TIP3    H131871   5.460   5.930  14.244  0.6252  0.8006  0.9103
 3460TIP3    H231872   5.399   5.845  14.354 -0.3672 -0.8916 -0.8858
 3461TIP3   OH231873   1.530   2.147  12.188  0.1055 -0.1482 -0.4613
 3461TIP3    H131874   1.577   2.207  12.246 -1.4193  0.0761  0.5807
 3461TIP3    H231875   1.549   2.060  12.223 -1.0714  0.0033  0.6143
 3462TIP3   OH231876   6.614   3.771  16.053  0.3242 -0.4242 -0.1524
 3462TIP3    H131877   6.537   3.795  16.002  1.4629 -0.4107 -1.9743
 3462TIP3    H231878   6.613   3.675  16.055 -0.1766 -0.4082  0.5548
 3463TIP3   OH231879   5.169   5.731  15.048 -0.0097  0.1376 -0.3412
 3463TIP3    H131880   5.180   5.798  14.980  0.5879 -0.2997 -0.6821
 3463TIP3    H231881   5.256   5.696  15.062 -0.3442 -0.7207 -0.3251
 3464TIP3   OH231882   3.624   5.663   1.025 -0.2568 -0.3612  0.1734
 3464TIP3    H131883   3.628   5.673   0.929  1.3036 -0.3429  0.2238
 3464TIP3    H231884   3.687   5.595   1.045  1.4822  1.5156  1.4236
 3465TIP3   OH231885   6.373   3.131   5.515  0.4132 -0.0438 -0.0634
 3465TIP3    H131886   6.329   3.196   5.461 -0.6560 -0.0742  0.7369
 3465TIP3    H231887   6.466   3.155   5.511  0.3816 -0.1375 -1.9880
 3466TIP3   OH231888   5.638   5.259   3.700  0.0222 -0.1584 -0.2501
 3466TIP3    H131889   5.583   5.202   3.754 -0.7536 -1.0406 -1.8829
 3466TIP3    H231890   5.595   5.345   3.704  1.5969  0.6132  2.8132
 3467TIP3   OH231891   2.297   6.163  15.279  0.2629  0.3446 -0.0834
 3467TIP3    H131892   2.213   6.168  15.324 -0.0168  0.1489 -0.5726
 3467TIP3    H231893   2.341   6.088  15.319 -0.2238 -0.1860 -0.5205
 3468TIP3   OH231894   4.464   2.933   1.475  0.4417 -0.3326  0.3461
 3468TIP3    H131895   4.489   2.975   1.557  0.8755 -0.8141  0.4670
 3468TIP3    H231896   4.513   2.850   1.474  0.3735 -0.3754 -0.3524
 3469TIP3   OH231897   2.862   0.816  14.151  0.1287 -0.0463 -0.2502
 3469TIP3    H131898   2.836   0.731  14.187 -1.0874  0.8038  0.9984
 3469TIP3    H231899   2.814   0.880  14.204  2.7213  1.5513  0.3845
 3470TIP3   OH231900   3.700   2.017  12.884 -0.3685  0.1769  0.0648
 3470TIP3    H131901   3.766   2.051  12.824  0.2946  0.5643  0.9924
 3470TIP3    H231902   3.731   1.930  12.909  0.1965  0.6429  1.0661
 3471TIP3   OH231903   0.303   3.020   5.502  0.1038 -0.2591  0.7819
 3471TIP3    H131904   0.305   3.096   5.561 -0.1271 -0.5596  1.1891
 3471TIP3    H231905   0.313   2.945   5.561  0.6320 -0.5277  0.3499
 3472TIP3   OH231906   0.777   1.572   1.036 -0.3748 -0.1050 -0.1097
 3472TIP3    H131907   0.749   1.498   1.088 -1.8538  0.8378  0.5262
 3472TIP3    H231908   0.836   1.535   0.970  0.6257 -1.4829  1.4988
 3473TIP3   OH231909   5.956   2.050   3.654 -0.4806  0.1879  0.0452
 3473TIP3    H131910   5.987   2.119   3.596  1.2166 -2.0800 -1.9551
 3473TIP3    H231911   5.871   2.025   3.618 -0.3496  0.1448 -0.2357
 3474TIP3   OH231912   0.727   2.965  12.168  0.0449 -0.4509 -0.1142
 3474TIP3    H131913   0.726   3.050  12.124  0.6726 -0.4914 -0.2086
 3474TIP3    H231914   0.794   2.915  12.121  0.0474 -0.8152  0.2812
 3475TIP3   OH231915   0.667   4.105  15.226 -0.3167  0.2651 -0.0695
 3475TIP3    H131916   0.625   4.076  15.145 -1.9667  1.2433  0.3873
 3475TIP3    H231917   0.617   4.182  15.253 -0.5414 -0.6753  2.4837
 3476TIP3   OH231918   0.316   1.888   3.421 -0.4699 -0.1029  0.3603
 3476TIP3    H131919   0.223   1.901   3.434 -0.6751  0.7213 -1.5754
 3476TIP3    H231920   0.326   1.878   3.326  1.5346  1.1779  0.3687
 3477TIP3   OH231921   6.738   5.789   5.721  0.2653  0.3243  0.1513
 3477TIP3    H131922   6.743   5.765   5.813 -1.1321 -0.4726  0.0636
 3477TIP3    H231923   6.679   5.723   5.683  0.8507  0.6071 -1.3169
 3478TIP3   OH231924   6.031   6.191  13.506  0.0028 -0.3959 -0.1494
 3478TIP3    H131925   6.018   6.163  13.415 -0.4620 -1.3783  0.2079
 3478TIP3    H231926   6.122   6.169  13.525  0.5222  1.0818 -0.7967
 3479TIP3   OH231927   5.144   5.128  11.886  0.2461  0.0747 -0.2293
 3479TIP3    H131928   5.052   5.118  11.911  0.6224  0.1580  1.2774
 3479TIP3    H231929   5.181   5.187  11.951  1.6488 -0.9039 -0.0954
 3480TIP3   OH231930   5.528   4.821  12.802 -0.1478  0.0628  0.2485
 3480TIP3    H131931   5.492   4.797  12.717 -0.0726  1.4154 -0.1813
 3480TIP3    H231932   5.471   4.776  12.865 -1.5956  0.8270 -0.4602
 3481TIP3   OH231933   4.686   5.998   0.211 -0.0671 -0.0359  0.3553
 3481TIP3    H131934   4.608   6.054   0.209 -0.0958 -0.0182  1.5920
 3481TIP3    H231935   4.656   5.917   0.252  0.0584 -0.8735 -1.1155
 3482TIP3   OH231936   0.342   6.323   4.589 -0.4954 -0.3379 -0.4736
 3482TIP3    H131937   0.431   6.329   4.554 -1.0877 -0.1355 -1.9804
 3482TIP3    H231938   0.292   6.386   4.539 -1.2744  0.3590  1.1410
 3483TIP3   OH231939   1.827   4.527  10.996 -0.3419  0.0313 -0.1528
 3483TIP3    H131940   1.916   4.521  10.960 -0.2630  5.0181 -1.5375
 3483TIP3    H231941   1.837   4.581  11.075 -2.1041  0.6914 -0.3454
 3484TIP3   OH231942   3.985   1.457   2.573  0.1345 -0.2119  0.1732
 3484TIP3    H131943   4.041   1.533   2.591 -0.0593 -0.1266  0.4310
 3484TIP3    H231944   3.986   1.448   2.478  1.7916 -1.1204  0.2365
 3485TIP3   OH231945   2.832   5.279   1.854  0.2652 -0.1719 -0.1798
 3485TIP3    H131946   2.870   5.307   1.771 -0.3768 -1.8569 -1.1024
 3485TIP3    H231947   2.774   5.351   1.880 -1.2998 -0.5225 -2.4012
 3486TIP3   OH231948   3.778   0.660   4.922  0.3702  0.0296  0.6465
 3486TIP3    H131949   3.699   0.614   4.895 -0.2823  0.6344  1.4751
 3486TIP3    H231950   3.747   0.743   4.957  1.5041  0.9765 -0.5155
 3487TIP3   OH231951   3.427   3.290  14.847  0.0774 -0.2740  0.4648
 3487TIP3    H131952   3.509   3.308  14.892  0.4552 -0.2083 -0.2322
 3487TIP3    H231953   3.390   3.376  14.827  1.1181 -0.2251 -1.4875
 3488TIP3   OH231954   5.472   2.680   2.826 -0.0021 -0.8941  0.2647
 3488TIP3    H131955   5.440   2.633   2.903  0.0825  0.0451  0.8941
 3488TIP3    H231956   5.564   2.700   2.846 -0.4302  0.8174  0.6742
 3489TIP3   OH231957   1.156   4.662  16.205 -0.3073  0.5385  0.1104
 3489TIP3    H131958   1.065   4.675  16.230 -0.4234 -0.8599  0.4854
 3489TIP3    H231959   1.153   4.618  16.121  0.0770  2.6678 -1.0896
 3490TIP3   OH231960   0.008   6.699  16.205 -0.3832  0.2705  0.8249
 3490TIP3    H131961  -0.055   6.729  16.271  0.0201  2.0662  0.4309
 3490TIP3    H231962   0.093   6.724  16.240 -0.1890  1.6711 -0.5533
 3491TIP3   OH231963   5.652   5.112  11.445 -0.6584 -0.4424  0.2583
 3491TIP3    H131964   5.711   5.053  11.492 -1.3795 -0.3778  1.2808
 3491TIP3    H231965   5.662   5.088  11.353 -0.3530 -1.6326  0.5854
 3492TIP3   OH231966   6.126   5.603   1.403  0.5158 -0.7019  0.0566
 3492TIP3    H131967   6.155   5.526   1.452  0.7123  0.6596  2.2190
 3492TIP3    H231968   6.031   5.605   1.415  0.4999 -0.6632 -0.0719
 3493TIP3   OH231969   0.389   4.684  11.102 -0.1150 -0.2088  0.7115
 3493TIP3    H131970   0.446   4.621  11.058 -1.3507 -0.2924 -0.8662
 3493TIP3    H231971   0.423   4.689  11.191  0.7430 -2.2139  0.5527
 3494TIP3   OH231972   1.516   4.656   4.551 -0.4738 -0.0651 -0.0695
 3494TIP3    H131973   1.440   4.632   4.604 -1.0011 -0.7982 -1.1151
 3494TIP3    H231974   1.501   4.747   4.526 -0.1824  0.3152  1.0676
 3495TIP3   OH231975   4.482   5.947   4.164  0.7079 -0.5680  0.5625
 3495TIP3    H131976   4.416   5.896   4.212  1.3601 -0.9582  1.0565
 3495TIP3    H231977   4.454   5.942   4.073 -1.4084  1.4036  0.9987
 3496TIP3   OH231978   3.619   6.043   3.775  0.0794  0.1312 -0.2290
 3496TIP3    H131979   3.633   6.041   3.869  0.3417 -0.4358 -0.2771
 3496TIP3    H231980   3.541   6.098   3.763  0.1165  0.2991  0.3064
 3497TIP3   OH231981   3.903   1.702   6.031  0.6040  0.2825 -0.1024
 3497TIP3    H131982   3.956   1.779   6.050  0.6469 -0.1659  1.8163
 3497TIP3    H231983   3.958   1.650   5.971  1.4749  0.7453  0.2758
 3498TIP3   OH231984   2.199   0.278  13.301 -0.2842  0.0598  0.3552
 3498TIP3    H131985   2.122   0.247  13.349  1.1805 -0.9787  2.1166
 3498TIP3    H231986   2.229   0.202  13.251  1.1181 -0.3696  1.7698
 3499TIP3   OH231987   3.628   5.112  12.921 -0.2000 -0.5967 -0.5218
 3499TIP3    H131988   3.618   5.041  12.857  1.5932  0.4501 -2.0766
 3499TIP3    H231989   3.704   5.087  12.973  0.0240 -0.1510 -0.6280
 3500TIP3   OH231990   0.997   5.994  11.348 -0.6676 -0.1349 -0.3374
 3500TIP3    H131991   1.040   6.069  11.307  0.7857 -1.8208 -2.1137
 3500TIP3    H231992   1.061   5.961  11.411 -1.7741  0.7403  1.3295
 3501TIP3   OH231993   0.196   2.734   0.150  0.1307 -0.2927 -0.1752
 3501TIP3    H131994   0.203   2.714   0.057  1.1887  1.1015 -0.4138
 3501TIP3    H231995   0.282   2.766   0.175 -0.0904 -0.7743  1.3376
 3502TIP3   OH231996   0.945   6.819  15.777 -0.5113  0.6280  0.0688
 3502TIP3    H131997   0.915   6.729  15.786 -0.8451  0.9479  2.7059
 3502TIP3    H231998   1.039   6.811  15.757 -0.0791 -0.3434  2.2133
 3503TIP3   OH231999   5.803   1.432   2.071  0.3282  0.4445 -0.0941
 3503TIP3    H132000   5.850   1.432   2.155 -0.4348 -1.4884  0.3914
 3503TIP3    H232001   5.826   1.348   2.031 -0.6957  0.5817 -1.0122
 3504TIP3   OH232002   4.883   2.152  16.488 -0.3440  0.4583 -0.6074
 3504TIP3    H132003   4.943   2.113  16.552 -1.1879 -1.3341 -0.8581
 3504TIP3    H232004   4.938   2.166  16.410  0.7438  2.8563  0.4809
 3505TIP3   OH232005   4.326   6.607   4.377  0.3344 -0.3938  0.3109
 3505TIP3    H132006   4.413   6.642   4.398  0.2290 -0.3149  0.6158
 3505TIP3    H232007   4.334   6.513   4.387  0.3868 -0.3871  0.3305
 3506TIP3   OH232008   4.606   1.689   5.159 -0.0650  0.2959 -0.1522
 3506TIP3    H132009   4.615   1.778   5.124 -0.6203  0.6027  0.4692
 3506TIP3    H232010   4.687   1.674   5.207 -1.0903  1.6008  2.1996
 3507TIP3   OH232011   2.052   3.422  12.177 -0.0967  0.1412  0.0526
 3507TIP3    H132012   2.101   3.416  12.095  1.1830 -0.2816  0.8279
 3507TIP3    H232013   2.102   3.484  12.230 -1.2213  0.8510  0.3346
 3508TIP3   OH232014   2.725   5.406   3.273  0.1386 -1.1009  0.3077
 3508TIP3    H132015   2.796   5.351   3.306  0.1863 -0.1514  1.8945
 3508TIP3    H232016   2.668   5.420   3.348 -0.9867 -0.6824 -0.5898
 3509TIP3   OH232017   3.255   3.531  11.637  0.9890  0.5096  0.3551
 3509TIP3    H132018   3.296   3.496  11.558  0.5746 -0.5065  0.5676
 3509TIP3    H232019   3.319   3.593  11.673  0.5284  2.2863 -1.6528
 3510TIP3   OH232020   0.813   2.843  16.382  0.5350 -0.1935 -0.0744
 3510TIP3    H132021   0.889   2.797  16.346  0.1970  0.5950 -1.9019
 3510TIP3    H232022   0.830   2.935  16.364 -0.5072  0.0659  0.1912
 3511TIP3   OH232023   4.084   4.410   2.760  0.2795  0.8471  0.3693
 3511TIP3    H132024   4.103   4.435   2.851  0.5084 -1.4701  1.0189
 3511TIP3    H232025   4.168   4.380   2.725 -0.3579 -1.2050  0.4482
 3512TIP3   OH232026   5.711   4.789   5.350 -0.1060 -0.2392  0.2367
 3512TIP3    H132027   5.804   4.768   5.360  0.1960  1.2197  0.5814
 3512TIP3    H232028   5.666   4.707   5.374  1.1072 -1.8663 -2.5228
 3513TIP3   OH232029   0.796   0.879   0.982 -0.3058  0.0097 -0.5882
 3513TIP3    H132030   0.870   0.827   0.951  0.3870 -0.2978  1.3952
 3513TIP3    H232031   0.743   0.817   1.033 -2.0233  0.2011 -2.0472
 3514TIP3   OH232032   6.472   0.466   0.578 -0.5339 -0.1266  0.7226
 3514TIP3    H132033   6.514   0.393   0.623 -1.4114 -1.0284  0.1013
 3514TIP3    H232034   6.380   0.441   0.572 -1.0513  1.4834  1.4105
 3515TIP3   OH232035   0.011   2.175   6.441 -0.1054 -0.1066  0.4027
 3515TIP3    H132036   0.085   2.184   6.501  0.5606  0.5264 -0.4798
 3515TIP3    H232037   0.047   2.199   6.355 -1.1813 -0.3951 -0.1469
 3516TIP3   OH232038   6.055   5.818  14.920 -0.5634 -0.0804  0.1510
 3516TIP3    H132039   6.054   5.893  14.978 -0.4874  0.7013 -0.8251
 3516TIP3    H232040   6.074   5.855  14.833  0.4973 -1.3475 -0.1841
 3517TIP3   OH232041   2.845   1.804  11.404  0.2993 -0.4141 -0.2709
 3517TIP3    H132042   2.871   1.811  11.312 -0.1675 -2.0093 -0.5537
 3517TIP3    H232043   2.749   1.804  11.402  0.2338 -2.6655 -0.0540
 3518TIP3   OH232044   3.011   5.685   5.107 -0.2526  0.2511  0.6285
 3518TIP3    H132045   3.076   5.633   5.155 -1.2786 -0.7569  0.9954
 3518TIP3    H232046   3.039   5.680   5.016  0.3971  0.1521  0.8256
 3519TIP3   OH232047   0.632   4.206  11.208 -0.1318 -0.6872  0.2536
 3519TIP3    H132048   0.677   4.174  11.286 -1.2149 -1.0151  0.7680
 3519TIP3    H232049   0.551   4.245  11.241 -0.7411 -1.0814 -0.7186
 3520TIP3   OH232050   3.781   2.579  12.781 -0.4130  0.1940 -0.0422
 3520TIP3    H132051   3.741   2.560  12.866 -1.1111 -0.7312 -0.5615
 3520TIP3    H232052   3.780   2.674  12.775 -0.3767  0.2747  0.9670
 3521TIP3   OH232053   1.765   5.277  13.502  0.1792 -0.9979  0.6033
 3521TIP3    H132054   1.768   5.325  13.585 -0.6314 -0.6390  0.4429
 3521TIP3    H232055   1.849   5.232  13.497 -0.2004 -1.9571  2.1799
 3522TIP3   OH232056   2.247   4.715   1.671  0.2164  0.0836  0.8352
 3522TIP3    H132057   2.325   4.769   1.658  0.6883 -0.9642 -1.0588
 3522TIP3    H232058   2.184   4.774   1.713  1.7599  1.1498  1.7771
 3523TIP3   OH232059   2.556   5.243  13.483  0.0841  0.1360 -0.4062
 3523TIP3    H132060   2.524   5.202  13.403  0.8720 -0.1744 -0.5704
 3523TIP3    H232061   2.556   5.173  13.548 -0.0948  0.2680 -0.2633
 3524TIP3   OH232062   4.151   3.117   3.468 -0.0801  0.4252 -0.0214
 3524TIP3    H132063   4.072   3.065   3.452 -0.4822  1.3054 -1.0833
 3524TIP3    H232064   4.198   3.070   3.537 -0.6411 -1.0828 -0.6279
 3525TIP3   OH232065   4.362   3.200  15.434  0.7659 -0.6603 -0.2392
 3525TIP3    H132066   4.358   3.117  15.386 -0.5799 -0.5279 -0.4127
 3525TIP3    H232067   4.334   3.265  15.369 -0.4597 -0.3955  0.5202
 3526TIP3   OH232068   2.683   5.397  12.932  0.0878 -0.3816  0.2137
 3526TIP3    H132069   2.704   5.449  12.854 -2.5599 -0.2299 -0.4953
 3526TIP3    H232070   2.587   5.396  12.935  0.0706 -2.9422  1.7696
 3527TIP3   OH232071   3.590   4.518   2.468 -0.6016  0.0558  0.5203
 3527TIP3    H132072   3.656   4.505   2.400 -0.3612 -0.8561  0.9101
 3527TIP3    H232073   3.507   4.516   2.422 -0.3638  1.4556 -0.0121
 3528TIP3   OH232074   2.920   0.471  12.575  0.0378  0.3425  0.5286
 3528TIP3    H132075   2.948   0.523  12.651  1.7134  1.6335 -0.8718
 3528TIP3    H232076   3.001   0.433  12.542 -0.9806 -2.1390  0.7029
 3529TIP3   OH232077   4.043   6.558  17.143  0.2488  0.5556  0.0365
 3529TIP3    H132078   4.012   6.578  17.055 -0.8029 -0.1241  0.2237
 3529TIP3    H232079   4.099   6.632  17.167 -1.1135  1.7804 -0.4130
 3530TIP3   OH232080   4.596   4.354   1.055 -0.1104 -0.0586  0.0669
 3530TIP3    H132081   4.541   4.414   1.005  1.4158  1.1187 -0.2776
 3530TIP3    H232082   4.638   4.410   1.120  2.3734 -0.4570 -1.0989
 3531TIP3   OH232083   0.059   6.800  11.958 -0.7084 -0.3411 -0.1257
 3531TIP3    H132084   0.066   6.881  11.907  0.3692 -0.2574  0.1195
 3531TIP3    H232085  -0.025   6.807  12.002  0.1979  1.6006  1.4668
 3532TIP3   OH232086   5.378   6.620  12.270 -0.5566  0.2724  0.2445
 3532TIP3    H132087   5.299   6.623  12.324 -0.7656  0.2248 -0.0481
 3532TIP3    H232088   5.444   6.666  12.320 -0.4137 -0.8142  1.0685
 3533TIP3   OH232089   0.891   1.181   1.259 -0.3068 -0.5749  0.1741
 3533TIP3    H132090   0.853   1.106   1.306 -1.1412 -1.4169 -1.7441
 3533TIP3    H232091   0.819   1.215   1.206  0.5372  0.4777 -0.3344
 3534TIP3   OH232092   3.937   1.009   5.393  0.3553 -0.2296  0.5080
 3534TIP3    H132093   3.998   0.937   5.403  1.1491  0.3367 -0.0985
 3534TIP3    H232094   3.858   0.970   5.355  0.4242 -0.9291  1.0851
 3535TIP3   OH232095   2.921   0.559   1.848 -0.2970  0.4154 -0.7760
 3535TIP3    H132096   2.876   0.608   1.916  0.3289 -0.8347  0.6058
 3535TIP3    H232097   3.010   0.593   1.849 -0.1448  0.0160 -0.5742
 3536TIP3   OH232098   1.720   6.272   1.264  0.1881  0.5509  0.5224
 3536TIP3    H132099   1.753   6.304   1.180 -1.8847 -2.0752 -1.4639
 3536TIP3    H232100   1.743   6.341   1.326  2.2645  2.4095 -2.0518
 3537TIP3   OH232101   2.348   1.540   4.298  0.5075 -0.7787 -0.9619
 3537TIP3    H132102   2.412   1.470   4.283 -0.8108 -2.4380  0.6864
 3537TIP3    H232103   2.264   1.496   4.303 -0.1547  0.5464  2.2314
 3538TIP3   OH232104   4.893   4.964  16.848 -0.0216 -0.8632  0.1504
 3538TIP3    H132105   4.896   4.965  16.943 -0.4135 -1.0431  0.1659
 3538TIP3    H232106   4.884   4.872  16.825  0.0084 -0.8138 -0.0606
 3539TIP3   OH232107   4.423   0.107   4.705  0.0052  0.7767 -0.1633
 3539TIP3    H132108   4.499   0.052   4.725  0.0997  1.0384  0.2101
 3539TIP3    H232109   4.455   0.168   4.639  0.6075  1.9608  1.1751
 3540TIP3   OH232110   2.358   2.606  13.005 -0.0530 -0.2826 -0.4070
 3540TIP3    H132111   2.271   2.621  12.968 -0.0080  0.9271 -0.0466
 3540TIP3    H232112   2.419   2.647  12.943  0.1609  0.0895  0.0475
 3541TIP3   OH232113   3.089   0.902  11.776  0.1545 -0.1403  0.5781
 3541TIP3    H132114   3.146   0.846  11.829  1.2949 -1.0397 -1.4831
 3541TIP3    H232115   3.124   0.894  11.687 -0.3206  2.9785 -0.0047
 3542TIP3   OH232116   5.901   1.875   4.638  0.3294 -0.2309 -0.0725
 3542TIP3    H132117   5.878   1.842   4.552 -0.2568 -3.1909  1.1146
 3542TIP3    H232118   5.816   1.889   4.682  0.6180  1.2207  0.1026
 3543TIP3   OH232119   0.982   0.396  16.462 -0.9999 -0.4398 -0.0212
 3543TIP3    H132120   0.977   0.408  16.557 -0.5519  0.6849 -0.1248
 3543TIP3    H232121   0.902   0.437  16.429 -0.8612 -0.2863 -0.1701
 3544TIP3   OH232122   2.816   3.213   1.562  0.4002  0.1321  0.0309
 3544TIP3    H132123   2.828   3.134   1.614  1.8889 -0.3592 -0.9639
 3544TIP3    H232124   2.834   3.185   1.472 -0.2137  1.3511 -0.4975
 3545TIP3   OH232125   0.331   0.557   2.311  0.1084 -0.1885 -0.6417
 3545TIP3    H132126   0.417   0.590   2.286  0.8443 -0.6675  1.1221
 3545TIP3    H232127   0.324   0.471   2.269  1.0424 -0.6938  0.1950
 3546TIP3   OH232128   0.864   3.717   3.198  0.5046  0.1198 -0.4684
 3546TIP3    H132129   0.922   3.778   3.243 -0.2071  1.1366 -0.8997
 3546TIP3    H232130   0.831   3.765   3.122 -2.8210  0.5270  1.0259
 3547TIP3   OH232131   5.875   1.681   1.321  0.3510 -0.0004  0.2457
 3547TIP3    H132132   5.856   1.675   1.415 -1.9008 -1.2039 -0.2291
 3547TIP3    H232133   5.798   1.643   1.278  1.2837  0.6023 -2.1098
 3548TIP3   OH232134   3.399   4.371  16.563  0.3243 -0.1070  0.2899
 3548TIP3    H132135   3.358   4.342  16.644  0.2234 -1.7230 -0.3013
 3548TIP3    H232136   3.339   4.437  16.528 -0.0103  0.0599  1.1598
 3549TIP3   OH232137   6.394   6.657   3.496 -0.0933  0.2635 -0.1955
 3549TIP3    H132138   6.316   6.601   3.491 -0.5977  1.0359 -1.8559
 3549TIP3    H232139   6.400   6.682   3.588 -0.7944 -1.1842  0.2881
 3550TIP3   OH232140   3.075   6.185   3.573  0.0371  0.3774 -0.1730
 3550TIP3    H132141   3.030   6.196   3.657  2.5072  0.5475  1.2158
 3550TIP3    H232142   3.046   6.100   3.541 -2.9623  1.4119 -0.5069
 3551TIP3   OH232143   6.522   5.099   0.552  0.0625  0.6280 -0.0569
 3551TIP3    H132144   6.496   5.171   0.609  0.6779 -0.8811  2.3168
 3551TIP3    H232145   6.548   5.029   0.613  1.4848 -0.8652 -2.2326
 3552TIP3   OH232146   5.230   5.164  15.546  0.7009  0.0923 -0.4357
 3552TIP3    H132147   5.185   5.079  15.549  0.1366  0.3018 -2.0644
 3552TIP3    H232148   5.322   5.142  15.556  0.3924 -0.4562  1.7519
 3553TIP3   OH232149   5.521   4.188   2.937 -0.1052  0.1777 -0.0953
 3553TIP3    H132150   5.453   4.202   2.871  1.6071  0.7947 -1.7843
 3553TIP3    H232151   5.583   4.128   2.897  0.9026  0.4363  1.0083
 3554TIP3   OH232152   2.275   3.323  12.817  0.0032  0.3721 -0.3325
 3554TIP3    H132153   2.257   3.340  12.725  1.2505  1.1612 -0.4522
 3554TIP3    H232154   2.370   3.328  12.825 -0.0545 -0.0911  0.9193
 3555TIP3   OH232155   1.265   5.423   5.803 -0.1794 -0.2245  0.5397
 3555TIP3    H132156   1.185   5.386   5.764  0.8457  0.5951 -2.6120
 3555TIP3    H232157   1.332   5.356   5.790  0.2663  0.1810  0.7128
 3556TIP3   OH232158   1.382   4.297  15.469  0.2503 -0.0009 -0.8162
 3556TIP3    H132159   1.406   4.208  15.494  0.1505  0.5526  1.4664
 3556TIP3    H232160   1.287   4.293  15.456  0.0876 -0.0310  0.2999
 3557TIP3   OH232161   2.003   0.081  14.662 -0.3985  0.2064 -0.2074
 3557TIP3    H132162   1.915   0.045  14.660 -0.9149  1.4443 -1.6020
 3557TIP3    H232163   2.051   0.025  14.723 -2.6220  0.6276  2.0710
 3558TIP3   OH232164   3.499   5.457   3.376  0.6187  0.3127 -0.0845
 3558TIP3    H132165   3.509   5.547   3.406  0.5122 -0.0287  1.0291
 3558TIP3    H232166   3.588   5.429   3.355  0.5984  0.8096 -0.8416
 3559TIP3   OH232167   4.858   3.532   5.788 -0.2984 -0.6191  0.1319
 3559TIP3    H132168   4.889   3.622   5.798 -0.1218 -0.4889 -1.4816
 3559TIP3    H232169   4.924   3.479   5.832 -1.6762  0.1396  3.4398
 3560TIP3   OH232170   2.540   5.946  10.540 -0.8848  0.1874  0.1136
 3560TIP3    H132171   2.449   5.920  10.525 -0.8646 -1.0687  1.7993
 3560TIP3    H232172   2.588   5.863  10.539  0.0065  0.6826  0.6515
 3561TIP3   OH232173   0.054   6.083   2.619  0.4847 -0.1587 -0.3139
 3561TIP3    H132174   0.126   6.024   2.598 -0.1378 -2.5869  3.4088
 3561TIP3    H232175  -0.004   6.077   2.543  2.1697 -1.4806 -1.5859
 3562TIP3   OH232176   4.108   3.099   0.837 -0.5324 -0.4860 -0.4208
 3562TIP3    H132177   4.151   3.021   0.801  1.3162 -1.2791  3.0862
 3562TIP3    H232178   4.031   3.065   0.882  1.2994 -0.8000  2.8066
 3563TIP3   OH232179   4.357   5.267   3.957  0.5087  0.0350 -0.2986
 3563TIP3    H132180   4.346   5.321   4.036  0.8492 -0.5701  0.1655
 3563TIP3    H232181   4.405   5.323   3.897  2.6367 -0.4012  0.9001
 3564TIP3   OH232182   5.742   1.452  16.784 -0.1766 -0.1580  0.3351
 3564TIP3    H132183   5.689   1.531  16.786 -3.8760 -2.3984 -0.6151
 3564TIP3    H232184   5.708   1.402  16.710  2.5809 -2.3296  0.3604
 3565TIP3   OH232185   2.311   5.200  12.778  0.1382 -0.2940  0.1393
 3565TIP3    H132186   2.237   5.221  12.721  0.8487 -1.0421 -1.0927
 3565TIP3    H232187   2.380   5.171  12.719  1.5138  0.5860  1.2339
 3566TIP3   OH232188   2.693   5.934  12.597 -0.4445  0.4434 -0.7261
 3566TIP3    H132189   2.764   5.881  12.563 -0.6247 -0.5431  0.3567
 3566TIP3    H232190   2.714   6.023  12.571  0.4466 -0.0158 -1.6246
 3567TIP3   OH232191   5.155   4.022   3.952  0.8153 -0.1069 -0.5806
 3567TIP3    H132192   5.246   4.050   3.954  0.7124  0.2853 -1.1979
 3567TIP3    H232193   5.106   4.101   3.932  0.6017 -0.8397 -3.4100
 3568TIP3   OH232194   2.061   5.953  16.339 -0.0544 -0.2044 -0.3200
 3568TIP3    H132195   2.018   5.986  16.418  0.4701 -0.5048  0.0962
 3568TIP3    H232196   2.057   6.026  16.277 -0.6643 -0.0419 -0.0949
 3569TIP3   OH232197   3.121   0.254   2.061  0.7195 -0.0611  0.4573
 3569TIP3    H132198   3.050   0.194   2.036  0.5459  0.3487 -0.0539
 3569TIP3    H232199   3.152   0.221   2.145  0.4401 -0.7053  0.3127
 3570TIP3   OH232200   6.819   3.393   2.746  0.2920 -0.2281  0.7044
 3570TIP3    H132201   6.753   3.403   2.815  0.4001 -0.7369  0.8878
 3570TIP3    H232202   6.862   3.310   2.766 -0.3249 -0.8774 -0.5422
 3571TIP3   OH232203   0.928   4.532  13.952  0.2599  0.0230  0.3644
 3571TIP3    H132204   0.926   4.611  14.005 -2.1774 -0.7966  1.6543
 3571TIP3    H232205   0.956   4.463  14.012 -3.3753 -1.0781  1.1006
 3572TIP3   OH232206   3.452   0.553   1.103  0.1155  0.2583 -0.0676
 3572TIP3    H132207   3.386   0.508   1.049  0.4180  0.1227 -0.3313
 3572TIP3    H232208   3.520   0.487   1.115  0.4530  0.5697 -0.2550
 3573TIP3   OH232209   6.649   6.111   5.360 -0.3126  0.4190  0.0138
 3573TIP3    H132210   6.558   6.118   5.388 -0.0980 -0.2490  0.9426
 3573TIP3    H232211   6.697   6.165   5.422  0.2032 -1.2793  1.1680
 3574TIP3   OH232212   2.653   5.498  16.876 -0.7161 -0.2010 -0.2840
 3574TIP3    H132213   2.602   5.499  16.794  0.5542  1.6407 -1.1195
 3574TIP3    H232214   2.588   5.512  16.945 -1.6786 -0.6730 -1.0631
 3575TIP3   OH232215   4.229   5.990  14.602 -0.1343 -0.0593  0.9142
 3575TIP3    H132216   4.174   6.036  14.538 -0.9371 -1.3227  0.6710
 3575TIP3    H232217   4.313   6.036  14.598 -0.5370  0.6304 -0.1791
 3576TIP3   OH232218   5.983   1.581  11.617  0.2080 -0.3943  0.7534
 3576TIP3    H132219   5.943   1.495  11.605 -0.9640  0.4149 -1.6889
 3576TIP3    H232220   6.050   1.585  11.549 -0.5417  1.0622  0.0864
 3577TIP3   OH232221   4.385   5.985  13.494  0.1758  0.0812  0.1096
 3577TIP3    H132222   4.449   5.978  13.423 -0.8586  2.7242 -1.2359
 3577TIP3    H232223   4.326   5.911  13.480  0.2328  0.3188 -1.5915
 3578TIP3   OH232224   3.325   5.769   0.698 -0.1286 -0.3920  0.5413
 3578TIP3    H132225   3.253   5.818   0.659 -0.3641 -1.1392  0.0088
 3578TIP3    H232226   3.283   5.697   0.745  0.1499  0.4742  2.1800
 3579TIP3   OH232227   3.287   5.595   0.100  0.5852 -0.2498  0.7009
 3579TIP3    H132228   3.303   5.605   0.194 -1.9667 -0.6804  1.2578
 3579TIP3    H232229   3.251   5.507   0.091 -1.3506  0.5715 -0.2810
 3580TIP3   OH232230   3.092   3.373   5.241  0.3135 -0.2520  0.0137
 3580TIP3    H132231   3.085   3.451   5.187 -0.9267 -1.5164 -1.7406
 3580TIP3    H232232   3.093   3.406   5.331 -1.0991  1.7303 -0.6500
 3581TIP3   OH232233   1.833   6.311  16.449 -0.5074  0.5608  0.3127
 3581TIP3    H132234   1.860   6.330  16.359  2.5584  0.7875  1.1808
 3581TIP3    H232235   1.893   6.362  16.504 -2.1033  0.2095  2.5349
 3582TIP3   OH232236   3.532   0.665   3.095 -0.7453 -0.1058  0.0032
 3582TIP3    H132237   3.619   0.667   3.056 -0.3685 -0.5849  0.8003
 3582TIP3    H232238   3.529   0.582   3.144 -0.9535  0.7752  1.5412
 3583TIP3   OH232239   6.719   4.964   5.821  0.1269  0.1190  0.0616
 3583TIP3    H132240   6.699   5.057   5.830  0.5850  0.4229 -1.6259
 3583TIP3    H232241   6.804   4.953   5.864  0.3423  0.6202 -0.2287
 3584TIP3   OH232242   5.933   2.288  15.096  0.0789 -0.0784  0.0614
 3584TIP3    H132243   5.866   2.356  15.101  0.4521  0.3315 -0.3823
 3584TIP3    H232244   5.973   2.288  15.183  0.4631  0.6768 -0.1103
 3585TIP3   OH232245   3.346   4.461   2.361 -0.2441  0.1554 -0.3957
 3585TIP3    H132246   3.306   4.507   2.287 -0.5091 -1.4454 -1.2783
 3585TIP3    H232247   3.303   4.375   2.362 -2.2727  0.9671  3.2685
 3586TIP3   OH232248   0.474   6.302  12.227 -0.1390 -0.2676  0.3384
 3586TIP3    H132249   0.566   6.279  12.240  0.2438  0.8787 -0.2784
 3586TIP3    H232250   0.450   6.258  12.146 -0.2306 -0.7972  0.6442
 3587TIP3   OH232251   4.106   1.372   1.722 -0.0528  0.6005  1.0157
 3587TIP3    H132252   4.164   1.300   1.700 -0.6934  0.5349 -0.6143
 3587TIP3    H232253   4.141   1.447   1.675 -1.5923  0.4094 -0.5644
 3588TIP3   OH232254   4.608   0.087   5.102  1.3272  0.5400  0.2244
 3588TIP3    H132255   4.607   0.000   5.144  0.6173  0.0677 -0.7379
 3588TIP3    H232256   4.568   0.145   5.167 -1.0811 -0.4475 -0.2605
 3589TIP3   OH232257   4.987   0.788  15.706 -0.0316 -0.0208 -0.4733
 3589TIP3    H132258   5.077   0.819  15.696  0.4125 -1.1127 -0.1076
 3589TIP3    H232259   4.973   0.786  15.801 -0.7549  0.9583 -0.5484
 3590TIP3   OH232260   1.919   4.033  15.463  0.3214  0.0470 -0.4648
 3590TIP3    H132261   2.006   4.069  15.480  0.8589 -0.4155 -2.1023
 3590TIP3    H232262   1.889   4.002  15.549  2.2748 -0.8545 -0.0666
 3591TIP3   OH232263   5.151   3.535  14.662 -0.5187  0.3204  0.9370
 3591TIP3    H132264   5.204   3.535  14.583 -1.8944  0.8360 -0.0226
 3591TIP3    H232265   5.162   3.622  14.699  1.3419 -0.3987  2.2080
 3592TIP3   OH232266   4.070   3.764  16.486 -0.2263  0.6247 -0.5357
 3592TIP3    H132267   3.983   3.767  16.527 -0.0863 -0.0380 -0.1879
 3592TIP3    H232268   4.082   3.672  16.463  1.7948  0.0015  2.4759
 3593TIP3   OH232269   6.416   4.964   4.052 -0.0060  0.2108  0.0680
 3593TIP3    H132270   6.453   4.895   3.998  1.0206 -0.0213  1.0260
 3593TIP3    H232271   6.330   4.931   4.079  0.3257 -0.5376  0.2214
 3594TIP3   OH232272   5.755   1.241   5.341 -0.4006  0.4816  0.1799
 3594TIP3    H132273   5.784   1.210   5.255 -1.8901  0.5128 -0.3747
 3594TIP3    H232274   5.831   1.231   5.398  0.2678 -0.6480 -0.8691
 3595TIP3   OH232275   3.456   5.587  15.021  0.1676 -0.5988  0.4628
 3595TIP3    H132276   3.417   5.671  14.997  0.8502 -0.8412 -1.6776
 3595TIP3    H232277   3.450   5.585  15.117  1.4440  2.5383  0.7288
 3596TIP3   OH232278   5.522   3.733   1.932 -0.0284  0.1136 -0.2331
 3596TIP3    H132279   5.615   3.710   1.938 -0.3249 -0.8275  1.3063
 3596TIP3    H232280   5.517   3.822   1.966  0.5110  0.8231 -1.9183
 3597TIP3   OH232281   3.937   6.381   6.169 -0.1486  0.5942 -0.4215
 3597TIP3    H132282   3.892   6.299   6.186 -2.2821  1.6698 -0.5305
 3597TIP3    H232283   3.988   6.398   6.248 -1.6271  0.3419  0.6244
 3598TIP3   OH232284   4.144   6.341  11.199 -0.4269 -0.1527  0.4215
 3598TIP3    H132285   4.142   6.421  11.251  0.6372  0.4820 -0.4709
 3598TIP3    H232286   4.085   6.358  11.126 -0.7251 -0.4501  0.5901
 3599TIP3   OH232287   0.729   4.455  15.849  0.6894 -0.4124 -0.8908
 3599TIP3    H132288   0.659   4.506  15.890  0.4663 -0.1138 -1.6329
 3599TIP3    H232289   0.683   4.386  15.801  0.9444 -0.6763 -0.7594
 3600TIP3   OH232290   3.278   3.116  10.965  0.1024  0.2472  0.4369
 3600TIP3    H132291   3.214   3.116  10.894  1.0517 -0.9196 -0.4566
 3600TIP3    H232292   3.363   3.110  10.922  0.6636 -1.6319  1.6440
 3601TIP3   OH232293   6.319   5.450   0.226  0.7760  0.5390  0.5219
 3601TIP3    H132294   6.365   5.458   0.142  0.1530  0.2164  0.1409
 3601TIP3    H232295   6.387   5.420   0.287  0.6468 -2.2002 -0.5212
 3602TIP3   OH232296   6.077   6.462  11.692  0.2602 -0.2228 -0.0682
 3602TIP3    H132297   6.164   6.426  11.711  0.6599 -0.6138 -2.3613
 3602TIP3    H232298   6.082   6.490  11.601 -2.5194 -1.8468 -0.8280
 3603TIP3   OH232299   0.338   4.194  11.250 -0.2710 -0.5972 -0.1138
 3603TIP3    H132300   0.371   4.257  11.315  1.5021 -0.3772 -1.1640
 3603TIP3    H232301   0.300   4.124  11.303 -0.1620  0.2370  1.1338
 3604TIP3   OH232302   5.746   0.052  14.381  0.3493 -0.4431  0.1281
 3604TIP3    H132303   5.823   0.104  14.357 -0.5369  0.8763  0.0031
 3604TIP3    H232304   5.776  -0.003  14.453  1.7457 -0.9339 -0.7870
 3605TIP3   OH232305   2.231   5.376   5.335 -0.4721 -0.1009 -0.4637
 3605TIP3    H132306   2.267   5.309   5.393  0.9856  1.9941  1.1974
 3605TIP3    H232307   2.196   5.443   5.394 -1.9954  0.5857 -2.0502
 3606TIP3   OH232308   6.274   2.696  16.897 -0.1797  1.1161  0.5039
 3606TIP3    H132309   6.189   2.680  16.855  0.3014 -0.4906  0.1088
 3606TIP3    H232310   6.253   2.752  16.972 -1.7982 -0.3876  1.2302
 3607TIP3   OH232311   0.955   3.741   4.711  0.3145  0.4289 -0.0067
 3607TIP3    H132312   0.967   3.835   4.696 -1.6753  1.3071  2.8808
 3607TIP3    H232313   1.037   3.711   4.749  0.6340  1.2599 -0.0317
 3608TIP3   OH232314   0.557   6.321  11.918  0.0237 -0.4169  0.0036
 3608TIP3    H132315   0.462   6.326  11.913 -0.1299 -1.7684  0.9315
 3608TIP3    H232316   0.588   6.381  11.851 -1.4341  2.5406  1.7582
 3609TIP3   OH232317   5.801   1.721   3.727 -0.4885  0.0249 -0.1027
 3609TIP3    H132318   5.741   1.745   3.797  0.2164  0.7166  0.2805
 3609TIP3    H232319   5.870   1.787   3.731  0.1630 -0.6012 -0.6999
 3610TIP3   OH232320   1.449   2.812  15.282 -0.1617  0.7941  0.1207
 3610TIP3    H132321   1.445   2.881  15.216  0.0777  2.3852  1.7068
 3610TIP3    H232322   1.359   2.783  15.292 -0.1880  0.4726 -0.9476
 3611TIP3   OH232323   5.061   4.254   3.684  0.0574  0.2246  0.1374
 3611TIP3    H132324   5.125   4.320   3.709 -0.3941  0.7516 -0.0830
 3611TIP3    H232325   5.010   4.238   3.764 -0.1598  0.5176  0.0591
 3612TIP3   OH232326   4.949   4.544   3.975 -0.3752  0.1229 -0.0464
 3612TIP3    H132327   4.868   4.546   4.027  0.4681 -0.7629  1.3878
 3612TIP3    H232328   4.949   4.627   3.928 -1.6475  0.5685  0.6740
 3613TIP3   OH232329   1.093   3.300  15.874  0.2575 -0.6946 -0.2343
 3613TIP3    H132330   1.046   3.267  15.951 -0.5031 -0.8451 -0.7560
 3613TIP3    H232331   1.025   3.343  15.821  0.9244  0.1664 -0.4130
 3614TIP3   OH232332   6.686   4.341   4.421  0.1394 -0.0101 -0.3481
 3614TIP3    H132333   6.779   4.358   4.434  0.0745 -1.2357  2.4450
 3614TIP3    H232334   6.652   4.323   4.508 -2.6957  0.0824 -1.3043
 3615TIP3   OH232335   2.116   5.765  11.997  0.5084 -0.4887 -0.2283
 3615TIP3    H132336   2.150   5.680  12.023  0.2897  0.0823  2.1999
 3615TIP3    H232337   2.039   5.778  12.052 -0.4908  0.5586 -1.7808
 3616TIP3   OH232338   1.204   4.941  16.146  0.1163  0.1279 -0.0880
 3616TIP3    H132339   1.236   4.993  16.220 -1.1793 -0.2740  0.7733
 3616TIP3    H232340   1.218   4.850  16.173 -0.1522 -0.0218 -0.4488
 3617TIP3   OH232341   5.805   5.970   1.049 -0.1374  0.0854  0.5579
 3617TIP3    H132342   5.789   6.062   1.069  1.5689 -0.0752  3.0548
 3617TIP3    H232343   5.728   5.924   1.083 -0.5192  0.4976  0.2497
 3618TIP3   OH232344   1.162   2.056  15.049  0.2789 -0.1171 -0.1688
 3618TIP3    H132345   1.231   1.992  15.030 -1.1665 -1.5759 -0.8009
 3618TIP3    H232346   1.110   2.015  15.118 -1.6661 -0.4782 -1.7371
 3619TIP3   OH232347   3.218   6.224   5.127 -0.6817 -0.2576  0.0816
 3619TIP3    H132348   3.156   6.201   5.196 -2.6109 -0.7674 -1.7440
 3619TIP3    H232349   3.247   6.140   5.092  0.9724 -0.0250  0.7651
 3620TIP3   OH232350   3.680   4.175   3.699 -0.5211 -0.2454 -0.1580
 3620TIP3    H132351   3.615   4.205   3.635 -1.0804  0.7289  0.8368
 3620TIP3    H232352   3.761   4.219   3.673 -0.5593 -0.4386 -0.6209
 3621TIP3   OH232353   3.482   1.706  16.891  0.2571  0.2385  0.0158
 3621TIP3    H132354   3.455   1.678  16.979 -1.4919  0.1285 -0.5204
 3621TIP3    H232355   3.460   1.632  16.834 -0.2537  0.9605 -0.7538
 3622TIP3   OH232356   4.414   2.762  14.790  0.1717 -0.4947 -0.7972
 3622TIP3    H132357   4.487   2.808  14.831  0.5956 -1.0851 -0.8803
 3622TIP3    H232358   4.338   2.786  14.843  0.4513 -0.0187 -0.6025
 3623TIP3   OH232359   3.121   5.045   1.310 -0.5702  0.3383 -0.4752
 3623TIP3    H132360   3.202   5.041   1.258 -1.0741  0.2201 -1.2580
 3623TIP3    H232361   3.085   4.957   1.305  0.7468 -0.4654  2.3343
 3624TIP3   OH232362   0.081   1.039  13.360 -0.9261  0.4638  0.2399
 3624TIP3    H132363   0.160   0.988  13.343 -0.6626  0.4936  1.3108
 3624TIP3    H232364   0.086   1.112  13.298 -1.2129 -0.6706 -1.1827
 3625TIP3   OH232365   3.562   6.351  13.258  0.3311  0.1110  0.5045
 3625TIP3    H132366   3.577   6.283  13.323 -0.6908 -1.0834 -0.4670
 3625TIP3    H232367   3.474   6.333  13.223  1.0501  0.3320 -1.6051
 3626TIP3   OH232368   1.613   2.963   4.820  0.2146  0.0725 -0.1649
 3626TIP3    H132369   1.604   2.985   4.727 -0.5828  0.2969 -0.0393
 3626TIP3    H232370   1.641   3.045   4.861  1.0611 -0.1484 -0.2661
 3627TIP3   OH232371   2.704   3.362  11.859 -0.1307  0.5619 -0.2901
 3627TIP3    H132372   2.707   3.277  11.904 -1.6424 -0.8341 -2.6256
 3627TIP3    H232373   2.789   3.369  11.816 -0.2088 -0.0813 -0.5640
 3628TIP3   OH232374   1.627   1.659  11.925  0.3066 -0.0744  0.2425
 3628TIP3    H132375   1.675   1.731  11.883  0.3133 -0.2744 -0.1001
 3628TIP3    H232376   1.685   1.583  11.914  0.9329  0.1472  1.8237
 3629TIP3   OH232377   1.669   2.908   2.096  0.0062 -0.1250 -0.1376
 3629TIP3    H132378   1.674   2.948   2.182  0.9671  1.6926 -0.9703
 3629TIP3    H232379   1.578   2.880   2.087 -0.9162  2.4466  0.3190
 3630TIP3   OH232380   2.254   5.652  12.434 -0.4297  0.3985 -0.0427
 3630TIP3    H132381   2.179   5.709  12.417 -0.2801  0.8839  0.8686
 3630TIP3    H232382   2.329   5.711  12.438  0.6943 -0.3761 -4.5404
 3631TIP3   OH232383   5.472   5.654   1.958 -0.1996  0.6406 -0.0599
 3631TIP3    H132384   5.425   5.640   2.040  2.5479  0.3628  1.6128
 3631TIP3    H232385   5.466   5.569   1.913  0.1094  0.0685  0.9317
 3632TIP3   OH232386   6.092   3.943  10.955  0.0853  0.4334 -0.9050
 3632TIP3    H132387   6.160   3.914  10.895  0.1544 -4.6132  1.1493
 3632TIP3    H232388   6.011   3.908  10.918 -0.1935 -0.5471  0.5251
 3633TIP3   OH232389   2.258   6.657  10.726  0.0835 -0.0832 -0.4563
 3633TIP3    H132390   2.308   6.629  10.649  1.8388 -0.8754  0.9159
 3633TIP3    H232391   2.323   6.666  10.795 -1.3771  1.1723  0.8116
 3634TIP3   OH232392   2.384   3.471  15.129 -0.1336  0.7790  0.0404
 3634TIP3    H132393   2.383   3.382  15.095  0.6637  0.9020 -0.3284
 3634TIP3    H232394   2.295   3.503  15.115 -0.5387 -0.0813  0.5226
 3635TIP3   OH232395   4.006   6.127   5.172 -0.1779 -0.3397 -0.2803
 3635TIP3    H132396   4.066   6.195   5.139 -1.5439  1.2534  0.3884
 3635TIP3    H232397   3.947   6.110   5.099  0.6087 -1.4027 -0.7004
 3636TIP3   OH232398   0.094   1.144  14.199  0.2111 -0.7270  0.9380
 3636TIP3    H132399   0.011   1.191  14.191  0.9247  0.3732 -0.4132
 3636TIP3    H232400   0.114   1.146  14.293 -0.4053  0.6060  1.0682
 3637TIP3   OH232401   4.936   6.823   1.847  1.0513 -0.2305 -0.4964
 3637TIP3    H132402   4.870   6.881   1.886  0.3238 -0.2891 -1.5938
 3637TIP3    H232403   5.020   6.859   1.876  0.5922  0.9320 -0.5458
 3638TIP3   OH232404   0.240   5.127   2.105  0.6408 -1.1804 -0.1617
 3638TIP3    H132405   0.148   5.138   2.131  1.1532  0.5014  1.0549
 3638TIP3    H232406   0.276   5.065   2.167  1.6199  2.1292  2.9093
 3639TIP3   OH232407   3.343   1.956  17.080  0.3963  0.1556  0.6122
 3639TIP3    H132408   3.325   1.967  16.986 -0.0937 -1.4346  0.4963
 3639TIP3    H232409   3.341   2.045  17.115 -2.1234  0.5748 -0.3999
 3640TIP3   OH232410   2.455   0.025  15.883  0.2142 -0.1068 -0.0789
 3640TIP3    H132411   2.423   0.007  15.972  2.3624  0.0148  0.7648
 3640TIP3    H232412   2.512  -0.049  15.862 -0.2270 -0.1115 -1.3628
 3641TIP3   OH232413   4.684   4.347   2.331  0.6958  0.2867  0.9384
 3641TIP3    H132414   4.673   4.263   2.285  0.9428 -0.8156  2.7921
 3641TIP3    H232415   4.778   4.352   2.349  0.7463  1.1897  0.4823
 3642TIP3   OH232416   3.690   1.870   1.600  0.2239 -0.0099  0.4931
 3642TIP3    H132417   3.732   1.812   1.537 -0.4186  0.6579 -0.5900
 3642TIP3    H232418   3.626   1.815   1.645  1.7042 -0.8563  1.6580
 3643TIP3   OH232419   3.714   3.677   1.641  1.0418 -0.3318 -0.4119
 3643TIP3    H132420   3.782   3.741   1.621 -0.2235  1.1175 -0.2411
 3643TIP3    H232421   3.724   3.661   1.735  1.9792 -1.1696 -0.6320
 3644TIP3   OH232422   4.259   3.874   3.207  0.1660  0.4244 -0.2031
 3644TIP3    H132423   4.175   3.895   3.249 -1.8444 -0.7869 -3.2544
 3644TIP3    H232424   4.263   3.933   3.131  3.0089  1.6531  0.7564
 3645TIP3   OH232425   6.807   4.137   6.055 -0.2485  0.2539  0.9590
 3645TIP3    H132426   6.742   4.096   5.998  0.9548 -1.1407  0.5236
 3645TIP3    H232427   6.765   4.141   6.140 -0.6667 -1.3758  0.8770
 3646TIP3   OH232428   3.404   5.801   5.708 -0.0426  1.2440  0.3301
 3646TIP3    H132429   3.378   5.739   5.641  4.7991  0.4901 -1.2765
 3646TIP3    H232430   3.371   5.886   5.678 -1.5051  0.3224 -0.7464
 3647TIP3   OH232431   5.348   6.627   1.913  0.0239  0.2583  0.4705
 3647TIP3    H132432   5.378   6.668   1.994  1.3397  0.3851 -0.0711
 3647TIP3    H232433   5.426   6.588   1.874 -0.9994 -2.0315  0.5041
 3648TIP3   OH232434   4.346   3.403   2.589 -0.3379  0.4127  0.4184
 3648TIP3    H132435   4.382   3.341   2.653 -1.8800  0.8656  1.7825
 3648TIP3    H232436   4.259   3.424   2.622  0.0360  3.1680 -0.0880
 3649TIP3   OH232437   4.790   2.617  16.628 -0.2886  0.5231  0.0391
 3649TIP3    H132438   4.696   2.633  16.620 -0.1079  2.4756  1.1819
 3649TIP3    H232439   4.798   2.522  16.637 -1.8192 -0.1057 -3.6118
 3650TIP3   OH232440   5.004   5.030  16.482 -0.1582 -0.1558  0.1784
 3650TIP3    H132441   5.086   5.008  16.526  0.7669  0.1147 -1.3198
 3650TIP3    H232442   4.945   4.959  16.503  1.1371 -1.4439 -0.3846
 3651TIP3   OH232443   2.302   2.669  15.744 -0.2994 -0.5759  0.1385
 3651TIP3    H132444   2.310   2.764  15.745 -0.4633 -0.3699 -3.5484
 3651TIP3    H232445   2.212   2.652  15.772 -0.1912  0.2864  1.0702
 3652TIP3   OH232446   1.202   1.769   6.496  0.7558  0.0293  0.0746
 3652TIP3    H132447   1.213   1.755   6.590  1.4213 -2.6012 -0.3115
 3652TIP3    H232448   1.285   1.740   6.458  0.4045  0.8084 -1.3445
 3653TIP3   OH232449   3.373   2.286  12.810 -0.0406  0.2160 -0.1770
 3653TIP3    H132450   3.321   2.245  12.741 -0.8689  1.7712 -0.5308
 3653TIP3    H232451   3.449   2.322  12.764 -0.3985  0.9151 -0.2374
 3654TIP3   OH232452   0.144   5.478  15.972  0.0979  1.0927  0.4283
 3654TIP3    H132453   0.233   5.482  15.938 -0.0862  0.2653 -0.1964
 3654TIP3    H232454   0.140   5.396  16.021 -0.0023  1.6770  1.4197
 3655TIP3   OH232455   5.988   6.551   2.079  0.0620  0.6461 -0.5468
 3655TIP3    H132456   5.985   6.478   2.017 -1.6017  0.4448 -0.2806
 3655TIP3    H232457   6.080   6.556   2.106  0.1721 -1.5919 -0.3044
 3656TIP3   OH232458   6.169   0.327  13.851  0.3296 -0.0936  0.7622
 3656TIP3    H132459   6.204   0.408  13.888 -0.8756  0.7476  0.1221
 3656TIP3    H232460   6.236   0.296  13.791  0.2120  1.1975 -0.0483
 3657TIP3   OH232461   1.873   5.813  16.831  0.5109 -0.2009 -0.3284
 3657TIP3    H132462   1.873   5.905  16.859 -0.2170 -0.5521  0.8569
 3657TIP3    H232463   1.840   5.816  16.741  1.6193  0.8062 -0.7330
 3658TIP3   OH232464   2.343   1.919  15.873  0.4414 -0.0514 -0.4144
 3658TIP3    H132465   2.372   1.901  15.963 -1.5103 -0.4325  0.1833
 3658TIP3    H232466   2.422   1.908  15.820  1.5215 -0.3507  1.1836
 3659TIP3   OH232467   6.054   2.400   5.251 -0.4049  0.0735  0.1711
 3659TIP3    H132468   6.091   2.349   5.179 -0.2910  1.0430 -0.4719
 3659TIP3    H232469   6.114   2.474   5.261 -0.6591  0.1838  0.9846
 3660TIP3   OH232470   4.030   1.478   2.274 -0.4744  0.5575  0.6343
 3660TIP3    H132471   4.106   1.536   2.278 -1.1390  1.4694  0.3189
 3660TIP3    H232472   4.049   1.419   2.200 -0.1092  0.8284  0.5094
 3661TIP3   OH232473   1.322   2.479   0.821  0.0008 -0.3237  0.5816
 3661TIP3    H132474   1.380   2.482   0.745  0.2363 -0.4323  0.7574
 3661TIP3    H232475   1.359   2.412   0.877  0.5431  0.6179  1.3741
 3662TIP3   OH232476   1.758   1.760   0.820 -0.1235 -0.1349  0.3909
 3662TIP3    H132477   1.798   1.774   0.906  1.6544 -0.9420 -0.2543
 3662TIP3    H232478   1.780   1.838   0.770  1.9074 -1.1519 -0.3859
 3663TIP3   OH232479   1.020   1.500  14.330 -0.1407 -0.4470  0.1554
 3663TIP3    H132480   0.958   1.445  14.378  0.6955 -1.8570 -0.2888
 3663TIP3    H232481   1.106   1.467  14.357  0.4405  1.5551  0.8690
 3664TIP3   OH232482   6.105   5.881  11.327  0.2190  0.0812  0.4681
 3664TIP3    H132483   6.108   5.785  11.327  1.3981  0.0711 -1.2675
 3664TIP3    H232484   6.012   5.902  11.313  0.1301 -0.8404 -0.4247
 3665TIP3   OH232485   0.380   0.168  16.202  0.9308  0.3467 -0.6184
 3665TIP3    H132486   0.416   0.193  16.287  2.3729 -2.2224 -0.3854
 3665TIP3    H232487   0.456   0.138  16.151 -0.2466 -0.6844 -1.8430
 3666TIP3   OH232488   2.101   4.541   0.533 -0.3580 -0.9170 -0.0715
 3666TIP3    H132489   2.007   4.534   0.518 -0.5399 -3.3452  1.5295
 3666TIP3    H232490   2.140   4.533   0.446 -1.5916  2.4601 -1.0644
 3667TIP3   OH232491   1.440   3.983  15.936  0.0234  0.2470 -0.3674
 3667TIP3    H132492   1.433   4.075  15.962 -0.0725  0.0488  0.3115
 3667TIP3    H232493   1.506   3.983  15.866  0.0460  0.8247 -0.3501
 3668TIP3   OH232494   3.305   5.765  14.257 -0.4837  0.2648  0.2604
 3668TIP3    H132495   3.258   5.720  14.328 -1.9242  0.5485 -0.4761
 3668TIP3    H232496   3.236   5.794  14.197  0.5152  2.2117 -0.0199
 3669TIP3   OH232497   2.084   2.033  15.481  0.1326  0.1303 -0.1631
 3669TIP3    H132498   2.064   2.124  15.458  0.2530  0.0150 -0.7389
 3669TIP3    H232499   2.002   1.986  15.468  0.2772  0.0100 -0.6569
 3670TIP3   OH232500   2.901   3.072  10.994 -0.3471  0.5895 -0.2112
 3670TIP3    H132501   2.895   3.086  11.089  0.2771  2.6133 -0.4231
 3670TIP3    H232502   2.867   2.983  10.981 -1.4089  0.6351  1.7804
 3671TIP3   OH232503   6.286   6.466  14.810 -0.0932  0.4132  0.3188
 3671TIP3    H132504   6.305   6.487  14.719 -1.8802  2.0564  0.2536
 3671TIP3    H232505   6.275   6.551  14.853 -1.2402 -0.3283  1.6018
 3672TIP3   OH232506   3.536   4.044   5.277 -0.0364  0.3376 -0.7332
 3672TIP3    H132507   3.476   4.082   5.213  0.2348 -0.2494 -1.3517
 3672TIP3    H232508   3.565   3.962   5.237 -0.7086 -0.5985  0.6239
 3673TIP3   OH232509   0.150   3.575  14.326  0.4696  0.3022  0.0829
 3673TIP3    H132510   0.207   3.620  14.388  1.7342 -0.5958 -0.3957
 3673TIP3    H232511   0.077   3.635  14.312  1.2907  1.4681  0.7181
 3674TIP3   OH232512   0.996   0.119   6.349  0.1648 -0.4261 -0.3083
 3674TIP3    H132513   0.955   0.049   6.400 -1.2740 -0.3013 -1.2340
 3674TIP3    H232514   0.959   0.109   6.261 -0.1609  1.5536 -0.4312
 3675TIP3   OH232515   2.290   1.694  16.219 -0.2158  0.1870  0.4271
 3675TIP3    H132516   2.208   1.722  16.259 -0.7152 -0.0883 -0.3739
 3675TIP3    H232517   2.332   1.776  16.191  0.2888  0.4023  1.7648
 3676TIP3   OH232518   2.259   4.015  14.071  0.4877 -0.0456 -0.0220
 3676TIP3    H132519   2.324   3.990  14.137  1.4850  1.3325 -0.4468
 3676TIP3    H232520   2.182   4.041  14.121  0.9154  0.1024  0.5691
 3677TIP3   OH232521   3.490   2.602  15.076 -0.3219 -0.3059  0.1486
 3677TIP3    H132522   3.480   2.606  15.171 -2.5277  0.0236 -0.0603
 3677TIP3    H232523   3.504   2.693  15.049  2.9654 -0.6452  0.3334
 3678TIP3   OH232524   0.276   4.788   3.028  0.1208 -0.3951  0.3789
 3678TIP3    H132525   0.343   4.741   2.979 -0.2053  0.2815 -0.7629
 3678TIP3    H232526   0.196   4.775   2.977 -0.3364 -0.0857  1.0053
 3679TIP3   OH232527   6.816   0.086  16.716 -0.0809  0.7675  0.2659
 3679TIP3    H132528   6.747   0.034  16.677  0.0089  0.4340  0.5526
 3679TIP3    H232529   6.861   0.126  16.641  2.2493 -2.5237 -0.2681
 3680TIP3   OH232530   4.124   2.371  14.000 -0.0624 -0.2135 -0.4607
 3680TIP3    H132531   4.162   2.285  14.017 -0.8532 -0.4233  0.3188
 3680TIP3    H232532   4.082   2.395  14.083  1.6393  1.7112 -0.0697
 3681TIP3   OH232533   0.811   4.383  16.864  0.4693  0.5333 -0.4503
 3681TIP3    H132534   0.787   4.464  16.910  1.5309 -0.6017  2.3488
 3681TIP3    H232535   0.761   4.314  16.909  1.3064 -0.6295 -1.2322
 3682TIP3   OH232536   4.734   6.448   4.545 -0.1250 -0.2021  0.1621
 3682TIP3    H132537   4.808   6.495   4.584  1.1869  0.1523 -2.5284
 3682TIP3    H232538   4.775   6.377   4.495 -1.5978 -0.1014 -1.2515
 3683TIP3   OH232539   3.864   0.673  15.620  0.0372  0.7931 -0.6164
 3683TIP3    H132540   3.851   0.579  15.636 -1.2384  0.2985 -3.8472
 3683TIP3    H232541   3.793   0.715  15.668  0.7150  0.1927  1.0023
 3684TIP3   OH232542   4.810   0.050   0.610 -0.1543 -0.4867 -0.4753
 3684TIP3    H132543   4.764   0.038   0.693 -2.5220  0.9850 -1.4478
 3684TIP3    H232544   4.892   0.093   0.633 -0.4529 -0.7215  1.1403
 3685TIP3   OH232545   4.345   6.575   3.647  0.5561  0.0154 -0.0423
 3685TIP3    H132546   4.378   6.485   3.643  1.6057  0.3424  1.0084
 3685TIP3    H232547   4.259   6.566   3.688  0.8738 -0.4681  0.5501
 3686TIP3   OH232548   1.285   1.375   1.745 -1.0359  0.0616 -0.3850
 3686TIP3    H132549   1.285   1.353   1.652 -2.1026 -1.6471 -0.0148
 3686TIP3    H232550   1.194   1.394   1.765 -0.6316  1.6757  0.0709
 3687TIP3   OH232551   5.606   2.053  17.017 -0.2115  0.3091  0.4146
 3687TIP3    H132552   5.552   2.015  16.947 -0.1371 -0.3432  0.7037
 3687TIP3    H232553   5.677   1.990  17.030  0.8309  1.3116 -0.1878
 3688TIP3   OH232554   3.946   4.723  12.107  0.5333  0.4308  0.7822
 3688TIP3    H132555   3.989   4.762  12.184 -0.7437 -0.0043  1.7629
 3688TIP3    H232556   3.884   4.660  12.144 -1.0902  1.1792 -0.5241
 3689TIP3   OH232557   5.032   6.232  15.983 -0.5692  0.1104  0.6327
 3689TIP3    H132558   5.080   6.304  15.942  0.1848  0.4733  2.0979
 3689TIP3    H232559   4.968   6.275  16.040 -2.4034 -0.3678 -0.9387
 3690TIP3   OH232560   2.484   4.972   5.819  0.0158  0.3243  0.4904
 3690TIP3    H132561   2.500   4.890   5.866  0.5195  0.2772  0.2444
 3690TIP3    H232562   2.392   4.968   5.794  0.0903 -0.2727  0.2854
 3691TIP3   OH232563   3.877   4.326  16.850 -0.0364  0.1598 -0.2249
 3691TIP3    H132564   3.865   4.405  16.902  2.3380  0.2874  0.2421
 3691TIP3    H232565   3.850   4.351  16.761 -1.7012  0.7059  0.4133
 3692TIP3   OH232566   6.764   2.643   2.595  0.2260 -1.0658 -0.0887
 3692TIP3    H132567   6.733   2.675   2.511  0.1094 -1.7465 -0.3170
 3692TIP3    H232568   6.690   2.656   2.655 -1.2478 -4.1861 -0.9865
 3693TIP3   OH232569   2.513   0.265   1.752  0.6122  0.2279 -0.3049
 3693TIP3    H132570   2.601   0.279   1.787  1.9219 -1.5574 -2.5941
 3693TIP3    H232571   2.509   0.323   1.676  0.2458 -0.5063 -0.8504
 3694TIP3   OH232572   6.137   5.265  14.169  0.1215 -0.0307 -0.8266
 3694TIP3    H132573   6.137   5.359  14.153 -3.3792 -0.0520 -1.8278
 3694TIP3    H232574   6.099   5.227  14.090  0.0732 -2.1531  0.1317
 3695TIP3   OH232575   0.773   2.363   0.851 -0.5668  0.8031  0.4052
 3695TIP3    H132576   0.721   2.297   0.897 -0.6043  1.9571  2.0848
 3695TIP3    H232577   0.862   2.328   0.852 -0.9884 -0.4238 -1.0643
 3696TIP3   OH232578   5.995   3.620  13.406 -0.3204  0.0450  0.1087
 3696TIP3    H132579   6.001   3.707  13.446  2.0377  0.0329 -0.0878
 3696TIP3    H232580   6.060   3.567  13.452  0.4294 -0.7526 -1.7513
 3697TIP3   OH232581   4.413   1.149  12.957  0.0459 -0.2346 -0.1029
 3697TIP3    H132582   4.392   1.233  12.916  1.5057 -0.3295 -1.0887
 3697TIP3    H232583   4.494   1.121  12.915 -1.7655 -3.4893 -1.8293
 3698TIP3   OH232584   0.037   1.497   1.345 -0.3208  0.1282  0.3523
 3698TIP3    H132585   0.121   1.543   1.341 -1.7597  2.9610  0.2288
 3698TIP3    H232586   0.012   1.485   1.253 -0.0582 -0.7502  0.3877
 3699TIP3   OH232587   3.442   1.959  12.913  0.3858 -0.2752 -0.6795
 3699TIP3    H132588   3.460   1.889  12.851 -0.6730 -0.7147 -0.5087
 3699TIP3    H232589   3.509   2.025  12.894  1.3537 -1.2833 -0.8840
 3700TIP3   OH232590   5.483   0.258   4.054  0.6413 -0.3742 -0.2736
 3700TIP3    H132591   5.480   0.259   3.958 -0.0153  1.0161 -0.2614
 3700TIP3    H232592   5.537   0.182   4.075  0.7003 -0.7761 -1.7404
 3701TIP3   OH232593   6.511   6.793  14.129  0.4150  0.3778 -0.5361
 3701TIP3    H132594   6.467   6.877  14.138  1.4018  0.8729 -0.1070
 3701TIP3    H232595   6.588   6.800  14.185  0.8462 -0.5865 -0.9751
 3702TIP3   OH232596   2.082   2.260  13.820 -0.6544  0.5136  0.1949
 3702TIP3    H132597   2.104   2.352  13.802  0.0371  0.3360  0.1063
 3702TIP3    H232598   2.167   2.217  13.831 -0.7649 -0.7949 -3.0973
 3703TIP3   OH232599   4.602   5.839   0.812 -0.5013  0.2873 -0.4049
 3703TIP3    H132600   4.636   5.787   0.885  1.8494 -1.1376 -2.3553
 3703TIP3    H232601   4.606   5.929   0.843  1.0834 -0.2108  1.0032
 3704TIP3   OH232602   6.661   2.063  12.521  0.7232  0.2545  0.2491
 3704TIP3    H132603   6.613   2.049  12.440  1.9866  1.4578 -0.7485
 3704TIP3    H232604   6.604   2.118  12.574  1.0017  1.7532 -0.9549
 3705TIP3   OH232605   4.195   5.951  16.973  0.2817 -0.3390  0.3764
 3705TIP3    H132606   4.214   5.904  16.891 -1.0181  1.0781 -0.8010
 3705TIP3    H232607   4.234   5.896  17.041  1.5951 -1.4676 -1.1914
 3706TIP3   OH232608   4.745   1.227   0.256  0.5197  0.6987  0.3157
 3706TIP3    H132609   4.687   1.288   0.212 -0.6750 -1.5832 -1.5364
 3706TIP3    H232610   4.689   1.151   0.276  1.6652  0.5254  3.4268
 3707TIP3   OH232611   1.261   1.482  11.297 -0.6815  0.0995  1.2934
 3707TIP3    H132612   1.290   1.482  11.205  0.6019 -1.4629  1.6325
 3707TIP3    H232613   1.285   1.568  11.330 -0.3604  0.3760  0.3774
 3708TIP3   OH232614   1.957   3.854  15.252  0.4598  0.6500  0.2394
 3708TIP3    H132615   1.943   3.925  15.315  0.2486  0.3098  0.5709
 3708TIP3    H232616   2.018   3.795  15.295  1.2399  1.0117 -0.3411
 3709TIP3   OH232617   3.229   5.539   5.215  0.6931 -0.0913  0.1138
 3709TIP3    H132618   3.218   5.445   5.229 -1.3462 -0.2165 -1.7622
 3709TIP3    H232619   3.224   5.577   5.303 -1.8683 -1.5077  0.6919
 3710TIP3   OH232620   1.529   1.518  13.570 -0.2394  0.4235 -0.1573
 3710TIP3    H132621   1.476   1.478  13.640 -1.5824  1.5593 -0.4758
 3710TIP3    H232622   1.585   1.581  13.616  0.7452 -0.6371  0.1565
 3711TIP3   OH232623   2.902   6.701  14.481 -0.1241  0.3923 -0.2323
 3711TIP3    H132624   2.810   6.708  14.506 -1.3658 -1.1098 -3.7608
 3711TIP3    H232625   2.931   6.791  14.472 -0.0696  1.0341  4.1208
 3712TIP3   OH232626   4.652   4.045  15.195  0.3083  0.3355 -0.2113
 3712TIP3    H132627   4.563   4.010  15.198 -0.0111  1.1240 -0.2918
 3712TIP3    H232628   4.704   3.981  15.244 -0.4919  0.4095  0.7762
 3713TIP3   OH232629   1.567   2.523   4.678 -0.0748 -0.3537  0.0771
 3713TIP3    H132630   1.650   2.545   4.719  1.5253 -3.5174 -1.1518
 3713TIP3    H232631   1.510   2.598   4.698  2.4596  1.1245  2.4936
 3714TIP3   OH232632   2.490   5.538  11.196 -0.0629  0.2294 -0.1224
 3714TIP3    H132633   2.399   5.547  11.170  0.1408  0.4774 -0.7800
 3714TIP3    H232634   2.540   5.562  11.118  0.5757  1.3636  0.6007
 3715TIP3   OH232635   4.066   5.084  14.309 -0.4401  0.5225 -0.1672
 3715TIP3    H132636   4.111   5.006  14.343 -0.5834  0.6814  0.4033
 3715TIP3    H232637   3.983   5.051  14.276 -0.5472  0.4438  0.1753
 3716TIP3   OH232638   0.227   5.807   0.985  0.4055  0.4686  0.4096
 3716TIP3    H132639   0.155   5.820   0.923 -0.4664  0.1842  1.3426
 3716TIP3    H232640   0.300   5.776   0.931 -0.1680  0.7575 -0.5498
 3717TIP3   OH232641   5.334   4.605  14.397  0.4042 -0.4575 -0.1635
 3717TIP3    H132642   5.325   4.670  14.466  0.9120  0.2252 -0.7319
 3717TIP3    H232643   5.283   4.530  14.428 -1.1988  0.6262 -0.0311
 3718TIP3   OH232644   6.618   3.005   2.066  0.4540  0.1080 -0.2638
 3718TIP3    H132645   6.582   2.916   2.067  0.6904  0.0075 -0.4698
 3718TIP3    H232646   6.696   2.998   2.011  1.3592  0.1041  0.9793
 3719TIP3   OH232647   1.314   5.472   4.691  0.3720  0.0918  0.0746
 3719TIP3    H132648   1.233   5.440   4.652 -0.0294 -0.7749  1.5155
 3719TIP3    H232649   1.287   5.548   4.743  0.7968  0.8731 -0.8210
 3720TIP3   OH232650   4.554   2.146  10.283 -0.1418 -0.4768  0.1641
 3720TIP3    H132651   4.549   2.240  10.299  1.7083 -0.3314  0.1314
 3720TIP3    H232652   4.474   2.111  10.321 -1.9031  1.3119 -1.6028
 3721TIP3   OH232653   5.959   3.152   5.870 -0.1508  0.8382 -0.2119
 3721TIP3    H132654   5.961   3.059   5.890 -1.3117  0.9205  0.3232
 3721TIP3    H232655   6.023   3.162   5.799  1.2216 -0.0750  0.8487
 3722TIP3   OH232656   4.145   5.664   5.362 -0.3226  0.0309 -0.3681
 3722TIP3    H132657   4.230   5.621   5.350 -0.2104 -0.5234  2.0273
 3722TIP3    H232658   4.088   5.596   5.397 -0.8940  1.1323  0.9174
 3723TIP3   OH232659   2.992   2.070   1.826 -0.3480 -0.1710 -0.4673
 3723TIP3    H132660   3.023   2.052   1.737  0.9250  0.6217 -0.1981
 3723TIP3    H232661   2.973   2.164   1.826  0.9736  0.1171  0.4659
 3724TIP3   OH232662   3.286   1.932   5.208 -0.4329  0.3279 -0.4740
 3724TIP3    H132663   3.294   2.027   5.215  0.2593  0.2414 -0.0168
 3724TIP3    H232664   3.201   1.912   5.248 -0.3808  0.7129 -0.1670
 3725TIP3   OH232665   1.711   4.520  14.598 -0.4126  0.0161 -0.0462
 3725TIP3    H132666   1.799   4.552  14.578 -0.1042 -1.2000 -0.7462
 3725TIP3    H232667   1.724   4.426  14.615 -1.5757 -0.1762 -0.1900
 3726TIP3   OH232668   4.970   3.367   2.780 -0.1688  0.2983  0.3784
 3726TIP3    H132669   5.005   3.281   2.757  1.5831  0.7225  1.2763
 3726TIP3    H232670   4.988   3.422   2.704  0.9681  0.4378  0.7166
 3727TIP3   OH232671   5.173   1.828   2.042 -0.0714 -0.6546 -0.6866
 3727TIP3    H132672   5.134   1.863   2.122  1.8175 -0.6277  0.2507
 3727TIP3    H232673   5.251   1.782   2.070  1.0786  0.0159 -2.5832
 3728TIP3   OH232674   1.524   5.743   6.472 -0.0801 -0.4097 -0.1345
 3728TIP3    H132675   1.493   5.711   6.556  0.2285 -2.6784 -0.8147
 3728TIP3    H232676   1.505   5.837   6.473 -2.3055 -0.7990  1.4625
 3729TIP3   OH232677   6.662   2.735  12.773  0.4054 -0.4040  0.2422
 3729TIP3    H132678   6.749   2.701  12.751 -0.3648 -1.5010 -1.2832
 3729TIP3    H232679   6.635   2.683  12.849 -0.1625 -2.2912 -1.1868
 3730TIP3   OH232680   1.300   3.899   4.711  0.3956  0.5121  0.3492
 3730TIP3    H132681   1.394   3.906   4.728  0.5961  0.4548 -0.6855
 3730TIP3    H232682   1.294   3.866   4.622 -0.6196  1.1597  0.1620
 3731TIP3   OH232683   1.305   2.426  14.182  0.7662 -0.1088  0.0222
 3731TIP3    H132684   1.231   2.481  14.157  1.6924  1.7869  1.2225
 3731TIP3    H232685   1.382   2.473  14.150  1.6430 -0.1612  1.9340
 3732TIP3   OH232686   1.540   2.742  14.727 -0.3618 -0.2542  0.7574
 3732TIP3    H132687   1.488   2.791  14.663 -0.5802  0.8010  1.7126
 3732TIP3    H232688   1.525   2.650  14.705 -0.7318  0.0799 -0.4606
 3733TIP3   OH232689   3.276   2.565  11.562  0.0671 -0.1812  0.4415
 3733TIP3    H132690   3.346   2.628  11.547  0.3249 -0.0436  2.0581
 3733TIP3    H232691   3.196   2.616  11.558 -0.0643 -0.4469 -2.0869
 3734TIP3   OH232692   5.129   4.711   2.861 -0.0051  0.0833  0.8103
 3734TIP3    H132693   5.076   4.790   2.845 -0.0286  0.2769  1.7634
 3734TIP3    H232694   5.067   4.639   2.852  0.5030 -0.0981 -2.5960
 3735TIP3   OH232695   5.687   1.707   0.793 -0.2442 -0.2227 -0.4397
 3735TIP3    H132696   5.683   1.677   0.702 -0.8890 -2.1112  0.1749
 3735TIP3    H232697   5.749   1.780   0.791  1.0927 -1.3324 -2.0862
 3736TIP3   OH232698   1.356   4.674  11.259  0.8100  0.0677  0.1339
 3736TIP3    H132699   1.382   4.766  11.263 -0.1209  0.3687 -0.5698
 3736TIP3    H232700   1.320   4.656  11.346  1.1394  0.3066  0.3259
 3737TIP3   OH232701   2.710   4.713   2.899  0.5054 -0.1120  0.1939
 3737TIP3    H132702   2.733   4.806   2.891  3.3884 -0.6470  1.1329
 3737TIP3    H232703   2.729   4.676   2.812 -1.2536  0.2338 -0.3748
 3738TIP3   OH232704   5.555   6.410  13.465 -0.5237 -0.5427 -0.6736
 3738TIP3    H132705   5.531   6.345  13.399 -1.9863 -1.7092  0.9179
 3738TIP3    H232706   5.650   6.401  13.474 -0.6426 -2.1964 -0.7791
 3739TIP3   OH232707   4.358   5.976  15.679  0.7810 -0.2087 -0.1802
 3739TIP3    H132708   4.265   5.994  15.690  0.6961  0.2340 -1.4808
 3739TIP3    H232709   4.397   6.062  15.663  1.4351 -0.3753  0.4580
 3740TIP3   OH232710   6.383   2.998   4.365  0.0256  0.1587  0.4260
 3740TIP3    H132711   6.370   3.026   4.274 -0.6251 -1.5789 -0.0420
 3740TIP3    H232712   6.314   3.043   4.413 -0.4979  0.0108 -0.1701
 3741TIP3   OH232713   1.511   0.091   6.086 -0.6717  0.1420 -0.0734
 3741TIP3    H132714   1.538   0.181   6.106  1.4412 -0.2545 -0.9135
 3741TIP3    H232715   1.559   0.037   6.149  0.4200 -0.5740 -1.4575
 3742TIP3   OH232716   4.886   4.990   0.632  0.0488  0.1204 -0.5607
 3742TIP3    H132717   4.929   5.024   0.554  2.3619  0.6896  0.8530
 3742TIP3    H232718   4.793   4.994   0.612  0.5539 -0.2172 -3.4372
 3743TIP3   OH232719   4.662   2.463  11.862 -0.3840 -0.1085 -0.0894
 3743TIP3    H132720   4.687   2.439  11.951  0.3326 -0.4135 -0.3637
 3743TIP3    H232721   4.727   2.420  11.806  0.0668  1.2794 -0.6761
 3744TIP3   OH232722   6.255   6.744   3.735 -0.1489  0.0831 -0.1459
 3744TIP3    H132723   6.245   6.774   3.826 -1.9064  1.8570 -0.8501
 3744TIP3    H232724   6.166   6.741   3.701  0.4059 -1.5515 -1.5406
 3745TIP3   OH232725   2.508   1.393   0.544 -0.9491 -0.6984 -0.3249
 3745TIP3    H132726   2.506   1.298   0.531 -0.0676 -1.0143  1.6126
 3745TIP3    H232727   2.447   1.427   0.478 -2.4216 -2.7210 -0.1044
 3746TIP3   OH232728   3.921   6.375  14.977 -0.0079 -0.5979  0.2756
 3746TIP3    H132729   3.990   6.336  15.031  1.0406 -1.1140 -1.3783
 3746TIP3    H232730   3.959   6.382  14.890 -1.8333 -0.2763 -0.5483
 3747TIP3   OH232731   3.489   6.179  16.662  0.2152  0.0056 -0.4787
 3747TIP3    H132732   3.544   6.136  16.596 -0.3983 -0.7080 -0.5444
 3747TIP3    H232733   3.400   6.153  16.638 -0.0259 -0.0909  0.5051
 3748TIP3   OH232734   4.208   2.074   4.226  0.0621 -0.0896 -0.4499
 3748TIP3    H132735   4.163   2.012   4.283 -1.2175 -0.8993 -2.2147
 3748TIP3    H232736   4.282   2.025   4.191  0.7359  0.3440  0.3402
 3749TIP3   OH232737   5.808   4.842  16.688  0.1307  0.1854  0.0583
 3749TIP3    H132738   5.742   4.907  16.712  0.1421  0.1377  0.2239
 3749TIP3    H232739   5.887   4.893  16.671  0.6692  0.0981  2.0181
 3750TIP3   OH232740   2.975   1.689   2.577 -0.3820  0.0133 -0.2298
 3750TIP3    H132741   2.980   1.599   2.543 -2.9789 -0.2424 -0.0893
 3750TIP3    H232742   2.980   1.679   2.672  0.0813  0.1042 -0.2414
 3751TIP3   OH232743   5.430   2.062   5.254 -0.0880  0.5648  0.3561
 3751TIP3    H132744   5.416   2.153   5.279 -1.1563 -0.0248  2.1418
 3751TIP3    H232745   5.360   2.014   5.298  1.7499 -1.4007  1.3626
 3752TIP3   OH232746   5.909   6.258  11.328  0.1543  0.1524 -0.0566
 3752TIP3    H132747   5.903   6.333  11.269  0.7758 -1.3167 -2.1080
 3752TIP3    H232748   5.858   6.189  11.285  0.6500 -1.0002  1.1238
 3753TIP3   OH232749   4.823   4.537   5.718 -0.0135 -0.0216  0.3242
 3753TIP3    H132750   4.830   4.461   5.660 -1.0744  0.1492 -0.0558
 3753TIP3    H232751   4.910   4.577   5.716 -0.5416  1.2568 -2.9653
 3754TIP3   OH232752   6.527   5.340   4.876 -0.5057  0.2517  0.0047
 3754TIP3    H132753   6.542   5.250   4.905  0.3303  0.3548 -0.1035
 3754TIP3    H232754   6.552   5.340   4.784 -1.5496  0.3363 -0.2896
 3755TIP3   OH232755   3.049   0.514  16.793 -0.0279 -0.2733  1.0452
 3755TIP3    H132756   3.119   0.449  16.803  1.1056  0.4108 -1.7495
 3755TIP3    H232757   3.069   0.580  16.859  0.5943 -1.2227  1.8410
 3756TIP3   OH232758   0.565   1.148   1.476  0.1180 -0.5416  0.4213
 3756TIP3    H132759   0.596   1.235   1.503  1.1759 -0.0092 -2.2728
 3756TIP3    H232760   0.482   1.137   1.524 -0.0816  1.9687  0.7933
 3757TIP3   OH232761   3.816   5.311  15.412  0.2193  0.2280 -0.2116
 3757TIP3    H132762   3.873   5.282  15.340  0.0920  2.5816 -1.3592
 3757TIP3    H232763   3.757   5.374  15.371 -1.8943 -0.6018  1.3865
 3758TIP3   OH232764   4.426   5.960  12.400  0.3122  0.2172  0.4405
 3758TIP3    H132765   4.333   5.979  12.412  0.2567 -0.4488  1.1565
 3758TIP3    H232766   4.431   5.921  12.312 -0.4271 -1.7447  1.2214
 3759TIP3   OH232767   4.110   3.132   5.391  0.0798 -0.2296 -0.5499
 3759TIP3    H132768   4.035   3.074   5.374 -3.2686  4.0190 -1.9252
 3759TIP3    H232769   4.091   3.171   5.477  1.1096  0.4117 -0.5979
 3760TIP3   OH232770   4.208   3.238   5.650  0.6069  0.3196  0.7107
 3760TIP3    H132771   4.292   3.203   5.680  0.7424  0.5244  0.5675
 3760TIP3    H232772   4.180   3.296   5.721  0.7860  0.5738  0.5743
 3761TIP3   OH232773   5.894   3.895   4.616 -0.1945  0.2454 -0.1212
 3761TIP3    H132774   5.895   3.974   4.671  1.1921  0.9898 -1.1566
 3761TIP3    H232775   5.908   3.927   4.527  1.9666 -1.2679 -0.4025
 3762TIP3   OH232776   5.647   6.308   3.586  0.2798  0.2806 -0.3038
 3762TIP3    H132777   5.597   6.349   3.656 -0.9443 -1.7076  0.0857
 3762TIP3    H232778   5.738   6.326   3.607 -0.0827  0.1919  1.5203
 3763TIP3   OH232779   1.257   3.009  11.162  0.5253  0.4806 -0.0200
 3763TIP3    H132780   1.271   3.009  11.257  0.1011 -1.0627  0.0710
 3763TIP3    H232781   1.309   2.935  11.131 -0.4725  0.0994 -0.8037
 3764TIP3   OH232782   1.643   2.512  16.009 -0.3424 -0.1930 -0.1407
 3764TIP3    H132783   1.693   2.431  16.009  0.9911  0.5931  0.7214
 3764TIP3    H232784   1.685   2.566  16.075 -2.5765  0.3843  0.9127
 3765TIP3   OH232785   6.365   1.319   5.986  0.4314  0.7608  0.3853
 3765TIP3    H132786   6.354   1.371   5.906 -1.5469  0.9583  0.7328
 3765TIP3    H232787   6.313   1.366   6.052 -1.4234 -1.6292  0.7191
 3766TIP3   OH232788   4.565   5.374  16.701 -0.1579  0.0520  0.2479
 3766TIP3    H132789   4.504   5.299  16.699  0.4091 -0.4186  0.2592
 3766TIP3    H232790   4.640   5.345  16.649 -0.9358  1.5313 -1.7957
 3767TIP3   OH232791   5.089   2.820  10.918  0.6171  0.4413  0.1502
 3767TIP3    H132792   5.154   2.777  10.862  0.0383  1.1612 -1.1415
 3767TIP3    H232793   5.064   2.898  10.868 -3.0498 -1.0577 -0.6257
 3768TIP3   OH232794   5.016   4.172   6.374 -0.5924  0.1726  0.4249
 3768TIP3    H132795   4.950   4.239   6.359 -0.0834  0.1639 -2.6073
 3768TIP3    H232796   5.012   4.117   6.295  2.4590 -0.2868  0.4521
 3769TIP3   OH232797   1.712   5.411  14.480 -0.1128  0.3014 -0.5682
 3769TIP3    H132798   1.670   5.340  14.529 -0.7622  0.9257 -0.2091
 3769TIP3    H232799   1.753   5.367  14.405 -0.9720 -0.3817 -0.6468
 3770TIP3   OH232800   2.501   4.996   3.031 -0.1141 -0.0148  0.2758
 3770TIP3    H132801   2.474   4.966   2.944 -1.7601 -4.0095  1.9038
 3770TIP3    H232802   2.462   5.083   3.040 -0.9840 -0.0390 -2.4901
 3771TIP3   OH232803   1.855   3.008   6.381  0.0076 -0.4881 -0.1751
 3771TIP3    H132804   1.825   2.968   6.299  0.3526 -2.6621  0.6937
 3771TIP3    H232805   1.789   3.074   6.401 -0.2198 -0.0769 -2.0510
 3772TIP3   OH232806   1.482   5.081   3.803  0.0612 -0.5023  0.1286
 3772TIP3    H132807   1.537   5.074   3.881  0.2951  1.6255  0.2321
 3772TIP3    H232808   1.417   5.147   3.826  0.2331  0.2761 -1.5071
 3773TIP3   OH232809   3.454   0.793   0.969  0.3531  0.0663 -0.0001
 3773TIP3    H132810   3.364   0.804   0.938  0.5721  0.9402 -0.3640
 3773TIP3    H232811   3.454   0.708   1.012 -1.8186  1.8702  4.1070
 3774TIP3   OH232812   0.127   4.545  10.602  0.0896 -0.2610  0.0791
 3774TIP3    H132813   0.153   4.546  10.510 -0.8103  1.0443 -0.1801
 3774TIP3    H232814   0.157   4.460  10.634  1.3959 -0.2950 -1.1261
 3775TIP3   OH232815   6.720   6.803  13.706 -0.0989 -0.3506  0.8417
 3775TIP3    H132816   6.733   6.797  13.801 -0.0143 -1.1281  0.7886
 3775TIP3    H232817   6.804   6.776  13.669  0.4780  1.6833  0.5386
 3776TIP3   OH232818   4.735   3.406  16.813 -0.1435 -0.3113  0.3001
 3776TIP3    H132819   4.818   3.410  16.860  0.7515  2.8163 -1.3005
 3776TIP3    H232820   4.684   3.480  16.847 -1.6315 -1.1934  0.0887
 3777TIP3   OH232821   0.921   0.604   0.185 -0.3466 -0.0985  0.0042
 3777TIP3    H132822   0.978   0.546   0.134  1.1964  0.3194  1.1751
 3777TIP3    H232823   0.874   0.654   0.119  1.0985 -0.0410 -1.0425
 3778TIP3   OH232824   0.289   5.172  13.129 -1.0395  0.3597 -0.0356
 3778TIP3    H132825   0.303   5.174  13.034 -0.2729  1.5429  0.0750
 3778TIP3    H232826   0.252   5.086  13.146 -0.1051 -0.3169 -1.2635
 3779TIP3   OH232827   6.335   3.397   4.229 -0.2758  0.4374 -0.4858
 3779TIP3    H132828   6.309   3.386   4.137 -2.0878 -0.1705  0.0555
 3779TIP3    H232829   6.315   3.488   4.249 -1.5313  0.1263 -0.2413
 3780TIP3   OH232830   6.632   0.902   0.957 -0.0137  0.3223 -0.5653
 3780TIP3    H132831   6.599   0.814   0.936 -0.6585  0.7797 -1.5268
 3780TIP3    H232832   6.726   0.896   0.943  0.0082 -0.3381 -0.1843
 3781TIP3   OH232833   5.766   1.517  14.974  0.0378  0.3378  0.3613
 3781TIP3    H132834   5.803   1.562  15.050  1.5118 -0.2446  0.0111
 3781TIP3    H232835   5.842   1.487  14.924 -0.8880 -1.7267  0.1010
 3782TIP3   OH232836   2.790   3.975   0.285 -0.2235  0.1093  0.4308
 3782TIP3    H132837   2.767   3.956   0.194  0.5606  1.1964 -0.0129
 3782TIP3    H232838   2.723   4.037   0.314  0.4209  1.0047  0.0648
 3783TIP3   OH232839   6.773   4.745   2.915 -0.1880  0.4389  0.5434
 3783TIP3    H132840   6.721   4.815   2.956  0.6186  0.1312  2.1850
 3783TIP3    H232841   6.720   4.666   2.926 -1.0905  0.7355 -1.2944
 3784TIP3   OH232842   2.490   1.523   2.833  0.1905 -0.0224 -0.7408
 3784TIP3    H132843   2.453   1.500   2.748  1.4464 -2.0614 -0.8006
 3784TIP3    H232844   2.562   1.583   2.812 -0.7646  1.1002 -0.9087
 3785TIP3   OH232845   6.657   5.411   1.445 -0.4159 -0.3999  0.0541
 3785TIP3    H132846   6.592   5.404   1.515 -1.9939  1.6294 -1.0925
 3785TIP3    H232847   6.708   5.489   1.467  0.5068 -0.9946  0.0493
 3786TIP3   OH232848   1.318   0.349   2.018 -0.3837  0.1992  0.7010
 3786TIP3    H132849   1.264   0.362   1.939  0.8640  0.2626 -0.1760
 3786TIP3    H232850   1.307   0.430   2.068  0.1836  0.9124 -0.2871
 3787TIP3   OH232851   0.377   5.158   2.808 -0.8405  0.3153 -0.5104
 3787TIP3    H132852   0.333   5.119   2.883 -1.0208 -2.2855 -1.8582
 3787TIP3    H232853   0.406   5.244   2.839 -1.6393 -0.3139  2.2375
 3788TIP3   OH232854   2.362   2.910   2.808  0.2285  0.2557 -0.2147
 3788TIP3    H132855   2.343   2.950   2.723 -0.6084 -0.8790 -0.5868
 3788TIP3    H232856   2.361   2.816   2.792  0.3490  0.0223  0.9977
 3789TIP3   OH232857   4.482   3.222  13.242 -0.4868  0.9102  0.3100
 3789TIP3    H132858   4.429   3.257  13.170  0.8703 -0.5076 -1.4829
 3789TIP3    H232859   4.422   3.163  13.288 -0.8246  0.1513 -1.0318
 3790TIP3   OH232860   3.906   6.020  16.037  0.1785  0.1651 -0.1862
 3790TIP3    H132861   3.922   5.954  16.104 -0.6580 -1.2671 -1.3382
 3790TIP3    H232862   3.923   5.975  15.954 -2.2090  0.7671 -1.0904
 3791TIP3   OH232863   3.330   0.452  10.958  0.3817  0.6536  0.0233
 3791TIP3    H132864   3.321   0.371  10.908  0.6410 -0.3135  1.4767
 3791TIP3    H232865   3.261   0.447  11.024  0.6350  1.4458  0.3645
 3792TIP3   OH232866   2.071   3.146   4.875  0.0763  1.0888  0.5062
 3792TIP3    H132867   2.044   3.142   4.783  0.6221 -0.2777  0.3741
 3792TIP3    H232868   2.120   3.227   4.883  2.2354  0.0497 -1.0820
 3793TIP3   OH232869   5.428   3.923  15.877  0.0877 -0.0460 -0.2680
 3793TIP3    H132870   5.386   3.928  15.791 -0.7097  1.4939  0.1659
 3793TIP3    H232871   5.380   3.854  15.923 -1.3421  0.9701 -0.1517
 3794TIP3   OH232872   3.517   5.426  17.014 -0.6865 -0.3797 -0.2891
 3794TIP3    H132873   3.607   5.435  17.045 -0.6007  0.2841 -0.6841
 3794TIP3    H232874   3.509   5.494  16.947 -2.4798  1.8222  1.9830
 3795TIP3   OH232875   0.138   2.934  13.501 -0.0529  0.0463  0.0526
 3795TIP3    H132876   0.191   2.980  13.437 -1.6710 -0.0675 -1.4699
 3795TIP3    H232877   0.079   3.001  13.536 -1.4455 -0.5225 -1.1129
 3796TIP3   OH232878   3.452   5.943  16.353  0.6247 -0.0422 -0.1009
 3796TIP3    H132879   3.481   6.022  16.309 -0.1458 -0.3292 -1.1813
 3796TIP3    H232880   3.503   5.873  16.312 -1.4206 -0.5530 -2.0224
 3797TIP3   OH232881   0.982   1.708   5.319  0.9254 -0.1580  0.0187
 3797TIP3    H132882   1.002   1.772   5.251  1.0384  1.3846  1.4372
 3797TIP3    H232883   0.983   1.623   5.274 -1.3961  0.9689 -2.3886
 3798TIP3   OH232884   6.212   3.504   1.012  0.4760 -0.0476  0.0159
 3798TIP3    H132885   6.278   3.434   1.008  1.4100  0.8528 -1.5095
 3798TIP3    H232886   6.264   3.585   1.010 -0.6648  0.6848 -1.1196
 3799TIP3   OH232887   1.288   0.723   0.838  0.1638  0.2400 -0.7331
 3799TIP3    H132888   1.201   0.754   0.811  0.2337  1.3784  0.2644
 3799TIP3    H232889   1.343   0.802   0.837  1.1329 -0.4145 -1.0729
 3800TIP3   OH232890   6.616   3.785   0.191  0.4735  0.0424 -0.6966
 3800TIP3    H132891   6.596   3.818   0.279 -0.4253  0.4480 -1.0440
 3800TIP3    H232892   6.549   3.718   0.175 -0.6365  1.3575 -1.8399
 3801TIP3   OH232893   5.878   1.121   4.494 -0.0373  0.4807  0.3882
 3801TIP3    H132894   5.845   1.185   4.558  2.1867  0.7347  1.3764
 3801TIP3    H232895   5.913   1.174   4.423 -0.4977  0.2541 -0.0147
 3802TIP3   OH232896   1.741   6.519  12.735  0.1739 -0.3487 -0.1489
 3802TIP3    H132897   1.661   6.568  12.715 -0.1801 -1.1281 -0.7000
 3802TIP3    H232898   1.730   6.494  12.827  1.6103  2.8726  1.0513
 3803TIP3   OH232899   1.676   4.835   0.360 -0.0798  0.7827 -0.0687
 3803TIP3    H132900   1.722   4.777   0.299 -2.2901 -2.0754  0.7380
 3803TIP3    H232901   1.743   4.860   0.424  1.1037 -0.3951 -0.7835
 3804TIP3   OH232902   0.467   0.108  15.818 -0.0103  0.6615 -0.0132
 3804TIP3    H132903   0.527   0.104  15.743 -1.0138 -0.4500 -0.7993
 3804TIP3    H232904   0.525   0.114  15.894  1.0857  0.3063 -0.7880
 3805TIP3   OH232905   2.454   3.161   0.196  0.0958 -0.4757  0.4841
 3805TIP3    H132906   2.499   3.128   0.119 -0.4657 -1.1773  0.4444
 3805TIP3    H232907   2.376   3.105   0.205 -0.1743 -0.0129  1.1952
 3806TIP3   OH232908   6.281   0.185  16.577 -0.4196 -0.0910  0.2228
 3806TIP3    H132909   6.220   0.134  16.632  0.3488 -0.8630  0.3933
 3806TIP3    H232910   6.252   0.168  16.488  0.9894 -2.5044  0.1334
 3807TIP3   OH232911   5.097   4.310  13.548 -0.2175  0.0144  0.0567
 3807TIP3    H132912   5.102   4.323  13.643  0.7881 -1.9081  0.3122
 3807TIP3    H232913   5.005   4.325  13.526 -0.8042 -1.0882  1.6019
 3808TIP3   OH232914   0.482   4.668  13.965  0.0107 -0.0438 -0.3478
 3808TIP3    H132915   0.412   4.708  14.017  0.1591  1.2849 -1.1078
 3808TIP3    H232916   0.441   4.593  13.922 -1.2982  1.3553 -1.6689
 3809TIP3   OH232917   2.845   2.932  15.819  0.7501  0.0260  0.4786
 3809TIP3    H132918   2.805   3.018  15.829  1.9966  0.9041 -1.3374
 3809TIP3    H232919   2.933   2.943  15.855  1.5646  0.1258 -1.4197
 3810TIP3   OH232920   4.380   1.615   5.657 -0.2791 -0.0526 -0.0075
 3810TIP3    H132921   4.389   1.691   5.600 -0.8045 -0.4824 -0.6902
 3810TIP3    H232922   4.286   1.598   5.661 -0.1735 -0.6504  0.1449
 3811TIP3   OH232923   0.179   0.966  14.019 -0.2586  0.1730  0.1415
 3811TIP3    H132924   0.099   0.925  13.986 -1.7655  0.6210  2.9291
 3811TIP3    H232925   0.147   1.038  14.074  2.1540  1.4578 -0.0192
 3812TIP3   OH232926   5.324   3.599   1.102  0.3915 -0.5112  0.3584
 3812TIP3    H132927   5.365   3.519   1.069  0.7491 -0.0947 -0.2126
 3812TIP3    H232928   5.249   3.614   1.043  0.5293 -0.2349  0.2530
 3813TIP3   OH232929   1.723   6.275  12.130 -0.3265 -0.4495 -0.1091
 3813TIP3    H132930   1.653   6.338  12.147 -2.0452 -2.1848 -0.5028
 3813TIP3    H232931   1.790   6.326  12.084 -0.5063  1.6638  1.8004
 3814TIP3   OH232932   5.505   3.533  15.243  0.4764  0.1125 -1.0237
 3814TIP3    H132933   5.583   3.510  15.192  0.9921 -0.6638  0.0879
 3814TIP3    H232934   5.468   3.449  15.269 -0.8659  0.4671 -1.6937
 3815TIP3   OH232935   2.563   6.325  13.330 -0.4648  0.7616  0.1861
 3815TIP3    H132936   2.541   6.374  13.251 -1.8689 -0.5602 -0.2862
 3815TIP3    H232937   2.648   6.286  13.311 -0.6946  0.6261 -0.6149
 3816TIP3   OH232938   3.099   4.004  14.818  0.3421 -0.0946  0.0752
 3816TIP3    H132939   3.136   4.016  14.730 -0.0436  0.3959 -0.0217
 3816TIP3    H232940   3.073   4.091  14.846 -0.5528 -0.4004  0.2228
 3817TIP3   OH232941   0.912   1.628   1.352 -0.0089 -0.5345 -0.5202
 3817TIP3    H132942   0.880   1.700   1.298  1.0989  0.1744 -0.2807
 3817TIP3    H232943   0.932   1.669   1.437  1.9212 -0.8188 -0.7968
 3818TIP3   OH232944   2.810   0.709  11.362 -0.5750 -0.5400 -0.1520
 3818TIP3    H132945   2.868   0.648  11.406 -1.8395 -0.7325  1.3101
 3818TIP3    H232946   2.854   0.794  11.371 -0.3748 -0.7213  0.7020
 3819TIP3   OH232947   0.523   2.420   3.157  0.0224 -0.3688  0.0998
 3819TIP3    H132948   0.525   2.363   3.233 -0.4930 -1.1331 -0.4569
 3819TIP3    H232949   0.434   2.456   3.156  0.5007  0.9007  0.7658
 3820TIP3   OH232950   0.261   1.215   5.498 -0.7227  0.4399 -0.2165
 3820TIP3    H132951   0.294   1.301   5.472  0.1120  0.1175 -0.2307
 3820TIP3    H232952   0.181   1.234   5.547 -1.3695  1.1512 -1.5050
 3821TIP3   OH232953   3.609   6.162   5.112 -0.0146  0.2549  0.0831
 3821TIP3    H132954   3.604   6.088   5.050 -0.3632  0.5220 -0.2115
 3821TIP3    H232955   3.580   6.125   5.195 -1.5194  0.3816 -0.3582
 3822TIP3   OH232956   1.748   1.989  16.046  0.1901 -0.3889  0.0326
 3822TIP3    H132957   1.683   1.967  16.113  1.4814 -0.9173  1.1762
 3822TIP3    H232958   1.774   1.905  16.009  2.2119 -0.5447  1.5852
 3823TIP3   OH232959   4.413   0.488   5.012  0.5532 -0.0389 -0.2371
 3823TIP3    H132960   4.331   0.447   5.038  0.4048  0.2849 -0.1973
 3823TIP3    H232961   4.388   0.563   4.960  0.7799  0.7189  0.7095
 3824TIP3   OH232962   6.555   5.586   5.673 -0.0572 -0.4521  0.0192
 3824TIP3    H132963   6.505   5.507   5.693 -1.2036  0.4029  0.6416
 3824TIP3    H232964   6.504   5.632   5.607 -0.2349  0.5433  0.8216
 3825TIP3   OH232965   5.444   5.118   5.178  0.1827  0.2776 -0.4000
 3825TIP3    H132966   5.393   5.199   5.171 -0.7709 -0.1119  1.4397
 3825TIP3    H232967   5.448   5.100   5.272 -1.5076 -2.9590 -0.8016
 3826TIP3   OH232968   5.803   3.728   0.242  0.1573 -0.0473  0.2029
 3826TIP3    H132969   5.898   3.719   0.237 -0.1121 -4.7194 -2.4434
 3826TIP3    H232970   5.775   3.661   0.303 -1.5307  1.2606  0.9568
 3827TIP3   OH232971   2.041   0.953  12.645  0.1701  0.2310 -0.2589
 3827TIP3    H132972   2.013   0.995  12.564  2.4062  1.0311 -0.6858
 3827TIP3    H232973   2.136   0.966  12.647  0.3066 -0.7193  1.9600
 3828TIP3   OH232974   4.903   0.249  16.320  0.0684 -0.4179 -0.6858
 3828TIP3    H132975   4.873   0.192  16.391  1.4244 -0.5076 -0.1690
 3828TIP3    H232976   4.891   0.338  16.354  1.8612 -0.4688  0.1815
 3829TIP3   OH232977   0.668   2.229   1.381  0.3179 -0.5500 -0.4124
 3829TIP3    H132978   0.712   2.281   1.449  1.7327 -0.6313 -1.2305
 3829TIP3    H232979   0.599   2.287   1.348 -0.1116 -0.3474  0.7649
 3830TIP3   OH232980   1.728   1.540   5.360 -0.7264  0.4498 -0.4865
 3830TIP3    H132981   1.807   1.554   5.413 -0.6217 -0.4904 -0.3859
 3830TIP3    H232982   1.760   1.502   5.279 -1.1490 -0.7491 -0.1068
 3831TIP3   OH232983   5.229   6.150   3.304 -0.7746 -0.3711  0.0590
 3831TIP3    H132984   5.177   6.146   3.223 -2.2603 -0.8541  1.0063
 3831TIP3    H232985   5.296   6.217   3.285 -1.6090  0.1455 -1.2722
 3832TIP3   OH232986   2.440   3.971  11.028  0.0884  0.1704  0.4659
 3832TIP3    H132987   2.443   3.903  10.960  0.1435  0.8899 -0.2709
 3832TIP3    H232988   2.501   3.941  11.095 -0.0222 -0.5896  0.2369
 3833TIP3   OH232989   3.856   1.111  13.071  0.4739  0.3939  0.2917
 3833TIP3    H132990   3.849   1.180  13.004  0.0568 -0.5193 -0.6410
 3833TIP3    H232991   3.940   1.128  13.114  0.3015  1.5803  0.2085
 3834TIP3   OH232992   1.598   4.770  10.990 -0.0172 -0.1595 -0.0116
 3834TIP3    H132993   1.543   4.848  10.986  0.1337 -0.0191 -4.7378
 3834TIP3    H232994   1.538   4.699  11.010 -1.1630  0.5623 -0.7643
 3835TIP3   OH232995   3.194   2.421  16.658 -0.1890  0.0514 -0.4859
 3835TIP3    H132996   3.217   2.506  16.620  0.8902  0.3165  0.7351
 3835TIP3    H232997   3.270   2.365  16.641 -0.8385 -0.6536 -1.1662
 3836TIP3   OH232998   0.753   0.356   2.699 -0.3673 -0.2042 -0.1928
 3836TIP3    H132999   0.812   0.363   2.774 -1.1117  1.1234  0.2868
 3836TIP3    H233000   0.692   0.428   2.709 -0.1834  0.3183 -2.3444
 3837TIP3   OH233001   5.523   3.912  15.026  0.7972 -0.0418  1.0001
 3837TIP3    H133002   5.533   4.003  15.055  0.6555  0.5316 -0.6394
 3837TIP3    H233003   5.613   3.879  15.020  0.9680  0.5799 -0.1129
 3838TIP3   OH233004   0.976   6.769   2.651 -0.5950  0.1970 -0.2481
 3838TIP3    H133005   0.887   6.805   2.649 -0.2380  1.1971  0.6059
 3838TIP3    H233006   1.021   6.821   2.718 -0.0093 -1.8053  1.0009
 3839TIP3   OH233007   3.631   1.840   3.761 -0.2882 -0.5461 -1.1351
 3839TIP3    H133008   3.634   1.935   3.772 -3.1255 -0.3005 -1.7528
 3839TIP3    H233009   3.645   1.806   3.850 -0.6486  0.4999 -0.6531
 3840TIP3   OH233010   4.449   5.126   5.151  0.5328 -0.3603 -0.1387
 3840TIP3    H133011   4.427   5.122   5.058  1.4542  2.0491 -0.5553
 3840TIP3    H233012   4.380   5.076   5.194 -1.8045  1.1229 -1.8755
 3841TIP3   OH233013   4.890   4.137  13.071  0.4495  0.4233  0.4323
 3841TIP3    H133014   4.848   4.098  12.995  1.4608  1.5820 -0.7604
 3841TIP3    H233015   4.966   4.082  13.089 -0.2220 -0.3057  1.1245
 3842TIP3   OH233016   4.553   6.428   0.606 -0.1418 -0.1211 -0.1847
 3842TIP3    H133017   4.598   6.472   0.677 -0.1534 -1.0572  0.4207
 3842TIP3    H233018   4.495   6.365   0.649 -1.8282  0.8440 -0.9468
 3843TIP3   OH233019   6.259   5.473   2.669  0.2784  0.3779  0.4914
 3843TIP3    H133020   6.209   5.391   2.662  0.5935  0.2354 -0.1872
 3843TIP3    H233021   6.205   5.537   2.623 -0.5291  0.8349  2.0228
 3844TIP3   OH233022   0.914   5.811   3.069 -0.5419  0.1284 -0.0889
 3844TIP3    H133023   0.842   5.859   3.110 -0.7364  0.0476 -0.3325
 3844TIP3    H233024   0.975   5.794   3.141 -0.8306  0.0763  0.1493
 3845TIP3   OH233025   2.144   6.702  11.992  0.1862  0.0333 -0.2857
 3845TIP3    H133026   2.156   6.637  12.061  0.9707  0.7800  0.3006
 3845TIP3    H233027   2.227   6.749  11.989 -0.5028  1.2675 -0.4386
 3846TIP3   OH233028   0.259   3.880   2.722 -0.5485 -0.1182  0.2148
 3846TIP3    H133029   0.211   3.805   2.687 -0.1326 -0.6416  0.7570
 3846TIP3    H233030   0.200   3.917   2.788 -1.0475  0.4670 -0.5288
 3847TIP3   OH233031   1.137   3.689  14.966  0.7252 -0.2388 -0.2278
 3847TIP3    H133032   1.191   3.749  15.019 -0.3616 -0.7485  1.5531
 3847TIP3    H233033   1.064   3.667  15.023  0.4911 -2.3780 -1.2648
 3848TIP3   OH233034   6.465   3.435  16.893 -0.1451  0.1369 -0.2959
 3848TIP3    H133035   6.375   3.412  16.915 -0.2430  1.1599  0.4637
 3848TIP3    H233036   6.457   3.503  16.826  0.0964 -0.5893 -1.0768
 3849TIP3   OH233037   4.920   1.330   1.574 -0.2091 -0.2340  0.2656
 3849TIP3    H133038   4.853   1.320   1.641  0.4844 -1.6583  0.7773
 3849TIP3    H233039   4.905   1.418   1.538 -0.6146  0.5387  2.2308
 3850TIP3   OH233040   6.519   2.424   2.654 -0.4436 -0.1705  0.5989
 3850TIP3    H133041   6.524   2.505   2.704  2.0583 -0.7242  1.3948
 3850TIP3    H233042   6.543   2.356   2.717  2.1035 -0.9729 -1.1059
 3851TIP3   OH233043   1.063   2.796  12.269 -0.2203 -0.3201 -0.1762
 3851TIP3    H133044   1.069   2.793  12.364  1.4782  1.1199 -0.1758
 3851TIP3    H233045   1.131   2.858  12.243  0.9953 -2.4093 -2.4731
 3852TIP3   OH233046   5.886   4.034   0.128 -0.3496 -0.2459 -0.3515
 3852TIP3    H133047   5.927   4.009   0.211 -1.0430  0.0514  0.0808
 3852TIP3    H233048   5.793   4.020   0.142 -0.7069  1.8628 -0.3371
 3853TIP3   OH233049   5.661   6.158   2.181  0.2106  0.3656  0.3386
 3853TIP3    H133050   5.712   6.077   2.191  0.5705  0.6544  0.8502
 3853TIP3    H233051   5.637   6.159   2.089  1.1016  0.2080  0.0925
 3854TIP3   OH233052   1.510   3.878  13.661  0.6256  0.0304  0.6701
 3854TIP3    H133053   1.591   3.847  13.621 -0.1269  0.2446 -1.1654
 3854TIP3    H233054   1.463   3.919  13.588 -1.4655 -0.7730  1.4942
 3855TIP3   OH233055   4.657   5.709   2.660  0.4000  0.2077  0.4650
 3855TIP3    H133056   4.569   5.715   2.622  0.6963  0.1855 -0.2507
 3855TIP3    H233057   4.713   5.685   2.586  1.0128  0.2330  0.9113
 3856TIP3   OH233058   4.331   6.733   2.844 -0.3975  0.3121  0.0666
 3856TIP3    H133059   4.373   6.680   2.776  0.5375  0.9808  0.0995
 3856TIP3    H233060   4.238   6.721   2.829 -0.2295 -1.6693  0.3348
 3857TIP3   OH233061   1.591   6.323   5.938 -0.0951  0.3890 -0.2343
 3857TIP3    H133062   1.526   6.273   5.888  0.5704  0.7893 -1.5394
 3857TIP3    H233063   1.655   6.258   5.967 -1.0934 -0.0322  1.1819
 3858TIP3   OH233064   2.107   0.905  16.027  0.1465 -0.1667 -0.8116
 3858TIP3    H133065   2.148   0.881  16.109 -0.6147 -0.5119 -0.5251
 3858TIP3    H233066   2.024   0.947  16.053 -0.2935 -0.6512 -1.4002
 3859TIP3   OH233067   1.146   0.805   0.242 -0.4575  0.2469 -0.1918
 3859TIP3    H133068   1.139   0.824   0.336  0.8451  2.8798 -0.5623
 3859TIP3    H233069   1.199   0.876   0.206  1.7263 -2.3001 -2.4536
 3860TIP3   OH233070   2.458   0.854  13.386  0.0373  0.1907  0.5328
 3860TIP3    H133071   2.449   0.857  13.291  1.1694  0.3599  0.4213
 3860TIP3    H233072   2.395   0.919  13.418 -2.1699 -1.5827  0.0729
 3861TIP3   OH233073   4.816   4.586   1.231  0.1316 -0.3632  0.6920
 3861TIP3    H133074   4.760   4.523   1.277 -0.5623  0.0107  0.3704
 3861TIP3    H233075   4.757   4.657   1.207  1.2217  1.2634  2.5428
 3862TIP3   OH233076   2.887   3.857   2.320 -0.3576 -0.3069  0.1013
 3862TIP3    H133077   2.911   3.767   2.297  0.3978 -0.1187  0.1189
 3862TIP3    H233078   2.818   3.880   2.258 -0.9437 -1.0882  0.4603
 3863TIP3   OH233079   3.664   0.833  13.438  0.6061  0.2394  0.0125
 3863TIP3    H133080   3.731   0.764  13.440  1.0464  0.6780  0.9143
 3863TIP3    H233081   3.656   0.861  13.529 -0.8692  0.1578 -0.0759
 3864TIP3   OH233082   1.684   4.233  12.561  0.0355  0.4105 -0.7967
 3864TIP3    H133083   1.655   4.143  12.548  0.6447 -0.1174  1.0831
 3864TIP3    H233084   1.617   4.272  12.617  0.9541  0.3473  0.4046
 3865TIP3   OH233085   3.775   1.020  12.462  0.3528 -0.0517  0.6362
 3865TIP3    H133086   3.723   0.946  12.492 -1.6512  0.6637 -0.7694
 3865TIP3    H233087   3.727   1.052  12.385  2.3186  1.3853 -0.0695
 3866TIP3   OH233088   6.015   5.863   4.461 -0.1980 -0.1540 -0.0073
 3866TIP3    H133089   5.921   5.846   4.456 -0.1193 -0.7603  0.4587
 3866TIP3    H233090   6.039   5.837   4.550  0.5654 -0.7888 -0.3861
 3867TIP3   OH233091   6.793   2.726  15.325  0.2164  0.2592  0.5185
 3867TIP3    H133092   6.833   2.679  15.399 -0.0367 -2.0850 -0.7532
 3867TIP3    H233093   6.704   2.743  15.354  0.6067  0.9341  1.3970
 3868TIP3   OH233094   1.532   3.906   4.288  0.0175  0.2139 -0.0580
 3868TIP3    H133095   1.586   3.831   4.313 -0.3511 -0.2249 -0.5604
 3868TIP3    H233096   1.550   3.917   4.194 -0.5120  0.2756 -0.1507
 3869TIP3   OH233097   6.058   2.735   2.877 -0.9695  0.2876 -0.2035
 3869TIP3    H133098   6.057   2.826   2.906 -2.7626  0.0224  0.7374
 3869TIP3    H233099   6.149   2.708   2.885 -0.0340  2.4839 -2.2163
 3870TIP3   OH233100   3.274   1.824   3.668  0.8394 -0.5039 -0.2203
 3870TIP3    H133101   3.338   1.808   3.598 -0.4853  0.4492 -1.7441
 3870TIP3    H233102   3.191   1.794   3.631  0.1311 -0.1503  1.0417
 3871TIP3   OH233103   5.848   0.930   2.224  0.3529  0.7735 -0.5733
 3871TIP3    H133104   5.917   0.980   2.268 -0.0958  0.7389  0.1881
 3871TIP3    H233105   5.892   0.851   2.193  0.2540 -0.2779  1.7747
 3872TIP3   OH233106   2.114   0.835   4.620 -0.3936 -0.4927 -0.0548
 3872TIP3    H133107   2.104   0.928   4.642  2.1142 -0.3850  0.9591
 3872TIP3    H233108   2.188   0.833   4.560  0.9181 -2.0004  1.5406
 3873TIP3   OH233109   3.100   2.392   5.651 -0.2153  0.5308  0.0472
 3873TIP3    H133110   3.071   2.483   5.658  0.9053  0.8616  0.5749
 3873TIP3    H233111   3.024   2.345   5.616 -1.0667  1.5326  0.5073
 3874TIP3   OH233112   2.515   5.828  15.912 -0.3594 -0.4414 -0.0770
 3874TIP3    H133113   2.440   5.834  15.853  0.4039 -0.9523 -1.1284
 3874TIP3    H233114   2.568   5.757  15.876  0.6015 -0.1191  0.6793
 3875TIP3   OH233115   4.747   1.220  13.797  0.0319 -0.7438 -0.3836
 3875TIP3    H133116   4.742   1.133  13.837 -1.1749 -0.6752 -0.3457
 3875TIP3    H233117   4.680   1.218  13.728  0.4570 -0.0654 -0.8277
 3876TIP3   OH233118   4.756   5.302  10.764  0.2444 -0.3517  0.2719
 3876TIP3    H133119   4.673   5.307  10.716  1.2896  2.5120 -1.5106
 3876TIP3    H233120   4.823   5.302  10.695  1.7779  1.0866  1.6898
 3877TIP3   OH233121   2.330   1.442   5.219  0.3439  0.1243 -0.7436
 3877TIP3    H133122   2.417   1.441   5.257 -0.2725  0.2808  0.7505
 3877TIP3    H233123   2.283   1.372   5.264 -0.9002  1.4074  0.0370
 3878TIP3   OH233124   3.389   6.330  14.509 -0.3068  0.0794 -0.6443
 3878TIP3    H133125   3.383   6.369  14.596 -1.9610 -0.1674 -0.6117
 3878TIP3    H233126   3.326   6.258  14.510  1.4498 -1.5233 -1.2684
 3879TIP3   OH233127   2.782   1.071   0.484 -0.9194 -0.3237  0.9987
 3879TIP3    H133128   2.829   1.119   0.416 -1.0145 -0.5232  0.7899
 3879TIP3    H233129   2.827   0.986   0.489 -2.2940 -1.1916 -0.4164
 3880TIP3   OH233130   2.297   0.601   4.450 -0.4755 -1.0586 -0.7242
 3880TIP3    H133131   2.364   0.656   4.408 -0.4504 -0.6454 -0.1527
 3880TIP3    H233132   2.333   0.581   4.536 -0.7150 -1.5539 -0.7384
 3881TIP3   OH233133   3.870   2.630  13.936  0.0962 -0.3232  0.5170
 3881TIP3    H133134   3.938   2.650  14.000  0.1844  0.4831  0.1854
 3881TIP3    H233135   3.915   2.635  13.852 -0.3371  0.0777  0.3060
 3882TIP3   OH233136   0.937   3.578  14.654  0.5093  0.3288  0.0613
 3882TIP3    H133137   0.894   3.495  14.634  0.0764  0.4650  0.3957
 3882TIP3    H233138   0.868   3.643  14.643  1.0066  0.7167 -0.8170
 3883TIP3   OH233139   1.093   6.823  11.094 -0.1309  0.6475 -0.0473
 3883TIP3    H133140   1.102   6.907  11.049  0.8053  0.1364 -0.8578
 3883TIP3    H233141   1.040   6.770  11.036  0.8866  0.0619 -0.4726
 3884TIP3   OH233142   3.350   4.969  10.759  0.1241  0.6683 -0.3424
 3884TIP3    H133143   3.355   5.063  10.744 -0.8535  0.9810  1.0923
 3884TIP3    H233144   3.420   4.950  10.821  1.7542  0.0239 -2.2673
 3885TIP3   OH233145   2.308   2.797  15.059  0.4950  0.1786 -0.1363
 3885TIP3    H133146   2.368   2.844  15.117  0.5446 -0.1566  0.0836
 3885TIP3    H233147   2.291   2.859  14.987 -0.0953  0.8437  0.5637
 3886TIP3   OH233148   1.122   1.577   5.668  0.0647 -0.2562  0.0780
 3886TIP3    H133149   1.198   1.520   5.678 -0.5481 -1.3542 -1.1590
 3886TIP3    H233150   1.146   1.637   5.597  0.4746  0.6414  0.9615
 3887TIP3   OH233151   3.177   1.356  12.118  0.2623 -0.4224 -0.0437
 3887TIP3    H133152   3.174   1.264  12.145  0.7579 -0.1530  1.0037
 3887TIP3    H233153   3.149   1.405  12.196  2.0373  0.4217  0.1111
 3888TIP3   OH233154   1.459   6.116  14.872 -0.0415 -0.0462  0.2934
 3888TIP3    H133155   1.522   6.106  14.943 -0.3370  2.1583  0.9293
 3888TIP3    H233156   1.382   6.156  14.912 -0.6724  0.1474 -1.0357
 3889TIP3   OH233157   1.868   6.123  15.582  0.5278 -0.2340 -0.2960
 3889TIP3    H133158   1.817   6.204  15.588 -0.5162 -0.6897 -2.1096
 3889TIP3    H233159   1.955   6.146  15.613 -0.9114  0.3539  3.9260
 3890TIP3   OH233160   3.760   3.284   4.847 -0.3179 -0.4404  0.8608
 3890TIP3    H133161   3.734   3.242   4.929 -2.0058 -0.3519  0.4145
 3890TIP3    H233162   3.727   3.373   4.854 -2.8098 -1.1060 -0.8744
 3891TIP3   OH233163   3.422   6.764  15.634 -0.9644 -0.4502  0.1083
 3891TIP3    H133164   3.418   6.679  15.677 -0.8804 -0.7425 -0.4585
 3891TIP3    H233165   3.388   6.748  15.546 -0.7849  0.0655 -0.0578
 3892TIP3   OH233166   3.553   3.554  10.642 -0.3005  0.0213  0.7046
 3892TIP3    H133167   3.641   3.533  10.674 -0.8780 -0.8638  1.7739
 3892TIP3    H233168   3.561   3.643  10.607  1.0272 -0.0688  0.7229
 3893TIP3   OH233169   0.508   5.849  12.635  0.1430  0.0133 -0.4405
 3893TIP3    H133170   0.580   5.912  12.638  0.9033 -0.8385 -0.0521
 3893TIP3    H233171   0.537   5.782  12.573  0.1780 -0.8856  0.5141
 3894TIP3   OH233172   0.935   2.809   1.292 -0.5779 -1.0075 -0.4404
 3894TIP3    H133173   0.926   2.741   1.360 -0.5985 -0.1542  0.4244
 3894TIP3    H233174   1.028   2.830   1.291 -0.1839 -2.5582 -2.2371
 3895TIP3   OH233175   2.283   0.604  15.158  0.2735 -0.8608 -0.0737
 3895TIP3    H133176   2.278   0.571  15.068 -0.1673 -0.9828 -0.0081
 3895TIP3    H233177   2.293   0.525  15.211 -1.7891 -1.0229  0.1699
 3896TIP3   OH233178   3.233   1.072  16.524 -0.0669  0.2489 -0.1274
 3896TIP3    H133179   3.264   1.017  16.596 -0.6149  1.0889  0.7767
 3896TIP3    H233180   3.138   1.061  16.525  0.0229 -1.0435 -1.8288
 3897TIP3   OH233181   4.641   4.816   1.272  0.0229 -0.0116  0.1114
 3897TIP3    H133182   4.635   4.871   1.195  1.0892  1.1648  0.8129
 3897TIP3    H233183   4.638   4.878   1.346 -0.6463 -1.0675  1.0026
 3898TIP3   OH233184   2.260   2.428  11.314  0.1833  0.6281  0.2759
 3898TIP3    H133185   2.203   2.388  11.380  0.3322  0.9002  0.5792
 3898TIP3    H233186   2.268   2.363  11.245 -0.9857  0.8202 -0.0568
 3899TIP3   OH233187   2.507   2.419  16.473 -0.3937  0.0237 -0.1600
 3899TIP3    H133188   2.569   2.376  16.414 -0.6675 -0.8024  0.1381
 3899TIP3    H233189   2.422   2.408  16.431 -0.4947  0.0855  0.0300
 3900TIP3   OH233190   1.263   3.946   2.126  0.6799  0.0470 -0.1189
 3900TIP3    H133191   1.301   3.985   2.048  1.3022 -2.0189 -0.9241
 3900TIP3    H233192   1.325   3.965   2.196  1.4951 -0.3421 -0.7117
 3901TIP3   OH233193   5.494   6.395  15.949  0.7817  0.0021  0.7238
 3901TIP3    H133194   5.530   6.342  16.020  1.3383 -1.0489 -0.3054
 3901TIP3    H233195   5.567   6.406  15.888  0.8067  2.3316  1.0696
 3902TIP3   OH233196   5.806   5.029  15.052 -0.3941  0.2672 -0.2831
 3902TIP3    H133197   5.756   4.978  15.116 -1.3094  1.0186 -0.3762
 3902TIP3    H233198   5.801   5.119  15.083  0.5772  0.4124 -0.5212
 3903TIP3   OH233199   3.392   6.638  16.675 -0.0195  0.8975 -1.0465
 3903TIP3    H133200   3.424   6.683  16.596 -0.3747  0.2838 -1.5538
 3903TIP3    H233201   3.297   6.630  16.660  0.1001 -0.3740 -1.1597
 3904TIP3   OH233202   6.628   6.416  13.647  0.4731  0.0701  0.0890
 3904TIP3    H133203   6.560   6.372  13.699  0.7852  0.2300  0.6450
 3904TIP3    H233204   6.704   6.420  13.706  0.2083  2.0651  0.3744
 3905TIP3   OH233205   2.700   2.585  12.332  0.0673  0.1643 -0.3771
 3905TIP3    H133206   2.721   2.671  12.296  0.4585 -0.3277 -1.3747
 3905TIP3    H233207   2.768   2.527  12.297 -1.5579 -1.0307 -1.7835
 3906TIP3   OH233208   5.250   6.312  11.384  0.2527 -0.3914  0.3498
 3906TIP3    H133209   5.265   6.406  11.390 -3.7452  0.3305  1.9582
 3906TIP3    H233210   5.327   6.273  11.427  0.7810  2.2803  2.0570
 3907TIP3   OH233211   3.711   5.337  12.572 -0.2001 -0.1800 -0.2244
 3907TIP3    H133212   3.677   5.252  12.545 -1.3083  0.8204 -2.2451
 3907TIP3    H233213   3.644   5.374  12.629  0.3589 -0.7043  0.7915
 3908TIP3   OH233214   4.069   4.553   6.005  0.0606 -0.4465 -0.3583
 3908TIP3    H133215   4.073   4.554   6.100 -0.7675 -0.0412 -0.3228
 3908TIP3    H233216   4.154   4.589   5.977  0.0966 -0.0699  0.2275
 3909TIP3   OH233217   3.089   2.280   6.586  0.5298 -0.2280  0.0487
 3909TIP3    H133218   3.028   2.333   6.535  0.8253  0.0469 -0.0231
 3909TIP3    H233219   3.156   2.342   6.615  0.8141 -0.5411  0.0653
 3910TIP3   OH233220   2.317   2.114   2.669 -0.1309  0.0190  0.4047
 3910TIP3    H133221   2.223   2.095   2.675  0.3999 -2.4811  2.6838
 3910TIP3    H233222   2.348   2.056   2.599 -0.1758  0.4211  0.0478
 3911TIP3   OH233223   0.960   0.063   1.246 -0.0126  0.1037 -0.1318
 3911TIP3    H133224   0.891  -0.003   1.251 -0.1274  0.2347  0.0482
 3911TIP3    H233225   0.996   0.054   1.158 -2.7536  2.4934 -1.6630
 3912TIP3   OH233226   2.990   0.512  17.107  0.3455 -0.3989  0.1027
 3912TIP3    H133227   3.025   0.597  17.080  0.7619 -0.6791 -0.2517
 3912TIP3    H233228   3.062   0.470  17.153  0.6045 -1.1207 -0.9324
 3913TIP3   OH233229   2.961   5.624  15.850 -0.1128  0.5933 -0.3162
 3913TIP3    H133230   3.010   5.654  15.927 -1.0922  0.0278  0.5623
 3913TIP3    H233231   3.016   5.557  15.810 -0.8169 -1.2433  1.6036
 3914TIP3   OH233232   3.439   4.580  14.154 -0.0498  0.3967  1.0478
 3914TIP3    H133233   3.428   4.579  14.059 -0.5061  1.6498  1.0720
 3914TIP3    H233234   3.518   4.527  14.169  0.0624  0.2286 -0.0236
 3915TIP3   OH233235   0.320   5.456   2.121  0.7441  0.3464 -0.3829
 3915TIP3    H133236   0.388   5.522   2.110 -1.5903  2.9220 -0.5536
 3915TIP3    H233237   0.285   5.444   2.032 -2.0719  2.7835  0.2093
 3916TIP3   OH233238   1.025   2.056  14.399 -0.1225  0.7381 -0.4924
 3916TIP3    H133239   0.955   2.081  14.339 -1.6101  0.6197  1.1227
 3916TIP3    H233240   1.041   2.134  14.451  1.7597  1.1082 -1.5424
 3917TIP3   OH233241   0.169   6.179  16.679 -0.7321  0.3374 -0.6952
 3917TIP3    H133242   0.203   6.145  16.596  0.0339 -0.7608  0.0450
 3917TIP3    H233243   0.235   6.243  16.707 -0.0897 -0.5657 -0.0909
 3918TIP3   OH233244   0.445   1.049   5.635  0.4141 -0.0856 -0.1461
 3918TIP3    H133245   0.387   1.085   5.567  0.9068  0.5683 -0.2249
 3918TIP3    H233246   0.473   0.964   5.600 -0.2226 -0.2560 -0.2591
 3919TIP3   OH233247   4.679   1.110   3.217 -0.0253  0.1258 -0.2590
 3919TIP3    H133248   4.710   1.200   3.209 -0.1027  0.3169  1.3958
 3919TIP3    H233249   4.716   1.066   3.140  0.7882  1.3378 -0.5988
 3920TIP3   OH233250   5.584   0.396  16.579  0.4633  0.4351 -0.4723
 3920TIP3    H133251   5.581   0.466  16.514  0.2624 -0.9274 -1.9758
 3920TIP3    H233252   5.645   0.332  16.544  0.5592 -0.2218  0.8182
 3921TIP3   OH233253   2.080   1.726  11.320  0.3407 -0.4622 -0.3918
 3921TIP3    H133254   1.999   1.767  11.289  0.0528 -0.9813 -0.3418
 3921TIP3    H233255   2.150   1.777  11.280  0.0149  0.8139  0.5968
 3922TIP3   OH233256   2.123   1.720  13.090 -0.2224  0.0053 -0.0647
 3922TIP3    H133257   2.197   1.743  13.035 -0.2899  0.5120  0.0537
 3922TIP3    H233258   2.117   1.625  13.084 -1.0091  0.1256 -1.9371
 3923TIP3   OH233259   1.715   0.023  14.380  0.5795 -0.0433  0.3159
 3923TIP3    H133260   1.796  -0.001  14.425 -0.0481  0.0233  1.5100
 3923TIP3    H233261   1.744   0.058  14.296  1.7603 -0.5033  0.5090
 3924TIP3   OH233262   3.939   4.084  13.310  0.1670 -0.7484  0.0995
 3924TIP3    H133263   3.860   4.033  13.329 -0.0605 -0.9112 -1.1753
 3924TIP3    H233264   3.997   4.067  13.383 -1.5763  0.6451  1.9159
 3925TIP3   OH233265   5.983   5.790   5.367 -0.4771  0.5248  0.0228
 3925TIP3    H133266   6.034   5.743   5.432 -1.9386 -1.5068 -0.2030
 3925TIP3    H233267   6.045   5.812   5.298  0.6177  0.6182  1.0206
 3926TIP3   OH233268   4.778   2.141   2.075 -0.0712  0.5115  0.0352
 3926TIP3    H133269   4.835   2.094   2.015 -1.2934 -0.1441 -0.6392
 3926TIP3    H233270   4.834   2.162   2.150  0.7100 -1.3104 -0.0024
 3927TIP3   OH233271   6.182   5.667   3.201 -0.1351 -0.1869  0.9973
 3927TIP3    H133272   6.252   5.602   3.202  0.6652  0.6484  0.2175
 3927TIP3    H233273   6.160   5.677   3.108 -1.2162 -0.3407  1.2146
 3928TIP3   OH233274   0.688   3.421  12.188 -0.7795  0.4795  0.1680
 3928TIP3    H133275   0.706   3.514  12.192 -0.4949  0.4085  0.5620
 3928TIP3    H233276   0.692   3.391  12.279 -0.6745  0.0487  0.0261
 3929TIP3   OH233277   1.788   0.802  15.626  0.2272  0.1951 -0.2080
 3929TIP3    H133278   1.721   0.743  15.661  0.3948 -0.7596 -1.4410
 3929TIP3    H233279   1.794   0.873  15.691 -1.8724  0.2385 -0.0169
 3930TIP3   OH233280   4.133   2.518  10.714  0.2058 -0.2086  0.1294
 3930TIP3    H133281   4.109   2.610  10.724  0.9262  0.1295 -1.1289
 3930TIP3    H233282   4.056   2.470  10.744 -0.2023  0.7960  0.7387
 3931TIP3   OH233283   2.158   3.259  14.933  0.3547  0.0939 -0.2819
 3931TIP3    H133284   2.107   3.235  14.857 -0.5928  2.0712 -0.3300
 3931TIP3    H233285   2.107   3.229  15.008 -1.5803  2.9679 -0.2789
 3932TIP3   OH233286   3.360   3.874  14.992 -0.4316  0.0745  0.7932
 3932TIP3    H133287   3.447   3.870  15.031 -0.2705  0.2699  0.4580
 3932TIP3    H233288   3.376   3.895  14.900 -0.8380  0.2460  0.7592
 3933TIP3   OH233289   2.864   2.862  14.825  0.0262 -0.0096 -0.3310
 3933TIP3    H133290   2.811   2.803  14.772 -0.1141 -0.3438  0.1781
 3933TIP3    H233291   2.801   2.917  14.871  0.0364 -1.2605  1.2753
 3934TIP3   OH233292   0.647   2.869   1.514  0.0799  0.0619 -0.3700
 3934TIP3    H133293   0.694   2.952   1.526  0.0209  0.3413 -1.9039
 3934TIP3    H233294   0.555   2.892   1.530 -0.0389  0.5003 -1.5891
 3935TIP3   OH233295   2.958   4.499  12.437  0.5635  0.0227 -0.4710
 3935TIP3    H133296   3.047   4.533  12.432  0.2036  0.8572 -1.7297
 3935TIP3    H233297   2.947   4.449  12.357  0.5004 -1.6667  0.5571
 3936TIP3   OH233298   3.594   3.726  14.633  0.1186  0.1110  0.1668
 3936TIP3    H133299   3.668   3.778  14.663  0.0575  0.5122 -0.3540
 3936TIP3    H233300   3.624   3.636  14.637  0.2618  0.1879  0.9793
 3937TIP3   OH233301   0.874   4.357   3.123 -0.2375  0.0894  0.5937
 3937TIP3    H133302   0.915   4.443   3.120 -1.2747  0.6346  1.6108
 3937TIP3    H233303   0.936   4.302   3.169 -0.2941  0.7245  1.4529
 3938TIP3   OH233304   0.422   1.821   2.097 -0.1770  0.5725  0.1968
 3938TIP3    H133305   0.429   1.901   2.045 -0.4822  0.2344 -0.3665
 3938TIP3    H233306   0.480   1.759   2.053  0.1203  0.4999  0.6780
 3939TIP3   OH233307   6.240   2.929  13.902 -0.4659 -0.1338 -0.1497
 3939TIP3    H133308   6.200   3.011  13.932  1.0019  1.0215 -1.2019
 3939TIP3    H233309   6.285   2.895  13.979  0.9174  1.3356 -0.2575
 3940TIP3   OH233310   1.125   3.897   4.918  0.9030  0.4917  0.5084
 3940TIP3    H133311   1.205   3.888   4.866  0.6786 -0.9574  0.3558
 3940TIP3    H233312   1.071   3.959   4.869  1.7465  1.1409  0.3804
 3941TIP3   OH233313   3.139   4.437  15.359 -0.5321 -0.4580 -0.6127
 3941TIP3    H133314   3.170   4.363  15.411 -0.1246 -1.5246 -2.2893
 3941TIP3    H233315   3.210   4.454  15.297 -1.6179 -0.2731 -1.8419
 3942TIP3   OH233316   0.995   4.218   6.266  0.3904 -0.0446 -0.2391
 3942TIP3    H133317   1.008   4.181   6.354 -0.2103 -0.2712 -0.2412
 3942TIP3    H233318   0.902   4.242   6.264  0.2760 -0.5259 -0.9923
 3943TIP3   OH233319   0.493   4.134  14.313  0.6539 -0.1019  0.4114
 3943TIP3    H133320   0.585   4.112  14.326  0.5613 -0.2918  0.7826
 3943TIP3    H233321   0.478   4.123  14.219  0.9352 -0.3706  0.3947
 3944TIP3   OH233322   5.984   5.683  16.901  0.2053  0.0975 -0.1686
 3944TIP3    H133323   6.032   5.718  16.977  1.8431 -3.6202  0.7372
 3944TIP3    H233324   5.893   5.682  16.929  0.6159 -0.0019  1.2475
 3945TIP3   OH233325   3.313   2.469   2.408 -0.1996 -0.1636 -0.2912
 3945TIP3    H133326   3.301   2.443   2.317  1.3689  0.7313 -0.7887
 3945TIP3    H233327   3.358   2.396   2.449 -0.4854 -0.3693 -0.3389
 3946TIP3   OH233328   2.886   5.345   0.128  0.1278  0.4103  0.2550
 3946TIP3    H133329   2.905   5.400   0.052  2.3651  0.5364  0.8360
 3946TIP3    H233330   2.908   5.400   0.204 -1.8288  0.2000  1.0391
 3947TIP3   OH233331   2.041   1.648  16.551 -0.0890 -0.4189  0.6885
 3947TIP3    H133332   2.114   1.710  16.555 -0.5407  0.5206 -2.6077
 3947TIP3    H233333   2.059   1.595  16.473 -2.7560 -0.2857 -0.1181
 3948TIP3   OH233334   0.762   5.856  14.031  0.0869 -0.3232  0.5193
 3948TIP3    H133335   0.826   5.894  14.092 -0.2035 -1.3907  1.5252
 3948TIP3    H233336   0.813   5.833  13.954  0.7418 -0.2404  0.9151
 3949TIP3   OH233337   1.942   3.583   6.103  0.1937 -0.4534  0.4737
 3949TIP3    H133338   1.939   3.678   6.090 -1.1420 -0.7207 -1.5497
 3949TIP3    H233339   2.035   3.562   6.103  0.5727  0.3949 -3.6883
 3950TIP3   OH233340   5.651   4.258  16.492 -0.4022  0.0890 -0.1934
 3950TIP3    H133341   5.562   4.223  16.484 -0.1563 -0.9862  1.3898
 3950TIP3    H233342   5.706   4.192  16.450 -0.2713  0.4115 -0.5345
 3951TIP3   OH233343   0.873   4.111   5.639 -0.0042  0.7425 -0.0009
 3951TIP3    H133344   0.880   4.047   5.568 -0.1195  2.9555 -2.1704
 3951TIP3    H233345   0.780   4.133   5.641  0.0415  0.8767  0.6794
 3952TIP3   OH233346   0.899   0.469  15.395  0.0190 -0.1408  0.2904
 3952TIP3    H133347   0.958   0.459  15.321  0.4669  0.4019  0.5698
 3952TIP3    H233348   0.920   0.395  15.453 -1.2640 -1.3751 -0.7183
 3953TIP3   OH233349   2.047   5.668   1.049  0.2406  0.5936  0.1110
 3953TIP3    H133350   2.002   5.733   1.103 -1.3582  0.9644 -1.5634
 3953TIP3    H233351   1.984   5.596   1.040  1.3133 -0.4265  0.4855
 3954TIP3   OH233352   6.461   4.561   0.753 -0.4950 -0.4946  0.2760
 3954TIP3    H133353   6.460   4.500   0.679  0.5309 -0.1313 -0.0626
 3954TIP3    H233354   6.483   4.506   0.828  2.8374 -0.2795 -0.3853
 3955TIP3   OH233355   0.330   1.819  14.882 -0.0855  0.4531  0.4706
 3955TIP3    H133356   0.277   1.775  14.817 -1.2316  3.0128 -0.4726
 3955TIP3    H233357   0.406   1.762  14.894 -1.8491 -2.1528  0.0936
 3956TIP3   OH233358   5.919   6.259   6.507 -0.6959 -0.3040  0.3969
 3956TIP3    H133359   5.881   6.343   6.536 -0.3705  0.3800 -1.0930
 3956TIP3    H233360   5.909   6.202   6.583 -1.7301  0.8212  1.1564
 3957TIP3   OH233361   2.080   3.363   2.995  1.1390 -0.1739  0.8062
 3957TIP3    H133362   2.114   3.410   3.072  0.8302 -0.8132  1.3445
 3957TIP3    H233363   2.048   3.432   2.937  1.6273  0.3309  1.1285
 3958TIP3   OH233364   0.522   6.507   1.681  0.6307  0.0096 -0.3045
 3958TIP3    H133365   0.603   6.540   1.642  0.7768 -0.4062 -0.3606
 3958TIP3    H233366   0.467   6.486   1.605  0.4384  0.3737 -0.2649
 3959TIP3   OH233367   6.484   6.050  10.760 -0.2237 -0.0458 -0.2758
 3959TIP3    H133368   6.519   5.961  10.763 -1.2516 -0.4519  0.1213
 3959TIP3    H233369   6.390   6.039  10.770 -0.1339  1.2719  4.1503
 3960TIP3   OH233370   3.694   1.558   6.155 -0.4040 -0.1734  0.2812
 3960TIP3    H133371   3.622   1.612   6.187  0.5693  1.0317  0.5177
 3960TIP3    H233372   3.749   1.618   6.105  0.1376 -1.2010 -0.4107
 3961TIP3   OH233373   2.511   4.001   2.147 -0.4674  0.1540  0.1865
 3961TIP3    H133374   2.548   4.089   2.154 -2.0386  0.8697 -0.1392
 3961TIP3    H233375   2.494   3.990   2.053  1.5710 -1.3241 -0.0669
 3962TIP3   OH233376   3.574   3.670  14.914 -0.1689 -0.9698 -0.3919
 3962TIP3    H133377   3.571   3.689  14.820  0.5354 -0.0245 -0.2351
 3962TIP3    H233378   3.644   3.605  14.923  1.2770  0.5465 -0.2901
 3963TIP3   OH233379   1.315   1.153   5.706 -0.4907  0.0839  0.7104
 3963TIP3    H133380   1.331   1.171   5.613  1.6804 -0.6801  0.8977
 3963TIP3    H233381   1.224   1.121   5.708 -0.3608 -0.5633 -1.2613
 3964TIP3   OH233382   0.602   2.685   4.214 -0.1234  0.0180 -0.0798
 3964TIP3    H133383   0.647   2.612   4.172 -1.4320 -0.9060  0.0532
 3964TIP3    H233384   0.584   2.655   4.302 -2.9695 -0.5988 -0.7707
 3965TIP3   OH233385   5.329   6.570   0.781 -0.0146  0.6462  0.5883
 3965TIP3    H133386   5.276   6.649   0.768 -0.6036  0.2764  0.7261
 3965TIP3    H233387   5.395   6.596   0.846 -0.3152  0.9688  0.7659
 3966TIP3   OH233388   2.085   6.244   2.730  0.3357  0.3589  0.4816
 3966TIP3    H133389   2.157   6.247   2.793 -1.1592  1.2960  2.2496
 3966TIP3    H233390   2.055   6.335   2.724  0.3720  0.2825 -1.5668
 3967TIP3   OH233391   5.122   5.080   3.323 -0.0997  0.3035  0.0874
 3967TIP3    H133392   5.213   5.092   3.296 -0.1332  0.3795  0.0090
 3967TIP3    H233393   5.077   5.050   3.244  0.0168 -0.5084  0.3218
 3968TIP3   OH233394   3.501   5.303  13.083  0.4609  0.0935  0.0046
 3968TIP3    H133395   3.425   5.314  13.026  0.3875 -0.4786 -0.0167
 3968TIP3    H233396   3.561   5.247  13.033  0.7075  0.1872  0.1938
 3969TIP3   OH233397   3.133   0.871   2.692 -0.2298 -0.7444  0.1744
 3969TIP3    H133398   3.174   0.815   2.758 -0.5655 -0.9440  0.2203
 3969TIP3    H233399   3.171   0.843   2.609  1.7971  0.9418  0.4595
 3970TIP3   OH233400   1.731   4.996   1.069  0.4789 -0.1738  0.6009
 3970TIP3    H133401   1.812   4.999   1.120  0.7679  0.4384  0.1181
 3970TIP3    H233402   1.683   4.922   1.105  2.2588 -2.0443 -0.5999
 3971TIP3   OH233403   4.463   5.838  16.903 -0.2262 -0.0078  0.4282
 3971TIP3    H133404   4.413   5.764  16.937 -0.7923 -0.8792 -2.1084
 3971TIP3    H233405   4.538   5.798  16.860  1.0604  1.1173  1.5507
 3972TIP3   OH233406   0.781   3.304   2.932 -0.0465 -0.6589  0.5224
 3972TIP3    H133407   0.809   3.281   2.844 -0.2518 -1.7565  0.7238
 3972TIP3    H233408   0.792   3.223   2.982 -1.0615 -0.3847  1.2217
 3973TIP3   OH233409   5.142   0.646   6.180  0.1518  0.6708  0.1650
 3973TIP3    H133410   5.165   0.556   6.204  0.8111  0.7634 -0.0829
 3973TIP3    H233411   5.105   0.683   6.259 -0.3287  0.1156  0.2099
 3974TIP3   OH233412   1.825   5.855  14.684 -0.1612  0.2221 -0.2014
 3974TIP3    H133413   1.868   5.885  14.604  1.2861  0.8949  0.8023
 3974TIP3    H233414   1.802   5.935  14.731  0.1192 -0.1740  0.6333
 3975TIP3   OH233415   4.854   4.515  15.178 -0.2836 -0.2566 -0.4625
 3975TIP3    H133416   4.849   4.426  15.213 -0.0153 -0.0706  0.0545
 3975TIP3    H233417   4.765   4.534  15.148 -0.7918 -0.0158  1.1292
 3976TIP3   OH233418   4.205   6.272  13.601  0.0807 -0.1897  0.5276
 3976TIP3    H133419   4.249   6.294  13.519 -0.0982 -0.9873  0.2134
 3976TIP3    H233420   4.141   6.205  13.577 -0.2853 -0.1054  1.2413
 3977TIP3   OH233421   0.458   2.051   1.300  0.1616 -0.0262 -0.4153
 3977TIP3    H133422   0.497   2.040   1.213  0.6398 -0.7425 -0.1298
 3977TIP3    H233423   0.522   2.104   1.348 -0.1841  0.5133 -0.5558
 3978TIP3   OH233424   5.219   4.065  16.416  0.0718  0.1702  0.3370
 3978TIP3    H133425   5.270   4.112  16.482  1.5909  0.2167 -0.8307
 3978TIP3    H233426   5.154   4.017  16.467 -0.4374  2.1359  1.6986
 3979TIP3   OH233427   4.202   3.884   4.625 -0.1253  0.5247 -0.4151
 3979TIP3    H133428   4.262   3.882   4.699  1.1933 -2.9104 -1.3769
 3979TIP3    H233429   4.234   3.955   4.570  0.5834  1.3157  0.9856
 3980TIP3   OH233430   4.715   5.355   0.776  0.3256 -0.2899 -0.2384
 3980TIP3    H133431   4.803   5.384   0.799 -0.4315  1.8357  0.1355
 3980TIP3    H233432   4.678   5.323   0.858  0.1389  0.4737 -0.0237
 3981TIP3   OH233433   2.815   3.783   3.906  0.4136 -0.0802 -0.1480
 3981TIP3    H133434   2.730   3.797   3.864  1.3745  1.4363 -1.7339
 3981TIP3    H233435   2.826   3.688   3.908 -0.7964 -0.2528 -1.0272
 3982TIP3   OH233436   0.339   6.555   2.983  0.1492 -0.0546  0.2914
 3982TIP3    H133437   0.339   6.497   2.907  1.8135  0.0363  0.1806
 3982TIP3    H233438   0.414   6.526   3.035  1.3453  2.2554 -0.0059
 3983TIP3   OH233439   5.448   4.313  11.524  0.4387 -0.6189 -0.0842
 3983TIP3    H133440   5.497   4.252  11.469  0.0779  0.2685 -1.4254
 3983TIP3    H233441   5.417   4.381  11.464 -1.2259 -0.3863  0.9581
 3984TIP3   OH233442   0.389   4.982   3.767  0.1118 -0.0315  0.0514
 3984TIP3    H133443   0.321   4.931   3.723  0.3178  1.2975 -1.9192
 3984TIP3    H233444   0.349   5.007   3.850 -1.4358 -0.1175 -0.6347
 3985TIP3   OH233445   1.150   0.186   5.637 -0.8834  0.5878  0.4543
 3985TIP3    H133446   1.232   0.223   5.606 -0.6027 -1.9048 -2.1988
 3985TIP3    H233447   1.176   0.112   5.692 -1.4308  1.3736  1.8352
 3986TIP3   OH233448   1.827   3.711  15.056 -0.7210 -0.4695  0.0183
 3986TIP3    H133449   1.883   3.772  15.104  0.0159 -0.0397 -1.3179
 3986TIP3    H233450   1.824   3.632  15.111  2.3716 -1.0443 -0.4422
 3987TIP3   OH233451   6.071   0.663   1.676 -0.1904  0.2486 -0.6510
 3987TIP3    H133452   6.019   0.650   1.597 -0.4973  1.6728 -0.7155
 3987TIP3    H233453   6.144   0.718   1.648 -0.3058  0.7665  0.0393
 3988TIP3   OH233454   5.372   3.941  16.233 -0.2399  0.5710 -0.0165
 3988TIP3    H133455   5.307   3.985  16.288  0.4762  1.0560  0.4548
 3988TIP3    H233456   5.393   4.005  16.166  0.6438  0.8904  0.5449
 3989TIP3   OH233457   1.535   6.738   3.181  0.1105 -0.2407 -0.3816
 3989TIP3    H133458   1.602   6.688   3.227  0.0730  1.3488  1.5235
 3989TIP3    H233459   1.581   6.774   3.105  1.2142  0.1036  0.4223
 3990TIP3   OH233460   5.291   5.401  12.903  0.3448  0.6134  0.3756
 3990TIP3    H133461   5.259   5.328  12.955  1.6044  1.1178  1.9415
 3990TIP3    H233462   5.348   5.360  12.837 -1.1019 -0.0090 -0.5288
 3991TIP3   OH233463   5.396   2.491   2.331 -0.0729 -0.1405  0.2361
 3991TIP3    H133464   5.472   2.470   2.277  1.6300  1.6796  1.7980
 3991TIP3    H233465   5.430   2.497   2.420 -2.2641 -0.2706  1.1444
 3992TIP3   OH233466   5.387   0.117  11.880 -0.6437 -0.0528 -0.2750
 3992TIP3    H133467   5.449   0.053  11.847 -0.6760  0.3354 -1.1289
 3992TIP3    H233468   5.364   0.087  11.968 -1.1017 -1.5300 -0.8778
 3993TIP3   OH233469   3.870   2.726   4.798  0.6433  0.2996  0.1180
 3993TIP3    H133470   3.935   2.662   4.770 -0.4502 -0.3016 -1.1769
 3993TIP3    H233471   3.883   2.801   4.741  0.9886  0.6711  0.6770
 3994TIP3   OH233472   0.342   1.721   0.552 -0.5718  0.3730 -0.1286
 3994TIP3    H133473   0.422   1.773   0.540 -0.5858  0.5727  0.6099
 3994TIP3    H233474   0.337   1.667   0.473 -1.1471  2.2815 -1.4773
 3995TIP3   OH233475   3.654   1.286  12.115  0.3972 -0.4861  0.1645
 3995TIP3    H133476   3.578   1.230  12.128 -1.1714  1.1860 -1.2676
 3995TIP3    H233477   3.625   1.353  12.053  2.8115  0.6890  0.1629
 3996TIP3   OH233478   3.084   6.020   1.741 -0.1996  0.3230  0.5917
 3996TIP3    H133479   3.120   6.078   1.675 -1.0103  0.1389 -0.0305
 3996TIP3    H233480   3.126   6.048   1.823  2.5336 -0.9143 -0.2778
 3997TIP3   OH233481   2.571   3.326  15.701 -0.1493  0.0555  0.2577
 3997TIP3    H133482   2.530   3.368  15.625  0.2815  0.9120  0.4866
 3997TIP3    H233483   2.498   3.298  15.756 -0.4694 -0.6417 -0.5020
 3998TIP3   OH233484   6.352   4.337   2.835  0.2184 -0.1020  0.2922
 3998TIP3    H133485   6.406   4.259   2.829  1.1642  0.5691 -0.2769
 3998TIP3    H233486   6.368   4.372   2.922  1.2057  0.4305 -0.0912
 3999TIP3   OH233487   3.614   6.689   4.904 -0.1470  0.2838 -0.0964
 3999TIP3    H133488   3.706   6.701   4.879 -0.9867  2.3039 -2.6134
 3999TIP3    H233489   3.601   6.595   4.901  2.2052 -0.2269  2.0273
 4000TIP3   OH233490   1.386   4.245   2.201  0.0028 -0.1312 -0.1335
 4000TIP3    H133491   1.344   4.187   2.265 -2.1713  1.4776 -0.0066
 4000TIP3    H233492   1.340   4.227   2.119 -1.3083  1.9579  0.0931
 4001TIP3   OH233493   1.660   5.801  11.676 -0.4843  0.0479 -0.2368
 4001TIP3    H133494   1.632   5.792  11.767 -0.3773  2.7423  0.1606
 4001TIP3    H233495   1.751   5.771  11.677 -0.2876  0.6231  0.7055
 4002TIP3   OH233496   6.331   5.536   5.450  0.4046 -0.2992 -0.3257
 4002TIP3    H133497   6.384   5.567   5.377  0.5363 -1.9348 -0.9702
 4002TIP3    H233498   6.355   5.444   5.460  1.1290  0.1174  2.4722
 4003TIP3   OH233499   3.374   6.731   2.321 -0.0823  0.1040  0.8152
 4003TIP3    H133500   3.451   6.682   2.293 -0.8532 -1.2994  1.0348
 4003TIP3    H233501   3.373   6.808   2.265  0.5238 -0.7177 -0.3767
 4004TIP3   OH233502   3.146   4.738  12.723  0.2513 -0.1021 -0.9045
 4004TIP3    H133503   3.058   4.767  12.745  1.5129  2.7212  0.9766
 4004TIP3    H233504   3.162   4.773  12.635 -0.1217  0.3806 -0.7828
 4005TIP3   OH233505   6.278   4.181   3.415 -0.3540  0.3077  0.0146
 4005TIP3    H133506   6.201   4.139   3.452 -0.1650 -0.8566 -0.8618
 4005TIP3    H233507   6.317   4.115   3.357 -0.1007  1.7095 -1.5108
 4006TIP3   OH233508   3.037   5.105  13.872 -0.3936 -0.6100 -0.1039
 4006TIP3    H133509   3.073   5.168  13.810  0.3478  0.3060  1.2147
 4006TIP3    H233510   3.112   5.054  13.901 -0.8221 -1.3893 -0.3301
 4007TIP3   OH233511   4.922   0.170  16.830  0.0911 -0.0484  0.0709
 4007TIP3    H133512   4.920   0.075  16.843 -0.1673  0.0938  1.1581
 4007TIP3    H233513   4.902   0.182  16.737 -0.3488 -1.0360  0.0289
 4008TIP3   OH233514   4.999   3.758   5.851  0.7171  0.6638 -0.1763
 4008TIP3    H133515   5.074   3.771   5.908  1.4678 -0.5092 -0.8856
 4008TIP3    H233516   4.986   3.844   5.809  1.4460  0.9546  0.1808
 4009TIP3   OH233517   1.394   0.325  10.603 -0.1222 -0.7437  0.3626
 4009TIP3    H133518   1.457   0.340  10.532  0.1507  0.3629  0.8194
 4009TIP3    H233519   1.326   0.391  10.589 -0.8278 -1.4744  0.2902
 4010TIP3   OH233520   1.194   1.037   6.358 -0.0944  0.8004 -0.8516
 4010TIP3    H133521   1.270   1.014   6.411 -1.6212 -0.1806  1.0670
 4010TIP3    H233522   1.212   1.001   6.272  1.4150  0.2180 -0.3206
 4011TIP3   OH233523   2.729   2.019  12.627  0.1510  0.0041  0.0268
 4011TIP3    H133524   2.785   2.088  12.664 -0.9166  1.8660 -1.5893
 4011TIP3    H233525   2.750   1.941  12.677  1.1121  1.6017  2.2846
 4012TIP3   OH233526   1.178   2.859   1.184 -0.1494 -0.0100  0.0774
 4012TIP3    H133527   1.266   2.827   1.202  0.2959  0.7942 -0.6070
 4012TIP3    H233528   1.191   2.947   1.148 -1.2336  0.1507  0.0408
 4013TIP3   OH233529   5.628   0.460  13.812 -0.1157  0.2316  0.3276
 4013TIP3    H133530   5.629   0.547  13.773 -1.3898  0.5086  0.8742
 4013TIP3    H233531   5.599   0.402  13.741 -1.2687  0.5659  0.4996
 4014TIP3   OH233532   4.290   2.983  11.339  0.5625 -0.0526 -0.4116
 4014TIP3    H133533   4.354   2.979  11.267 -0.8149  1.1834 -1.7831
 4014TIP3    H233534   4.228   2.913  11.319  0.6648 -0.2931  0.1005
 4015TIP3   OH233535   2.587   0.710   1.035  0.1948 -0.3078 -0.1323
 4015TIP3    H133536   2.644   0.686   0.962  1.1319 -0.0061  0.4909
 4015TIP3    H233537   2.529   0.777   0.999  0.4210 -0.4022 -0.6854
 4016TIP3   OH233538   5.079   4.515   2.079  0.5817 -0.0553 -0.5599
 4016TIP3    H133539   5.004   4.570   2.104  1.9987  2.0239 -0.6356
 4016TIP3    H233540   5.112   4.480   2.162 -0.2703 -0.7513 -0.4997
 4017TIP3   OH233541   5.857   6.404  12.933 -0.2535 -0.1916 -0.7085
 4017TIP3    H133542   5.913   6.358  12.995 -0.9840 -0.4463 -0.2155
 4017TIP3    H233543   5.904   6.399  12.849  0.4676 -0.3529 -0.3010
 4018TIP3   OH233544   3.229   3.434  12.226 -0.0910 -0.5681  0.5306
 4018TIP3    H133545   3.181   3.506  12.184  1.1691  0.3926  0.6891
 4018TIP3    H233546   3.169   3.359  12.220 -1.9244  0.7557  1.4171
 4019TIP3   OH233547   3.571   1.935  14.751 -0.4381  0.3602  0.1744
 4019TIP3    H133548   3.523   2.015  14.728  0.3572  0.7249 -0.2451
 4019TIP3    H233549   3.658   1.965  14.775 -0.2773 -0.3439  0.4966
 4020TIP3   OH233550   0.097   5.789   2.158 -0.5692 -0.1284  0.5391
 4020TIP3    H133551   0.116   5.796   2.252  1.8368  0.1352  0.1006
 4020TIP3    H233552   0.112   5.877   2.124  2.1686 -0.9068 -0.5875
 4021TIP3   OH233553   0.900   0.569   0.915  0.1991  0.0457 -0.9707
 4021TIP3    H133554   0.963   0.498   0.926 -0.4378 -0.3104  0.7371
 4021TIP3    H233555   0.939   0.626   0.849  3.3578  0.9561  1.4419
 4022TIP3   OH233556   0.681   1.318  14.203 -0.0386 -0.5557 -0.0399
 4022TIP3    H133557   0.607   1.312  14.143  0.1591 -1.0635 -0.2394
 4022TIP3    H233558   0.641   1.308  14.290 -0.1038 -1.8695 -0.1944
 4023TIP3   OH233559   2.267   4.344   2.965 -0.2042  0.0365 -0.0753
 4023TIP3    H133560   2.330   4.378   2.901 -0.0867  0.0291  0.0347
 4023TIP3    H233561   2.186   4.331   2.916  0.1458 -0.8429 -0.4261
 4024TIP3   OH233562   2.672   4.178   4.766 -0.0416 -0.6391 -0.2048
 4024TIP3    H133563   2.641   4.260   4.806  0.9648 -1.1198  1.7109
 4024TIP3    H233564   2.594   4.124   4.759 -0.8780  0.7357 -2.2865
 4025TIP3   OH233565   1.650   0.041   0.475 -0.4260 -0.2123  0.5525
 4025TIP3    H133566   1.671   0.059   0.567 -1.5382  0.7896  0.6398
 4025TIP3    H233567   1.564  -0.002   0.478 -0.5084 -0.0966 -0.0249
 4026TIP3   OH233568   6.304   1.697   1.793 -0.0858 -0.3100 -0.2075
 4026TIP3    H133569   6.223   1.705   1.844 -0.0855 -2.4139  0.1872
 4026TIP3    H233570   6.365   1.756   1.837 -1.3341  1.2285 -0.4472
 4027TIP3   OH233571   0.608   4.150  14.934  0.0329 -0.4605 -0.2808
 4027TIP3    H133572   0.527   4.116  14.895 -1.6100  1.3439  1.2779
 4027TIP3    H233573   0.592   4.244  14.941  2.0219 -0.1582  0.6921
 4028TIP3   OH233574   1.695   0.978  11.558  0.0079  0.4407 -0.1135
 4028TIP3    H133575   1.677   0.892  11.596 -0.4037  1.1798  1.4213
 4028TIP3    H233576   1.782   1.002  11.591  0.8204 -0.0355 -1.8032
 4029TIP3   OH233577   3.075   4.548  10.457  0.2943  0.1965  0.6719
 4029TIP3    H133578   3.103   4.639  10.446  1.3176 -0.0356  1.2490
 4029TIP3    H233579   3.122   4.500  10.389 -0.8610  0.2002 -0.1574
 4030TIP3   OH233580   4.860   6.189  14.879 -0.0154  0.2882  0.0534
 4030TIP3    H133581   4.887   6.099  14.860 -1.1314  0.2726 -1.6697
 4030TIP3    H233582   4.911   6.213  14.957  1.0816 -1.4555 -0.0636
 4031TIP3   OH233583   5.183   6.456   6.304 -0.0288 -0.1566 -0.0486
 4031TIP3    H133584   5.178   6.530   6.244 -1.0099  0.2180  0.4672
 4031TIP3    H233585   5.193   6.497   6.390  0.7973 -0.6700  0.1064
 4032TIP3   OH233586   4.464   5.552  16.997  0.5416 -0.5696 -0.2765
 4032TIP3    H133587   4.503   5.485  17.054 -0.4872 -0.3942  0.6699
 4032TIP3    H233588   4.417   5.502  16.930 -3.2360 -1.0427  2.3913
 4033TIP3   OH233589   1.299   1.011  16.283 -0.0638  0.3669 -0.0810
 4033TIP3    H133590   1.263   0.976  16.202 -0.1343  0.2017  0.0229
 4033TIP3    H233591   1.282   0.944  16.349 -1.5804  1.2349  0.4588
 4034TIP3   OH233592   3.024   1.780   3.480 -0.8412  0.0175  0.3010
 4034TIP3    H133593   3.063   1.703   3.438  1.0681 -0.0369  2.0513
 4034TIP3    H233594   2.930   1.770   3.464 -0.4514 -1.4862 -1.4131
 4035TIP3   OH233595   6.255   3.232  16.024 -0.6925 -0.4543 -0.1881
 4035TIP3    H133596   6.184   3.194  15.972  0.5635 -1.4990 -1.1956
 4035TIP3    H233597   6.226   3.224  16.114 -2.2593  0.0022 -0.6126
 4036TIP3   OH233598   6.321   4.602   0.454  0.2734  0.4775  0.3190
 4036TIP3    H133599   6.411   4.634   0.455 -0.2870  2.1589  1.2725
 4036TIP3    H233600   6.327   4.511   0.481  1.6817  0.6215  0.5400
 4037TIP3   OH233601   0.787   6.768  11.201  0.4964  0.5315 -0.0917
 4037TIP3    H133602   0.799   6.803  11.289  1.9504  1.4397 -0.6085
 4037TIP3    H233603   0.832   6.683  11.203  1.1696  0.8750 -0.1340
 4038TIP3   OH233604   4.493   0.577  17.148  0.1087 -0.1215 -0.3294
 4038TIP3    H133605   4.420   0.637  17.159  0.3600  0.7415 -2.7422
 4038TIP3    H233606   4.453   0.492  17.134 -0.6033  0.5439 -2.9153
 4039TIP3   OH233607   2.275   0.907  12.242 -0.2806 -0.0009 -0.6216
 4039TIP3    H133608   2.185   0.893  12.211 -0.9778 -0.3552  1.3833
 4039TIP3    H233609   2.314   0.966  12.178 -2.1881  0.7714 -1.1397
 4040TIP3   OH233610   1.264   6.515  16.423 -0.4775 -0.4990  0.7374
 4040TIP3    H133611   1.230   6.531  16.510 -3.3069 -0.1792 -0.3145
 4040TIP3    H233612   1.287   6.602  16.389 -2.7903 -0.1214 -0.0407
 4041TIP3   OH233613   0.873   0.267   0.158 -0.4457 -0.1265 -0.2182
 4041TIP3    H133614   0.850   0.357   0.133  0.6047  0.7860  1.8089
 4041TIP3    H233615   0.819   0.212   0.103 -1.8984  1.7802 -0.8067
 4042TIP3   OH233616   4.644   3.060  14.263  0.2589 -0.2480  0.8336
 4042TIP3    H133617   4.571   3.103  14.218  0.1502 -2.7528 -1.7033
 4042TIP3    H233618   4.628   3.076  14.356 -2.5492  0.7937  0.2867
 4043TIP3   OH233619   1.527   4.678   6.035 -0.6462  0.0130 -0.8645
 4043TIP3    H133620   1.489   4.757   5.997  2.2274  0.9942 -2.0105
 4043TIP3    H233621   1.621   4.685   6.015  0.3876 -1.6867  2.5490
 4044TIP3   OH233622   4.980   3.093  14.820  0.2043  0.1850  0.1370
 4044TIP3    H133623   4.940   3.179  14.837 -0.2516  0.2290 -1.0385
 4044TIP3    H233624   4.944   3.037  14.889  0.7975  1.0096  1.1456
 4045TIP3   OH233625   0.922   3.319  17.024 -0.4240  0.2066 -0.3756
 4045TIP3    H133626   1.011   3.355  17.027  0.5959 -2.0543 -1.2614
 4045TIP3    H233627   0.917   3.261  17.101 -1.0593  0.1349 -0.4646
 4046TIP3   OH233628   4.141   6.576  14.835  0.7531 -0.5810 -0.6163
 4046TIP3    H133629   4.134   6.486  14.802  1.1512 -0.3801 -1.2484
 4046TIP3    H233630   4.051   6.604  14.847  0.5395 -0.2870 -2.5610
 4047TIP3   OH233631   4.796   3.726   1.012 -0.4855 -0.5162 -0.1099
 4047TIP3    H133632   4.727   3.691   0.956  0.1580 -1.1684 -0.5171
 4047TIP3    H233633   4.750   3.768   1.084 -1.3863  1.1277 -1.5519
 4048TIP3   OH233634   4.762   6.224  12.789 -0.2323 -0.0013  0.2310
 4048TIP3    H133635   4.807   6.169  12.853 -0.4239  1.1062  1.3544
 4048TIP3    H233636   4.829   6.287  12.760  0.6910 -2.1793 -2.8328
 4049TIP3   OH233637   2.754   1.645   5.929 -0.2406 -0.7552 -0.9148
 4049TIP3    H133638   2.719   1.684   5.849 -1.1059  2.8078  0.9600
 4049TIP3    H233639   2.678   1.603   5.970 -0.7147  0.5973 -0.3309
 4050TIP3   OH233640   1.161   5.851   5.693 -0.0811 -0.1881 -0.2435
 4050TIP3    H133641   1.132   5.787   5.757 -1.1795  0.6616  0.1387
 4050TIP3    H233642   1.178   5.930   5.745 -0.1003  0.2402 -0.8783
 4051TIP3   OH233643   2.595   2.273  15.331 -0.5536 -0.2200  0.1439
 4051TIP3    H133644   2.563   2.186  15.308  0.3647 -0.0709 -1.8569
 4051TIP3    H233645   2.690   2.262  15.344 -0.4503  0.4490  0.0260
 4052TIP3   OH233646   0.237   4.899   1.937 -0.2960 -0.3227  0.0346
 4052TIP3    H133647   0.321   4.858   1.915 -0.1603 -1.4748  2.4214
 4052TIP3    H233648   0.256   4.952   2.015 -1.2244  1.7052 -1.0287
 4053TIP3   OH233649   3.943   5.829  17.162  0.5294  0.0686 -0.0275
 4053TIP3    H133650   3.886   5.830  17.239  0.3836 -1.9029 -0.0637
 4053TIP3    H233651   4.004   5.902  17.176 -0.5677  0.8182  1.0895
 4054TIP3   OH233652   5.495   2.080   5.563 -0.1235 -0.1580 -0.7530
 4054TIP3    H133653   5.476   2.054   5.653  1.1831  1.1048 -0.0662
 4054TIP3    H233654   5.418   2.051   5.513 -2.1289  1.4287  1.1999
 4055TIP3   OH233655   0.069   5.288  12.206  0.4621 -0.3697 -0.2345
 4055TIP3    H133656  -0.015   5.246  12.190  0.1685  0.3897 -0.7442
 4055TIP3    H233657   0.123   5.264  12.132  1.0375 -1.6726  0.5777
 4056TIP3   OH233658   4.733   1.295  13.443 -0.4179  0.3876 -0.0142
 4056TIP3    H133659   4.790   1.221  13.459 -0.1374  0.5714 -0.1671
 4056TIP3    H233660   4.650   1.256  13.416 -0.5599  0.1020  0.8026
 4057TIP3   OH233661   4.158   4.224   3.430 -0.3693  0.3051  0.0546
 4057TIP3    H133662   4.067   4.208   3.405 -0.0685 -0.9759 -0.3241
 4057TIP3    H233663   4.178   4.154   3.493 -0.2396  1.7577  1.7249
 4058TIP3   OH233664   2.821   1.474   4.205  0.3489 -0.2126  0.4574
 4058TIP3    H133665   2.858   1.466   4.293  0.8818  2.4526  0.5726
 4058TIP3    H233666   2.895   1.500   4.150  0.2817 -2.9660 -1.0986
 4059TIP3   OH233667   0.797   2.695  16.679 -0.0621 -0.1104  0.7500
 4059TIP3    H133668   0.859   2.767  16.668 -2.0150  1.3793 -1.3788
 4059TIP3    H233669   0.782   2.691  16.773  0.8023  1.6511  1.0045
 4060TIP3   OH233670   2.940   1.296   5.912  0.2338 -0.0303 -0.5245
 4060TIP3    H133671   2.873   1.291   5.980 -0.0466 -0.6843 -0.8366
 4060TIP3    H233672   3.018   1.258   5.952 -0.3457 -1.8630 -1.0380
 4061TIP3   OH233673   0.316   0.496  12.203  0.5994 -0.1463  0.3088
 4061TIP3    H133674   0.392   0.533  12.158 -0.2362  0.2356 -0.8175
 4061TIP3    H233675   0.339   0.501  12.296  1.5718  0.8138  0.0388
 4062TIP3   OH233676   4.938   5.217   1.650 -0.2999  0.3570 -0.0697
 4062TIP3    H133677   4.991   5.138   1.640  0.4648  0.6262  1.4999
 4062TIP3    H233678   4.950   5.264   1.568 -0.8409 -1.1766 -1.0661
 4063TIP3   OH233679   1.848   4.669   2.028 -0.1231  0.1393 -0.9606
 4063TIP3    H133680   1.923   4.640   2.080 -0.7056 -0.2537 -0.3360
 4063TIP3    H233681   1.852   4.615   1.949 -0.3814 -0.6569 -0.4363
 4064TIP3   OH233682   2.934   4.890   3.179 -0.0917 -0.4741 -0.0120
 4064TIP3    H133683   3.002   4.857   3.120 -0.0167  0.0802 -0.2442
 4064TIP3    H233684   2.894   4.963   3.131 -0.2588 -0.2339  0.4805
 4065TIP3   OH233685   0.226   4.335  14.684  0.3415 -0.7550 -0.0941
 4065TIP3    H133686   0.262   4.264  14.632  2.1848  0.1752 -0.1752
 4065TIP3    H233687   0.267   4.414  14.648 -1.4865  0.3444  0.1174
 4066TIP3   OH233688   4.485   0.311  14.220 -0.2779  0.1581 -0.0413
 4066TIP3    H133689   4.508   0.391  14.268 -0.0155  0.8344 -1.2367
 4066TIP3    H233690   4.424   0.341  14.152 -1.1857 -0.8825  0.2855
 4067TIP3   OH233691   3.293   2.084  11.708 -0.2985  0.1195  0.1423
 4067TIP3    H133692   3.273   2.163  11.657 -1.1595 -0.6804 -0.7901
 4067TIP3    H233693   3.321   2.118  11.793 -0.8852  1.4250 -0.1500
 4068TIP3   OH233694   4.597   3.440  15.904 -0.5710 -0.3535 -0.0302
 4068TIP3    H133695   4.675   3.385  15.914  0.6038  1.5711  2.4152
 4068TIP3    H233696   4.540   3.413  15.977 -1.2491 -0.2833 -0.5318
 4069TIP3   OH233697   0.709   6.475   5.045  0.0619  0.6587 -0.0041
 4069TIP3    H133698   0.746   6.390   5.021  2.7479  1.9217 -0.7385
 4069TIP3    H233699   0.645   6.493   4.977  0.8052 -0.0059 -0.9160
 4070TIP3   OH233700   4.240   6.794  15.032 -0.3038  0.5767 -1.0110
 4070TIP3    H133701   4.183   6.840  15.093  1.4816  0.0909  1.1415
 4070TIP3    H233702   4.212   6.702  15.037  0.0878  0.4754 -0.6041
 4071TIP3   OH233703   1.146   6.392   5.488 -0.3308 -0.1414 -0.4165
 4071TIP3    H133704   1.203   6.315   5.482  0.2078  0.2729 -0.6512
 4071TIP3    H233705   1.057   6.355   5.488 -0.0558 -0.8524  1.1747
 4072TIP3   OH233706   0.675   3.958  13.461  0.1586 -0.4435 -0.4031
 4072TIP3    H133707   0.732   4.009  13.519  0.1767 -0.1701 -0.6623
 4072TIP3    H233708   0.710   3.972  13.373  0.5884 -1.4609 -0.4066
 4073TIP3   OH233709   1.802   6.214  11.315 -0.4541 -0.0832  0.6621
 4073TIP3    H133710   1.790   6.150  11.385  1.6770  0.0579  1.2219
 4073TIP3    H233711   1.881   6.262  11.339 -1.7651  2.5554  0.0646
 4074TIP3   OH233712   5.670   4.505   5.424 -0.4022 -0.3501  0.1990
 4074TIP3    H133713   5.757   4.541   5.440 -0.9514  1.1515  0.0080
 4074TIP3    H233714   5.672   4.418   5.465  0.6447  0.3231  1.6788
 4075TIP3   OH233715   4.011   1.426   0.831 -0.0055 -0.2533 -0.5936
 4075TIP3    H133716   3.935   1.481   0.849  1.6314  1.8419  0.3012
 4075TIP3    H233717   4.029   1.439   0.737 -0.3894 -0.2764 -0.6699
 4076TIP3   OH233718   4.639   4.270   3.390 -0.1032  0.0092 -0.3402
 4076TIP3    H133719   4.592   4.310   3.463  1.4965  1.1128  0.1492
 4076TIP3    H233720   4.706   4.216   3.432  0.0597 -0.3086 -0.9973
 4077TIP3   OH233721   2.673   1.415   1.376  0.0942  0.1009 -0.1648
 4077TIP3    H133722   2.663   1.469   1.455  1.2325  1.3797 -0.8450
 4077TIP3    H233723   2.641   1.471   1.305  0.7768 -0.3250 -0.8216
 4078TIP3   OH233724   5.887   2.450   1.939 -0.2670 -0.0080 -0.5235
 4078TIP3    H133725   5.841   2.509   1.998  0.0853  0.1367 -0.3928
 4078TIP3    H233726   5.924   2.383   1.996  0.2778  0.2648 -0.5456
 4079TIP3   OH233727   1.892   2.825   1.559  0.2030 -0.1353  0.3519
 4079TIP3    H133728   1.870   2.777   1.640  1.9071  1.0904  1.6307
 4079TIP3    H233729   1.982   2.798   1.540 -0.9946 -2.4804 -2.7866
 4080TIP3   OH233730   0.577   5.154   5.141  0.1026  0.5531 -0.1618
 4080TIP3    H133731   0.586   5.085   5.076 -1.0476 -0.8120  1.0737
 4080TIP3    H233732   0.526   5.222   5.097 -0.4960 -0.2664 -0.7526
 4081TIP3   OH233733   2.240   6.547   3.314  0.4248 -0.9252 -0.1150
 4081TIP3    H133734   2.215   6.509   3.230 -0.7017 -0.1204 -0.1737
 4081TIP3    H233735   2.160   6.542   3.368  0.3419  0.8868  0.0099
 4082TIP3   OH233736   2.391   2.962   1.224  0.1483 -0.6039 -0.9539
 4082TIP3    H133737   2.424   2.967   1.313 -0.7769 -0.3775 -0.6196
 4082TIP3    H233738   2.351   2.875   1.217  1.7345 -1.3200 -1.6993
 4083TIP3   OH233739   0.343   1.746  15.925  0.0100  0.1939  0.3538
 4083TIP3    H133740   0.260   1.756  15.972 -0.3977 -0.6999 -0.1555
 4083TIP3    H233741   0.406   1.723  15.992 -0.4550 -0.5366  0.5490
 4084TIP3   OH233742   2.566   0.008   3.304  0.0119  0.5579  0.3954
 4084TIP3    H133743   2.533  -0.042   3.229 -0.2578  0.5600  0.5107
 4084TIP3    H233744   2.495   0.004   3.368  0.3271  0.3751  0.7377
 4085TIP3   OH233745   5.464   2.108  14.595  0.7495  0.1698  0.2544
 4085TIP3    H133746   5.482   2.191  14.640 -0.7774  0.3517  0.5992
 4085TIP3    H233747   5.379   2.122  14.552  0.9702 -0.8696 -0.5654
 4086TIP3   OH233748   5.326   0.906   5.493  0.2318 -0.5770 -0.0453
 4086TIP3    H133749   5.307   0.997   5.518 -0.2520  0.0799 -2.5845
 4086TIP3    H233750   5.400   0.913   5.433 -1.5065 -1.5001 -2.4299
 4087TIP3   OH233751   5.981   1.492   3.770  0.1018 -0.0070  0.0554
 4087TIP3    H133752   5.995   1.544   3.849  0.5738 -1.5271  1.0236
 4087TIP3    H233753   5.943   1.410   3.802 -0.7593 -0.2181 -1.4304
 4088TIP3   OH233754   5.800   0.853   4.548 -0.2687 -0.2226  0.3029
 4088TIP3    H133755   5.808   0.818   4.459  1.5958 -0.5133  0.5577
 4088TIP3    H233756   5.851   0.934   4.547 -1.8148  0.8096  0.6293
 4089TIP3   OH233757   4.776   5.796  16.513  0.4490  0.1681  0.1947
 4089TIP3    H133758   4.755   5.742  16.437 -2.6666  1.7930 -0.2861
 4089TIP3    H233759   4.727   5.756  16.585  0.0899  0.9299  0.3840
 4090TIP3   OH233760   5.171   4.746  16.401 -0.5780 -0.1210  0.0599
 4090TIP3    H133761   5.148   4.653  16.407 -1.9415  0.2703  2.7198
 4090TIP3    H233762   5.103   4.784  16.345  0.4105 -0.7874 -1.6579
 4091TIP3   OH233763   5.613   1.547   1.940  0.1366  0.7932 -0.3219
 4091TIP3    H133764   5.699   1.531   1.980 -0.9113 -0.1616  1.7336
 4091TIP3    H233765   5.602   1.476   1.877 -0.9981 -2.1233  2.8145
 4092TIP3   OH233766   3.818   5.573  16.530  0.3614 -0.0925 -0.0828
 4092TIP3    H133767   3.735   5.542  16.566  1.2086 -0.8732  1.3243
 4092TIP3    H233768   3.816   5.548  16.438 -0.2831 -1.6521  0.3209
 4093TIP3   OH233769   6.198   6.247   6.546  0.2739  0.3109 -0.1241
 4093TIP3    H133770   6.187   6.328   6.595  0.3491  0.5365 -0.4762
 4093TIP3    H233771   6.117   6.237   6.496 -0.2758 -0.5086  0.8890
 4094TIP3   OH233772   3.319   0.164  16.694 -0.6908  0.0396  0.1220
 4094TIP3    H133773   3.357   0.207  16.617  0.0038  0.3730  0.6369
 4094TIP3    H233774   3.307   0.235  16.757 -0.9088 -0.2863  0.4490
 4095TIP3   OH233775   0.042   4.712   2.640  0.7647  0.4371  0.0661
 4095TIP3    H133776   0.020   4.679   2.727  0.0900 -2.1074 -0.9596
 4095TIP3    H233777   0.135   4.732   2.645  1.3066 -1.9283  0.8153
 4096TIP3   OH233778   5.973   6.325  15.813 -0.1878  0.0770 -0.1522
 4096TIP3    H133779   5.935   6.358  15.895  2.4500 -1.5291  1.8665
 4096TIP3    H233780   5.940   6.235  15.806  1.8376 -0.8146  0.8306
 4097TIP3   OH233781   2.774   4.423  14.647  0.4305 -1.0348 -0.4835
 4097TIP3    H133782   2.742   4.443  14.559  1.1165 -2.3118 -1.0562
 4097TIP3    H233783   2.803   4.507  14.681 -1.9909 -0.1057 -0.5465
 4098TIP3   OH233784   3.859   6.053   2.436  0.1113 -0.2529 -0.0675
 4098TIP3    H133785   3.835   5.974   2.484 -1.6368  0.6650  0.6907
 4098TIP3    H233786   3.869   6.025   2.345 -1.0670 -1.2510  0.0904
 4099TIP3   OH233787   3.036   0.637  13.494  0.5129 -0.0719 -0.2482
 4099TIP3    H133788   2.996   0.709  13.543 -0.4319 -1.3570  0.9490
 4099TIP3    H233789   3.117   0.674  13.459  0.1262  1.5243  0.4456
 4100TIP3   OH233790   3.960   4.686  16.547 -0.1344 -0.3958  0.1089
 4100TIP3    H133791   3.928   4.731  16.626 -2.4675 -1.7022 -0.0127
 4100TIP3    H233792   3.959   4.594  16.571 -1.3613 -0.8627 -1.5792
 4101TIP3   OH233793   6.382   5.157   2.559  0.3330  0.3468  0.3071
 4101TIP3    H133794   6.333   5.076   2.545 -0.7119  0.8210  1.0843
 4101TIP3    H233795   6.473   5.133   2.543 -0.1728 -0.4283 -1.7610
 4102TIP3   OH233796   3.318   3.527  12.470  0.3196 -0.1117  0.7794
 4102TIP3    H133797   3.241   3.571  12.434 -0.1077 -1.2572  0.2288
 4102TIP3    H233798   3.356   3.480  12.396  1.4073  0.2271  1.1051
 4103TIP3   OH233799   4.828   3.335  13.278  0.9836  0.0986 -0.1432
 4103TIP3    H133800   4.801   3.407  13.221  0.9965 -0.1380 -0.4538
 4103TIP3    H233801   4.825   3.258  13.221 -2.5818 -0.8369  1.0192
 4104TIP3   OH233802   5.067   6.232   2.955 -0.1601 -0.4753  0.1098
 4104TIP3    H133803   5.020   6.284   2.890  0.6389 -0.7433 -0.7052
 4104TIP3    H233804   5.019   6.149   2.957 -1.2968  0.1738  1.2430
 4105TIP3   OH233805   2.713   6.793   5.255 -0.5216  0.1932 -0.1310
 4105TIP3    H133806   2.731   6.875   5.300  0.3985  0.5549 -1.1076
 4105TIP3    H233807   2.796   6.745   5.257 -0.1911  0.5989 -2.1548
 4106TIP3   OH233808   1.878   5.825  12.125  0.3018  0.4738 -0.4529
 4106TIP3    H133809   1.846   5.895  12.183  0.5108  1.4476 -1.4652
 4106TIP3    H233810   1.798   5.785  12.090  0.1635 -0.4189  0.8036
 4107TIP3   OH233811   1.554   6.295  11.235 -0.0656  0.1144 -0.2873
 4107TIP3    H133812   1.640   6.262  11.261  0.1138  0.5826 -0.2801
 4107TIP3    H233813   1.561   6.306  11.140 -0.7510 -1.6912 -0.5933
 4108TIP3   OH233814   2.721   6.360   1.116 -0.4652  0.0161 -0.0327
 4108TIP3    H133815   2.721   6.344   1.211 -0.8556 -3.9349 -0.5351
 4108TIP3    H233816   2.630   6.347   1.090 -0.3070  0.7850 -1.0466
 4109TIP3   OH233817   4.965   2.443   3.833 -0.4104  0.0287  0.7565
 4109TIP3    H133818   4.969   2.347   3.828 -0.3629  0.0754 -0.4725
 4109TIP3    H233819   4.926   2.461   3.918  2.7853 -0.9981  2.6053
 4110TIP3   OH233820   0.396   2.057  13.002 -0.2274  0.2385 -0.3180
 4110TIP3    H133821   0.463   2.111  13.044  0.4367 -0.4111 -0.5227
 4110TIP3    H233822   0.418   2.062  12.909  1.3631 -2.3557 -0.1562
 4111TIP3   OH233823   5.668   2.411  15.061  0.7222  0.5178  0.1314
 4111TIP3    H133824   5.589   2.395  15.113  0.7739 -0.8748 -0.1902
 4111TIP3    H233825   5.642   2.479  14.999 -0.6585 -0.8192 -0.8505
 4112TIP3   OH233826   2.662   6.659   0.220  0.0380 -0.3290  0.6108
 4112TIP3    H133827   2.687   6.613   0.301 -0.6426 -0.3848  0.7923
 4112TIP3    H233828   2.693   6.749   0.233 -1.1175 -0.0340  1.4406
 4113TIP3   OH233829   4.429   2.112  12.306 -0.0011 -0.1709 -0.4169
 4113TIP3    H133830   4.430   2.113  12.401  0.7304  0.3956 -0.4199
 4113TIP3    H233831   4.344   2.148  12.282  0.2914  0.8244  0.0200
 4114TIP3   OH233832   2.293   6.784   2.136 -0.2843 -0.0234 -0.6079
 4114TIP3    H133833   2.383   6.816   2.133 -0.4403  0.4093 -0.7517
 4114TIP3    H233834   2.301   6.689   2.137  0.2027  0.0166  0.4970
 4115TIP3   OH233835   5.381   1.732   5.699  0.2507  0.3777 -0.2567
 4115TIP3    H133836   5.368   1.777   5.615 -1.9100  2.3723  1.0093
 4115TIP3    H233837   5.460   1.772   5.736  0.8980 -0.1253 -1.0426
 4116TIP3   OH233838   0.639   2.173  16.379 -0.3128  0.2410  0.1311
 4116TIP3    H133839   0.649   2.169  16.284 -0.2803 -0.0170  0.1464
 4116TIP3    H233840   0.673   2.259  16.403  0.7701 -0.1560  0.0481
 4117TIP3   OH233841   4.609   3.351   4.280 -0.3855  0.3512  0.1561
 4117TIP3    H133842   4.664   3.272   4.281 -0.7589 -0.0369 -2.4909
 4117TIP3    H233843   4.672   3.423   4.281  0.0600 -0.0259 -0.1089
 4118TIP3   OH233844   4.873   4.631  12.194 -0.2971  0.1647  0.4435
 4118TIP3    H133845   4.891   4.721  12.221 -0.8952  0.0517  1.2650
 4118TIP3    H233846   4.856   4.584  12.276 -0.5655 -0.5631 -0.0156
 4119TIP3   OH233847   0.112   5.113   5.549 -0.1577 -0.5510  0.5556
 4119TIP3    H133848   0.163   5.033   5.561  0.6080 -0.3033 -0.7839
 4119TIP3    H233849   0.038   5.087   5.494  1.1212 -0.0495 -1.5556
 4120TIP3   OH233850   1.012   0.668  11.889 -0.3856 -0.2219 -0.3619
 4120TIP3    H133851   0.970   0.641  11.807  1.3590  1.7040 -2.0118
 4120TIP3    H233852   0.969   0.750  11.913  0.6585  0.4364 -0.6698
 4121TIP3   OH233853   1.602   4.338  15.046 -0.2102 -0.1829 -0.2564
 4121TIP3    H133854   1.523   4.297  15.080  0.3133 -1.4649 -0.5382
 4121TIP3    H233855   1.575   4.379  14.964 -0.8909  0.6598  0.3763
 4122TIP3   OH233856   5.435   0.833  11.784  0.1683 -0.6573  0.3162
 4122TIP3    H133857   5.347   0.868  11.773  0.8791  0.4450 -2.6150
 4122TIP3    H233858   5.483   0.903  11.829  0.2454 -0.0275 -0.7184
 4123TIP3   OH233859   3.000   3.864  15.316 -0.4529  0.0970 -0.9322
 4123TIP3    H133860   3.049   3.796  15.269  0.2722 -0.9380  1.1640
 4123TIP3    H233861   3.063   3.935  15.326 -0.4885  0.1652 -1.1742
 4124TIP3   OH233862   3.686   0.596   0.331 -0.0216  0.4495  0.7024
 4124TIP3    H133863   3.757   0.552   0.378  0.1221 -1.7911 -1.4218
 4124TIP3    H233864   3.620   0.528   0.319  0.2367  0.6412 -2.8035
 4125TIP3   OH233865   1.945   0.855  11.196 -0.1886 -0.2303 -0.0849
 4125TIP3    H133866   1.860   0.897  11.208  0.4562  0.9230  0.6518
 4125TIP3    H233867   1.994   0.877  11.275  0.9073 -0.6117 -0.6351
 4126TIP3   OH233868   6.462   1.449   5.763  0.2972  0.4468  0.1059
 4126TIP3    H133869   6.438   1.468   5.672 -2.4800  0.0723  0.6693
 4126TIP3    H233870   6.499   1.531   5.795 -0.6106  1.2446 -0.8064
 4127TIP3   OH233871   1.384   5.156  16.703  0.4713  0.6666  0.1789
 4127TIP3    H133872   1.453   5.167  16.638  0.3111 -0.8449 -0.2960
 4127TIP3    H233873   1.427   5.112  16.776 -0.1880 -1.4368 -0.6215
 4128TIP3   OH233874   0.779   0.236   1.324 -0.5765 -0.0716 -0.3992
 4128TIP3    H133875   0.715   0.187   1.376  0.3826 -0.5719  0.3417
 4128TIP3    H233876   0.847   0.172   1.303 -0.3046  0.4516 -1.1707
 4129TIP3   OH233877   6.156   2.950  16.257 -0.1414  0.3723 -0.0398
 4129TIP3    H133878   6.156   2.895  16.179 -0.7662  0.4908 -0.1272
 4129TIP3    H233879   6.064   2.973  16.270  0.2846  3.1210 -1.2149
 4130TIP3   OH233880   4.039   2.021   4.876  0.0325 -0.6677  0.2283
 4130TIP3    H133881   4.070   1.963   4.945  2.7862  1.5362  1.0173
 4130TIP3    H233882   4.115   2.036   4.820 -0.4918  2.1586  0.1017
 4131TIP3   OH233883   6.250   4.834  16.191 -0.1190 -0.3687 -0.3162
 4131TIP3    H133884   6.156   4.839  16.173 -0.0815 -2.8172 -1.7164
 4131TIP3    H233885   6.288   4.909  16.145 -1.2961  0.1129 -0.5267
 4132TIP3   OH233886   2.583   3.627   5.364 -0.1138 -0.3070 -0.0297
 4132TIP3    H133887   2.646   3.632   5.292 -1.6531  1.2547 -1.3709
 4132TIP3    H233888   2.539   3.543   5.351  0.2436 -0.4478 -0.3599
 4133TIP3   OH233889   0.482   3.862  15.292  0.7398 -0.3017 -0.1101
 4133TIP3    H133890   0.410   3.857  15.355 -0.3101  0.7569 -1.1785
 4133TIP3    H233891   0.511   3.953  15.296 -0.8484  0.4346 -2.6745
 4134TIP3   OH233892   3.403   3.013  12.449 -0.2660  0.0050  0.6861
 4134TIP3    H133893   3.414   3.108  12.443  0.8223 -0.0774  1.1387
 4134TIP3    H233894   3.472   2.977  12.394 -1.8143 -0.5345 -0.9778
 4135TIP3   OH233895   5.710   0.886  12.250 -0.0553 -0.4640  0.9022
 4135TIP3    H133896   5.615   0.888  12.238  0.0117  0.7872  0.3665
 4135TIP3    H233897   5.734   0.977  12.263  1.0227 -0.8261  1.5601
 4136TIP3   OH233898   0.397   3.330  13.591  0.0253 -0.7767  0.4930
 4136TIP3    H133899   0.317   3.382  13.589 -0.6366 -1.7920 -0.3833
 4136TIP3    H233900   0.467   3.393  13.581 -0.7747 -0.0793 -1.0173
 4137TIP3   OH233901   5.953   4.143   3.806  0.0111 -0.1098  0.3968
 4137TIP3    H133902   5.998   4.064   3.837  1.6936  0.1168 -1.3324
 4137TIP3    H233903   6.010   4.215   3.834 -0.7334  0.4026  0.6178
 4138TIP3   OH233904   0.939   1.687  12.339  0.4119 -0.4413  0.1896
 4138TIP3    H133905   0.919   1.779  12.358  2.6815  0.1117  0.1053
 4138TIP3    H233906   0.904   1.639  12.414 -1.3018  0.3930 -0.0339
 4139TIP3   OH233907   3.798   4.264  12.641  0.0125 -0.0198 -0.2473
 4139TIP3    H133908   3.866   4.241  12.577  2.3274 -0.4397  2.1860
 4139TIP3    H233909   3.847   4.297  12.716 -2.5213 -0.3048  1.6317
 4140TIP3   OH233910   5.354   0.808   1.392  0.2086  0.3285  0.8409
 4140TIP3    H133911   5.373   0.847   1.307  0.3310 -2.7505 -0.6818
 4140TIP3    H233912   5.439   0.804   1.436  0.4498  0.3614  0.3790
 4141TIP3   OH233913   5.822   4.415   2.168 -0.1715 -0.0677  0.9424
 4141TIP3    H133914   5.811   4.507   2.191 -1.7691  0.3027 -1.0224
 4141TIP3    H233915   5.916   4.399   2.182  0.1449  1.8329  1.3609
 4142TIP3   OH233916   2.648   2.241  16.303  0.2871  0.4099 -0.2157
 4142TIP3    H133917   2.724   2.183  16.308  0.6945  0.9153 -0.4638
 4142TIP3    H233918   2.658   2.285  16.218 -0.4786  0.2087 -0.4162
 4143TIP3   OH233919   2.266   4.437   3.400  0.2848 -0.2928 -0.3872
 4143TIP3    H133920   2.232   4.513   3.353 -2.9090 -0.5105  1.2642
 4143TIP3    H233921   2.312   4.473   3.475 -1.8696  0.1268  0.8065
 4144TIP3   OH233922   3.519   6.345  11.531  0.0855  0.3188 -0.0729
 4144TIP3    H133923   3.454   6.403  11.492  1.0384  1.2991 -0.2386
 4144TIP3    H233924   3.547   6.289  11.459 -0.5240 -0.0750 -0.0125
 4145TIP3   OH233925   5.404   1.953   1.527  0.8395 -0.3586  0.2840
 4145TIP3    H133926   5.467   1.950   1.455  0.4831  0.7893 -0.0980
 4145TIP3    H233927   5.377   1.862   1.539  0.7357 -0.5426 -1.1753
 4146TIP3   OH233928   3.765   3.272   5.726 -0.2237 -0.3916 -0.2076
 4146TIP3    H133929   3.826   3.210   5.766  1.1559  0.8742 -0.2754
 4146TIP3    H233930   3.796   3.282   5.636 -0.5939  0.1758 -0.2814
 4147TIP3   OH233931   3.427   0.767  16.182 -0.4834 -0.3390 -0.0859
 4147TIP3    H133932   3.473   0.688  16.210 -0.7773  0.0319  1.5024
 4147TIP3    H233933   3.441   0.829  16.252 -2.5428  0.1265 -0.0358
 4148TIP3   OH233934   2.089   1.452  13.112 -0.4030  0.3451  0.6040
 4148TIP3    H133935   2.011   1.397  13.122  0.4792 -1.5677 -2.0171
 4148TIP3    H233936   2.159   1.403  13.155  0.2346 -0.2589 -1.0677
 4149TIP3   OH233937   2.872   1.009   2.034  0.5740  0.3157 -0.1070
 4149TIP3    H133938   2.843   1.071   2.101  1.0380  1.2822 -0.7723
 4149TIP3    H233939   2.954   1.047   2.001  2.1360 -1.8412  1.0662
 4150TIP3   OH233940   6.367   3.992   0.605  0.1723  0.1783 -0.4736
 4150TIP3    H133941   6.318   4.074   0.603 -0.1840  0.1094  2.2622
 4150TIP3    H233942   6.301   3.924   0.602  0.1978  0.0641  1.0031
 4151TIP3   OH233943   3.330   1.393   6.031  0.1101  0.2847 -0.2237
 4151TIP3    H133944   3.282   1.311   6.046 -1.8882  0.9368 -2.3118
 4151TIP3    H233945   3.335   1.435   6.117 -0.3451 -1.2372  0.5776
 4152TIP3   OH233946   2.519   2.970  14.728 -0.3062  0.3884 -0.1175
 4152TIP3    H133947   2.569   2.894  14.700 -1.4865  0.1538 -1.7133
 4152TIP3    H233948   2.585   3.033  14.757  0.7394 -0.8447  0.2646
 4153TIP3   OH233949   0.439   5.283   3.073 -0.3266 -0.0704  0.2115
 4153TIP3    H133950   0.403   5.357   3.122  0.8260  0.0392  0.9320
 4153TIP3    H233951   0.367   5.221   3.067 -2.0205  1.9020 -2.2234
 4154TIP3   OH233952   4.790   2.995  15.796 -0.0702  0.0036 -0.3252
 4154TIP3    H133953   4.857   3.051  15.836 -0.8229  0.6280  0.0990
 4154TIP3    H233954   4.767   2.932  15.865  0.1256 -0.2547 -0.4937
 4155TIP3   OH233955   1.933   3.595  14.420 -0.2245 -0.6383  0.7512
 4155TIP3    H133956   2.015   3.596  14.470 -0.3675 -2.4622  1.1040
 4155TIP3    H233957   1.949   3.653  14.346  1.4694 -1.0937  0.7192
 4156TIP3   OH233958   4.336   1.248  10.991  0.3623  0.0863  0.2843
 4156TIP3    H133959   4.414   1.239  10.936  0.3034 -0.2355  0.2532
 4156TIP3    H233960   4.289   1.322  10.953 -0.6719 -1.3217 -1.3153
 4157TIP3   OH233961   1.334   1.152  16.724 -0.4232  0.3876  0.2323
 4157TIP3    H133962   1.408   1.149  16.663 -1.1489  1.1782 -0.7091
 4157TIP3    H233963   1.286   1.070  16.709 -3.5502  2.6422 -4.1359
 4158TIP3   OH233964   2.052   4.142   2.533  0.1696  1.2882  0.2963
 4158TIP3    H133965   1.988   4.087   2.578  0.9679  0.2004  0.1363
 4158TIP3    H233966   2.000   4.197   2.474 -0.4544 -2.1210 -2.6202
 4159TIP3   OH233967   2.608   5.276  12.249 -0.1887  0.6055  0.0987
 4159TIP3    H133968   2.630   5.359  12.289  1.8257  1.3705 -2.3172
 4159TIP3    H233969   2.574   5.299  12.162 -1.1137 -1.0541 -0.0355
 4160TIP3   OH233970   6.675   5.852  15.901 -0.0874 -0.1745 -0.3261
 4160TIP3    H133971   6.734   5.914  15.858  1.2648 -1.0611  0.1737
 4160TIP3    H233972   6.728   5.773  15.912 -0.7969 -0.4138  1.7927
 4161TIP3   OH233973   0.459   3.668  14.175  0.0580 -0.1045 -0.0800
 4161TIP3    H133974   0.462   3.672  14.080 -1.5210  0.8561 -0.1219
 4161TIP3    H233975   0.400   3.739  14.201 -0.6600 -1.2078  1.5278
 4162TIP3   OH233976   2.848   3.507   3.206  0.2281 -0.5875  0.3751
 4162TIP3    H133977   2.914   3.450   3.167  0.7116 -1.3767  2.2397
 4162TIP3    H233978   2.882   3.595   3.191  0.0587 -0.8001 -1.5080
 4163TIP3   OH233979   1.698   0.744   4.590  0.0089 -0.3041  0.3485
 4163TIP3    H133980   1.675   0.819   4.645  0.9453  0.2025  0.0513
 4163TIP3    H233981   1.637   0.750   4.516  1.0558  1.0495 -0.4495
 4164TIP3   OH233982   2.642   1.912  14.025  0.3747  0.3842 -1.1355
 4164TIP3    H133983   2.680   1.990  13.984 -0.0997  0.7586 -0.8757
 4164TIP3    H233984   2.702   1.841  14.002  0.5465  0.7321 -1.7925
 4165TIP3   OH233985   4.149   0.069  16.936 -0.9386  0.2313  0.3977
 4165TIP3    H133986   4.105   0.143  16.893 -2.0251  0.2018  1.4111
 4165TIP3    H233987   4.174   0.011  16.863 -1.4835  0.8494 -0.2993
 4166TIP3   OH233988   2.162   1.802   2.899  0.2050  0.3739  0.0530
 4166TIP3    H133989   2.217   1.739   2.945  1.7339  1.3882 -0.3311
 4166TIP3    H233990   2.208   1.885   2.907 -0.6389  1.0179 -1.3686
 4167TIP3   OH233991   3.438   1.281   4.160 -0.1506  0.5564 -0.1707
 4167TIP3    H133992   3.464   1.373   4.156 -1.1801  0.8423 -0.5479
 4167TIP3    H233993   3.395   1.273   4.245  1.7570 -0.1000  0.7967
 4168TIP3   OH233994   5.217   2.929  13.802 -0.4364 -0.0392  0.0648
 4168TIP3    H133995   5.170   2.902  13.722  1.5109 -0.0159 -1.1594
 4168TIP3    H233996   5.293   2.976  13.769  0.6623 -0.4162  1.9476
 4169TIP3   OH233997   2.039   2.956   1.250 -0.0398 -0.2556  0.2772
 4169TIP3    H133998   2.054   2.876   1.201  1.2084 -0.2528  0.6169
 4169TIP3    H233999   2.070   2.936   1.339 -1.4643  0.0097  0.8688
 4170TIP3   OH234000   3.408   2.876  16.179 -0.2299 -0.4199 -0.0901
 4170TIP3    H134001   3.413   2.871  16.275 -3.5120  1.7454  0.3701
 4170TIP3    H234002   3.464   2.950  16.157 -1.4684  0.7288  0.5102
 4171TIP3   OH234003   0.813   3.332   4.297 -0.5490 -0.3718  0.7203
 4171TIP3    H134004   0.891   3.386   4.312 -0.3256 -0.3034 -0.5584
 4171TIP3    H234005   0.844   3.257   4.247 -1.0422 -1.1777  1.5898
 4172TIP3   OH234006   2.911   1.105   2.312  0.0464 -0.8859  0.0678
 4172TIP3    H134007   2.994   1.097   2.359 -0.6409 -0.7157  1.3491
 4172TIP3    H234008   2.896   1.200   2.309 -1.1586 -0.9806  1.8075
 4173TIP3   OH234009   0.357   0.721  14.633 -0.5026 -0.0039  0.4576
 4173TIP3    H134010   0.310   0.638  14.640 -1.9741  0.7829  0.2955
 4173TIP3    H234011   0.449   0.697  14.640 -0.8693 -1.7042 -0.0902
 4174TIP3   OH234012   1.301   6.415  13.026  0.5641  0.4740 -0.0742
 4174TIP3    H134013   1.217   6.371  13.020  1.4183 -1.3199  0.5930
 4174TIP3    H234014   1.362   6.357  12.981  1.7734  0.8053  1.0838
 4175TIP3   OH234015   3.043   5.984   2.750 -0.0946  0.2934 -0.0247
 4175TIP3    H134016   3.054   6.079   2.748  4.0855 -0.0150  0.3175
 4175TIP3    H234017   3.076   5.954   2.665 -1.2066 -0.9004 -0.0605
 4176TIP3   OH234018   1.815   1.391   2.988 -0.1751  0.0042 -0.4693
 4176TIP3    H134019   1.882   1.408   2.922 -0.7287  0.1627 -1.0013
 4176TIP3    H234020   1.833   1.301   3.018  0.9213  0.4188  0.1767
 4177TIP3   OH234021   5.945   5.199  16.262  0.1255 -0.1925  0.0303
 4177TIP3    H134022   6.017   5.243  16.305  0.5191  0.0580 -0.8493
 4177TIP3    H234023   5.917   5.131  16.324  1.0481 -0.2237  0.4267
 4178TIP3   OH234024   0.822   0.689   2.592  0.3717  0.1159 -0.2572
 4178TIP3    H134025   0.861   0.613   2.636  2.4402  1.7659  0.9478
 4178TIP3    H234026   0.882   0.707   2.519  1.4641  2.1005  1.0406
 4179TIP3   OH234027   5.425   4.842  11.689 -0.0826 -0.0516 -0.3191
 4179TIP3    H134028   5.399   4.750  11.676  2.4010 -0.9565  0.4701
 4179TIP3    H234029   5.403   4.860  11.781 -2.6565  0.9854 -1.0391
 4180TIP3   OH234030   5.853   0.613  12.365 -1.0705  0.9048 -0.0964
 4180TIP3    H134031   5.791   0.554  12.323 -1.1872  0.0253  1.2621
 4180TIP3    H234032   5.865   0.684  12.302 -1.4074 -0.2409 -1.5064
 4181TIP3   OH234033   6.291   0.674   2.406  0.0627  0.2709 -0.4301
 4181TIP3    H134034   6.276   0.592   2.453  2.6452  0.3941  0.7731
 4181TIP3    H234035   6.341   0.649   2.329  1.5843  0.7249  0.3604
 4182TIP3   OH234036   4.953   3.493  12.431  0.0512  1.0025  0.0699
 4182TIP3    H134037   4.935   3.505  12.524 -0.6809 -1.9223  0.4161
 4182TIP3    H234038   4.866   3.491  12.390  0.2636  0.3749 -0.3624
 4183TIP3   OH234039   3.645   1.656  15.984  0.4616 -0.4626  0.0656
 4183TIP3    H134040   3.713   1.623  16.043  0.9306  0.6812  0.1796
 4183TIP3    H234041   3.686   1.729  15.938 -0.4294 -0.2937 -0.4798
 4184TIP3   OH234042   1.698   3.754  11.354  0.4479  0.2824 -0.2757
 4184TIP3    H134043   1.667   3.739  11.443 -1.1761 -0.9857 -1.0159
 4184TIP3    H234044   1.793   3.740  11.359  0.5262  1.1081  1.3965
 4185TIP3   OH234045   3.785   0.004   2.402  0.0037  0.5841 -0.3005
 4185TIP3    H134046   3.703  -0.018   2.446  0.0390  0.3218 -0.3613
 4185TIP3    H234047   3.760   0.066   2.333 -0.1910  0.2574 -0.5274
 4186TIP3   OH234048   2.882   3.735  16.728  0.2866  0.2005 -0.0872
 4186TIP3    H134049   2.881   3.803  16.795  0.2404 -0.1908  0.3157
 4186TIP3    H234050   2.886   3.783  16.645  0.2804  0.6906  0.1906
 4187TIP3   OH234051   3.351   3.711  15.447  0.1106 -0.2970  0.0042
 4187TIP3    H134052   3.428   3.764  15.428  0.1250 -0.9334 -2.0451
 4187TIP3    H234053   3.386   3.632  15.488  0.6722 -0.8606 -1.4871
 4188TIP3   OH234054   6.762   4.695  16.986 -0.3340 -0.3724 -0.0960
 4188TIP3    H134055   6.809   4.779  16.980  0.1167 -0.4620  1.5939
 4188TIP3    H234056   6.779   4.652  16.902  1.8875  0.0078  0.0878
 4189TIP3   OH234057   1.186   5.353   4.996 -0.0938  0.3770  0.1520
 4189TIP3    H134058   1.223   5.266   4.983  1.3185  0.9377  0.2420
 4189TIP3    H234059   1.135   5.370   4.917 -0.1502 -0.4111  0.0118
 4190TIP3   OH234060   1.795   0.175   0.921  0.2792 -0.4168 -0.4180
 4190TIP3    H134061   1.779   0.199   1.012  0.6851  0.4355 -0.5645
 4190TIP3    H234062   1.886   0.199   0.905  0.6157 -1.7492 -0.6855
 4191TIP3   OH234063   4.762   4.179  16.158  0.4964 -0.2948  0.2932
 4191TIP3    H134064   4.788   4.087  16.151  0.1365 -0.2624 -2.6509
 4191TIP3    H234065   4.673   4.176  16.195 -0.0724 -1.2715 -1.0751
 4192TIP3   OH234066   5.097   3.603   2.623 -0.3370  0.0390  0.1516
 4192TIP3    H134067   5.129   3.522   2.583  0.7382  0.5457 -0.0759
 4192TIP3    H234068   5.165   3.626   2.687 -1.5856 -0.2656  1.6312
 4193TIP3   OH234069   4.463   2.749   4.213 -0.4950 -0.1950  0.1289
 4193TIP3    H134070   4.494   2.820   4.157 -0.6694 -0.8272 -0.7825
 4193TIP3    H234071   4.528   2.743   4.282  1.2371 -1.2119 -1.5010
 4194TIP3   OH234072   1.835   1.253  13.152 -0.5420  0.5246 -0.0698
 4194TIP3    H134073   1.743   1.274  13.167 -0.6863 -0.8190  1.1817
 4194TIP3    H234074   1.845   1.164  13.187  1.3537  0.8479  0.3026
 4195TIP3   OH234075   0.618   6.110   5.859  0.4374 -0.0936  0.1324
 4195TIP3    H134076   0.532   6.123   5.819  0.4708 -0.8194 -0.1904
 4195TIP3    H234077   0.664   6.051   5.800  1.3079  0.5890  0.1092
 4196TIP3   OH234078   1.238   6.133  10.891  0.2527 -0.2493  0.3392
 4196TIP3    H134079   1.290   6.208  10.864 -0.6733  0.0279 -0.7824
 4196TIP3    H234080   1.226   6.143  10.985 -0.5242  1.4529  0.0928
 4197TIP3   OH234081   0.779   0.640   5.228  0.3414 -0.2573  0.2982
 4197TIP3    H134082   0.707   0.581   5.252 -0.3290  0.0364 -0.9383
 4197TIP3    H234083   0.752   0.725   5.261  0.9704 -0.4644  1.4196
 4198TIP3   OH234084   5.886   6.415   3.272  0.7275 -0.9188  0.3973
 4198TIP3    H134085   5.968   6.444   3.233 -0.4750  1.5594 -0.5157
 4198TIP3    H234086   5.848   6.494   3.310 -1.4407 -1.8740  0.3752
 4199TIP3   OH234087   3.799   1.892  16.800 -0.0884 -0.0449  0.4171
 4199TIP3    H134088   3.819   1.874  16.708  1.1858  0.6361  0.5347
 4199TIP3    H234089   3.710   1.929  16.798 -0.7060 -1.4873 -0.3395
 4200TIP3   OH234090   5.923   4.159  11.160 -0.0633  0.7267 -0.2466
 4200TIP3    H134091   5.994   4.095  11.153 -0.5986 -0.0631  1.0545
 4200TIP3    H234092   5.929   4.190  11.251 -1.2669  0.7633 -0.1720
 4201TIP3   OH234093   6.646   0.607   2.940 -0.0467  0.4892  0.0084
 4201TIP3    H134094   6.584   0.584   3.009 -1.1516 -2.9248 -1.8582
 4201TIP3    H234095   6.730   0.572   2.971 -0.2324  0.2455  0.2411
 4202TIP3   OH234096   3.700   5.185  11.238  0.0587  0.3054 -0.2758
 4202TIP3    H134097   3.712   5.129  11.162 -0.5473  0.6115 -0.6006
 4202TIP3    H234098   3.749   5.142  11.308  0.2522 -0.2054 -0.7269
 4203TIP3   OH234099   3.253   4.989   6.003  0.8151 -0.2299 -0.8490
 4203TIP3    H134100   3.311   4.965   5.931  0.9202 -0.2400 -0.7605
 4203TIP3    H234101   3.291   5.068   6.041 -0.0350  0.6254 -1.7265
 4204TIP3   OH234102   4.034   2.764   0.014  0.7049  0.3993  0.0363
 4204TIP3    H134103   4.067   2.844   0.055  3.0807 -1.0860  1.2572
 4204TIP3    H234104   4.030   2.784  -0.079  0.6827  2.0985  0.3702
 4205TIP3   OH234105   1.290   2.472  14.798 -0.1161 -0.7569  0.4730
 4205TIP3    H134106   1.368   2.452  14.746  0.6886 -0.6786  1.6051
 4205TIP3    H234107   1.242   2.389  14.801 -0.1427 -0.7783 -0.3307
 4206TIP3   OH234108   2.658   5.835  15.205  0.6996 -0.1240 -0.0502
 4206TIP3    H134109   2.576   5.812  15.248  0.0109  1.4648 -0.4397
 4206TIP3    H234110   2.723   5.776  15.244 -0.1475  0.2671  2.1176
 4207TIP3   OH234111   0.937   0.282   3.169  0.2016  0.4399 -0.0610
 4207TIP3    H134112   0.965   0.367   3.201  1.2825 -0.4290  1.4318
 4207TIP3    H234113   1.018   0.237   3.144 -0.2315 -0.5672  0.2716
 4208TIP3   OH234114   0.072   6.291   0.396  0.1872 -0.0918  0.4057
 4208TIP3    H134115   0.137   6.221   0.394 -0.6860 -0.9117  0.5250
 4208TIP3    H234116   0.071   6.325   0.307 -0.5433 -1.3162 -0.0760
 4209TIP3   OH234117   2.123   0.137  13.915 -0.3270  0.0098 -0.0443
 4209TIP3    H134118   2.120   0.166  13.824  0.4381  2.3223  0.6027
 4209TIP3    H234119   2.212   0.159  13.944 -0.9340  0.4440  1.5829
 4210TIP3   OH234120   3.920   6.556  13.397 -0.6677  0.0388  0.0571
 4210TIP3    H134121   3.855   6.502  13.443 -2.4751  2.5720  0.7037
 4210TIP3    H234122   3.894   6.552  13.305  1.1921 -2.6932 -0.4449
 4211TIP3   OH234123   5.452   3.723  12.314  0.0180  0.3476  0.0075
 4211TIP3    H134124   5.480   3.632  12.321 -0.8809  0.0337 -0.4683
 4211TIP3    H234125   5.415   3.731  12.227  0.0020  1.1552  0.0756
 4212TIP3   OH234126   2.538   0.585   0.093  0.4539  0.7014  0.0194
 4212TIP3    H134127   2.538   0.560   0.001 -1.9846 -0.0490  0.1494
 4212TIP3    H234128   2.525   0.503   0.141 -0.4488  1.3355  0.8954
 4213TIP3   OH234129   0.826   3.469   1.022 -0.2221  0.3385  0.0159
 4213TIP3    H134130   0.903   3.439   1.070 -0.0829 -0.1868 -0.5292
 4213TIP3    H234131   0.822   3.563   1.040  1.8384  0.8371 -1.7037
 4214TIP3   OH234132   1.237   4.879  10.262  0.1399  0.3249 -0.0543
 4214TIP3    H134133   1.299   4.898  10.192  0.4884 -0.5901 -0.0035
 4214TIP3    H234134   1.252   4.787  10.283 -0.1679  0.5085  1.0161
 4215TIP3   OH234135   3.369   5.169  14.446 -0.0105 -0.4311  0.0976
 4215TIP3    H134136   3.398   5.245  14.497  1.3442 -1.1096  0.3826
 4215TIP3    H234137   3.274   5.180  14.439  0.1312  1.1793  0.2968
 4216TIP3   OH234138   3.943   6.175   4.400  0.1966  0.4694  0.1810
 4216TIP3    H134139   3.891   6.223   4.336  1.2242 -0.4463 -1.3879
 4216TIP3    H234140   4.004   6.240   4.435  1.8975  0.2974 -2.2657
 4217TIP3   OH234141   5.076   0.402  15.945  0.0021  0.0790 -0.2012
 4217TIP3    H134142   5.062   0.327  16.003  0.3677  0.0959 -0.0919
 4217TIP3    H234143   5.155   0.444  15.978 -0.1212  0.4326 -0.3511
 4218TIP3   OH234144   0.606   6.509  10.552  0.2748 -0.6006  0.2534
 4218TIP3    H134145   0.521   6.553  10.541  0.1252 -0.8841  0.2412
 4218TIP3    H234146   0.656   6.567  10.609 -0.9492 -1.7846  2.6805
 4219TIP3   OH234147   1.278   1.229   5.460  0.6866  0.3918  0.8486
 4219TIP3    H134148   1.320   1.312   5.438  2.5841 -0.6372  0.3426
 4219TIP3    H234149   1.218   1.213   5.387  0.2613  1.3202  0.9792
 4220TIP3   OH234150   1.191   1.148   3.058  0.5311  0.0583  0.2022
 4220TIP3    H134151   1.203   1.193   2.974 -1.8786  0.7929  0.1694
 4220TIP3    H234152   1.213   1.215   3.123  1.4665 -0.2143  0.1829
 4221TIP3   OH234153   6.757   6.645  12.729 -0.3675  0.5919  0.4919
 4221TIP3    H134154   6.664   6.623  12.727 -0.5608  1.2962  0.9458
 4221TIP3    H234155   6.764   6.712  12.797  0.6183 -0.1020  1.1112
 4222TIP3   OH234156   5.395   2.541   5.479  0.0627  0.0661  0.4969
 4222TIP3    H134157   5.462   2.481   5.510  0.0871 -0.5619 -0.6977
 4222TIP3    H234158   5.344   2.564   5.557  2.0124  1.0464  1.5411
 4223TIP3   OH234159   2.567   0.562  15.573  0.6092  0.0319  0.0940
 4223TIP3    H134160   2.545   0.475  15.539  1.6963  0.2216 -1.1884
 4223TIP3    H234161   2.486   0.594  15.612 -0.3091 -0.8263 -1.0426
 4224TIP3   OH234162   2.889   5.347   2.944  0.6397  0.0402 -0.5960
 4224TIP3    H134163   2.912   5.440   2.944 -1.3923  0.5876 -0.2161
 4224TIP3    H234164   2.912   5.317   2.856 -0.6949  1.4661 -1.4877
 4225TIP3   OH234165   2.927   4.979  16.908 -0.3711  0.4769 -0.4381
 4225TIP3    H134166   2.954   5.061  16.948 -0.2815 -0.1640  0.9059
 4225TIP3    H234167   2.987   4.914  16.944 -1.4187 -0.4105 -0.2106
 4226TIP3   OH234168   3.300   6.112   1.906 -0.7400 -0.0783  0.6145
 4226TIP3    H134169   3.350   6.050   1.853  1.0344 -0.4967  2.6361
 4226TIP3    H234170   3.351   6.122   1.987 -2.1335  2.2871  1.3159
 4227TIP3   OH234171   6.712   2.367  15.572  0.2313  0.3616 -0.1407
 4227TIP3    H134172   6.656   2.413  15.634  1.0061  0.5101  0.4716
 4227TIP3    H234173   6.783   2.428  15.553 -0.3948  0.6207 -1.8041
 4228TIP3   OH234174   5.036   1.256   2.281  0.3792  0.1759  0.3299
 4228TIP3    H134175   5.016   1.233   2.191  0.6402  1.3804 -0.0583
 4228TIP3    H234176   5.131   1.256   2.286  0.3684  0.2492  0.5604
 4229TIP3   OH234177   0.045   3.404   5.428  0.3851  0.0188  0.1315
 4229TIP3    H134178   0.042   3.371   5.518 -0.2084 -0.4419 -0.0528
 4229TIP3    H234179   0.050   3.499   5.438 -0.9687  0.0592  0.6555
 4230TIP3   OH234180   5.103   2.257   2.614  0.4995 -0.0447  0.6122
 4230TIP3    H134181   5.070   2.215   2.694 -0.3082  0.2472  0.4411
 4230TIP3    H234182   5.173   2.315   2.644  0.6603 -0.4457  1.0213
 4231TIP3   OH234183   5.474   3.820  14.126 -0.3447  0.2673 -0.0635
 4231TIP3    H134184   5.559   3.797  14.088 -0.1259  0.5996  0.2179
 4231TIP3    H234185   5.417   3.747  14.103  0.0978 -0.1103  0.0144
 4232TIP3   OH234186   3.245   2.073   0.852  0.2672 -0.6877  0.1842
 4232TIP3    H134187   3.161   2.043   0.888 -0.0705  0.4391  0.3978
 4232TIP3    H234188   3.255   2.026   0.770 -0.7572 -0.5899 -0.0081
 4233TIP3   OH234189   1.036   4.743  16.817 -0.3459 -0.0620 -0.0005
 4233TIP3    H134190   1.103   4.810  16.829  1.0571 -1.5274  0.6906
 4233TIP3    H234191   0.970   4.763  16.883  1.2930 -0.8009  1.9522
 4234TIP3   OH234192   5.885   3.214  13.434 -0.0149 -0.0630  0.0778
 4234TIP3    H134193   5.924   3.132  13.405 -0.0467  0.1371 -0.5334
 4234TIP3    H234194   5.956   3.259  13.480  0.2074 -0.1190 -0.2076
 4235TIP3   OH234195   3.698   5.910  12.412 -0.2381  0.2323  0.0771
 4235TIP3    H134196   3.729   5.917  12.321  1.2897 -1.9788  0.3589
 4235TIP3    H234197   3.733   5.988  12.455 -0.6392  1.1057 -1.1280
 4236TIP3   OH234198   4.171   1.763   4.312  0.3612  0.5170 -0.0770
 4236TIP3    H134199   4.127   1.698   4.256  0.4701  0.7237 -0.4049
 4236TIP3    H234200   4.244   1.794   4.259  0.6736  0.4642  0.3172
 4237TIP3   OH234201   6.154   0.112  13.317  0.0095 -1.2776 -0.1153
 4237TIP3    H134202   6.171   0.201  13.285 -2.5201  0.3732  2.6104
 4237TIP3    H234203   6.236   0.087  13.361  0.5834 -0.1083 -0.4700
 4238TIP3   OH234204   1.923   1.423  13.954 -0.6643 -0.8970  0.2452
 4238TIP3    H134205   1.894   1.461  13.871 -0.3224 -0.7624  0.1865
 4238TIP3    H234206   1.941   1.499  14.010 -2.0722 -0.9810  0.8643
 4239TIP3   OH234207   5.249   5.338   2.313  0.2125 -0.0892  0.1740
 4239TIP3    H134208   5.192   5.268   2.281 -1.2972  0.5262  1.3935
 4239TIP3    H234209   5.275   5.310   2.401 -0.1462  0.7217  0.5502
 4240TIP3   OH234210   5.329   0.543   4.738  0.2297 -0.4278 -0.3522
 4240TIP3    H134211   5.373   0.541   4.823  0.9373  0.5422 -0.6729
 4240TIP3    H234212   5.399   0.524   4.674 -0.0058  0.1858 -0.8040
 4241TIP3   OH234213   6.406   4.404   3.360 -0.2608  0.1379 -0.3721
 4241TIP3    H134214   6.498   4.381   3.374 -0.4079 -0.0434  0.3222
 4241TIP3    H234215   6.358   4.323   3.380 -0.6374  0.4866  0.1414
 4242TIP3   OH234216   3.214   6.246   5.766  0.0915 -0.0920 -0.0039
 4242TIP3    H134217   3.137   6.287   5.807  0.2760 -0.9001  1.2139
 4242TIP3    H234218   3.268   6.320   5.739 -0.2429  0.4913  0.8596
 4243TIP3   OH234219   6.091   2.972  15.112  0.0791 -0.2489  0.6915
 4243TIP3    H134220   6.093   3.035  15.184 -0.7203 -1.3855  1.7498
 4243TIP3    H234221   6.017   2.999  15.057 -0.2514 -0.2562  1.1331
 4244TIP3   OH234222   5.630   4.181   1.484  0.4671 -0.5924  0.1649
 4244TIP3    H134223   5.706   4.231   1.516 -0.2408  0.2914  0.5194
 4244TIP3    H234224   5.627   4.104   1.541 -0.2191  0.4992  1.6585
 4245TIP3   OH234225   5.515   3.537   3.189 -0.1859 -0.0925  0.6351
 4245TIP3    H134226   5.501   3.452   3.147  1.0144 -0.9687  1.9001
 4245TIP3    H234227   5.427   3.568   3.211 -0.6751 -0.7037 -0.3888
 4246TIP3   OH234228   5.243   3.529  15.642  0.3280  1.2510  0.6229
 4246TIP3    H134229   5.162   3.528  15.591  1.0662 -0.6588 -0.6351
 4246TIP3    H234230   5.218   3.493  15.727 -0.2360  1.1852  0.4358
 4247TIP3   OH234231   5.374   1.305  15.776 -0.2163 -0.1416  0.1521
 4247TIP3    H134232   5.343   1.365  15.844  0.1546  2.0601 -1.5009
 4247TIP3    H234233   5.356   1.218  15.811 -2.7194  0.9170  1.8045
 4248TIP3   OH234234   5.013   0.710  11.180  0.2710 -0.3789  0.4459
 4248TIP3    H134235   4.970   0.625  11.182  0.2153 -0.4093 -0.9336
 4248TIP3    H234236   5.099   0.694  11.220  0.5714 -1.2865 -0.4993
 4249TIP3   OH234237   2.069   3.960   0.674 -0.1951  0.3143 -0.2923
 4249TIP3    H134238   2.051   4.038   0.727  0.9078 -0.0589  0.6858
 4249TIP3    H234239   2.164   3.948   0.681 -0.4030 -1.4245  0.0622
 4250TIP3   OH234240   4.320   0.330  12.743  0.2505  0.6965 -0.1233
 4250TIP3    H134241   4.238   0.283  12.731  0.9093 -0.6865  0.5135
 4250TIP3    H234242   4.338   0.324  12.837 -0.1060  3.0802  0.1477
 4251TIP3   OH234243   5.001   5.512  12.097 -0.3716 -0.4783  0.0472
 4251TIP3    H134244   4.982   5.432  12.047  0.2390  0.1310 -1.1833
 4251TIP3    H234245   4.996   5.582  12.033  0.4510  0.3305  0.8530
 4252TIP3   OH234246   2.678   1.284   2.872  0.1243  0.0330  0.2900
 4252TIP3    H134247   2.751   1.274   2.810 -0.9768 -1.2079 -0.8659
 4252TIP3    H234248   2.627   1.356   2.837  0.0120 -0.0528  0.2768
 4253TIP3   OH234249   0.308   3.623   4.447 -0.3843 -0.1460 -0.0876
 4253TIP3    H134250   0.280   3.579   4.367 -0.7346  0.4431 -0.2953
 4253TIP3    H234251   0.231   3.672   4.476 -0.0881  0.0995  0.2966
 4254TIP3   OH234252   0.322   1.109   3.187  0.6079 -0.0403 -0.5785
 4254TIP3    H134253   0.239   1.067   3.164 -0.2919  0.8132  0.8795
 4254TIP3    H234254   0.376   1.037   3.221 -0.5249 -0.2575  0.9148
 4255TIP3   OH234255   1.453   0.806  12.013 -0.3881 -0.2787 -0.4045
 4255TIP3    H134256   1.494   0.860  11.945 -0.6738 -1.1204 -1.2714
 4255TIP3    H234257   1.527   0.771  12.063 -0.2153  1.5275  0.7086
 4256TIP3   OH234258   5.986   4.028   5.456 -0.1053 -1.0974 -0.2512
 4256TIP3    H134259   6.046   4.027   5.531 -1.2157 -0.0310  0.7156
 4256TIP3    H234260   5.958   4.120   5.450  0.2430 -1.0822 -2.2424
 4257TIP3   OH234261   3.932   3.631  15.213 -0.6591 -0.4399 -0.1559
 4257TIP3    H134262   3.950   3.662  15.301 -1.5989  1.3424 -0.5413
 4257TIP3    H234263   3.924   3.711  15.160 -3.5006 -1.2576 -1.1482
 4258TIP3   OH234264   5.655   6.486  12.444  0.9360  0.3876  0.6308
 4258TIP3    H134265   5.591   6.441  12.500  0.1426  1.2303  0.4187
 4258TIP3    H234266   5.698   6.415  12.396  0.5347 -0.2288  1.1613
 4259TIP3   OH234267   5.355   5.543  14.194  0.1683  0.0762 -0.2582
 4259TIP3    H134268   5.339   5.467  14.139  1.4170 -0.5868  0.2559
 4259TIP3    H234269   5.424   5.592  14.148 -0.3122  0.6728 -0.3609
 4260TIP3   OH234270   5.081   6.580   4.063 -0.5354 -0.3765 -0.0029
 4260TIP3    H134271   5.012   6.528   4.021  0.2823 -0.5382 -1.1818
 4260TIP3    H234272   5.123   6.627   3.991  1.1725 -0.9829  0.5377
 4261TIP3   OH234273   5.193   3.879  11.977  0.1232 -0.2123  0.0832
 4261TIP3    H134274   5.230   3.793  11.998  0.1380 -0.2056  0.0849
 4261TIP3    H234275   5.212   3.890  11.884  0.5940  0.0206  0.2019
 4262TIP3   OH234276   3.541   4.265  12.895  1.0040  0.2986  0.1551
 4262TIP3    H134277   3.544   4.256  12.799  0.0048 -0.3464  0.1683
 4262TIP3    H234278   3.632   4.250  12.923  1.3401  0.6568 -0.6963
 4263TIP3   OH234279   4.700   0.533   0.564 -0.1481 -0.1800 -0.3470
 4263TIP3    H134280   4.737   0.575   0.642  0.3340  0.2095 -0.7860
 4263TIP3    H234281   4.607   0.553   0.568  0.1854  1.6535 -0.9858
 4264TIP3   OH234282   2.417   4.818  12.152 -0.5529  0.4567  0.1709
 4264TIP3    H134283   2.489   4.772  12.195 -0.7162  1.1702  1.2568
 4264TIP3    H234284   2.396   4.764  12.076  2.6297  1.3110 -1.5269
 4265TIP3   OH234285   0.658   0.381  13.732  0.4064 -0.0484  0.2946
 4265TIP3    H134286   0.653   0.344  13.644  1.8982 -0.0277  0.1723
 4265TIP3    H234287   0.643   0.475  13.719 -1.3867 -0.2965  0.3497
 4266TIP3   OH234288   0.351   5.445  10.363 -0.2373 -0.0697 -0.1756
 4266TIP3    H134289   0.297   5.368  10.343  1.3434 -1.0261 -0.9991
 4266TIP3    H234290   0.310   5.484  10.441 -2.3401 -0.4690 -1.0092
 4267TIP3   OH234291   0.883   2.856   5.410  0.4468  0.3671 -0.0385
 4267TIP3    H134292   0.794   2.837   5.438  0.4627 -1.0170 -0.8407
 4267TIP3    H234293   0.934   2.862   5.491 -0.5033  2.0063  0.4716
 4268TIP3   OH234294   3.660   3.316   0.450  0.1131 -0.5261  0.1248
 4268TIP3    H134295   3.714   3.240   0.467 -0.6969 -1.0042  0.6246
 4268TIP3    H234296   3.571   3.288   0.471 -0.6503 -0.3882 -2.5265
 4269TIP3   OH234297   6.005   2.111   5.188  0.2988 -0.1513  0.0945
 4269TIP3    H134298   5.977   2.027   5.153  0.7306 -1.0548  1.8064
 4269TIP3    H234299   5.934   2.172   5.166 -0.0238 -0.9476 -1.1399
 4270TIP3   OH234300   1.602   4.032   4.981  0.0310 -0.9456 -0.0831
 4270TIP3    H134301   1.511   4.019   5.008 -0.9634  1.3340 -1.9698
 4270TIP3    H234302   1.642   4.080   5.053 -0.0153 -2.5132  1.0445
 4271TIP3   OH234303   5.379   1.002  15.494  0.1952  0.0637  0.2736
 4271TIP3    H134304   5.336   1.086  15.478 -0.3968 -0.4501 -0.9794
 4271TIP3    H234305   5.338   0.968  15.573 -1.5201 -0.2635 -0.7140
 4272TIP3   OH234306   0.853   0.483   4.354  0.0125  0.5932  0.6414
 4272TIP3    H134307   0.811   0.398   4.340  0.8622  0.5397 -2.1052
 4272TIP3    H234308   0.889   0.478   4.442 -3.7835 -0.1471  2.3704
 4273TIP3   OH234309   2.265   3.447   5.376 -0.0529 -0.0547 -0.0373
 4273TIP3    H134310   2.174   3.427   5.396  0.1581  0.9147  2.2043
 4273TIP3    H234311   2.260   3.521   5.315 -0.7777  0.0528  0.1403
 4274TIP3   OH234312   4.883   2.884  12.842  0.0183  0.1022 -0.0648
 4274TIP3    H134313   4.923   2.798  12.856 -0.6892 -0.6353 -2.2195
 4274TIP3    H234314   4.849   2.909  12.928  2.7795 -0.3912  1.2886
 4275TIP3   OH234315   4.019   4.991   2.117 -0.7173  0.2415 -0.2244
 4275TIP3    H134316   3.972   4.984   2.034  0.2683 -1.6242 -0.6785
 4275TIP3    H234317   4.045   5.083   2.122 -0.6499  0.3579 -2.0703
 4276TIP3   OH234318   0.682   4.618  16.977  0.5652 -0.1987  0.1267
 4276TIP3    H134319   0.591   4.636  17.003  0.9966  0.5977  1.1844
 4276TIP3    H234320   0.685   4.640  16.884 -0.3426 -0.2912  0.0641
 4277TIP3   OH234321   5.421   3.311  16.445 -0.2655 -0.1227  0.1815
 4277TIP3    H134322   5.456   3.313  16.534 -2.5508 -1.7738  1.2487
 4277TIP3    H234323   5.456   3.231  16.407 -0.2511 -0.0558  0.0531
 4278TIP3   OH234324   2.499   0.932  10.633  0.2511 -0.0206 -0.0882
 4278TIP3    H134325   2.454   0.864  10.683 -2.1486  2.0826  0.8630
 4278TIP3    H234326   2.457   0.932  10.547  0.3654  0.1391 -0.1461
 4279TIP3   OH234327   4.895   0.087  15.803 -0.6177  0.4548 -0.1514
 4279TIP3    H134328   4.819   0.118  15.852  0.2727  1.4929  0.6114
 4279TIP3    H234329   4.966   0.085  15.867  0.1441  0.0714 -0.9840
 4280TIP3   OH234330   5.987   0.717   2.041  0.1179 -0.1208  0.6404
 4280TIP3    H134331   6.024   0.791   1.993  0.7941  0.1474  1.5565
 4280TIP3    H234332   6.058   0.653   2.044 -1.0271 -1.6429 -1.7767
 4281TIP3   OH234333   4.002   0.923   6.570 -0.2271 -0.0063  0.5840
 4281TIP3    H134334   4.043   0.997   6.615  0.3059 -1.6437  3.0020
 4281TIP3    H234335   3.908   0.937   6.582 -0.1419  0.3945  0.8168
 4282TIP3   OH234336   1.380   5.535  16.157 -0.1190  0.3874  0.2418
 4282TIP3    H134337   1.293   5.570  16.134 -0.0910  1.0385  1.0889
 4282TIP3    H234338   1.388   5.550  16.251 -0.4110 -2.6186  0.8431
 4283TIP3   OH234339   0.806   3.350  13.964  0.3358 -0.2050  0.0412
 4283TIP3    H134340   0.794   3.331  13.871  0.9981 -0.9808  0.1072
 4283TIP3    H234341   0.718   3.373  13.995  0.1009  0.0198 -0.7625
 4284TIP3   OH234342   1.126   2.891  13.192  0.0512  0.3745  0.1618
 4284TIP3    H134343   1.186   2.883  13.118  1.3237  1.3033  1.0460
 4284TIP3    H234344   1.149   2.816  13.248 -1.1631 -0.5415 -0.5182
 4285TIP3   OH234345   5.550   1.104   3.018  0.1271  0.2615 -0.4490
 4285TIP3    H134346   5.539   1.155   3.099 -0.1523 -1.0214  0.3431
 4285TIP3    H234347   5.612   1.155   2.966  2.0271  0.0366  1.4903
 4286TIP3   OH234348   6.558   1.293   1.746  0.3154  0.0334  0.5140
 4286TIP3    H134349   6.570   1.332   1.659  0.9792 -0.5747  0.3257
 4286TIP3    H234350   6.468   1.263   1.748  0.2220  0.2944  0.1336
 4287TIP3   OH234351   2.312   5.920   1.338 -0.2744 -0.2521 -0.7961
 4287TIP3    H134352   2.331   5.895   1.429 -0.5683 -0.1788 -0.7132
 4287TIP3    H234353   2.337   5.844   1.286 -1.0121 -0.6691 -0.5610
 4288TIP3   OH234354   2.339   5.970   3.007  0.3312  0.2769  0.8313
 4288TIP3    H134355   2.374   5.886   3.039  0.5663  0.7059  1.7384
 4288TIP3    H234356   2.258   5.946   2.963  1.5946 -0.7107 -1.0868
 4289TIP3   OH234357   5.857   1.931  17.016  0.2999 -0.0566  0.1097
 4289TIP3    H134358   5.927   1.986  17.050  0.1410  1.2367 -1.5460
 4289TIP3    H234359   5.897   1.884  16.943 -0.1641 -0.4493  0.1058
 4290TIP3   OH234360   0.148   4.739   1.080 -0.1005 -0.4459 -0.1918
 4290TIP3    H134361   0.108   4.710   0.998 -0.6458  2.4729 -1.0795
 4290TIP3    H234362   0.226   4.787   1.053  0.8236 -1.0884  1.1777
 4291TIP3   OH234363   1.318   2.640  16.129  0.2211 -0.3319 -0.0058
 4291TIP3    H134364   1.314   2.576  16.058 -1.0801 -0.1012 -0.1593
 4291TIP3    H234365   1.372   2.598  16.196 -0.2067 -1.3924 -0.3072
 4292TIP3   OH234366   2.711   3.632   6.389  0.3769 -0.0023 -0.3432
 4292TIP3    H134367   2.679   3.544   6.368 -0.8480 -0.0082  1.3638
 4292TIP3    H234368   2.806   3.623   6.390  0.2560 -1.4783  0.4830
 4293TIP3   OH234369   3.118   5.228  16.042  0.0287 -0.2024 -0.2845
 4293TIP3    H134370   3.191   5.270  15.998 -2.2026  2.8667 -1.4148
 4293TIP3    H234371   3.057   5.206  15.971 -0.2546 -2.6443  0.6154
 4294TIP3   OH234372   1.817   1.707  12.148  0.0091 -0.1391 -0.0404
 4294TIP3    H134373   1.854   1.641  12.207 -0.7823 -0.1111  0.5072
 4294TIP3    H234374   1.741   1.665  12.109 -1.5899  1.0071  1.6831
 4295TIP3   OH234375   5.583   5.480  16.002 -0.3763  0.4221 -0.2928
 4295TIP3    H134376   5.598   5.446  15.913  0.1147 -1.1704  0.3633
 4295TIP3    H234377   5.534   5.410  16.045  1.0091  0.3503  1.2433
 4296TIP3   OH234378   1.638   6.391   0.687 -0.1855 -0.4962  0.2475
 4296TIP3    H134379   1.616   6.314   0.635 -0.0818 -1.1581  1.1681
 4296TIP3    H234380   1.700   6.439   0.632 -0.1784 -1.1137 -0.2983
 4297TIP3   OH234381   5.898   3.405  13.870 -0.7870 -0.0439 -0.1032
 4297TIP3    H134382   5.857   3.393  13.784  1.9033 -0.1728 -1.4663
 4297TIP3    H234383   5.852   3.344  13.927 -1.3648 -1.3818 -1.9037
 4298TIP3   OH234384   5.996   4.794   2.780 -0.6521  0.3266  0.0633
 4298TIP3    H134385   5.973   4.796   2.873  4.0284 -1.7178  1.5586
 4298TIP3    H234386   5.983   4.703   2.753  0.6851  0.2310 -0.3675
 4299TIP3   OH234387   1.160   3.162   0.008  0.3052  0.6883 -0.1345
 4299TIP3    H134388   1.247   3.198  -0.008 -0.4424  2.5391 -0.3390
 4299TIP3    H234389   1.106   3.239   0.029 -0.8754 -0.6013  1.8420
 4300TIP3   OH234390   3.015   2.627  11.512 -0.1912 -0.4294 -0.4926
 4300TIP3    H134391   2.959   2.681  11.457 -0.4955 -2.1529 -1.9636
 4300TIP3    H234392   2.956   2.566  11.555  0.0521  0.8304  1.7881
 4301TIP3   OH234393   1.225   0.182   4.309 -0.4071 -0.0975  0.1004
 4301TIP3    H134394   1.283   0.129   4.253  0.6878 -0.0636  1.1612
 4301TIP3    H234395   1.163   0.222   4.248  0.9627  0.2128 -1.1489
 4302TIP3   OH234396   4.033   1.971  13.050 -0.2432 -0.2332  0.5380
 4302TIP3    H134397   3.977   2.048  13.057 -0.0253 -0.0980  0.8199
 4302TIP3    H234398   4.023   1.942  12.959  1.2356  1.3369 -0.1758
 4303TIP3   OH234399   5.264   0.547   3.723  0.1468  0.3311  0.0522
 4303TIP3    H134400   5.350   0.577   3.692 -0.8121  3.1243 -0.2327
 4303TIP3    H234401   5.272   0.452   3.729  3.0774  0.4519 -0.4674
 4304TIP3   OH234402   1.319   5.687  13.486 -0.1612 -0.3496  0.4751
 4304TIP3    H134403   1.327   5.632  13.409 -0.0813  1.7037 -1.0819
 4304TIP3    H234404   1.290   5.628  13.556 -0.6347 -2.2013 -1.2101
 4305TIP3   OH234405   1.450   4.700   3.471  0.0976 -0.0777  0.7568
 4305TIP3    H134406   1.380   4.746   3.425  1.5721  0.6882 -0.8314
 4305TIP3    H234407   1.454   4.741   3.557 -1.0037  0.2741  0.6506
 4306TIP3   OH234408   1.927   0.519  16.350 -0.0592 -0.4026 -0.6141
 4306TIP3    H134409   1.958   0.609  16.357  0.6490 -0.5384 -1.6918
 4306TIP3    H234410   1.986   0.478  16.286 -1.1153 -1.2938 -1.0566
 4307TIP3   OH234411   5.884   0.002   1.065  0.2139 -0.5511 -0.3539
 4307TIP3    H134412   5.923   0.050   0.992  2.1820 -0.0734  0.9248
 4307TIP3    H234413   5.842   0.070   1.119  0.5756 -0.6241  0.0225
 4308TIP3   OH234414   6.028   1.296  14.681  0.0342 -0.3206  0.1757
 4308TIP3    H134415   6.117   1.260  14.675  0.0340 -0.1215 -1.6799
 4308TIP3    H234416   6.041   1.386  14.713  0.5976 -0.0459 -0.7804
 4309TIP3   OH234417   1.642   1.403   2.762 -0.1438 -0.2055  0.3312
 4309TIP3    H134418   1.658   1.393   2.856  1.4508 -0.9099  0.0243
 4309TIP3    H234419   1.549   1.425   2.755 -0.0566  0.9217  2.1335
 4310TIP3   OH234420   1.604   5.532   4.893 -0.1505  0.0073 -0.8993
 4310TIP3    H134421   1.543   5.504   4.961  1.1513 -2.7893 -0.7568
 4310TIP3    H234422   1.580   5.481   4.815  0.8089  0.2516 -1.3792
 4311TIP3   OH234423   1.151   1.258  12.738  0.1675 -0.0766 -0.1599
 4311TIP3    H134424   1.213   1.216  12.798  0.3436  1.0067  0.4296
 4311TIP3    H234425   1.066   1.224  12.766  0.4467 -1.4217 -0.8545
 4312TIP3   OH234426   2.538   2.994   1.464  0.2708 -0.1152 -0.3969
 4312TIP3    H134427   2.583   3.051   1.402  1.1455  1.0973  1.2694
 4312TIP3    H234428   2.574   2.907   1.446  0.4251  0.1761 -1.6246
 4313TIP3   OH234429   3.645   0.201  15.864  0.7504  0.5308  0.2952
 4313TIP3    H134430   3.619   0.139  15.932 -1.3635  1.6235  0.5438
 4313TIP3    H234431   3.675   0.279  15.911  0.1454  0.9591 -0.0221
 4314TIP3   OH234432   5.135   3.775  15.514 -0.1991  0.2731  0.6211
 4314TIP3    H134433   5.222   3.744  15.490  0.0908  1.5515 -0.1127
 4314TIP3    H234434   5.082   3.696  15.524  0.6321 -0.4597 -0.5941
 4315TIP3   OH234435   3.732   3.140   5.089 -0.4715  0.0003  0.4378
 4315TIP3    H134436   3.670   3.120   5.160 -0.4033 -0.8698  0.2669
 4315TIP3    H234437   3.779   3.058   5.076 -0.1266  0.3103 -0.2674
 4316TIP3   OH234438   5.359   2.190   4.991 -0.4929  0.6587 -0.4890
 4316TIP3    H134439   5.374   2.123   5.058 -4.0268  0.4966  0.3768
 4316TIP3    H234440   5.359   2.273   5.039  2.2504  1.2267 -1.2940
 4317TIP3   OH234441   0.226   1.962   0.658 -0.4714 -0.0361 -0.4114
 4317TIP3    H134442   0.254   1.872   0.638  0.2292  0.4287 -1.5963
 4317TIP3    H234443   0.193   1.996   0.575 -0.2440  0.9893 -0.0962
 4318TIP3   OH234444   0.144   0.503  13.869  0.0860 -0.4582 -0.3850
 4318TIP3    H134445   0.049   0.487  13.868  0.1218 -0.7934  0.3697
 4318TIP3    H234446   0.163   0.527  13.960  0.6694 -0.0018 -0.6207
 4319TIP3   OH234447   6.071   6.126  11.821  0.2025  0.2660  0.7000
 4319TIP3    H134448   6.135   6.056  11.816  0.6182  0.7114 -0.5839
 4319TIP3    H234449   6.049   6.146  11.730 -0.0518  1.6561  1.0367
 4320TIP3   OH234450   2.448   6.230  12.543 -0.2860  0.0145  0.3430
 4320TIP3    H134451   2.357   6.203  12.538 -0.2987  0.0797  0.2238
 4320TIP3    H234452   2.465   6.274  12.460  0.5311 -2.0983 -0.6614
 4321TIP3   OH234453   3.976   0.752   6.328 -0.0082 -0.2387  0.4801
 4321TIP3    H134454   3.933   0.817   6.272 -0.7778 -0.6425  0.5816
 4321TIP3    H234455   4.016   0.803   6.398  1.5343  0.3368 -0.7656
 4322TIP3   OH234456   3.899   0.472   1.580  0.5285 -0.4895 -0.2212
 4322TIP3    H134457   3.921   0.379   1.579 -1.5379 -1.0215 -0.4976
 4322TIP3    H234458   3.845   0.483   1.658 -1.6509 -0.1754 -1.6850
 4323TIP3   OH234459   0.223   1.845   6.258 -0.5673  0.5368  0.2059
 4323TIP3    H134460   0.283   1.775   6.233 -1.3480  0.1804 -0.7724
 4323TIP3    H234461   0.279   1.917   6.286  0.3010  0.1142 -0.4014
 4324TIP3   OH234462   5.889   3.347  14.880 -0.1215 -0.3950  0.3876
 4324TIP3    H134463   5.917   3.406  14.811  2.3676 -0.8984  0.8312
 4324TIP3    H234464   5.794   3.348  14.877 -0.1061  1.4359 -1.4340
 4325TIP3   OH234465   0.883   5.452   1.987  0.5194 -0.0238 -0.5216
 4325TIP3    H134466   0.947   5.420   1.924 -1.0353 -1.9684 -1.2199
 4325TIP3    H234467   0.806   5.396   1.974 -1.1348  1.8314  0.6544
 4326TIP3   OH234468   4.546   0.524  14.901  0.2683  0.4317  0.4106
 4326TIP3    H134469   4.567   0.510  14.993 -0.6052 -1.0143  0.4272
 4326TIP3    H234470   4.568   0.440  14.859 -0.7296  0.5663 -0.4191
 4327TIP3   OH234471   4.745   4.496   1.969  0.6072  0.0738  0.3743
 4327TIP3    H134472   4.686   4.560   1.929 -1.0250 -1.6032 -0.0604
 4327TIP3    H234473   4.780   4.541   2.046 -1.2001  1.1851  0.6115
 4328TIP3   OH234474   3.140   6.473  15.604 -0.1958  0.2229 -0.1447
 4328TIP3    H134475   3.072   6.413  15.635 -0.3830  1.0315  1.0807
 4328TIP3    H234476   3.093   6.542  15.558 -0.0829  0.1192 -0.4228
 4329TIP3   OH234477   0.179   3.164  15.218  0.0289  0.1418  0.6178
 4329TIP3    H134478   0.141   3.241  15.174 -0.8527 -0.3012  0.5896
 4329TIP3    H234479   0.230   3.201  15.290 -1.3097  0.7342  1.3120
 4330TIP3   OH234480   1.412   2.831   1.986  0.4000 -0.2335 -0.6970
 4330TIP3    H134481   1.414   2.846   1.892 -0.2865 -2.5625 -1.1521
 4330TIP3    H234482   1.324   2.856   2.013  0.1715 -0.7989 -0.9180
 4331TIP3   OH234483   3.495   1.529   1.171 -0.3192 -0.3622 -0.5816
 4331TIP3    H134484   3.526   1.450   1.125  0.7649  0.1417 -0.7469
 4331TIP3    H234485   3.418   1.499   1.220  1.3240 -2.0805  1.1231
 4332TIP3   OH234486   1.370   1.190  15.164  0.5408  0.5206  0.5072
 4332TIP3    H134487   1.438   1.256  15.152  1.0536  0.0839  0.9783
 4332TIP3    H234488   1.410   1.108  15.136  0.6292  0.0581  1.9018
 4333TIP3   OH234489   0.219   0.401   3.872 -0.0425 -0.5218  1.0766
 4333TIP3    H134490   0.153   0.367   3.932  1.6946 -2.5358  1.9618
 4333TIP3    H234491   0.238   0.329   3.812 -0.3969  0.8501 -0.8218
 4334TIP3   OH234492   4.059   5.718  16.530  0.4574 -0.3493  0.1259
 4334TIP3    H134493   3.997   5.649  16.555 -0.1065 -1.0056 -2.7195
 4334TIP3    H234494   4.004   5.784  16.488  1.4903 -0.3581 -1.3107
 4335TIP3   OH234495   6.293   2.921   1.190  0.2255  0.3444  0.1598
 4335TIP3    H134496   6.387   2.934   1.181  0.0074  1.4237 -0.8556
 4335TIP3    H234497   6.273   2.947   1.280  1.1344 -1.6591  0.9936
 4336TIP3   OH234498   1.819   6.595  16.176  0.4021  0.2718 -0.5298
 4336TIP3    H134499   1.791   6.685  16.156 -0.4268 -0.4613 -2.9746
 4336TIP3    H234500   1.740   6.551  16.207  0.4964  0.0341 -0.6260
 4337TIP3   OH234501   2.658   1.338   0.780  0.3188  0.0844 -0.1764
 4337TIP3    H134502   2.732   1.386   0.742  0.5343 -0.5177 -0.5298
 4337TIP3    H234503   2.595   1.332   0.708  0.4008 -0.3872 -0.2087
 4338TIP3   OH234504   4.566   2.740  12.982 -0.1620  0.1920 -0.4081
 4338TIP3    H134505   4.624   2.665  12.996 -1.1756 -0.6248 -0.4028
 4338TIP3    H234506   4.548   2.774  13.069  1.2833  1.2451 -0.4912
 4339TIP3   OH234507   6.471   0.207   1.218  0.2836 -0.5075 -0.2095
 4339TIP3    H134508   6.533   0.270   1.182 -0.6478 -0.2917 -1.4992
 4339TIP3    H234509   6.443   0.156   1.143 -0.2898 -1.3263  0.5398
 4340TIP3   OH234510   2.165   2.577  17.002  0.7254  0.3123 -0.2488
 4340TIP3    H134511   2.196   2.561  16.913 -2.4192 -1.1910 -1.2076
 4340TIP3    H234512   2.204   2.506  17.054 -0.5582 -1.2437 -1.3194
 4341TIP3   OH234513   5.978   0.455   5.461  0.5575  0.4032  0.4404
 4341TIP3    H134514   5.941   0.520   5.401  1.3701 -0.4730 -1.0673
 4341TIP3    H234515   6.024   0.507   5.526 -1.9601  1.4726  1.5291
 4342TIP3   OH234516   0.674   0.571  16.622 -0.5327 -0.2372 -0.1305
 4342TIP3    H134517   0.624   0.577  16.540 -2.9927  0.7668  1.3291
 4342TIP3    H234518   0.751   0.626  16.607 -1.3815  0.6490 -1.4817
 4343TIP3   OH234519   6.520   0.857   2.932  0.3237 -0.7295  0.0881
 4343TIP3    H134520   6.602   0.811   2.916  0.1094 -0.6524 -1.3880
 4343TIP3    H234521   6.481   0.867   2.845  0.0315  1.6339  0.4347
 4344TIP3   OH234522   6.603   3.390   2.919 -0.3513 -0.4805 -0.5889
 4344TIP3    H134523   6.541   3.348   2.860 -1.4153  1.1398 -0.7100
 4344TIP3    H234524   6.556   3.468   2.950  1.0212 -0.1093  0.6370
 4345TIP3   OH234525   1.862   4.617  14.966  0.4601  0.0538 -0.0358
 4345TIP3    H134526   1.790   4.586  15.021  0.7172  1.3053  1.0745
 4345TIP3    H234527   1.822   4.680  14.907  0.3557 -0.5670 -0.6405
 4346TIP3   OH234528   1.286   0.736   3.668 -0.5399  0.9806  0.9738
 4346TIP3    H134529   1.200   0.697   3.685 -0.1746  0.3934  1.5200
 4346TIP3    H234530   1.269   0.829   3.659 -1.6156  0.6314 -1.4340
 4347TIP3   OH234531   5.313   5.383   4.940  0.0817 -0.2564 -0.0889
 4347TIP3    H134532   5.227   5.358   4.973  0.3702 -1.5148 -0.2477
 4347TIP3    H234533   5.343   5.452   5.001  0.3845 -2.1419  2.0212
 4348TIP3   OH234534   6.092   5.570  15.253 -0.2913  0.2260  0.5687
 4348TIP3    H134535   6.142   5.583  15.172 -0.7889 -0.7094  0.0982
 4348TIP3    H234536   6.002   5.554  15.223 -0.6687  0.8191  1.3579
 4349TIP3   OH234537   0.237   1.062  16.040 -0.0026 -0.2022  0.3855
 4349TIP3    H134538   0.159   1.109  16.013 -0.5113 -0.1590  1.8550
 4349TIP3    H234539   0.281   1.120  16.101  0.9922 -0.3918 -0.1188
 4350TIP3   OH234540   2.191   4.321   2.065 -0.2634 -0.3683 -0.3118
 4350TIP3    H134541   2.097   4.313   2.081 -0.4035  2.6024  0.8704
 4350TIP3    H234542   2.229   4.335   2.151  1.1127 -0.1495 -0.9258
 4351TIP3   OH234543   6.535   3.708  11.222  0.2614  0.1229 -0.2801
 4351TIP3    H134544   6.576   3.723  11.307 -0.4799  0.6606 -0.0065
 4351TIP3    H234545   6.565   3.621  11.196 -0.2287 -0.4303  0.9572
 4352TIP3   OH234546   0.478   2.424   1.309  0.9507  0.3977  0.5337
 4352TIP3    H134547   0.541   2.487   1.275  0.5237  0.7122  0.3095
 4352TIP3    H234548   0.410   2.420   1.241  0.0742  1.0569  1.3580
 4353TIP3   OH234549   5.182   0.994   1.093 -0.1372  0.1862  0.1827
 4353TIP3    H134550   5.277   0.981   1.096 -0.3388 -1.4251  1.7720
 4353TIP3    H234551   5.146   0.910   1.125 -2.2436 -0.8403 -4.1682
 4354TIP3   OH234552   2.218   3.466  13.163 -0.0671  0.3133  0.2188
 4354TIP3    H134553   2.217   3.481  13.069 -0.5344  1.6905  0.4212
 4354TIP3    H234554   2.135   3.502  13.194 -0.5908 -1.4378  0.9880
 4355TIP3   OH234555   1.393   3.623   1.693  0.5276  0.1019 -0.0138
 4355TIP3    H134556   1.340   3.594   1.767  0.4644  0.9297  0.2719
 4355TIP3    H234557   1.479   3.583   1.708  0.8376  1.1473  1.0994
 4356TIP3   OH234558   5.949   3.493  15.572  0.0125 -0.0560 -0.6445
 4356TIP3    H134559   5.899   3.442  15.635 -0.0755  1.3589  0.4809
 4356TIP3    H234560   5.923   3.458  15.487  0.4394 -2.2903  0.0635
 4357TIP3   OH234561   3.330   1.226   1.877 -0.5389 -0.5569 -0.6780
 4357TIP3    H134562   3.366   1.161   1.937 -0.8229 -0.9631 -0.9417
 4357TIP3    H234563   3.399   1.241   1.813 -0.2772 -0.2066 -0.3181
 4358TIP3   OH234564   2.698   1.233   1.848  0.3598 -0.1577  0.1109
 4358TIP3    H134565   2.612   1.274   1.861  1.0126  2.0224 -1.8375
 4358TIP3    H234566   2.691   1.191   1.763  0.8567 -1.1219  0.5293
 4359TIP3   OH234567   2.043   2.293  14.509  0.4473  0.0041 -0.4844
 4359TIP3    H134568   1.986   2.362  14.476  0.7136  0.5282  0.1375
 4359TIP3    H234569   2.034   2.296  14.604  1.4142  0.0252 -0.3764
 4360TIP3   OH234570   6.283   1.045  11.522 -0.1442 -0.0418  0.5610
 4360TIP3    H134571   6.303   1.139  11.525 -1.3733  0.2003  2.2123
 4360TIP3    H234572   6.303   1.014  11.610 -0.0969 -1.2738  0.1295
 4361TIP3   OH234573   0.895   5.749  14.718 -0.8714  0.3829 -0.1542
 4361TIP3    H134574   0.974   5.794  14.749 -0.3495  0.0565 -0.9712
 4361TIP3    H234575   0.851   5.720  14.798  0.1049  0.1216  0.3132
 4362TIP3   OH234576   3.154   5.617  13.067  0.4879 -0.4255 -0.3990
 4362TIP3    H134577   3.087   5.577  13.122  2.4100 -0.2455  2.3208
 4362TIP3    H234578   3.125   5.708  13.056  0.2014 -0.3726  0.6533
 4363TIP3   OH234579   2.409   1.015   1.876 -0.3094  0.0015 -0.0022
 4363TIP3    H134580   2.426   1.108   1.862  1.2212 -0.1505  0.6493
 4363TIP3    H234581   2.316   1.004   1.854 -0.1573  1.3825 -1.5310
 4364TIP3   OH234582   2.566   0.614  13.448 -0.0311  0.2572 -0.1290
 4364TIP3    H134583   2.518   0.696  13.444  1.3090  1.0402 -1.4706
 4364TIP3    H234584   2.655   0.637  13.418  0.8066 -1.3683  0.9505
 4365TIP3   OH234585   5.336   3.999  10.945 -0.1819 -0.2483  0.1844
 4365TIP3    H134586   5.350   3.973  11.036 -1.6742 -1.7289  0.0353
 4365TIP3    H234587   5.320   4.094  10.949 -1.4932 -0.4958  1.6320
 4366TIP3   OH234588   4.894   1.956  14.605  0.3567 -0.3410  0.4546
 4366TIP3    H134589   4.950   1.881  14.627  0.9046  0.2815  1.1964
 4366TIP3    H234590   4.873   1.996  14.689 -0.4003  0.0208  0.1019
 4367TIP3   OH234591   1.229   3.180   2.515  0.0164 -0.5587  0.0201
 4367TIP3    H134592   1.276   3.162   2.596 -2.0046 -0.4895  1.3019
 4367TIP3    H234593   1.234   3.276   2.506  0.6714 -0.6121 -0.2317
 4368TIP3   OH234594   0.176   5.956   4.937 -0.0138  0.3008  0.3107
 4368TIP3    H134595   0.253   6.006   4.911 -0.5460  0.8069 -0.3020
 4368TIP3    H234596   0.158   5.985   5.026 -0.5618  1.5139 -0.1761
 4369TIP3   OH234597   2.182   6.332   0.679 -0.0547 -0.6087  0.3971
 4369TIP3    H134598   2.223   6.278   0.747 -0.8241 -0.3369  1.0958
 4369TIP3    H234599   2.089   6.333   0.702 -0.1760  0.3255 -0.0810
 4370TIP3   OH234600   3.134   6.038   2.123 -0.1375  0.6361  0.1164
 4370TIP3    H134601   3.194   6.057   2.052 -1.0012 -0.5083 -0.9726
 4370TIP3    H234602   3.058   6.094   2.107  0.2412  1.4363  0.9896
 4371TIP3   OH234603   2.645   0.926  15.698 -0.4349 -0.0715 -0.3840
 4371TIP3    H134604   2.726   0.896  15.738 -0.3772 -0.7933 -1.0171
 4371TIP3    H234605   2.581   0.857  15.720 -1.0570  0.8132  0.6858
 4372TIP3   OH234606   0.960   2.359  13.376  0.2388 -0.1630  0.3486
 4372TIP3    H134607   1.037   2.353  13.319 -0.5882  0.2346 -0.8411
 4372TIP3    H234608   0.989   2.417  13.447  0.1677  2.5234 -1.6647
 4373TIP3   OH234609   0.302   0.928  12.500 -0.1052  0.7712  0.0811
 4373TIP3    H134610   0.322   0.860  12.564  0.0507  1.3795  0.7044
 4373TIP3    H234611   0.333   0.893  12.417 -2.0257 -0.8193 -0.0157
 4374TIP3   OH234612   5.191   6.803  14.507 -0.1372 -0.0476 -0.1866
 4374TIP3    H134613   5.145   6.728  14.469  0.5348 -0.5978  0.0490
 4374TIP3    H234614   5.122   6.861  14.537 -0.8020 -2.1563  2.7865
 4375TIP3   OH234615   0.685   1.250  15.185  0.4919  0.1601 -0.0464
 4375TIP3    H134616   0.643   1.330  15.155 -0.2454 -0.7788 -1.6718
 4375TIP3    H234617   0.700   1.264  15.279  0.4371  2.1883 -0.3076
 4376TIP3   OH234618   2.899   4.698  14.279 -0.3374  0.5700  0.4773
 4376TIP3    H134619   2.994   4.707  14.268 -0.4958  0.0907 -1.7381
 4376TIP3    H234620   2.889   4.651  14.362  1.3115  1.2484  1.1069
 4377TIP3   OH234621   5.303   6.268  15.373 -0.3413 -0.1855 -0.0950
 4377TIP3    H134622   5.316   6.288  15.280  0.2155  0.6003  0.1341
 4377TIP3    H234623   5.305   6.354  15.416 -0.2563 -0.5643  0.6779
 4378TIP3   OH234624   0.085   2.839  11.497 -0.1652  0.0911  0.2414
 4378TIP3    H134625   0.115   2.749  11.497  0.1709 -0.0460  4.8842
 4378TIP3    H234626   0.163   2.891  11.516 -0.8479  1.0018  0.6489
 4379TIP3   OH234627   5.389   4.868   0.611  0.3946  0.2935  0.2480
 4379TIP3    H134628   5.339   4.947   0.634  0.9678  0.4730  0.9040
 4379TIP3    H234629   5.459   4.901   0.555  1.1877  0.3904  1.2847
 4380TIP3   OH234630   1.809   4.930   2.531 -0.2201 -0.5932  0.0156
 4380TIP3    H134631   1.812   5.026   2.540 -0.0982 -0.6130  0.1716
 4380TIP3    H234632   1.716   4.909   2.537 -0.1256 -0.6685  1.8448
 4381TIP3   OH234633   2.505   5.394   3.868  0.2938  0.5499  0.1839
 4381TIP3    H134634   2.562   5.452   3.918  0.9959  0.0301  0.0134
 4381TIP3    H234635   2.565   5.332   3.827 -0.4637 -0.7750  0.9783
 4382TIP3   OH234636   0.306   2.769  12.668  0.4564  0.0728  0.1916
 4382TIP3    H134637   0.371   2.699  12.679 -0.0987 -0.4934 -0.0216
 4382TIP3    H234638   0.357   2.849  12.664  1.0664 -0.2540  1.0949
 4383TIP3   OH234639   0.703   4.641   4.162  0.4101 -0.2760  0.0922
 4383TIP3    H134640   0.676   4.591   4.240 -1.2178  0.7723  0.2464
 4383TIP3    H234641   0.676   4.731   4.181  1.0322  0.2073 -1.2322
 4384TIP3   OH234642   1.509   0.468  13.498 -0.1123 -0.0855  0.4940
 4384TIP3    H134643   1.490   0.387  13.545 -0.6025 -0.2876 -0.0302
 4384TIP3    H234644   1.585   0.505  13.542 -1.3431  0.4155  2.2883
 4385TIP3   OH234645   3.426   2.899   5.933  0.4815  0.2959 -0.1271
 4385TIP3    H134646   3.506   2.874   5.978 -1.0366 -1.3181  1.9112
 4385TIP3    H234647   3.415   2.831   5.866  0.0150 -0.4775  0.7022
 4386TIP3   OH234648   5.348   5.609  13.617  0.2931  0.1995  0.5447
 4386TIP3    H134649   5.322   5.529  13.661  2.1178  0.1541  1.6018
 4386TIP3    H234650   5.295   5.677  13.658  0.4863 -0.1289  1.3398
 4387TIP3   OH234651   0.343   3.869   5.579 -0.3553 -0.0248  0.0051
 4387TIP3    H134652   0.409   3.850   5.646 -1.0680  0.1877  0.7887
 4387TIP3    H234653   0.271   3.809   5.599 -0.5247 -0.0540 -0.6611
 4388TIP3   OH234654   3.266   1.554  14.371 -0.4242 -0.9168  0.0110
 4388TIP3    H134655   3.276   1.593  14.458 -1.9933 -0.3726 -0.0341
 4388TIP3    H234656   3.197   1.488  14.382  0.0799 -1.5692 -0.6114
 4389TIP3   OH234657   3.633   5.920   4.133 -0.5097  0.2861 -0.8071
 4389TIP3    H134658   3.608   5.933   4.224  1.1024  0.1859 -0.3087
 4389TIP3    H234659   3.673   6.003   4.107 -0.9376  0.3084 -1.4265
 4390TIP3   OH234660   1.459   5.868  11.492  0.1375 -0.3319 -0.0352
 4390TIP3    H134661   1.535   5.832  11.539 -0.3117 -0.4108  0.6442
 4390TIP3    H234662   1.387   5.809  11.516 -0.2679  0.1026 -0.1874
 4391TIP3   OH234663   3.928   5.081  15.577  0.3069 -0.2183  0.7077
 4391TIP3    H134664   3.915   5.168  15.539  0.9228  0.5936  2.2750
 4391TIP3    H234665   4.022   5.076  15.594  0.6187 -2.0062 -1.1917
 4392TIP3   OH234666   3.610   1.400   0.643  0.5706  0.7844  0.0691
 4392TIP3    H134667   3.624   1.306   0.657  2.8485  1.2620  1.2801
 4392TIP3    H234668   3.551   1.426   0.714  0.8196  0.4941  0.3831
 4393TIP3   OH234669   5.769   0.131  11.305 -0.5790  0.3819 -0.0483
 4393TIP3    H134670   5.710   0.100  11.236 -0.6077 -0.4510  0.3392
 4393TIP3    H234671   5.857   0.109  11.274 -0.5453  0.5993 -0.1112
 4394TIP3   OH234672   6.417   5.264  12.412 -0.2376 -0.4806  0.7354
 4394TIP3    H134673   6.455   5.346  12.444 -0.3788 -0.5321  1.0407
 4394TIP3    H234674   6.353   5.291  12.347  1.4715 -0.4621 -1.0093
 4395TIP3   OH234675   3.484   2.736  12.698 -0.0056  0.1227 -0.6696
 4395TIP3    H134676   3.455   2.731  12.789  2.0902  1.2300  0.1226
 4395TIP3    H234677   3.403   2.741  12.647 -1.2309 -1.0912  1.0718
 4396TIP3   OH234678   4.508   0.508   3.873  0.6564  0.0811  0.4445
 4396TIP3    H134679   4.578   0.559   3.831  1.7393 -0.9373  0.9516
 4396TIP3    H234680   4.540   0.418   3.871  0.0812 -0.1897  2.1075
 4397TIP3   OH234681   5.450   4.345   3.483  0.4111  0.1691  0.3642
 4397TIP3    H134682   5.531   4.344   3.533  0.5853  1.8063  0.1453
 4397TIP3    H234683   5.474   4.379   3.398  0.2837 -3.3745 -1.2904
 4398TIP3   OH234684   1.496   6.019   5.817 -0.0504  0.0673  0.4776
 4398TIP3    H134685   1.462   6.102   5.786 -2.8317 -2.0308 -2.7209
 4398TIP3    H234686   1.431   5.987   5.880 -1.1053 -1.3059 -1.2150
 4399TIP3   OH234687   1.032   3.552  11.423  0.7868 -0.3666  0.7585
 4399TIP3    H134688   1.077   3.629  11.389  0.4656 -1.5369 -2.6817
 4399TIP3    H234689   0.939   3.569  11.404 -0.0244  0.4246  4.4945
 4400TIP3   OH234690   4.826   0.928  16.088 -0.1528  0.1254  0.0314
 4400TIP3    H134691   4.852   0.858  16.028 -0.8526  0.1011 -0.2507
 4400TIP3    H234692   4.870   0.907  16.171  0.3831 -0.1365 -0.3137
 4401TIP3   OH234693   0.610   2.953  14.669 -0.0260  0.2323  0.3611
 4401TIP3    H134694   0.676   3.022  14.674  0.1771  0.0019  0.8993
 4401TIP3    H234695   0.526   3.000  14.671  0.1151  0.5158 -0.1996
 4402TIP3   OH234696   0.153   2.310  14.917  0.0963  0.7862 -0.8167
 4402TIP3    H134697   0.081   2.259  14.879 -0.9079  1.2296  0.4303
 4402TIP3    H234698   0.146   2.396  14.875  0.9177  0.3536 -1.8782
 4403TIP3   OH234699   1.507   0.974  12.421  0.4634  0.1844 -0.7042
 4403TIP3    H134700   1.504   0.993  12.515 -0.3759  1.0790 -0.8841
 4403TIP3    H234701   1.474   1.055  12.380  3.1722  0.7760 -1.9089
 4404TIP3   OH234702   1.682   1.516   5.879  0.8537  0.3541 -0.8756
 4404TIP3    H134703   1.606   1.495   5.933 -0.2382 -0.0140 -2.4846
 4404TIP3    H234704   1.706   1.434   5.836 -0.5651  1.2598 -3.6482
 4405TIP3   OH234705   1.694   4.262   5.147  0.0591  0.4802 -0.3707
 4405TIP3    H134706   1.725   4.351   5.133  1.3788 -0.3842 -4.1819
 4405TIP3    H234707   1.774   4.209   5.145 -0.8900 -0.9882 -0.8912
 4406TIP3   OH234708   0.147   3.781  13.394  0.1823  0.4384 -0.4728
 4406TIP3    H134709   0.123   3.691  13.414  1.0009  0.7895  2.5192
 4406TIP3    H234710   0.235   3.791  13.429  0.1304  2.3944 -0.7994
 4407TIP3   OH234711   0.760   1.760  11.430 -0.0266  0.8592  0.3889
 4407TIP3    H134712   0.810   1.679  11.435  0.2403  0.9381 -0.7915
 4407TIP3    H234713   0.717   1.767  11.516  1.8549  0.7186  1.3936
 4408TIP3   OH234714   3.981   0.845   3.793  0.1789  0.5801 -0.0384
 4408TIP3    H134715   3.984   0.908   3.721  0.2217 -0.3306 -0.8660
 4408TIP3    H234716   4.059   0.791   3.780  0.4466  0.7019  0.9899
 4409TIP3   OH234717   0.701   3.467  12.541  0.7003 -0.1929  0.3061
 4409TIP3    H134718   0.759   3.422  12.603  0.9883 -1.7491 -1.0284
 4409TIP3    H234719   0.662   3.396  12.489 -1.3281  0.9113  0.2273
 4410TIP3   OH234720   4.885   3.998   3.005 -1.0806 -0.0310 -0.4392
 4410TIP3    H134721   4.977   4.022   3.009 -0.7717 -1.2234  0.0228
 4410TIP3    H234722   4.839   4.075   3.038 -0.3500  1.0043 -1.7209
 4411TIP3   OH234723   1.994   1.840  11.981  0.0023 -0.3968 -0.3475
 4411TIP3    H134724   2.006   1.820  11.889 -2.1733  0.3893 -0.8494
 4411TIP3    H234725   1.915   1.793  12.007 -1.6752  2.3858  0.0273
 4412TIP3   OH234726   2.363   3.155  14.594  0.2430 -0.1346 -0.6805
 4412TIP3    H134727   2.283   3.104  14.591  0.2571 -0.6760  3.0926
 4412TIP3    H234728   2.432   3.090  14.611  1.2406  0.5291 -2.0059
 4413TIP3   OH234729   0.642   4.242   4.559 -0.2569 -0.2862 -0.2397
 4413TIP3    H134730   0.676   4.161   4.522 -1.7267 -0.4104 -1.3840
 4413TIP3    H234731   0.547   4.237   4.546 -0.2877  2.2685 -1.8146
 4414TIP3   OH234732   3.055   3.635   5.179 -0.0926  0.4950 -0.1088
 4414TIP3    H134733   3.053   3.608   5.087  0.7784 -1.5906  0.4379
 4414TIP3    H234734   2.963   3.633   5.206 -0.3659  1.2067 -0.9331
 4415TIP3   OH234735   4.522   1.452   5.038 -0.2630  0.1776 -0.5316
 4415TIP3    H134736   4.548   1.523   5.097 -2.5983  0.7172 -0.0252
 4415TIP3    H234737   4.438   1.480   5.002  0.0074 -1.1840 -2.3832
 4416TIP3   OH234738   5.701   5.786  15.719 -0.1599  0.1692  0.5393
 4416TIP3    H134739   5.670   5.707  15.764 -0.8707  1.1148  1.7902
 4416TIP3    H234740   5.694   5.855  15.785  0.5869  1.2531 -0.4813
 4417TIP3   OH234741   3.776   1.560   3.863  0.8461 -0.7416  0.2126
 4417TIP3    H134742   3.791   1.524   3.775 -0.9023 -1.1379  0.0463
 4417TIP3    H234743   3.725   1.494   3.908 -1.2271  0.8626  0.3788
 4418TIP3   OH234744   1.347   6.183   5.478 -0.5219  0.0793  0.5659
 4418TIP3    H134745   1.321   6.092   5.467 -1.5299  0.4364 -0.2533
 4418TIP3    H234746   1.419   6.195   5.416 -1.1257  0.1096 -0.1469
 4419TIP3   OH234747   6.695   2.722   3.883  0.1906 -0.2806 -1.1233
 4419TIP3    H134748   6.716   2.636   3.920  1.0174  0.3293 -0.0959
 4419TIP3    H234749   6.607   2.740   3.914  1.4750  0.9992  2.2868
 4420TIP3   OH234750   5.839   5.718  15.982 -0.4920  0.4656 -0.2081
 4420TIP3    H134751   5.859   5.635  16.025 -2.5578 -0.6825 -1.3071
 4420TIP3    H234752   5.863   5.704  15.890 -3.0420  0.1745 -0.8925
 4421TIP3   OH234753   6.407   3.186  13.734  0.2437 -0.4606  0.6866
 4421TIP3    H134754   6.367   3.170  13.648  0.2018  1.1152  0.3904
 4421TIP3    H234755   6.334   3.182  13.796  0.2822 -1.6646  0.6823
 4422TIP3   OH234756   1.342   4.988   4.645  0.3110  0.0358 -0.1747
 4422TIP3    H134757   1.326   4.906   4.693 -1.5608  0.3605 -0.1719
 4422TIP3    H234758   1.437   4.988   4.628  0.2134 -2.6964 -1.2024
 4423TIP3   OH234759   3.827   1.373  15.016  0.6017  0.1581  0.4828
 4423TIP3    H134760   3.809   1.442  15.080 -0.8948 -0.3733  0.6710
 4423TIP3    H234761   3.884   1.414  14.951 -0.0745  1.5023  0.7132
 4424TIP3   OH234762   3.307   0.989   4.466  0.2883 -0.0403  0.3731
 4424TIP3    H134763   3.366   1.033   4.527 -1.0630 -0.9241  2.4372
 4424TIP3    H234764   3.225   1.039   4.471  0.2784  0.1379 -1.0992
 4425TIP3   OH234765   1.601   5.293  15.791 -0.0278  0.0645  0.0297
 4425TIP3    H134766   1.568   5.205  15.805  1.4276 -0.5766 -0.3452
 4425TIP3    H234767   1.601   5.333  15.878 -1.7633  0.1290  0.0373
 4426TIP3   OH234768   6.800   6.744  10.852 -0.1439  0.1381 -0.1793
 4426TIP3    H134769   6.761   6.696  10.779 -2.8339  0.6740  0.7947
 4426TIP3    H234770   6.845   6.818  10.811 -1.0592  0.0761 -1.3344
 4427TIP3   OH234771   4.445   3.394  12.297  0.0901 -0.2428  0.2601
 4427TIP3    H134772   4.468   3.427  12.211  1.1878  1.6492  1.2041
 4427TIP3    H234773   4.449   3.299  12.289 -0.9505 -0.1661 -2.0275
 4428TIP3   OH234774   1.470   0.046  14.491 -0.1465 -0.4232  0.0867
 4428TIP3    H134775   1.561   0.016  14.489 -0.2170 -0.6993  0.6908
 4428TIP3    H234776   1.471   0.130  14.445  0.3142 -0.6718 -0.3742
 4429TIP3   OH234777   6.286   6.285   0.285  0.0059 -0.0322  0.3653
 4429TIP3    H134778   6.208   6.339   0.294  0.2526  0.1134  1.9730
 4429TIP3    H234779   6.278   6.219   0.354  0.3818 -1.2317 -0.6796
 4430TIP3   OH234780   3.118   4.290  17.149  0.3614  0.1186 -0.1925
 4430TIP3    H134781   3.087   4.199  17.153 -0.2714  0.3774  1.1338
 4430TIP3    H234782   3.039   4.343  17.149  0.7009  0.6811 -1.6975
 4431TIP3   OH234783   6.589   6.296   3.408 -0.6065  0.2589 -0.0345
 4431TIP3    H134784   6.682   6.275   3.395 -0.5240 -0.5215  1.6148
 4431TIP3    H234785   6.581   6.386   3.376  0.1237 -0.4814 -2.5726
 4432TIP3   OH234786   2.126   1.810  12.221  0.2629  0.4910  0.8752
 4432TIP3    H134787   2.073   1.861  12.282 -1.9955  1.7246 -1.8991
 4432TIP3    H234788   2.091   1.831  12.134  2.9968 -1.4642 -0.8913
 4433TIP3   OH234789   5.066   1.684   0.852  0.0476 -0.5509  0.1289
 4433TIP3    H134790   5.064   1.722   0.939 -0.6947 -2.2896  0.9226
 4433TIP3    H234791   5.149   1.636   0.848  0.2777 -0.1278 -0.2870
 4434TIP3   OH234792   2.232   0.555  16.825  0.4034 -0.2383  0.1123
 4434TIP3    H134793   2.217   0.465  16.854  1.4808 -0.5410 -0.2149
 4434TIP3    H234794   2.149   0.600  16.841 -0.0532 -1.2140  0.5566
 4435TIP3   OH234795   4.983   2.548  12.333  0.5287  0.0940 -0.0459
 4435TIP3    H134796   5.069   2.543  12.376 -0.2236  1.0175  1.6943
 4435TIP3    H234797   4.963   2.458  12.309  0.5687 -0.6777  2.5280
 4436TIP3   OH234798   5.581   0.320  12.501 -0.2250 -0.0236  0.3096
 4436TIP3    H134799   5.582   0.354  12.411 -1.6451 -0.3033  0.1633
 4436TIP3    H234800   5.488   0.317  12.524  0.1136 -0.1227  1.7314
 4437TIP3   OH234801   1.991   3.194   3.695  0.0096  0.0583 -0.2313
 4437TIP3    H134802   2.029   3.165   3.778 -0.7663 -0.1134  0.0797
 4437TIP3    H234803   2.059   3.179   3.630  0.0566 -1.3678  0.1148
 4438TIP3   OH234804   0.033   3.889  16.057 -0.3697  0.5811 -0.4219
 4438TIP3    H134805  -0.061   3.869  16.051 -0.5408  1.2305 -0.0192
 4438TIP3    H234806   0.053   3.882  16.151  0.2200 -0.5323 -0.6087
 4439TIP3   OH234807   0.709   3.263   1.997 -0.1766  0.1540 -0.3477
 4439TIP3    H134808   0.755   3.284   2.078 -0.5490  0.9531 -0.3288
 4439TIP3    H234809   0.684   3.348   1.961  1.9870 -0.0238 -2.5223
 4440TIP3   OH234810   5.045   0.430  10.547 -0.6431  0.2222  0.4071
 4440TIP3    H134811   5.056   0.522  10.523  1.2846 -0.2642 -0.7754
 4440TIP3    H234812   5.008   0.389  10.469 -0.9094 -0.1348  0.7168
 4441TIP3   OH234813   2.977   3.955   3.789 -0.4947  0.2209  0.1255
 4441TIP3    H134814   3.040   3.896   3.749  1.9639  0.3193  3.3884
 4441TIP3    H234815   2.908   3.898   3.823  0.2562 -0.4565  0.5428
 4442TIP3   OH234816   4.870   5.364  13.581  0.0920 -0.4636  0.5839
 4442TIP3    H134817   4.876   5.272  13.608 -0.5753 -1.8663 -3.3428
 4442TIP3    H234818   4.781   5.373  13.548  0.5104  1.2303 -0.1775
 4443TIP3   OH234819   5.647   0.762   4.297 -0.4416  0.1828 -0.2053
 4443TIP3    H134820   5.705   0.696   4.259 -0.6630  0.3864 -0.9049
 4443TIP3    H234821   5.578   0.773   4.233 -1.0048  0.2970  0.4097
 4444TIP3   OH234822   0.961   4.125   1.063 -0.1002  0.4718  0.1899
 4444TIP3    H134823   0.993   4.068   0.992  0.2899 -0.4213  1.0469
 4444TIP3    H234824   0.877   4.157   1.032 -0.4872 -0.8497 -0.2056
 4445TIP3   OH234825   0.408   2.099   2.548 -0.4914 -0.0119  0.0015
 4445TIP3    H134826   0.499   2.103   2.577 -0.3082 -0.4976 -0.4805
 4445TIP3    H234827   0.400   2.013   2.507 -1.3080 -0.1773  0.4849
 4446TIP3   OH234828   4.012   4.929  11.918 -0.7771  0.4286  0.3874
 4446TIP3    H134829   3.981   4.882  11.996 -0.8068  0.5738  0.4644
 4446TIP3    H234830   3.944   4.995  11.901 -1.2217 -0.1962 -0.3062
 4447TIP3   OH234831   0.694   4.731  13.467  0.2112 -0.2668  0.0880
 4447TIP3    H134832   0.758   4.673  13.509  1.4668 -0.5030 -1.9713
 4447TIP3    H234833   0.611   4.710  13.509  0.9401 -2.2712  0.6653
 4448TIP3   OH234834   5.838   1.624  12.499 -0.7057 -0.1020  0.4954
 4448TIP3    H134835   5.769   1.603  12.437 -0.7138  0.7019  0.2168
 4448TIP3    H234836   5.815   1.576  12.579 -0.4522 -1.5128 -0.2476
 4449TIP3   OH234837   0.097   0.773  16.540 -0.2913  0.6191  0.3944
 4449TIP3    H134838   0.179   0.805  16.502 -0.0095 -1.0528 -0.5568
 4449TIP3    H234839   0.112   0.679  16.552 -1.2435  0.6803  2.4818
 4450TIP3   OH234840   5.457   5.584   0.963  0.3240 -0.1645  0.5183
 4450TIP3    H134841   5.495   5.646   1.025 -0.4862 -0.3713  1.2546
 4450TIP3    H234842   5.381   5.547   1.010 -0.4671 -0.1324 -0.6905
 4451TIP3   OH234843   1.622   0.862  15.417 -0.4151  0.0187  0.1413
 4451TIP3    H134844   1.562   0.901  15.480  0.6829  0.8435  0.7309
 4451TIP3    H234845   1.697   0.834  15.470  1.4120  2.4697 -0.9330
 4452TIP3   OH234846   0.029   0.066   1.261 -0.2362  0.8797  0.0623
 4452TIP3    H134847   0.052   0.012   1.337 -1.9966 -0.6155 -0.4037
 4452TIP3    H234848  -0.047   0.116   1.290 -0.4133  0.9132 -0.4670
 4453TIP3   OH234849   6.559   4.178  14.094  0.5936 -0.3961  0.6527
 4453TIP3    H134850   6.604   4.109  14.143  2.8278 -0.2078 -0.9626
 4453TIP3    H234851   6.581   4.160  14.002 -1.9470  0.2911 -0.1514
 4454TIP3   OH234852   5.034   6.087  14.541  0.3158 -0.0015 -0.0783
 4454TIP3    H134853   4.991   6.044  14.615  0.4313 -2.1401 -1.1602
 4454TIP3    H234854   4.969   6.085  14.471  1.3654 -1.2407 -1.0642
 4455TIP3   OH234855   3.982   1.761   3.851 -0.6449 -0.5616 -0.0791
 4455TIP3    H134856   3.901   1.712   3.867 -0.0191 -1.1256  1.6226
 4455TIP3    H234857   3.995   1.811   3.931  0.5992 -0.3341 -0.4112
 4456TIP3   OH234858   6.495   1.759   1.186 -0.4341  0.3619 -0.5741
 4456TIP3    H134859   6.400   1.767   1.196 -1.0936 -1.7837 -3.6900
 4456TIP3    H234860   6.514   1.670   1.214  1.2782  1.6678  2.8688
 4457TIP3   OH234861   3.470   0.610  12.475 -0.0929  0.2539 -0.2097
 4457TIP3    H134862   3.432   0.553  12.542  0.1471 -0.7310 -0.8946
 4457TIP3    H234863   3.416   0.596  12.397 -0.7062  1.8008 -0.1014
 4458TIP3   OH234864   4.847   5.208  16.675 -0.4534 -0.3702 -0.3867
 4458TIP3    H134865   4.855   5.204  16.770  0.0530  1.1151 -0.3404
 4458TIP3    H234866   4.869   5.120  16.645  0.3489 -0.5925  0.8117
 4459TIP3   OH234867   5.028   2.012   5.293  0.5772 -0.6327 -0.3892
 4459TIP3    H134868   5.108   1.987   5.340  0.8409  0.7375 -0.0440
 4459TIP3    H234869   5.024   2.107   5.302 -0.7224 -0.6000 -1.0190
 4460TIP3   OH234870   3.710   5.513   2.340 -0.0266  0.3824  0.2354
 4460TIP3    H134871   3.647   5.581   2.364 -1.6028 -1.6212  2.2004
 4460TIP3    H234872   3.660   5.432   2.343  1.3331 -0.8419 -3.7181
 4461TIP3   OH234873   6.265   3.036   3.124  0.2229  0.5839  0.0220
 4461TIP3    H134874   6.292   3.115   3.077  0.9392  0.4067  0.1203
 4461TIP3    H234875   6.296   2.964   3.069 -3.1929  0.2605 -1.7301
 4462TIP3   OH234876   1.221   0.888  13.661  0.2753  0.2009  0.3054
 4462TIP3    H134877   1.146   0.843  13.622  0.0893  1.9927 -1.5867
 4462TIP3    H234878   1.295   0.829  13.645  0.0771  0.5401 -2.2574
 4463TIP3   OH234879   6.309   2.865   0.473  0.0466  0.8155  0.0725
 4463TIP3    H134880   6.292   2.773   0.452  0.2915  0.9787 -0.8904
 4463TIP3    H234881   6.244   2.914   0.423 -0.6832  1.1483  1.2817
 4464TIP3   OH234882   2.520   0.146  13.794  0.2685 -0.2112 -0.3723
 4464TIP3    H134883   2.532   0.051  13.802  0.4730 -0.1942 -0.4603
 4464TIP3    H234884   2.585   0.172  13.728  0.2504 -0.0027 -0.3064
 4465TIP3   OH234885   3.839   0.637  11.689 -0.0760 -0.0277 -0.0353
 4465TIP3    H134886   3.785   0.612  11.765 -0.1731 -0.4126 -0.2280
 4465TIP3    H234887   3.793   0.712  11.652 -0.8692 -0.7588 -0.5938
 4466TIP3   OH234888   2.898   6.671  15.584  0.2009 -0.0525 -0.1632
 4466TIP3    H134889   2.844   6.609  15.533 -0.6405  0.6112 -0.1093
 4466TIP3    H234890   2.887   6.754  15.538  1.0803  0.1304 -0.0567
 4467TIP3   OH234891   6.601   1.305  13.914 -0.2957 -0.2646 -0.1768
 4467TIP3    H134892   6.593   1.260  13.830 -2.2137  0.8551 -0.6392
 4467TIP3    H234893   6.640   1.390  13.892 -1.4630  0.3157 -0.0635
 4468TIP3   OH234894   1.097   4.185  14.739 -0.0500  1.0301 -0.5238
 4468TIP3    H134895   1.138   4.118  14.794  0.7215  1.2893 -0.7607
 4468TIP3    H234896   1.003   4.168  14.746  0.1535 -0.4919 -1.1319
 4469TIP3   OH234897   6.348   0.866   1.047 -0.4343 -0.1288  0.4360
 4469TIP3    H134898   6.424   0.907   1.005 -0.2658 -0.1087  0.7598
 4469TIP3    H234899   6.385   0.809   1.114 -0.6746 -0.7332  0.0616
 4470TIP3   OH234900   4.634   6.653  16.638 -0.0187  0.4059  0.2392
 4470TIP3    H134901   4.573   6.607  16.696  0.3362 -0.3727  0.0047
 4470TIP3    H234902   4.721   6.623  16.665  0.3927  2.5586  1.5032
 4471TIP3   OH234903   2.437   6.323  12.207 -0.2189  0.2717  0.2390
 4471TIP3    H134904   2.518   6.372  12.189 -0.3781  1.8935  3.2913
 4471TIP3    H234905   2.461   6.231  12.195  2.0074  0.7419  0.6930
 4472TIP3   OH234906   2.641   3.445   1.098 -0.2212  0.0886  0.5595
 4472TIP3    H134907   2.656   3.466   1.190 -0.2957  1.3158  0.3046
 4472TIP3    H234908   2.580   3.512   1.068  0.8033  0.4656 -0.7143
 4473TIP3   OH234909   5.174   0.016   3.096 -0.7061 -0.1319  0.1152
 4473TIP3    H134910   5.162   0.103   3.134 -1.0375  0.5035 -1.3994
 4473TIP3    H234911   5.261   0.018   3.057 -1.4889  0.2669 -1.7261
 4474TIP3   OH234912   5.459   3.751  13.829 -0.1147  0.3448 -0.1467
 4474TIP3    H134913   5.466   3.658  13.806 -0.5257  0.1848  0.3578
 4474TIP3    H234914   5.383   3.756  13.886  0.0101  0.9697 -0.0279
 4475TIP3   OH234915   5.604   0.124   0.045 -0.1376  0.4163  0.1244
 4475TIP3    H134916   5.519   0.133   0.088 -0.9200  0.8074 -1.4164
 4475TIP3    H234917   5.605   0.195  -0.019  0.8549 -0.3154 -0.6984
 4476TIP3   OH234918   2.691   5.933   2.573  0.9238  0.7006 -0.3518
 4476TIP3    H134919   2.660   5.908   2.660  1.4123 -1.0621 -0.6584
 4476TIP3    H234920   2.684   5.853   2.520  2.1809  1.3028 -1.5007
 4477TIP3   OH234921   3.773   3.692  10.721  0.2496  0.3869  0.1086
 4477TIP3    H134922   3.859   3.701  10.679  0.6252  3.3561  1.2738
 4477TIP3    H234923   3.769   3.765  10.783 -2.2194 -1.0123  1.7608
 4478TIP3   OH234924   0.798   3.305   4.893 -0.4735  0.2331 -0.3816
 4478TIP3    H134925   0.735   3.295   4.964 -0.3892  1.2473 -0.1384
 4478TIP3    H234926   0.763   3.376   4.839  0.9873  1.6342  0.4066
 4479TIP3   OH234927   4.299   6.608  16.376  0.3488  0.0571  0.4272
 4479TIP3    H134928   4.259   6.650  16.453  0.7407 -0.0047  0.6687
 4479TIP3    H234929   4.225   6.589  16.318 -0.2364 -1.8426  1.7152
 4480TIP3   OH234930   6.426   3.008   5.077 -0.0876  0.2313 -0.5756
 4480TIP3    H134931   6.377   2.971   5.003  0.6312  0.1620 -1.0258
 4480TIP3    H234932   6.495   2.945   5.094  1.1217  1.3125 -1.3197
 4481TIP3   OH234933   6.330   2.000  13.307 -0.0580  0.2441  0.3773
 4481TIP3    H134934   6.363   1.911  13.296 -1.5942 -0.5228  1.6196
 4481TIP3    H234935   6.237   1.995  13.284  0.1810  1.9299 -1.2179
 4482TIP3   OH234936   5.849   6.716  14.799 -0.1895 -0.1419  0.3340
 4482TIP3    H134937   5.860   6.662  14.877  1.0518 -0.4198 -0.0156
 4482TIP3    H234938   5.891   6.799  14.821 -1.1596  0.3225  0.4858
 4483TIP3   OH234939   5.296   5.969   4.494  0.4657 -0.2423  0.2717
 4483TIP3    H134940   5.350   5.962   4.573 -0.3229  0.1201  0.8494
 4483TIP3    H234941   5.307   6.060   4.465  0.4148 -0.2569  0.2062
 4484TIP3   OH234942   3.635   3.534  14.348  0.2056 -0.8444  0.3153
 4484TIP3    H134943   3.593   3.454  14.378 -0.2952  0.0907  2.2696
 4484TIP3    H234944   3.606   3.544  14.257  0.6287 -3.0593 -0.1144
 4485TIP3   OH234945   5.944   3.542  16.805 -0.8649  0.2231  0.3517
 4485TIP3    H134946   5.862   3.591  16.803 -0.4487  0.9394  0.4544
 4485TIP3    H234947   5.939   3.482  16.731 -0.8876  1.2475 -0.4997
 4486TIP3   OH234948   2.186   5.040  14.223 -0.3774 -0.4108  0.3527
 4486TIP3    H134949   2.177   5.013  14.131  2.7926 -0.7903  0.0256
 4486TIP3    H234950   2.149   4.968  14.273  0.6699 -1.7096 -0.6451
 4487TIP3   OH234951   1.582   5.165  13.185  1.0233  0.0433 -0.3545
 4487TIP3    H134952   1.572   5.234  13.251  0.6144 -1.3746  1.1439
 4487TIP3    H234953   1.497   5.162  13.142  0.8404  0.0630 -0.0022
 4488TIP3   OH234954   3.754   5.924   2.729 -0.5838  0.1451 -0.2048
 4488TIP3    H134955   3.666   5.948   2.701 -1.7733 -2.0558  1.4085
 4488TIP3    H234956   3.761   5.959   2.818  0.0781  0.0978 -0.2363
 4489TIP3   OH234957   4.958   0.648  13.612  0.3656 -0.3449  0.3884
 4489TIP3    H134958   4.951   0.570  13.667  2.8057  0.0452  1.3995
 4489TIP3    H234959   5.001   0.617  13.532 -2.9363 -0.8581 -1.3519
 4490TIP3   OH234960   0.114   3.834  15.762 -0.0484 -0.4531 -0.0523
 4490TIP3    H134961   0.080   3.834  15.851  3.1785 -0.2399  1.3093
 4490TIP3    H234962   0.113   3.741  15.736  0.0319 -0.6484  0.6297
 4491TIP3   OH234963   3.076   3.340  13.298 -0.4015  0.9338  0.1305
 4491TIP3    H134964   3.111   3.352  13.210  1.7155 -0.0497  0.7879
 4491TIP3    H234965   3.090   3.247  13.317 -2.0073  0.8344  1.0583
 4492TIP3   OH234966   4.616   1.092  12.788 -0.4000  0.0485 -0.0987
 4492TIP3    H134967   4.553   1.023  12.766  0.3322 -0.8831  0.5900
 4492TIP3    H234968   4.680   1.089  12.717  0.0974 -0.5881  0.3664
 4493TIP3   OH234969   1.557   1.304   5.269 -0.2676  0.1597 -0.5736
 4493TIP3    H134970   1.503   1.379   5.293 -0.4241 -0.1185 -0.0453
 4493TIP3    H234971   1.627   1.342   5.215 -0.7803  0.5712 -0.9669
 4494TIP3   OH234972   2.950   4.416   2.336 -0.0623  0.7639 -0.3201
 4494TIP3    H134973   2.981   4.435   2.247  0.7637  1.9308  0.1819
 4494TIP3    H234974   2.965   4.498   2.384 -0.0971  0.0234  0.9994
 4495TIP3   OH234975   3.718   3.931   4.553 -0.4520 -0.6663 -0.3342
 4495TIP3    H134976   3.692   3.839   4.556  1.7804 -1.3440  0.4954
 4495TIP3    H234977   3.693   3.966   4.639  1.0512 -1.2719  0.3988
 4496TIP3   OH234978   5.860   6.778  12.693 -0.7824 -0.7297 -0.1603
 4496TIP3    H134979   5.905   6.827  12.625  0.5421  0.2647  1.3553
 4496TIP3    H234980   5.779   6.827  12.708 -1.7820 -1.7480 -1.9407
 4497TIP3   OH234981   4.037   4.218   3.048  0.5815 -0.4771 -0.0478
 4497TIP3    H134982   3.944   4.243   3.044  0.5305 -0.7158 -0.3997
 4497TIP3    H234983   4.038   4.126   3.023  1.0225 -0.2036 -1.0707
 4498TIP3   OH234984   3.707   6.003   0.321 -0.1732  0.1061 -0.7624
 4498TIP3    H134985   3.772   5.944   0.357  1.2010  1.4456 -0.9336
 4498TIP3    H234986   3.745   6.032   0.238 -1.1070  0.7272 -0.9862
 4499TIP3   OH234987   5.257   0.778   2.861  0.3321 -0.3077 -0.3635
 4499TIP3    H134988   5.348   0.790   2.835  0.4838 -2.0071 -0.7453
 4499TIP3    H234989   5.254   0.807   2.952  1.1876  0.0605 -0.4463
 4500TIP3   OH234990   5.626   3.295  14.938 -0.3102  0.0419 -0.3654
 4500TIP3    H134991   5.582   3.281  14.854 -0.0722 -3.4231 -0.0446
 4500TIP3    H234992   5.557   3.283  15.003  0.2580 -1.2403  0.0192
 4501TIP3   OH234993   0.305   1.646   1.749 -0.0291  0.3908  0.0799
 4501TIP3    H134994   0.275   1.731   1.780  1.1941  0.6487  0.6302
 4501TIP3    H234995   0.254   1.582   1.800  0.1481  0.8072  0.7942
 4502TIP3   OH234996   3.855   0.859   2.432 -0.1298  0.1226 -0.5274
 4502TIP3    H134997   3.837   0.853   2.338  1.3820  1.5048 -0.9349
 4502TIP3    H234998   3.873   0.769   2.459 -0.2012 -0.2365 -1.6463
 4503TIP3   OH234999   4.947   2.073   0.905 -0.2998  0.3473 -0.3695
 4503TIP3    H135000   4.976   2.062   0.996 -0.0650 -1.3823 -0.6298
 4503TIP3    H235001   5.028   2.093   0.857 -0.4117  1.1732 -0.2371
 4504TIP3   OH235002   2.878   4.162  12.877  0.1519  0.1305  0.1305
 4504TIP3    H135003   2.866   4.136  12.786 -0.2223  0.1538  0.1683
 4504TIP3    H235004   2.799   4.212  12.898 -0.4217 -1.0377  0.8784
 4505TIP3   OH235005   0.412   2.274  14.784  0.3542 -0.8963 -0.1240
 4505TIP3    H135006   0.348   2.343  14.801  0.5135 -0.8807  0.4468
 4505TIP3    H235007   0.367   2.212  14.727 -0.4146 -1.2461  0.8423
 4506TIP3   OH235008   4.163   2.173   0.816  0.3915  0.0135  0.4059
 4506TIP3    H135009   4.150   2.078   0.810  0.1266  0.1146 -1.0723
 4506TIP3    H235010   4.149   2.205   0.726 -0.6392  1.5923  1.0780
 4507TIP3   OH235011   6.541   6.213  10.978  0.0570 -0.0076  0.4187
 4507TIP3    H135012   6.599   6.283  10.949  1.1086 -0.6365  0.9610
 4507TIP3    H235013   6.524   6.162  10.899  0.7920 -0.2066  0.3846
 4508TIP3   OH235014   3.637   3.672  13.305 -0.2686  0.0500 -0.2742
 4508TIP3    H135015   3.571   3.646  13.240  0.9267 -0.8167 -1.2065
 4508TIP3    H235016   3.643   3.597  13.364  0.8651 -0.5151 -1.0504
 4509TIP3   OH235017   5.766   0.522   3.424 -0.2418 -0.0351  0.2894
 4509TIP3    H135018   5.811   0.606   3.421 -1.8053  0.8248 -1.8075
 4509TIP3    H235019   5.683   0.541   3.467 -0.2655 -0.7025  0.5476
 4510TIP3   OH235020   3.163   6.395   3.962  0.1641  0.3501 -0.0342
 4510TIP3    H135021   3.189   6.342   4.037 -0.8007  1.8948  1.4608
 4510TIP3    H235022   3.177   6.337   3.887  3.3801 -0.4861  1.0233
 4511TIP3   OH235023   5.388   2.375  10.882  0.1773  0.4379 -0.0471
 4511TIP3    H135024   5.358   2.302  10.829  2.8849  0.7750 -2.2867
 4511TIP3    H235025   5.365   2.351  10.972 -0.1858 -2.5301 -0.8349
 4512TIP3   OH235026   2.417   6.233   5.150 -0.8937 -0.4662  0.3331
 4512TIP3    H135027   2.329   6.213   5.183  0.0245 -1.0836  2.5915
 4512TIP3    H235028   2.455   6.291   5.217  0.5407 -0.4786 -0.4391
 4513TIP3   OH235029   3.979   3.962  14.259 -0.1410  0.2419  0.1367
 4513TIP3    H135030   3.893   3.960  14.302  0.6823 -0.1626  1.8313
 4513TIP3    H235031   3.959   3.979  14.167 -1.9471  1.5478  0.7226
 4514TIP3   OH235032   5.613   5.489   5.192 -0.1588 -1.1507 -0.0454
 4514TIP3    H135033   5.654   5.446   5.117 -2.4569 -0.3118 -1.9105
 4514TIP3    H235034   5.529   5.522   5.158 -0.5026  0.8505  2.4393
 4515TIP3   OH235035   6.699   5.452  13.994  0.6504 -0.1077 -0.4931
 4515TIP3    H135036   6.785   5.412  14.009  0.5444  0.1697  1.0260
 4515TIP3    H235037   6.636   5.390  14.030  0.4681  1.2017  1.6405
 4516TIP3   OH235038   1.246   1.098   1.774 -0.6084 -0.7898  0.1982
 4516TIP3    H135039   1.191   1.095   1.696 -1.5529  2.1491  0.6296
 4516TIP3    H235040   1.235   1.187   1.809  3.4839 -0.3696  0.9997
 4517TIP3   OH235041   2.849   6.723   2.648  0.2256 -0.5576  0.0951
 4517TIP3    H135042   2.819   6.666   2.577  0.5137  1.6166 -1.9097
 4517TIP3    H235043   2.920   6.674   2.690 -0.4469 -2.2172 -0.6102
 4518TIP3   OH235044   3.065   6.455  12.875  0.2182 -0.1284  0.3669
 4518TIP3    H135045   3.091   6.382  12.819 -0.9802  0.2838 -0.7808
 4518TIP3    H235046   3.147   6.488  12.911  0.9649 -0.7810 -0.6917
 4519TIP3   OH235047   4.773   0.052   2.252 -0.0693 -0.1502 -0.4092
 4519TIP3    H135048   4.741   0.062   2.163  0.6741  1.8355 -0.5034
 4519TIP3    H235049   4.868   0.060   2.245 -0.0505  0.8132  0.6368
 4520TIP3   OH235050   5.108   6.420  14.873  0.5831  0.3030  0.6429
 4520TIP3    H135051   5.040   6.480  14.903 -0.7941 -1.3499  0.9492
 4520TIP3    H235052   5.063   6.358  14.816  1.8622 -0.7140  0.6798
 4521TIP3   OH235053   2.525   4.582   3.258  0.5696 -0.0643 -0.0920
 4521TIP3    H135054   2.556   4.671   3.243 -0.1590  0.8102  2.8726
 4521TIP3    H235055   2.436   4.581   3.223  0.6618  0.2929 -0.3417
 4522TIP3   OH235056   1.318   0.169   1.620 -0.1943  0.0874 -0.7963
 4522TIP3    H135057   1.387   0.229   1.648 -1.2584  0.7140  0.5986
 4522TIP3    H235058   1.268   0.218   1.556  1.0766 -0.6517 -2.4264
 4523TIP3   OH235059   1.493   2.910   4.044  0.1729  0.1726 -0.1907
 4523TIP3    H135060   1.583   2.935   4.062 -0.1259  2.0679 -1.1112
 4523TIP3    H235061   1.454   2.899   4.131  0.9226  0.7529  0.2339
 4524TIP3   OH235062   4.819   3.743  11.392  0.0016 -0.5541 -0.3894
 4524TIP3    H135063   4.889   3.772  11.333 -0.0873 -2.4688 -1.5218
 4524TIP3    H235064   4.864   3.724  11.474  0.5493 -0.2618 -0.6143
 4525TIP3   OH235065   3.128   1.715  15.714 -0.6875  0.0141  0.3702
 4525TIP3    H135066   3.171   1.784  15.663 -0.5056  1.2450  2.1256
 4525TIP3    H235067   3.034   1.732  15.702 -0.6420  0.7993  1.0907
 4526TIP3   OH235068   3.962   2.631  15.050  0.3346 -0.4109 -0.2732
 4526TIP3    H135069   3.899   2.700  15.030 -1.3219 -0.8622  2.7584
 4526TIP3    H235070   3.923   2.552  15.012 -1.2715 -0.7568  1.9118
 4527TIP3   OH235071   3.946   5.699   1.893 -0.3639 -0.0912  0.5009
 4527TIP3    H135072   3.886   5.737   1.957 -0.7931 -0.2809  0.2184
 4527TIP3    H235073   3.897   5.700   1.811  0.7045  1.5341 -0.1719
 4528TIP3   OH235074   5.478   0.728  15.755  0.4786 -0.1101  0.0726
 4528TIP3    H135075   5.514   0.752  15.840  0.4391  1.5387 -0.3426
 4528TIP3    H235076   5.536   0.770  15.692  0.3208 -1.0567 -0.7198
 4529TIP3   OH235077   0.049   5.779   2.981 -0.3364 -0.3422 -0.2884
 4529TIP3    H135078   0.117   5.840   2.954  0.0535 -0.2113  0.9479
 4529TIP3    H235079  -0.024   5.836   3.008  0.1334 -0.3908  1.1432
 4530TIP3   OH235080   1.868   5.449  13.278 -0.6528  0.5164 -0.4527
 4530TIP3    H135081   1.793   5.445  13.338 -1.0148  0.6572 -0.8886
 4530TIP3    H235082   1.870   5.364  13.235 -0.4873  0.4682 -0.3501
 4531TIP3   OH235083   2.355   2.989   1.714 -0.3271 -0.4475  0.2699
 4531TIP3    H135084   2.365   2.972   1.807  0.4822  0.9377  0.4644
 4531TIP3    H235085   2.427   2.940   1.673  0.1988  0.1124  0.5198
 4532TIP3   OH235086   2.795   0.121   2.430 -0.1814  0.2961  0.1339
 4532TIP3    H135087   2.760   0.074   2.506  1.2954  0.9905  1.2917
 4532TIP3    H235088   2.888   0.131   2.449 -0.1792  2.3914 -0.7573
 4533TIP3   OH235089   2.032   6.182  14.651 -0.1530  0.0418  0.0465
 4533TIP3    H135090   1.941   6.153  14.642 -0.2270  0.6292 -1.4375
 4533TIP3    H235091   2.026   6.276  14.668  0.1625  0.0220  0.2684
 4534TIP3   OH235092   1.547   1.006  11.838  0.0200  0.1645 -0.0656
 4534TIP3    H135093   1.503   1.087  11.813  0.2780 -0.2223 -1.8870
 4534TIP3    H235094   1.641   1.026  11.830  0.1818  0.4095  1.9375
 4535TIP3   OH235095   3.150   4.100  15.096  0.1766 -0.8516  0.1768
 4535TIP3    H135096   3.154   4.093  15.192  1.0929 -2.9972  0.0582
 4535TIP3    H235097   3.212   4.034  15.066  0.4696  0.3137 -1.9194
 4536TIP3   OH235098   5.921   5.036  11.216  0.3764 -0.2732  0.6818
 4536TIP3    H135099   5.991   5.027  11.281  1.7310  0.0958 -0.6553
 4536TIP3    H235100   5.932   4.961  11.158  0.0628  0.1244  0.0953
 4537TIP3   OH235101   4.072   5.982  13.130 -0.3013  0.4398 -0.3071
 4537TIP3    H135102   4.142   5.921  13.107  1.8396  1.7907  2.0661
 4537TIP3    H235103   4.027   5.940  13.203 -0.2443  0.7018 -0.1179
 4538TIP3   OH235104   4.601   4.541  12.043 -0.1975  0.6682 -0.3526
 4538TIP3    H135105   4.579   4.536  11.950 -0.5954  0.2403 -0.2399
 4538TIP3    H235106   4.687   4.501  12.050 -1.1926 -1.5796 -0.1968
 4539TIP3   OH235107   0.564   1.882  11.285  0.8650  0.1776 -0.3574
 4539TIP3    H135108   0.594   1.853  11.199  3.8086  2.5672 -0.3008
 4539TIP3    H235109   0.621   1.837  11.347  0.8281  0.7914  0.1326
 4540TIP3   OH235110   1.579   4.491   3.302 -0.3554 -0.0922  0.0489
 4540TIP3    H135111   1.514   4.450   3.245 -0.6852 -1.5096  1.3744
 4540TIP3    H235112   1.589   4.580   3.268 -1.4907 -0.4820 -1.3974
 4541TIP3   OH235113   0.459   5.847  14.090  0.2986  0.7974  0.1780
 4541TIP3    H135114   0.473   5.781  14.022  0.6269  2.2701 -1.2723
 4541TIP3    H235115   0.548   5.877  14.112  0.2171  0.0813  1.5441
 4542TIP3   OH235116   3.663   6.247  12.715  0.1304  0.3284 -0.2442
 4542TIP3    H135117   3.754   6.273  12.729  0.1228  0.4878 -0.4882
 4542TIP3    H235118   3.613   6.292  12.782  0.7199 -3.0747  2.8023
 4543TIP3   OH235119   0.648   5.123  14.758 -0.0118 -0.1729  0.1391
 4543TIP3    H135120   0.556   5.108  14.780 -0.3780  0.7582 -0.6632
 4543TIP3    H235121   0.675   5.195  14.814  0.9824 -1.9734  2.1257
 4544TIP3   OH235122   1.629   1.708  16.777  0.1043 -0.3411  0.0315
 4544TIP3    H135123   1.717   1.731  16.747 -0.7160  0.1845 -2.1661
 4544TIP3    H235124   1.584   1.792  16.785 -1.0705 -0.7338 -1.8896
 4545TIP3   OH235125   1.231   6.730   1.734 -0.3878 -0.1280  0.5952
 4545TIP3    H135126   1.200   6.720   1.644  2.3850 -0.0803 -0.4378
 4545TIP3    H235127   1.271   6.816   1.736 -0.3321 -0.1694  1.8732
 4546TIP3   OH235128   6.714   4.414   4.830  1.2137 -0.4464 -0.5544
 4546TIP3    H135129   6.676   4.445   4.912  1.3342 -1.4660 -0.1001
 4546TIP3    H235130   6.772   4.485   4.802 -0.3678  0.7948 -0.8563
 4547TIP3   OH235131   0.160   1.022   1.442  0.3587 -0.1395 -0.3806
 4547TIP3    H135132   0.128   0.948   1.392 -0.4757 -0.6407  0.8424
 4547TIP3    H235133   0.167   1.093   1.379 -0.2053 -0.8710 -1.2845
 4548TIP3   OH235134   6.209   3.156  13.468 -0.1840 -0.5696  0.0074
 4548TIP3    H135135   6.270   3.118  13.406  0.5525 -1.2155  1.0941
 4548TIP3    H235136   6.161   3.082  13.504  1.8461 -0.7295  2.7667
 4549TIP3   OH235137   2.142   3.141  16.320  0.4906  0.2955 -0.2076
 4549TIP3    H135138   2.214   3.102  16.369  1.8029  2.9277  0.1411
 4549TIP3    H235139   2.179   3.161  16.234 -0.8291 -1.2427 -1.1942
 4550TIP3   OH235140   6.601   1.121  12.754  0.4822  0.5475 -0.1708
 4550TIP3    H135141   6.682   1.100  12.801  1.0473  1.1868 -0.8364
 4550TIP3    H235142   6.576   1.039  12.711  0.7816  0.3537  0.0244
 4551TIP3   OH235143   5.644   1.786   3.008 -0.0686 -0.2057  0.0853
 4551TIP3    H135144   5.721   1.794   3.064 -0.6606 -0.7145  0.9983
 4551TIP3    H235145   5.597   1.710   3.043 -0.3981 -0.5980 -1.1726
 4552TIP3   OH235146   5.754   3.900   3.557 -0.7571  0.8519  0.1418
 4552TIP3    H135147   5.742   3.835   3.627  1.9715 -1.1189 -1.0434
 4552TIP3    H235148   5.713   3.861   3.480  2.7544 -0.7411 -1.1365
 4553TIP3   OH235149   6.350   2.082   0.592  0.2633 -0.3416 -0.8292
 4553TIP3    H135150   6.323   2.158   0.644  0.8943  0.4079 -1.5784
 4553TIP3    H235151   6.370   2.014   0.658  0.9791  0.5686 -0.0798
 4554TIP3   OH235152   5.247   3.490   1.633  0.0211 -0.1428 -0.1259
 4554TIP3    H135153   5.316   3.557   1.637 -1.2821  1.1970  0.9343
 4554TIP3    H235154   5.227   3.482   1.539 -0.1045  1.3103 -0.2502
 4555TIP3   OH235155   2.905   2.360  15.975 -0.7327 -0.5228  0.8586
 4555TIP3    H135156   2.942   2.448  15.986 -0.9467 -0.5476  1.8970
 4555TIP3    H235157   2.810   2.373  15.978 -0.7773 -0.6988  0.2379
 4556TIP3   OH235158   3.036   4.766   5.402 -0.4766 -0.2287 -0.3049
 4556TIP3    H135159   3.037   4.680   5.443  0.8116 -0.7662 -1.3704
 4556TIP3    H235160   3.029   4.828   5.474  0.4734 -1.1708  0.6169
 4557TIP3   OH235161   6.021   3.853   5.967 -0.4734 -0.2573  0.8222
 4557TIP3    H135162   6.039   3.762   5.941  0.1013 -0.0024  0.3122
 4557TIP3    H235163   6.107   3.891   5.982 -0.7349  0.0886  1.4467
 4558TIP3   OH235164   0.183   3.617  16.468  0.8384 -0.5419 -0.3965
 4558TIP3    H135165   0.144   3.543  16.513  1.1547  0.2465  1.2497
 4558TIP3    H235166   0.245   3.654  16.531 -0.6779  2.2615 -0.3551
 4559TIP3   OH235167   4.300   1.140   0.094  0.2074  0.3361 -0.0166
 4559TIP3    H135168   4.281   1.207   0.029  2.9704  1.5086  0.2240
 4559TIP3    H235169   4.323   1.189   0.173  0.9106 -0.9193  0.5924
 4560TIP3   OH235170   2.494   4.624   5.465  0.1037  0.5770 -0.3464
 4560TIP3    H135171   2.572   4.584   5.427 -0.9264 -0.8622 -1.0193
 4560TIP3    H235172   2.505   4.610   5.560  0.5436  0.1727 -0.4510
 4561TIP3   OH235173   0.272   6.756  12.821 -0.3038  0.1815 -0.0119
 4561TIP3    H135174   0.349   6.805  12.792  1.6454 -2.5913  0.1722
 4561TIP3    H235175   0.248   6.702  12.746 -2.4693  1.3234 -0.2364
 4562TIP3   OH235176   6.016   2.481  13.117 -0.2876  0.1604 -0.4407
 4562TIP3    H135177   5.941   2.512  13.167 -1.4091 -1.7622 -0.8112
 4562TIP3    H235178   6.092   2.501  13.171 -0.7646  3.9970 -0.9331
 4563TIP3   OH235179   5.777   1.461  11.417 -0.1904 -0.2838  0.5241
 4563TIP3    H135180   5.789   1.369  11.437 -1.5964 -0.5226  0.3885
 4563TIP3    H235181   5.845   1.481  11.352  2.4754 -0.2585  3.0875
 4564TIP3   OH235182   4.598   0.156   0.018 -0.8366  0.3401  0.5931
 4564TIP3    H135183   4.619   0.065  -0.001 -1.1625  0.2280  0.7720
 4564TIP3    H235184   4.593   0.198  -0.069  0.3320  0.4244  0.5469
 4565TIP3   OH235185   2.243   3.081   3.835  0.6120 -0.0836  0.2315
 4565TIP3    H135186   2.284   3.081   3.921  1.8057 -0.1570 -0.3299
 4565TIP3    H235187   2.303   3.130   3.780 -0.7744  1.1343 -0.2798
 4566TIP3   OH235188   5.917   6.131   3.106 -0.3861  0.0351 -0.3412
 4566TIP3    H135189   5.922   6.201   3.040 -1.4009  1.4513  1.0005
 4566TIP3    H235190   6.007   6.101   3.116  0.1280  1.3504 -0.7669
 4567TIP3   OH235191   2.212   3.726  16.146 -0.1665 -0.2216  0.3031
 4567TIP3    H135192   2.139   3.672  16.176 -0.3013  0.5490  1.4332
 4567TIP3    H235193   2.219   3.795  16.212  1.2740 -0.0090 -0.0374
 4568TIP3   OH235194   1.803   1.006  15.814  0.5573 -0.7359 -0.4369
 4568TIP3    H135195   1.859   1.030  15.888 -0.2741 -1.3057  0.4072
 4568TIP3    H235196   1.810   1.080  15.754 -0.8938  1.0919  1.4720
 4569TIP3   OH235197   6.448   5.480  15.939  0.2561 -0.1455  0.1160
 4569TIP3    H135198   6.508   5.406  15.946  1.2294  0.7231  1.7742
 4569TIP3    H235199   6.495   5.552  15.982 -1.0885  1.1506 -0.5064
 4570TIP3   OH235200   6.340   1.728  11.847  0.2480 -0.3687  0.2604
 4570TIP3    H135201   6.347   1.678  11.928  0.6372 -0.6956  0.0333
 4570TIP3    H235202   6.246   1.733  11.829  0.2224 -2.1963 -0.4107
 4571TIP3   OH235203   2.682   3.634  14.407  0.0600 -0.1159  0.0290
 4571TIP3    H135204   2.698   3.573  14.479 -0.7453 -0.5062 -0.1054
 4571TIP3    H235205   2.623   3.587  14.348 -0.5505  0.7721 -0.0928
 4572TIP3   OH235206   3.572   3.049   5.289  0.1737  0.0984  0.0884
 4572TIP3    H135207   3.578   2.974   5.348  2.2714  1.5430  1.8776
 4572TIP3    H235208   3.484   3.085   5.304  0.7436  0.5948  2.6702
 4573TIP3   OH235209   4.633   4.739   5.697 -0.1091  0.5561  0.3270
 4573TIP3    H135210   4.693   4.664   5.707 -1.3206 -0.7084 -1.3020
 4573TIP3    H235211   4.644   4.766   5.606  0.3269  2.4419  0.8912
 4574TIP3   OH235212   1.089   4.371   1.927  0.3408 -0.0763  0.1145
 4574TIP3    H135213   1.164   4.375   1.867 -0.1917 -0.3232 -0.5816
 4574TIP3    H235214   1.091   4.282   1.962  0.9632  0.2296  0.8874
 4575TIP3   OH235215   5.670   4.159  10.313  0.3241  0.3027  0.0106
 4575TIP3    H135216   5.592   4.160  10.258  0.2967  1.3265  0.0643
 4575TIP3    H235217   5.645   4.103  10.387 -0.5969  1.1370  0.3580
 4576TIP3   OH235218   3.662   1.647   3.086 -0.0187  0.5276 -0.1872
 4576TIP3    H135219   3.661   1.575   3.023  2.2430  0.1492  0.1284
 4576TIP3    H235220   3.665   1.604   3.171  0.0846  1.0048  0.0539
 4577TIP3   OH235221   1.221   4.830  15.223  0.3249  0.0982  0.4061
 4577TIP3    H135222   1.316   4.836  15.230  0.1637  1.9422  1.9702
 4577TIP3    H235223   1.188   4.870  15.303 -1.7887 -0.5779 -0.0489
 4578TIP3   OH235224   1.470   0.687   3.930  0.3328 -0.6315 -0.4506
 4578TIP3    H135225   1.401   0.733   3.883  0.9683  0.7199 -0.1000
 4578TIP3    H235226   1.459   0.715   4.021  2.5094  1.1627 -0.6751
 4579TIP3   OH235227   6.418   3.655  14.199 -0.0970 -0.0260 -0.1840
 4579TIP3    H135228   6.417   3.722  14.267 -1.3599 -1.1105  0.9296
 4579TIP3    H235229   6.426   3.704  14.117 -1.2451  1.5159  0.5721
 4580TIP3   OH235230   3.850   6.590   5.304  0.3912  0.6031  0.3296
 4580TIP3    H135231   3.814   6.523   5.246 -0.2261  1.4327 -0.2593
 4580TIP3    H235232   3.777   6.617   5.359  0.3935  1.4662 -0.0799
 4581TIP3   OH235233   6.364   4.467  13.139  0.0554  0.3983  0.2541
 4581TIP3    H135234   6.328   4.390  13.183 -1.5737  1.2702  0.5163
 4581TIP3    H235235   6.350   4.451  13.046  0.3774  0.0685  0.2609
 4582TIP3   OH235236   6.309   3.668   4.401  0.0438  0.0456  0.2128
 4582TIP3    H135237   6.261   3.735   4.449  0.7016 -0.3067  1.3998
 4582TIP3    H235238   6.359   3.622   4.468 -0.1433 -1.4202 -0.6293
 4583TIP3   OH235239   1.971   2.190   3.296 -0.2550  0.4157  0.1936
 4583TIP3    H135240   1.908   2.224   3.233 -2.5806  0.8637  2.5802
 4583TIP3    H235241   2.026   2.130   3.245 -2.1746  0.5063 -2.1484
 4584TIP3   OH235242   3.675   2.251   4.873 -0.2174  0.3175  0.8771
 4584TIP3    H135243   3.702   2.171   4.827  0.7534  0.5114  1.0741
 4584TIP3    H235244   3.758   2.293   4.896 -0.7155  1.7154  0.2080
 4585TIP3   OH235245   4.699   4.116  11.284 -0.2927  0.6724 -0.0870
 4585TIP3    H135246   4.644   4.041  11.307 -2.6054  2.8608  2.0370
 4585TIP3    H235247   4.639   4.189  11.277  1.8060  2.3456 -2.6503
 4586TIP3   OH235248   2.632   4.296  12.905  0.2030  0.3895  0.2772
 4586TIP3    H135249   2.637   4.391  12.917 -1.8800  1.0028 -2.7606
 4586TIP3    H235250   2.591   4.265  12.986 -2.5775  2.6154 -0.1182
 4587TIP3   OH235251   2.570   3.767   3.772 -0.0085  0.3900  0.3753
 4587TIP3    H135252   2.543   3.675   3.768  0.7469  0.1920 -0.2452
 4587TIP3    H235253   2.499   3.810   3.820 -1.1823 -0.2137 -0.7518
 4588TIP3   OH235254   1.261   1.319   3.269  0.7654  0.5995  0.4703
 4588TIP3    H135255   1.207   1.396   3.247 -0.3056 -0.0734  0.6773
 4588TIP3    H235256   1.289   1.335   3.359  0.2344  0.5811  0.6425
 4589TIP3   OH235257   5.222   3.552   0.362  0.0909 -0.4673 -0.1520
 4589TIP3    H135258   5.172   3.536   0.443  0.9587 -2.1336  0.0963
 4589TIP3    H235259   5.177   3.499   0.296  0.8464 -1.0934 -0.1750
 4590TIP3   OH235260   0.737   0.948  14.340  0.4987  0.0874  0.2405
 4590TIP3    H135261   0.730   0.984  14.252  0.2293  1.3712  0.7612
 4590TIP3    H235262   0.827   0.915  14.346  0.4680 -0.1421 -0.5568
 4591TIP3   OH235263   4.666   6.452   5.946  0.3050  0.2637  0.2023
 4591TIP3    H135264   4.658   6.392   5.872  2.1395 -0.7091  0.7146
 4591TIP3    H235265   4.682   6.537   5.905  1.0029 -0.2068 -0.5572
 4592TIP3   OH235266   1.641   6.139  11.839  0.7339  0.7323  0.1629
 4592TIP3    H135267   1.637   6.134  11.934  0.2842  0.2619  0.1285
 4592TIP3    H235268   1.558   6.102  11.810  1.2681 -0.0462 -0.4317
 4593TIP3   OH235269   6.673   1.820  13.068  0.5848 -0.3094  0.3664
 4593TIP3    H135270   6.615   1.892  13.044 -0.4360 -0.7665  1.3728
 4593TIP3    H235271   6.759   1.847  13.038 -0.1647  0.3149 -1.3274
 4594TIP3   OH235272   4.632   5.840   3.245  0.4957 -0.2872  0.9308
 4594TIP3    H135273   4.608   5.906   3.311  1.2264  0.2732  0.6469
 4594TIP3    H235274   4.714   5.803   3.277  1.2357  0.4905 -0.0056
 4595TIP3   OH235275   5.309   1.558   4.757 -0.6846  0.1200  0.1159
 4595TIP3    H135276   5.230   1.600   4.791  0.1129  0.5326  1.5269
 4595TIP3    H235277   5.297   1.465   4.778  0.2535  0.4819  2.6195
 4596TIP3   OH235278   3.966   2.951  15.127 -0.6549  0.9604 -0.3134
 4596TIP3    H135279   3.996   2.892  15.196  0.0411  1.1523 -0.4540
 4596TIP3    H235280   3.903   2.898  15.077 -0.4857  0.5336 -0.0812
 4597TIP3   OH235281   2.283   6.042   1.701  0.0555 -0.0974 -0.5117
 4597TIP3    H135282   2.279   5.952   1.667 -0.5205  0.6175 -2.4805
 4597TIP3    H235283   2.196   6.057   1.738  0.1516 -0.3362 -0.1815
 4598TIP3   OH235284   5.356   3.334   0.592 -0.2258  0.3440 -0.1475
 4598TIP3    H135285   5.383   3.251   0.632 -1.2765 -0.0876 -0.2912
 4598TIP3    H235286   5.434   3.366   0.547  0.3519 -0.2755  0.3868
 4599TIP3   OH235287   4.627   3.686   4.010  0.3082  0.4035 -0.3001
 4599TIP3    H135288   4.633   3.770   3.964 -0.6111  0.1527 -0.9150
 4599TIP3    H235289   4.570   3.633   3.955 -0.3096 -0.1312  0.8159
 4600TIP3   OH235290   3.578   1.957  11.103  0.2186 -0.1208  0.1491
 4600TIP3    H135291   3.615   1.889  11.048 -0.3388  0.2557 -0.7135
 4600TIP3    H235292   3.517   1.911  11.161  0.1543 -0.4089 -0.1464
 4601TIP3   OH235293   6.611   0.792  14.794  0.5471  0.4142  0.4465
 4601TIP3    H135294   6.587   0.884  14.805 -1.8545  0.0761 -1.1898
 4601TIP3    H235295   6.542   0.744  14.839  0.4907 -0.6068 -0.6780
 4602TIP3   OH235296   5.290   5.917   1.466  0.2627  1.0342  0.2384
 4602TIP3    H135297   5.319   5.835   1.425  0.5218  1.9207 -1.4143
 4602TIP3    H235298   5.356   5.934   1.534 -1.1162 -1.3547  2.3571
 4603TIP3   OH235299   5.465   6.239  14.602 -0.0698  0.7622 -0.2163
 4603TIP3    H135300   5.412   6.163  14.628 -0.2397  0.8141 -0.4103
 4603TIP3    H235301   5.479   6.287  14.684  1.1391 -0.1556  0.1526
 4604TIP3   OH235302   0.753   6.272  17.054 -0.2528 -0.1709 -0.7681
 4604TIP3    H135303   0.791   6.277  16.967  1.3085 -1.2345 -0.2014
 4604TIP3    H235304   0.675   6.326  17.050 -0.9075 -1.1696 -3.1807
 4605TIP3   OH235305   2.296   1.130  13.182 -0.1349 -0.1468  0.1502
 4605TIP3    H135306   2.296   1.221  13.153 -1.1143 -0.6089 -1.4541
 4605TIP3    H235307   2.228   1.127  13.250  0.2397  0.3981  0.5623
 4606TIP3   OH235308   0.161   1.281  15.539  0.1396 -0.7249  0.3062
 4606TIP3    H135309   0.219   1.224  15.589  1.0646 -1.0508 -1.0893
 4606TIP3    H235310   0.156   1.362  15.591  2.7025 -0.2892 -0.0347
 4607TIP3   OH235311   3.562   1.603   4.620 -0.2586  0.3837  0.2131
 4607TIP3    H135312   3.544   1.597   4.714 -0.0751 -0.3263  0.2104
 4607TIP3    H235313   3.520   1.684   4.593 -0.9547  0.2250  0.7699
 4608TIP3   OH235314   1.420   0.349  11.815 -0.4667  0.0258  0.3253
 4608TIP3    H135315   1.340   0.400  11.802  0.7311  1.4286 -2.1443
 4608TIP3    H235316   1.390   0.269  11.859 -3.4281  0.0057 -1.4764
 4609TIP3   OH235317   1.894   3.028  10.392  0.8719  0.0757  0.1493
 4609TIP3    H135318   1.847   2.947  10.412 -0.1750  0.8322  0.8661
 4609TIP3    H235319   1.956   3.038  10.464  0.2335  0.4767  0.6466
 4610TIP3   OH235320   6.667   1.845  11.949 -0.1025  0.2107  0.4442
 4610TIP3    H135321   6.596   1.895  11.908  0.6259  1.8263  1.0647
 4610TIP3    H235322   6.629   1.815  12.032  0.3874  2.5062  1.5713
 4611TIP3   OH235323   5.730   1.491   4.373  0.4498  0.4954  0.0828
 4611TIP3    H135324   5.653   1.543   4.397  1.0926  1.2299  0.6099
 4611TIP3    H235325   5.778   1.480   4.456 -0.1375 -1.7664  0.1783
 4612TIP3   OH235326   4.041   0.998  16.063  0.2426 -0.5773  0.4745
 4612TIP3    H135327   3.963   0.977  16.012  0.0895  0.7854  0.0848
 4612TIP3    H235328   4.011   0.999  16.154 -0.3994  0.6504  0.2709
 4613TIP3   OH235329   4.482   0.817   2.894  0.1711  0.3922  0.4619
 4613TIP3    H135330   4.568   0.805   2.855 -0.9494 -1.6981 -1.6100
 4613TIP3    H235331   4.424   0.834   2.819 -1.7273 -1.5325  1.3908
 4614TIP3   OH235332   1.707   2.576   5.923  0.4682  0.3173  0.4828
 4614TIP3    H135333   1.785   2.527   5.900  0.0302 -1.3847  2.3839
 4614TIP3    H235334   1.680   2.542   6.008 -1.6795  1.6742  0.4426
 4615TIP3   OH235335   4.472   3.769  10.814 -0.5853  0.6756 -0.5037
 4615TIP3    H135336   4.402   3.726  10.765  0.7999  0.0892 -2.0200
 4615TIP3    H235337   4.456   3.863  10.803 -2.1740  0.6021  0.7454
 4616TIP3   OH235338   3.705   6.638   3.989  0.5292 -0.4257  0.3604
 4616TIP3    H135339   3.623   6.673   3.955  0.8865 -0.8328 -0.9777
 4616TIP3    H235340   3.719   6.685   4.071 -0.1310  0.9259 -0.2757
 4617TIP3   OH235341   6.735   4.194   2.907 -0.2966 -0.2274  0.0457
 4617TIP3    H135342   6.685   4.243   2.842  1.9500 -1.9249 -3.2486
 4617TIP3    H235343   6.795   4.257   2.945 -1.0500  0.6191 -0.1466
 4618TIP3   OH235344   4.756   1.946   6.597  0.4374 -0.5703  0.2673
 4618TIP3    H135345   4.821   1.987   6.539 -0.6660  0.6180 -0.1685
 4618TIP3    H235346   4.683   1.924   6.539  0.2918 -1.5821  0.8095
 4619TIP3   OH235347   0.359   6.135  12.970  0.3365 -0.3737 -0.2790
 4619TIP3    H135348   0.366   6.065  12.906  0.2141 -0.9380  0.3086
 4619TIP3    H235349   0.381   6.093  13.053  0.6757  0.3846  0.0223
 4620TIP3   OH235350   0.077   6.138  13.001 -0.2252 -0.0291  1.1449
 4620TIP3    H135351   0.059   6.073  13.069  0.5043 -0.2178  1.1656
 4620TIP3    H235352   0.172   6.134  12.988 -0.1882  0.9614  1.0681
 4621TIP3   OH235353   6.772   5.329   3.669 -0.4965  0.1963  0.8061
 4621TIP3    H135354   6.705   5.397   3.679  1.1773  1.7463  2.1538
 4621TIP3    H235355   6.755   5.268   3.741 -1.7240 -0.6475 -0.1424
 4622TIP3   OH235356   6.420   0.410   1.810 -0.8291 -0.4312 -0.1015
 4622TIP3    H135357   6.454   0.370   1.890 -1.0657  1.2005  0.8550
 4622TIP3    H235358   6.398   0.336   1.754  1.4617 -1.5934  0.4137
 4623TIP3   OH235359   0.557   6.151  16.603 -0.2514 -0.0387  0.4068
 4623TIP3    H135360   0.540   6.237  16.643 -0.2008 -0.3038  1.0228
 4623TIP3    H235361   0.549   6.090  16.676  0.0570 -0.5206  0.0395
 4624TIP3   OH235362   2.006   4.866  17.160  0.1313 -0.1245  0.2019
 4624TIP3    H135363   1.974   4.953  17.136  0.4139  0.3714  1.5410
 4624TIP3    H235364   2.053   4.880  17.242  0.6010 -1.4674  0.1810
 4625TIP3   OH235365   6.481   2.050  11.900  0.3389  0.2459 -0.2658
 4625TIP3    H135366   6.540   2.099  11.842 -0.5102  1.5659 -0.0463
 4625TIP3    H235367   6.400   2.042  11.851 -0.1381  0.7106  0.4198
 4626TIP3   OH235368   3.668   4.619   5.361  0.2160  0.4780  0.1454
 4626TIP3    H135369   3.626   4.705   5.366  1.4188  1.0680  0.4735
 4626TIP3    H235370   3.644   4.576   5.442 -0.9878  0.1973 -0.3332
 4627TIP3   OH235371   1.654   4.564  16.068  0.4822 -0.2467 -0.3529
 4627TIP3    H135372   1.576   4.618  16.077  0.5579 -0.2170  0.1483
 4627TIP3    H235373   1.620   4.475  16.052  0.3572 -0.1271 -0.7798
 4628TIP3   OH235374   4.167   0.349   5.131  0.1496 -0.1520 -0.1862
 4628TIP3    H135375   4.092   0.362   5.073 -1.2844 -1.1675  1.3411
 4628TIP3    H235376   4.175   0.254   5.140  0.8088 -0.0322  0.6526
 4629TIP3   OH235377   5.936   6.600  13.558 -0.0357 -0.4221 -0.4830
 4629TIP3    H135378   5.863   6.626  13.502 -0.0360 -0.0446 -0.3120
 4629TIP3    H235379   5.917   6.509  13.582 -0.9070 -0.0631  0.2616
 4630TIP3   OH235380   5.546   4.339  15.859  0.0345 -0.0960 -0.2107
 4630TIP3    H135381   5.455   4.325  15.832  0.0669 -0.3044 -0.2180
 4630TIP3    H235382   5.584   4.392  15.789 -0.2052  0.3860  0.0212
 4631TIP3   OH235383   1.396   2.903  13.541  0.0103  0.0749  0.5439
 4631TIP3    H135384   1.415   2.810  13.533 -1.6996 -0.1635 -2.0834
 4631TIP3    H235385   1.480   2.947  13.525  0.4085 -1.0135 -0.5395
 4632TIP3   OH235386   5.132   6.119   4.938 -0.2598 -0.1338 -0.5232
 4632TIP3    H135387   5.147   6.193   4.997 -0.6579  0.0751 -0.6771
 4632TIP3    H235388   5.205   6.060   4.954 -0.1171  0.1387 -0.1554
 4633TIP3   OH235389   2.951   4.730  11.638  0.4266  0.9292  0.1909
 4633TIP3    H135390   2.929   4.717  11.546  1.3156  0.4915  0.0295
 4633TIP3    H235391   2.875   4.774  11.675 -0.2865  0.3595 -0.5636
 4634TIP3   OH235392   5.670   4.704  11.523  0.3527 -0.0278  0.2439
 4634TIP3    H135393   5.734   4.761  11.479 -0.6262 -0.5811 -2.0176
 4634TIP3    H235394   5.613   4.765  11.570  0.8382  0.6782 -0.0599
 4635TIP3   OH235395   5.996   1.946  13.520 -0.1217  0.4568 -0.1949
 4635TIP3    H135396   5.964   2.031  13.489  0.5087  0.4136 -1.0088
 4635TIP3    H235397   5.998   1.891  13.441 -0.4973 -0.3115  0.3206
 4636TIP3   OH235398   5.051   1.211  15.741 -0.3066 -0.2941  0.0138
 4636TIP3    H135399   5.053   1.179  15.831 -1.2135 -0.8087 -0.1404
 4636TIP3    H235400   5.139   1.247  15.726 -0.4194  0.6390  1.4033
 4637TIP3   OH235401   0.154   4.017   2.159 -0.3840 -0.8148 -0.2480
 4637TIP3    H135402   0.199   4.100   2.142  0.6465 -1.3347 -0.1867
 4637TIP3    H235403   0.194   3.985   2.240 -0.8375 -1.3175 -0.2177
 4638TIP3   OH235404   4.247   1.699  13.476 -0.1376  0.1798  0.0162
 4638TIP3    H135405   4.171   1.724  13.424 -1.9313 -1.5466  1.6511
 4638TIP3    H235406   4.269   1.778  13.525 -2.7900  0.0237  1.6777
 4639TIP3   OH235407   3.509   2.026  16.265  0.3836  0.9839 -0.1509
 4639TIP3    H135408   3.419   2.056  16.275  0.0877  0.1849 -0.3818
 4639TIP3    H235409   3.560   2.107  16.256 -0.0778  1.5259  1.6236
 4640TIP3   OH235410   0.112   6.096   0.655  0.1419  0.0091  0.2008
 4640TIP3    H135411   0.204   6.099   0.630  0.1542 -1.1587  0.0326
 4640TIP3    H235412   0.071   6.040   0.589 -0.7357  0.7003  0.1426
 4641TIP3   OH235413   3.458   3.078   4.850  0.7519 -0.2933  0.3590
 4641TIP3    H135414   3.363   3.081   4.844  0.7660 -1.2125 -0.6611
 4641TIP3    H235415   3.482   3.157   4.898 -0.3067  1.8671 -2.4153
 4642TIP3   OH235416   0.243   5.172  13.419 -0.0368  0.0122  0.7725
 4642TIP3    H135417   0.293   5.152  13.340 -1.3222  0.9088 -0.3142
 4642TIP3    H235418   0.189   5.094  13.434 -0.3607  0.1410  0.2958
 4643TIP3   OH235419   0.209   5.743   2.426  0.1685 -0.0989  0.0627
 4643TIP3    H135420   0.226   5.658   2.385  1.0835  0.6589 -1.2058
 4643TIP3    H235421   0.153   5.723   2.501  1.7340 -2.0245  0.8158
 4644TIP3   OH235422   1.010   1.973  12.194 -0.4542 -0.1492  0.3119
 4644TIP3    H135423   1.039   1.960  12.284  0.1253 -1.1870 -0.0099
 4644TIP3    H235424   0.927   2.020  12.202 -0.2023  0.1352  1.3639
 4645TIP3   OH235425   2.088   0.172  15.984  0.2125 -0.1658  0.2036
 4645TIP3    H135426   2.021   0.105  15.995  2.8556 -2.6400  3.4268
 4645TIP3    H235427   2.055   0.249  16.030 -0.7591 -1.0261  0.9526
 4646TIP3   OH235428   0.963   4.206  15.920  0.2059 -0.3049  0.1971
 4646TIP3    H135429   1.042   4.201  15.973  1.1783 -1.6180 -1.2784
 4646TIP3    H235430   0.917   4.282  15.953  1.0562 -0.7039  2.4735
 4647TIP3   OH235431   3.327   2.460   0.066 -0.2594 -0.2886 -0.0249
 4647TIP3    H135432   3.290   2.506  -0.010  0.9270 -0.0694 -0.4873
 4647TIP3    H235433   3.284   2.501   0.141 -0.5370  0.3551 -0.5207
 4648TIP3   OH235434   3.854   2.891  11.618  0.5696  0.2831 -0.3980
 4648TIP3    H135435   3.935   2.882  11.667  0.5262  1.4073 -0.1070
 4648TIP3    H235436   3.787   2.905  11.684  0.5385  2.0211 -0.7601
 4649TIP3   OH235437   5.942   3.131   0.076  0.2270 -0.2498 -0.0456
 4649TIP3    H135438   5.882   3.205   0.084 -0.3216 -0.5676 -0.9944
 4649TIP3    H235439   5.907   3.080   0.003  2.1912  0.0801 -1.2896
 4650TIP3   OH235440   5.837   5.915   2.337 -0.0837  0.2628 -0.1041
 4650TIP3    H135441   5.807   5.833   2.377  2.8197 -1.2142 -0.6007
 4650TIP3    H235442   5.843   5.977   2.409 -0.1569 -0.6945  0.7555
 4651TIP3   OH235443   5.323   3.456   3.521  0.4246 -0.2100 -0.1283
 4651TIP3    H135444   5.378   3.390   3.478  1.1989 -0.4097  1.1117
 4651TIP3    H235445   5.288   3.508   3.449  2.0701 -0.2229 -0.9965
 4652TIP3   OH235446   2.038   0.972   6.210  0.0518  0.5982  0.2528
 4652TIP3    H135447   2.032   0.972   6.306  0.8742 -0.1966  0.3168
 4652TIP3    H235448   1.948   0.989   6.181 -0.5418 -0.7500  1.1588
 4653TIP3   OH235449   2.027   6.294   1.370 -0.0103 -0.2961 -0.8938
 4653TIP3    H135450   2.106   6.317   1.321 -0.1543 -2.4161 -2.2512
 4653TIP3    H235451   2.031   6.199   1.377 -1.7430 -0.3188  0.2926
 4654TIP3   OH235452   3.319   3.420  11.398  0.5853 -0.4665  0.2175
 4654TIP3    H135453   3.349   3.330  11.386  0.4113 -0.3805 -0.9924
 4654TIP3    H235454   3.229   3.420  11.366  0.5513  0.1162  0.3023
 4655TIP3   OH235455   5.639   4.078  15.823  0.1358  0.6247 -0.0374
 4655TIP3    H135456   5.604   4.165  15.843 -0.5060  0.0131  1.8040
 4655TIP3    H235457   5.574   4.018  15.860  1.4351 -0.5989  0.3605
 4656TIP3   OH235458   4.739   6.312  15.821  0.4930  0.5257 -0.5393
 4656TIP3    H135459   4.743   6.222  15.790 -0.8470  1.0698 -2.4754
 4656TIP3    H235460   4.755   6.306  15.915 -0.3524 -1.8230 -0.4878
 4657TIP3   OH235461   3.120   6.378   4.842  0.2275 -0.2815  0.7381
 4657TIP3    H135462   3.143   6.377   4.749 -0.8442 -1.4601  0.4544
 4657TIP3    H235463   3.184   6.319   4.883  0.4355 -0.1000  0.6736
 4658TIP3   OH235464   6.617   1.842   3.807  0.1585 -0.9629  0.3343
 4658TIP3    H135465   6.534   1.824   3.763 -0.3022 -0.1521  0.8458
 4658TIP3    H235466   6.667   1.893   3.744 -0.3939 -0.0350  0.6250
 4659TIP3   OH235467   5.147   4.456   3.449  0.1197 -0.1529  0.2277
 4659TIP3    H135468   5.112   4.373   3.482 -1.7145 -0.0114 -1.1965
 4659TIP3    H235469   5.153   4.442   3.354 -0.5036  1.4243 -0.0674
 4660TIP3   OH235470   3.038   5.133  16.443 -0.8140  0.2486  0.3122
 4660TIP3    H135471   2.988   5.158  16.366 -0.2985  1.6059  0.3827
 4660TIP3    H235472   3.088   5.057  16.416  2.1495  2.7402 -1.9838
 4661TIP3   OH235473   3.472   3.486  13.831  0.1852  0.0299 -0.0195
 4661TIP3    H135474   3.451   3.486  13.924  1.0221 -1.0309  0.1880
 4661TIP3    H235475   3.440   3.401  13.799 -2.7458  1.4737 -1.3721
 4662TIP3   OH235476   3.488   3.505  15.525 -0.1115  0.2270  0.1053
 4662TIP3    H135477   3.457   3.431  15.576  0.3252 -0.9177 -1.2067
 4662TIP3    H235478   3.543   3.465  15.457 -1.4147  1.5469 -1.8165
 4663TIP3   OH235479   5.895   1.899   0.775  0.0356 -0.8315 -0.3747
 4663TIP3    H135480   5.958   1.940   0.835 -0.9206  1.9196 -1.0903
 4663TIP3    H235481   5.950   1.854   0.711  1.3064  0.6982 -0.4546
 4664TIP3   OH235482   1.771   2.009  11.558  0.0607 -0.2667 -0.3426
 4664TIP3    H135483   1.710   2.061  11.506  1.1172  1.4807  0.0921
 4664TIP3    H235484   1.852   2.060  11.559  0.7527 -1.3168  1.1885
 4665TIP3   OH235485   5.651   0.582   0.163 -0.5607 -0.6829 -0.1924
 4665TIP3    H135486   5.572   0.561   0.212 -0.6850 -0.6101 -0.3579
 4665TIP3    H235487   5.718   0.523   0.198 -0.2264  0.4424  1.1661
 4666TIP3   OH235488   5.077   4.520  17.220  0.4949 -0.0186  0.1337
 4666TIP3    H135489   4.997   4.485  17.181  0.1163  1.1367 -0.1613
 4666TIP3    H235490   5.070   4.499  17.313  1.0912 -2.2045 -0.2681
 4667TIP3   OH235491   1.235   3.855  10.457 -0.4192  0.2934  0.3680
 4667TIP3    H135492   1.290   3.793  10.505 -0.2849 -0.0676 -0.2500
 4667TIP3    H235493   1.145   3.830  10.479 -0.4468 -1.4917 -1.5185
 4668TIP3   OH235494   4.144   4.468   3.041  0.1190 -0.0143 -0.2833
 4668TIP3    H135495   4.105   4.517   3.114 -1.0347  1.5779 -1.8791
 4668TIP3    H235496   4.091   4.389   3.035  0.7001 -0.5303  1.0471
 4669TIP3   OH235497   6.578   1.507  15.609  0.3655 -0.0561 -0.8966
 4669TIP3    H135498   6.594   1.458  15.529  0.8687  1.3912 -1.7175
 4669TIP3    H235499   6.602   1.447  15.680 -0.5008 -1.4992 -1.8009
 4670TIP3   OH235500   4.132   6.570  14.057 -0.0994  0.4234 -0.8288
 4670TIP3    H135501   4.157   6.500  13.996 -1.4813 -0.4664 -0.4159
 4670TIP3    H235502   4.215   6.610  14.081  0.6269 -0.2920 -1.9990
 4671TIP3   OH235503   4.881   1.910   5.688  0.1268  0.2895  0.4524
 4671TIP3    H135504   4.894   1.859   5.607 -0.4262 -0.7331  0.9909
 4671TIP3    H235505   4.946   1.980   5.683  1.4152 -0.9035  0.0359
 4672TIP3   OH235506   4.234   2.280  16.111 -0.1407 -0.2172 -0.3619
 4672TIP3    H135507   4.251   2.369  16.080 -2.4734  0.5526  0.3400
 4672TIP3    H235508   4.283   2.224  16.051  3.0711  1.5407  0.4066
 4673TIP3   OH235509   1.734   1.083  11.263  0.3163  0.3539  0.2077
 4673TIP3    H135510   1.652   1.055  11.220  0.6139  0.2589 -0.3044
 4673TIP3    H235511   1.715   1.074  11.356  0.1078 -0.7506  0.0783
 4674TIP3   OH235512   3.698   4.811   2.863  0.5018 -0.1573  0.0771
 4674TIP3    H135513   3.697   4.740   2.799 -0.0377 -1.0348  1.0458
 4674TIP3    H235514   3.736   4.772   2.941 -0.2497  0.4761  0.7723
 4675TIP3   OH235515   0.830   4.935   2.244  0.6517  0.2183  0.1597
 4675TIP3    H135516   0.749   4.915   2.292  1.5912 -1.8341  0.9970
 4675TIP3    H235517   0.891   4.963   2.312  1.7474 -1.9054  0.1143
 4676TIP3   OH235518   0.735   4.270   1.026 -0.3853  0.3416  0.0050
 4676TIP3    H135519   0.698   4.339   1.081 -0.3208 -0.9574  1.7571
 4676TIP3    H235520   0.660   4.218   0.999 -0.4307  1.0330 -1.3000
 4677TIP3   OH235521   2.551   2.795  16.792 -0.4078  0.3651 -0.3309
 4677TIP3    H135522   2.597   2.878  16.777 -1.1604  1.2866  2.0242
 4677TIP3    H235523   2.612   2.728  16.759  0.2326  1.7946 -2.2539
 4678TIP3   OH235524   4.038   1.199  15.210  0.0765  0.0521  0.1711
 4678TIP3    H135525   4.003   1.281  15.175  2.0813  0.4058 -1.2025
 4678TIP3    H235526   4.131   1.218  15.226  1.0833 -2.3929 -1.9788
 4679TIP3   OH235527   5.108   2.741  16.519 -0.0046  0.0829 -0.0729
 4679TIP3    H135528   5.041   2.774  16.460  2.4207  0.5613 -2.7827
 4679TIP3    H235529   5.145   2.665  16.474  1.4569  0.0028  1.1794
 4680TIP3   OH235530   1.155   4.815  12.491 -0.2503  0.1398 -0.3023
 4680TIP3    H135531   1.171   4.769  12.408  1.6310  2.3133 -1.2552
 4680TIP3    H235532   1.207   4.766  12.555 -0.4066 -0.6081 -0.7296
 4681TIP3   OH235533   3.507   6.290   4.252 -0.6730 -0.3611  0.0844
 4681TIP3    H135534   3.480   6.361   4.309  0.4635  0.3290 -0.1921
 4681TIP3    H235535   3.454   6.215   4.279 -1.0849  0.2924  1.1422
 4682TIP3   OH235536   3.688   6.068  17.227 -0.3262  0.7552 -0.4255
 4682TIP3    H135537   3.721   6.106  17.146  1.7028  0.2735  0.1158
 4682TIP3    H235538   3.608   6.023  17.201  0.6447 -0.0014 -2.3376
 4683TIP3   OH235539   1.844   4.147   3.941  0.3144  0.6569  0.3199
 4683TIP3    H135540   1.834   4.150   3.846  2.9334 -2.7602 -0.2627
 4683TIP3    H235541   1.891   4.227   3.963 -0.1155  1.3774 -1.2700
 4684TIP3   OH235542   4.404   2.135  11.985 -0.4378 -0.2230 -0.3000
 4684TIP3    H135543   4.415   2.144  11.890 -1.5079 -0.1547 -0.4286
 4684TIP3    H235544   4.391   2.224  12.016 -0.8168 -0.3185 -0.1877
 4685TIP3   OH235545   2.879   5.974   2.366 -0.7719 -0.4985  0.1158
 4685TIP3    H135546   2.833   6.045   2.321 -0.6833 -1.3181 -1.3185
 4685TIP3    H235547   2.823   5.953   2.441 -1.2794  0.4261  0.0109
 4686TIP3   OH235548   6.805   5.498  16.940  0.6267  0.3736 -0.5698
 4686TIP3    H135549   6.807   5.581  16.892  0.5214  1.0161  0.5109
 4686TIP3    H235550   6.714   5.487  16.966  0.7000  0.0730 -0.4310
 4687TIP3   OH235551   0.604   6.540   4.770 -0.2138  0.2599  0.2575
 4687TIP3    H135552   0.672   6.533   4.703 -2.6081  0.4508 -2.4040
 4687TIP3    H235553   0.614   6.628   4.806  0.4793  0.5633 -0.6356
 4688TIP3   OH235554   5.972   1.268  15.324  0.3215  0.1443 -0.1500
 4688TIP3    H135555   5.889   1.227  15.303  0.2800 -0.0805  0.4370
 4688TIP3    H235556   6.038   1.211  15.286  0.3003 -0.8878  1.2823
 4689TIP3   OH235557   1.812   0.174  15.893  0.3026  0.9547 -0.2089
 4689TIP3    H135558   1.827   0.150  15.801  0.4540 -0.1000  0.0747
 4689TIP3    H235559   1.856   0.258  15.903  0.9759  0.7050 -0.9133
 4690TIP3   OH235560   2.250   4.711   2.544 -0.4902  1.0011 -0.2691
 4690TIP3    H135561   2.245   4.691   2.451  2.6788  2.0110 -0.7521
 4690TIP3    H235562   2.322   4.773   2.552 -0.1116  0.3236  2.9762
 4691TIP3   OH235563   6.677   2.631   4.494 -0.1136 -0.3773 -0.0046
 4691TIP3    H135564   6.717   2.586   4.569  0.4737  0.8189  0.4246
 4691TIP3    H235565   6.589   2.595   4.489  0.3957 -1.7533  0.1638
 4692TIP3   OH235566   0.759   3.441   5.311 -0.3758  0.2477  0.4301
 4692TIP3    H135567   0.821   3.474   5.246  0.7432 -1.9536  0.2875
 4692TIP3    H235568   0.686   3.408   5.259  0.5848 -1.6473  0.2059
 4693TIP3   OH235569   5.216   0.478  11.059 -0.1303  0.1611 -0.0594
 4693TIP3    H135570   5.131   0.474  11.104 -0.4983  3.0376 -0.2991
 4693TIP3    H235571   5.199   0.440  10.972 -1.2766  0.9846 -0.2192
 4694TIP3   OH235572   2.419   4.276   3.732  0.2577 -0.1204 -0.1855
 4694TIP3    H135573   2.383   4.191   3.707 -0.3206 -0.2521  1.0010
 4694TIP3    H235574   2.512   4.259   3.749 -0.2852 -1.0863  2.3088
 4695TIP3   OH235575   1.633   4.426  15.454  0.0621 -0.0433  0.5351
 4695TIP3    H135576   1.673   4.437  15.540  1.0289  2.4154 -0.1572
 4695TIP3    H235577   1.540   4.414  15.472  0.5211 -1.7852  1.9764
 4696TIP3   OH235578   3.601   1.400   1.941 -0.7757  0.3160 -0.1749
 4696TIP3    H135579   3.516   1.404   1.898 -0.6997  1.1321 -0.2636
 4696TIP3    H235580   3.655   1.347   1.883 -0.2558  2.5603 -1.8682
 4697TIP3   OH235581   3.446   1.209  15.048 -0.1296 -0.2422  0.0895
 4697TIP3    H135582   3.504   1.191  14.974 -1.2668  2.0957 -1.4943
 4697TIP3    H235583   3.503   1.207  15.125  2.4699  3.1527 -1.4822
 4698TIP3   OH235584   0.529   1.157  16.393 -0.4435 -0.4295 -0.3194
 4698TIP3    H135585   0.548   1.250  16.402 -0.4751 -0.5523  1.3678
 4698TIP3    H235586   0.615   1.115  16.385 -0.2954 -0.4080  0.9233
 4699TIP3   OH235587   1.379   5.890  11.211  0.5226  0.0296  0.2636
 4699TIP3    H135588   1.439   5.847  11.150 -1.7549 -1.2842 -1.1782
 4699TIP3    H235589   1.410   5.862  11.297  1.1727 -1.7814 -0.4951
 4700TIP3   OH235590   3.776   6.564   3.302 -0.1392  0.2393  0.1934
 4700TIP3    H135591   3.694   6.568   3.350  0.0514  1.2643  0.4517
 4700TIP3    H235592   3.841   6.535   3.367  0.0419  1.2300  0.4674
 4701TIP3   OH235593   6.647   6.225   6.612  0.6291  0.5947 -0.5120
 4701TIP3    H135594   6.598   6.303   6.637  2.4430  1.9754 -1.0255
 4701TIP3    H235595   6.723   6.259   6.564  1.2017 -1.5273 -1.2153
 4702TIP3   OH235596   5.296   2.402   3.852  0.4473 -0.9144 -0.5111
 4702TIP3    H135597   5.326   2.386   3.762  1.1661 -0.0054 -0.4516
 4702TIP3    H235598   5.202   2.413   3.845  0.6098  0.1554 -1.3271
 4703TIP3   OH235599   6.100   5.359   4.263 -0.3250 -0.5600  0.3881
 4703TIP3    H135600   6.005   5.353   4.263 -0.2691 -1.7726  0.9849
 4703TIP3    H235601   6.119   5.453   4.264 -1.5284 -0.2372  3.6285
 4704TIP3   OH235602   0.337   0.363  15.250  0.0751  0.2330 -0.3408
 4704TIP3    H135603   0.248   0.332  15.231  0.3874 -0.5231 -0.6104
 4704TIP3    H235604   0.343   0.446  15.203 -0.6145  0.4858 -0.0036
 4705TIP3   OH235605   1.373   5.016  11.747  0.4727  0.2684 -0.3510
 4705TIP3    H135606   1.410   5.020  11.659  0.0665 -1.6976 -0.6703
 4705TIP3    H235607   1.285   4.981  11.733  0.2470  0.3602  0.7998
 4706TIP3   OH235608   1.571   0.734   6.023  0.2446  0.0473 -0.2013
 4706TIP3    H135609   1.530   0.665   5.971  0.4125 -0.6798  0.6077
 4706TIP3    H235610   1.625   0.687   6.087  0.5530  0.9368  0.2061
 4707TIP3   OH235611   6.630   5.260   2.978 -0.0178 -0.2824  0.4125
 4707TIP3    H135612   6.540   5.273   2.949 -0.4442  0.5768  2.0402
 4707TIP3    H235613   6.671   5.346   2.972  0.1881 -0.3065  1.3059
 4708TIP3   OH235614   4.911   1.534  15.071  0.1994 -0.1397 -0.2611
 4708TIP3    H135615   4.850   1.466  15.098 -0.8625  0.4316 -1.1729
 4708TIP3    H235616   4.992   1.487  15.051  0.2885 -0.8333  1.5519
 4709TIP3   OH235617   2.161   5.040   0.935  0.0708 -0.4999  0.6483
 4709TIP3    H135618   2.196   4.951   0.945 -2.0595 -1.3267  1.5873
 4709TIP3    H235619   2.226   5.097   0.974  1.0290 -1.7641  0.9624
 4710TIP3   OH235620   5.193   1.716   5.197  0.1523 -0.3147  0.2490
 4710TIP3    H135621   5.228   1.635   5.234  0.0409  0.0623  1.2067
 4710TIP3    H235622   5.218   1.784   5.261  1.4421  0.6303 -1.1917
 4711TIP3   OH235623   4.580   1.037   0.930 -0.1938  0.6634 -0.2487
 4711TIP3    H135624   4.551   1.122   0.896  0.1753  1.4850  1.4012
 4711TIP3    H235625   4.590   0.983   0.852 -0.2589  2.1802 -1.3666
 4712TIP3   OH235626   1.328   6.585  16.993 -0.3707 -0.4604  0.4435
 4712TIP3    H135627   1.347   6.641  17.068 -1.7489 -0.9051  1.1518
 4712TIP3    H235628   1.386   6.618  16.923 -0.0987  0.8751  1.2665
 4713TIP3   OH235629   4.814   5.645  13.997 -0.2521 -0.3233  0.2828
 4713TIP3    H135630   4.830   5.605  14.083 -2.6134 -1.1720  0.3976
 4713TIP3    H235631   4.894   5.627  13.948  0.9555 -0.2723  2.1222
 4714TIP3   OH235632   5.622   6.609  14.694  0.2394  0.4340  0.2332
 4714TIP3    H135633   5.548   6.668  14.708 -0.0825  0.0286  0.2658
 4714TIP3    H235634   5.696   6.654  14.734 -0.1883  0.3992  1.0789
 4715TIP3   OH235635   5.067   4.876  11.162 -0.1362 -0.6156 -0.3420
 4715TIP3    H135636   5.143   4.817  11.163 -0.3429 -1.0295 -2.7096
 4715TIP3    H235637   5.002   4.830  11.109 -2.1950 -0.3779  1.8220
 4716TIP3   OH235638   0.473   6.369  16.030  0.2066 -0.2359 -0.0770
 4716TIP3    H135639   0.478   6.316  15.950  0.8804  0.9980 -0.8909
 4716TIP3    H235640   0.382   6.399  16.032  0.2772  0.0421 -0.6210
 4717TIP3   OH235641   1.288   3.543   2.686  0.2395  0.6959  0.5940
 4717TIP3    H135642   1.231   3.587   2.749 -2.2966 -1.2344 -0.1782
 4717TIP3    H235643   1.255   3.569   2.601  1.2610  0.3794  0.0809
 4718TIP3   OH235644   1.513   3.973   3.701  0.1399 -0.2038 -0.1000
 4718TIP3    H135645   1.448   4.023   3.750  1.4725  0.4831  1.0353
 4718TIP3    H235646   1.511   3.886   3.740 -0.3874 -0.3146 -0.3643
 4719TIP3   OH235647   0.163   6.385  11.151  0.0304  0.7735  0.3387
 4719TIP3    H135648   0.254   6.382  11.121 -0.2317  1.2524 -0.5275
 4719TIP3    H235649   0.138   6.476  11.143 -0.3873  0.7275  1.0412
 4720TIP3   OH235650   0.498   6.185  15.371  0.0218 -0.0987 -0.1943
 4720TIP3    H135651   0.429   6.180  15.437  1.1162  1.3245  1.1050
 4720TIP3    H235652   0.506   6.095  15.338  0.0951 -1.0736  2.2961
 4721TIP3   OH235653   2.901   4.513   0.925 -0.6976  0.0898  0.2859
 4721TIP3    H135654   2.852   4.590   0.896 -1.9544 -0.4908  0.8349
 4721TIP3    H235655   2.891   4.512   1.020 -0.0108 -0.3085  0.3627
 4722TIP3   OH235656   6.379   4.452   1.424  0.0054  0.5079 -0.0539
 4722TIP3    H135657   6.333   4.395   1.362  1.0069 -1.2527  0.7629
 4722TIP3    H235658   6.309   4.497   1.472 -0.9180 -1.6639  0.7607
 4723TIP3   OH235659   6.576   6.146  16.893 -0.6648 -0.5288  0.6468
 4723TIP3    H135660   6.521   6.212  16.850 -0.8945  0.0738  1.8467
 4723TIP3    H235661   6.623   6.105  16.821 -1.5682 -0.0271 -0.2683
 4724TIP3   OH235662   6.444   3.774   2.498  0.0054  0.0576 -0.1511
 4724TIP3    H135663   6.472   3.701   2.442 -0.4590  0.7469 -1.3169
 4724TIP3    H235664   6.405   3.837   2.438 -1.6229  0.3156  1.0899
 4725TIP3   OH235665   4.745   3.736  16.665  0.2402 -0.3465  0.5923
 4725TIP3    H135666   4.654   3.759  16.686  0.1013  0.6718 -0.9264
 4725TIP3    H235667   4.787   3.726  16.750 -1.2530 -0.6839  1.3370
 4726TIP3   OH235668   3.724   0.579  12.659  0.0280 -0.4335  0.5880
 4726TIP3    H135669   3.742   0.671  12.679 -1.3188  0.2938 -1.2818
 4726TIP3    H235670   3.632   0.577  12.632  0.1801 -2.2388  0.0410
 4727TIP3   OH235671   0.263   4.989  15.934 -0.1761 -0.3674  0.2989
 4727TIP3    H135672   0.278   5.079  15.965  0.9186 -0.8507  1.2856
 4727TIP3    H235673   0.329   4.977  15.865  0.5114 -0.7958  1.0157
 4728TIP3   OH235674   1.310   0.585   2.174  0.1944 -0.7091  0.5889
 4728TIP3    H135675   1.291   0.637   2.252 -0.1910  1.3286 -0.7648
 4728TIP3    H235676   1.346   0.649   2.111  0.4597 -2.2571 -0.9103
 4729TIP3   OH235677   4.204   3.347  16.679  0.1959 -0.1123 -0.1974
 4729TIP3    H135678   4.148   3.285  16.726 -1.1557  0.8631 -0.4498
 4729TIP3    H235679   4.263   3.382  16.746  0.6956 -1.3415  0.0250
 4730TIP3   OH235680   2.014   1.695   0.709 -0.4914 -0.4736 -0.0937
 4730TIP3    H135681   1.924   1.668   0.728 -0.5590 -1.4717 -1.6320
 4730TIP3    H235682   2.057   1.615   0.677  0.8981  0.0276  0.4207
 4731TIP3   OH235683   2.562   2.380   5.675 -0.0975  0.5893 -0.1171
 4731TIP3    H135684   2.502   2.346   5.741  0.3836 -0.8645 -0.3871
 4731TIP3    H235685   2.606   2.453   5.718 -1.3599  1.0831  0.3969
 4732TIP3   OH235686   0.786   3.932  15.004  0.1863  0.0775  0.6636
 4732TIP3    H135687   0.745   4.017  14.990 -0.4968 -0.2727  0.4551
 4732TIP3    H235688   0.793   3.894  14.917  0.4084 -0.1154  0.7643
 4733TIP3   OH235689   0.570   2.694   1.750  0.1470  0.0975 -0.0608
 4733TIP3    H135690   0.585   2.765   1.688  0.0938  0.0967 -0.0749
 4733TIP3    H235691   0.657   2.662   1.773  0.1557 -0.0588 -0.3147
 4734TIP3   OH235692   0.978   3.202   1.290 -0.1311 -0.1946 -0.8163
 4734TIP3    H135693   1.058   3.182   1.338  0.8209  0.8519 -1.8893
 4734TIP3    H235694   1.001   3.276   1.234 -1.6032 -0.4356 -1.8177
 4735TIP3   OH235695   5.037   5.921  13.958  0.0544 -0.8978 -0.1476
 4735TIP3    H135696   4.948   5.939  13.988 -0.1907  0.2631 -1.4734
 4735TIP3    H235697   5.093   5.957  14.027 -0.4782 -1.3443  0.5404
 4736TIP3   OH235698   5.541   5.493  14.839  0.0916  0.7150  0.2726
 4736TIP3    H135699   5.541   5.398  14.850 -0.8076  0.8573  1.7640
 4736TIP3    H235700   5.630   5.514  14.811  0.6956 -0.4504  1.2335
 4737TIP3   OH235701   1.110   1.616   2.268 -0.1254 -0.2733 -0.2788
 4737TIP3    H135702   1.046   1.668   2.219 -0.2366  2.0878  2.1405
 4737TIP3    H235703   1.081   1.623   2.359  1.0345 -3.0111  0.3989
 4738TIP3   OH235704   1.665   0.909   4.815  0.3073  0.5719 -0.3253
 4738TIP3    H135705   1.638   0.964   4.888 -0.1892 -0.2101  0.0935
 4738TIP3    H235706   1.692   0.826   4.855 -1.2702 -0.3691 -1.0948
 4739TIP3   OH235707   2.578   5.918  13.656  0.6131  0.2476  0.0198
 4739TIP3    H135708   2.512   5.960  13.710  0.5150 -0.6269  0.6062
 4739TIP3    H235709   2.648   5.983  13.649  1.6944 -0.3825  3.1631
 4740TIP3   OH235710   3.993   6.712   1.067  0.6376 -0.6049  0.6783
 4740TIP3    H135711   3.919   6.762   1.034  1.1711  0.2297  0.7063
 4740TIP3    H235712   4.066   6.739   1.011  1.1762 -0.4957  1.4240
 4741TIP3   OH235713   0.651   0.204  14.815  0.1559  0.1775  0.3908
 4741TIP3    H135714   0.602   0.166  14.742 -1.7645  1.2092  1.0727
 4741TIP3    H235715   0.709   0.133  14.845  0.1858 -0.6057 -1.4080
 4742TIP3   OH235716   5.891   4.595  16.412 -0.4860 -0.0998  0.0641
 4742TIP3    H135717   5.800   4.623  16.421 -1.0513 -1.7830 -0.1138
 4742TIP3    H235718   5.921   4.582  16.502 -1.5683 -2.9047  0.1113
 4743TIP3   OH235719   5.464   0.497   6.325  0.2387 -0.3253 -0.5656
 4743TIP3    H135720   5.428   0.571   6.375  0.3643 -0.1267 -0.7658
 4743TIP3    H235721   5.390   0.463   6.275 -0.4276 -1.8811  1.3391
 4744TIP3   OH235722   5.028   6.176  11.163 -0.0637 -0.0291 -0.5914
 4744TIP3    H135723   5.014   6.134  11.248 -0.4791 -0.6223 -0.9525
 4744TIP3    H235724   5.109   6.138  11.130 -0.4749 -0.5983 -0.9485
 4745TIP3   OH235725   3.677   6.118  16.480 -0.2344 -0.5688 -0.3387
 4745TIP3    H135726   3.738   6.050  16.510  0.6435 -0.2420 -1.3390
 4745TIP3    H235727   3.730   6.198  16.476 -0.0002 -0.7485 -3.5691
 4746TIP3   OH235728   1.691   5.810   4.907  0.1876 -0.8386 -0.1921
 4746TIP3    H135729   1.625   5.741   4.909 -1.3106  0.4575 -1.3075
 4746TIP3    H235730   1.740   5.800   4.988 -0.4014 -2.7726 -0.0266
 4747TIP3   OH235731   5.352   5.046   3.156 -0.4225 -0.5311 -0.2101
 4747TIP3    H135732   5.290   4.973   3.159 -0.6353 -0.3390  0.1543
 4747TIP3    H235733   5.439   5.004   3.157 -0.5435 -0.7783 -0.0235
 4748TIP3   OH235734   6.203   0.487  12.608  0.1812  0.7301 -0.1355
 4748TIP3    H135735   6.223   0.540  12.532  2.1076  1.3614  0.7271
 4748TIP3    H235736   6.109   0.494  12.620 -0.1613  0.6127 -2.4128
 4749TIP3   OH235737   1.477   1.276  16.938 -0.2467  0.0058 -0.0773
 4749TIP3    H135738   1.556   1.283  16.885  0.2889  1.2614  0.8430
 4749TIP3    H235739   1.407   1.258  16.875  0.5894  0.0317 -1.0252
 4750TIP3   OH235740   2.514   5.777  14.909 -0.2858 -0.0036 -0.0167
 4750TIP3    H135741   2.556   5.706  14.957 -0.0400  1.3098  1.7982
 4750TIP3    H235742   2.466   5.827  14.975 -2.3039  0.2723 -1.5835
 4751TIP3   OH235743   0.085   5.513   5.781 -0.2295 -0.2367  0.0579
 4751TIP3    H135744   0.164   5.533   5.831 -0.6140  0.6582  0.3330
 4751TIP3    H235745   0.017   5.568   5.821 -1.2046 -1.6555  0.4263
 4752TIP3   OH235746   2.988   5.977   4.921  0.0829  0.0807 -0.1513
 4752TIP3    H135747   2.910   5.925   4.939  0.1875 -0.0576 -0.0918
 4752TIP3    H235748   3.060   5.926   4.959  0.1877  0.2630 -0.1054
 4753TIP3   OH235749   0.496   1.328  14.410 -0.3946  0.5187 -0.2903
 4753TIP3    H135750   0.408   1.346  14.377 -0.4321  0.6019 -0.1464
 4753TIP3    H235751   0.506   1.385  14.486 -0.9855 -0.9254  0.9257
 4754TIP3   OH235752   1.827   2.176  13.792 -0.2278  0.0366 -0.1026
 4754TIP3    H135753   1.786   2.249  13.747 -0.6071 -0.6603 -0.9121
 4754TIP3    H235754   1.915   2.208  13.814 -0.8016  1.1501  0.6742
 4755TIP3   OH235755   5.827   4.515  13.922 -0.3516 -0.4487 -0.0552
 4755TIP3    H135756   5.839   4.584  13.857  1.8998 -0.4024  0.3088
 4755TIP3    H235757   5.746   4.472  13.897 -2.4182  2.8608  0.2479
 4756TIP3   OH235758   0.242   1.387  16.768  0.2912 -0.0019 -0.0847
 4756TIP3    H135759   0.296   1.418  16.695  0.5764 -0.7819 -0.2109
 4756TIP3    H235760   0.271   1.438  16.843  1.9870 -1.1593  0.0975
 4757TIP3   OH235761   4.639   2.770  14.369 -0.1217  0.3861 -0.3520
 4757TIP3    H135762   4.560   2.716  14.367 -0.1161  0.4024 -2.2823
 4757TIP3    H235763   4.618   2.846  14.316  0.0494  2.1216  1.8988
 4758TIP3   OH235764   6.377   4.548  10.498  0.6461  0.5699 -0.3419
 4758TIP3    H135765   6.349   4.550  10.407  1.2986  0.9907 -0.5439
 4758TIP3    H235766   6.472   4.559  10.494  0.6316  1.0631  0.4118
 4759TIP3   OH235767   5.113   1.937  12.858  0.0961 -0.5255 -0.5166
 4759TIP3    H135768   5.146   2.020  12.892  0.0116 -0.8106  0.2830
 4759TIP3    H235769   5.043   1.913  12.918  1.5083 -2.2271  0.5495
 4760TIP3   OH235770   6.645   2.559  12.562 -0.0371 -0.2780  0.2143
 4760TIP3    H135771   6.557   2.575  12.526 -0.9281 -1.3000  1.8215
 4760TIP3    H235772   6.653   2.621  12.634  0.8225  0.2054 -0.2770
 4761TIP3   OH235773   3.352   1.917  15.780 -0.8064  0.3391  0.2277
 4761TIP3    H135774   3.285   1.938  15.846 -0.0591  0.3433  1.0008
 4761TIP3    H235775   3.428   1.888  15.831 -0.4740 -0.4283 -0.6640
 4762TIP3   OH235776   4.787   0.249   2.850 -0.1497 -0.3406 -0.5093
 4762TIP3    H135777   4.810   0.156   2.845 -2.0129 -1.0268  1.8299
 4762TIP3    H235778   4.779   0.267   2.943 -0.3199  2.0800 -0.9287
 4763TIP3   OH235779   2.189   0.297  14.820 -0.0749  0.4301 -0.3505
 4763TIP3    H135780   2.179   0.388  14.845  0.2319  0.5316 -0.5904
 4763TIP3    H235781   2.100   0.267  14.802 -0.1934  0.6299 -0.1006
 4764TIP3   OH235782   5.838   2.585  15.164  0.0220  0.2722 -0.2886
 4764TIP3    H135783   5.786   2.510  15.134 -0.3440  1.1505 -2.0091
 4764TIP3    H235784   5.815   2.596  15.256 -3.1314  0.7879 -1.0139
 4765TIP3   OH235785   5.401   4.726  13.123 -0.2209 -0.3149 -0.2140
 4765TIP3    H135786   5.448   4.652  13.159  1.4592  0.6883 -0.2245
 4765TIP3    H235787   5.457   4.802  13.142 -0.9483  0.6962 -1.8487
 4766TIP3   OH235788   6.677   0.381  14.189  0.0718  0.4247  0.0629
 4766TIP3    H135789   6.733   0.452  14.223  0.5389 -0.7929  1.9987
 4766TIP3    H235790   6.596   0.388  14.238 -0.7621  0.9354 -1.3200
 4767TIP3   OH235791   6.734   0.292   4.131  0.5430 -0.3351 -0.1075
 4767TIP3    H135792   6.805   0.357   4.131  0.9612 -0.7817 -0.7117
 4767TIP3    H235793   6.779   0.208   4.139  0.1880 -0.7087 -1.6798
 4768TIP3   OH235794   1.664   6.019   1.125 -0.4116 -0.5304 -0.3390
 4768TIP3    H135795   1.570   6.023   1.105 -0.4150  0.9733 -0.1017
 4768TIP3    H235796   1.702   6.093   1.079  0.5567 -0.7281  0.1169
 4769TIP3   OH235797   2.977   3.886  12.182  0.2633  1.0757 -0.1862
 4769TIP3    H135798   3.049   3.941  12.151  1.5072 -0.7350 -0.6880
 4769TIP3    H235799   2.900   3.916  12.133  1.3599  0.9511 -2.0347
 4770TIP3   OH235800   1.148   1.191   5.185  0.3684 -0.4827  0.3498
 4770TIP3    H135801   1.138   1.106   5.143 -0.6517 -0.7897  1.1544
 4770TIP3    H235802   1.225   1.229   5.144  1.5587 -2.2861  0.7781
 4771TIP3   OH235803   0.936   4.331  12.135 -0.3284  0.2644 -0.2581
 4771TIP3    H135804   0.880   4.280  12.076  0.4575  0.0600 -0.8458
 4771TIP3    H235805   0.878   4.358  12.206 -0.5991 -2.3428  0.6485
 4772TIP3   OH235806   2.570   5.390   1.171  0.1955 -0.1388  0.0391
 4772TIP3    H135807   2.632   5.398   1.098 -0.2012 -1.4529 -0.4788
 4772TIP3    H235808   2.624   5.364   1.245  0.5125  0.5605  0.0598
 4773TIP3   OH235809   3.754   3.982   0.854 -0.4041  0.4057 -0.2387
 4773TIP3    H135810   3.713   3.972   0.940  0.3554  0.7406  0.1744
 4773TIP3    H235811   3.839   4.021   0.872  0.2548 -0.5878 -1.0334
 4774TIP3   OH235812   2.495   0.435   1.044  0.0451 -0.4756  0.5935
 4774TIP3    H135813   2.468   0.522   1.014 -1.2165 -0.7212  0.9735
 4774TIP3    H235814   2.490   0.441   1.139 -0.4226 -1.0828  0.6065
 4775TIP3   OH235815   6.450   3.216   1.978 -0.3354 -0.3172 -0.2281
 4775TIP3    H135816   6.494   3.164   2.045  1.2686 -0.5546 -1.3870
 4775TIP3    H235817   6.493   3.301   1.981 -1.2559  0.1474  0.0091
 4776TIP3   OH235818   2.186   1.117   5.561 -0.7965  0.5152 -0.1384
 4776TIP3    H135819   2.246   1.118   5.487  0.5273  2.0154  0.8915
 4776TIP3    H235820   2.145   1.031   5.557 -0.7969  0.5562 -2.6046
 4777TIP3   OH235821   2.305   5.476   1.285  0.4858  0.3368  0.3606
 4777TIP3    H135822   2.332   5.402   1.230  0.0398 -0.0382  0.6351
 4777TIP3    H235823   2.213   5.457   1.306 -0.1095  1.7125 -0.7947
 4778TIP3   OH235824   3.303   5.714  13.905  0.4171 -0.0788 -0.0648
 4778TIP3    H135825   3.391   5.750  13.898  0.4464 -0.1879 -0.2460
 4778TIP3    H235826   3.256   5.777  13.960  1.0391 -0.8074  1.3635
 4779TIP3   OH235827   3.106   0.261  14.625  0.7334 -0.4808 -0.3275
 4779TIP3    H135828   3.135   0.351  14.633 -0.1215 -0.0975 -1.3253
 4779TIP3    H235829   3.060   0.243  14.707 -1.7219  1.0178 -1.2713
 4780TIP3   OH235830   2.739   3.621   0.208  0.4343  0.3138 -0.2784
 4780TIP3    H135831   2.680   3.546   0.207  1.3298 -0.4212  0.4473
 4780TIP3    H235832   2.821   3.587   0.244  0.9007  1.6098 -0.0551
 4781TIP3   OH235833   1.444   2.897  14.510 -0.2502 -0.3702  0.0680
 4781TIP3    H135834   1.466   2.824  14.451  0.2874  0.5028 -0.8533
 4781TIP3    H235835   1.505   2.967  14.485 -0.8279  0.4429  0.8567
 4782TIP3   OH235836   6.669   3.999   0.772 -0.4311 -0.4405 -0.1761
 4782TIP3    H135837   6.625   3.916   0.755  1.4714 -1.2554 -1.4439
 4782TIP3    H235838   6.662   4.012   0.867  0.6309 -2.9057  0.3176
 4783TIP3   OH235839   2.075   5.057   2.411  0.5795  0.2746  0.0138
 4783TIP3    H135840   1.988   5.071   2.449 -0.2768 -3.7361 -0.0331
 4783TIP3    H235841   2.070   5.099   2.325 -0.8017  1.2924  0.5370
 4784TIP3   OH235842   3.164   5.938  14.085 -0.2513  0.1405 -0.3054
 4784TIP3    H135843   3.132   6.019  14.046 -1.3127 -0.8164 -1.5313
 4784TIP3    H235844   3.103   5.919  14.156 -0.4413  0.0434 -0.4939
 4785TIP3   OH235845   4.126   4.401  14.017  1.0302  0.1689 -0.0242
 4785TIP3    H135846   4.199   4.418  13.958 -0.3139 -1.0432 -2.1834
 4785TIP3    H235847   4.060   4.466  13.993  1.4396  1.4662  2.1277
 4786TIP3   OH235848   4.459   1.855  12.479  0.0477  0.1331  0.7436
 4786TIP3    H135849   4.471   1.802  12.400 -2.3462  2.1105 -1.0803
 4786TIP3    H235850   4.536   1.912  12.482 -1.1986  2.1559 -2.0157
 4787TIP3   OH235851   3.692   4.639   2.117  0.2961 -0.5425 -0.6912
 4787TIP3    H135852   3.640   4.562   2.141 -0.1533 -0.3154 -0.9392
 4787TIP3    H235853   3.631   4.696   2.070  0.4312  0.3153  0.1642
 4788TIP3   OH235854   5.498   0.234   3.791  0.2627 -0.0208  0.6860
 4788TIP3    H135855   5.470   0.190   3.711  2.4248 -3.4946  1.6386
 4788TIP3    H235856   5.591   0.253   3.778  1.1763 -2.3793  2.9027
 4789TIP3   OH235857   2.558   3.944  12.632 -0.1189 -0.0566  0.2472
 4789TIP3    H135858   2.587   3.931  12.722  1.3638 -1.1523 -0.3603
 4789TIP3    H235859   2.517   4.031  12.632  1.7957  0.8957  1.4985
 4790TIP3   OH235860   5.744   1.142  14.315  0.1688  0.0231  0.2181
 4790TIP3    H135861   5.649   1.149  14.304 -0.0074 -0.6648  1.2278
 4790TIP3    H235862   5.779   1.152  14.226 -0.7824  1.1723 -0.0449
 4791TIP3   OH235863   2.322   5.694  16.728  0.2096 -0.1674 -0.1226
 4791TIP3    H135864   2.390   5.642  16.683  0.1981  0.2200 -0.5898
 4791TIP3    H235865   2.321   5.658  16.817  0.9003 -0.3039 -0.1593
 4792TIP3   OH235866   5.584   6.228  14.207 -0.2549 -0.3612 -0.1149
 4792TIP3    H135867   5.677   6.246  14.192 -0.2898 -0.4332 -0.4125
 4792TIP3    H235868   5.566   6.151  14.153 -0.9200  0.6988 -1.4574
 4793TIP3   OH235869   5.276   0.528  16.084 -0.2853 -0.2599  0.0197
 4793TIP3    H135870   5.321   0.605  16.119 -0.2503  0.4897 -1.6092
 4793TIP3    H235871   5.294   0.459  16.148  0.3708  0.8677  1.0941
 4794TIP3   OH235872   0.157   1.059   4.155 -0.5316 -0.3206  0.9426
 4794TIP3    H135873   0.228   0.998   4.174 -1.9849 -2.5808 -0.4112
 4794TIP3    H235874   0.201   1.142   4.136  1.8711 -1.8443 -0.7707
 4795TIP3   OH235875   5.288   6.508  13.386  0.0581  0.0969  0.7359
 4795TIP3    H135876   5.283   6.550  13.301  0.8490 -3.6187 -1.3547
 4795TIP3    H235877   5.378   6.476  13.391 -1.2174 -4.0298  0.5765
 4796TIP3   OH235878   2.315   2.610   2.615 -0.2829 -0.2052  0.1701
 4796TIP3    H135879   2.345   2.587   2.703 -2.7693  0.1269  1.1743
 4796TIP3    H235880   2.363   2.549   2.557  0.7379 -1.0361  1.8031
 4797TIP3   OH235881   6.385   6.085  15.014 -0.5136  0.5948 -0.1891
 4797TIP3    H135882   6.474   6.111  15.039 -0.6640  0.3850  0.5874
 4797TIP3    H235883   6.361   6.018  15.078 -1.5325  1.2301  0.1110
 4798TIP3   OH235884   2.193   3.849  16.896  0.2545 -0.0003 -0.1862
 4798TIP3    H135885   2.102   3.819  16.898 -0.1354  1.1827  0.8875
 4798TIP3    H235886   2.187   3.942  16.878  1.2926 -0.0075 -0.6051
 4799TIP3   OH235887   4.757   0.474  11.385  0.3430 -0.1526 -0.1204
 4799TIP3    H135888   4.846   0.451  11.411  0.1709 -0.8026 -0.0805
 4799TIP3    H235889   4.747   0.435  11.298  0.8000  1.7040 -1.0554
 4800TIP3   OH235890   5.587   4.402  11.146  0.1128  0.6859 -0.2149
 4800TIP3    H135891   5.641   4.481  11.151  0.6459  0.3564 -0.7136
 4800TIP3    H235892   5.556   4.399  11.055 -1.0781  1.0785  0.1529
 4801TIP3   OH235893   3.500   5.211  10.559 -0.0078  0.0857  0.0592
 4801TIP3    H135894   3.553   5.237  10.635  1.1122 -0.1311 -0.6216
 4801TIP3    H235895   3.419   5.261  10.568  0.8610  1.5038  0.4025
 4802TIP3   OH235896   1.371   5.161  13.783  0.0454 -0.1937 -0.0753
 4802TIP3    H135897   1.352   5.126  13.696 -3.0265 -1.2693  0.8853
 4802TIP3    H235898   1.312   5.113  13.842  2.0819  0.3869  2.6658
 4803TIP3   OH235899   1.532   2.678  14.315 -0.7501  0.2180  0.0336
 4803TIP3    H135900   1.517   2.635  14.231 -1.6420  2.3440 -0.9559
 4803TIP3    H235901   1.616   2.724  14.304 -0.4417 -0.1775  0.6322
 4804TIP3   OH235902   4.311   6.725  13.253  0.2401  0.3080 -0.1715
 4804TIP3    H135903   4.275   6.669  13.322  1.8346 -1.0109 -0.3304
 4804TIP3    H235904   4.265   6.808  13.263 -0.7061 -0.3551  1.4560
 4805TIP3   OH235905   5.573   4.020  13.863  0.1954  0.5896  0.1049
 4805TIP3    H135906   5.578   3.942  13.918 -0.0674  0.7847  0.4068
 4805TIP3    H235907   5.493   4.064  13.891 -0.2295  0.4217 -0.7894
 4806TIP3   OH235908   3.241   5.840   1.552 -0.4839  0.1871  0.1364
 4806TIP3    H135909   3.189   5.914   1.522  0.5657  0.3275 -1.4753
 4806TIP3    H235910   3.286   5.871   1.631 -1.0633  0.8092  0.2254
 4807TIP3   OH235911   4.298   4.832  13.669 -0.3293 -0.1217  0.0491
 4807TIP3    H135912   4.225   4.777  13.640  0.8333 -2.5954  1.4530
 4807TIP3    H235913   4.265   4.875  13.749 -1.3959  1.6923 -1.2973
 4808TIP3   OH235914   5.363   6.110  12.114  0.7272  0.8462  0.0519
 4808TIP3    H135915   5.357   6.205  12.109  0.0539  0.7705 -0.8647
 4808TIP3    H235916   5.445   6.088  12.070  0.2451  0.9289 -0.9129
 4809TIP3   OH235917   0.503   0.073  16.576 -0.0126  0.0217 -0.1414
 4809TIP3    H135918   0.496   0.122  16.659 -1.1546  1.2785 -0.9291
 4809TIP3    H235919   0.445  -0.002  16.588 -0.5073  0.4231  0.0733
 4810TIP3   OH235920   6.332   3.618  13.766  0.0044  0.6392  0.0155
 4810TIP3    H135921   6.409   3.568  13.792 -0.5824 -0.3651 -0.1083
 4810TIP3    H235922   6.258   3.569  13.803 -0.8382 -0.4898 -2.8756
 4811TIP3   OH235923   3.741   6.502   3.714 -0.0270  0.0092  0.0253
 4811TIP3    H135924   3.673   6.536   3.773 -1.5098  0.5180 -1.8759
 4811TIP3    H235925   3.775   6.580   3.670  1.2955 -0.3332  0.3710
 4812TIP3   OH235926   3.112   1.725  10.624  0.2351  0.5057  0.8686
 4812TIP3    H135927   3.021   1.750  10.637 -0.8665 -2.2450 -0.6089
 4812TIP3    H235928   3.141   1.776  10.548 -0.4847  0.5435  0.6113
 4813TIP3   OH235929   4.673   3.425  12.441 -0.1559  0.2987 -0.2250
 4813TIP3    H135930   4.590   3.431  12.395 -0.7953 -0.2193  0.8157
 4813TIP3    H235931   4.650   3.395  12.529  1.1299  0.1358  0.0857
 4814TIP3   OH235932   5.504   6.473   6.312 -0.1052  0.2049  0.0646
 4814TIP3    H135933   5.418   6.461   6.353  0.7012 -1.0342  1.4547
 4814TIP3    H235934   5.498   6.424   6.230 -1.0832  1.1026 -0.4349
 4815TIP3   OH235935   3.038   2.972   3.350 -0.2123  0.0032  0.4371
 4815TIP3    H135936   3.038   2.903   3.284  2.7482 -1.1702  1.5168
 4815TIP3    H235937   3.006   2.929   3.429 -0.9489  0.6338  0.4971
 4816TIP3   OH235938   0.623   4.935  10.926 -0.0905  0.5584 -0.4276
 4816TIP3    H135939   0.651   4.874  10.858  0.5044 -0.1703  0.4491
 4816TIP3    H235940   0.695   4.999  10.931  0.8326 -0.5255  0.8664
 4817TIP3   OH235941   3.580   0.860   5.904  0.2510 -0.3130 -0.4550
 4817TIP3    H135942   3.611   0.932   5.959  0.0831  0.7730 -1.7242
 4817TIP3    H235943   3.647   0.792   5.914  2.0017  1.1584 -1.4794
 4818TIP3   OH235944   3.081   4.514   2.997  0.1543  0.1629 -0.4671
 4818TIP3    H135945   2.993   4.541   3.024 -0.1194 -0.9048 -0.2565
 4818TIP3    H235946   3.070   4.483   2.907 -0.2633 -2.5954  0.4629
 4819TIP3   OH235947   6.642   5.946   2.992 -0.0660 -0.7095  0.7036
 4819TIP3    H135948   6.560   5.901   3.008 -0.9840  0.6693  0.0808
 4819TIP3    H235949   6.635   5.980   2.903  0.9436 -0.0941  0.8309
 4820TIP3   OH235950   5.085   3.057   2.793 -0.1284  0.0241 -0.1500
 4820TIP3    H135951   5.035   3.013   2.725  0.9663  0.7742 -1.4920
 4820TIP3    H235952   5.147   2.991   2.824 -1.5367 -0.7439  1.1479
 4821TIP3   OH235953   3.447   0.927  10.991  0.5576  0.3142 -0.1935
 4821TIP3    H135954   3.362   0.910  10.949  0.4684  0.7160 -0.1768
 4821TIP3    H235955   3.492   0.986  10.930  1.1095 -0.4446 -0.5483
 4822TIP3   OH235956   0.221   3.402   0.576 -0.0134  0.1193 -0.2995
 4822TIP3    H135957   0.247   3.458   0.649  2.2357 -0.2666 -0.7316
 4822TIP3    H235958   0.266   3.438   0.500  0.7537 -1.6949 -0.7730
 4823TIP3   OH235959   6.105   4.279   0.969 -0.6753  0.1719 -0.2750
 4823TIP3    H135960   6.149   4.354   0.928 -0.6102 -0.7012 -1.8765
 4823TIP3    H235961   6.100   4.213   0.900 -0.1728 -1.5540  1.2495
 4824TIP3   OH235962   2.054   1.164  11.669  0.3497  0.3143  0.1737
 4824TIP3    H135963   2.046   1.074  11.639 -0.9599  0.4316  0.1128
 4824TIP3    H235964   2.096   1.157  11.755 -0.7046 -0.4592  0.6526
 4825TIP3   OH235965   2.580   6.597  16.766 -0.2706 -0.2184 -0.4657
 4825TIP3    H135966   2.668   6.634  16.769 -0.2677 -0.2615  0.0457
 4825TIP3    H235967   2.526   6.668  16.731 -0.5221  0.8415  1.8722
 4826TIP3   OH235968   3.487   6.044   4.561  0.3800 -0.4867 -0.1320
 4826TIP3    H135969   3.545   6.120   4.562 -3.0986  2.4156  0.3202
 4826TIP3    H235970   3.451   6.039   4.649 -0.2061 -2.0808 -0.4250
 4827TIP3   OH235971   3.100   0.415  13.979  0.0687 -0.4213 -0.0885
 4827TIP3    H135972   3.033   0.348  13.997  1.6040 -1.8653  0.5632
 4827TIP3    H235973   3.179   0.364  13.959  1.2432  1.2191  0.2157
 4828TIP3   OH235974   4.024   2.329  16.285  0.5554 -0.1509  0.4815
 4828TIP3    H135975   3.976   2.411  16.270 -0.2229 -0.8415 -0.9849
 4828TIP3    H235976   4.080   2.320  16.207  1.7240 -0.3097  1.3053
 4829TIP3   OH235977   5.856   3.424  15.341  0.2369 -0.3095 -0.0797
 4829TIP3    H135978   5.817   3.479  15.273 -0.2202 -1.4063 -0.7266
 4829TIP3    H235979   5.865   3.338  15.300 -1.7580 -1.4962  1.8083
 4830TIP3   OH235980   0.517   1.787  14.421 -0.4029 -0.0386 -0.3740
 4830TIP3    H135981   0.551   1.822  14.504 -0.6286 -1.5639  0.3985
 4830TIP3    H235982   0.423   1.774  14.437 -0.8469  1.4234 -1.5297
 4831TIP3   OH235983   4.563   1.971   5.038  0.1292  0.4781  0.3137
 4831TIP3    H135984   4.657   1.988   5.034  0.1630  0.4486  0.8313
 4831TIP3    H235985   4.526   2.049   5.079  0.2662 -0.5543  2.5852
 4832TIP3   OH235986   5.844   4.893  13.773 -0.3571 -0.5558 -0.2117
 4832TIP3    H135987   5.790   4.945  13.832  1.1138  1.2052 -0.3177
 4832TIP3    H235988   5.823   4.926  13.686  3.2995  2.8707 -0.0905
 4833TIP3   OH235989   6.594   6.530  11.144 -0.1421 -0.1514  0.2453
 4833TIP3    H135990   6.538   6.504  11.070 -1.5120  1.7397  0.5577
 4833TIP3    H235991   6.643   6.451  11.164 -1.3594 -1.3766 -1.2469
 4834TIP3   OH235992   1.127   1.789  11.907 -0.3810  0.0831 -0.0570
 4834TIP3    H135993   1.211   1.832  11.920  0.0069 -1.0293  1.4901
 4834TIP3    H235994   1.063   1.860  11.900  0.7651  0.9694 -2.2683
 4835TIP3   OH235995   5.481   5.048   2.028  0.0402  0.2482  0.3810
 4835TIP3    H135996   5.451   5.002   2.106  0.3884  1.5408  1.2997
 4835TIP3    H235997   5.402   5.088   1.992 -0.1923 -0.6842 -0.1910
 4836TIP3   OH235998   4.417   4.515  13.103 -0.0333  0.0175  0.5678
 4836TIP3    H135999   4.420   4.591  13.045 -1.0492  0.0565  0.5410
 4836TIP3    H236000   4.324   4.493  13.108  0.0705 -0.1482  1.9756
 4837TIP3   OH236001   6.462   0.027   2.222  0.2286 -0.0660 -0.5028
 4837TIP3    H136002   6.549   0.039   2.184 -0.1983  0.7050 -1.2982
 4837TIP3    H236003   6.457   0.092   2.292  0.5910 -0.6892  0.1113
 4838TIP3   OH236004   5.456   4.845   4.273  0.0612  0.2443  0.2866
 4838TIP3    H136005   5.453   4.775   4.208  0.2432 -1.6410  2.2109
 4838TIP3    H236006   5.546   4.846   4.303 -0.4523 -0.3134  1.9292
 4839TIP3   OH236007   2.369   4.100   5.546 -0.1235 -0.2682  0.6332
 4839TIP3    H136008   2.380   4.034   5.478  0.0907  0.4359 -0.0348
 4839TIP3    H236009   2.457   4.137   5.559 -0.6845  1.9062 -1.1284
 4840TIP3   OH236010   3.229   3.977   2.251 -0.1890 -0.6163  0.1775
 4840TIP3    H136011   3.204   4.029   2.175  0.6258  1.3852  1.2226
 4840TIP3    H236012   3.296   3.917   2.218 -1.2959 -1.2061 -1.0927
 4841TIP3   OH236013   4.900   1.689   4.116  0.5356  0.0484 -0.1410
 4841TIP3    H136014   4.935   1.641   4.191 -1.3621 -2.6835 -0.8381
 4841TIP3    H236015   4.869   1.621   4.056 -3.0124  2.0757 -0.9425
 4842TIP3   OH236016   1.468   1.667   2.486  0.0923 -0.6182  0.2063
 4842TIP3    H136017   1.478   1.696   2.396  0.5785  0.9229  0.7333
 4842TIP3    H236018   1.543   1.609   2.501  0.4162 -0.2975 -0.1573
 4843TIP3   OH236019   3.740   2.686   2.216 -0.6713 -0.8720 -0.4852
 4843TIP3    H136020   3.739   2.657   2.125 -1.3622 -1.9213 -0.1706
 4843TIP3    H236021   3.768   2.778   2.213  3.5319 -1.9685 -1.3854
 4844TIP3   OH236022   5.820   3.350   0.154 -0.0747 -0.3855 -0.7953
 4844TIP3    H136023   5.907   3.372   0.187 -0.2336  0.6203 -1.0278
 4844TIP3    H236024   5.761   3.413   0.194 -0.5106 -0.2293 -1.6448
 4845TIP3   OH236025   2.790   0.077  16.263  0.4666  0.0390 -0.1336
 4845TIP3    H136026   2.781   0.053  16.171 -2.1049  1.7854 -0.4749
 4845TIP3    H236027   2.811  -0.005  16.308 -0.8724 -1.4203 -1.9812
 4846TIP3   OH236028   3.113   5.204  11.976  0.2902 -0.3318  0.3569
 4846TIP3    H136029   3.118   5.215  12.071  2.6515  0.0644  0.2612
 4846TIP3    H236030   3.123   5.292  11.940  2.0339 -0.7261 -0.2398
 4847TIP3   OH236031   4.412   1.801  17.180  0.2281 -0.1385 -0.3915
 4847TIP3    H136032   4.473   1.762  17.117 -1.5725 -0.5433 -1.9802
 4847TIP3    H236033   4.401   1.891  17.152 -1.8419 -0.7445 -1.7786
 4848TIP3   OH236034   2.916   6.626   5.690  0.2756  0.1612  0.0851
 4848TIP3    H136035   2.999   6.663   5.661 -0.2252  1.3122  0.0581
 4848TIP3    H236036   2.892   6.562   5.623 -0.0029  1.5179 -1.1533
 4849TIP3   OH236037   4.008   3.367   0.151  0.2099 -0.0805  0.4020
 4849TIP3    H136038   4.054   3.439   0.195 -0.6910 -0.0555  1.3323
 4849TIP3    H236039   3.916   3.380   0.174 -0.2181 -0.3826 -1.0705
 4850TIP3   OH236040   4.046   5.091   1.558  0.4052 -0.2619 -0.8902
 4850TIP3    H136041   4.055   5.186   1.547  0.3482 -0.0478  0.6908
 4850TIP3    H236042   3.978   5.066   1.495 -0.1747  0.8860 -0.7509
 4851TIP3   OH236043   6.648   3.511  11.056  0.0415 -0.1274  0.1067
 4851TIP3    H136044   6.577   3.448  11.044 -0.2859  0.3312 -0.3934
 4851TIP3    H236045   6.727   3.458  11.064 -0.2747 -0.6121  0.0098
 4852TIP3   OH236046   3.676   4.290  13.411 -0.1403 -0.0297 -0.4308
 4852TIP3    H136047   3.649   4.235  13.484 -0.6082  0.3864 -0.2865
 4852TIP3    H236048   3.763   4.323  13.435 -0.8713  1.2197  0.5722
 4853TIP3   OH236049   1.448   0.524  15.549 -0.5683 -0.5169  0.3867
 4853TIP3    H136050   1.539   0.506  15.572 -0.4927 -0.0862  0.4380
 4853TIP3    H236051   1.401   0.522  15.632 -0.3976  0.4417  0.5208
 4854TIP3   OH236052   2.730   2.726  15.982  0.5339  0.0012  0.2324
 4854TIP3    H136053   2.763   2.792  15.921 -0.1867 -0.2059 -0.4179
 4854TIP3    H236054   2.740   2.765  16.068  1.2922  0.4347 -0.0408
 4855TIP3   OH236055   6.815   0.591  14.308 -0.2084  0.2906  0.7816
 4855TIP3    H136056   6.839   0.680  14.283 -0.3037  0.7942  2.3498
 4855TIP3    H236057   6.805   0.595  14.403 -1.0695 -1.2010  0.7846
 4856TIP3   OH236058   2.894   1.270   1.366 -0.1748  0.2353  0.3429
 4856TIP3    H136059   2.818   1.328   1.377  0.4374  1.2628 -0.5988
 4856TIP3    H236060   2.965   1.313   1.413 -0.2413 -0.9374  1.5808
 4857TIP3   OH236061   6.089   5.685  16.462  0.6442  0.0112  0.2625
 4857TIP3    H136062   5.998   5.684  16.431  0.5945  0.6266  0.3822
 4857TIP3    H236063   6.087   5.632  16.542  0.0965  1.1960  1.0573
 4858TIP3   OH236064   6.703   6.728   2.701  0.0918 -0.2482 -0.1990
 4858TIP3    H136065   6.733   6.734   2.791  0.3429 -0.7809 -0.2430
 4858TIP3    H236066   6.662   6.812   2.683 -0.8140 -0.4790  0.7212
 4859TIP3   OH236067   2.541   3.118   5.638 -0.0169 -0.4447 -0.0885
 4859TIP3    H136068   2.450   3.109   5.665  0.1179  0.2119  0.6133
 4859TIP3    H236069   2.536   3.145   5.546 -0.5695  0.7042  0.2547
 4860TIP3   OH236070   0.748   2.566  13.469  0.8493 -0.5977  0.5595
 4860TIP3    H136071   0.799   2.577  13.389  1.2789 -0.7522  0.8075
 4860TIP3    H236072   0.758   2.649  13.516 -0.2289 -0.1363 -0.0116
 4861TIP3   OH236073   2.389   3.946   0.052  0.1779  0.6185 -0.1904
 4861TIP3    H136074   2.348   3.909   0.130  1.4538 -0.6254 -0.0652
 4861TIP3    H236075   2.480   3.914   0.056  0.3262  0.7338 -2.0631
 4862TIP3   OH236076   5.919   2.915   2.384  0.2919 -0.6449 -0.2224
 4862TIP3    H136077   5.883   2.827   2.370 -0.6450 -0.6053  1.5919
 4862TIP3    H236078   6.001   2.899   2.430 -0.4276 -0.5840  1.1433
 4863TIP3   OH236079   6.459   5.401  12.926 -0.4555 -0.6501  0.1592
 4863TIP3    H136080   6.451   5.489  12.890 -1.6610 -0.6944  0.2679
 4863TIP3    H236081   6.512   5.412  13.005  0.3118 -0.2009 -0.4143
 4864TIP3   OH236082   1.172   3.192   4.328 -0.0812 -0.0326  0.4589
 4864TIP3    H136083   1.263   3.202   4.300  0.2769 -0.0747  1.5721
 4864TIP3    H236084   1.123   3.179   4.246  0.6878  1.5505 -0.3084
 4865TIP3   OH236085   6.179   2.192   6.611  0.2406  0.4843  0.1308
 4865TIP3    H136086   6.220   2.106   6.619  0.4172  0.1691 -2.9698
 4865TIP3    H236087   6.089   2.180   6.642  0.6164 -0.4530  0.9008
 4866TIP3   OH236088   6.074   1.934  12.881  0.4383  0.1304 -0.6673
 4866TIP3    H136089   6.008   1.979  12.934  1.4563  1.1258 -0.1780
 4866TIP3    H236090   6.034   1.924  12.795  0.4076  2.7183 -1.0374
 4867TIP3   OH236091   1.649   2.267   5.240  0.2133 -0.1659  0.0748
 4867TIP3    H136092   1.653   2.341   5.300 -1.1571 -1.0174  1.3063
 4867TIP3    H236093   1.555   2.255   5.224  0.5304 -0.0335 -2.2118
 4868TIP3   OH236094   0.013   2.744  14.679 -0.0018 -0.4369  0.2173
 4868TIP3    H136095   0.044   2.830  14.709  1.8760 -0.9324 -0.1860
 4868TIP3    H236096  -0.077   2.738  14.713  0.6353  0.6902  2.3156
 4869TIP3   OH236097   1.564   3.481   2.165 -0.1501  0.8149 -0.2044
 4869TIP3    H136098   1.584   3.407   2.222 -0.6785 -0.6200 -1.7902
 4869TIP3    H236099   1.494   3.528   2.210 -0.4953 -0.2261  0.3737
 4870TIP3   OH236100   0.190   5.676  11.706  0.2372 -0.0113 -0.5230
 4870TIP3    H136101   0.213   5.595  11.750 -0.6206 -0.6944 -1.3006
 4870TIP3    H236102   0.270   5.705  11.663  1.3062  1.0386  1.9663
 4871TIP3   OH236103   2.530   6.238  13.620 -0.1117 -0.4907 -0.0019
 4871TIP3    H136104   2.602   6.296  13.641 -0.3406 -0.8002  1.7193
 4871TIP3    H236105   2.532   6.231  13.524 -0.8486  3.3049 -0.4392
 4872TIP3   OH236106   5.394   0.596  12.982  0.1138 -0.0562  0.0563
 4872TIP3    H136107   5.443   0.650  12.920  0.0291 -1.3893 -1.2340
 4872TIP3    H236108   5.459   0.565  13.044  0.2933  0.8822  0.3533
 4873TIP3   OH236109   3.414   2.725   5.731  0.6361  0.1454 -0.2195
 4873TIP3    H136110   3.487   2.679   5.690  0.0764  0.0862 -1.1620
 4873TIP3    H236111   3.336   2.691   5.687 -0.2745 -1.9761  2.7267
 4874TIP3   OH236112   2.635   5.896  12.886 -0.8139 -0.2509  0.3118
 4874TIP3    H136113   2.593   5.981  12.900  0.2698  1.0769 -3.3387
 4874TIP3    H236114   2.656   5.894  12.792  2.7058 -2.9209  0.9237
 4875TIP3   OH236115   4.784   6.223  12.464 -0.0673  0.6231  0.3066
 4875TIP3    H136116   4.797   6.165  12.539 -0.3397  0.1237 -0.0358
 4875TIP3    H236117   4.851   6.197  12.402  0.1454  1.0267  0.3611
 4876TIP3   OH236118   3.461   2.030  15.008 -0.2067  0.3964 -0.0147
 4876TIP3    H136119   3.447   1.943  14.971  1.3989  1.0867 -2.4672
 4876TIP3    H236120   3.452   2.090  14.934  3.9931  1.8063  0.3217
 4877TIP3   OH236121   1.178   6.739  11.945 -0.4791  0.3427 -0.0392
 4877TIP3    H136122   1.145   6.803  12.008 -0.3678  1.3028 -0.9487
 4877TIP3    H236123   1.099   6.696  11.912 -0.6642  0.9985 -0.4687
 4878TIP3   OH236124   5.662   0.695  11.960  0.6391 -0.1330  0.1398
 4878TIP3    H136125   5.627   0.636  11.893  0.0781  1.2049 -0.7858
 4878TIP3    H236126   5.596   0.693  12.030  0.8208 -0.8991  0.2940
 4879TIP3   OH236127   0.516   5.802   0.884  0.3741  0.1832 -0.1508
 4879TIP3    H136128   0.519   5.708   0.866 -0.2045 -0.1753  1.4741
 4879TIP3    H236129   0.600   5.822   0.924 -0.7632 -0.4339  2.8040
 4880TIP3   OH236130   0.059   2.763   2.121 -0.0727  0.7054 -0.5220
 4880TIP3    H136131   0.136   2.706   2.125  0.2249  1.1581  0.4686
 4880TIP3    H236132   0.009   2.731   2.046  0.6357 -0.1582 -0.6360
 4881TIP3   OH236133   6.556   4.085  12.892 -0.1526  1.0205 -0.0073
 4881TIP3    H136134   6.497   4.034  12.946 -1.0200  0.0644 -1.7745
 4881TIP3    H236135   6.554   4.173  12.929 -0.4928  0.3384  1.6373
 4882TIP3   OH236136   1.058   3.403  13.845 -0.0218 -0.2771 -0.2530
 4882TIP3    H136137   1.015   3.444  13.771  0.4274  1.5297  0.4439
 4882TIP3    H236138   0.987   3.373  13.902 -0.3532 -0.3650 -0.7135
 4883TIP3   OH236139   4.288   2.097   3.735  0.0515 -0.7563  0.3484
 4883TIP3    H136140   4.280   2.036   3.661  0.1670 -1.0740  0.5955
 4883TIP3    H236141   4.314   2.180   3.695 -0.5251 -0.7500 -0.0415
 4884TIP3   OH236142   2.229   6.483   5.591 -0.2934 -0.5813 -0.4474
 4884TIP3    H136143   2.271   6.473   5.677 -1.4128  0.5998  0.2553
 4884TIP3    H236144   2.221   6.393   5.559  0.9279 -0.9866  0.2735
 4885TIP3   OH236145   4.869   4.020   2.097  0.0871  0.5414 -0.6439
 4885TIP3    H136146   4.859   4.106   2.056  0.7446  0.1879 -1.5822
 4885TIP3    H236147   4.785   3.976   2.081  0.0973  0.6557 -1.0275
 4886TIP3   OH236148   5.478   5.992  11.702  0.0193 -0.3149 -0.5785
 4886TIP3    H136149   5.485   5.905  11.663  0.3814 -0.2615 -0.6382
 4886TIP3    H236150   5.440   6.046  11.634 -0.2473 -0.4349 -0.5265
 4887TIP3   OH236151   1.847   3.390   3.295  0.5558  0.3709 -0.4447
 4887TIP3    H136152   1.804   3.348   3.369 -0.1918  1.4939 -0.2089
 4887TIP3    H236153   1.857   3.321   3.230 -0.5372 -0.1912 -0.0335
 4888TIP3   OH236154   0.872   6.240  11.583 -0.1510 -0.1088  0.1176
 4888TIP3    H136155   0.967   6.247  11.568 -0.3113  0.2491 -0.7704
 4888TIP3    H236156   0.841   6.330  11.584 -0.6082 -0.2594 -0.4499
 4889TIP3   OH236157   4.578   5.549  10.480 -0.2925 -0.1851 -0.6440
 4889TIP3    H136158   4.659   5.596  10.458 -0.2488 -0.8774 -2.1254
 4889TIP3    H236159   4.508   5.613  10.466 -0.0462  0.3103  0.2967
 4890TIP3   OH236160   5.330   5.585  16.382  0.2054 -0.0327 -0.1625
 4890TIP3    H136161   5.261   5.575  16.448  1.0091  0.6255  0.7929
 4890TIP3    H236162   5.282   5.594  16.299 -0.8612  0.4566  0.4887
 4891TIP3   OH236163   2.012   3.205   4.592  0.3018  0.0828 -0.4988
 4891TIP3    H136164   1.950   3.165   4.531 -0.8352  0.0679  0.6292
 4891TIP3    H236165   2.030   3.291   4.554 -0.5230  0.1444 -0.7831
 4892TIP3   OH236166   5.643   2.729   3.581 -0.0826 -0.3154  0.1595
 4892TIP3    H136167   5.607   2.722   3.670  1.4956 -0.3021  0.8310
 4892TIP3    H236168   5.732   2.763   3.594  0.8039 -1.9414 -1.2919
 4893TIP3   OH236169   4.484   5.672   0.635  0.2934 -0.2799  0.0356
 4893TIP3    H136170   4.403   5.703   0.593 -0.2693 -0.4228  0.9737
 4893TIP3    H236171   4.503   5.738   0.702  0.7803 -0.4137  0.0325
 4894TIP3   OH236172   3.395   5.535  13.414 -0.7322 -0.1739 -0.3912
 4894TIP3    H136173   3.363   5.496  13.495  0.8202 -2.1882 -0.6632
 4894TIP3    H236174   3.359   5.480  13.345  1.6842 -1.3972 -0.7855
 4895TIP3   OH236175   4.545   6.338   2.290  0.0344 -0.5223 -0.3460
 4895TIP3    H136176   4.480   6.268   2.295  0.5714 -0.9705  0.7463
 4895TIP3    H236177   4.516   6.393   2.218 -1.0297 -1.2397 -0.4848
 4896TIP3   OH236178   5.797   4.915  16.084 -0.3469  0.0311 -0.0257
 4896TIP3    H136179   5.868   4.856  16.058 -1.2049 -0.8210 -0.5161
 4896TIP3    H236180   5.813   4.933  16.176  0.3309 -0.3952 -0.0543
 4897TIP3   OH236181   3.493   4.490  14.691 -0.3794  0.5633 -0.0862
 4897TIP3    H136182   3.486   4.570  14.742 -2.6559  0.4323 -0.0925
 4897TIP3    H236183   3.526   4.518  14.606  1.6916  1.0340  0.8298
 4898TIP3   OH236184   3.659   0.980   2.872  0.1836 -0.1139  0.7485
 4898TIP3    H136185   3.713   1.060   2.873 -0.0145  0.0179  1.0159
 4898TIP3    H236186   3.579   1.005   2.918  0.0831 -0.4440  0.7517
 4899TIP3   OH236187   4.414   5.633   5.388 -0.1504  0.5552 -0.3332
 4899TIP3    H136188   4.447   5.718   5.418 -0.9323  0.1869  1.6967
 4899TIP3    H236189   4.440   5.572   5.457 -1.6161 -0.4421 -0.6330
 4900TIP3   OH236190   3.788   1.733  12.952 -0.3871  0.6437 -0.1645
 4900TIP3    H136191   3.750   1.663  12.899 -2.9854  1.6065  0.2751
 4900TIP3    H236192   3.852   1.689  13.007 -0.0029 -0.9145 -1.7842
 4901TIP3   OH236193   0.551   3.697   0.406 -0.7041  0.0409  0.1231
 4901TIP3    H136194   0.494   3.627   0.374  1.4616 -0.9660 -1.7913
 4901TIP3    H236195   0.525   3.774   0.354 -1.3167  0.0006  0.3578
 4902TIP3   OH236196   2.334   6.250  11.331 -0.1131  0.1806 -0.0646
 4902TIP3    H136197   2.265   6.313  11.350  0.0890  0.6169 -0.7181
 4902TIP3    H236198   2.289   6.166  11.322 -0.2000 -0.0802  2.3557
 4903TIP3   OH236199   3.760   4.303   3.101 -0.2574  0.4327  0.3161
 4903TIP3    H136200   3.684   4.246   3.089  0.6011 -0.6919 -0.0010
 4903TIP3    H236201   3.725   4.391   3.092 -1.4108 -0.0780 -0.5074
 4904TIP3   OH236202   3.501   4.833   4.110  0.2820 -0.3084  0.6542
 4904TIP3    H136203   3.489   4.883   4.191 -1.8046  0.5447 -0.1073
 4904TIP3    H236204   3.595   4.839   4.091  0.2734  2.4693  1.1445
 4905TIP3   OH236205   3.447   5.427   0.928  0.3324 -0.2161  0.0055
 4905TIP3    H136206   3.509   5.479   0.877  0.0388 -1.3417 -1.5806
 4905TIP3    H236207   3.366   5.429   0.877 -0.2181 -0.7348  0.8355
 4906TIP3   OH236208   3.587   2.967   3.876  0.0890  0.0667 -0.1603
 4906TIP3    H136209   3.622   2.972   3.965  0.3962 -1.5410 -0.1603
 4906TIP3    H236210   3.507   3.019   3.878 -0.3527 -0.6427  1.2932
 4907TIP3   OH236211   4.908   0.627  10.903  0.0677  0.3218 -0.5484
 4907TIP3    H136212   4.899   0.711  10.858  0.4060  1.8884  2.0821
 4907TIP3    H236213   4.970   0.645  10.975  2.0123 -2.7952 -1.2536
 4908TIP3   OH236214   3.488   1.838   4.201  0.4318 -0.1888  0.1346
 4908TIP3    H136215   3.534   1.851   4.118  1.9430  0.0221  0.9715
 4908TIP3    H236216   3.425   1.769   4.183 -0.7348  1.2604 -1.7342
 4909TIP3   OH236217   4.780   1.058  14.713  0.5160 -0.1896  0.3688
 4909TIP3    H136218   4.735   0.979  14.744 -0.9882  1.1030  1.6921
 4909TIP3    H236219   4.785   1.047  14.618  1.6700 -2.4964  0.6138
 4910TIP3   OH236220   1.278   4.001   3.853 -0.2377 -0.0162 -0.1805
 4910TIP3    H136221   1.264   4.080   3.801 -1.2643  0.0190  0.1367
 4910TIP3    H236222   1.237   4.020   3.937  1.2878 -0.1241  0.6249
 4911TIP3   OH236223   1.268   1.866   4.536 -0.0633 -0.1440  0.2513
 4911TIP3    H136224   1.312   1.866   4.621 -0.2003 -1.3001  0.3412
 4911TIP3    H236225   1.281   1.777   4.502 -0.1530  0.2473 -0.8654
 4912TIP3   OH236226   0.232   2.573   1.599 -0.0937  0.2404 -0.3925
 4912TIP3    H136227   0.188   2.572   1.684  0.3512 -0.1449 -0.1626
 4912TIP3    H236228   0.262   2.483   1.586 -0.7646  0.1284 -1.2812
 4913TIP3   OH236229   1.813   5.819   4.078 -0.5252  0.0019  0.1887
 4913TIP3    H136230   1.801   5.767   4.158  0.2917  0.6156  0.7268
 4913TIP3    H236231   1.904   5.849   4.083 -0.5369  0.2342 -0.8710
 4914TIP3   OH236232   6.558   1.891   0.960  0.0798  0.3387 -0.9933
 4914TIP3    H136233   6.516   1.837   1.027  0.5776  0.1091 -0.8577
 4914TIP3    H236234   6.577   1.974   1.003 -1.1366  0.8131 -1.3442
 4915TIP3   OH236235   1.434   0.261  12.712 -0.9966  0.1983  0.6657
 4915TIP3    H136236   1.409   0.259  12.804  0.0616 -0.7328  0.9533
 4915TIP3    H236237   1.524   0.229  12.711 -0.7228  0.9676 -0.6085
 4916TIP3   OH236238   0.449   4.490  16.736  0.5107  0.0628 -0.0648
 4916TIP3    H136239   0.380   4.500  16.671 -0.9734 -0.8632  1.2759
 4916TIP3    H236240   0.518   4.550  16.708 -0.5932  0.6113 -1.7650
 4917TIP3   OH236241   6.477   2.094  17.168 -0.0823  0.1249  0.7331
 4917TIP3    H136242   6.531   2.163  17.206 -0.6259 -0.5265  2.8481
 4917TIP3    H236243   6.539   2.035  17.125  1.0014 -0.6774  3.2118
 4918TIP3   OH236244   6.727   2.944   2.694 -0.0257  0.0450 -0.5042
 4918TIP3    H136245   6.727   2.980   2.605  0.1447 -0.4494 -0.7106
 4918TIP3    H236246   6.802   2.884   2.695 -1.1821 -1.4539 -0.6580
 4919TIP3   OH236247   2.225   6.518  15.716  0.1570  0.5757 -0.0222
 4919TIP3    H136248   2.286   6.501  15.788  0.6453 -0.8529 -0.7338
 4919TIP3    H236249   2.195   6.608  15.730 -2.3394 -0.6401  3.8801
 4920TIP3   OH236250   3.165   1.018   3.676  0.0270 -0.7181  0.2648
 4920TIP3    H136251   3.170   1.113   3.688 -0.8854 -0.5301 -0.7159
 4920TIP3    H236252   3.246   0.996   3.630 -0.0499 -0.3233 -0.0629
 4921TIP3   OH236253   3.999   5.802   4.508  0.2209  0.2022  0.2576
 4921TIP3    H136254   4.085   5.796   4.550 -1.2610  1.7614  4.0284
 4921TIP3    H236255   3.970   5.891   4.525 -2.7075 -0.6836  0.5195
 4922TIP3   OH236256   2.111   5.780   4.880  0.0678  0.0136  0.2618
 4922TIP3    H136257   2.016   5.777   4.895 -0.5343 -0.5653 -2.9735
 4922TIP3    H236258   2.123   5.854   4.820  1.8024  0.5062  1.1558
 4923TIP3   OH236259   2.779   6.075  11.821  0.6432 -0.0428  0.3900
 4923TIP3    H136260   2.691   6.073  11.784  1.0280  1.7653 -0.7520
 4923TIP3    H236261   2.770   6.035  11.907 -1.4448  0.7330  0.5868
 4924TIP3   OH236262   4.850   1.467   3.942 -0.0668  0.3772 -0.0707
 4924TIP3    H136263   4.756   1.470   3.955 -0.0210  1.3102  0.1065
 4924TIP3    H236264   4.861   1.433   3.853 -0.4923 -1.7766  0.6376
 4925TIP3   OH236265   6.801   4.725  11.208 -0.0228 -0.1658 -0.2515
 4925TIP3    H136266   6.841   4.812  11.206  0.6027 -0.4272  0.5282
 4925TIP3    H236267   6.873   4.665  11.188 -0.4251 -0.5216 -0.6642
 4926TIP3   OH236268   0.908   4.589   2.408 -0.3108 -0.4245 -0.4770
 4926TIP3    H136269   0.974   4.656   2.427  1.8909 -2.5801  0.0379
 4926TIP3    H236270   0.832   4.613   2.461  0.9638  0.8254  0.8600
 4927TIP3   OH236271   4.538   3.907   3.007 -0.4584 -0.4137 -0.1930
 4927TIP3    H136272   4.550   3.907   3.102  0.3001 -1.2585 -0.2690
 4927TIP3    H236273   4.603   3.844   2.976  0.5889  1.2108 -1.4400
 4928TIP3   OH236274   5.935   5.398   0.733 -0.1678  0.1524  0.8132
 4928TIP3    H136275   5.955   5.491   0.748 -1.2147  0.6005 -0.4206
 4928TIP3    H236276   5.971   5.354   0.810  2.5747  1.2458  0.3072
 4929TIP3   OH236277   0.179   0.346  11.239  0.2392  0.4401 -0.2299
 4929TIP3    H136278   0.121   0.367  11.166  1.4312  1.4925 -0.9089
 4929TIP3    H236279   0.243   0.285  11.202 -0.0843 -0.2912  0.3744
 4930TIP3   OH236280   6.298   6.628  16.615  0.2665  0.1805 -0.7234
 4930TIP3    H136281   6.296   6.681  16.536 -0.2674 -0.9905 -1.5280
 4930TIP3    H236282   6.258   6.683  16.682 -0.4470  0.7273 -1.5755
 4931TIP3   OH236283   3.571   4.106  15.047  0.7019 -0.2708 -0.6513
 4931TIP3    H136284   3.587   4.159  14.969  0.8927 -0.8953 -1.0396
 4931TIP3    H236285   3.655   4.103  15.092  1.5912 -2.8923 -2.2860
 4932TIP3   OH236286   5.328   1.762  12.187 -0.2834 -0.0896  0.0795
 4932TIP3    H136287   5.328   1.830  12.120  1.7658 -0.5645 -0.4672
 4932TIP3    H236288   5.408   1.712  12.171 -0.0031 -0.5592  2.5465
 4933TIP3   OH236289   4.501   2.173  13.018  0.3427  0.6137 -0.2646
 4933TIP3    H136290   4.493   2.100  13.079 -1.6065  0.1559 -1.0018
 4933TIP3    H236291   4.585   2.159  12.974  0.8597 -0.1109  0.9279
 4934TIP3   OH236292   3.584   2.856  14.354  0.3293  0.0698  0.0157
 4934TIP3    H136293   3.601   2.762  14.350 -1.3334 -0.2423 -2.2609
 4934TIP3    H236294   3.511   2.864  14.416  0.6650 -0.0985  0.4371
 4935TIP3   OH236295   3.264   1.425  14.883  0.1432  0.3163 -0.1235
 4935TIP3    H136296   3.265   1.484  14.959 -0.2390 -0.5294  0.5469
 4935TIP3    H236297   3.355   1.396  14.874  0.8015  2.5260 -1.7095
 4936TIP3   OH236298   3.456   6.656   0.967  0.1632  0.4901  0.3362
 4936TIP3    H136299   3.484   6.565   0.959  0.6879  0.7573 -1.1395
 4936TIP3    H236300   3.396   6.655   1.042  1.2783 -0.7735  1.2714
 4937TIP3   OH236301   4.470   4.601   5.928 -0.0499  0.0366 -0.0808
 4937TIP3    H136302   4.454   4.563   5.842 -0.0374  0.2108 -0.1623
 4937TIP3    H236303   4.427   4.542   5.990  1.6012 -1.1775 -0.0265
 4938TIP3   OH236304   4.916   6.413  16.426 -0.6931  0.1473  0.5477
 4938TIP3    H136305   4.938   6.328  16.388  0.1645  1.0791 -1.1603
 4938TIP3    H236306   4.841   6.443  16.375 -0.8334  0.5324  0.9706
 4939TIP3   OH236307   1.109   3.590  13.169  0.4674  0.4092  0.1197
 4939TIP3    H136308   1.079   3.584  13.078  0.4855  1.2192  0.0479
 4939TIP3    H236309   1.173   3.520  13.178 -0.8795 -0.8906  0.0608
 4940TIP3   OH236310   3.164   2.621   5.886 -0.1938 -0.2274 -0.0708
 4940TIP3    H136311   3.090   2.597   5.943  0.1245  0.0558  0.4701
 4940TIP3    H236312   3.124   2.675   5.817 -0.2874  1.2705  1.0899
 4941TIP3   OH236313   4.385   4.265  14.724 -0.1956 -0.4620 -0.5647
 4941TIP3    H136314   4.387   4.312  14.641  1.0277 -0.8301 -0.7591
 4941TIP3    H236315   4.413   4.176  14.702 -0.3197 -0.6887  0.1681
 4942TIP3   OH236316   2.358   2.486  14.552 -0.6920 -0.9794  0.6334
 4942TIP3    H136317   2.351   2.568  14.600  0.7016 -1.1900  1.2234
 4942TIP3    H236318   2.332   2.419  14.615  1.6536 -1.3076  1.3393
 4943TIP3   OH236319   4.367   5.758   2.829 -0.6003  0.4029  0.3859
 4943TIP3    H136320   4.275   5.733   2.838 -0.1713 -1.1747  0.8055
 4943TIP3    H236321   4.412   5.706   2.895  0.7186  0.3660 -0.5019
 4944TIP3   OH236322   0.737   1.639  14.327  0.3298  0.2724 -0.1786
 4944TIP3    H136323   0.674   1.707  14.352 -0.6261 -1.1555  1.5429
 4944TIP3    H236324   0.764   1.662  14.238  0.6144  3.2891  0.5704
 4945TIP3   OH236325   0.969   1.779  14.493  0.0260 -0.1143  0.1888
 4945TIP3    H136326   0.983   1.868  14.463 -0.1418 -0.1001  0.1531
 4945TIP3    H236327   0.966   1.726  14.413  1.1346 -0.3008  0.2449
 4946TIP3   OH236328   3.818   0.051  12.587 -0.2361  0.2062 -0.5081
 4946TIP3    H136329   3.883   0.016  12.526 -0.8538 -1.1066 -0.4591
 4946TIP3    H236330   3.743   0.071  12.532  0.8884  3.8497 -0.9272
 4947TIP3   OH236331   0.233   0.636  16.310  0.8401 -0.8677 -0.7854
 4947TIP3    H136332   0.190   0.648  16.225 -2.6604 -1.3418  0.7555
 4947TIP3    H236333   0.291   0.561  16.298  1.8391  0.1701 -3.1384
 4948TIP3   OH236334   4.277   2.464   3.170  0.4491 -0.7489  0.5280
 4948TIP3    H136335   4.337   2.399   3.207 -1.0217 -2.2673  0.3454
 4948TIP3    H236336   4.235   2.504   3.246  2.0135  0.7066  0.6817
 4949TIP3   OH236337   4.199   6.362   3.323 -0.3108 -0.6357 -0.1935
 4949TIP3    H136338   4.133   6.379   3.390  1.3499 -2.2288  2.0079
 4949TIP3    H236339   4.209   6.267   3.323  1.7377 -0.4719 -0.6650
 4950TIP3   OH236340   1.067   5.703   1.687  0.2284  0.6373  0.1924
 4950TIP3    H136341   1.117   5.657   1.755 -0.7544  1.0730  1.2423
 4950TIP3    H236342   0.987   5.732   1.731 -0.7525  0.3756 -1.3169
 4951TIP3   OH236343   4.433   4.314  12.116  0.3547 -0.4685 -0.0433
 4951TIP3    H136344   4.475   4.279  12.038 -0.6542  0.8049 -1.2211
 4951TIP3    H236345   4.486   4.390  12.140 -1.3663  1.4663 -1.8459
 4952TIP3   OH236346   5.754   2.284  14.345 -0.0153  0.5572 -0.3807
 4952TIP3    H136347   5.702   2.338  14.404 -2.0653 -1.5159 -0.1294
 4952TIP3    H236348   5.698   2.275  14.267 -0.0926 -1.7649 -0.1018
 4953TIP3   OH236349   4.570   3.520   5.896  0.2876 -0.5829  0.2553
 4953TIP3    H136350   4.662   3.532   5.873 -0.0920  0.0542 -0.9959
 4953TIP3    H236351   4.569   3.524   5.992  1.6120 -1.0154  0.3065
 4954TIP3   OH236352   6.147   6.630  15.823  0.1154 -0.2068  0.1406
 4954TIP3    H136353   6.242   6.641  15.831  0.3110 -0.4605 -1.4368
 4954TIP3    H236354   6.136   6.541  15.789 -0.9070 -1.4710  3.4158
 4955TIP3   OH236355   3.638   1.680  16.409 -0.2251 -0.0823  1.1768
 4955TIP3    H136356   3.552   1.640  16.395  0.2398 -0.7634  0.0715
 4955TIP3    H236357   3.662   1.714  16.323 -0.0741  1.5699  1.8285
 4956TIP3   OH236358   2.943   6.102  13.531  0.0322  0.0218  0.0796
 4956TIP3    H136359   2.903   6.177  13.575 -1.9339 -1.2792  0.6211
 4956TIP3    H236360   2.933   6.120  13.437  0.5669  0.9144  0.1833
 4957TIP3   OH236361   1.871   2.282  15.561 -0.2776 -0.4712  0.0932
 4957TIP3    H136362   1.804   2.255  15.498 -0.6033  1.2100 -0.3278
 4957TIP3    H236363   1.919   2.352  15.516 -0.6411  0.9200  1.7642
 4958TIP3   OH236364   4.037   3.218  11.808  0.1121 -0.2558 -0.2691
 4958TIP3    H136365   4.036   3.271  11.728  0.6018 -1.3603 -1.0444
 4958TIP3    H236366   4.020   3.280  11.878 -0.5678  0.7146 -1.2500
 4959TIP3   OH236367   5.827   0.454  15.693  0.5082 -0.2515 -0.9690
 4959TIP3    H136368   5.764   0.419  15.630 -1.0616 -1.2877  1.0572
 4959TIP3    H236369   5.808   0.407  15.774  2.5881  0.8656  0.2437
 4960TIP3   OH236370   5.430   1.892   0.648 -0.4067  0.4873  0.0812
 4960TIP3    H136371   5.481   1.886   0.730 -0.2381 -0.3697 -0.0812
 4960TIP3    H236372   5.340   1.909   0.677 -1.5953 -5.2274  0.9076
 4961TIP3   OH236373   2.554   1.502  13.732  0.1091  0.0867 -0.7265
 4961TIP3    H136374   2.610   1.559  13.679 -0.3953  1.3478  0.0644
 4961TIP3    H236375   2.596   1.502  13.819 -1.2469  1.3252 -0.0241
 4962TIP3   OH236376   4.000   0.025  13.700  0.2348 -0.4982  0.0560
 4962TIP3    H136377   4.056   0.026  13.777  1.6040 -1.7943 -0.8487
 4962TIP3    H236378   4.012   0.111  13.660  0.5995 -0.3214  0.5438
 4963TIP3   OH236379   6.073   1.487  12.670 -0.4177  0.5207 -0.4578
 4963TIP3    H136380   6.088   1.573  12.629  0.2037 -0.1057 -1.6197
 4963TIP3    H236381   5.980   1.486  12.691 -0.2794  1.7735  0.3036
 4964TIP3   OH236382   4.076   6.272   3.738 -0.5417  0.5349 -0.4583
 4964TIP3    H136383   4.168   6.298   3.734 -0.4329  1.6844  4.1607
 4964TIP3    H236384   4.078   6.176   3.737  0.9942  0.4836  1.4837
 4965TIP3   OH236385   1.251   2.175   2.235 -0.3762 -0.2759 -0.4435
 4965TIP3    H136386   1.185   2.209   2.296  0.1726 -0.3913  0.2190
 4965TIP3    H236387   1.229   2.082   2.225  1.1554 -0.9400  1.7569
 4966TIP3   OH236388   6.242   2.516   1.154  0.1743 -0.0117  0.3558
 4966TIP3    H136389   6.245   2.583   1.085 -2.3987 -0.3397 -0.1596
 4966TIP3    H236390   6.282   2.558   1.230 -1.3889  2.1962  0.0546
 4967TIP3   OH236391   5.761   2.280  16.946 -0.2692  0.4443  0.2908
 4967TIP3    H136392   5.705   2.204  16.962  1.1696 -0.2268  2.5618
 4967TIP3    H236393   5.841   2.244  16.908 -0.5141  1.1537 -0.9613
 4968TIP3   OH236394   0.294   3.468   3.495 -0.2960  0.2844 -0.4731
 4968TIP3    H136395   0.243   3.389   3.477  1.9889 -1.8315  1.6532
 4968TIP3    H236396   0.362   3.469   3.428 -1.6997  1.9392 -2.0010
 4969TIP3   OH236397   4.054   6.580  11.286  0.5154 -0.1426 -0.5006
 4969TIP3    H136398   4.027   6.652  11.343  1.3245  0.2792 -0.6440
 4969TIP3    H236399   4.119   6.619  11.228  1.1867 -1.0681 -0.3758
 4970TIP3   OH236400   6.025   0.757   6.118  0.7279 -0.9774 -0.1009
 4970TIP3    H136401   5.957   0.816   6.088  1.7347 -0.6948 -1.9703
 4970TIP3    H236402   5.994   0.669   6.096 -0.1600 -1.0957  1.4555
 4971TIP3   OH236403   4.771   2.128   0.386 -0.7894 -0.0083 -0.1301
 4971TIP3    H136404   4.688   2.167   0.358  1.0281  4.7029  0.2049
 4971TIP3    H236405   4.774   2.143   0.480  0.5217  0.1250 -0.1788
 4972TIP3   OH236406   6.358   1.216  11.023 -0.1929  0.4257 -0.0320
 4972TIP3    H136407   6.405   1.133  11.012 -2.0704 -0.3866 -3.0711
 4972TIP3    H236408   6.399   1.275  10.959 -0.4112  1.1211  0.4575
 4973TIP3   OH236409   3.163   5.085   3.136 -0.1614  0.4616  0.2814
 4973TIP3    H136410   3.087   5.039   3.171  0.2646 -0.9141 -0.5155
 4973TIP3    H236411   3.237   5.027   3.155  0.2331  0.1915 -1.8357
 4974TIP3   OH236412   2.742   6.476   4.502 -0.4659 -0.0788  0.1451
 4974TIP3    H136413   2.794   6.544   4.459  0.4860  0.2651  1.7768
 4974TIP3    H236414   2.660   6.520   4.526  0.6103  0.8927  2.2587
 4975TIP3   OH236415   4.870   0.336  14.033  0.0718 -0.4550  0.1509
 4975TIP3    H136416   4.842   0.253  14.071 -0.1422 -0.0916  0.8039
 4975TIP3    H236417   4.791   0.390  14.034  0.3936  0.0107  0.4409
 4976TIP3   OH236418   3.516   6.187   0.290  0.4167 -0.2578  0.2449
 4976TIP3    H136419   3.521   6.214   0.382  0.7630  0.5952 -0.0198
 4976TIP3    H236420   3.587   6.123   0.280 -0.4760 -1.3919  0.9000
 4977TIP3   OH236421   5.539   5.040   4.110  0.1651  0.2834 -0.5997
 4977TIP3    H136422   5.584   5.099   4.171  0.4271 -1.0702  0.5749
 4977TIP3    H236423   5.472   4.997   4.164  1.3747 -2.0512 -0.8194
 4978TIP3   OH236424   0.710   4.402   2.888  0.5510  0.1257 -0.6515
 4978TIP3    H136425   0.717   4.496   2.868 -0.8082  0.5542  0.6969
 4978TIP3    H236426   0.777   4.388   2.955  0.2845  0.2855 -0.3522
 4979TIP3   OH236427   1.346   3.821  13.857 -0.0568  0.6640  0.4175
 4979TIP3    H136428   1.420   3.853  13.806 -0.3060  1.3675  0.4881
 4979TIP3    H236429   1.287   3.896  13.864  0.0020  0.6138  1.7936
 4980TIP3   OH236430   2.500   0.768  12.649  0.4470  0.2485 -0.3343
 4980TIP3    H136431   2.593   0.789  12.653  0.5732 -0.4846  0.9905
 4980TIP3    H236432   2.481   0.764  12.555  1.8589 -0.0567 -0.6320
 4981TIP3   OH236433   1.066   1.601  11.707  0.2811  0.2585 -0.1966
 4981TIP3    H136434   1.100   1.665  11.769  0.9590  0.0056 -0.3028
 4981TIP3    H236435   0.972   1.597  11.726  0.2342  1.2655 -0.1869
 4982TIP3   OH236436   6.473   6.455  15.213  0.1912 -0.2314  0.0444
 4982TIP3    H136437   6.516   6.495  15.288  0.8507 -0.5770 -0.1426
 4982TIP3    H236438   6.405   6.399  15.252 -1.3118  1.6444  0.2895
 4983TIP3   OH236439   0.058   2.143   0.775 -0.3194 -0.0945 -0.5632
 4983TIP3    H136440   0.131   2.083   0.761 -0.9507 -1.1168  0.3308
 4983TIP3    H236441  -0.018   2.097   0.737 -0.5250  0.9451 -1.4824
 4984TIP3   OH236442   5.478   2.826  11.699 -0.6271 -0.3514  0.1530
 4984TIP3    H136443   5.386   2.853  11.705 -0.4938 -0.0928  1.1653
 4984TIP3    H236444   5.474   2.736  11.666 -1.2436 -0.3380  0.1815
 4985TIP3   OH236445   4.905   0.896  13.755  0.2367 -0.1271 -0.1092
 4985TIP3    H136446   4.828   0.926  13.803  1.1574  0.8223  0.8361
 4985TIP3    H236447   4.899   0.801  13.756  0.0302 -0.1213  1.5984
 4986TIP3   OH236448   6.018   4.831  15.110  0.4285 -0.2122  0.5809
 4986TIP3    H136449   6.003   4.819  15.204  2.1860  2.4086  1.3156
 4986TIP3    H236450   5.970   4.911  15.089  0.3598 -0.5753 -0.6627
 4987TIP3   OH236451   4.674   1.408   2.522 -0.2369  0.0379  0.1767
 4987TIP3    H136452   4.738   1.477   2.538 -0.7190  0.7530 -0.8450
 4987TIP3    H236453   4.724   1.337   2.484  0.0073  0.4748 -0.3258
 4988TIP3   OH236454   3.339   0.804  11.882  0.1869  0.2111 -0.1699
 4988TIP3    H136455   3.377   0.826  11.797  2.0086 -2.3991 -0.1485
 4988TIP3    H236456   3.414   0.797  11.941 -0.6899 -1.3147  0.8347
 4989TIP3   OH236457   1.554   5.392   4.646 -0.0447  0.4012  0.1491
 4989TIP3    H136458   1.572   5.300   4.665  1.4425  0.1350 -2.1884
 4989TIP3    H236459   1.458   5.399   4.654 -0.0429 -0.8255  2.1960
 4990TIP3   OH236460   5.336   3.950   3.647 -0.5215  0.3204  0.3296
 4990TIP3    H136461   5.251   3.989   3.624 -0.3242  0.1533 -0.7495
 4990TIP3    H236462   5.323   3.856   3.640  0.0083  0.3184 -0.8529
 4991TIP3   OH236463   1.449   6.209  16.742 -0.3786 -0.6524  0.2502
 4991TIP3    H136464   1.490   6.142  16.688  2.3302 -1.7952  3.3718
 4991TIP3    H236465   1.472   6.292  16.700  0.1742 -1.5139 -1.2117
 4992TIP3   OH236466   5.007   4.809  13.276  0.0196  0.4839  0.2363
 4992TIP3    H136467   5.061   4.846  13.206  2.7378 -1.5109  1.0836
 4992TIP3    H236468   5.039   4.852  13.355 -0.2143 -0.1499  0.6772
 4993TIP3   OH236469   4.087   3.374   0.756  0.2882 -0.0572 -0.1613
 4993TIP3    H136470   4.079   3.279   0.769 -1.4428 -0.1698 -1.6301
 4993TIP3    H236471   4.019   3.395   0.692  0.5802  2.2111  0.2004
 4994TIP3   OH236472   3.930   6.334   2.920  0.1305 -0.0777  0.1023
 4994TIP3    H136473   3.979   6.255   2.940 -1.2840 -1.3018 -1.0777
 4994TIP3    H236474   3.855   6.331   2.980 -0.2055  0.0797 -0.3032
 4995TIP3   OH236475   1.650   5.879   2.475  0.3510 -0.1252 -0.2235
 4995TIP3    H136476   1.732   5.928   2.477  0.2085  0.1272 -0.5236
 4995TIP3    H236477   1.639   5.855   2.383 -0.6455  1.0861 -0.4384
 4996TIP3   OH236478   0.721   0.999   1.784 -0.2242  0.4152  0.1315
 4996TIP3    H136479   0.668   0.925   1.814  2.5105 -0.3596  3.8005
 4996TIP3    H236480   0.774   0.963   1.713  1.1969 -1.3802  1.9740
 4997TIP3   OH236481   5.998   6.770   0.251 -0.1881 -0.5545 -0.3006
 4997TIP3    H136482   5.922   6.762   0.193 -0.1722  2.0374 -0.7894
 4997TIP3    H236483   5.962   6.755   0.339 -0.8361 -1.3619 -0.6859
 4998TIP3   OH236484   5.803   5.593   1.941 -0.1882 -0.0047 -0.0020
 4998TIP3    H136485   5.766   5.531   1.879  0.4176 -0.0482 -0.3235
 4998TIP3    H236486   5.728   5.646   1.970 -0.3317  0.6510 -1.4950
 4999TIP3   OH236487   5.055   2.618  12.650  0.6989  0.6868  0.0682
 4999TIP3    H136488   5.005   2.635  12.571  0.7857  3.7352  0.5426
 4999TIP3    H236489   5.142   2.594  12.618  0.4836  0.9801 -0.7627
 5000TIP3   OH236490   1.945   4.010  14.805 -0.7753  0.0004  0.1313
 5000TIP3    H136491   1.984   3.996  14.891 -0.6998 -0.0720  0.0869
 5000TIP3    H236492   1.869   3.951  14.803 -0.9131  0.1763  0.2369
 5001TIP3   OH236493   2.318   1.281   0.790  0.2255  0.2958  0.1581
 5001TIP3    H136494   2.336   1.206   0.846 -0.7959  0.1050  0.2464
 5001TIP3    H236495   2.357   1.258   0.705 -0.8676 -0.7397 -0.0821
 5002TIP3   OH236496   6.747   4.303   0.014 -0.4842  0.0148 -0.2453
 5002TIP3    H136497   6.726   4.214   0.042 -0.4143  0.2048  0.4235
 5002TIP3    H236498   6.712   4.309  -0.075  0.1190 -0.9072 -0.5589
 5003TIP3   OH236499   0.712   6.136  15.760  0.7559  0.5791 -0.1637
 5003TIP3    H136500   0.730   6.204  15.695 -1.0603  0.7799 -0.4944
 5003TIP3    H236501   0.728   6.054  15.715 -1.2783  0.6851 -1.1951
 5004TIP3   OH236502   3.418   1.609  16.174  0.0457  0.3391  0.5303
 5004TIP3    H136503   3.349   1.556  16.134  1.0831 -1.3525  0.8800
 5004TIP3    H236504   3.474   1.635  16.100 -0.1832  0.4956  0.4138
 5005TIP3   OH236505   1.214   4.463   1.659  0.1591  0.1225 -0.5193
 5005TIP3    H136506   1.210   4.550   1.621  1.3099  0.0724 -0.7910
 5005TIP3    H236507   1.159   4.409   1.603 -2.6291  1.1229  1.0509
 5006TIP3   OH236508   6.382   1.474  14.344  0.1514 -0.5039 -0.2681
 5006TIP3    H136509   6.423   1.499  14.427 -0.8134 -0.1663  0.1163
 5006TIP3    H236510   6.311   1.538  14.332  0.0383 -0.7864 -1.1598
 5007TIP3   OH236511   4.836   3.423  16.494 -0.4469 -0.1589  0.1542
 5007TIP3    H136512   4.745   3.429  16.524 -0.3045 -0.2653  0.6226
 5007TIP3    H236513   4.883   3.486  16.548 -0.3873  0.5305 -0.6916
 5008TIP3   OH236514   5.887   3.483  13.158  0.2510  0.7609 -0.1151
 5008TIP3    H136515   5.814   3.543  13.176 -0.6057 -0.7545  1.9315
 5008TIP3    H236516   5.929   3.471  13.244  0.3772 -1.5163 -0.4250
 5009TIP3   OH236517   4.546   5.586   5.944  0.0309  0.2907  0.0332
 5009TIP3    H136518   4.588   5.610   6.027 -2.4019 -1.1663  1.8388
 5009TIP3    H236519   4.567   5.494   5.932 -0.3168  0.2791 -0.5203
 5010TIP3   OH236520   3.567   1.104   1.384  0.1072  0.5288  0.6433
 5010TIP3    H136521   3.551   1.061   1.300  0.4363 -0.7122  1.1882
 5010TIP3    H236522   3.582   1.196   1.362  0.3084  0.1967 -0.6706
 5011TIP3   OH236523   6.037   5.032   5.420 -0.6563  0.2683  0.6638
 5011TIP3    H136524   6.057   5.025   5.327  0.7351  0.6482  0.9087
 5011TIP3    H236525   6.055   5.124   5.442 -4.6932  1.2876  0.5318
 5012TIP3   OH236526   2.338   5.941  11.598 -0.1794  0.2976  0.7124
 5012TIP3    H136527   2.250   5.976  11.581  0.5281  2.3208  1.0241
 5012TIP3    H236528   2.397   6.014  11.582  1.4899 -1.0625  0.4145
 5013TIP3   OH236529   6.568   4.348  16.348  0.0500 -0.1247 -0.2274
 5013TIP3    H136530   6.526   4.381  16.269  1.8580  0.1122 -1.1433
 5013TIP3    H236531   6.517   4.271  16.372 -0.1599 -0.5932 -2.0343
 5014TIP3   OH236532   2.861   0.846   4.634 -0.5014 -0.1495 -0.4124
 5014TIP3    H136533   2.823   0.863   4.720 -0.3673 -0.6519 -0.2555
 5014TIP3    H236534   2.807   0.899   4.574 -1.1336 -0.4626 -0.1338
 5015TIP3   OH236535   5.379   1.957   2.524 -0.3465  0.3441 -0.0831
 5015TIP3    H136536   5.301   1.902   2.528  0.8044 -1.3068  2.3628
 5015TIP3    H236537   5.440   1.917   2.587  1.3606  3.2381  0.2899
 5016TIP3   OH236538   2.538   5.060   0.808  0.1795  0.0897 -0.2165
 5016TIP3    H136539   2.517   5.067   0.902 -1.1958  1.6363 -0.5802
 5016TIP3    H236540   2.512   4.971   0.785  0.7222 -0.3854  0.9044
 5017TIP3   OH236541   3.361   4.238  12.608 -0.0326  0.1462 -0.3737
 5017TIP3    H136542   3.300   4.247  12.682 -0.6148  1.5184 -1.0004
 5017TIP3    H236543   3.310   4.193  12.541 -0.9744  2.7507 -1.5113
 5018TIP3   OH236544   6.406   3.599   1.818 -0.1008  0.1176  0.6175
 5018TIP3    H136545   6.354   3.655   1.877  0.7012  0.0356  1.4121
 5018TIP3    H236546   6.402   3.645   1.734  1.6547  2.1617  1.5471
 5019TIP3   OH236547   5.570   3.391  12.043 -0.2650 -1.2407 -0.1997
 5019TIP3    H136548   5.650   3.338  12.040  0.7499 -0.3781  4.3306
 5019TIP3    H236549   5.501   3.328  12.062  0.2948 -1.4159  1.3325
 5020TIP3   OH236550   0.737   5.205  17.076  0.6376  0.0432 -0.2101
 5020TIP3    H136551   0.824   5.245  17.066  0.8475 -0.5189 -0.7152
 5020TIP3    H236552   0.694   5.258  17.143  0.8072  1.2963 -1.0335
 5021TIP3   OH236553   2.797   5.256  16.264 -0.0759 -0.0498  0.3540
 5021TIP3    H136554   2.856   5.186  16.234  0.2915  0.3623  0.1050
 5021TIP3    H236555   2.795   5.318  16.191 -1.2240 -0.3052  0.1532
 5022TIP3   OH236556   3.934   1.412   0.549  0.2261  0.5279 -0.2072
 5022TIP3    H136557   3.864   1.350   0.569  0.8834  0.0188  0.5749
 5022TIP3    H236558   3.983   1.372   0.477  1.0731 -0.2088  0.7677
 5023TIP3   OH236559   1.646   4.477   1.422  0.4990  0.5839 -0.3438
 5023TIP3    H136560   1.676   4.566   1.435  0.0722  0.5688  0.8341
 5023TIP3    H236561   1.571   4.485   1.363 -0.0742  1.0997  0.4427
 5024TIP3   OH236562   3.499   3.665   3.833  0.4893 -0.0513  0.9604
 5024TIP3    H136563   3.583   3.708   3.851  1.1835 -0.6653 -0.5985
 5024TIP3    H236564   3.515   3.572   3.847  0.5596 -0.3502 -0.8811
 5025TIP3   OH236565   3.125   3.564  15.690 -0.4681 -0.3004  0.2925
 5025TIP3    H136566   3.088   3.650  15.711  0.4701  0.5467 -1.3143
 5025TIP3    H236567   3.148   3.526  15.775 -1.1310  0.9199  1.0510
 5026TIP3   OH236568   6.772   6.190  14.885  0.8911 -0.0957 -0.1545
 5026TIP3    H136569   6.699   6.170  14.827  0.4950  0.0563  0.2824
 5026TIP3    H236570   6.820   6.108  14.894  0.7454 -0.2065 -0.4115
 5027TIP3   OH236571   4.633   1.154  10.833 -0.0986  0.4178  0.2737
 5027TIP3    H136572   4.628   1.118  10.745  1.2474 -0.5077  0.5553
 5027TIP3    H236573   4.677   1.239  10.822  2.0063 -0.5966  0.2284
 5028TIP3   OH236574   0.265   5.474   2.391  0.1764 -0.1555  0.4897
 5028TIP3    H136575   0.273   5.435   2.304  0.6496  0.1360  0.3987
 5028TIP3    H236576   0.295   5.407   2.451  0.9754  0.0580  0.3353
 5029TIP3   OH236577   0.623   6.058  11.307  0.3806  0.4816  0.0928
 5029TIP3    H136578   0.684   6.131  11.312 -0.6071  1.2672  4.0053
 5029TIP3    H236579   0.537   6.098  11.303 -0.1395 -0.4546  1.3615
 5030TIP3   OH236580   1.507   0.208  13.676  0.2703 -0.1352  0.7050
 5030TIP3    H136581   1.560   0.149  13.728 -0.1181 -1.6313 -0.5481
 5030TIP3    H236582   1.423   0.211  13.722 -0.0579 -1.4132  0.2143
 5031TIP3   OH236583   5.899   6.032   5.237  0.1965 -0.3437 -0.0234
 5031TIP3    H136584   5.819   6.051   5.189  0.6040 -0.4330 -0.7638
 5031TIP3    H236585   5.902   5.936   5.241 -0.0462 -0.3297  0.5514
 5032TIP3   OH236586   4.156   0.634  14.562 -0.0524 -0.2617 -0.1613
 5032TIP3    H136587   4.078   0.642  14.617  0.8753  0.5757  1.0772
 5032TIP3    H236588   4.229   0.645  14.622  1.0229  2.6894 -1.7908
 5033TIP3   OH236589   4.465   6.238   3.081 -0.1717 -0.0179  0.1080
 5033TIP3    H136590   4.378   6.268   3.056 -0.0207  1.4332  1.1492
 5033TIP3    H236591   4.476   6.270   3.171  1.8717  0.8570 -0.4007
 5034TIP3   OH236592   4.624   4.335  14.204 -0.3398  0.5813 -0.0683
 5034TIP3    H136593   4.690   4.279  14.163  0.5948  1.4148  0.2605
 5034TIP3    H236594   4.674   4.407  14.242 -1.5646  2.1729 -1.3126
 5035TIP3   OH236595   4.259   2.256  15.088  0.3779  0.1031  0.4653
 5035TIP3    H136596   4.247   2.285  15.179  0.1443  2.3187 -0.2166
 5035TIP3    H236597   4.184   2.292  15.041  1.0425 -0.1102 -0.7989
 5036TIP3   OH236598   4.946   4.885  12.063  1.0765 -0.2357 -0.3846
 5036TIP3    H136599   4.865   4.925  12.031 -0.2203 -1.7266  0.8657
 5036TIP3    H236600   4.932   4.791  12.050  2.3241 -0.5551  0.4745
 5037TIP3   OH236601   5.079   4.471  11.635 -0.1967 -0.4390 -0.2297
 5037TIP3    H136602   5.037   4.385  11.643  0.4068 -0.6223  1.4821
 5037TIP3    H236603   5.021   4.530  11.684  0.3483 -0.2497  0.1994
 5038TIP3   OH236604   4.041   6.496  16.472  0.3093 -0.5216 -0.6364
 5038TIP3    H136605   4.096   6.482  16.396 -0.7063  0.5184 -1.5924
 5038TIP3    H236606   4.056   6.587  16.498 -0.1112 -0.5604 -0.2271
 5039TIP3   OH236607   4.620   4.721   1.861 -0.0550  0.0991 -0.2890
 5039TIP3    H136608   4.714   4.726   1.846  0.0607 -2.1327 -0.6397
 5039TIP3    H236609   4.581   4.751   1.778  0.4235 -1.5939 -1.1644
 5040TIP3   OH236610   1.981   6.641  12.609 -0.0969  0.1153 -0.0304
 5040TIP3    H136611   1.943   6.563  12.648  0.0944 -0.2276 -0.5225
 5040TIP3    H236612   2.064   6.611  12.572  0.1318  0.6208  0.0617
 5041TIP3   OH236613   2.402   4.550   3.624  0.5475 -0.8757  0.0159
 5041TIP3    H136614   2.386   4.480   3.688 -0.3163 -0.3750  0.3600
 5041TIP3    H236615   2.381   4.631   3.670 -0.3667 -0.5170 -0.9630
 5042TIP3   OH236616   0.209   0.877   5.078  0.0120 -0.9104  0.4889
 5042TIP3    H136617   0.192   0.939   5.148  1.7176  0.4645 -0.2419
 5042TIP3    H236618   0.265   0.925   5.016  0.6899 -2.8932 -0.5267
 5043TIP3   OH236619   3.379   3.574   2.930  0.1297 -0.7913  0.6136
 5043TIP3    H136620   3.288   3.562   2.901 -0.1605  0.1827  1.0709
 5043TIP3    H236621   3.431   3.558   2.851 -0.5868  0.7684 -0.2343
 5044TIP3   OH236622   0.665   0.773   2.016 -0.0775  0.1391 -0.2811
 5044TIP3    H136623   0.642   0.683   1.990  1.3422 -0.2152 -0.3915
 5044TIP3    H236624   0.759   0.770   2.029 -0.2494  1.2052  1.4657
 5045TIP3   OH236625   3.662   5.291   1.652  0.2842  0.7283 -0.1237
 5045TIP3    H136626   3.728   5.256   1.711 -0.8279  0.4866  1.0095
 5045TIP3    H236627   3.587   5.309   1.708 -0.4060  1.5790 -1.2817
 5046TIP3   OH236628   1.430   4.662   1.343  0.3300 -0.3633  0.3766
 5046TIP3    H136629   1.376   4.641   1.419  0.3323  3.8333  1.8009
 5046TIP3    H236630   1.366   4.676   1.272 -0.1287  0.5811  0.9609
 5047TIP3   OH236631   5.685   4.580   0.539 -0.5258 -0.1643  0.0448
 5047TIP3    H136632   5.672   4.647   0.606 -0.6999  0.1247 -0.2737
 5047TIP3    H236633   5.649   4.500   0.578 -2.0445  0.3268 -0.2863
 5048TIP3   OH236634   5.666   1.296  14.083 -0.5921  0.2633  0.6327
 5048TIP3    H136635   5.591   1.244  14.110 -0.5556 -0.2543 -0.2110
 5048TIP3    H236636   5.655   1.306  13.988  0.6563 -0.2525  0.4126
 5049TIP3   OH236637   6.467   5.867  14.053 -0.0575 -0.4634 -0.3258
 5049TIP3    H136638   6.378   5.887  14.027  0.0197  1.6974  0.8318
 5049TIP3    H236639   6.522   5.920  13.996  0.4280 -0.7234 -0.1105
 5050TIP3   OH236640   0.679   4.097   0.442 -0.3902 -0.3409  0.3490
 5050TIP3    H136641   0.764   4.057   0.427  0.2743  0.8979  0.6727
 5050TIP3    H236642   0.664   4.152   0.365  1.1486  2.8323  2.1073
 5051TIP3   OH236643   1.044   6.649   2.430  0.0507  0.8953 -0.2512
 5051TIP3    H136644   1.021   6.667   2.521  2.2089  0.1713  0.4889
 5051TIP3    H236645   0.961   6.623   2.389 -1.0994  2.0104  1.2820
 5052TIP3   OH236646   1.148   0.925   4.743  0.3373  1.2793 -0.5010
 5052TIP3    H136647   1.078   0.859   4.741 -0.1642  1.7715  0.3791
 5052TIP3    H236648   1.140   0.967   4.829  1.8625  1.2055 -0.2985
 5053TIP3   OH236649   2.384   4.073  13.838 -0.0336 -0.1298 -0.1982
 5053TIP3    H136650   2.332   4.070  13.918 -0.3209 -0.1216 -0.3870
 5053TIP3    H236651   2.465   4.116  13.864  0.0124 -0.4353  0.1698
 5054TIP3   OH236652   2.168   4.089  16.625 -0.2263  0.0589 -0.2546
 5054TIP3    H136653   2.227   4.097  16.550 -0.5376 -1.5042 -0.6922
 5054TIP3    H236654   2.129   4.176  16.634  1.3225  0.8226 -0.6273
 5055TIP3   OH236655   5.304   3.426  12.512  0.3761 -0.6877  0.0735
 5055TIP3    H136656   5.251   3.425  12.432 -1.6692 -0.0871  1.3521
 5055TIP3    H236657   5.272   3.352  12.563  1.1915 -0.6638  0.6340
 5056TIP3   OH236658   3.518   2.127  15.727 -0.2354  0.3451  0.3946
 5056TIP3    H136659   3.604   2.112  15.766  0.1543 -1.3660 -0.9758
 5056TIP3    H236660   3.472   2.044  15.739  0.0730 -0.4969 -2.9662
 5057TIP3   OH236661   0.095   3.988   2.908  0.0846 -0.4734 -0.5149
 5057TIP3    H136662   0.009   4.020   2.879 -0.9336 -1.2028  1.5058
 5057TIP3    H236663   0.129   4.058   2.963 -0.1572 -1.0109  0.3355
 5058TIP3   OH236664   0.093   3.768  15.187  0.5384  0.0840 -0.3280
 5058TIP3    H136665   0.138   3.849  15.213  0.0101  0.6245 -1.0368
 5058TIP3    H236666   0.090   3.716  15.267  0.1909  1.1124  0.3555
 5059TIP3   OH236667   4.308   3.148   3.833  0.2412  0.3816  0.1701
 5059TIP3    H136668   4.366   3.187   3.767  2.0247 -0.3185  1.2482
 5059TIP3    H236669   4.334   3.190   3.915  0.9977 -1.7365  1.0798
 5060TIP3   OH236670   1.961   2.534   5.798 -0.0993 -0.6141  0.6883
 5060TIP3    H136671   1.977   2.520   5.704  0.8548  0.6626  0.6206
 5060TIP3    H236672   1.987   2.452   5.840 -0.8519 -1.3219 -0.1868
 5061TIP3   OH236673   4.028   2.444  13.195  0.4236  0.2224 -0.3128
 5061TIP3    H136674   3.983   2.526  13.215  0.7023  0.0672  1.0461
 5061TIP3    H236675   4.120   2.462  13.213  0.3303 -0.7464  1.3004
 5062TIP3   OH236676   4.608   1.466  14.388  0.3546  0.2551 -0.0412
 5062TIP3    H136677   4.573   1.382  14.416 -0.3563 -0.0965 -1.8570
 5062TIP3    H236678   4.703   1.455  14.390  0.2643 -0.5844 -0.1965
 5063TIP3   OH236679   3.464   4.847   3.842  0.6142 -0.1205  0.1345
 5063TIP3    H136680   3.491   4.813   3.927 -0.3691 -2.4984 -0.4393
 5063TIP3    H236681   3.409   4.779   3.805 -0.4423  1.6196 -1.6806
 5064TIP3   OH236682   3.308   3.093   5.405 -0.2123 -0.6070  0.4964
 5064TIP3    H136683   3.227   3.048   5.428 -0.8331  0.0948 -0.2673
 5064TIP3    H236684   3.295   3.184   5.432  0.0130 -0.3229 -0.3173
 5065TIP3   OH236685   0.956   5.872  11.616  0.4290 -0.2331 -0.0286
 5065TIP3    H136686   0.960   5.783  11.582  0.6066 -0.3140  0.1980
 5065TIP3    H236687   0.876   5.909  11.578  1.0175 -0.0582 -1.1507
 5066TIP3   OH236688   2.946   4.153  15.693 -0.0066  0.2399  0.0959
 5066TIP3    H136689   2.936   4.073  15.642 -3.5159 -0.0320  0.9362
 5066TIP3    H236690   2.943   4.123  15.784  0.2916  1.1884  0.4245
 5067TIP3   OH236691   0.384   3.580   2.746 -0.1402  0.2730 -0.1272
 5067TIP3    H136692   0.401   3.658   2.694 -1.5109  0.1762 -0.7898
 5067TIP3    H236693   0.356   3.514   2.682  1.2587 -0.8604  0.3809
 5068TIP3   OH236694   1.711   1.961   0.431  0.1463  0.2032 -0.3511
 5068TIP3    H136695   1.701   1.891   0.495 -2.6062  1.9179  1.2966
 5068TIP3    H236696   1.646   2.027   0.457  0.2860  1.8994 -3.7574
 5069TIP3   OH236697   4.219   2.290   2.962 -0.1404  0.1245  0.2659
 5069TIP3    H136698   4.135   2.304   2.918  0.4303  1.1929 -0.5545
 5069TIP3    H236699   4.216   2.348   3.038  0.0671  0.6021 -0.0837
 5070TIP3   OH236700   5.495   2.506  14.201  0.1329  0.2358 -0.4548
 5070TIP3    H136701   5.584   2.495  14.232  0.1859  0.4398 -0.5378
 5070TIP3    H236702   5.452   2.423  14.223  1.2193 -1.2654 -3.3907
 5071TIP3   OH236703   3.546   6.036  15.908 -0.1050 -0.1233  0.2738
 5071TIP3    H136704   3.566   6.078  15.825 -0.2127  0.1702  0.3969
 5071TIP3    H236705   3.451   6.040  15.915 -0.0326  0.7131  0.8596
 5072TIP3   OH236706   5.680   4.756  16.447  0.1745  0.3090 -0.0294
 5072TIP3    H136707   5.586   4.740  16.454 -0.1064  1.5909 -0.5600
 5072TIP3    H236708   5.711   4.758  16.538 -0.5859  1.2725  0.2296
 5073TIP3   OH236709   1.565   4.761   2.525 -0.0382  0.3776  0.1950
 5073TIP3    H136710   1.483   4.717   2.504 -0.6071 -0.0940  3.0129
 5073TIP3    H236711   1.628   4.724   2.463 -1.6951 -0.0246 -1.3418
 5074TIP3   OH236712   1.807   2.146  14.976 -0.5020 -0.0444  0.7729
 5074TIP3    H136713   1.815   2.069  15.032  0.5967 -0.4222  0.1209
 5074TIP3    H236714   1.717   2.141  14.941 -0.0019 -1.8488 -0.3914
 5075TIP3   OH236715   4.899   2.733  16.956 -0.0584  0.0965 -0.2841
 5075TIP3    H136716   4.808   2.707  16.942  0.0750 -0.1399 -0.7450
 5075TIP3    H236717   4.928   2.680  17.030 -0.3125  0.2252 -0.0878
 5076TIP3   OH236718   4.964   6.643   0.816  0.4207  0.1954  0.3701
 5076TIP3    H136719   5.020   6.708   0.774 -1.8009  2.4038  0.6057
 5076TIP3    H236720   5.010   6.559   0.802  1.9070  1.3687 -2.6273
 5077TIP3   OH236721   2.767   3.971  15.213  0.3374 -0.0247 -0.1838
 5077TIP3    H136722   2.734   3.912  15.145  0.0037  0.1478 -0.1741
 5077TIP3    H236723   2.851   3.933  15.240  0.5154 -0.0399 -0.7584
 5078TIP3   OH236724   1.056   0.647  14.754  0.1737  0.1406  0.0478
 5078TIP3    H136725   1.062   0.598  14.671 -0.9172  0.8558 -0.4876
 5078TIP3    H236726   0.998   0.593  14.808  1.6370 -0.8024  0.7309
 5079TIP3   OH236727   3.659   6.677  10.660 -0.4967  0.1850 -0.2602
 5079TIP3    H136728   3.655   6.659  10.566 -0.5436 -1.0040 -0.0422
 5079TIP3    H236729   3.699   6.599  10.698 -0.2768  0.7447  0.6916
 5080TIP3   OH236730   5.784   4.943  14.780  0.5520  0.3283  0.1234
 5080TIP3    H136731   5.843   5.018  14.770 -0.3281  1.1493  0.9562
 5080TIP3    H236732   5.779   4.928  14.874  1.1915 -1.1875 -0.0559
 5081TIP3   OH236733   3.058   1.773  13.176  0.3089 -0.1396 -0.0904
 5081TIP3    H136734   3.059   1.790  13.082  3.2450  3.5559  0.3654
 5081TIP3    H236735   3.106   1.690  13.186  0.5952 -0.2137 -1.7849
 5082TIP3   OH236736   2.252   0.354   5.253  0.4303  0.0140 -0.4382
 5082TIP3    H136737   2.156   0.359   5.257  0.4697 -0.0692  1.4693
 5082TIP3    H236738   2.273   0.268   5.288  1.2050  0.0692 -0.7594
 5083TIP3   OH236739   1.820   1.912  15.458  0.4744  0.1501 -0.2271
 5083TIP3    H136740   1.778   1.972  15.396  1.2036 -1.3555 -2.2629
 5083TIP3    H236741   1.761   1.837  15.462 -0.0852  0.6413  1.7720
 5084TIP3   OH236742   3.226   3.271   6.191  0.4793 -0.2340  0.2638
 5084TIP3    H136743   3.188   3.245   6.274  2.6319 -1.5307  0.9145
 5084TIP3    H236744   3.158   3.251   6.126 -0.4015 -1.2951  1.4601
 5085TIP3   OH236745   3.328   2.936   4.433 -0.7358  0.1491 -0.7729
 5085TIP3    H136746   3.245   2.909   4.395  0.1163  0.3191 -2.8565
 5085TIP3    H236747   3.361   2.858   4.477 -0.4896 -0.8842 -2.7339
 5086TIP3   OH236748   2.244   3.229  11.425 -0.3178 -0.1749 -0.2041
 5086TIP3    H136749   2.202   3.162  11.480 -0.5011  0.5906  0.6006
 5086TIP3    H236750   2.223   3.312  11.467  1.3889  0.2904 -0.1979
 5087TIP3   OH236751   1.847   4.037  16.089 -0.7652  0.0345  0.0576
 5087TIP3    H136752   1.894   4.002  16.013  0.4013  0.3846  0.5906
 5087TIP3    H236753   1.840   4.131  16.072  1.1710  0.4565  1.1653
 5088TIP3   OH236754   6.033   5.335   5.182 -0.6724  0.0954  0.0651
 5088TIP3    H136755   5.958   5.355   5.238 -0.9012  1.0283 -0.5577
 5088TIP3    H236756   6.017   5.245   5.152 -2.3982  0.8056 -1.3261
 5089TIP3   OH236757   5.857   6.044   5.731 -0.8603 -0.3488  0.1450
 5089TIP3    H136758   5.781   6.011   5.779 -0.9262  0.3733  0.5573
 5089TIP3    H236759   5.913   5.967   5.717  0.7543 -0.1772  4.2567
 5090TIP3   OH236760   3.890   3.801  16.710  0.1719 -0.8399  0.0151
 5090TIP3    H136761   3.946   3.737  16.753 -0.0817 -1.1120 -0.0600
 5090TIP3    H236762   3.804   3.760  16.706  0.1270 -0.7067 -0.5083
 5091TIP3   OH236763   3.969   6.666   1.350  0.0669  0.6437  0.1764
 5091TIP3    H136764   3.882   6.664   1.390  0.3206  0.8609  0.7593
 5091TIP3    H236765   3.958   6.718   1.271 -0.5991 -0.4010 -0.4355
 5092TIP3   OH236766   2.461   2.275  15.761 -0.7069 -0.1030  0.5314
 5092TIP3    H136767   2.442   2.352  15.815 -1.1242 -0.8822  1.5305
 5092TIP3    H236768   2.518   2.307  15.692 -2.1052  1.4342  0.0234
 5093TIP3   OH236769   5.014   5.967  15.928 -0.1514 -0.3420 -0.7312
 5093TIP3    H136770   5.026   6.059  15.951  0.0188 -0.1600 -1.4941
 5093TIP3    H236771   5.095   5.942  15.884  0.0963 -1.0767  0.1117
 5094TIP3   OH236772   2.536   3.081   4.850 -0.1934  0.2975 -0.7389
 5094TIP3    H136773   2.500   3.142   4.914 -0.5870 -0.8197  0.1528
 5094TIP3    H236774   2.460   3.032   4.818  0.2782 -0.7504 -0.2990
 5095TIP3   OH236775   0.750   5.803   4.997 -0.1408 -0.3437 -0.1931
 5095TIP3    H136776   0.668   5.778   4.955 -0.4084 -2.4909  1.4366
 5095TIP3    H236777   0.724   5.863   5.067 -0.1860 -0.1427 -0.3818
 5096TIP3   OH236778   5.002   2.718  14.141 -0.3044  0.4695  0.1713
 5096TIP3    H136779   5.010   2.653  14.071 -0.5580  0.5792  0.0367
 5096TIP3    H236780   4.958   2.671  14.212 -1.8350  0.8780 -0.4625
 5097TIP3   OH236781   0.898   1.467  16.563 -0.1653  0.2701  0.2742
 5097TIP3    H136782   0.982   1.424  16.581  1.3758  2.5045 -0.9589
 5097TIP3    H236783   0.864   1.422  16.486  0.3357 -0.1142  0.2687
 5098TIP3   OH236784   6.581   4.332   5.105  0.4464 -0.6952  0.0447
 5098TIP3    H136785   6.596   4.403   5.167  0.7235  0.6989 -1.5657
 5098TIP3    H236786   6.634   4.260   5.139 -0.8414 -0.6385  2.4301
 5099TIP3   OH236787   0.678   1.602   4.391 -0.1919  0.2414 -0.0348
 5099TIP3    H136788   0.605   1.618   4.332 -0.5076 -1.9095 -0.3169
 5099TIP3    H236789   0.640   1.610   4.479 -0.2424  1.2271 -0.1360
 5100TIP3   OH236790   0.169   3.642   4.667 -0.3826  0.5048 -0.0524
 5100TIP3    H136791   0.130   3.716   4.712  0.2809  0.3521  0.7991
 5100TIP3    H236792   0.247   3.620   4.719  0.8424  0.8007 -1.6676
 5101TIP3   OH236793   5.382   2.282   4.067 -0.1110  0.1917 -1.0533
 5101TIP3    H136794   5.336   2.324   3.994  2.0230  0.5528 -2.2542
 5101TIP3    H236795   5.455   2.235   4.027  1.4075  0.7543  0.8690
 5102TIP3   OH236796   6.121   4.033   4.829 -0.0464 -0.1453 -0.0596
 5102TIP3    H136797   6.112   4.128   4.818  0.3398 -0.0622  0.2981
 5102TIP3    H236798   6.215   4.019   4.834 -0.1071 -0.5381 -0.0332
 5103TIP3   OH236799   1.909   6.053   5.112  0.1938 -0.5007 -0.5699
 5103TIP3    H136800   1.841   6.113   5.142  1.4346  0.6635  0.0753
 5103TIP3    H236801   1.911   6.063   5.017 -0.6719 -0.7077 -0.6112
 5104TIP3   OH236802   3.474   2.840   0.978  0.5328  0.4573 -0.0928
 5104TIP3    H136803   3.550   2.850   0.921  0.1538  0.3898 -0.6180
 5104TIP3    H236804   3.445   2.750   0.964  1.3507 -0.0704  1.3726
 5105TIP3   OH236805   2.481   2.718   5.491 -0.3646  0.3638 -0.0107
 5105TIP3    H136806   2.393   2.753   5.498 -0.1010  0.8312  1.3087
 5105TIP3    H236807   2.529   2.758   5.564  0.2134 -1.9640  0.9768
 5106TIP3   OH236808   3.513   0.737  12.151  0.2847  0.2966 -0.3901
 5106TIP3    H136809   3.587   0.797  12.139  0.2546  0.5916  0.7843
 5106TIP3    H236810   3.544   0.674  12.216 -0.1604 -0.1685 -0.6264
 5107TIP3   OH236811   3.663   5.160   2.874 -0.1476 -0.1666 -0.1763
 5107TIP3    H136812   3.604   5.092   2.906  0.0985 -0.1360  0.3417
 5107TIP3    H236813   3.749   5.137   2.908  0.1502 -0.2044 -0.9237
 5108TIP3   OH236814   4.805   3.802  15.275 -0.2394 -0.0574  0.1056
 5108TIP3    H136815   4.757   3.816  15.357  0.5276 -0.4736  0.6421
 5108TIP3    H236816   4.880   3.747  15.301  2.1335  2.8189 -0.1560
 5109TIP3   OH236817   1.670   2.467   5.392 -0.3116  0.0760 -0.3057
 5109TIP3    H136818   1.622   2.541   5.356 -2.7005 -1.2530 -0.0287
 5109TIP3    H236819   1.636   2.456   5.481  0.5237 -0.9016 -0.0790
 5110TIP3   OH236820   3.920   4.085  13.647 -0.4718  0.2916  0.1585
 5110TIP3    H136821   3.829   4.108  13.667 -0.8311  0.1049 -1.1704
 5110TIP3    H236822   3.972   4.142  13.703 -1.4019  0.1130  1.2428
 5111TIP3   OH236823   0.639   6.108   3.008 -0.0282 -0.0927  0.1948
 5111TIP3    H136824   0.725   6.139   2.981 -0.3244 -0.3582 -1.1572
 5111TIP3    H236825   0.654   6.067   3.093  1.6818 -2.1802 -0.9793
 5112TIP3   OH236826   0.703   0.141   4.572  0.1436  0.5522  0.3731
 5112TIP3    H136827   0.647   0.081   4.524 -0.6660  1.8952 -0.4226
 5112TIP3    H236828   0.753   0.085   4.632 -0.7794 -0.8571 -0.1297
 5113TIP3   OH236829   5.329   2.976  11.449  0.6438 -0.2244  0.0473
 5113TIP3    H136830   5.339   3.048  11.510 -0.0432  1.1497 -1.3988
 5113TIP3    H236831   5.405   2.983  11.391 -0.1829  0.3045 -1.0187
 5114TIP3   OH236832   1.419   2.273   2.476  0.1041 -0.2060  0.3668
 5114TIP3    H136833   1.427   2.177   2.482 -0.2906 -0.1948  1.1771
 5114TIP3    H236834   1.426   2.291   2.383  0.0446 -1.0410  0.1890
 5115TIP3   OH236835   0.735   3.646   3.824  0.0770 -0.4150  0.1658
 5115TIP3    H136836   0.829   3.652   3.809 -0.3477  1.4753 -2.6433
 5115TIP3    H236837   0.706   3.575   3.767 -0.4068  0.5410 -0.8410
 5116TIP3   OH236838   6.382   4.339   0.602 -0.0637 -0.2282  0.1298
 5116TIP3    H136839   6.434   4.262   0.626 -1.9801 -1.1171  1.7737
 5116TIP3    H236840   6.302   4.302   0.563  1.0330  1.1123 -3.9004
 5117TIP3   OH236841   4.394   4.575  15.917 -0.2987  0.1029 -0.1580
 5117TIP3    H136842   4.402   4.484  15.947  1.2108  0.4884  0.6567
 5117TIP3    H236843   4.346   4.568  15.834 -1.0962 -1.3357  0.3885
 5118TIP3   OH236844   3.336   2.031  13.981  0.3944 -0.1115  0.0716
 5118TIP3    H136845   3.380   1.976  14.045 -0.4231  0.1696  0.9089
 5118TIP3    H236846   3.346   2.120  14.014  0.2420  0.0719 -0.3609
 5119TIP3   OH236847   1.274   0.371  15.009  0.4001 -0.1272  0.3000
 5119TIP3    H136848   1.362   0.405  15.026 -0.4382  1.4939  1.6290
 5119TIP3    H236849   1.233   0.365  15.095 -0.9839 -0.3250 -0.3486
 5120TIP3   OH236850   5.747   0.611   4.690  0.4652  0.1799 -0.1986
 5120TIP3    H136851   5.787   0.691   4.657 -0.2250  1.1361  1.2054
 5120TIP3    H236852   5.662   0.606   4.646 -0.6319  1.6710  1.5702
 5121TIP3   OH236853   2.369   6.192  15.024  0.2745 -0.0609 -0.0240
 5121TIP3    H136854   2.348   6.208  15.116 -0.9354  1.0652 -0.4761
 5121TIP3    H236855   2.464   6.197  15.020  0.2446  2.1452  0.7926
 5122TIP3   OH236856   6.352   2.217   2.794 -0.0672 -0.0068 -0.3435
 5122TIP3    H136857   6.415   2.183   2.858  0.9280 -2.2675 -2.3301
 5122TIP3    H236858   6.269   2.178   2.819  0.0170  0.2353  0.3396
 5123TIP3   OH236859   6.456   0.210   2.404  0.1713  0.1642 -0.1552
 5123TIP3    H136860   6.379   0.246   2.448 -0.4288 -0.7987 -0.3695
 5123TIP3    H236861   6.523   0.278   2.411 -0.8955  1.2828 -0.5333
 5124TIP3   OH236862   1.963   3.339  14.636  0.5089  0.0302  0.0119
 5124TIP3    H136863   1.997   3.250  14.623 -0.3181 -0.2143 -0.6281
 5124TIP3    H236864   1.869   3.326  14.652  0.7795  0.6286  2.3771
 5125TIP3   OH236865   0.038   0.642  12.245 -0.3311 -0.0854  0.2426
 5125TIP3    H136866   0.005   0.730  12.228 -1.1812 -0.5638 -0.6491
 5125TIP3    H236867   0.066   0.645  12.337 -1.8301  0.6608  0.7160
 5126TIP3   OH236868   3.010   5.075  14.720  0.2891  0.3133 -0.1929
 5126TIP3    H136869   3.016   5.010  14.790 -4.1727 -0.2826 -0.0936
 5126TIP3    H236870   3.019   5.159  14.765 -1.2103 -0.1017  0.9951
 5127TIP3   OH236871   5.332   6.494  12.837 -0.4367  0.3223  0.1447
 5127TIP3    H136872   5.346   6.471  12.746  0.1769 -0.3893  0.4078
 5127TIP3    H236873   5.296   6.582  12.834 -2.0057 -0.3198 -0.8532
 5128TIP3   OH236874   1.989   0.659  14.341 -0.6217  0.5031  0.0061
 5128TIP3    H136875   1.901   0.631  14.367 -0.3399 -0.5519 -0.1131
 5128TIP3    H236876   2.037   0.577  14.331  0.0899  1.0321 -0.9479
 5129TIP3   OH236877   5.001   0.166   4.350  0.2552 -0.4664 -0.1004
 5129TIP3    H136878   4.995   0.256   4.383  0.9540 -0.4476 -0.0053
 5129TIP3    H236879   5.073   0.169   4.287  1.9348 -1.4811  1.6768
 5130TIP3   OH236880   2.517   4.377   2.484 -0.1418  0.0025 -0.2828
 5130TIP3    H136881   2.450   4.309   2.494 -0.6724  0.6374  0.6048
 5130TIP3    H236882   2.596   4.330   2.458  0.0973 -1.2479  2.4522
 5131TIP3   OH236883   3.259   2.259  10.994 -0.6450 -0.4762  0.4483
 5131TIP3    H136884   3.165   2.260  10.972 -0.1504  0.1043 -2.0160
 5131TIP3    H236885   3.271   2.178  11.043 -2.2534 -1.1996 -0.2469
 5132TIP3   OH236886   0.357   4.592   3.525 -0.1546  0.2625  0.1375
 5132TIP3    H136887   0.390   4.503   3.510  2.2206  0.8251  1.5343
 5132TIP3    H236888   0.436   4.646   3.530 -1.3807  2.0240  1.9135
 5133TIP3   OH236889   1.704   4.324   0.048  0.0866  0.4080 -0.5943
 5133TIP3    H136890   1.644   4.337  -0.026 -0.1125  1.3485 -0.2791
 5133TIP3    H236891   1.697   4.230   0.068  0.3408  0.0789 -1.9293
 5134TIP3   OH236892   0.953   5.908  15.356 -0.4930  0.1896 -0.4316
 5134TIP3    H136893   0.896   5.969  15.310 -1.5147 -0.5391 -0.1779
 5134TIP3    H236894   1.042   5.935  15.332 -0.9418  1.2052 -1.0246
 5135TIP3   OH236895   2.699   6.433  13.042  0.4764 -0.1306 -0.0395
 5135TIP3    H136896   2.762   6.498  13.073 -1.5818  1.1588  1.7617
 5135TIP3    H236897   2.623   6.484  13.015  0.4077 -1.5743 -2.9378
 5136TIP3   OH236898   1.912   2.059   0.660 -0.4102  0.0980 -0.2028
 5136TIP3    H136899   1.862   2.099   0.731  0.3394  1.2378 -0.3005
 5136TIP3    H236900   1.870   2.091   0.580  1.0510  1.8889 -0.3020
 5137TIP3   OH236901   3.508   2.482   4.098  0.9757  0.1111 -0.7284
 5137TIP3    H136902   3.536   2.514   4.184  0.0496 -0.1053 -0.3267
 5137TIP3    H236903   3.556   2.400   4.087  0.5569 -0.2339 -0.0743
 5138TIP3   OH236904   6.056   5.134   1.157 -0.4825  0.0364 -0.6351
 5138TIP3    H136905   6.133   5.124   1.100  0.5287  3.6290 -0.1650
 5138TIP3    H236906   6.091   5.118   1.245 -0.8429 -0.5083 -0.5866
 5139TIP3   OH236907   0.089   2.534  12.034 -0.1811  1.0876  0.1371
 5139TIP3    H136908   0.069   2.618  12.075 -0.3800  1.1328 -0.0493
 5139TIP3    H236909   0.172   2.507  12.073 -1.3852  0.1132  2.1511
 5140TIP3   OH236910   4.772   5.434  14.504 -0.4115 -0.0942  0.5497
 5140TIP3    H136911   4.863   5.431  14.534 -0.5320 -0.5633  0.8717
 5140TIP3    H236912   4.725   5.378  14.565 -0.6138 -1.3207 -0.6996
 5141TIP3   OH236913   3.061   2.630  16.089 -0.7964  0.2990 -0.0940
 5141TIP3    H136914   3.045   2.660  15.999 -2.1623  0.4937  0.1991
 5141TIP3    H236915   3.024   2.698  16.144  1.1455  0.8072  0.6814
 5142TIP3   OH236916   3.321   5.127  16.211 -0.7302  0.4871 -0.3201
 5142TIP3    H136917   3.363   5.213  16.222 -0.1246  0.1987 -0.3075
 5142TIP3    H236918   3.242   5.145  16.161 -1.1844  1.2064  0.6122
 5143TIP3   OH236919   3.709   3.082  16.547  0.2916  0.3658  0.7386
 5143TIP3    H136920   3.788   3.042  16.512 -0.4287  1.2523 -2.2123
 5143TIP3    H236921   3.734   3.172  16.568  0.1576  0.5352  0.1731
 5144TIP3   OH236922   4.886   0.681   5.899 -0.6844 -0.2987 -0.3187
 5144TIP3    H136923   4.899   0.608   5.838 -1.6813  0.0341 -0.9614
 5144TIP3    H236924   4.800   0.716   5.876 -0.4586  0.7352  0.3446
 5145TIP3   OH236925   0.408   0.405  11.551  0.0392  0.0480  1.1677
 5145TIP3    H136926   0.348   0.471  11.516  2.1518  1.3169 -0.2198
 5145TIP3    H236927   0.351   0.330  11.569 -2.1388  1.5463  1.0043
 5146TIP3   OH236928   1.496   0.972  13.784  0.2403 -0.1613  0.0396
 5146TIP3    H136929   1.504   0.950  13.691 -1.6756 -0.2244 -0.1384
 5146TIP3    H236930   1.565   0.920  13.826 -0.0438 -1.5708 -1.1379
 5147TIP3   OH236931   4.881   3.860   6.146  0.0958  0.5744  0.6181
 5147TIP3    H136932   4.955   3.920   6.135 -0.2462  0.5337 -3.9230
 5147TIP3    H236933   4.920   3.773   6.135 -0.2249  0.3591  1.1795
 5148TIP3   OH236934   5.501   0.330  11.744  0.3725 -0.1121  0.0035
 5148TIP3    H136935   5.537   0.399  11.800 -2.4689  0.8650  0.7743
 5148TIP3    H236936   5.471   0.263  11.805 -3.3524  1.2522 -0.0477
 5149TIP3   OH236937   3.576   3.241  15.428 -0.0829 -0.3032 -0.1351
 5149TIP3    H136938   3.591   3.175  15.496 -0.1257 -1.3212 -1.0850
 5149TIP3    H236939   3.641   3.222  15.360  0.9790  1.6406  0.2467
 5150TIP3   OH236940   4.066   2.472  14.252  0.0044 -0.2014 -0.0930
 5150TIP3    H136941   4.029   2.556  14.223  1.4509 -0.2180 -2.2802
 5150TIP3    H236942   4.150   2.495  14.291 -0.5385 -0.4815  1.2728
 5151TIP3   OH236943   2.434   5.027  12.318  0.1399  0.6701 -0.4626
 5151TIP3    H136944   2.423   4.958  12.252  2.2694 -0.0845 -0.1226
 5151TIP3    H236945   2.494   5.090  12.277 -1.8967  2.4982 -0.8333
 5152TIP3   OH236946   2.428   0.560  11.861 -0.0182 -0.4453 -0.0562
 5152TIP3    H136947   2.420   0.561  11.765  1.0654 -0.9290 -0.1669
 5152TIP3    H236948   2.367   0.627  11.891 -0.4870 -0.3980 -1.0777
 5153TIP3   OH236949   4.711   1.460   2.847 -0.3562  0.2067  0.3497
 5153TIP3    H136950   4.674   1.397   2.785 -2.6768  0.8594  0.9726
 5153TIP3    H236951   4.805   1.448   2.839 -0.5827 -0.6189 -2.3756
 5154TIP3   OH236952   0.620   5.053  11.651 -0.5777 -0.2295  0.2188
 5154TIP3    H136953   0.564   4.978  11.632 -1.6024  0.2371  1.2569
 5154TIP3    H236954   0.560   5.119  11.687  0.5988  0.3796  1.1233
 5155TIP3   OH236955   3.499   6.074   2.684  0.2002  0.0950  0.5403
 5155TIP3    H136956   3.456   5.990   2.670  1.2002 -0.2201 -0.8894
 5155TIP3    H236957   3.432   6.139   2.661  0.1792 -0.3695 -0.7910
 5156TIP3   OH236958   1.673   5.649   0.726  0.1686 -0.5017 -0.4432
 5156TIP3    H136959   1.745   5.654   0.663  0.3065 -1.9814 -0.4423
 5156TIP3    H236960   1.662   5.739   0.756  2.4807 -0.3184  0.0699
 5157TIP3   OH236961   5.137   4.954  11.423 -0.5654  0.3894  0.1004
 5157TIP3    H136962   5.094   4.971  11.339 -0.5125  1.0137  0.1956
 5157TIP3    H236963   5.074   4.982  11.489 -0.8876 -0.7600  0.2911
 5158TIP3   OH236964   0.776   2.744  13.771  0.3073  0.0932  0.5507
 5158TIP3    H136965   0.766   2.651  13.789  1.3318 -0.2247 -0.3792
 5158TIP3    H236966   0.694   2.784  13.801 -0.3188 -1.1597  0.5617
 5159TIP3   OH236967   3.449   2.218   6.713 -0.0034 -0.0235 -0.3516
 5159TIP3    H136968   3.370   2.272   6.707 -0.6534 -0.6787  1.6414
 5159TIP3    H236969   3.417   2.128   6.714  0.6402 -0.2785  1.5423
 5160TIP3   OH236970   2.417   0.789  15.730  0.1686  0.1207  0.2560
 5160TIP3    H136971   2.341   0.841  15.757 -0.5415 -0.0641 -1.2858
 5160TIP3    H236972   2.380   0.713  15.687  1.2217  0.2326 -0.8938
 5161TIP3   OH236973   6.347   4.963  13.831  0.2451 -0.2100 -0.3615
 5161TIP3    H136974   6.414   4.937  13.767  0.6034 -1.8545  0.6028
 5161TIP3    H236975   6.301   5.036  13.790  1.4586 -0.2145 -1.8240
 5162TIP3   OH236976   2.447   6.573  10.484  0.4709  0.1177  0.4819
 5162TIP3    H136977   2.490   6.489  10.499  0.1656 -0.0516  0.4254
 5162TIP3    H236978   2.506   6.621  10.426  0.1804 -0.4474 -0.2928
 5163TIP3   OH236979   1.492   4.005  17.014  0.0948  0.1424  0.6170
 5163TIP3    H136980   1.567   3.950  16.995 -1.5424 -3.0267  2.4662
 5163TIP3    H236981   1.444   4.011  16.931  1.7248  1.3123 -0.3018
 5164TIP3   OH236982   1.127   3.975  13.902 -0.3133 -0.0217  1.1337
 5164TIP3    H136983   1.144   4.005  13.992  1.2148  0.4516  0.7124
 5164TIP3    H236984   1.034   3.995  13.887 -0.4642  0.3349  2.4329
 5165TIP3   OH236985   4.521   2.504  14.718  0.6954  0.5192 -0.2681
 5165TIP3    H136986   4.498   2.596  14.734  0.1774  0.2740  0.4770
 5165TIP3    H236987   4.616   2.503  14.715  0.7401  0.9626  0.5696
 5166TIP3   OH236988   2.187   4.122  15.493 -0.1600  0.3327 -0.4155
 5166TIP3    H136989   2.252   4.185  15.525 -1.2986  1.2323  0.2101
 5166TIP3    H236990   2.235   4.039  15.486  0.3235  0.1391  3.2741
 5167TIP3   OH236991   5.358   5.444  12.484 -0.0687  0.0824  0.2260
 5167TIP3    H136992   5.286   5.427  12.544  2.0986 -0.2493  2.9603
 5167TIP3    H236993   5.396   5.358  12.465 -0.0975  0.2841 -0.8241
 5168TIP3   OH236994   1.907   6.824   4.333  0.2098 -0.0280  0.1375
 5168TIP3    H136995   1.828   6.857   4.289  0.9233  1.4908 -0.0647
 5168TIP3    H236996   1.979   6.854   4.277  0.9756 -0.6808  0.7628
 5169TIP3   OH236997   6.520   0.642  14.029 -0.1824  0.1393  0.3967
 5169TIP3    H136998   6.455   0.615  14.094  1.6482 -0.3380  2.1015
 5169TIP3    H236999   6.560   0.720  14.065  1.0356 -0.2730 -0.0157
 5170TIP3   OH237000   2.728   1.085   6.271  0.7020  0.2595 -0.3654
 5170TIP3    H137001   2.720   1.154   6.205  3.4245  0.4326 -0.6062
 5170TIP3    H237002   2.816   1.094   6.305 -0.0729 -0.8930  2.1786
 5171TIP3   OH237003   4.464   3.416   4.499  0.0257 -0.2742  0.3644
 5171TIP3    H137004   4.549   3.403   4.457  1.1739  1.2293  2.0613
 5171TIP3    H237005   4.400   3.408   4.428  1.7044  0.1404 -1.2584
 5172TIP3   OH237006   3.093   3.256  15.107  0.0599  0.1888  0.0401
 5172TIP3    H137007   3.106   3.164  15.086 -0.4002  0.3408 -0.9625
 5172TIP3    H237008   3.166   3.278  15.165 -0.5868 -1.1367  1.4187
 5173TIP3   OH237009   3.120   4.296   5.230  0.2363 -0.3397  0.2832
 5173TIP3    H137010   3.068   4.217   5.243  0.0860 -0.5300 -1.3275
 5173TIP3    H237011   3.117   4.341   5.315  0.3399 -2.0434  1.2431
 5174TIP3   OH237012   5.565   4.754  15.079  0.0245  0.4099  0.3765
 5174TIP3    H137013   5.604   4.829  15.123 -0.9465  1.2349 -0.1303
 5174TIP3    H237014   5.492   4.790  15.029  0.1623 -0.7231 -0.7065
 5175TIP3   OH237015   6.635   5.412  10.936 -0.2856  0.7408 -0.2033
 5175TIP3    H137016   6.672   5.351  10.872  1.2783  0.5200  0.8759
 5175TIP3    H237017   6.617   5.491  10.886  3.5282  1.6001 -0.4812
 5176TIP3   OH237018   2.751   3.756   1.996 -0.2657 -0.0191 -0.0485
 5176TIP3    H137019   2.750   3.660   1.994 -0.5067 -0.0225  0.2358
 5176TIP3    H237020   2.703   3.782   1.918  0.0236 -0.1308 -0.2632
 5177TIP3   OH237021   0.381   4.114   5.854 -0.3340  0.4893 -0.0369
 5177TIP3    H137022   0.468   4.117   5.895 -0.7103  3.0820  0.7116
 5177TIP3    H237023   0.326   4.068   5.918  0.4327 -1.2477 -0.5513
 5178TIP3   OH237024   2.334   0.627   0.550  0.0516 -0.7433  0.1117
 5178TIP3    H137025   2.276   0.576   0.607 -1.4349 -1.3959 -1.8957
 5178TIP3    H237026   2.285   0.638   0.469  2.0564  0.2399 -1.0357
 5179TIP3   OH237027   4.833   2.351  16.650 -0.5698  0.3241 -0.0303
 5179TIP3    H137028   4.757   2.324  16.701 -0.1410 -2.7409 -0.7851
 5179TIP3    H237029   4.846   2.280  16.588  1.5951  1.8171 -1.4277
 5180TIP3   OH237030   1.681   0.659   6.281 -0.0564 -0.1623 -0.1853
 5180TIP3    H137031   1.617   0.605   6.327  1.0771 -0.8468  0.6359
 5180TIP3    H237032   1.746   0.597   6.248  1.2386  0.6555  0.7178
 5181TIP3   OH237033   4.090   4.552  11.235 -0.1435 -0.0404 -0.1943
 5181TIP3    H137034   4.094   4.570  11.329  2.8615  0.0981 -0.2395
 5181TIP3    H237035   4.044   4.469  11.228 -2.4370  1.0288  1.1520
 5182TIP3   OH237036   2.378   2.599  14.106 -0.3328  0.1024 -0.0273
 5182TIP3    H137037   2.331   2.527  14.148 -1.2759 -0.0452 -1.3028
 5182TIP3    H237038   2.310   2.652  14.065  0.5844 -0.1984 -2.0447
 5183TIP3   OH237039   3.051   0.956   3.905  0.5082 -0.2881  0.2518
 5183TIP3    H137040   3.094   0.959   3.820 -0.2451  2.2465 -0.1404
 5183TIP3    H237041   3.109   1.006   3.963  0.6930 -1.4256  1.0855
 5184TIP3   OH237042   6.215   5.633  14.813  0.0828 -0.3225  0.1889
 5184TIP3    H137043   6.255   5.601  14.893  0.3082  0.2262  0.2992
 5184TIP3    H237044   6.137   5.681  14.842  0.2343 -0.0152  0.0914
 5185TIP3   OH237045   3.319   5.890   5.298 -0.2086 -0.0481  0.2437
 5185TIP3    H137046   3.318   5.817   5.360 -0.2853  1.1509  1.7079
 5185TIP3    H237047   3.382   5.952   5.334  1.0291 -0.0153 -1.7933
 5186TIP3   OH237048   3.986   1.808  14.389 -0.1079  0.1543  0.0860
 5186TIP3    H137049   3.989   1.815  14.293 -0.6603 -4.5287 -0.5005
 5186TIP3    H237050   3.898   1.775  14.407  0.2115  0.3533  2.1533
 5187TIP3   OH237051   6.186   0.959  16.476 -0.0243 -0.3666 -0.8107
 5187TIP3    H137052   6.123   0.887  16.486  0.6017 -0.8570 -0.3061
 5187TIP3    H237053   6.255   0.939  16.539 -1.1740  2.1749  1.4296
 5188TIP3   OH237054   1.525   1.413  15.093  0.1882  0.1961 -0.3018
 5188TIP3    H137055   1.610   1.427  15.134  0.0884 -0.2884  0.0646
 5188TIP3    H237056   1.543   1.420  14.999  0.9886 -1.7745 -0.3343
 5189TIP3   OH237057   2.676   3.041   3.212 -0.3256  0.1199  0.4717
 5189TIP3    H137058   2.748   3.032   3.151 -0.7249  0.9884 -0.1472
 5189TIP3    H237059   2.610   3.092   3.165 -0.2198  1.7263  1.9543
 5190TIP3   OH237060   5.842   2.671  15.419  0.1387 -0.1125  0.9305
 5190TIP3    H137061   5.864   2.757  15.454 -0.2459 -0.4921  2.1493
 5190TIP3    H237062   5.759   2.649  15.461  0.1599 -1.0175  0.5209
 5191TIP3   OH237063   2.745   4.030   4.056  0.2471  0.1197  0.2902
 5191TIP3    H137064   2.775   4.118   4.034  0.8320  0.3812  1.9884
 5191TIP3    H237065   2.815   3.972   4.025  1.5964  0.5634  2.3019
 5192TIP3   OH237066   4.399   3.937   2.649  0.0571 -0.4180 -0.8800
 5192TIP3    H137067   4.459   4.011   2.642 -0.1762 -0.2757 -1.5110
 5192TIP3    H237068   4.332   3.955   2.583 -0.5020 -0.7366 -0.4051
 5193TIP3   OH237069   4.296   1.554   1.633  0.6551  0.2199  0.0714
 5193TIP3    H137070   4.262   1.642   1.644  1.2630  0.6069 -0.9785
 5193TIP3    H237071   4.389   1.566   1.616  0.5762 -0.5513 -1.0253
 5194TIP3   OH237072   6.691   2.348   4.620 -0.0720 -0.2849  0.0934
 5194TIP3    H137073   6.678   2.359   4.714  0.0955 -0.9147  0.1939
 5194TIP3    H237074   6.605   2.362   4.582 -0.5501 -1.8459  0.5174
 5195TIP3   OH237075   6.140   5.563   5.081 -0.2406 -0.6082 -0.2243
 5195TIP3    H137076   6.097   5.487   5.120  1.1362 -0.3239  1.9769
 5195TIP3    H237077   6.087   5.638   5.110  1.0630 -0.3514  1.6281
 5196TIP3   OH237078   0.522   1.731  16.483  0.0706 -0.1091 -0.3497
 5196TIP3    H137079   0.457   1.786  16.439 -0.5160 -0.2985  0.2778
 5196TIP3    H237080   0.602   1.784  16.482 -0.5241  0.8331  0.3908
 5197TIP3   OH237081   5.718   6.196   6.045  0.0240  0.9557  0.6439
 5197TIP3    H137082   5.681   6.121   5.997 -0.0436  1.0017  0.6237
 5197TIP3    H237083   5.764   6.157   6.119  0.6022  0.8506  0.2312
 5198TIP3   OH237084   5.560   3.044  11.298 -0.1075 -0.0720 -0.0557
 5198TIP3    H137085   5.620   2.970  11.308  1.1445  0.7136 -1.2338
 5198TIP3    H237086   5.576   3.075  11.208 -0.9685  1.2990  0.2341
 5199TIP3   OH237087   3.090   5.711  11.345 -0.4482 -0.2877  0.0028
 5199TIP3    H137088   3.079   5.625  11.305 -0.9349  0.4899 -1.6221
 5199TIP3    H237089   3.064   5.773  11.277  0.1859  1.1682  1.0258
 5200TIP3   OH237090   1.407   3.900  16.421  0.1246  0.1940  0.1453
 5200TIP3    H137091   1.472   3.869  16.359 -0.5961 -1.3347  0.1204
 5200TIP3    H237092   1.324   3.865  16.389 -0.2201 -0.9292  2.1217
 5201TIP3   OH237093   2.889   6.458  16.231 -0.4705 -0.1808  0.2429
 5201TIP3    H137094   2.827   6.440  16.302 -2.0471  0.7330 -0.8394
 5201TIP3    H237095   2.916   6.549  16.247  0.1034 -0.3712  0.3494
 5202TIP3   OH237096   6.733   4.114   2.258 -0.0777  0.2279  0.3515
 5202TIP3    H137097   6.820   4.092   2.224  0.3356  0.9595  0.9197
 5202TIP3    H237098   6.672   4.077   2.194  0.6463 -0.5715  0.1221
 5203TIP3   OH237099   2.924   5.542  14.478  0.0772 -0.3732  0.7949
 5203TIP3    H137100   2.843   5.519  14.523 -1.2215  0.8481 -0.7836
 5203TIP3    H237101   2.911   5.510  14.389  1.2936 -0.0650  0.4897
 5204TIP3   OH237102   3.050   2.514   0.890 -0.0235  0.1648 -0.2829
 5204TIP3    H137103   3.019   2.503   0.980 -1.4153  0.7603 -0.6582
 5204TIP3    H237104   3.127   2.457   0.884 -1.1997 -1.6184  0.6394
 5205TIP3   OH237105   1.886   6.300   6.759 -0.1808 -0.6806 -0.2110
 5205TIP3    H137106   1.968   6.254   6.744  1.5500  1.3358  2.3065
 5205TIP3    H237107   1.912   6.385   6.794 -3.3480  0.0765  0.6268
 5206TIP3   OH237108   6.512   1.920  15.795 -0.3837 -0.0231 -0.1722
 5206TIP3    H137109   6.455   1.991  15.825  0.8335  1.2024 -0.6683
 5206TIP3    H237110   6.469   1.886  15.717 -1.0608  0.0282  0.1662
 5207TIP3   OH237111   1.042   4.328  10.961 -0.3991 -0.3626  0.0938
 5207TIP3    H137112   1.088   4.382  11.025 -1.5959 -0.5790  1.1749
 5207TIP3    H237113   1.057   4.372  10.877 -1.3823  1.7080  0.9362
 5208TIP3   OH237114   5.033   6.675   4.311  0.7837  0.0524  0.1618
 5208TIP3    H137115   5.063   6.651   4.223  0.8175 -0.9960  0.4527
 5208TIP3    H237116   4.963   6.739   4.295  0.3363 -0.6219 -0.6530
 5209TIP3   OH237117   2.835   0.146   1.900 -0.3164  0.1950 -0.3986
 5209TIP3    H137118   2.822   0.052   1.912 -3.7779  0.0544 -3.2830
 5209TIP3    H237119   2.811   0.185   1.984  2.6300 -1.3920  1.3586
 5210TIP3   OH237120   2.746   4.142   2.883  0.0080  0.2042 -0.1398
 5210TIP3    H137121   2.728   4.135   2.976 -1.0053  0.1509 -0.3275
 5210TIP3    H237122   2.674   4.194   2.848  0.0110 -0.3368 -1.0002
 5211TIP3   OH237123   3.691   5.189  13.334 -0.3043 -0.4942 -0.3705
 5211TIP3    H137124   3.631   5.174  13.260 -1.0841 -1.2356  0.3839
 5211TIP3    H237125   3.658   5.269  13.375 -0.4500 -0.6058 -0.2694
 5212TIP3   OH237126   3.396   5.988  13.869  0.1614  0.3059  0.4281
 5212TIP3    H137127   3.323   6.035  13.829  1.4514  1.0402 -1.1852
 5212TIP3    H237128   3.376   5.989  13.962 -0.6551  2.7084  0.3164
 5213TIP3   OH237129   1.455   4.638  15.067  0.5646 -0.1521  0.4134
 5213TIP3    H137130   1.541   4.634  15.109  0.7181 -2.8835 -0.0062
 5213TIP3    H237131   1.473   4.623  14.974 -0.1520  2.1751 -0.1863
 5214TIP3   OH237132   3.180   3.321   5.859 -0.6114  0.3847  0.2349
 5214TIP3    H137133   3.198   3.227   5.852  0.9656  0.6555  0.2278
 5214TIP3    H237134   3.101   3.327   5.912 -2.5498 -1.0385 -2.3031
 5215TIP3   OH237135   0.451   6.324   4.842 -0.4370 -0.6655 -0.3524
 5215TIP3    H137136   0.431   6.330   4.748  1.0740 -0.0622 -0.6615
 5215TIP3    H237137   0.515   6.393   4.857  1.3252 -2.4025  0.5829
 5216TIP3   OH237138   5.921   0.294  15.124  0.1166  0.3134  0.0246
 5216TIP3    H137139   5.831   0.275  15.151  0.2618  0.3942  0.5762
 5216TIP3    H237140   5.975   0.247  15.188  0.4718  1.0305  0.2574
 5217TIP3   OH237141   3.733   2.893  17.005 -0.1190  0.4663 -0.3271
 5217TIP3    H137142   3.749   2.911  16.912  0.1649 -1.1399 -0.6279
 5217TIP3    H237143   3.807   2.933  17.050  0.6935 -0.2429 -0.9853
 5218TIP3   OH237144   2.595   0.003  14.213 -0.0895 -0.2849 -0.0251
 5218TIP3    H137145   2.646   0.081  14.189 -4.1198  2.4686 -0.6964
 5218TIP3    H237146   2.621  -0.063  14.150  2.8404  0.7536 -0.0499
 5219TIP3   OH237147   1.814   6.442   1.476  0.5151 -0.1220 -0.6216
 5219TIP3    H137148   1.894   6.403   1.440  0.7335 -0.1424 -0.1307
 5219TIP3    H237149   1.833   6.452   1.569  0.6913  1.6900 -0.8195
 5220TIP3   OH237150   4.307   5.858   4.819  0.1130 -0.7144  0.0586
 5220TIP3    H137151   4.315   5.951   4.797  1.0292 -0.9605 -0.7370
 5220TIP3    H237152   4.366   5.846   4.894  2.0855 -1.1350 -1.4634
 5221TIP3   OH237153   0.490   5.032   4.909  0.0418 -0.0679 -0.3966
 5221TIP3    H137154   0.420   5.012   4.971  0.9681  0.5967  0.9248
 5221TIP3    H237155   0.460   4.995   4.826 -0.5863 -2.3511  0.7503
 5222TIP3   OH237156   4.051   5.431  13.952  0.2761 -0.0697  0.3818
 5222TIP3    H137157   4.124   5.488  13.978  0.4569 -0.9732  1.9781
 5222TIP3    H237158   3.976   5.490  13.944  0.6760  0.5487  1.0376
 5223TIP3   OH237159   2.687   6.308   0.657 -0.3581  0.6052  0.0670
 5223TIP3    H137160   2.764   6.254   0.675 -0.6760  0.4451  1.0149
 5223TIP3    H237161   2.660   6.340   0.743 -2.0937 -0.3647 -0.0650
 5224TIP3   OH237162   6.089   2.643  16.143  0.4371 -0.5345 -0.5756
 5224TIP3    H137163   6.109   2.710  16.078  0.6576  0.0434  0.0706
 5224TIP3    H237164   6.163   2.644  16.203 -0.1694 -0.4233  0.1885
 5225TIP3   OH237165   3.195   3.554   5.658 -0.4336 -0.0181  0.9260
 5225TIP3    H137166   3.171   3.515   5.742 -0.9161  0.7813  1.1600
 5225TIP3    H237167   3.155   3.640   5.659  0.3271  0.3522  0.2530
 5226TIP3   OH237168   2.405   1.785   4.681  0.2846 -0.3547 -0.5976
 5226TIP3    H137169   2.311   1.772   4.693  0.2001  0.3995 -0.4361
 5226TIP3    H237170   2.435   1.702   4.642 -1.0319  0.6030 -3.9881
 5227TIP3   OH237171   0.334   5.253  12.089 -0.2535 -0.5279  0.1887
 5227TIP3    H137172   0.394   5.197  12.040 -0.7768 -0.9161 -0.0165
 5227TIP3    H237173   0.391   5.315  12.135  0.4271 -1.9018  1.2894
 5228TIP3   OH237174   2.606   1.833   1.298 -0.1259 -0.1073  0.0967
 5228TIP3    H137175   2.545   1.789   1.358 -0.1896  1.0110  0.8928
 5228TIP3    H237176   2.560   1.913   1.272  0.6038  0.2691 -0.0614
 5229TIP3   OH237177   3.006   4.258  16.469  0.2416 -0.3963 -0.4881
 5229TIP3    H137178   3.045   4.344  16.481  0.4172 -0.5531  0.0878
 5229TIP3    H237179   2.940   4.271  16.401  0.6990  0.0524 -0.8515
 5230TIP3   OH237180   3.190   3.559   1.079  0.2967  0.0861  0.0935
 5230TIP3    H137181   3.101   3.595   1.072  0.0360 -0.8201 -2.2379
 5230TIP3    H237182   3.183   3.471   1.042  2.0253 -0.3299  0.6449
 5231TIP3   OH237183   3.977   2.938   4.666  0.4013  0.4574  0.2538
 5231TIP3    H137184   3.920   3.014   4.678  0.0232  0.1029  0.7605
 5231TIP3    H237185   3.999   2.939   4.573 -0.6485  0.4522 -0.0076
 5232TIP3   OH237186   3.622   1.097   0.654  0.2721  0.1399 -0.1028
 5232TIP3    H137187   3.699   1.092   0.710 -0.7346  0.9082  1.4096
 5232TIP3    H237188   3.606   1.007   0.627  0.7048 -0.2777  0.9796
 5233TIP3   OH237189   0.835   2.166   5.211  0.0061  0.7224  0.1217
 5233TIP3    H137190   0.745   2.199   5.207 -0.4494 -0.5369 -0.9007
 5233TIP3    H237191   0.845   2.133   5.301 -1.2981 -0.9798 -0.2927
 5234TIP3   OH237192   0.427   4.022   0.558 -0.8215 -0.0070 -0.6849
 5234TIP3    H137193   0.425   3.948   0.619 -0.5860  1.0640  0.7025
 5234TIP3    H237194   0.513   4.016   0.516 -1.0136 -0.8093 -0.9640
 5235TIP3   OH237195   6.443   6.354  13.849 -0.1969 -0.3987 -0.0354
 5235TIP3    H137196   6.360   6.398  13.867  1.5385  3.1732  0.0956
 5235TIP3    H237197   6.488   6.353  13.934  0.8583 -0.0157 -0.5747
 5236TIP3   OH237198   0.678   0.304   5.048 -0.1432 -0.3311 -0.4274
 5236TIP3    H137199   0.602   0.273   5.096 -0.8340  2.7914  0.7200
 5236TIP3    H237200   0.753   0.271   5.097 -0.7997 -0.9409  0.1788
 5237TIP3   OH237201   5.287   2.867   3.941 -0.1967 -0.0356 -0.1869
 5237TIP3    H137202   5.298   2.961   3.954 -0.1119  0.3998 -2.9631
 5237TIP3    H237203   5.374   2.831   3.955 -0.2293  0.2703  0.8983
 5238TIP3   OH237204   4.288   1.153  12.600  0.2801 -0.1943 -0.4738
 5238TIP3    H137205   4.260   1.154  12.692  0.2909  0.1000 -0.4748
 5238TIP3    H237206   4.234   1.220  12.558  2.9696  2.5276  0.0827
 5239TIP3   OH237207   0.229   2.731  10.604 -0.3739  0.7603 -0.0511
 5239TIP3    H137208   0.240   2.647  10.558 -0.6873  0.2918  0.7168
 5239TIP3    H237209   0.305   2.783  10.577 -0.3271  0.3380 -0.7584
 5240TIP3   OH237210   6.301   0.803   0.012  0.1601 -0.3409  1.1405
 5240TIP3    H137211   6.307   0.775   0.103  2.3357  0.0348  1.1844
 5240TIP3    H237212   6.312   0.723  -0.039 -0.4199 -0.4655  1.2089
 5241TIP3   OH237213   1.906   5.364   4.834  0.3473  0.1852  0.3904
 5241TIP3    H137214   1.934   5.445   4.877  1.0366 -0.8106  1.8792
 5241TIP3    H237215   1.821   5.344   4.873  0.4396 -0.1127  0.4387
 5242TIP3   OH237216   6.808   5.067   1.514 -0.1429 -0.0315  0.1849
 5242TIP3    H137217   6.849   4.987   1.548 -0.6658 -0.1554  0.5228
 5242TIP3    H237218   6.792   5.121   1.591 -2.2240 -0.7181  0.2857
 5243TIP3   OH237219   6.444   1.635  16.543 -0.4297  0.2392 -0.7998
 5243TIP3    H137220   6.477   1.724  16.535 -1.3649  0.7510  0.4995
 5243TIP3    H237221   6.519   1.584  16.574  0.1962  0.4973 -1.8609
 5244TIP3   OH237222   3.805   0.001   1.979 -0.2894 -0.2493  0.2130
 5244TIP3    H137223   3.897  -0.006   1.957 -0.5185 -0.4397 -0.7274
 5244TIP3    H237224   3.785   0.094   1.973 -0.6412 -0.4041 -1.7320
 5245TIP3   OH237225   2.681   5.334  15.375 -0.2884  0.5070 -0.3273
 5245TIP3    H137226   2.636   5.418  15.364  0.1261  0.6740 -0.7680
 5245TIP3    H237227   2.761   5.342  15.324  1.8393  1.3603  2.8433
 5246TIP3   OH237228   0.920   0.470   5.002 -0.2021  0.2687 -0.0825
 5246TIP3    H137229   0.840   0.505   5.040  1.2357  0.7980  2.7514
 5246TIP3    H237230   0.928   0.383   5.041  0.1604 -0.1232 -1.0215
 5247TIP3   OH237231   4.369   2.228  11.289 -0.5702 -0.1539  0.0221
 5247TIP3    H137232   4.354   2.319  11.264 -0.7689 -0.2619 -0.2549
 5247TIP3    H237233   4.391   2.184  11.207  1.6746  0.0731  0.4383
 5248TIP3   OH237234   1.170   2.036   0.216 -0.0854  0.9668 -0.4506
 5248TIP3    H137235   1.124   2.091   0.152 -2.1690  0.5129  0.5557
 5248TIP3    H237236   1.133   1.949   0.204  0.1896  0.6741  0.7013
 5249TIP3   OH237237   0.829   2.853   4.226  0.3138 -0.1329 -0.4447
 5249TIP3    H137238   0.763   2.783   4.224  0.4831 -0.3079 -0.0354
 5249TIP3    H237239   0.880   2.839   4.146  1.0704 -1.2004  0.1905
 5250TIP3   OH237240   0.525   5.785  11.126  0.4175  0.0716  0.1511
 5250TIP3    H137241   0.590   5.741  11.181  0.8913 -0.4059 -0.7655
 5250TIP3    H237242   0.577   5.824  11.055 -0.1368  1.0497  0.2710
 5251TIP3   OH237243   0.060   0.798   1.315  0.7744 -0.1414 -0.3416
 5251TIP3    H137244   0.099   0.711   1.301  0.6815 -0.0738 -1.0832
 5251TIP3    H237245  -0.023   0.794   1.268  0.2461 -0.0138  0.5635
 5252TIP3   OH237246   2.469   4.008   4.803  0.2267  0.1289  0.7009
 5252TIP3    H137247   2.470   3.998   4.898 -0.3087 -0.9320  0.6031
 5252TIP3    H237248   2.492   3.922   4.769 -0.7247  0.1847 -0.1379
 5253TIP3   OH237249   5.619   5.137  14.348  0.3451 -0.3132 -0.3058
 5253TIP3    H137250   5.625   5.232  14.355  2.1070 -0.2772 -1.5463
 5253TIP3    H237251   5.589   5.108  14.434 -0.2160  1.3404  0.0929
 5254TIP3   OH237252   4.832   3.820  10.922 -0.0527  0.1765 -0.2153
 5254TIP3    H137253   4.745   3.808  10.961 -0.3675  1.6458 -0.4152
 5254TIP3    H237254   4.876   3.883  10.979  1.1253 -0.9565  0.2033
 5255TIP3   OH237255   1.216   1.163  14.796  0.3308 -0.4399 -0.3082
 5255TIP3    H137256   1.197   1.070  14.808  1.4383 -0.4474  1.7187
 5255TIP3    H237257   1.194   1.180  14.704  0.4272 -2.7688 -0.8199
 5256TIP3   OH237258   0.682   1.613  11.921  0.2542 -0.3527 -1.3152
 5256TIP3    H137259   0.777   1.606  11.922  0.1836 -1.3800 -0.3688
 5256TIP3    H237260   0.656   1.579  11.836  0.6482 -1.4846 -0.9986
 5257TIP3   OH237261   4.557   6.021   2.780 -0.4272 -0.1846  0.8401
 5257TIP3    H137262   4.547   6.042   2.687  1.3897 -1.1326  0.3739
 5257TIP3    H237263   4.486   5.960   2.799  1.1565 -2.8168 -0.9438
 5258TIP3   OH237264   0.191   4.565   6.718  0.1938  0.0985  0.2645
 5258TIP3    H137265   0.275   4.531   6.685  0.9788  2.2572 -0.0839
 5258TIP3    H237266   0.126   4.526   6.660  1.0000 -1.1049  0.1236
 5259TIP3   OH237267   3.775   4.646  13.831 -1.0830 -0.3091  0.6814
 5259TIP3    H137268   3.823   4.600  13.901  2.2654 -0.6074 -1.5585
 5259TIP3    H237269   3.813   4.734  13.830  0.7525 -0.9894 -2.1093
 5260TIP3   OH237270   2.582   5.140   4.437  0.2293 -0.5090  0.1390
 5260TIP3    H137271   2.566   5.069   4.499  1.6696 -0.2597  0.8492
 5260TIP3    H237272   2.601   5.216   4.492  0.9997 -0.1524 -0.6012
 5261TIP3   OH237273   2.976   3.233   3.231 -0.0663  0.7008 -0.4114
 5261TIP3    H137274   3.033   3.248   3.156  0.4052  0.0096 -0.2054
 5261TIP3    H237275   3.007   3.151   3.269  0.5244  1.6461  1.2682
 5262TIP3   OH237276   3.570   3.000   2.143 -0.7272 -0.1480 -0.4658
 5262TIP3    H137277   3.559   3.082   2.095  1.4311 -0.3135 -1.3821
 5262TIP3    H237278   3.631   3.022   2.214 -0.7496 -0.7871 -0.2362
 5263TIP3   OH237279   4.530   6.015   2.512 -0.3533  0.0143 -0.1794
 5263TIP3    H137280   4.606   6.008   2.456 -0.3384  0.2665 -0.1888
 5263TIP3    H237281   4.483   5.932   2.499 -0.9567  0.5215 -1.4377
 5264TIP3   OH237282   2.915   4.554  15.781 -0.5587 -0.2127 -0.1313
 5264TIP3    H137283   2.869   4.550  15.697  0.2060  1.4622 -0.6621
 5264TIP3    H237284   2.869   4.623  15.830 -0.7972 -0.9562  0.7219
 5265TIP3   OH237285   4.122   6.824  12.843 -0.4454 -0.6536  0.2346
 5265TIP3    H137286   4.084   6.869  12.768  1.4153 -0.1513 -0.4594
 5265TIP3    H237287   4.211   6.801  12.815 -0.6303 -2.9493  1.3120
 5266TIP3   OH237288   5.638   3.625  13.187 -0.1417 -0.1247 -0.0251
 5266TIP3    H137289   5.643   3.680  13.108  0.7187  0.4258  0.4004
 5266TIP3    H237290   5.595   3.680  13.252 -1.2130 -0.7209 -0.2171
 5267TIP3   OH237291   4.410   4.883   2.023  0.4178 -0.4907 -0.1040
 5267TIP3    H137292   4.477   4.826   1.987  0.0662 -0.4510 -0.8267
 5267TIP3    H237293   4.345   4.892   1.954  0.3927  0.6726  0.0443
 5268TIP3   OH237294   1.302   3.412  13.164 -0.1032 -0.1749 -0.2920
 5268TIP3    H137295   1.350   3.410  13.247 -0.9173 -0.0272  0.1901
 5268TIP3    H237296   1.303   3.321  13.133  2.3391  0.1434 -1.3969
 5269TIP3   OH237297   3.060   2.068  12.095  0.0244  0.1777 -0.4419
 5269TIP3    H137298   3.015   2.078  12.012 -1.5982  3.2134  0.6670
 5269TIP3    H237299   3.071   1.974  12.105 -1.1359 -0.3623 -3.3179
 5270TIP3   OH237300   0.286   2.482  10.496  0.5078  0.5472 -0.1967
 5270TIP3    H137301   0.238   2.446  10.570 -0.0739  1.7699  0.0466
 5270TIP3    H237302   0.293   2.410  10.434 -0.2935 -0.0806  0.4234
 5271TIP3   OH237303   1.169   5.152  14.708 -0.9622 -0.3710  0.5830
 5271TIP3    H137304   1.250   5.158  14.759 -1.5325  1.2556  1.3598
 5271TIP3    H237305   1.198   5.147  14.617  0.0415 -2.1266  0.9467
 5272TIP3   OH237306   0.081   5.665  16.714 -0.0014  0.3701  0.0246
 5272TIP3    H137307   0.122   5.751  16.712  0.3240  0.3483  2.4606
 5272TIP3    H237308   0.150   5.605  16.686  0.5785  0.6937  0.7139
 5273TIP3   OH237309   5.703   3.895  11.618  0.3330  0.4707 -0.0277
 5273TIP3    H137310   5.661   3.973  11.582 -1.5440 -0.8473 -0.8825
 5273TIP3    H237311   5.790   3.894  11.578  0.5388  2.2561  0.2678
 5274TIP3   OH237312   6.123   2.821  12.503  0.1542  0.0107  0.0799
 5274TIP3    H137313   6.183   2.889  12.472  0.4251  0.3960  1.4033
 5274TIP3    H237314   6.181   2.756  12.544 -0.0444 -1.3108 -1.6199
 5275TIP3   OH237315   0.563   2.644  12.681  0.0465 -0.3889 -0.7134
 5275TIP3    H137316   0.627   2.646  12.753 -0.6959  0.2046 -0.0607
 5275TIP3    H237317   0.610   2.601  12.610  1.2069  0.1023 -0.2726
 5276TIP3   OH237318   0.558   1.632   1.286  0.1990  0.3312  0.9870
 5276TIP3    H137319   0.500   1.652   1.213  0.3750  0.0435  0.7671
 5276TIP3    H237320   0.627   1.699   1.281  0.0061  0.5424  1.1201
 5277TIP3   OH237321   0.446   4.832   3.246  0.2651  0.4110  0.8212
 5277TIP3    H137322   0.370   4.818   3.190 -0.6665  0.1429  2.1077
 5277TIP3    H237323   0.485   4.745   3.256  0.7644  0.5488  0.1601
 5278TIP3   OH237324   4.891   0.599   0.341 -0.2752  0.1356 -0.1967
 5278TIP3    H137325   4.910   0.660   0.413  0.8449 -0.0927 -0.2892
 5278TIP3    H237326   4.830   0.535   0.380  0.5584 -0.1698  0.6552
 5279TIP3   OH237327   1.972   6.761  12.865 -0.2221  0.0495  0.2484
 5279TIP3    H137328   1.944   6.727  12.780  0.1727  1.7665 -0.6184
 5279TIP3    H237329   1.909   6.830  12.885 -2.1051 -2.2196  2.8473
 5280TIP3   OH237330   2.451   3.889  15.041 -0.6611 -0.3476 -0.1204
 5280TIP3    H137331   2.545   3.905  15.029 -0.5715  0.2965  1.2316
 5280TIP3    H237332   2.447   3.828  15.115 -1.3409  2.6893  2.6001
 5281TIP3   OH237333   5.396   1.588  13.847  0.2952  0.1003  0.4785
 5281TIP3    H137334   5.318   1.533  13.844  0.2907 -0.0247  2.0707
 5281TIP3    H237335   5.459   1.539  13.901  0.4043  1.4741  1.6788
 5282TIP3   OH237336   5.466   3.985  11.358  0.0332 -0.0141  0.5126
 5282TIP3    H137337   5.556   4.002  11.329 -0.4514 -0.2532 -1.2201
 5282TIP3    H237338   5.419   4.067  11.340 -0.3046 -0.2074  0.5062
 5283TIP3   OH237339   0.049   1.517   4.034 -0.6355 -0.3844 -0.2819
 5283TIP3    H137340   0.062   1.424   4.015  0.6858  0.0285 -1.5914
 5283TIP3    H237341   0.060   1.523   4.129 -1.0560 -1.5981 -0.1328
 5284TIP3   OH237342   1.673   3.921   1.577  0.2170  0.1447 -0.1152
 5284TIP3    H137343   1.729   3.933   1.500 -0.5492 -3.0490 -1.3189
 5284TIP3    H237344   1.585   3.912   1.541 -0.5019  0.8908  1.3835
 5285TIP3   OH237345   6.671   6.151   6.233  0.1904 -0.2012 -0.1941
 5285TIP3    H137346   6.730   6.197   6.293 -0.6976  1.2104 -0.3533
 5285TIP3    H237347   6.638   6.077   6.285  1.8326 -0.8491 -0.0143
 5286TIP3   OH237348   0.169   3.631   1.164  0.1430  0.5172  0.3358
 5286TIP3    H137349   0.256   3.660   1.193 -0.5453  1.6314  1.3536
 5286TIP3    H237350   0.119   3.621   1.244 -1.1557  1.4616 -0.3263
 5287TIP3   OH237351   4.224   1.857  12.006  0.3193  0.2837  0.2712
 5287TIP3    H137352   4.215   1.931  12.066  0.0898  0.9347 -0.5524
 5287TIP3    H237353   4.221   1.780  12.063 -1.9415  0.7815  0.9001
 5288TIP3   OH237354   2.246   4.907   1.973 -0.4401  0.0484  0.3478
 5288TIP3    H137355   2.222   4.820   2.006 -1.5891  0.4257  0.5281
 5288TIP3    H237356   2.341   4.903   1.964 -0.3303 -0.7956  1.6238
 5289TIP3   OH237357   2.008   2.542  11.597  0.4625  0.7064  0.3049
 5289TIP3    H137358   2.010   2.465  11.540  0.0671  0.7065  0.2843
 5289TIP3    H237359   1.944   2.600  11.555  0.6644  0.9905  0.3889
 5290TIP3   OH237360   1.736   2.668   1.953  0.6134 -0.4368 -0.0339
 5290TIP3    H137361   1.738   2.726   2.029 -1.5549 -0.7089  0.2881
 5290TIP3    H237362   1.819   2.620   1.958  0.6483 -0.2642  2.0325
 5291TIP3   OH237363   2.075   5.895  13.459 -0.5775  0.3477  0.2049
 5291TIP3    H137364   2.072   5.800  13.460 -0.4061  0.3379  1.5525
 5291TIP3    H237365   1.990   5.922  13.424 -0.6096 -0.2963 -0.2155
 5292TIP3   OH237366   4.284   6.348  14.265 -0.0151 -0.1753 -0.1515
 5292TIP3    H137367   4.367   6.305  14.287  0.0456 -1.7665 -2.9558
 5292TIP3    H237368   4.227   6.331  14.340  0.9742 -2.6513  0.1277
 5293TIP3   OH237369   4.217   5.852   0.225 -0.0176 -0.2274 -0.3007
 5293TIP3    H137370   4.289   5.853   0.289 -0.8277  0.0559  0.6204
 5293TIP3    H237371   4.196   5.945   0.212 -0.1380 -0.3061 -0.6751
 5294TIP3   OH237372   6.681   6.266   4.618 -0.7311  0.5040  0.0976
 5294TIP3    H137373   6.761   6.230   4.579 -0.3831 -0.1169  1.3289
 5294TIP3    H237374   6.652   6.198   4.679 -1.6460  1.1514  0.4018
 5295TIP3   OH237375   0.768   4.156  11.438  0.2088  0.0568 -0.5502
 5295TIP3    H137376   0.841   4.146  11.498 -0.8415  0.2598  0.8049
 5295TIP3    H237377   0.773   4.247  11.410  1.7172 -0.4619 -2.1978
 5296TIP3   OH237378   1.381   2.374   2.948  0.2823  0.4885  0.3880
 5296TIP3    H137379   1.370   2.414   2.861  0.6978  0.3644  0.2761
 5296TIP3    H237380   1.360   2.444   3.009 -0.7029  0.3805  0.1891
 5297TIP3   OH237381   1.903   4.307   2.052  0.5155 -0.3687 -0.0310
 5297TIP3    H137382   1.875   4.220   2.022  4.0951 -2.1683  1.2730
 5297TIP3    H237383   1.912   4.358   1.972  1.3078 -2.2166 -1.2054
 5298TIP3   OH237384   6.360   4.055  13.705 -0.2206  0.2396 -0.2198
 5298TIP3    H137385   6.333   4.001  13.630  1.4120  2.0666 -2.2710
 5298TIP3    H237386   6.305   4.133  13.698  0.5054  0.7745 -0.0260
 5299TIP3   OH237387   5.871   2.836  14.900 -0.3987  0.0368 -0.4825
 5299TIP3    H137388   5.869   2.893  14.976 -0.3920 -0.1000 -0.3787
 5299TIP3    H237389   5.826   2.884  14.831  1.2527  0.9980 -0.9654
 5300TIP3   OH237390   3.365   0.641  11.257 -0.4145 -0.1548  0.1608
 5300TIP3    H137391   3.443   0.666  11.207 -2.5503 -0.2992 -3.5704
 5300TIP3    H237392   3.359   0.546  11.246 -1.9021  0.0433 -0.9332
 5301TIP3   OH237393   4.490   5.914  16.612  0.0874 -0.5745  0.1114
 5301TIP3    H137394   4.521   5.918  16.521 -1.4165  0.1719 -0.3994
 5301TIP3    H237395   4.516   5.826  16.642  0.9942 -0.6648 -0.8780
 5302TIP3   OH237396   6.598   1.373  13.543  0.2000  0.3587 -0.2721
 5302TIP3    H137397   6.504   1.374  13.524 -0.0499 -1.5109  0.6079
 5302TIP3    H237398   6.635   1.318  13.475  0.3565 -0.4632  0.4607
 5303TIP3   OH237399   3.492   6.818   3.979  0.2799  0.4976 -0.0768
 5303TIP3    H137400   3.504   6.912   3.993  2.1263  0.1318  1.2540
 5303TIP3    H237401   3.433   6.790   4.049  0.4369  0.5506  0.0801
 5304TIP3   OH237402   2.860   1.937  13.234 -0.1907  0.1215 -0.0770
 5304TIP3    H137403   2.937   1.881  13.229  0.2056  0.7272 -1.2293
 5304TIP3    H237404   2.791   1.881  13.270  0.4542 -0.7990 -0.2483
 5305TIP3   OH237405   1.885   2.702  12.981  0.1264 -0.5486  0.3499
 5305TIP3    H137406   1.792   2.712  13.001  0.3105  2.4750  0.1403
 5305TIP3    H237407   1.897   2.750  12.900  2.4499  2.5515  2.3075
 5306TIP3   OH237408   2.620   0.061  15.454  0.2741 -0.5871 -0.3032
 5306TIP3    H137409   2.653   0.058  15.544 -0.5952 -0.5354  0.0194
 5306TIP3    H237410   2.612  -0.030  15.428  0.9864 -0.6016 -0.5126
 5307TIP3   OH237411   3.562   6.757   2.538 -0.2911 -0.0447  0.4128
 5307TIP3    H137412   3.477   6.731   2.504  0.4702 -1.7370 -0.2884
 5307TIP3    H237413   3.554   6.749   2.633 -0.6348 -1.1550  0.3045
 5308TIP3   OH237414   0.650   2.740   2.390 -0.1262 -0.3632  0.6497
 5308TIP3    H137415   0.741   2.738   2.418  0.0787 -1.7290 -0.0191
 5308TIP3    H237416   0.645   2.815   2.330  0.1594  0.6570  1.8493
 5309TIP3   OH237417   5.255   5.736   3.551 -0.0119  0.2343 -0.5384
 5309TIP3    H137418   5.307   5.758   3.473 -0.9678  1.5036 -0.8457
 5309TIP3    H237419   5.174   5.785   3.540 -0.0816  0.6047  1.3815
 5310TIP3   OH237420   0.241   0.221  11.507 -0.4367  0.4540 -0.5504
 5310TIP3    H137421   0.286   0.151  11.460 -1.6119 -0.5026 -0.3205
 5310TIP3    H237422   0.199   0.273  11.438  1.3527  1.6430 -0.7984
 5311TIP3   OH237423   3.946   1.399   6.059 -0.3547  0.1183 -0.0400
 5311TIP3    H137424   3.965   1.324   6.003 -1.2114  0.4855 -0.8449
 5311TIP3    H237425   3.977   1.475   6.009  0.9156  0.3041  0.9528
 5312TIP3   OH237426   2.287   0.018  14.298 -0.5481 -0.1728 -0.1642
 5312TIP3    H137427   2.382   0.031  14.293 -0.4924 -0.8085 -0.9602
 5312TIP3    H237428   2.258   0.019  14.207 -0.9754 -2.1388 -0.1013
 5313TIP3   OH237429   3.978   0.154   0.305  0.0690 -0.2064  0.4917
 5313TIP3    H137430   4.029   0.185   0.230  0.0409 -2.0727 -0.3451
 5313TIP3    H237431   4.036   0.092   0.350 -0.5581 -0.4561  0.9736
 5314TIP3   OH237432   2.373   5.301   2.620  0.5928 -0.5807  0.3136
 5314TIP3    H137433   2.396   5.318   2.712  0.0599  0.5105  0.2597
 5314TIP3    H237434   2.310   5.229   2.624  0.1615 -0.1858  0.8570
 5315TIP3   OH237435   2.253   3.712  14.287 -0.1691  0.5011 -0.0955
 5315TIP3    H137436   2.192   3.703  14.214  0.6752  1.1650 -0.9080
 5315TIP3    H237437   2.274   3.806  14.290  1.0635  0.2476 -0.0618
 5316TIP3   OH237438   6.648   2.225  11.267  0.2251  0.2397  0.1092
 5316TIP3    H137439   6.699   2.242  11.188 -0.4020  1.6661 -0.0331
 5316TIP3    H237440   6.593   2.150  11.244  1.7339 -0.8846  0.0440
 5317TIP3   OH237441   0.716   6.358  13.702 -0.3226 -0.2396  0.6752
 5317TIP3    H137442   0.804   6.328  13.719 -0.3610 -0.6698  0.1508
 5317TIP3    H237443   0.727   6.443  13.658 -0.1547 -0.5075  0.1943
 5318TIP3   OH237444   5.564   5.751   4.925 -0.4173  0.0124 -0.2735
 5318TIP3    H137445   5.653   5.720   4.908 -0.3200 -0.3664  0.7984
 5318TIP3    H237446   5.508   5.687   4.882 -0.1909 -1.0179  0.8908
 5319TIP3   OH237447   4.577   1.649  15.998 -0.1338 -0.7757 -0.1479
 5319TIP3    H137448   4.545   1.736  16.020  1.0584 -0.2817 -0.2571
 5319TIP3    H237449   4.501   1.593  16.003 -0.7150  0.0883  0.9873
 5320TIP3   OH237450   4.915   3.305  13.775 -0.4049  0.1401 -0.0302
 5320TIP3    H137451   4.883   3.347  13.854  0.5679  1.3785 -0.2700
 5320TIP3    H237452   4.926   3.213  13.800  0.8030  0.6786  1.5676
 5321TIP3   OH237453   1.268   3.184   1.852 -0.0195 -0.2301 -0.2850
 5321TIP3    H137454   1.310   3.185   1.765  0.2403  0.8130 -0.1623
 5321TIP3    H237455   1.332   3.226   1.910 -0.0574 -1.2037  0.4845
 5322TIP3   OH237456   1.686   0.932   1.419  0.1496 -0.3464  0.5892
 5322TIP3    H137457   1.664   1.017   1.380  0.0695 -0.0537  1.2573
 5322TIP3    H237458   1.686   0.871   1.345 -0.1787  0.1621  0.1605
 5323TIP3   OH237459   5.264   2.134  12.286  0.2413 -0.2068  0.2718
 5323TIP3    H137460   5.273   2.078  12.209  0.7238  0.0808  0.1103
 5323TIP3    H237461   5.279   2.223  12.252 -0.6029  0.0344  0.5066
 5324TIP3   OH237462   0.764   4.071  15.997 -0.1602  0.0933 -0.0360
 5324TIP3    H137463   0.830   4.098  15.934  0.9814  0.1917  1.1671
 5324TIP3    H237464   0.766   4.139  16.065  1.5204 -1.9800  2.1433
 5325TIP3   OH237465   0.717   1.281  16.848  0.2220  0.0987 -0.1024
 5325TIP3    H137466   0.712   1.375  16.830 -0.5540  0.5593  2.1108
 5325TIP3    H237467   0.693   1.274  16.941  0.9225 -2.2254 -0.0396
 5326TIP3   OH237468   0.257   5.336   4.489 -0.4252 -0.1619 -0.1917
 5326TIP3    H137469   0.314   5.332   4.412 -0.9138 -0.0298 -0.5659
 5326TIP3    H237470   0.210   5.419   4.480 -1.2379 -0.6239 -0.3000
 5327TIP3   OH237471   2.950   1.768   1.817  0.0777 -0.1912  0.4002
 5327TIP3    H137472   2.990   1.852   1.839  0.1339 -0.2387  0.4795
 5327TIP3    H237473   2.934   1.772   1.723 -2.4251  1.0088  0.8093
 5328TIP3   OH237474   0.926   5.602   2.686 -0.0164  0.2076 -0.1178
 5328TIP3    H137475   0.908   5.612   2.779  1.5225  1.2672  0.0961
 5328TIP3    H237476   1.002   5.544   2.682  0.1847  0.5033 -0.6948
 5329TIP3   OH237477   1.661   5.627   2.734 -0.2520 -0.1102  0.2507
 5329TIP3    H137478   1.731   5.684   2.768  0.0130 -0.2495 -0.0527
 5329TIP3    H237479   1.582   5.681   2.739  0.3540  1.1191 -2.1048
 5330TIP3   OH237480   1.717   6.581  15.470 -0.0393 -0.1150 -0.5769
 5330TIP3    H137481   1.710   6.491  15.503  1.8080 -0.1769 -0.2316
 5330TIP3    H237482   1.806   6.608  15.493 -0.7377  2.0341 -0.1639
 5331TIP3   OH237483   3.530   1.873   3.048 -0.6358 -0.1881  0.0797
 5331TIP3    H137484   3.594   1.805   3.067  0.0316  0.0763 -1.0942
 5331TIP3    H237485   3.466   1.831   2.989  0.2302  0.3871 -1.3141
 5332TIP3   OH237486   3.949   4.574   4.903 -1.1367 -0.0397  0.1109
 5332TIP3    H137487   4.041   4.555   4.917 -0.6169  1.4793 -1.0087
 5332TIP3    H237488   3.904   4.527   4.972  0.4221 -1.3046  0.3100
 5333TIP3   OH237489   6.154   4.567   5.926 -0.1679  0.2089 -0.1301
 5333TIP3    H137490   6.226   4.556   5.988  1.0443  1.7064 -1.1932
 5333TIP3    H237491   6.089   4.619   5.974 -1.7983 -3.1559  1.6945
 5334TIP3   OH237492   5.625   3.267   3.620  0.4488  0.1847 -0.6958
 5334TIP3    H137493   5.605   3.358   3.600 -0.8223  0.1382  0.2515
 5334TIP3    H237494   5.602   3.219   3.540 -1.8264  0.3439 -0.1954
 5335TIP3   OH237495   3.615   2.042   5.812  0.0997  0.0979  0.2589
 5335TIP3    H137496   3.572   2.062   5.729  0.4688  1.1714  0.3128
 5335TIP3    H237497   3.701   2.007   5.787  1.1504  2.5797  0.1656
 5336TIP3   OH237498   1.843   2.473  12.789 -0.0732 -0.1214 -0.1899
 5336TIP3    H137499   1.809   2.558  12.760  0.5125  0.0146 -0.4895
 5336TIP3    H237500   1.926   2.494  12.832  0.1952 -0.5716 -0.4900
 5337TIP3   OH237501   2.643   4.181  13.944 -0.4208 -0.1447  0.0868
 5337TIP3    H137502   2.691   4.191  14.027  0.3645  1.7178 -0.5200
 5337TIP3    H237503   2.684   4.106  13.901  0.7030  0.2633  0.4102
 5338TIP3   OH237504   2.052   4.460  15.656  0.9135  0.4289 -0.4415
 5338TIP3    H137505   2.118   4.503  15.712  0.6562 -1.9110  1.8207
 5338TIP3    H237506   2.104   4.417  15.588  1.7223 -0.5971  0.7685
 5339TIP3   OH237507   4.105   1.655  14.570  0.3549 -0.1009 -0.0593
 5339TIP3    H137508   4.083   1.692  14.484 -0.7664  0.1641  0.3254
 5339TIP3    H237509   4.155   1.724  14.614  0.8918 -0.2184 -0.4640
 5340TIP3   OH237510   2.503   3.587   5.064  0.2363 -0.0390 -0.2072
 5340TIP3    H137511   2.492   3.543   4.979 -2.3955 -0.5743  0.3288
 5340TIP3    H237512   2.520   3.678   5.041  2.7484 -0.6937 -1.2947
 5341TIP3   OH237513   2.344   0.980  11.171  0.8088 -0.2714  0.0098
 5341TIP3    H137514   2.426   0.995  11.124 -0.1043  0.2092 -1.5312
 5341TIP3    H237515   2.353   1.030  11.252  2.2972 -0.8026  0.1994
 5342TIP3   OH237516   2.034   1.921  13.468  0.0273 -0.3814  0.2169
 5342TIP3    H137517   1.974   1.995  13.481  1.5680  0.9929 -0.2718
 5342TIP3    H237518   2.057   1.924  13.376 -0.6153 -2.0959 -0.0425
 5343TIP3   OH237519   2.225   4.181   5.753 -0.0421  0.0575 -0.2935
 5343TIP3    H137520   2.288   4.134   5.698  2.6455  0.8984  1.8150
 5343TIP3    H237521   2.180   4.113   5.803  0.9268 -0.4843 -0.1351
 5344TIP3   OH237522   1.481   0.432  17.195 -0.1275  0.6702 -0.0688
 5344TIP3    H137523   1.574   0.455  17.199 -0.5986  2.6206  1.6216
 5344TIP3    H237524   1.440   0.487  17.263 -2.2922 -1.2127  0.2793
 5345TIP3   OH237525   2.070   4.855  11.059  0.0431  0.3436 -0.3826
 5345TIP3    H137526   2.034   4.844  11.147 -2.5137 -0.0166 -1.3870
 5345TIP3    H237527   2.042   4.942  11.031 -0.9993 -0.3360 -1.5765
 5346TIP3   OH237528   0.408   4.750  13.193  0.3555 -0.2056 -0.1567
 5346TIP3    H137529   0.338   4.694  13.227  0.8350 -0.4826  0.3943
 5346TIP3    H237530   0.366   4.802  13.124 -0.5326  0.0350  0.5457
 5347TIP3   OH237531   1.406   1.006  12.669 -0.0344 -0.1469  0.3407
 5347TIP3    H137532   1.324   0.998  12.620  1.2508 -1.1434 -1.7579
 5347TIP3    H237533   1.428   0.916  12.693 -1.4522  0.3820  4.3825
 5348TIP3   OH237534   5.223   3.884   5.249  0.2359 -0.0672  0.0628
 5348TIP3    H137535   5.266   3.861   5.331  1.0389  0.7941 -0.0958
 5348TIP3    H237536   5.136   3.916   5.275  0.5144  0.2731  0.5757
 5349TIP3   OH237537   2.753   6.687  15.001  0.5194  0.0147 -0.1576
 5349TIP3    H137538   2.743   6.728  14.915  1.3737  2.0604  0.6554
 5349TIP3    H237539   2.670   6.702  15.045  0.8338  0.9979  0.1442
 5350TIP3   OH237540   2.073   3.525  15.745  0.7469  0.8336 -0.2566
 5350TIP3    H137541   2.010   3.598  15.740  0.8182  0.9776  0.7623
 5350TIP3    H237542   2.147   3.561  15.793  1.3218  0.4500 -0.8420
 5351TIP3   OH237543   5.107   3.331  13.375 -0.4998  0.1562  0.0866
 5351TIP3    H137544   5.131   3.239  13.365  0.6167  0.1440  2.2724
 5351TIP3    H237545   5.038   3.345  13.310 -1.5941 -2.5574  0.5202
 5352TIP3   OH237546   3.998   2.032   6.007  0.2639  0.1771 -0.1121
 5352TIP3    H137547   4.036   2.087   6.076  0.0493  1.8596 -1.2926
 5352TIP3    H237548   4.072   2.004   5.955  0.2631  0.2764 -0.1667
 5353TIP3   OH237549   4.998   0.032   1.404 -0.0236 -0.1129  0.5881
 5353TIP3    H137550   5.082   0.077   1.405  1.7468 -3.0599 -0.6912
 5353TIP3    H237551   4.983   0.007   1.495 -0.7920  2.4079  1.2294
 5354TIP3   OH237552   4.328   2.911   3.665 -0.3794  0.2056  0.0166
 5354TIP3    H137553   4.341   2.938   3.574  0.7911  1.3561  0.4843
 5354TIP3    H237554   4.371   2.980   3.716  1.1208 -1.6173  1.3611
 5355TIP3   OH237555   3.012   1.493   1.509 -0.0097  0.4666  0.2014
 5355TIP3    H137556   2.996   1.577   1.465  0.7498  0.5957  0.1579
 5355TIP3    H237557   3.089   1.509   1.564  0.7996 -0.4831 -0.6040
 5356TIP3   OH237558   0.859   5.088  10.996 -0.6152  0.1008 -0.3281
 5356TIP3    H137559   0.865   5.151  10.924 -1.1268  1.0499  0.4303
 5356TIP3    H237560   0.938   5.035  10.989 -0.9644 -0.2644 -1.9793
 5357TIP3   OH237561   4.640   2.939   0.034 -0.0025  0.1868 -0.3540
 5357TIP3    H137562   4.729   2.971   0.019  0.1534 -0.4834 -0.9350
 5357TIP3    H237563   4.597   3.008   0.085  0.0759  1.6746 -2.2125
 5358TIP3   OH237564   0.013   0.789   1.682 -0.2195  0.0865  0.6092
 5358TIP3    H137565   0.087   0.812   1.738 -0.3659  2.4167 -0.0474
 5358TIP3    H237566   0.050   0.729   1.618  0.5629 -0.5176  1.5970
 5359TIP3   OH237567   2.791   6.720   4.802 -0.3989  0.1692 -0.1153
 5359TIP3    H137568   2.847   6.649   4.834 -0.0400  0.4633 -0.0879
 5359TIP3    H237569   2.713   6.715   4.857 -0.6177 -0.5543 -0.4728
 5360TIP3   OH237570   2.805   4.553  13.544  0.3847 -0.7546 -0.0270
 5360TIP3    H137571   2.835   4.608  13.617  0.8170 -1.5669  0.4280
 5360TIP3    H237572   2.834   4.465  13.567  0.7283 -0.9979 -1.2922
 5361TIP3   OH237573   2.356   5.984  13.428  0.2726 -0.5019 -0.5985
 5361TIP3    H137574   2.405   5.909  13.461  0.9422 -1.6905 -3.9155
 5361TIP3    H237575   2.265   5.966  13.452  0.9220  0.3709  3.2026
 5362TIP3   OH237576   5.298   2.814   4.485  0.3057 -0.2749  0.4255
 5362TIP3    H137577   5.333   2.856   4.563 -0.9678  1.2591  0.2347
 5362TIP3    H237578   5.374   2.797   4.430  1.2650 -1.7423  2.1267
 5363TIP3   OH237579   0.111   0.078  15.679  0.0301 -0.0619  0.2045
 5363TIP3    H137580   0.135   0.062  15.588 -0.8333 -0.7024  0.0710
 5363TIP3    H237581   0.177   0.032  15.730  0.8282  0.7525 -0.0794
 5364TIP3   OH237582   5.305   4.287  15.716  0.4690 -0.0921 -0.3801
 5364TIP3    H137583   5.210   4.282  15.707 -0.0193 -0.2890  3.3810
 5364TIP3    H237584   5.327   4.378  15.695 -0.8285  0.4226  0.4039
 5365TIP3   OH237585   0.142   3.932  17.036  0.0519  0.1745  0.3394
 5365TIP3    H137586   0.091   3.922  17.116  0.5785 -0.3830  0.6182
 5365TIP3    H237587   0.129   4.023  17.010 -1.7967 -0.1820 -0.1031
 5366TIP3   OH237588   6.244   2.560  12.847  1.1350 -0.0365 -0.2147
 5366TIP3    H137589   6.248   2.472  12.883  2.6365 -0.4226 -1.2623
 5366TIP3    H237590   6.334   2.593  12.853  1.2497  0.2652 -2.5937
 5367TIP3   OH237591   3.875   0.034   5.926 -0.8001  0.0066  0.4988
 5367TIP3    H137592   3.853   0.006   6.015  1.5761 -1.5338  0.6903
 5367TIP3    H237593   3.928   0.113   5.938 -0.7511 -0.0182  0.4481
 5368TIP3   OH237594   4.821   4.293   4.866 -0.3287  0.0649 -0.2362
 5368TIP3    H137595   4.732   4.329   4.859 -0.5536 -0.4534 -0.1226
 5368TIP3    H237596   4.848   4.313   4.956 -0.4547 -0.0617 -0.1709
 5369TIP3   OH237597   6.421   1.706  11.410  0.2373  0.4862 -0.0171
 5369TIP3    H137598   6.404   1.777  11.471  0.3238  0.9473 -0.5269
 5369TIP3    H237599   6.474   1.745  11.341 -1.2517  0.4048 -1.2627
 5370TIP3   OH237600   2.254   0.762  11.863  0.1656 -0.2074 -0.3007
 5370TIP3    H137601   2.300   0.845  11.862 -0.1126 -0.0076  1.2054
 5370TIP3    H237602   2.164   0.784  11.887  0.1745 -0.9739  0.4885
 5371TIP3   OH237603   6.061   2.942   5.160 -0.1480  0.2052 -0.2427
 5371TIP3    H137604   6.005   2.927   5.236 -0.2643  0.7163 -0.2215
 5371TIP3    H237605   6.127   3.004   5.191  1.5006 -1.6979  0.2259
 5372TIP3   OH237606   2.861   4.686  14.687 -0.3524 -0.5140 -0.4758
 5372TIP3    H137607   2.929   4.729  14.635 -1.2405  2.0590  0.3685
 5372TIP3    H237608   2.854   4.739  14.766 -0.9320 -2.7697  1.0931
 5373TIP3   OH237609   3.848   3.676  16.254 -0.0425  0.2918  0.2493
 5373TIP3    H137610   3.919   3.614  16.240 -0.8915 -0.8403  0.8026
 5373TIP3    H237611   3.789   3.632  16.314  0.0114  2.2040  1.8167
 5374TIP3   OH237612   5.311   4.217  14.916 -0.0852 -0.1680  0.0512
 5374TIP3    H137613   5.312   4.223  15.012  0.0947 -0.5683  0.0762
 5374TIP3    H237614   5.403   4.226  14.890  0.0727 -1.5975  0.0257
 5375TIP3   OH237615   2.254   1.066  14.424 -0.1996 -0.4545  0.0174
 5375TIP3    H137616   2.262   0.987  14.477  0.1880  0.3963  1.2744
 5375TIP3    H237617   2.341   1.077  14.384 -0.2656 -0.6690 -0.1913
 5376TIP3   OH237618   4.431   6.230  16.876 -0.0875  0.4498 -0.2788
 5376TIP3    H137619   4.423   6.282  16.956 -0.0111  0.4672 -0.2824
 5376TIP3    H237620   4.482   6.285  16.816  1.3529 -0.2468  0.2560
 5377TIP3   OH237621   6.708   5.771  12.898  0.3330 -0.1227 -0.3291
 5377TIP3    H137622   6.651   5.848  12.889  0.8164  0.1914 -0.8117
 5377TIP3    H237623   6.699   5.745  12.989 -1.0731 -0.4693 -0.5463
 5378TIP3   OH237624   4.501   2.603  11.659  0.0951  0.1718  0.6712
 5378TIP3    H137625   4.481   2.678  11.603 -0.3803 -0.4618 -0.0294
 5378TIP3    H237626   4.594   2.611  11.677  0.5546 -0.2938 -1.2721
 5379TIP3   OH237627   0.123   2.457   0.964  0.2066 -0.3458 -0.4721
 5379TIP3    H137628   0.114   2.376   0.914  0.5112  0.9490 -2.7789
 5379TIP3    H237629   0.180   2.512   0.910 -0.9650  1.8523  0.4139
 5380TIP3   OH237630   5.827   6.667   1.852 -0.6524 -0.2672 -0.0089
 5380TIP3    H137631   5.868   6.618   1.923 -0.1962 -1.2456 -0.9225
 5380TIP3    H237632   5.753   6.713   1.894  0.8827  0.9606  1.5278
 5381TIP3   OH237633   3.801   5.931  13.358 -0.0607 -0.4602  0.0825
 5381TIP3    H137634   3.739   5.880  13.305  0.3650 -1.3266  0.3966
 5381TIP3    H237635   3.869   5.868  13.383  2.2893  0.9672 -2.2349
 5382TIP3   OH237636   3.122   2.768   0.771  0.1192 -0.3188  0.0780
 5382TIP3    H137637   3.097   2.692   0.824 -0.8622  0.7856  1.2611
 5382TIP3    H237638   3.124   2.841   0.833 -1.8179  1.1741 -1.5045
 5383TIP3   OH237639   1.340   1.173   2.455 -0.0788 -0.3564 -0.3042
 5383TIP3    H137640   1.363   1.150   2.546  0.3880  0.2315 -0.2704
 5383TIP3    H237641   1.416   1.146   2.404  0.0015  0.0711 -0.4114
 5384TIP3   OH237642   2.722   0.615  12.462 -0.1355  0.1627  0.3624
 5384TIP3    H137643   2.801   0.576  12.499  0.3724 -0.9269 -1.7288
 5384TIP3    H237644   2.651   0.558  12.491  0.2286 -0.5595 -0.1501
 5385TIP3   OH237645   3.472   3.584  16.862 -0.0314 -0.2348  0.6008
 5385TIP3    H137646   3.512   3.670  16.867 -0.8437  0.2348 -0.6917
 5385TIP3    H237647   3.381   3.598  16.886 -0.2962 -0.6318 -0.1357
 5386TIP3   OH237648   6.326   6.264   4.919 -0.1461  0.0372  0.3965
 5386TIP3    H137649   6.343   6.185   4.868 -1.8225 -3.5296  4.6997
 5386TIP3    H237650   6.413   6.301   4.935  0.9840 -2.3116  0.1312
 5387TIP3   OH237651   5.247   0.910  12.996  0.2218  0.5356  0.3709
 5387TIP3    H137652   5.214   0.824  13.022  1.5886 -0.3168 -0.5742
 5387TIP3    H237653   5.325   0.924  13.050  1.3805  0.0687 -1.1116
 5388TIP3   OH237654   1.257   2.960  15.460 -0.3610 -0.0939 -0.0613
 5388TIP3    H137655   1.322   2.907  15.505  1.1661  0.8119 -1.0968
 5388TIP3    H237656   1.182   2.901  15.447  1.6967 -2.4232 -2.2411
 5389TIP3   OH237657   0.450   1.064  12.141 -0.0641  0.0016  0.4387
 5389TIP3    H137658   0.458   1.011  12.062 -0.5302  0.8747 -0.2106
 5389TIP3    H237659   0.516   1.029  12.201  0.5043 -0.4688 -0.4474
 5390TIP3   OH237660   5.999   1.375   1.768  0.2408 -0.1973  0.3322
 5390TIP3    H137661   6.090   1.374   1.797  0.1887 -2.0702  0.5491
 5390TIP3    H237662   5.954   1.318   1.830 -1.0135  0.3925 -0.0119
 5391TIP3   OH237663   1.939   6.809   6.701 -0.5514 -0.0872  0.2006
 5391TIP3    H137664   1.972   6.898   6.712 -1.4807  0.5817 -1.9481
 5391TIP3    H237665   1.899   6.808   6.614  0.2738 -2.8832 -0.2595
 5392TIP3   OH237666   0.473   2.481  13.095  0.0417  0.1010  0.1871
 5392TIP3    H137667   0.438   2.468  13.007  1.4834  0.5070 -0.4804
 5392TIP3    H237668   0.472   2.394  13.135  1.0795 -0.4503 -0.9141
 5393TIP3   OH237669   0.221   5.204  15.231 -0.0630 -0.0967 -0.0858
 5393TIP3    H137670   0.232   5.178  15.140 -1.1590 -1.8068  0.2173
 5393TIP3    H237671   0.294   5.263  15.249  0.9098 -0.7561 -1.7019
 5394TIP3   OH237672   2.275   4.165   5.072  0.2821  0.2105  0.3491
 5394TIP3    H137673   2.239   4.084   5.036  0.5812 -0.6274  1.8402
 5394TIP3    H237674   2.366   4.144   5.091 -0.2645  0.0105  3.1251
 5395TIP3   OH237675   0.876   2.831  13.537  0.3852 -0.3408 -0.1823
 5395TIP3    H137676   0.970   2.845  13.552  0.1684  3.6160 -1.2322
 5395TIP3    H237677   0.838   2.829  13.624  1.1535  1.7833  0.2642
 5396TIP3   OH237678   2.761   2.091   0.769  0.2213 -0.0533  0.3276
 5396TIP3    H137679   2.704   2.087   0.692 -1.1456  1.5449  1.2037
 5396TIP3    H237680   2.835   2.145   0.741 -0.4218  0.7804  0.2201
 5397TIP3   OH237681   5.346   6.491   0.175 -0.0718  0.2561  0.0366
 5397TIP3    H137682   5.285   6.426   0.210 -0.3067  0.0448 -0.7539
 5397TIP3    H237683   5.432   6.451   0.184 -0.2238 -0.2130 -0.5271
 5398TIP3   OH237684   2.114   0.339   4.838  0.1920  0.1839 -0.5396
 5398TIP3    H137685   2.131   0.286   4.760  1.2903  0.0914 -0.2612
 5398TIP3    H237686   2.187   0.318   4.896 -0.8204 -0.0411  0.6790
 5399TIP3   OH237687   2.624   2.954   2.873 -0.0061 -0.5336 -0.1539
 5399TIP3    H137688   2.550   2.923   2.821 -0.6662 -0.2809  0.5961
 5399TIP3    H237689   2.583   2.999   2.947  0.9065  0.0623  0.0097
 5400TIP3   OH237690   2.246   2.107  14.093 -0.6014  0.1807 -0.2469
 5400TIP3    H137691   2.159   2.097  14.054 -0.0733 -0.7772 -1.2502
 5400TIP3    H237692   2.301   2.045  14.044  0.7453  1.1004  0.0503
 5401TIP3   OH237693   0.037   6.084  16.954  0.1468 -0.3688 -0.2309
 5401TIP3    H137694   0.066   6.139  16.882  3.3112  0.4474  1.4683
 5401TIP3    H237695  -0.044   6.125  16.985  0.0559  0.6822 -1.7616
 5402TIP3   OH237696   1.262   3.496  15.973 -1.1806  0.0764  0.2193
 5402TIP3    H137697   1.320   3.532  15.907  1.3568 -1.4828  1.4256
 5402TIP3    H237698   1.210   3.430  15.926  0.0113 -0.4511 -0.4027
 5403TIP3   OH237699   6.421   4.864   1.518  0.1416 -0.0561  0.6060
 5403TIP3    H137700   6.465   4.823   1.592 -1.4829  0.3909  1.8981
 5403TIP3    H237701   6.466   4.948   1.506  0.6424 -0.2894  0.8484
 5404TIP3   OH237702   4.669   2.731   0.224 -0.4441 -0.1764  0.4972
 5404TIP3    H137703   4.708   2.664   0.168  0.0673  0.0079  0.6237
 5404TIP3    H237704   4.657   2.806   0.166  0.4752  0.1572  0.7139
 5405TIP3   OH237705   2.612   4.310   5.884 -0.1010  0.1569 -0.0350
 5405TIP3    H137706   2.702   4.277   5.892 -0.6576 -1.3513  0.3870
 5405TIP3    H237707   2.603   4.373   5.955  0.5785  0.2118  0.0095
 5406TIP3   OH237708   2.610   3.007  14.242  0.1335  0.0072  0.7796
 5406TIP3    H137709   2.615   2.912  14.250  0.3536 -0.2590 -1.8335
 5406TIP3    H237710   2.700   3.037  14.256  0.4236 -0.3670 -0.2046
 5407TIP3   OH237711   2.383   6.488   3.074 -0.4209 -0.7953  0.5370
 5407TIP3    H137712   2.466   6.468   3.032 -0.1741 -2.0587  1.5620
 5407TIP3    H237713   2.378   6.584   3.073  0.4883 -0.7404 -0.5625
 5408TIP3   OH237714   3.648   1.203   3.518 -0.0043  0.4173 -0.1235
 5408TIP3    H137715   3.640   1.115   3.555 -0.7401  0.7124  0.4401
 5408TIP3    H237716   3.561   1.222   3.483 -0.3504  1.5894  1.2912
 5409TIP3   OH237717   6.397   0.660   0.245  0.5075 -0.6436 -0.1007
 5409TIP3    H137718   6.329   0.611   0.291 -0.0052  1.4133  1.5037
 5409TIP3    H237719   6.474   0.652   0.301  0.6913 -0.4162 -0.3185
 5410TIP3   OH237720   4.447   6.174   6.564 -0.6698 -0.4028 -1.0124
 5410TIP3    H137721   4.529   6.154   6.519  1.7382  1.2197  2.2175
 5410TIP3    H237722   4.427   6.094   6.614  0.9179  0.1997  0.7315
 5411TIP3   OH237723   4.308   1.072  13.590  0.8828  0.5750 -0.4453
 5411TIP3    H137724   4.371   1.001  13.582  1.0646  0.7344 -0.4377
 5411TIP3    H237725   4.341   1.126  13.661  0.4436  0.3638 -0.0770
 5412TIP3   OH237726   1.261   3.101   0.361  0.1925 -0.1806 -0.1579
 5412TIP3    H137727   1.342   3.062   0.393  1.9666  1.4985 -2.2901
 5412TIP3    H237728   1.266   3.091   0.266 -1.9882  0.2468 -0.3684
 5413TIP3   OH237729   3.459   0.439   4.433 -0.2018  0.0520 -0.1295
 5413TIP3    H137730   3.542   0.407   4.470  0.4663  0.8463 -0.8789
 5413TIP3    H237731   3.394   0.376   4.462  0.8005 -1.0539 -0.1844
 5414TIP3   OH237732   2.274   0.025   2.561  0.2406 -0.3504  0.0742
 5414TIP3    H137733   2.205   0.041   2.496 -0.0760 -2.2071 -0.1174
 5414TIP3    H237734   2.348  -0.008   2.510  1.0688  1.0354  0.3519
 5415TIP3   OH237735   6.354   2.468  11.820  0.6298 -0.2865 -0.1126
 5415TIP3    H137736   6.449   2.460  11.826  0.7409  1.2741  0.9599
 5415TIP3    H237737   6.336   2.558  11.848 -1.2242 -0.7749  0.4184
 5416TIP3   OH237738   1.048   4.497  12.507 -0.2795 -0.0306 -0.0782
 5416TIP3    H137739   1.041   4.540  12.422  3.7485  0.5897 -0.2511
 5416TIP3    H237740   1.022   4.564  12.570  1.8964  1.3711 -0.5931
 5417TIP3   OH237741   1.106   1.896  16.999  0.4522 -0.1291 -0.4138
 5417TIP3    H137742   1.178   1.843  17.033 -0.3969 -1.8582 -1.1674
 5417TIP3    H237743   1.078   1.850  16.920 -0.8465  1.0535 -0.6779
 5418TIP3   OH237744   3.636   1.587  14.194 -0.6193  0.8069  0.1461
 5418TIP3    H137745   3.585   1.581  14.113  1.0149 -0.1098 -0.8739
 5418TIP3    H237746   3.709   1.526  14.181 -0.4133  0.4798  2.4073
 5419TIP3   OH237747   0.057   1.326   0.683 -0.0068 -0.5664 -0.0060
 5419TIP3    H137748   0.130   1.321   0.621 -0.7496  0.9699 -1.0429
 5419TIP3    H237749  -0.021   1.331   0.628 -0.8547 -1.2573  1.0905
 5420TIP3   OH237750   4.996   0.881  16.606 -0.4942 -0.3130 -0.1339
 5420TIP3    H137751   4.923   0.879  16.669 -0.2935 -1.8553  0.0829
 5420TIP3    H237752   5.037   0.795  16.614  1.1446  0.3972 -0.5216
 5421TIP3   OH237753   0.907   1.659  12.049 -0.5613 -0.0823 -0.1112
 5421TIP3    H137754   0.980   1.711  12.015  0.1604  0.4682  2.1348
 5421TIP3    H237755   0.903   1.680  12.142 -1.1081 -2.9982  0.6414
 5422TIP3   OH237756   6.357   6.779  16.396 -0.5074  0.4122  0.1790
 5422TIP3    H137757   6.349   6.867  16.358  1.1683  0.6357  0.2859
 5422TIP3    H237758   6.416   6.732  16.337 -1.9170 -0.8971 -0.2573
 5423TIP3   OH237759   6.381   4.829  10.538 -0.0010  0.0136  0.5809
 5423TIP3    H137760   6.381   4.735  10.519 -0.7885  0.7830 -4.9188
 5423TIP3    H237761   6.469   4.858  10.514 -1.0290  1.1160 -2.3391
 5424TIP3   OH237762   1.378   2.820   4.278  0.4213 -0.1873 -0.6949
 5424TIP3    H137763   1.388   2.759   4.351  0.1480  0.6877  0.1020
 5424TIP3    H237764   1.308   2.783   4.225 -0.4223 -0.0881  0.3085
 5425TIP3   OH237765   6.405   5.034  15.470  0.1879 -0.5994 -0.4052
 5425TIP3    H137766   6.365   4.988  15.396  1.6991 -1.7823 -0.5514
 5425TIP3    H237767   6.375   4.986  15.547 -0.2432 -0.2540 -0.3548
 5426TIP3   OH237768   3.688   6.811  16.498 -0.4018  0.3387 -0.5489
 5426TIP3    H137769   3.702   6.844  16.409 -1.5851 -0.1786 -0.9459
 5426TIP3    H237770   3.606   6.761  16.493 -1.6025  1.9560  1.2622
 5427TIP3   OH237771   5.085   5.805  15.614  0.3070  0.1693  0.0878
 5427TIP3    H137772   5.062   5.822  15.522 -0.4717  5.1465  0.9391
 5427TIP3    H237773   5.002   5.780  15.655  0.1556  0.3084 -0.1326
 5428TIP3   OH237774   2.165   5.785  14.614 -0.2005  0.4073  0.0427
 5428TIP3    H137775   2.122   5.865  14.585  0.8949  0.5329 -1.3406
 5428TIP3    H237776   2.184   5.736  14.534 -0.7590 -1.2142  0.8488
 5429TIP3   OH237777   6.778   6.479  16.458  1.3525  0.5810 -0.1394
 5429TIP3    H137778   6.822   6.562  16.472  1.6304  0.2447  1.0367
 5429TIP3    H237779   6.733   6.460  16.540  0.2518  0.1764 -0.8106
 5430TIP3   OH237780   6.335   3.999  17.190 -0.0576  0.5333  0.2475
 5430TIP3    H137781   6.248   3.960  17.185  0.4974 -0.7764  0.5469
 5430TIP3    H237782   6.323   4.089  17.158 -1.4664  0.3009  0.0874
 5431TIP3   OH237783   6.375   3.864  13.878  0.2485 -0.2438 -0.1737
 5431TIP3    H137784   6.363   3.933  13.813 -0.5098  0.1501  0.3789
 5431TIP3    H237785   6.360   3.783  13.830 -0.4766  0.0521 -0.4509
 5432TIP3   OH237786   2.512   3.960  16.334  0.0435  0.1333  0.3206
 5432TIP3    H137787   2.599   3.925  16.319  0.2788  0.7108  0.3143
 5432TIP3    H237788   2.479   3.981  16.246 -0.2963 -0.5343  0.2824
 5433TIP3   OH237789   2.076   1.740  12.617 -0.0877 -0.6911 -0.1079
 5433TIP3    H137790   2.066   1.650  12.585 -0.7588 -0.3888 -0.7705
 5433TIP3    H237791   2.170   1.756  12.614 -0.1368 -0.4628 -2.6031
 5434TIP3   OH237792   5.750   3.140   5.340  0.2310 -0.1465 -0.0919
 5434TIP3    H137793   5.709   3.191   5.410 -0.1023  0.7358 -0.9172
 5434TIP3    H237794   5.786   3.205   5.280 -0.3080 -0.8598 -1.2386
 5435TIP3   OH237795   3.930   1.207  15.706 -0.3335  0.3078 -0.1251
 5435TIP3    H137796   3.896   1.278  15.651  1.5733  1.9807  0.7212
 5435TIP3    H237797   4.003   1.170  15.656  1.2939  1.7187  1.0597
 5436TIP3   OH237798   5.173   0.041   3.909  0.5682  0.5965  0.3123
 5436TIP3    H137799   5.249  -0.011   3.935 -0.7613 -1.8101 -0.3800
 5436TIP3    H237800   5.155   0.015   3.819 -0.4280  1.9495  0.0881
 5437TIP3   OH237801   0.128   3.038  12.680  0.4375  0.5599  0.7184
 5437TIP3    H137802   0.139   2.944  12.694 -0.3551  0.2685 -0.5244
 5437TIP3    H237803   0.216   3.070  12.663  0.5119 -0.2769 -0.6223
 5438TIP3   OH237804   3.271   3.591  12.746 -0.1324 -0.4842  0.2160
 5438TIP3    H137805   3.295   3.570  12.656 -0.5343  2.9875 -0.8309
 5438TIP3    H237806   3.194   3.646  12.738  0.3906  0.7184  2.6236
 5439TIP3   OH237807   0.540   6.149  14.582  0.0110  0.4367 -0.0009
 5439TIP3    H137808   0.628   6.119  14.561  0.2536  0.9719  0.2424
 5439TIP3    H237809   0.519   6.212  14.513 -1.5635 -2.1991 -2.1241
 5440TIP3   OH237810   5.020   4.176  11.798  0.4070 -0.2346 -0.0616
 5440TIP3    H137811   5.116   4.175  11.806  0.3552  0.2767  0.6941
 5440TIP3    H237812   4.991   4.097  11.843  0.3970  0.2952  0.8728
 5441TIP3   OH237813   1.576   6.261  13.080  0.1575  0.3276  0.0344
 5441TIP3    H137814   1.642   6.217  13.027  0.0346  1.5312 -1.1654
 5441TIP3    H237815   1.618   6.272  13.165  0.8366 -0.4947 -0.1765
 5442TIP3   OH237816   1.439   6.020  14.015  0.3433 -0.2268 -0.5008
 5442TIP3    H137817   1.389   5.946  13.980  2.0522 -0.8143 -1.7988
 5442TIP3    H237818   1.473   5.989  14.098 -2.0420  0.4678  0.8316
 5443TIP3   OH237819   1.830   3.553   4.212  0.4658  0.3309 -0.2458
 5443TIP3    H137820   1.885   3.591   4.280  0.6463 -2.3552  1.2361
 5443TIP3    H237821   1.740   3.568   4.243  0.4654  0.9759 -0.5325
 5444TIP3   OH237822   0.689   4.039   4.123  0.2102  0.1819 -0.0413
 5444TIP3    H137823   0.766   4.079   4.083  0.6657 -0.0271  0.6233
 5444TIP3    H237824   0.668   3.965   4.066 -0.2023  0.9157 -0.8730
 5445TIP3   OH237825   2.759   6.246  12.732  0.0933  0.3031  0.3485
 5445TIP3    H137826   2.667   6.271  12.740 -0.1655  0.0009 -1.2229
 5445TIP3    H237827   2.796   6.311  12.672  0.9210  0.4381  0.9944
 5446TIP3   OH237828   3.704   3.913   2.281 -0.0469  0.4135 -0.0903
 5446TIP3    H137829   3.783   3.861   2.291  0.0492  0.5145 -0.3105
 5446TIP3    H237830   3.704   3.972   2.357 -0.1269  0.1338  0.1274
 5447TIP3   OH237831   6.691   5.087   0.324 -0.1433  0.2864 -0.0845
 5447TIP3    H137832   6.667   5.073   0.415 -1.0282 -2.2746 -0.6061
 5447TIP3    H237833   6.662   5.175   0.304 -0.7866  0.5560  1.8444
 5448TIP3   OH237834   4.749   2.724  11.838  0.2455  0.4739 -0.7032
 5448TIP3    H137835   4.754   2.757  11.749  0.5293  2.5124  0.0060
 5448TIP3    H237836   4.709   2.637  11.830  1.4372  0.0640 -2.8977
 5449TIP3   OH237837   3.719   5.834  11.535  0.2956  0.3034 -0.2805
 5449TIP3    H137838   3.805   5.796  11.517  1.2101  1.7521  0.8797
 5449TIP3    H237839   3.737   5.921  11.568 -1.5306 -0.0293  1.8251
 5450TIP3   OH237840   6.410   2.189  16.899  0.5709 -0.1237  0.1228
 5450TIP3    H137841   6.405   2.284  16.896 -0.5653 -0.1780 -0.8482
 5450TIP3    H237842   6.435   2.168  16.988 -1.9666  1.0177  1.2096
 5451TIP3   OH237843   4.373   0.547  16.229 -0.6939 -0.5419 -0.8016
 5451TIP3    H137844   4.454   0.500  16.251  0.7062  1.2569 -1.8354
 5451TIP3    H237845   4.333   0.567  16.314 -0.4111 -1.9942 -0.2978
 5452TIP3   OH237846   4.554   4.217   5.885 -0.6526 -0.1854 -0.4825
 5452TIP3    H137847   4.626   4.273   5.913 -0.5226 -0.0987 -0.9680
 5452TIP3    H237848   4.551   4.146   5.949 -2.1863  1.4651  1.4101
 5453TIP3   OH237849   2.012   1.370  14.883  0.1190 -0.0376 -0.2970
 5453TIP3    H137850   2.026   1.283  14.846  1.2342 -0.6524  1.4854
 5453TIP3    H237851   2.048   1.429  14.817  0.2482 -0.9716 -1.0905
 5454TIP3   OH237852   5.969   1.066   2.624 -0.1579 -0.4734 -0.3068
 5454TIP3    H137853   5.986   1.145   2.676 -1.3803 -0.3715 -0.0420
 5454TIP3    H237854   5.939   1.002   2.688  2.0555 -1.6115 -0.3049
 5455TIP3   OH237855   3.868   0.674  13.262 -0.0034 -0.0422 -0.2719
 5455TIP3    H137856   3.792   0.672  13.205 -0.0167  0.8276 -0.2969
 5455TIP3    H237857   3.925   0.604  13.229 -0.5409 -0.3309 -0.5961
 5456TIP3   OH237858   5.542   3.732   3.796 -0.0317  0.0423  0.0590
 5456TIP3    H137859   5.471   3.684   3.839 -1.5778  2.3944  0.2983
 5456TIP3    H237860   5.524   3.722   3.702  0.2532 -0.6380  0.0674
 5457TIP3   OH237861   4.865   2.058  10.572  0.3017 -0.4771  0.2398
 5457TIP3    H137862   4.866   1.980  10.627 -2.2027 -0.2364  0.7465
 5457TIP3    H237863   4.799   2.038  10.505  0.4520  0.7766 -0.2988
 5458TIP3   OH237864   0.365   3.486  12.231  0.3128  0.3312 -0.0686
 5458TIP3    H137865   0.365   3.393  12.255 -0.5147  0.8671  2.2702
 5458TIP3    H237866   0.277   3.516  12.252  0.4053  1.5534 -1.2952
 5459TIP3   OH237867   0.760   2.061  13.658 -0.6644  0.1182 -0.5834
 5459TIP3    H137868   0.735   2.064  13.565 -0.3835  3.3301 -0.6511
 5459TIP3    H237869   0.676   2.062  13.705 -0.9914 -4.4449 -0.5893
 5460TIP3   OH237870   3.084   3.581   2.858  0.0108 -0.0992  0.0005
 5460TIP3    H137871   3.085   3.636   2.937  0.3073  0.3762 -0.3273
 5460TIP3    H237872   2.991   3.578   2.833  0.2069  2.2694 -1.3267
 5461TIP3   OH237873   0.757   4.874   1.088 -0.6318  0.6668  0.0404
 5461TIP3    H137874   0.760   4.805   1.021 -0.0266  0.4341  0.2996
 5461TIP3    H237875   0.774   4.828   1.170 -1.7558  0.8849  0.4159
 5462TIP3   OH237876   5.826   5.284  15.164 -0.5698 -0.0946 -0.1417
 5462TIP3    H137877   5.836   5.378  15.147 -0.4691 -0.3900 -1.9578
 5462TIP3    H237878   5.732   5.271  15.174 -0.4683  0.4393  1.9717
 5463TIP3   OH237879   4.707   1.735   4.494 -0.5292  0.0003 -0.2744
 5463TIP3    H137880   4.779   1.799   4.501 -0.9003  0.4483 -0.5292
 5463TIP3    H237881   4.630   1.782   4.525 -0.7477 -0.4356 -0.1461
 5464TIP3   OH237882   1.159   4.394   3.456 -0.0508  0.2366 -0.0935
 5464TIP3    H137883   1.110   4.474   3.437  0.7056  0.4169 -1.3800
 5464TIP3    H237884   1.239   4.425   3.497  0.6959  0.2339 -1.5072
 5465TIP3   OH237885   3.596   2.258   1.002 -0.2635  0.3130 -0.5851
 5465TIP3    H137886   3.664   2.225   0.943  1.6051  0.3503  1.4252
 5465TIP3    H237887   3.539   2.311   0.945  1.9241  1.0704 -2.2098
 5466TIP3   OH237888   3.646   1.344  11.782 -0.0184  0.4929  0.1783
 5466TIP3    H137889   3.699   1.265  11.792 -0.6877  0.0342  0.1664
 5466TIP3    H237890   3.568   1.328  11.836 -0.7523  0.6015 -0.8247
 5467TIP3   OH237891   2.473   6.184  12.821  0.6061  0.5362 -0.8101
 5467TIP3    H137892   2.484   6.194  12.726  0.3949  0.0303 -0.8917
 5467TIP3    H237893   2.404   6.246  12.844  1.0238  1.0387 -0.9004
 5468TIP3   OH237894   3.269   4.238   3.216  0.0384  0.4013  0.1930
 5468TIP3    H137895   3.315   4.220   3.134  1.5230 -0.1424  1.1104
 5468TIP3    H237896   3.283   4.332   3.232 -2.0407  1.0316 -1.1821
 5469TIP3   OH237897   4.724   4.843   3.971 -0.1642  0.1969  0.1524
 5469TIP3    H137898   4.711   4.881   3.884  0.9613 -0.2693 -0.2362
 5469TIP3    H237899   4.679   4.759   3.968 -1.3086  0.7710  0.4965
 5470TIP3   OH237900   5.962   4.427  15.272  0.4377  0.6145  0.1820
 5470TIP3    H137901   5.983   4.434  15.365 -1.9922 -1.2446  0.9736
 5470TIP3    H237902   5.982   4.336  15.250  1.7965  1.2372 -1.4202
 5471TIP3   OH237903   1.739   2.486  16.974 -0.3963 -0.1687 -0.0695
 5471TIP3    H137904   1.804   2.545  16.937 -2.0644  0.0486 -2.9562
 5471TIP3    H237905   1.732   2.415  16.910 -1.2216 -1.4903  1.4130
 5472TIP3   OH237906   2.370   4.176   0.238  0.0369 -0.8406 -0.6271
 5472TIP3    H137907   2.350   4.122   0.162 -0.3773  0.0129 -1.1380
 5472TIP3    H237908   2.456   4.213   0.218  0.1968 -1.0860 -0.4017
 5473TIP3   OH237909   6.576   3.481   5.322  0.0319  0.9750 -0.4157
 5473TIP3    H137910   6.513   3.444   5.384 -0.7454  0.2374 -1.6127
 5473TIP3    H237911   6.579   3.575   5.344 -1.8296  1.1170 -0.6104
 5474TIP3   OH237912   0.121   6.053  13.711  0.0253 -0.2854  0.0368
 5474TIP3    H137913   0.117   6.135  13.760  1.5162 -0.9466  1.3398
 5474TIP3    H237914   0.153   6.079  13.625  0.0345  0.5556  0.2777
 5475TIP3   OH237915   0.552   0.803   5.564 -0.1968 -0.1068 -0.5000
 5475TIP3    H137916   0.590   0.750   5.634 -0.1103 -1.2933 -1.4059
 5475TIP3    H237917   0.618   0.799   5.494  0.3006  2.1021 -0.2276
 5476TIP3   OH237918   0.558   2.653  15.594 -0.3855  0.6854 -0.5266
 5476TIP3    H137919   0.597   2.651  15.506  0.6273  0.1999 -0.0780
 5476TIP3    H237920   0.605   2.723  15.639  1.9788 -1.6234  0.8836
 5477TIP3   OH237921   5.793   2.284   5.150  0.2331 -0.2294  0.2447
 5477TIP3    H137922   5.742   2.266   5.071 -2.2496  0.5703  1.5717
 5477TIP3    H237923   5.746   2.355   5.193  2.1653  0.1263  1.9021
 5478TIP3   OH237924   2.241   5.803  16.173  0.3479  0.5276  0.3623
 5478TIP3    H137925   2.187   5.848  16.238  1.0675  0.3458  1.1065
 5478TIP3    H237926   2.331   5.814  16.204  0.6214 -0.5164  0.0040
 5479TIP3   OH237927   1.666   6.311  15.568 -0.2713 -1.2892  0.1718
 5479TIP3    H137928   1.628   6.310  15.480 -1.1491 -1.6617  0.5462
 5479TIP3    H237929   1.591   6.320  15.627  0.4960  2.8730  0.8088
 5480TIP3   OH237930   6.431   2.615   5.683  0.2358 -0.1666  0.5653
 5480TIP3    H137931   6.510   2.567   5.708  0.3138 -0.1685  0.3148
 5480TIP3    H237932   6.364   2.548   5.671  0.9698 -0.4898 -2.2760
 5481TIP3   OH237933   4.728   1.619   2.206 -0.2901  0.1681  0.3237
 5481TIP3    H137934   4.758   1.692   2.152  0.2658 -1.9096 -2.3416
 5481TIP3    H237935   4.674   1.566   2.148  0.4407 -2.2935  1.7252
 5482TIP3   OH237936   6.637   0.906  11.087  0.1353 -0.2340 -0.0939
 5482TIP3    H137937   6.648   0.837  11.023 -0.7633 -0.7473  0.2880
 5482TIP3    H237938   6.544   0.928  11.084  0.3222  0.6514  0.1046
 5483TIP3   OH237939   4.258   2.907  17.016  0.4800  0.5519 -0.3774
 5483TIP3    H137940   4.251   2.812  17.014 -1.3265  0.4908  2.6630
 5483TIP3    H237941   4.350   2.924  17.039  0.8963 -0.4239 -1.2762
 5484TIP3   OH237942   5.965   3.746   4.080 -0.2586 -0.2078 -0.0556
 5484TIP3    H137943   5.933   3.696   4.004  0.4598  0.2809 -0.7004
 5484TIP3    H237944   5.949   3.688   4.155  1.3490 -1.8100 -0.8679
 5485TIP3   OH237945   2.146   5.379   2.189  0.3179  0.0785  0.4956
 5485TIP3    H137946   2.198   5.374   2.270  2.3015 -1.8989 -0.7981
 5485TIP3    H237947   2.123   5.289   2.170  0.1473  0.4747 -1.2984
 5486TIP3   OH237948   0.800   3.581   6.404  0.3671 -0.1623 -0.0295
 5486TIP3    H137949   0.794   3.608   6.312 -1.3293 -0.4371 -0.0254
 5486TIP3    H237950   0.893   3.590   6.425  0.8979 -0.7169 -1.9502
 5487TIP3   OH237951   4.503   1.459   2.086  0.0319 -0.3511 -0.0107
 5487TIP3    H137952   4.418   1.487   2.121  1.1800 -0.4010  3.1688
 5487TIP3    H237953   4.535   1.534   2.036  0.0735  1.5081  2.6350
 5488TIP3   OH237954   0.455   1.496  12.458 -0.1857 -0.8166 -0.2001
 5488TIP3    H137955   0.436   1.589  12.465  2.2574 -0.2347 -0.3016
 5488TIP3    H237956   0.451   1.464  12.548  2.8910  0.3372  0.4531
 5489TIP3   OH237957   5.873   5.735   4.981 -0.6178  0.1868  0.1725
 5489TIP3    H137958   5.930   5.807   5.010 -0.7926  0.7490 -0.8356
 5489TIP3    H237959   5.879   5.671   5.051 -0.5708  1.2493  1.1801
 5490TIP3   OH237960   4.694   1.385   1.782 -0.2647  0.0849  0.0082
 5490TIP3    H137961   4.630   1.415   1.717  0.8642 -0.2669 -1.3221
 5490TIP3    H237962   4.693   1.452   1.850 -0.8492  0.9272 -0.8088
 5491TIP3   OH237963   6.565   1.955   2.699  0.2644 -0.5371 -0.3342
 5491TIP3    H137964   6.566   1.905   2.781  1.3575  0.5750  0.3803
 5491TIP3    H237965   6.548   2.046   2.726  2.3448  0.1448 -1.0978
 5492TIP3   OH237966   6.566   1.551   2.249 -0.1650 -0.1547  0.4098
 5492TIP3    H137967   6.634   1.505   2.200 -1.3945 -1.5743 -0.0430
 5492TIP3    H237968   6.554   1.634   2.202  0.9401 -0.0638  0.2574
 5493TIP3   OH237969   2.665   0.234   5.038  0.0605 -0.1413  0.6694
 5493TIP3    H137970   2.733   0.204   4.978  0.5842  0.6942  0.8213
 5493TIP3    H237971   2.609   0.158   5.051  0.4579 -0.5928 -0.1582
 5494TIP3   OH237972   3.022   1.078  14.401 -0.5824  0.8039 -0.3045
 5494TIP3    H137973   3.027   1.002  14.343  0.0500  0.2898  0.4034
 5494TIP3    H237974   2.979   1.044  14.480 -0.5458  1.2523 -0.0910
 5495TIP3   OH237975   1.842   4.944  14.043  0.0863 -0.1674 -0.3297
 5495TIP3    H137976   1.843   4.907  13.955  2.1490  0.6040 -0.6848
 5495TIP3    H237977   1.861   5.037  14.030 -2.6371  0.6337  0.7315
 5496TIP3   OH237978   2.416   5.142   4.863 -0.6217  0.4474 -0.1806
 5496TIP3    H137979   2.380   5.064   4.904 -1.1234  0.3828 -0.7300
 5496TIP3    H237980   2.433   5.202   4.935  1.6251 -0.8764  0.4767
 5497TIP3   OH237981   4.646   1.676   0.355 -0.2044  0.0771  0.4554
 5497TIP3    H137982   4.576   1.648   0.413 -1.1310  2.3014  0.5210
 5497TIP3    H237983   4.696   1.740   0.406  2.3681 -1.9114  0.6507
 5498TIP3   OH237984   2.650   4.478  14.377  0.0118  0.0736 -0.2927
 5498TIP3    H137985   2.606   4.398  14.348 -2.3657  1.6266 -1.2203
 5498TIP3    H237986   2.667   4.527  14.297  2.6451  0.0192  0.1303
 5499TIP3   OH237987   5.604   6.390  12.775  0.0921 -0.3215  0.0368
 5499TIP3    H137988   5.525   6.429  12.813 -0.9668 -1.8879 -0.4360
 5499TIP3    H237989   5.661   6.373  12.850 -0.3809  0.0669  0.4905
 5500TIP3   OH237990   1.450   0.611   4.421 -0.0171  0.1788  0.2101
 5500TIP3    H137991   1.403   0.585   4.500  1.5111  2.2990  1.9522
 5500TIP3    H237992   1.382   0.644   4.362 -1.1235 -0.9266  0.8153
 5501TIP3   OH237993   3.542   1.124  13.607 -0.1893  0.6273  0.0652
 5501TIP3    H137994   3.464   1.107  13.555 -0.8915  1.0835  0.9339
 5501TIP3    H237995   3.610   1.144  13.542 -1.4740  3.0164 -0.7029
 5502TIP3   OH237996   3.696   3.969  14.288  0.3469  0.3451  0.4212
 5502TIP3    H137997   3.675   3.980  14.195  0.2965  0.8036  0.4868
 5502TIP3    H237998   3.627   3.910  14.320 -1.1176  2.0907  0.7017
 5503TIP3   OH237999   6.452   2.251  13.356 -0.0706 -0.3382 -0.1938
 5503TIP3    H138000   6.513   2.211  13.418  0.9676 -0.1312 -1.0615
 5503TIP3    H238001   6.387   2.183  13.339  0.5703 -0.9714 -0.1379
 5504TIP3   OH238002   0.985   5.839  17.227  0.0992 -0.1837  0.1669
 5504TIP3    H138003   1.079   5.832  17.212  0.3294 -1.1723  1.8630
 5504TIP3    H238004   0.967   5.933  17.223  1.2770  0.0717  0.4990
 5505TIP3   OH238005   3.569   2.524  11.276 -0.1365  0.6024  0.3713
 5505TIP3    H138006   3.572   2.479  11.192 -2.3206  0.5052  0.2873
 5505TIP3    H238007   3.641   2.587  11.272  1.6885 -1.3972 -0.3233
 5506TIP3   OH238008   0.832   2.039   2.136  0.0694  0.4080 -0.3229
 5506TIP3    H138009   0.777   2.117   2.142 -2.0713 -1.0534  0.0908
 5506TIP3    H238010   0.783   1.979   2.079  0.8843 -1.2180  0.6032
 5507TIP3   OH238011   3.088   2.346   0.293  0.1439  0.3860 -0.1845
 5507TIP3    H138012   3.110   2.439   0.288 -0.3080  0.5520  0.7858
 5507TIP3    H238013   3.170   2.301   0.271  0.2892  1.0040 -0.9567
 5508TIP3   OH238014   5.528   2.725  14.056  0.4881 -0.4176 -0.1438
 5508TIP3    H138015   5.505   2.646  14.106  0.3573  0.8836  1.9644
 5508TIP3    H238016   5.464   2.728  13.985  0.1785 -1.9261  0.0312
 5509TIP3   OH238017   2.071   2.019   1.291  0.3437  0.3395 -0.3208
 5509TIP3    H138018   2.017   2.027   1.370  0.3197  0.5323 -0.3574
 5509TIP3    H238019   2.027   1.951   1.239  0.8381 -0.4066  0.2198
 5510TIP3   OH238020   5.626   0.091  12.693  0.0239 -0.3541  0.3899
 5510TIP3    H138021   5.624   0.168  12.636 -0.5079 -1.7212 -1.5426
 5510TIP3    H238022   5.543   0.095  12.742  0.0695  0.3690  0.4105
 5511TIP3   OH238023   2.227   0.933   5.157  0.4112  0.0290 -0.5406
 5511TIP3    H138024   2.144   0.976   5.136 -0.2148 -1.4425 -1.2427
 5511TIP3    H238025   2.229   0.856   5.100  1.7291 -0.5779  0.2822
 5512TIP3   OH238026   3.353   3.373  12.918 -0.4081 -0.3805  0.2936
 5512TIP3    H138027   3.298   3.437  12.873  0.2839  0.2038  0.2510
 5512TIP3    H238028   3.292   3.311  12.957 -1.3351  2.0539  3.1139
 5513TIP3   OH238029   1.181   4.593   3.672  0.1481  0.3391 -0.2093
 5513TIP3    H138030   1.180   4.550   3.758 -0.4913 -0.5258 -0.6357
 5513TIP3    H238031   1.274   4.603   3.652  0.3395  1.8292  1.1861
 5514TIP3   OH238032   0.187   5.819   1.468  0.3481  0.1249  0.7701
 5514TIP3    H138033   0.215   5.910   1.463 -0.3527  0.4360  2.1546
 5514TIP3    H238034   0.267   5.768   1.458  0.8662  0.9109  0.8629
 5515TIP3   OH238035   2.591   3.731   0.436 -0.0028  0.2252  0.0889
 5515TIP3    H138036   2.561   3.809   0.389  0.5223 -0.9194 -2.3016
 5515TIP3    H238037   2.626   3.673   0.368 -0.2461 -2.0716  1.7742
 5516TIP3   OH238038   6.782   5.494  15.549  0.1363 -0.4431 -0.3195
 5516TIP3    H138039   6.687   5.506  15.546  0.0756 -0.8271 -0.0606
 5516TIP3    H238040   6.818   5.578  15.522 -0.2558  0.3085  1.3693
 5517TIP3   OH238041   3.159   2.305  13.563  0.0360  0.0020 -0.6714
 5517TIP3    H138042   3.122   2.353  13.489  2.5037 -0.8448 -2.6354
 5517TIP3    H238043   3.105   2.227  13.571 -0.4569  0.2639 -1.3943
 5518TIP3   OH238044   2.546   2.254  11.541  0.2511  0.9506 -0.5362
 5518TIP3    H138045   2.573   2.293  11.624 -0.4756 -0.0441  0.1912
 5518TIP3    H238046   2.610   2.286  11.478  0.2731  2.4826  0.2132
 5519TIP3   OH238047   4.124   5.521  15.280  0.0085 -0.2807 -0.5331
 5519TIP3    H138048   4.078   5.481  15.206  0.8379 -1.2379 -0.5549
 5519TIP3    H238049   4.208   5.550  15.243  0.4546 -0.8187  0.0273
 5520TIP3   OH238050   2.473   3.432   3.222  0.6238  0.0480  0.2569
 5520TIP3    H138051   2.560   3.466   3.239  0.8046 -0.1411 -0.2762
 5520TIP3    H238052   2.432   3.427   3.308  1.0524  0.3705  0.4802
 5521TIP3   OH238053   2.981   3.179   0.230 -0.0643 -0.3577 -0.0708
 5521TIP3    H138054   2.896   3.173   0.273 -0.1873  0.2317 -0.2306
 5521TIP3    H238055   2.973   3.124   0.152 -1.6090  2.6079 -2.2134
 5522TIP3   OH238056   0.624   6.023  13.739 -0.0017 -0.7762  0.3116
 5522TIP3    H138057   0.717   6.042  13.731 -0.4007  1.0782 -0.5670
 5522TIP3    H238058   0.581   6.105  13.716 -1.8668 -1.7669  0.0509
 5523TIP3   OH238059   0.594   3.948  15.814  0.3057  0.0129  0.4897
 5523TIP3    H138060   0.512   3.965  15.859 -0.6269 -0.1182 -1.0830
 5523TIP3    H238061   0.662   3.966  15.879 -0.9625 -0.1298  1.9010
 5524TIP3   OH238062   1.891   0.738   4.192 -0.2938  0.6044  0.2272
 5524TIP3    H138063   1.853   0.680   4.126  0.5545 -0.0089  0.2548
 5524TIP3    H238064   1.860   0.704   4.276  0.0956  0.2638  0.2360
 5525TIP3   OH238065   5.472   2.620  17.134 -0.2248 -0.0018  0.0003
 5525TIP3    H138066   5.535   2.656  17.072  1.4336 -0.0301  1.5556
 5525TIP3    H238067   5.393   2.672  17.122  0.0412 -0.0124 -2.0770
 5526TIP3   OH238068   3.740   3.558   4.713  0.7643  0.2107  0.0897
 5526TIP3    H138069   3.787   3.514   4.642  1.0783  1.2606 -0.3667
 5526TIP3    H238070   3.668   3.604   4.670  0.6582  0.4435  0.5083
 5527TIP3   OH238071   4.992   4.884  15.174  0.6304 -0.3215 -0.4449
 5527TIP3    H138072   4.962   4.837  15.096 -0.4314  0.5331 -0.5845
 5527TIP3    H238073   4.923   4.868  15.239  1.2980 -0.6785  0.1897
 5528TIP3   OH238074   6.247   3.558  16.237 -0.7686 -0.0736 -0.5433
 5528TIP3    H138075   6.311   3.627  16.254 -1.5326  0.6019 -0.3804
 5528TIP3    H238076   6.273   3.523  16.151  0.6913 -0.8180  0.1563
 5529TIP3   OH238077   1.946   2.933   0.840 -0.2463  0.8957 -0.0527
 5529TIP3    H138078   2.040   2.929   0.821 -0.6491  0.1129 -2.1097
 5529TIP3    H238079   1.932   3.022   0.873  1.3942  0.6368  1.4778
 5530TIP3   OH238080   0.586   5.590   0.707 -0.5667  0.0152  0.5922
 5530TIP3    H138081   0.577   5.662   0.644 -1.8411  0.5322  1.3412
 5530TIP3    H238082   0.586   5.511   0.652 -1.2412  0.4775 -0.0922
 5531TIP3   OH238083   5.926   6.595   0.020 -0.0620  0.1532  0.4361
 5531TIP3    H138084   5.939   6.518   0.075  0.6146  1.9925  3.0531
 5531TIP3    H238085   6.014   6.634   0.012 -0.6879  1.7467  0.9581
 5532TIP3   OH238086   2.181   3.147   2.778 -0.6557 -0.0325 -0.2012
 5532TIP3    H138087   2.124   3.073   2.755 -2.0790  1.1610 -0.7193
 5532TIP3    H238088   2.123   3.206   2.827  0.8451  0.0731  1.5343
 5533TIP3   OH238089   3.047   6.263   3.116 -0.3318 -0.0428 -1.2472
 5533TIP3    H138090   2.987   6.322   3.069 -1.7859 -0.0650  0.4505
 5533TIP3    H238091   2.999   6.180   3.122  0.7737 -0.7235 -1.6934
 5534TIP3   OH238092   0.454   1.718  13.328 -0.0694  0.1195 -0.5061
 5534TIP3    H138093   0.395   1.710  13.253  0.0085 -0.1287 -0.5420
 5534TIP3    H238094   0.402   1.689  13.403  0.2881 -0.9853 -0.6709
 5535TIP3   OH238095   4.181   3.359   2.337  0.0779 -0.0128 -0.1966
 5535TIP3    H138096   4.241   3.332   2.407 -0.0069 -0.2356 -0.2108
 5535TIP3    H238097   4.224   3.435   2.297 -0.7915  1.3873  1.3860
 5536TIP3   OH238098   6.699   0.361   3.579  0.0606  0.1903 -0.0169
 5536TIP3    H138099   6.705   0.266   3.585  0.2851  0.1456 -0.8330
 5536TIP3    H238100   6.788   0.392   3.597 -0.5497  0.4482  3.1312
 5537TIP3   OH238101   5.141   0.310  14.716  0.5343 -0.2026 -1.1429
 5537TIP3    H138102   5.107   0.221  14.708 -2.7094  0.8591 -0.6576
 5537TIP3    H238103   5.088   0.362  14.656 -0.0828  1.9167  1.0505
 5538TIP3   OH238104   2.357   0.333  15.218  0.3298 -0.5851 -0.0471
 5538TIP3    H138105   2.394   0.291  15.141 -0.9537 -2.3638  0.2330
 5538TIP3    H238106   2.428   0.330  15.283  0.9160 -0.4875 -0.6749
 5539TIP3   OH238107   2.704   2.006  15.753 -0.8151 -0.2034 -0.2291
 5539TIP3    H138108   2.728   1.983  15.663 -0.0824  0.8518 -0.3338
 5539TIP3    H238109   2.656   1.931  15.786 -0.9042 -0.6923 -1.4382
 5540TIP3   OH238110   2.123   0.287  13.688 -0.9267 -0.3593  0.2347
 5540TIP3    H138111   2.140   0.360  13.629  0.4131 -0.2547  0.7127
 5540TIP3    H238112   2.122   0.209  13.632  0.6584 -0.2979  0.0915
 5541TIP3   OH238113   5.384   2.749   5.302 -0.6652  0.3294 -0.1393
 5541TIP3    H138114   5.394   2.818   5.367  2.9070 -1.4393  1.4728
 5541TIP3    H238115   5.376   2.668   5.353 -0.8191 -0.8434 -1.9198
 5542TIP3   OH238116   0.863   4.079   3.868 -0.3472 -0.0928 -0.6944
 5542TIP3    H138117   0.926   4.120   3.810  0.4384  2.2112  1.5738
 5542TIP3    H238118   0.793   4.143   3.877 -0.6479 -0.5509  0.5287
 5543TIP3   OH238119   0.532   0.689   4.188  0.4556 -0.9457 -0.4831
 5543TIP3    H138120   0.561   0.695   4.279  1.0299 -1.4725 -0.6245
 5543TIP3    H238121   0.602   0.731   4.137 -0.3546  0.2825 -0.5987
 5544TIP3   OH238122   5.504   6.663   2.921  0.7789  0.0262  0.4452
 5544TIP3    H138123   5.526   6.745   2.965 -1.9517  1.3429 -0.4353
 5544TIP3    H238124   5.523   6.680   2.829  0.7299 -0.5393  0.3307
 5545TIP3   OH238125   6.687   2.216  11.847 -1.0090 -0.1710 -0.1452
 5545TIP3    H138126   6.777   2.232  11.817 -1.1096 -0.3707 -0.5672
 5545TIP3    H238127   6.697   2.179  11.935 -0.6334 -1.0350 -0.5390
 5546TIP3   OH238128   1.814   3.112   4.423 -0.0031  0.4194  0.0091
 5546TIP3    H138129   1.789   3.136   4.333  1.3409  0.3399 -0.4138
 5546TIP3    H238130   1.854   3.026   4.414 -1.1575 -0.2366  0.9221
 5547TIP3   OH238131   6.298   4.922  12.441 -0.5190  0.1292 -0.5210
 5547TIP3    H138132   6.358   4.985  12.480  0.3340 -0.9992  0.0475
 5547TIP3    H238133   6.354   4.867  12.386 -0.6016 -2.2051  1.5583
 5548TIP3   OH238134   2.248   1.323  11.561 -0.5404 -0.0467 -0.5500
 5548TIP3    H138135   2.173   1.267  11.580 -0.4279 -0.8795 -2.3113
 5548TIP3    H238136   2.313   1.300  11.628 -1.0089 -1.0432 -0.4207
 5549TIP3   OH238137   5.202   1.547  12.333 -0.6118  0.0393 -0.3477
 5549TIP3    H138138   5.240   1.573  12.417 -0.4874 -1.5701  0.1234
 5549TIP3    H238139   5.221   1.621  12.275  1.1056  0.3336  0.5074
 5550TIP3   OH238140   0.304   0.031   5.590  0.7906  0.3462 -0.8359
 5550TIP3    H138141   0.370   0.005   5.655 -0.3387 -1.0858 -0.1990
 5550TIP3    H238142   0.244   0.089   5.638 -0.8084 -1.7623 -0.1085
 5551TIP3   OH238143   0.500   3.666   5.911 -0.2787 -0.0606 -0.5011
 5551TIP3    H138144   0.412   3.681   5.944 -0.1626 -2.2090  1.0245
 5551TIP3    H238145   0.490   3.595   5.847 -0.0354  1.9133 -2.9080
 5552TIP3   OH238146   3.873   0.392  14.561  0.4351 -0.4831 -0.1280
 5552TIP3    H138147   3.864   0.428  14.473 -0.5118 -0.3382  0.0154
 5552TIP3    H238148   3.790   0.347  14.577  0.0897  0.5259  1.1291
 5553TIP3   OH238149   4.649   6.365   2.849  0.0262 -0.1406 -0.4622
 5553TIP3    H138150   4.580   6.330   2.792 -1.3285  0.3894  0.7931
 5553TIP3    H238151   4.656   6.302   2.920  2.3092 -1.2405 -1.5619
 5554TIP3   OH238152   3.766   4.269   6.061  0.3787 -0.4971 -0.4025
 5554TIP3    H138153   3.740   4.183   6.093  2.5687 -1.2798 -0.5849
 5554TIP3    H238154   3.779   4.321   6.141 -3.0229  0.4197 -0.3118
 5555TIP3   OH238155   2.156   6.295  16.324  0.2693 -0.6798 -0.3789
 5555TIP3    H138156   2.198   6.221  16.279  1.1361  0.3541 -1.3224
 5555TIP3    H238157   2.084   6.320  16.266  0.2340 -0.5217 -0.2664
 5556TIP3   OH238158   1.828   2.325  16.524 -0.4250  0.3249 -0.3125
 5556TIP3    H138159   1.783   2.262  16.468 -1.0196  2.0320 -1.8465
 5556TIP3    H238160   1.835   2.404  16.471 -1.6664  2.2972  2.2399
 5557TIP3   OH238161   3.495   5.784   2.920 -0.4258 -0.1067 -0.0237
 5557TIP3    H138162   3.464   5.706   2.966 -1.0823  0.8090  1.1354
 5557TIP3    H238163   3.547   5.831   2.985  1.2294 -0.3032 -1.1584
 5558TIP3   OH238164   3.403   2.469  14.570 -0.5687 -0.0761 -0.0552
 5558TIP3    H138165   3.376   2.377  14.573 -1.2767  0.1569  2.0651
 5558TIP3    H238166   3.466   2.473  14.498  1.2014 -2.7060  1.2017
 5559TIP3   OH238167   2.525   2.968  13.625  0.2774 -0.1071  0.6142
 5559TIP3    H138168   2.596   3.029  13.606  0.2935  0.0223  1.0645
 5559TIP3    H238169   2.569   2.889  13.657  0.2210  0.0098  0.9918
 5560TIP3   OH238170   6.036   5.717  15.779  0.4259  0.4278 -0.0556
 5560TIP3    H138171   6.122   5.756  15.793  1.0640 -0.0540 -2.2739
 5560TIP3    H238172   6.011   5.744  15.690 -0.2441 -2.0380 -0.6979
 5561TIP3   OH238173   2.534   1.992  11.694  0.3546 -0.0945  0.1201
 5561TIP3    H138174   2.518   2.086  11.681 -0.6839 -0.2929 -0.1065
 5561TIP3    H238175   2.513   1.976  11.785 -0.9052 -0.3785 -0.2076
 5562TIP3   OH238176   1.590   6.679   4.076  0.6790 -0.4435 -0.0566
 5562TIP3    H138177   1.670   6.626   4.084  1.0688  0.1855  0.3971
 5562TIP3    H238178   1.614   6.763   4.115  0.4459  0.4834 -1.8370
 5563TIP3   OH238179   2.119   6.587   0.255 -0.7683 -0.1670 -0.0514
 5563TIP3    H138180   2.167   6.559   0.332 -1.0388 -0.9028 -0.1450
 5563TIP3    H238181   2.046   6.640   0.290  0.2822  1.2639  0.0679
 5564TIP3   OH238182   0.726   3.789   1.977 -0.8839  0.4221 -0.8998
 5564TIP3    H138183   0.767   3.850   1.916  0.0233  1.0778  0.3126
 5564TIP3    H238184   0.790   3.779   2.048 -1.1513 -1.6856 -0.8847
 5565TIP3   OH238185   3.599   5.497  13.737  0.5347 -0.3855  0.0904
 5565TIP3    H138186   3.634   5.451  13.814 -0.5501  1.3954  1.7309
 5565TIP3    H238187   3.639   5.583  13.740 -0.5594  0.1693 -0.5632
 5566TIP3   OH238188   2.937   6.296  14.236 -0.1564  0.2571  0.6308
 5566TIP3    H138189   2.852   6.320  14.198 -0.3722  0.5076  1.2524
 5566TIP3    H238190   2.988   6.377  14.235  0.0456  0.1275  0.3413
 5567TIP3   OH238191   4.406   5.076  11.234 -0.4597 -0.1892  0.1552
 5567TIP3    H138192   4.479   5.130  11.264 -0.9880  0.1422  0.8637
 5567TIP3    H238193   4.448   4.996  11.201  0.2873  0.4028 -0.3914
 5568TIP3   OH238194   3.839   3.211  11.604  0.2321 -0.1994 -0.3645
 5568TIP3    H138195   3.910   3.263  11.565 -0.7916  1.4921 -0.0734
 5568TIP3    H238196   3.883   3.157  11.670  1.4715 -0.4199 -1.3398
 5569TIP3   OH238197   1.281   2.419  15.928 -0.7130  0.2342 -0.9836
 5569TIP3    H138198   1.277   2.327  15.952 -0.2366  0.3738 -0.3414
 5569TIP3    H238199   1.305   2.419  15.835 -0.5018 -0.2809 -0.9300
 5570TIP3   OH238200   3.757   4.706   0.773  0.0835 -0.5734  0.1784
 5570TIP3    H138201   3.690   4.646   0.806  0.0956 -1.1506 -0.7927
 5570TIP3    H238202   3.707   4.784   0.746  0.0585 -0.1623  1.3636
 5571TIP3   OH238203   5.910   6.435  12.190 -0.6139 -0.1896 -0.3938
 5571TIP3    H138204   5.851   6.376  12.235 -1.9700  0.9553 -0.6147
 5571TIP3    H238205   5.867   6.454  12.106  0.4260  0.0782 -0.8897
 5572TIP3   OH238206   4.182   0.485   0.692 -0.0910 -0.7685  0.4759
 5572TIP3    H138207   4.215   0.512   0.607  0.8144  0.3288  1.1546
 5572TIP3    H238208   4.162   0.392   0.681  0.8087 -0.8455 -0.6927
 5573TIP3   OH238209   5.130   4.884   5.197 -0.1139  0.0287  0.0424
 5573TIP3    H138210   5.134   4.836   5.114 -0.8445 -0.9438  0.5435
 5573TIP3    H238211   5.207   4.853   5.245 -1.5225 -2.0919  1.0802
 5574TIP3   OH238212   6.024   6.036  12.374 -0.3301  0.5706 -0.0514
 5574TIP3    H138213   6.003   6.114  12.427  0.8881  1.6246 -1.0607
 5574TIP3    H238214   5.973   6.047  12.294  0.1305  0.5355 -0.3538
 5575TIP3   OH238215   2.383   5.161  16.215  0.2535 -0.4678  0.5282
 5575TIP3    H138216   2.333   5.093  16.260 -1.3068 -0.7307 -1.4565
 5575TIP3    H238217   2.449   5.113  16.164 -1.4002 -0.6894 -1.5615
 5576TIP3   OH238218   3.801   1.280   1.191  0.7744  0.0622  0.1157
 5576TIP3    H138219   3.785   1.332   1.269 -1.0830 -0.7928  0.3415
 5576TIP3    H238220   3.721   1.289   1.139 -0.4335 -3.8888  0.9592
 5577TIP3   OH238221   0.373   4.599  14.618 -0.3294 -0.4868 -0.3815
 5577TIP3    H138222   0.467   4.601  14.606 -0.4545  0.5848 -1.3181
 5577TIP3    H238223   0.361   4.592  14.713  0.6952  0.7449 -0.1334
 5578TIP3   OH238224   5.375   2.809   0.639 -0.3549 -0.5104  0.1111
 5578TIP3    H138225   5.407   2.866   0.569  0.0253 -0.5095  0.2818
 5578TIP3    H238226   5.355   2.726   0.594 -0.3345 -0.4359 -0.0367
 5579TIP3   OH238227   3.762   4.587   4.331 -0.5742 -0.2349 -0.3633
 5579TIP3    H138228   3.852   4.608   4.355 -0.9558  0.1883  0.7757
 5579TIP3    H238229   3.768   4.502   4.287  0.7206  1.0926 -2.9871
 5580TIP3   OH238230   3.766   4.576   1.101 -0.5413 -0.7315 -0.2461
 5580TIP3    H138231   3.733   4.496   1.142 -0.1371 -1.4684 -1.3097
 5580TIP3    H238232   3.717   4.646   1.142  0.9396 -1.2497  2.6817
 5581TIP3   OH238233   4.961   6.295  13.925  0.1809 -0.5464 -0.0109
 5581TIP3    H138234   4.907   6.374  13.933 -0.4273 -0.9193 -0.3022
 5581TIP3    H238235   4.902   6.230  13.884  1.9442  0.1011 -3.9973
 5582TIP3   OH238236   4.925   4.492   2.879 -0.1485 -0.3182  0.4342
 5582TIP3    H138237   4.887   4.490   2.791  2.7721 -1.7084 -0.9396
 5582TIP3    H238238   4.853   4.518   2.935 -2.4489 -0.4539 -2.2108
 5583TIP3   OH238239   4.044   2.386   3.834  0.3967 -0.0701 -0.1749
 5583TIP3    H138240   4.081   2.471   3.858  0.0668  0.7495 -2.3064
 5583TIP3    H238241   3.950   2.403   3.823  0.0842 -1.0739  0.7882
 5584TIP3   OH238242   1.314   3.719   0.885  0.4777 -0.0079  0.1047
 5584TIP3    H138243   1.341   3.641   0.934 -0.9590 -1.1032 -0.7440
 5584TIP3    H238244   1.350   3.706   0.798  0.2595  0.3061 -0.0347
 5585TIP3   OH238245   2.154   4.002  10.976 -0.3370 -0.2359 -0.1948
 5585TIP3    H138246   2.246   3.994  11.001 -0.4971 -0.2081  0.4317
 5585TIP3    H238247   2.149   3.962  10.889  0.7358  2.0165 -1.3571
 5586TIP3   OH238248   6.040   3.546   4.297 -0.7052  0.2933  0.5195
 5586TIP3    H138249   5.973   3.556   4.366 -1.9632 -1.8369 -0.2906
 5586TIP3    H238250   6.061   3.453   4.299  0.5543  0.5279 -0.8242
 5587TIP3   OH238251   2.442   4.642   2.890 -0.1058  0.0840  0.0148
 5587TIP3    H138252   2.392   4.724   2.883  0.0944  0.1855 -0.2911
 5587TIP3    H238253   2.534   4.670   2.887 -0.0253 -0.0637  1.0121
 5588TIP3   OH238254   6.213   2.305  17.145 -0.0648 -0.0547 -0.4936
 5588TIP3    H138255   6.296   2.309  17.193  0.3467 -1.2850 -1.0521
 5588TIP3    H238256   6.172   2.390  17.161  1.2184  0.5140 -0.0587
 5589TIP3   OH238257   1.259   4.628   0.819 -0.2753 -0.1779 -0.2851
 5589TIP3    H138258   1.210   4.704   0.789 -0.6603 -0.4042 -0.2325
 5589TIP3    H238259   1.271   4.575   0.740  0.5981  0.2566 -0.4699
 5590TIP3   OH238260   1.732   1.219  12.708 -0.4916 -0.1017  0.6278
 5590TIP3    H138261   1.731   1.129  12.741 -0.0863  0.3451  1.9292
 5590TIP3    H238262   1.795   1.264  12.765  0.5558  0.6234 -1.0404
 5591TIP3   OH238263   4.609   4.336   0.124 -0.7042 -0.5037 -0.3274
 5591TIP3    H138264   4.675   4.304   0.186  0.0220  1.6511  0.0966
 5591TIP3    H238265   4.527   4.301   0.158  0.0266 -2.0304 -0.0193
 5592TIP3   OH238266   0.698   1.263  12.076 -0.4494 -0.1939 -0.2409
 5592TIP3    H138267   0.657   1.248  12.161 -0.0661 -0.5530 -0.1232
 5592TIP3    H238268   0.628   1.302  12.023 -1.0508 -1.1254 -0.1479
 5593TIP3   OH238269   2.991   3.965  16.252  0.1782  0.6177 -0.2240
 5593TIP3    H138270   3.073   4.003  16.285  1.0137 -0.7083 -0.6962
 5593TIP3    H238271   3.016   3.919  16.172 -0.9992  0.0071 -0.2648
 5594TIP3   OH238272   1.343   4.537   2.495  0.6943  0.6033  0.2536
 5594TIP3    H138273   1.266   4.485   2.518  0.9791  0.8421  1.8943
 5594TIP3    H238274   1.341   4.541   2.400 -2.4327  2.2551  0.2434
 5595TIP3   OH238275   1.600   0.886  14.826 -0.4301  0.2223  0.5556
 5595TIP3    H138276   1.618   0.962  14.770  0.1617 -0.1633  0.2143
 5595TIP3    H238277   1.508   0.896  14.849 -0.6006  0.5765 -0.2117
 5596TIP3   OH238278   3.797   1.618   1.163  0.0214 -0.2386 -0.1128
 5596TIP3    H138279   3.714   1.636   1.208  1.2801 -0.0908  2.3354
 5596TIP3    H238280   3.771   1.570   1.084 -2.4577  0.9219 -0.1369
 5597TIP3   OH238281   6.766   6.612   0.812  0.0405 -0.1955 -0.6367
 5597TIP3    H138282   6.789   6.630   0.903 -1.1386 -1.2837 -0.0902
 5597TIP3    H238283   6.793   6.521   0.798 -1.4153 -0.6349 -0.7834
 5598TIP3   OH238284   2.911   3.237   4.545  0.3248  0.1373 -0.3988
 5598TIP3    H138285   2.833   3.183   4.551  1.1011 -0.9053  0.9240
 5598TIP3    H238286   2.980   3.178   4.515  0.9663  0.6284  0.0561
 5599TIP3   OH238287   5.986   3.993  11.884  0.0912 -0.0838  0.0733
 5599TIP3    H138288   5.937   4.068  11.849 -0.0206 -0.4578 -0.5899
 5599TIP3    H238289   5.923   3.921  11.883  0.8789 -0.8134 -1.6741
 5600TIP3   OH238290   4.554   2.263   3.633 -0.1140 -0.3465  0.6652
 5600TIP3    H138291   4.610   2.311   3.572  2.2506 -2.0399  1.3114
 5600TIP3    H238292   4.582   2.172   3.623 -3.5663 -1.4852  0.3224
 5601TIP3   OH238293   1.851   2.672   0.550  0.4998 -0.2651 -0.2715
 5601TIP3    H138294   1.923   2.734   0.555  0.1993 -0.0181  2.1709
 5601TIP3    H238295   1.890   2.587   0.574 -0.2092  0.1423  2.7200
 5602TIP3   OH238296   1.724   3.492   5.324 -0.7928  0.3605 -0.1020
 5602TIP3    H138297   1.684   3.478   5.238 -1.4871 -0.3337  0.3179
 5602TIP3    H238298   1.678   3.569   5.359  1.3233  2.3260 -1.4040
 5603TIP3   OH238299   5.708   1.388   5.718  0.0763 -0.0317  0.0952
 5603TIP3    H138300   5.783   1.329   5.730  0.5170  0.1813 -1.3688
 5603TIP3    H238301   5.675   1.404   5.806  0.2953 -2.0129  0.5776
 5604TIP3   OH238302   2.127   1.181  11.924  0.7044  0.0153  0.0327
 5604TIP3    H138303   2.144   1.251  11.987 -0.4174 -0.8108  1.3254
 5604TIP3    H238304   2.068   1.121  11.971 -0.4402 -0.4776 -1.9200
 5605TIP3   OH238305   2.826   5.222  14.969  0.3517  0.6300  0.2530
 5605TIP3    H138306   2.856   5.246  15.057  0.2714 -1.6268  0.9500
 5605TIP3    H238307   2.735   5.195  14.982  0.3335  0.3036 -0.5255
 5606TIP3   OH238308   2.574   2.426  15.556 -0.0424  0.5987  0.2377
 5606TIP3    H138309   2.497   2.482  15.543  0.2404  0.9336 -0.0314
 5606TIP3    H238310   2.579   2.373  15.476 -0.9066 -0.5555  0.9303
 5607TIP3   OH238311   2.140   2.567  13.771  0.0338 -0.5101 -0.6239
 5607TIP3    H138312   2.174   2.644  13.817 -1.4905  0.0968 -0.4538
 5607TIP3    H238313   2.188   2.566  13.688 -0.2071  0.8636 -0.8103
 5608TIP3   OH238314   4.980   4.100  14.988  0.0255 -0.2300  0.7404
 5608TIP3    H138315   5.020   4.015  15.010  1.4887  0.0239 -0.7175
 5608TIP3    H238316   5.028   4.163  15.041  1.0862 -0.0106 -0.4345
 5609TIP3   OH238317   3.227   2.311  11.592 -0.4123 -0.1372 -0.2096
 5609TIP3    H138318   3.210   2.324  11.499 -0.9855  0.8440  0.0124
 5609TIP3    H238319   3.252   2.398  11.624  0.1785 -0.5524  0.4654
 5610TIP3   OH238320   0.596   3.946   2.290 -0.1343 -0.0958 -0.6361
 5610TIP3    H138321   0.597   3.986   2.377 -1.0934 -1.7420  0.1764
 5610TIP3    H238322   0.578   3.853   2.306  0.2207 -0.5409 -2.5626
 5611TIP3   OH238323   2.776   0.836   6.485 -0.0186 -0.2382  0.6049
 5611TIP3    H138324   2.747   0.855   6.575 -0.2911 -0.5283  0.5780
 5611TIP3    H238325   2.815   0.918   6.456 -0.6590  0.1118  0.7045
 5612TIP3   OH238326   3.969   0.731  15.924 -0.5437 -0.4580  0.1850
 5612TIP3    H138327   4.060   0.725  15.895 -0.3721  0.5451  0.4953
 5612TIP3    H238328   3.943   0.821  15.905 -0.8472 -0.1547  1.9063
 5613TIP3   OH238329   1.916   0.597   0.228 -0.2931 -0.6345 -0.2574
 5613TIP3    H138330   1.839   0.552   0.262 -1.4943 -0.2683 -2.3244
 5613TIP3    H238331   1.989   0.540   0.251 -1.0191 -0.5909  2.4717
 5614TIP3   OH238332   4.806   1.689  12.887 -0.1594  0.3996 -0.0993
 5614TIP3    H138333   4.793   1.767  12.833 -0.7988  0.9596  0.8377
 5614TIP3    H238334   4.717   1.659  12.907  0.0694  0.1731  0.5941
 5615TIP3   OH238335   3.589   5.177   4.530  0.1105 -0.3677 -0.4672
 5615TIP3    H138336   3.660   5.191   4.592  1.1656 -0.7157 -1.5595
 5615TIP3    H238337   3.580   5.260   4.485 -0.2096 -0.3111 -0.2991
 5616TIP3   OH238338   6.029   2.976   1.108 -0.2495  0.6833  0.7063
 5616TIP3    H138339   6.111   2.983   1.157  0.3035 -1.8497  0.2855
 5616TIP3    H238340   6.038   3.038   1.036  1.3340  0.3658  0.6090
 5617TIP3   OH238341   0.646   3.268  11.721  0.7803  0.4093 -0.9852
 5617TIP3    H138342   0.668   3.252  11.813 -2.2327  2.9510  0.3802
 5617TIP3    H238343   0.589   3.195  11.697  1.9713 -0.5247 -1.0612
 5618TIP3   OH238344   0.427   3.058  15.456 -0.2838 -0.4729  0.5924
 5618TIP3    H138345   0.359   3.007  15.412 -0.0983 -0.3040  0.0941
 5618TIP3    H238346   0.386   3.089  15.536  0.0997 -2.8079  1.7926
 5619TIP3   OH238347   0.115   2.224   4.668  0.1819 -0.1109  0.3915
 5619TIP3    H138348   0.096   2.131   4.654  1.5952 -0.7433  2.4013
 5619TIP3    H238349   0.028   2.264   4.676 -0.5527 -0.7983 -2.5818
 5620TIP3   OH238350   2.567   3.003  11.708 -0.3674 -0.4358  0.3724
 5620TIP3    H138351   2.514   2.968  11.637  0.3302  3.6273 -2.5059
 5620TIP3    H238352   2.505   3.052  11.763 -0.3209  0.4947 -0.3661
 5621TIP3   OH238353   3.546   1.912  16.719 -0.0905 -0.1077  0.0156
 5621TIP3    H138354   3.542   1.828  16.765  2.5072 -0.1843  0.2308
 5621TIP3    H238355   3.464   1.915  16.668 -0.5144 -2.4931  0.4286
 5622TIP3   OH238356   1.007   2.073   0.957  0.1815 -0.4964  0.7031
 5622TIP3    H138357   1.091   2.118   0.959 -0.1872  0.2179  2.3726
 5622TIP3    H238358   0.966   2.096   1.041 -1.0073 -2.0798  0.6114
 5623TIP3   OH238359   4.765   4.052  16.853 -0.1708 -0.5042 -0.3119
 5623TIP3    H138360   4.694   4.108  16.885 -1.0450 -1.3380 -0.7510
 5623TIP3    H238361   4.790   3.999  16.928  1.5700  1.3259  0.4949
 5624TIP3   OH238362   5.781   3.598   5.595  0.2769 -0.7826  0.3303
 5624TIP3    H138363   5.842   3.660   5.556  0.6449 -1.5894 -0.4182
 5624TIP3    H238364   5.699   3.611   5.549  0.0706 -0.1690  0.8641
 5625TIP3   OH238365   3.315   3.288  15.293 -0.3568 -0.0138 -0.0017
 5625TIP3    H138366   3.272   3.341  15.360  0.8786  1.6824 -0.4838
 5625TIP3    H238367   3.395   3.257  15.335 -1.4687 -2.2927  0.5574
 5626TIP3   OH238368   0.845   0.041   5.014 -0.0589  0.6168  0.2183
 5626TIP3    H138369   0.751   0.027   5.004  0.0200 -0.4106  0.7683
 5626TIP3    H238370   0.864   0.011   5.103  0.8912  0.2131 -0.1029
 5627TIP3   OH238371   1.089   1.806  15.541 -0.6504 -0.8722  0.2971
 5627TIP3    H138372   1.014   1.865  15.536  1.2290  1.7564  1.0464
 5627TIP3    H238373   1.059   1.734  15.596 -2.1948  0.8719  1.9002
 5628TIP3   OH238374   2.991   3.218   2.275 -0.3750  0.0189  0.4123
 5628TIP3    H138375   2.904   3.210   2.236 -0.8511  2.0113  0.9120
 5628TIP3    H238376   3.041   3.269   2.211 -0.4555  1.2802  1.3117
 5629TIP3   OH238377   6.366   5.040  17.003  0.2793  0.2979  0.1476
 5629TIP3    H138378   6.346   5.066  16.913  0.3773  0.6279  0.2200
 5629TIP3    H238379   6.461   5.053  17.011  0.4049 -0.5321  0.0431
 5630TIP3   OH238380   0.128   5.571   3.791  0.2041  0.2709 -0.2867
 5630TIP3    H138381   0.218   5.593   3.766  1.1259 -2.1647  0.6656
 5630TIP3    H238382   0.105   5.638   3.856  1.0047  1.3959 -1.1177
 5631TIP3   OH238383   5.683   1.157  12.247 -0.2279 -0.2462 -0.1469
 5631TIP3    H138384   5.599   1.203  12.243  0.4321  1.1699  1.0625
 5631TIP3    H238385   5.744   1.215  12.200  0.5458 -0.0136  1.0749
 5632TIP3   OH238386   3.150   6.782  16.609  0.7948 -0.1114  0.1792
 5632TIP3    H138387   3.221   6.838  16.638  1.7533 -1.4345  0.5082
 5632TIP3    H238388   3.075   6.841  16.597  2.2920  1.5702 -1.5747
 5633TIP3   OH238389   4.542   4.796   0.334 -0.3818  0.5550 -0.1770
 5633TIP3    H138390   4.530   4.702   0.347 -1.6871  0.6505 -0.5880
 5633TIP3    H238391   4.534   4.809   0.239  0.9748  0.9362 -0.2586
 5634TIP3   OH238392   5.283   4.316  12.024 -0.6192  0.3538  0.2328
 5634TIP3    H138393   5.271   4.238  12.078  1.2775  0.1039  0.3772
 5634TIP3    H238394   5.200   4.363  12.030 -0.3884  0.5496  3.7550
 5635TIP3   OH238395   0.349   0.982   1.629 -0.2137  0.2192 -0.3997
 5635TIP3    H138396   0.288   0.987   1.556 -0.2778  0.8528 -0.3101
 5635TIP3    H238397   0.303   0.932   1.696 -1.6449  2.6569  0.5947
 5636TIP3   OH238398   0.026   4.402  13.537 -0.1989  0.4438  0.0973
 5636TIP3    H138399   0.101   4.351  13.567 -0.3537  1.5424  2.5540
 5636TIP3    H238400  -0.037   4.336  13.506  0.7018 -0.6544  0.5453
 5637TIP3   OH238401   1.836   1.882   0.198 -0.1242  0.7579 -0.1819
 5637TIP3    H138402   1.781   1.911   0.271 -0.1496  0.0948  0.0740
 5637TIP3    H238403   1.879   1.803   0.232 -1.7305 -0.8123 -1.5978
 5638TIP3   OH238404   3.519   4.896  15.519 -0.4246  0.3162 -0.0390
 5638TIP3    H138405   3.445   4.928  15.466 -0.1817 -1.3150 -1.4731
 5638TIP3    H238406   3.515   4.801  15.510 -0.7619 -0.1290  3.5301
 5639TIP3   OH238407   2.182   4.207   4.110 -0.0803  0.4147  0.1296
 5639TIP3    H138408   2.258   4.262   4.131 -0.5686  1.5007 -0.8289
 5639TIP3    H238409   2.210   4.154   4.035 -0.6427  1.7611 -1.0871
 5640TIP3   OH238410   6.086   4.082   0.758 -0.2916 -0.1358  0.3780
 5640TIP3    H138411   6.120   3.999   0.790 -0.5547 -0.8079 -1.0483
 5640TIP3    H238412   5.991   4.070   0.753 -0.3623  0.3549  0.4363
 5641TIP3   OH238413   3.944   3.910   3.030  0.1630 -0.0614 -0.7189
 5641TIP3    H138414   3.921   3.916   2.937 -1.3620  1.7403 -0.2780
 5641TIP3    H238415   3.890   3.839   3.064  0.5270 -0.5448 -1.1384
 5642TIP3   OH238416   1.715   0.157  16.304  0.1541  0.2045 -0.1973
 5642TIP3    H138417   1.805   0.129  16.291  0.0853  0.4839 -1.3595
 5642TIP3    H238418   1.668   0.122  16.229 -0.8375 -0.4630  0.7078
 5643TIP3   OH238419   2.907   2.810  12.979  0.5467  0.1056  0.7164
 5643TIP3    H138420   2.957   2.858  12.913 -0.5481  3.5575  2.1636
 5643TIP3    H238421   2.820   2.851  12.977 -1.4415 -3.6581  0.3397
 5644TIP3   OH238422   4.160   2.824  12.690  0.0156  0.1618  0.4751
 5644TIP3    H138423   4.231   2.768  12.722  0.5494  1.2689  1.3180
 5644TIP3    H238424   4.109   2.767  12.632  0.6305 -1.1326  1.1461
 5645TIP3   OH238425   3.111   1.553  17.037 -0.7429 -0.0965  0.3180
 5645TIP3    H138426   3.090   1.580  17.127 -0.6911 -0.4230  0.4299
 5645TIP3    H238427   3.090   1.460  17.035  0.1020 -0.2933  0.2491
 5646TIP3   OH238428   4.626   3.606   1.967  0.4638 -0.9953  0.0827
 5646TIP3    H138429   4.653   3.639   2.053 -0.3796  1.4157 -0.4905
 5646TIP3    H238430   4.695   3.634   1.907 -0.4827  0.2389 -0.4904
 5647TIP3   OH238431   3.491   4.615   0.030 -0.2069 -0.1129 -0.1337
 5647TIP3    H138432   3.574   4.647   0.068  0.5341 -0.3527 -1.4868
 5647TIP3    H238433   3.437   4.594   0.106  1.5580 -1.4630  0.8299
 5648TIP3   OH238434   4.681   6.511  12.156  0.2499 -0.2910  0.3924
 5648TIP3    H138435   4.635   6.482  12.235  0.9436 -2.9787 -0.0976
 5648TIP3    H238436   4.611   6.530  12.094 -0.2536 -0.2673  0.9548
 5649TIP3   OH238437   5.892   0.389   4.115 -0.4439  0.5273  0.6720
 5649TIP3    H138438   5.941   0.358   4.191 -0.4469 -1.1027  0.0508
 5649TIP3    H238439   5.943   0.361   4.040 -1.2432  0.7081  0.0406
 5650TIP3   OH238440   4.136   2.787   1.136 -0.0998 -0.0764  0.3304
 5650TIP3    H138441   4.071   2.721   1.161 -0.3866  0.3942  0.8499
 5650TIP3    H238442   4.122   2.859   1.197 -0.8340  1.1272 -1.1922
 5651TIP3   OH238443   5.539   2.599  16.129  0.7240 -0.0708 -0.1501
 5651TIP3    H138444   5.536   2.670  16.194 -2.8064 -0.2857  0.0872
 5651TIP3    H238445   5.553   2.520  16.182  1.4521  0.1002 -0.0754
 5652TIP3   OH238446   5.574   5.995  13.849 -0.2192  0.0685 -0.4545
 5652TIP3    H138447   5.506   6.012  13.914 -0.0181 -2.1208  0.4110
 5652TIP3    H238448   5.656   6.005  13.897 -0.0720 -1.7038 -0.2639
 5653TIP3   OH238449   4.377   0.392  15.666 -0.4804 -0.3267 -0.3115
 5653TIP3    H138450   4.420   0.401  15.751  0.7475  2.7078 -1.1200
 5653TIP3    H238451   4.285   0.409  15.685 -0.6235 -1.9591  0.6920
 5654TIP3   OH238452   1.528   5.968  14.627  0.3289 -0.8125  0.3841
 5654TIP3    H138453   1.542   5.874  14.631  0.5967 -0.8101 -0.3620
 5654TIP3    H238454   1.499   5.992  14.715  0.3807 -1.5685  0.6108
 5655TIP3   OH238455   5.112   4.968  10.568  0.5005 -0.5973  0.4416
 5655TIP3    H138456   5.109   5.057  10.532  1.2276 -0.5891  0.3920
 5655TIP3    H238457   5.020   4.944  10.579  0.2935  0.0735  0.2392
 5656TIP3   OH238458   2.833   4.754  11.363 -0.0779  0.3013  0.1095
 5656TIP3    H138459   2.740   4.740  11.350 -0.0639 -0.8014  1.0625
 5656TIP3    H238460   2.839   4.842  11.400 -0.7770  0.2289  0.4011
 5657TIP3   OH238461   3.782   4.096   2.053 -0.0184 -0.0432  0.1163
 5657TIP3    H138462   3.722   4.038   2.007  1.0050 -1.1670  0.1585
 5657TIP3    H238463   3.765   4.079   2.146  2.4155 -2.7040  0.2095
 5658TIP3   OH238464   4.067   2.264   4.378  0.1256 -0.1826 -0.0024
 5658TIP3    H138465   4.105   2.208   4.310  0.3250 -0.8341  0.6283
 5658TIP3    H238466   3.972   2.255   4.367  0.1073  1.1734 -1.3588
 5659TIP3   OH238467   5.509   3.504   2.131 -1.1318  0.1084  0.1937
 5659TIP3    H138468   5.580   3.531   2.189 -0.6981  0.1978 -0.3697
 5659TIP3    H238469   5.505   3.572   2.064 -0.5279 -0.7953 -0.8140
 5660TIP3   OH238470   6.454   1.914  12.163 -0.1793  0.2442 -0.2252
 5660TIP3    H138471   6.441   1.954  12.077 -2.4737  1.5156  0.6155
 5660TIP3    H238472   6.393   1.961  12.221  1.2883 -0.5560  2.1138
 5661TIP3   OH238473   4.747   3.726  12.144 -0.4216  0.2479 -0.0789
 5661TIP3    H138474   4.661   3.687  12.129 -0.4738 -0.1694  1.1950
 5661TIP3    H238475   4.809   3.661  12.114 -0.4904 -1.1612  2.5141
 5662TIP3   OH238476   4.062   5.317   4.338  0.3552 -0.0028 -0.3956
 5662TIP3    H138477   4.100   5.343   4.254  0.7099  0.9127  0.0442
 5662TIP3    H238478   4.083   5.388   4.398  1.6753 -1.4250  0.9512
 5663TIP3   OH238479   3.708   2.843  15.246 -0.5154 -0.2320  0.4013
 5663TIP3    H138480   3.734   2.752  15.261  2.5490  0.5231  0.3655
 5663TIP3    H238481   3.682   2.846  15.154  0.7419 -0.8571 -0.0097
 5664TIP3   OH238482   2.959   3.738  13.415 -0.0507 -0.3339  0.1926
 5664TIP3    H138483   3.011   3.771  13.342 -1.3998 -2.7819 -2.0669
 5664TIP3    H238484   3.012   3.668  13.453  0.5541  0.7885  1.5238
 5665TIP3   OH238485   5.345   3.676  11.513  0.1702 -0.2324  1.0751
 5665TIP3    H138486   5.291   3.697  11.437 -1.0688  1.7878  2.4306
 5665TIP3    H238487   5.349   3.580  11.514 -0.4129 -0.3288 -1.0726
 5666TIP3   OH238488   6.090   4.986  13.482 -0.7509 -0.1395 -0.2201
 5666TIP3    H138489   5.996   5.005  13.477 -0.6535  0.1241 -1.6125
 5666TIP3    H238490   6.110   4.943  13.398  0.5834  0.8361 -0.4421
 5667TIP3   OH238491   0.182   3.595  14.036 -0.0066 -0.3964 -0.4120
 5667TIP3    H138492   0.093   3.629  14.046  0.7904  1.3752  1.5837
 5667TIP3    H238493   0.198   3.547  14.118  1.3773  0.6632 -0.0265
 5668TIP3   OH238494   1.595   5.228   1.147 -0.7436 -0.3321  0.3402
 5668TIP3    H138495   1.511   5.200   1.184 -1.0914 -0.4046 -0.4900
 5668TIP3    H238496   1.640   5.146   1.127  0.4164 -0.3523  2.6655
 5669TIP3   OH238497   1.750   3.719  16.408  0.1369 -0.1815  0.3804
 5669TIP3    H138498   1.688   3.729  16.481 -1.6907 -0.9523 -0.9887
 5669TIP3    H238499   1.771   3.809  16.382 -1.1978  0.1189  0.2655
 5670TIP3   OH238500   2.998   0.566  11.541  0.4945  0.1577 -0.8292
 5670TIP3    H138501   2.989   0.497  11.474  0.2627 -1.2027  0.5446
 5670TIP3    H238502   3.092   0.577  11.551  0.5490  1.2143 -2.1659
 5671TIP3   OH238503   5.226   6.006  12.451 -0.5391 -0.1921 -0.5339
 5671TIP3    H138504   5.316   6.036  12.467 -0.8518  0.0942  0.8052
 5671TIP3    H238505   5.232   5.911  12.453 -0.4104 -0.1769  0.5837
 5672TIP3   OH238506   0.146   0.155   0.675 -0.0540 -0.2220 -0.0851
 5672TIP3    H138507   0.179   0.180   0.589  0.0393 -2.1058 -0.6343
 5672TIP3    H238508   0.220   0.114   0.719 -0.9756 -2.4520 -0.4852
 5673TIP3   OH238509   0.025   6.547   3.444  0.1682  0.1204 -0.0512
 5673TIP3    H138510   0.096   6.539   3.381 -0.8017  1.2249 -1.3328
 5673TIP3    H238511  -0.055   6.544   3.392 -0.6697  1.0228  1.1086
 5674TIP3   OH238512   6.545   3.418  15.201 -0.5525 -0.4783  0.2432
 5674TIP3    H138513   6.621   3.391  15.150 -0.9918 -1.1399 -0.0646
 5674TIP3    H238514   6.556   3.513  15.212 -0.8384 -0.1855 -1.7235
 5675TIP3   OH238515   6.534   5.232  17.223  0.1281  0.0028  0.1100
 5675TIP3    H138516   6.501   5.158  17.274  0.8440  0.6157  1.5069
 5675TIP3    H238517   6.601   5.193  17.166 -0.7380 -0.6979 -0.4776
 5676TIP3   OH238518   2.949   6.162  14.871  0.1820 -0.3783 -0.1273
 5676TIP3    H138519   2.879   6.111  14.831 -1.0106  0.5807  0.6371
 5676TIP3    H238520   2.905   6.212  14.940  1.4370  0.9833 -0.2590
 5677TIP3   OH238521   3.191   2.668  14.616  0.1966  0.1330 -0.1458
 5677TIP3    H138522   3.205   2.678  14.710 -1.3256 -1.3242  0.2938
 5677TIP3    H238523   3.265   2.615  14.586  0.2569 -0.0972  0.3951
 5678TIP3   OH238524   6.768   3.090   5.006  0.2672  0.5341 -0.4469
 5678TIP3    H138525   6.780   2.997   5.020 -2.5507  0.3186  1.2999
 5678TIP3    H238526   6.722   3.097   4.923  2.3875  0.6123 -1.6871
 5679TIP3   OH238527   4.654   5.010   1.487 -0.0979  0.2332 -0.1901
 5679TIP3    H138528   4.619   5.094   1.517 -2.3696 -1.5899  2.9256
 5679TIP3    H238529   4.741   5.005   1.526  0.7178  1.7127 -1.7171
 5680TIP3   OH238530   1.693   5.355  17.233 -0.5502  0.1184 -0.0160
 5680TIP3    H138531   1.639   5.399  17.298 -0.5293 -0.2487  0.2509
 5680TIP3    H238532   1.769   5.412  17.222  0.7829 -1.0557  2.2504
 5681TIP3   OH238533   3.326   5.018   5.674 -0.0800 -0.2657  0.0260
 5681TIP3    H138534   3.385   5.087   5.643  0.5941 -0.2397  1.3235
 5681TIP3    H238535   3.382   4.958   5.722 -0.8654 -1.1029 -0.0812
 5682TIP3   OH238536   2.658   4.752  16.783 -0.1131  0.3201  0.0105
 5682TIP3    H138537   2.640   4.664  16.817 -1.6873  0.6802  0.1796
 5682TIP3    H238538   2.741   4.743  16.736  0.2647 -1.0182  0.8817
 5683TIP3   OH238539   2.635   1.445  15.959 -0.1920 -0.6085 -0.4006
 5683TIP3    H138540   2.717   1.494  15.961 -1.0930  0.9505 -0.1573
 5683TIP3    H238541   2.647   1.380  15.890  1.7506 -1.3765  0.6023
 5684TIP3   OH238542   6.503   4.290   4.673  0.2771  0.0452  0.1132
 5684TIP3    H138543   6.550   4.360   4.720  1.9524 -0.6208 -0.4832
 5684TIP3    H238544   6.454   4.245   4.742 -0.0743  1.1935  0.6590
 5685TIP3   OH238545   0.922   6.022   4.326  0.1686  0.2945 -0.3632
 5685TIP3    H138546   0.882   6.104   4.299 -0.4394 -0.2881 -1.2748
 5685TIP3    H238547   0.985   6.001   4.257 -1.5126 -1.2814 -1.5013
 5686TIP3   OH238548   4.261   6.814   1.353  0.0263  0.3149  0.6024
 5686TIP3    H138549   4.178   6.769   1.365  0.3910 -0.3664  0.6320
 5686TIP3    H238550   4.237   6.903   1.328 -0.7107 -0.2263 -0.6955
 5687TIP3   OH238551   6.401   5.100  14.629 -0.0678 -0.0957 -0.7144
 5687TIP3    H138552   6.441   5.035  14.570 -0.9097 -2.0020  0.7041
 5687TIP3    H238553   6.357   5.161  14.570 -1.2027 -2.1380 -2.1472
 5688TIP3   OH238554   3.723   5.651   1.695 -0.3487  0.3330  0.2817
 5688TIP3    H138555   3.675   5.731   1.676 -0.5253 -0.1476 -1.4752
 5688TIP3    H238556   3.687   5.586   1.634 -1.2710 -1.5328  2.6534
 5689TIP3   OH238557   2.033   4.025  15.060  0.4424 -0.1075  0.5235
 5689TIP3    H138558   1.987   4.108  15.075 -0.6636 -0.2864 -1.5873
 5689TIP3    H238559   1.994   3.964  15.123  0.9146  0.8084  1.7475
 5690TIP3   OH238560   5.759   2.565  14.782 -0.7022  0.0800  0.2372
 5690TIP3    H138561   5.744   2.634  14.846  1.2245 -0.3887  1.2639
 5690TIP3    H238562   5.748   2.608  14.697 -1.0312  1.2680  0.8623
 5691TIP3   OH238563   6.444   2.592  14.471  0.6284 -0.3688 -0.4656
 5691TIP3    H138564   6.511   2.629  14.414  0.8407 -1.4728 -0.9610
 5691TIP3    H238565   6.369   2.576  14.412 -0.2596  1.2593  0.1583
 5692TIP3   OH238566   6.711   5.004  13.146  0.1363 -0.3698  0.0978
 5692TIP3    H138567   6.806   5.012  13.155 -0.0057 -0.4377  2.3957
 5692TIP3    H238568   6.691   5.043  13.061  2.0084  1.3866  0.3836
 5693TIP3   OH238569   5.765   1.430  17.083 -0.0600 -0.2621  0.7589
 5693TIP3    H138570   5.818   1.493  17.131  0.6448  0.8290 -1.3304
 5693TIP3    H238571   5.794   1.438  16.992 -3.6245  0.2417 -0.4901
 5694TIP3   OH238572   3.352   0.184   0.160  0.0336 -0.3052  0.0855
 5694TIP3    H138573   3.307   0.261   0.195 -2.7370 -1.4383 -0.7117
 5694TIP3    H238574   3.410   0.219   0.093 -1.7848  1.1027 -0.8672
 5695TIP3   OH238575   4.914   0.724   1.465  0.2037  1.2311  0.1823
 5695TIP3    H138576   4.839   0.696   1.518 -0.9922  2.8853 -0.5701
 5695TIP3    H238577   4.924   0.816   1.485  1.1027  1.3756 -0.8584
 5696TIP3   OH238578   1.176   6.731  15.689 -0.0520  0.2516 -0.1120
 5696TIP3    H138579   1.175   6.646  15.731 -3.2946 -0.0020 -0.4699
 5696TIP3    H238580   1.217   6.715  15.603  0.6103 -0.5985  0.3456
 5697TIP3   OH238581   2.430   6.501  13.165  0.6615 -0.2100 -0.0084
 5697TIP3    H138582   2.473   6.586  13.151  0.4526 -0.3754 -1.9412
 5697TIP3    H238583   2.348   6.523  13.208  1.6737  0.3128  1.7320
 5698TIP3   OH238584   0.596   1.642   1.992 -0.5463 -0.2058  0.1080
 5698TIP3    H138585   0.570   1.557   1.955 -1.0263 -0.1037  0.1996
 5698TIP3    H238586   0.607   1.698   1.915 -4.1789  0.7617  0.1164
 5699TIP3   OH238587   5.973   0.550   2.889  0.1819  0.2131 -0.0407
 5699TIP3    H138588   6.009   0.461   2.885  0.2095  0.2710 -1.6107
 5699TIP3    H238589   5.879   0.538   2.878 -0.3374  0.1301  3.3083
 5700TIP3   OH238590   4.685   3.440   2.817 -0.5304  0.4223 -0.1380
 5700TIP3    H138591   4.625   3.387   2.764 -1.7934  1.3504  0.2866
 5700TIP3    H238592   4.771   3.402   2.803 -1.0013 -0.0746 -1.9496
 5701TIP3   OH238593   2.145   1.214   2.612 -0.0031  0.2170 -0.5643
 5701TIP3    H138594   2.109   1.126   2.625 -0.5414  0.2829 -1.5160
 5701TIP3    H238595   2.179   1.213   2.523  0.1233  0.9345 -0.5311
 5702TIP3   OH238596   2.352   4.756  15.265 -0.0591  0.5470 -0.7143
 5702TIP3    H138597   2.262   4.774  15.292  0.1103 -0.4524  0.6490
 5702TIP3    H238598   2.391   4.713  15.341  1.6682  1.2380 -1.1774
 5703TIP3   OH238599   0.622   6.028   0.698  0.0726 -0.2602  0.1741
 5703TIP3    H138600   0.616   6.065   0.786 -1.8239 -0.9378  0.3846
 5703TIP3    H238601   0.570   5.948   0.702 -2.1936  0.9432 -2.1514
 5704TIP3   OH238602   1.278   4.579  15.453  0.0821 -0.3523  0.1181
 5704TIP3    H138603   1.295   4.508  15.391 -0.0725  0.9297 -1.4275
 5704TIP3    H238604   1.277   4.658  15.400 -0.1892  0.7779  1.7484
 5705TIP3   OH238605   6.049   5.658   1.770 -0.0445  0.4008 -0.1862
 5705TIP3    H138606   6.124   5.606   1.800  1.0187 -0.1360 -3.3050
 5705TIP3    H238607   5.973   5.610   1.801  0.8939 -0.1270  1.4154
 5706TIP3   OH238608   0.634   4.098   0.001 -0.6436  0.4889  0.8075
 5706TIP3    H138609   0.539   4.090   0.006 -0.5270 -0.1499  2.5318
 5706TIP3    H238610   0.666   4.007   0.002  0.0502  0.7165  2.6512
 5707TIP3   OH238611   1.773   2.407  14.884 -0.0669  0.1345 -0.0270
 5707TIP3    H138612   1.741   2.459  14.958  0.3757  1.3082 -0.6327
 5707TIP3    H238613   1.815   2.331  14.924  0.5310  0.9544  0.9609
 5708TIP3   OH238614   4.888   4.412  16.757 -0.4328 -0.0609  0.4210
 5708TIP3    H138615   4.892   4.391  16.664 -3.0006  0.6313  0.0947
 5708TIP3    H238616   4.979   4.405  16.786  0.2470 -1.6987 -1.7850
 5709TIP3   OH238617   5.024   1.293   4.872  0.0278  0.1590 -0.6406
 5709TIP3    H138618   5.029   1.389   4.878  1.0691  0.1411 -0.9545
 5709TIP3    H238619   4.976   1.267   4.951 -0.6932  0.9697 -0.8028
 5710TIP3   OH238620   2.919   6.474  12.263 -0.5956 -0.0883  0.1931
 5710TIP3    H138621   2.852   6.457  12.329  0.7729  1.4881  2.0838
 5710TIP3    H238622   2.886   6.548  12.213 -0.1722  0.8878  1.3256
 5711TIP3   OH238623   6.134   0.019   2.484 -0.1326  0.2737 -0.2302
 5711TIP3    H138624   6.129   0.090   2.548 -0.8106 -1.1303  1.3568
 5711TIP3    H238625   6.225  -0.012   2.490 -0.1279  0.3049 -0.1401
 5712TIP3   OH238626   4.068   0.918  13.122 -0.1321 -0.4644 -0.1689
 5712TIP3    H138627   4.005   0.924  13.194  0.9264 -0.2944  0.7754
 5712TIP3    H238628   4.117   0.837  13.138 -0.5447 -0.9562 -1.2733
 5713TIP3   OH238629   0.318   5.948  11.178 -0.8002 -0.3613 -0.1769
 5713TIP3    H138630   0.350   6.005  11.108 -1.3353 -0.9173 -0.8914
 5713TIP3    H238631   0.359   5.863  11.161  1.1257  0.1004  1.6984
 5714TIP3   OH238632   5.354   5.609   5.134  0.6265 -0.7670  0.1171
 5714TIP3    H138633   5.303   5.597   5.215 -0.9739 -1.9171 -0.9937
 5714TIP3    H238634   5.301   5.670   5.082  1.0802 -0.8961 -0.5035
 5715TIP3   OH238635   4.840   5.263   1.112  0.0239 -0.1705  0.4477
 5715TIP3    H138636   4.914   5.287   1.057 -0.9344 -1.6950 -1.6844
 5715TIP3    H238637   4.783   5.340   1.110  0.4042  0.1069 -0.0285
 5716TIP3   OH238638   1.637   0.973  14.079  0.0326  0.1134 -0.3354
 5716TIP3    H138639   1.685   1.051  14.106  4.7257 -3.1301  2.0137
 5716TIP3    H238640   1.678   0.946  13.997 -1.6927  0.0698 -1.2520
 5717TIP3   OH238641   2.139   2.291   3.880 -0.5700  0.3818 -0.6646
 5717TIP3    H138642   2.077   2.322   3.947 -0.1353  0.4434 -0.2853
 5717TIP3    H238643   2.192   2.225   3.925 -2.6834 -2.3935 -1.9391
 5718TIP3   OH238644   2.386   1.444   2.598 -0.1553  0.0022 -0.2313
 5718TIP3    H138645   2.421   1.501   2.530 -1.7105  1.2546 -0.0438
 5718TIP3    H238646   2.311   1.401   2.557  0.1535 -0.8356  0.0705
 5719TIP3   OH238647   3.114   6.731  14.275 -0.0937 -0.0698  0.1016
 5719TIP3    H138648   3.142   6.739  14.366  0.7430 -2.0206  0.0561
 5719TIP3    H238649   3.139   6.815  14.235  2.2751 -0.2743  0.9695
 5720TIP3   OH238650   0.440   3.677  15.901  0.3271 -0.1460  0.4109
 5720TIP3    H138651   0.372   3.640  15.957  1.0046 -1.0100  0.6815
 5720TIP3    H238652   0.433   3.772  15.913  0.3094 -0.3052  1.7782
 5721TIP3   OH238653   0.792   4.021  13.211 -0.3888 -0.1129 -0.1991
 5721TIP3    H138654   0.868   4.076  13.232 -0.6110 -0.2217  0.9436
 5721TIP3    H238655   0.817   3.977  13.130  0.1549  0.9907 -0.6523
 5722TIP3   OH238656   3.784   3.718  11.957  0.2635  0.1257  1.1569
 5722TIP3    H138657   3.747   3.682  11.876 -0.9010  3.4305  0.0704
 5722TIP3    H238658   3.879   3.707  11.946  0.1020  0.0207 -0.4476
 5723TIP3   OH238659   3.345   4.476  15.202 -0.2987 -0.4647 -0.1658
 5723TIP3    H138660   3.397   4.406  15.241  1.5610  0.3987 -0.9821
 5723TIP3    H238661   3.340   4.454  15.109  0.8738  0.7956 -0.5465
 5724TIP3   OH238662   5.684   3.922   3.943  0.3538  0.1810 -0.0888
 5724TIP3    H138663   5.772   3.885   3.941 -0.2125 -1.2513  0.1719
 5724TIP3    H238664   5.641   3.885   3.866 -0.8064 -1.2676  1.1926
 5725TIP3   OH238665   4.636   0.761  14.989  0.0585  0.0377 -0.1634
 5725TIP3    H138666   4.627   0.738  15.081  0.9506 -2.1987 -0.5631
 5725TIP3    H238667   4.610   0.682  14.942 -0.1184  1.0479 -1.8355
 5726TIP3   OH238668   0.205   4.365   5.456 -0.1744 -0.4269  0.6404
 5726TIP3    H138669   0.225   4.376   5.363 -1.9702  0.8138  0.3462
 5726TIP3    H238670   0.287   4.337   5.495  0.9327  0.1794 -1.1220
 5727TIP3   OH238671   0.759   1.850   5.410 -0.0129 -0.0591  0.1531
 5727TIP3    H138672   0.677   1.863   5.362  0.6507 -0.6895 -1.2148
 5727TIP3    H238673   0.804   1.780   5.362  1.5171  0.5718  0.5953
 5728TIP3   OH238674   3.580   4.215  11.335  0.1050 -0.5074  0.6953
 5728TIP3    H138675   3.631   4.234  11.414  2.6644 -0.7631 -0.7897
 5728TIP3    H238676   3.620   4.136  11.298 -2.4399 -1.6912  0.2260
 5729TIP3   OH238677   0.063   2.563  15.545  0.1854 -0.3516 -0.1138
 5729TIP3    H138678   0.047   2.617  15.623 -1.4812  1.9458 -1.9069
 5729TIP3    H238679   0.158   2.554  15.541  0.3681  0.4730  1.5353
 5730TIP3   OH238680   4.008   6.692   6.198 -0.3257  0.1790  0.6328
 5730TIP3    H138681   3.989   6.648   6.281 -0.4127 -0.1952  0.4195
 5730TIP3    H238682   4.014   6.620   6.134  1.4032  0.2974  0.6100
 5731TIP3   OH238683   5.063   4.908  11.718  0.5964 -0.2443  0.8229
 5731TIP3    H138684   5.069   4.990  11.767 -0.6314 -0.0155  0.6313
 5731TIP3    H238685   5.152   4.894  11.684  0.7535  1.2007  0.5523
 5732TIP3   OH238686   3.059   1.216   2.016 -0.4036  0.5174  0.3515
 5732TIP3    H138687   3.111   1.154   2.066 -0.4028 -0.6236 -1.0069
 5732TIP3    H238688   3.073   1.192   1.925 -1.7849  1.4153 -0.1385
 5733TIP3   OH238689   4.988   5.525  12.367  0.0780 -0.0855  0.5218
 5733TIP3    H138690   4.959   5.438  12.395  0.3712  0.1141  1.4973
 5733TIP3    H238691   5.007   5.515  12.274 -1.2716 -0.6936  0.2852
 5734TIP3   OH238692   6.495   1.418  11.247 -0.5608 -0.0109  0.0422
 5734TIP3    H138693   6.544   1.349  11.201 -0.1741 -0.5797  1.2724
 5734TIP3    H238694   6.554   1.447  11.316 -0.6077  1.7753 -0.6144
 5735TIP3   OH238695   1.664   5.411   6.419  0.2324  0.0621  0.6178
 5735TIP3    H138696   1.569   5.398   6.412  0.5776 -2.5057 -0.2647
 5735TIP3    H238697   1.678   5.436   6.511 -1.3114  0.8246  0.6777
 5736TIP3   OH238698   3.368   2.751  15.940 -0.3718  0.3257  0.7499
 5736TIP3    H138699   3.449   2.715  15.904 -0.6554 -2.1285  2.3249
 5736TIP3    H238700   3.392   2.780  16.028 -1.0757  0.1460  1.0046
 5737TIP3   OH238701   3.497   6.335  12.937  0.3833  0.1887  0.7028
 5737TIP3    H138702   3.530   6.270  12.999  1.7429  0.2274  0.0624
 5737TIP3    H238703   3.527   6.419  12.972  1.0018  0.2244  0.1020
 5738TIP3   OH238704   5.191   2.912  14.528  0.6262 -0.0605  0.1848
 5738TIP3    H138705   5.237   2.857  14.465  1.0764  1.4681 -0.8648
 5738TIP3    H238706   5.100   2.911  14.498  0.6098 -0.2883  0.2336
 5739TIP3   OH238707   4.438   0.749  16.456 -0.2567 -0.4825  0.0861
 5739TIP3    H138708   4.480   0.740  16.370  0.6863 -0.9759  0.5830
 5739TIP3    H238709   4.371   0.817  16.443  1.1963  0.9056 -0.5658
 5740TIP3   OH238710   5.042   2.495  16.734  0.5075 -0.3373 -0.0443
 5740TIP3    H138711   4.982   2.424  16.713  1.5073 -1.0970 -0.4132
 5740TIP3    H238712   5.108   2.455  16.791  0.6005  0.5107  0.4653
 5741TIP3   OH238713   0.006   5.390  11.907  0.3787 -0.4832 -0.8573
 5741TIP3    H138714   0.003   5.296  11.924  1.2546 -0.5685 -1.1256
 5741TIP3    H238715  -0.083   5.413  11.881 -0.0251 -1.0851 -0.0334
 5742TIP3   OH238716   5.555   6.792   2.659 -0.5749  0.2831  0.0940
 5742TIP3    H138717   5.464   6.823   2.655 -0.4484  0.4904 -2.1097
 5742TIP3    H238718   5.606   6.871   2.677 -0.4992  1.0390 -2.9275
 5743TIP3   OH238719   6.625   3.529   3.984 -0.0688 -0.1039  0.1686
 5743TIP3    H138720   6.585   3.592   3.924  1.5558 -1.0457 -1.9927
 5743TIP3    H238721   6.559   3.460   3.993  0.4593 -1.0568 -2.4092
 5744TIP3   OH238722   5.881   6.156  16.921  0.3067 -0.0359  0.5667
 5744TIP3    H138723   5.829   6.229  16.888 -0.4924 -1.7549 -2.2897
 5744TIP3    H238724   5.969   6.193  16.933 -0.5437  1.8683  1.3463
 5745TIP3   OH238725   3.035   6.749  14.993  0.1133  0.0255 -0.5219
 5745TIP3    H138726   2.970   6.680  15.006  1.0508 -0.5122  2.1126
 5745TIP3    H238727   3.070   6.734  14.905 -3.6067  0.7023 -2.2894
 5746TIP3   OH238728   2.508   5.552   6.379 -1.0230 -0.1311 -0.2106
 5746TIP3    H138729   2.524   5.458   6.369 -0.0665 -0.2258  1.7534
 5746TIP3    H238730   2.596   5.590   6.382 -1.3813  0.6582  0.3386
 5747TIP3   OH238731   5.436   0.917   1.158 -0.0522  0.3113 -0.1473
 5747TIP3    H138732   5.516   0.959   1.190  0.4933  0.5310 -1.7282
 5747TIP3    H238733   5.467   0.842   1.108 -0.7325  0.9932 -1.6727
 5748TIP3   OH238734   3.558   6.506   2.377 -0.0375 -0.2418 -0.1754
 5748TIP3    H138735   3.613   6.562   2.431 -0.8619 -1.0093  1.5371
 5748TIP3    H238736   3.620   6.447   2.333  0.5774 -0.7698  1.3386
 5749TIP3   OH238737   6.455   1.153  13.037  0.3316  0.3899  0.3696
 5749TIP3    H138738   6.465   1.220  12.970  1.6287 -0.4006 -0.2623
 5749TIP3    H238739   6.454   1.070  12.989  3.0001 -0.3310  1.3671
 5750TIP3   OH238740   6.613   0.793  12.974 -0.2119 -0.3766 -0.3593
 5750TIP3    H138741   6.553   0.826  13.041 -1.2250 -1.3359 -0.7637
 5750TIP3    H238742   6.676   0.864  12.961 -0.8806  0.4035  0.5316
 5751TIP3   OH238743   5.996   5.928  16.032 -0.7960  0.5521 -1.0052
 5751TIP3    H138744   5.937   5.852  16.030 -0.3342  0.1676 -0.3147
 5751TIP3    H238745   6.071   5.901  15.978 -1.3265  1.1177 -2.0514
 5752TIP3   OH238746   6.708   4.005  12.149 -0.0695  0.2141  0.3993
 5752TIP3    H138747   6.792   4.035  12.116 -0.4021  1.1462  0.3793
 5752TIP3    H238748   6.665   3.964  12.074  0.1808  0.1330  0.3009
 5753TIP3   OH238749   5.035   6.157   2.642 -0.4595  0.3623 -0.2683
 5753TIP3    H138750   5.005   6.230   2.696  0.2282 -0.9927  2.0998
 5753TIP3    H238751   5.027   6.081   2.699  3.0197 -0.7778 -1.0742
 5754TIP3   OH238752   6.454   1.053   6.595  0.0440  0.3060 -0.5556
 5754TIP3    H138753   6.534   1.002   6.603 -0.5462 -0.8309 -1.4981
 5754TIP3    H238754   6.483   1.142   6.578  1.1076 -0.0953 -0.9072
 5755TIP3   OH238755   0.274   4.513   5.888 -0.4808  0.9152  0.1063
 5755TIP3    H138756   0.267   4.578   5.818 -1.0430  1.5064  0.6951
 5755TIP3    H238757   0.198   4.456   5.875  1.0283 -0.8546 -1.5810
 5756TIP3   OH238758   5.592   2.646   1.453  0.1846  0.1930  0.1122
 5756TIP3    H138759   5.648   2.679   1.523 -0.8527  0.5569  0.7892
 5756TIP3    H238760   5.509   2.628   1.496  0.7627 -3.8108 -0.0440
 5757TIP3   OH238761   1.658   3.135  15.730 -0.5203  0.3630 -0.0575
 5757TIP3    H138762   1.571   3.171  15.743 -0.3998  1.3954 -1.7671
 5757TIP3    H238763   1.656   3.099  15.641  0.0968 -1.7840  0.7374
 5758TIP3   OH238764   4.599   2.680   0.660 -0.0889 -0.5844  0.0526
 5758TIP3    H138765   4.515   2.650   0.627 -0.0438 -0.4439 -0.1957
 5758TIP3    H238766   4.651   2.600   0.671  0.9025 -0.5012 -2.9703
 5759TIP3   OH238767   0.835   6.219  16.813 -0.8838 -0.0415 -0.0448
 5759TIP3    H138768   0.903   6.255  16.756 -1.8284  1.3017 -0.3679
 5759TIP3    H238769   0.852   6.125  16.814  0.4431  0.1596 -0.8102
 5760TIP3   OH238770   3.209   3.883   1.593  0.2145  0.5571 -0.1584
 5760TIP3    H138771   3.293   3.870   1.638  0.4669  1.7664 -0.2474
 5760TIP3    H238772   3.190   3.798   1.554  0.7776 -0.0904  0.9059
 5761TIP3   OH238773   0.290   1.341   0.497 -0.0309 -0.3962 -0.2054
 5761TIP3    H138774   0.336   1.418   0.462 -0.6428  0.0701  0.0087
 5761TIP3    H238775   0.356   1.295   0.549 -0.1629  1.0627  1.3379
 5762TIP3   OH238776   4.290   1.269  15.272 -0.2814 -0.3037 -0.1125
 5762TIP3    H138777   4.339   1.313  15.203  0.3214 -2.5799 -1.2374
 5762TIP3    H238778   4.284   1.334  15.342  0.9616  1.3493 -1.4445
 5763TIP3   OH238779   6.332   3.583  15.735  0.5480  0.6212  0.4213
 5763TIP3    H138780   6.278   3.629  15.671  1.3758  0.5469 -0.3589
 5763TIP3    H238781   6.341   3.495  15.700 -0.7002 -0.0579  1.7134
 5764TIP3   OH238782   6.406   0.007   2.798 -0.0336 -0.6358  0.5150
 5764TIP3    H138783   6.375   0.091   2.830 -1.2975 -0.4991 -0.9678
 5764TIP3    H238784   6.451  -0.032   2.873  0.9958  1.5239  1.0995
 5765TIP3   OH238785   4.693   2.344  15.785  0.2643 -0.1732 -0.4304
 5765TIP3    H138786   4.706   2.439  15.782 -1.3813  0.0666 -1.0894
 5765TIP3    H238787   4.722   2.313  15.699  1.0336 -0.3086 -0.1258
 5766TIP3   OH238788   2.128   3.135   5.918  0.0075  0.0188 -0.5096
 5766TIP3    H138789   2.036   3.159   5.929 -0.1526 -0.5731 -0.5278
 5766TIP3    H238790   2.163   3.202   5.859 -0.6716 -0.3382 -1.3445
 5767TIP3   OH238791   5.354   6.574  11.436  0.2053  0.1482 -0.0099
 5767TIP3    H138792   5.380   6.600  11.347 -2.4594 -0.3568 -1.0248
 5767TIP3    H238793   5.272   6.621  11.452 -0.2270 -1.0318  1.5139
 5768TIP3   OH238794   2.050   5.587  16.875 -0.5996 -0.3796  0.4671
 5768TIP3    H138795   2.064   5.564  16.783  0.1023 -0.8178  0.6728
 5768TIP3    H238796   2.006   5.672  16.873  0.2490  0.0565 -0.2637
 5769TIP3   OH238797   3.446   1.352  10.913 -0.8312 -0.6074 -0.7769
 5769TIP3    H138798   3.517   1.416  10.920  0.6209 -2.3323  1.7556
 5769TIP3    H238799   3.400   1.377  10.833 -0.0429  3.2142 -0.2470
 5770TIP3   OH238800   2.730   6.252  15.234 -1.2795  0.4449  0.1498
 5770TIP3    H138801   2.668   6.245  15.307 -2.1531  0.1653 -0.5947
 5770TIP3    H238802   2.711   6.176  15.180  0.7265 -0.4458  0.6330
 5771TIP3   OH238803   1.786   2.820  15.965 -0.4519 -0.1090 -0.2419
 5771TIP3    H138804   1.875   2.842  15.938  0.5367  0.0228  2.7380
 5771TIP3    H238805   1.793   2.732  16.002 -2.0257 -0.9389 -1.7803
 5772TIP3   OH238806   6.057   2.763  13.719  0.3867 -0.1514 -0.4432
 5772TIP3    H138807   6.080   2.826  13.787  0.1265  0.3198 -0.7854
 5772TIP3    H238808   6.014   2.692  13.765 -1.0309  0.7944 -0.2631
 5773TIP3   OH238809   2.259   0.194  15.778  0.5182 -0.1194 -0.2936
 5773TIP3    H138810   2.325   0.130  15.805 -0.8411 -0.8789  1.3887
 5773TIP3    H238811   2.204   0.205  15.855 -0.7164  1.2725 -1.3397
 5774TIP3   OH238812   1.627   1.125  13.405 -0.2850  0.2763  0.2810
 5774TIP3    H138813   1.694   1.074  13.360  0.4506  2.1670 -0.8754
 5774TIP3    H238814   1.549   1.116  13.350 -0.0188  0.7632 -0.1859
 5775TIP3   OH238815   3.886   5.182   5.096 -0.4813 -0.4453  0.1302
 5775TIP3    H138816   3.950   5.131   5.046  0.1915  0.7401 -0.2510
 5775TIP3    H238817   3.808   5.127   5.098  0.7425 -2.2466  1.1972
 5776TIP3   OH238818   4.578   0.440   1.980  0.4619 -0.2312 -0.0137
 5776TIP3    H138819   4.552   0.424   1.890  0.0243 -1.8050  0.3624
 5776TIP3    H238820   4.495   0.456   2.026  0.5194 -1.0782  0.4033
 5777TIP3   OH238821   0.037   0.217  11.834 -0.0724 -0.0655  0.2356
 5777TIP3    H138822   0.012   0.257  11.917  1.4926  2.5384 -0.4271
 5777TIP3    H238823  -0.013   0.265  11.768  0.7371 -0.2048 -0.5027
 5778TIP3   OH238824   4.678   1.356  12.036  0.1447 -0.5557 -0.2644
 5778TIP3    H138825   4.637   1.434  12.074  0.1592 -0.6172 -0.1220
 5778TIP3    H238826   4.606   1.294  12.028  0.2529 -0.7388  0.1847
 5779TIP3   OH238827   5.500   6.073  15.878 -0.1859  0.1678 -0.1270
 5779TIP3    H138828   5.409   6.088  15.904 -1.1126 -1.9841 -1.8157
 5779TIP3    H238829   5.502   6.092  15.784  0.4514 -2.0478 -0.6291
 5780TIP3   OH238830   4.727   1.990  15.350  0.4376  0.1479 -0.5442
 5780TIP3    H138831   4.735   1.940  15.269  1.3221  1.8653 -1.5639
 5780TIP3    H238832   4.640   1.966  15.384 -0.0274 -0.4685 -2.0852
 5781TIP3   OH238833   3.896   6.320   1.996 -0.8649 -0.0124 -0.7645
 5781TIP3    H138834   3.936   6.242   1.957 -0.6072 -1.0062  1.3358
 5781TIP3    H238835   3.968   6.382   2.004 -0.8264  0.0370 -1.4081
 5782TIP3   OH238836   2.006   6.085   2.191  0.0564 -0.0721  0.1132
 5782TIP3    H138837   2.067   6.158   2.199 -1.6469  1.5999 -1.0907
 5782TIP3    H238838   2.049   6.025   2.130  2.2911 -1.0843  2.4950
 5783TIP3   OH238839   6.086   6.401  16.630 -0.0957  0.1334 -0.1262
 5783TIP3    H138840   6.125   6.480  16.592  1.0289  0.3052  1.2808
 5783TIP3    H238841   6.112   6.404  16.722  0.5909 -2.2725 -0.1827
 5784TIP3   OH238842   3.815   0.640  11.969  0.0921  0.1846  0.6078
 5784TIP3    H138843   3.808   0.719  12.023 -1.6853 -0.8455  1.9895
 5784TIP3    H238844   3.725   0.615  11.951  0.6353 -0.8651 -0.8688
 5785TIP3   OH238845   6.087   5.353   1.580 -0.0866  0.4816 -0.5291
 5785TIP3    H138846   6.176   5.319   1.569  1.3615  3.5390  0.4576
 5785TIP3    H238847   6.076   5.363   1.674 -1.7954 -0.4555 -0.5896
 5786TIP3   OH238848   3.760   6.505  13.180  0.1643 -0.6292 -0.1340
 5786TIP3    H138849   3.697   6.443  13.218 -0.9584  0.7346  0.2965
 5786TIP3    H238850   3.711   6.551  13.112  1.6096 -1.6845 -1.9881
 5787TIP3   OH238851   2.453   4.915   6.263 -0.1587  0.7889 -0.0526
 5787TIP3    H138852   2.379   4.932   6.205  0.6635  0.1447 -1.3347
 5787TIP3    H238853   2.505   4.850   6.216  0.3986  0.0403  1.5442
 5788TIP3   OH238854   6.738   1.026   5.364 -0.6310  0.8306 -0.1507
 5788TIP3    H138855   6.677   1.082   5.317  1.0984  1.0449 -2.3257
 5788TIP3    H238856   6.824   1.058   5.338  0.4198 -0.8930  1.0104
 5789TIP3   OH238857   1.948   1.665   4.908  0.5689 -0.3475 -0.4179
 5789TIP3    H138858   1.927   1.579   4.871  0.2958  0.1444 -1.4690
 5789TIP3    H238859   1.986   1.647   4.993  0.3028 -1.5003 -0.5319
 5790TIP3   OH238860   0.812   6.572   2.307  0.3619  0.6981 -0.1592
 5790TIP3    H138861   0.739   6.567   2.369 -0.0925  1.0761 -0.6453
 5790TIP3    H238862   0.808   6.491   2.257  0.4956  0.5589  0.0584
 5791TIP3   OH238863   1.053   4.810   0.927 -0.1049  0.5687 -0.3028
 5791TIP3    H138864   1.029   4.777   1.014  0.9707  0.4511 -0.0280
 5791TIP3    H238865   1.000   4.760   0.866  0.7253 -0.9460  0.1651
 5792TIP3   OH238866   0.626   3.271  12.399  0.1235 -0.0162  0.1380
 5792TIP3    H138867   0.565   3.228  12.339  1.1462 -0.0107 -0.9669
 5792TIP3    H238868   0.623   3.219  12.479 -1.4517  0.1071  0.1919
 5793TIP3   OH238869   6.242   2.296  12.930 -0.0694 -0.4021 -0.2509
 5793TIP3    H138870   6.179   2.289  13.001 -0.0257 -0.0888 -0.1802
 5793TIP3    H238871   6.321   2.255  12.964 -0.7694 -2.5156 -0.9970
 5794TIP3   OH238872   1.073   4.101  16.313 -0.2038  0.0596 -0.1688
 5794TIP3    H138873   1.064   4.169  16.379  0.3219  0.0949 -0.1308
 5794TIP3    H238874   1.087   4.149  16.231  0.3007 -0.0057 -0.1202
 5795TIP3   OH238875   5.949   1.462   2.315  0.0774  0.3635 -0.4587
 5795TIP3    H138876   6.025   1.403   2.310  0.8268  1.3359 -0.9748
 5795TIP3    H238877   5.934   1.474   2.409  1.2690  1.0154 -0.3324
 5796TIP3   OH238878   6.649   3.464  13.525  0.0356  0.9265  0.0303
 5796TIP3    H138879   6.744   3.474  13.521 -0.1427  2.4938 -1.2099
 5796TIP3    H238880   6.618   3.483  13.437 -1.4257  0.0400  0.3039
 5797TIP3   OH238881   1.306   6.378  17.223 -0.4053  0.5190 -0.6328
 5797TIP3    H138882   1.312   6.474  17.231  1.6134  0.3260  1.2514
 5797TIP3    H238883   1.328   6.360  17.132 -0.0462  1.8169 -0.8282
 5798TIP3   OH238884   3.251   2.196  13.197  0.2763  0.0961  0.2407
 5798TIP3    H138885   3.287   2.265  13.142 -1.4547  0.1948 -0.8631
 5798TIP3    H238886   3.168   2.232  13.230 -2.1737 -2.3236 -2.7015
 5799TIP3   OH238887   2.835   2.636  13.674  0.2849  0.2237  0.4943
 5799TIP3    H138888   2.749   2.599  13.653  0.9620 -1.5513  0.6879
 5799TIP3    H238889   2.867   2.583  13.747  1.4927  0.9497  0.5131
 5800TIP3   OH238890   0.732   3.842  16.137  0.0516  0.0454  0.3831
 5800TIP3    H138891   0.754   3.916  16.080 -0.7567  0.1160  0.1467
 5800TIP3    H238892   0.741   3.877  16.226 -1.1003  0.6857  0.2704
 5801TIP3   OH238893   5.129   2.863  13.549  0.4780 -0.2350  0.4098
 5801TIP3    H138894   5.089   2.796  13.494  1.0522 -0.5471  0.3639
 5801TIP3    H238895   5.176   2.919  13.488  0.2400  0.0369  0.4775
 5802TIP3   OH238896   2.607   6.650   1.388  0.1994 -0.0988  0.0190
 5802TIP3    H138897   2.561   6.660   1.471 -1.2629  1.3142 -0.9037
 5802TIP3    H238898   2.699   6.661   1.410  0.2433 -3.1964  1.9522
 5803TIP3   OH238899   2.661   4.864   5.316 -0.5966 -0.3354 -0.2328
 5803TIP3    H138900   2.675   4.903   5.403  1.1775  0.3388 -0.7984
 5803TIP3    H238901   2.696   4.775   5.324  1.4171  0.3704 -0.7878
 5804TIP3   OH238902   3.674   3.670   6.370 -0.5631 -0.0352 -0.3269
 5804TIP3    H138903   3.590   3.714   6.383  0.7233  2.1736  1.2791
 5804TIP3    H238904   3.710   3.710   6.290 -0.7652 -0.5565 -0.6853
 5805TIP3   OH238905   0.199   1.003  15.212 -0.1147 -0.4510  0.8930
 5805TIP3    H138906   0.175   0.911  15.225 -0.8809 -0.1826  1.5185
 5805TIP3    H238907   0.133   1.051  15.262  2.3348  0.3207  3.6775
 5806TIP3   OH238908   1.597   6.133   2.125 -0.4856 -0.2797  0.2411
 5806TIP3    H138909   1.659   6.183   2.071 -0.4829 -1.0265 -0.4732
 5806TIP3    H238910   1.535   6.198   2.157 -0.1662  0.2624 -0.2224
 5807TIP3   OH238911   1.114   4.982  15.904 -0.1290 -0.3671 -0.2512
 5807TIP3    H138912   1.168   4.978  15.984  0.2203 -2.2609 -0.5282
 5807TIP3    H238913   1.026   4.959  15.934  0.1923 -2.0769 -0.5206
 5808TIP3   OH238914   3.422   4.095   5.532  0.1997  0.3916 -0.4626
 5808TIP3    H138915   3.478   4.052   5.467  0.9160 -0.5566  0.7297
 5808TIP3    H238916   3.339   4.049   5.528  1.0166 -1.3457  0.9325
 5809TIP3   OH238917   2.138   1.863  13.715 -0.2004  0.5939 -0.2189
 5809TIP3    H138918   2.191   1.784  13.701  0.1614  0.9093 -0.6514
 5809TIP3    H238919   2.098   1.880  13.630 -2.6688 -0.8225  0.5810
 5810TIP3   OH238920   4.334   4.888  11.434 -0.2903  1.1868  0.1915
 5810TIP3    H138921   4.300   4.969  11.471 -0.0722  2.1411 -1.6014
 5810TIP3    H238922   4.360   4.911  11.345  1.1178 -0.5078  0.0994
 5811TIP3   OH238923   5.152   5.649  16.160 -0.3931 -0.0989  0.1698
 5811TIP3    H138924   5.168   5.646  16.066 -1.5077  0.2163 -0.0520
 5811TIP3    H238925   5.100   5.571  16.178 -0.4406 -0.0022  0.4663
 5812TIP3   OH238926   1.938   3.699   2.683  0.4390 -0.1862 -0.5229
 5812TIP3    H138927   1.957   3.758   2.611 -0.9851  0.2873 -0.5450
 5812TIP3    H238928   2.009   3.635   2.682  0.6773  0.0762 -2.0533
 5813TIP3   OH238929   2.463   3.978   3.370  0.4537 -0.0094  0.3573
 5813TIP3    H138930   2.544   3.946   3.410  0.8680  0.3520 -0.1774
 5813TIP3    H238931   2.407   3.901   3.365  1.7184 -0.8688 -1.6085
 5814TIP3   OH238932   4.714   4.780   2.386  0.0367 -0.0966  0.4021
 5814TIP3    H138933   4.705   4.838   2.310 -2.4714 -0.7905  0.0583
 5814TIP3    H238934   4.660   4.821   2.453 -2.5339 -2.3272 -0.1251
 5815TIP3   OH238935   1.455   4.357   2.858 -0.0040 -0.0671  0.0369
 5815TIP3    H138936   1.363   4.331   2.856 -0.3855  1.2986 -1.1408
 5815TIP3    H238937   1.455   4.450   2.839  1.6788 -0.2059 -0.8938
 5816TIP3   OH238938   3.036   5.965  16.431 -0.1689  0.0858 -0.7937
 5816TIP3    H138939   2.945   5.974  16.403 -0.3388  0.1031 -0.2537
 5816TIP3    H238940   3.040   5.879  16.473  0.6049 -0.9015 -2.7625
 5817TIP3   OH238941   6.609   5.511  15.030 -0.6429 -0.2793  0.8047
 5817TIP3    H138942   6.643   5.483  15.115  1.0267 -0.7337  0.0395
 5817TIP3    H238943   6.630   5.604  15.024  0.6545 -0.5787  0.2960
 5818TIP3   OH238944   4.221   3.677  15.136 -0.7239  0.6910 -0.2573
 5818TIP3    H138945   4.291   3.714  15.084  1.0630  1.6152  2.5477
 5818TIP3    H238946   4.142   3.722  15.107  0.7811  4.0541  0.3726
 5819TIP3   OH238947   3.183   6.003  11.462 -0.2161 -0.4965 -0.1187
 5819TIP3    H138948   3.246   5.945  11.504 -0.4334 -1.8239 -1.5134
 5819TIP3    H238949   3.101   5.987  11.507 -0.3743 -1.6526 -0.7801
 5820TIP3   OH238950   3.824   3.198   1.156  0.4259 -0.3937  0.2592
 5820TIP3    H138951   3.835   3.114   1.112  3.1499 -1.0127  1.9002
 5820TIP3    H238952   3.805   3.175   1.247 -0.0822  0.7821  0.4646
 5821TIP3   OH238953   5.818   5.143   4.777 -0.1847  0.1490  0.0241
 5821TIP3    H138954   5.863   5.211   4.728  1.2705 -1.3865 -0.9064
 5821TIP3    H238955   5.818   5.067   4.718 -1.4684 -0.7572  1.1158
 5822TIP3   OH238956   1.135   4.186   1.279 -1.1310  0.3898  0.1661
 5822TIP3    H138957   1.207   4.247   1.265 -1.6218  1.6200  2.4790
 5822TIP3    H238958   1.099   4.170   1.192 -0.3946  2.6686 -0.6106
 5823TIP3   OH238959   5.049   3.419  14.164 -0.3855  0.1178  0.1237
 5823TIP3    H138960   5.027   3.361  14.237 -0.9646  1.3584  0.9790
 5823TIP3    H238961   4.991   3.392  14.093 -0.1364 -0.8006  0.2499
 5824TIP3   OH238962   3.944   1.928   4.071 -0.1311  0.5672  0.0421
 5824TIP3    H138963   3.976   2.012   4.037  1.2983 -0.1411 -0.4510
 5824TIP3    H238964   3.971   1.927   4.163  1.0466  0.1156 -0.2876
 5825TIP3   OH238965   1.573   5.855   2.222 -0.8329 -0.0424 -0.1623
 5825TIP3    H138966   1.657   5.881   2.184 -0.1226 -4.1903 -2.0393
 5825TIP3    H238967   1.519   5.934   2.218  2.1538  2.1198 -1.2922
 5826TIP3   OH238968   6.036   2.672  15.750  0.0722 -0.5910 -0.8897
 5826TIP3    H138969   6.026   2.705  15.661  1.1786  1.3584 -0.3565
 5826TIP3    H238970   6.126   2.640  15.753  1.0984  2.0645  0.2423
 5827TIP3   OH238971   4.100   0.151   2.163 -0.1574  0.1440 -0.4423
 5827TIP3    H138972   4.039   0.223   2.146  0.1197  0.1178 -1.6094
 5827TIP3    H238973   4.148   0.177   2.242 -1.5992  0.2074  0.4539
 5828TIP3   OH238974   6.553   2.092   4.931 -0.3349  0.2268  0.0031
 5828TIP3    H138975   6.484   2.068   4.993 -0.1730  2.8717  1.3718
 5828TIP3    H238976   6.509   2.090   4.846 -0.5040 -3.6755  0.0330
 5829TIP3   OH238977   0.652   2.487   2.006 -0.3174 -0.5462 -0.0957
 5829TIP3    H138978   0.725   2.425   1.997 -0.0711 -0.6849  2.2431
 5829TIP3    H238979   0.631   2.486   2.099 -1.5359  1.5265 -0.2816
 5830TIP3   OH238980   1.550   3.107  15.286 -0.1970 -0.2559 -0.2114
 5830TIP3    H138981   1.475   3.144  15.332  0.6199  0.5996  0.4847
 5830TIP3    H238982   1.602   3.065  15.355  0.2718 -0.3014 -0.5845
 5831TIP3   OH238983   3.119   4.413  11.227 -0.0985  0.1793  0.2536
 5831TIP3    H138984   3.025   4.428  11.231 -0.3655 -1.4437  0.7351
 5831TIP3    H238985   3.139   4.409  11.134 -0.9860 -2.0476  0.1206
 5832TIP3   OH238986   1.982   0.311   3.466  0.0988  0.2352 -0.0071
 5832TIP3    H138987   1.975   0.402   3.436 -2.8223 -0.4770 -1.9076
 5832TIP3    H238988   1.901   0.296   3.515  1.1126 -1.0190  1.3524
 5833TIP3   OH238989   3.058   2.148   4.165 -0.1537  0.6464  0.0008
 5833TIP3    H138990   2.973   2.113   4.194 -0.7696  0.8221 -1.4984
 5833TIP3    H238991   3.037   2.235   4.131  0.3536  0.1580 -1.6691
 5834TIP3   OH238992   0.715   3.095   0.136  0.3636  0.3287  0.3617
 5834TIP3    H138993   0.674   3.126   0.055  1.2788  0.5914 -0.0203
 5834TIP3    H238994   0.804   3.130   0.133  1.1049 -1.4235  0.4515
 5835TIP3   OH238995   0.691   0.344  13.179 -0.2879 -0.0006  0.0921
 5835TIP3    H138996   0.731   0.341  13.092  0.8938  1.5687  0.5423
 5835TIP3    H238997   0.765   0.343  13.239 -1.1031 -2.0924  1.1766
 5836TIP3   OH238998   0.436   2.508  16.194 -0.0964 -0.0247  0.1201
 5836TIP3    H138999   0.525   2.523  16.225  0.0813 -0.8589  0.0179
 5836TIP3    H239000   0.399   2.596  16.186  1.0973  0.4268 -0.9634
 5837TIP3   OH239001   1.574   5.423  16.480 -0.1457 -0.2122 -0.1371
 5837TIP3    H139002   1.667   5.421  16.502 -0.7144 -1.3353  2.5258
 5837TIP3    H239003   1.556   5.336  16.443  0.1810  0.6484 -2.4791
 5838TIP3   OH239004   1.642   5.911   6.169 -0.6170  0.0063  0.6941
 5838TIP3    H139005   1.715   5.949   6.218 -1.6622  2.0738  0.7548
 5838TIP3    H239006   1.679   5.832   6.130  1.3625  0.4348  1.5386
 5839TIP3   OH239007   4.638   6.688  15.361  0.3811  0.0669  0.1171
 5839TIP3    H139008   4.682   6.743  15.425 -0.0700  0.1567  0.3539
 5839TIP3    H239009   4.683   6.604  15.366 -0.0456 -0.1210  0.9948
 5840TIP3   OH239010   4.069   4.583   1.658 -0.1097 -0.5142  0.5216
 5840TIP3    H139011   4.000   4.540   1.609 -1.4144  0.9966  0.9399
 5840TIP3    H239012   4.069   4.673   1.626  1.6149 -0.4563  0.6013
 5841TIP3   OH239013   4.774   3.083  11.758 -0.1578 -0.4483 -0.3391
 5841TIP3    H139014   4.793   3.079  11.852  2.2773 -0.5960 -0.7514
 5841TIP3    H239015   4.687   3.046  11.748 -0.4173 -0.5153  1.8481
 5842TIP3   OH239016   6.230   2.806  13.376  0.2870 -0.2026  0.2053
 5842TIP3    H139017   6.288   2.876  13.344  1.6107 -0.8983  0.9826
 5842TIP3    H239018   6.160   2.852  13.422  1.7743  0.6233  1.7621
 5843TIP3   OH239019   5.600   1.708  12.102 -0.1210  0.6446 -0.1892
 5843TIP3    H139020   5.637   1.749  12.023 -1.3791  1.2452 -0.4800
 5843TIP3    H239021   5.639   1.756  12.174  0.0381  0.9483 -0.4765
 5844TIP3   OH239022   6.192   5.617  11.325  0.1737 -0.4412 -0.4803
 5844TIP3    H139023   6.208   5.524  11.335 -0.7319 -0.3937  2.0282
 5844TIP3    H239024   6.222   5.637  11.236  0.6540 -3.0275 -0.9768
 5845TIP3   OH239025   5.008   0.042  13.521  0.6375 -0.1960  0.4262
 5845TIP3    H139026   5.016  -0.053  13.534  2.3938 -0.1286  0.0843
 5845TIP3    H239027   4.996   0.077  13.609  2.4889 -0.5699  0.8751
 5846TIP3   OH239028   0.528   2.461  10.795  0.1047 -0.2051 -0.1697
 5846TIP3    H139029   0.456   2.515  10.826 -0.6799 -0.9239 -0.6897
 5846TIP3    H239030   0.487   2.378  10.770  0.8401 -0.0530 -2.0523
 5847TIP3   OH239031   0.417   5.286  12.781  0.0268  0.1327 -0.3674
 5847TIP3    H139032   0.485   5.220  12.794  1.6071  1.7920  0.2004
 5847TIP3    H239033   0.339   5.247  12.820  1.3807 -0.6346  1.7657
 5848TIP3   OH239034   3.108   0.210  10.884 -0.1451 -0.0342 -0.1885
 5848TIP3    H139035   3.125   0.213  10.789  1.9464  1.8927  0.1626
 5848TIP3    H239036   3.051   0.286  10.899  1.2449  0.9425  0.3353
 5849TIP3   OH239037   5.282   2.121   3.592  0.2763  0.2046  0.1638
 5849TIP3    H139038   5.260   2.214   3.584 -0.2252  0.1473  0.8227
 5849TIP3    H239039   5.377   2.118   3.578  0.5891  1.0459  1.7794
 5850TIP3   OH239040   0.481   2.670  14.689  0.2262 -0.0669 -0.1859
 5850TIP3    H139041   0.549   2.655  14.755 -1.3685 -1.9403  1.1673
 5850TIP3    H239042   0.448   2.757  14.708 -2.0056 -1.4723  3.4404
 5851TIP3   OH239043   4.323   1.960   2.500 -0.3292  0.4419 -0.3952
 5851TIP3    H139044   4.389   1.927   2.561 -0.9983  1.0524  0.7130
 5851TIP3    H239045   4.269   2.018   2.554 -0.7630  1.2421 -1.6705
 5852TIP3   OH239046   4.496   6.230   5.409  0.0845  0.1794 -0.7080
 5852TIP3    H139047   4.495   6.220   5.504 -1.6260 -1.3417 -0.8419
 5852TIP3    H239048   4.589   6.243   5.388  0.6234 -0.4227  1.0787
 5853TIP3   OH239049   5.478   2.356   0.117 -0.2960  0.1216 -0.2524
 5853TIP3    H139050   5.569   2.383   0.110 -0.6904  2.0654  1.1274
 5853TIP3    H239051   5.482   2.263   0.137  1.3955  0.1861 -0.1352
 5854TIP3   OH239052   2.581   6.185   4.875  0.2728  0.0103  0.0886
 5854TIP3    H139053   2.527   6.185   4.954  0.1141 -0.0861 -0.0184
 5854TIP3    H239054   2.519   6.167   4.804  0.5542 -0.8554  0.0462
 5855TIP3   OH239055   1.836   5.794   1.768 -0.3037 -0.6752  0.2525
 5855TIP3    H139056   1.901   5.859   1.796 -0.5031 -0.5790  0.4977
 5855TIP3    H239057   1.759   5.812   1.822 -1.0318  0.1063 -1.0185
 5856TIP3   OH239058   4.633   6.717   4.710 -0.1179  0.1483  1.1513
 5856TIP3    H139059   4.644   6.640   4.654  3.9007  1.3077  0.0487
 5856TIP3    H239060   4.612   6.681   4.796  2.1303 -2.3200  0.8016
 5857TIP3   OH239061   3.784   6.361   5.135  0.0253 -0.4281 -0.5659
 5857TIP3    H139062   3.827   6.356   5.050  0.5522  1.4781 -0.4515
 5857TIP3    H239063   3.726   6.285   5.137  1.0282 -1.2694 -2.0430
 5858TIP3   OH239064   1.949   3.647   3.268  0.0091  0.2949  0.0913
 5858TIP3    H139065   1.882   3.579   3.278  0.4985 -0.4977 -1.5717
 5858TIP3    H239066   2.030   3.598   3.248  0.4354  1.3261 -0.8506
 5859TIP3   OH239067   6.263   0.022  12.461 -0.1856 -0.2745 -0.2195
 5859TIP3    H139068   6.300   0.049  12.377 -2.2288 -0.3744 -1.2149
 5859TIP3    H239069   6.289   0.091  12.522  2.1360 -0.6769 -0.6431
 5860TIP3   OH239070   1.506   4.432  11.978  0.7634 -0.4580 -0.1347
 5860TIP3    H139071   1.463   4.346  11.978  1.1365 -0.6547  0.9674
 5860TIP3    H239072   1.449   4.486  11.923 -0.3626 -0.9726  0.4759
 5861TIP3   OH239073   1.177   0.489  14.336 -1.0825 -0.8154  0.0434
 5861TIP3    H139074   1.198   0.582  14.347 -0.0151 -1.1886  1.3964
 5861TIP3    H239075   1.132   0.465  14.417 -2.3168 -1.2507 -0.7347
 5862TIP3   OH239076   5.285   4.192   1.377  0.0323  0.1157  0.0051
 5862TIP3    H139077   5.345   4.221   1.446  1.6172  0.8144 -1.5538
 5862TIP3    H239078   5.217   4.259   1.375 -0.1145  0.0020  0.9853
 5863TIP3   OH239079   3.248   2.966   4.147  0.1943 -0.0680  0.0337
 5863TIP3    H139080   3.253   3.060   4.162  0.4538 -0.2963  1.5260
 5863TIP3    H239081   3.339   2.939   4.133 -0.0033  0.0857 -1.8839
 5864TIP3   OH239082   1.996   5.136  13.508 -0.2203  0.6085  0.1215
 5864TIP3    H139083   2.071   5.122  13.450 -0.5941 -0.4938 -0.1360
 5864TIP3    H239084   2.030   5.116  13.596  0.1373  1.4896  0.1934
 5865TIP3   OH239085   3.568   0.418   2.846  0.0382 -0.7081  0.1696
 5865TIP3    H139086   3.500   0.431   2.913 -0.4106 -0.2401 -0.3665
 5865TIP3    H239087   3.651   0.431   2.894 -0.3034  0.8862  0.4028
 5866TIP3   OH239088   3.464   1.693  11.925 -0.4392 -0.2922 -0.0560
 5866TIP3    H139089   3.400   1.731  11.864 -0.2737 -2.2575 -1.5501
 5866TIP3    H239090   3.464   1.600  11.905  2.2741 -0.4973  0.4933
 5867TIP3   OH239091   3.368   4.518   4.293  0.6183 -0.3974 -0.2800
 5867TIP3    H139092   3.399   4.549   4.378 -0.5136  1.8002 -0.5791
 5867TIP3    H239093   3.315   4.441   4.312 -2.5891  2.0107  1.5781
 5868TIP3   OH239094   1.040   2.768   4.967 -0.0067 -0.0896  0.2508
 5868TIP3    H139095   1.090   2.845   4.942  0.0748 -0.2864 -0.2002
 5868TIP3    H239096   1.011   2.730   4.884 -0.5348 -0.2205  0.4926
 5869TIP3   OH239097   3.668   0.460  12.303  0.1555  0.3346  0.3658
 5869TIP3    H139098   3.600   0.394  12.295  0.5424 -0.2180  1.4401
 5869TIP3    H239099   3.644   0.511  12.380 -0.4143  1.8238 -0.7261
 5870TIP3   OH239100   3.799   4.590  12.454  0.1176  0.3256 -0.0917
 5870TIP3    H139101   3.799   4.528  12.381  0.9141  1.6713 -1.2805
 5870TIP3    H239102   3.891   4.603  12.475 -0.1057 -0.1252  1.2606
 5871TIP3   OH239103   0.882   0.783  12.745 -0.0165 -0.1623 -0.1915
 5871TIP3    H139104   0.936   0.750  12.673  0.5433  1.6186 -0.6290
 5871TIP3    H239105   0.927   0.755  12.824  1.1524  0.6444 -0.5527
 5872TIP3   OH239106   2.572   2.698   3.292  0.4617  0.6145  0.0443
 5872TIP3    H139107   2.662   2.718   3.265  0.2963  1.4035  0.0548
 5872TIP3    H239108   2.582   2.641   3.368  0.9650  1.1550  0.3949
 5873TIP3   OH239109   5.475   3.119  14.373 -0.1927 -0.3050  0.3764
 5873TIP3    H139110   5.415   3.187  14.340  0.8765  0.5342  0.0730
 5873TIP3    H239111   5.516   3.084  14.294  0.9269  0.3125  0.6633
 5874TIP3   OH239112   0.533   3.870   2.690 -0.2124 -0.3809 -0.4466
 5874TIP3    H139113   0.562   3.926   2.618  1.0586 -0.2155  0.1732
 5874TIP3    H239114   0.443   3.899   2.707  0.0491  0.7260 -0.8528
 5875TIP3   OH239115   3.886   4.928  13.837  0.0054  0.0742  0.6868
 5875TIP3    H139116   3.875   4.923  13.932  1.1805 -1.0525  0.7798
 5875TIP3    H239117   3.831   5.002  13.811  1.0169  1.5070  2.4481
 5876TIP3   OH239118   0.810   2.356  13.637 -0.0834 -0.1785  0.1188
 5876TIP3    H139119   0.822   2.445  13.670 -2.2651  0.1657  0.1694
 5876TIP3    H239120   0.789   2.367  13.544  1.2758 -0.7967 -0.2911
 5877TIP3   OH239121   4.997   5.165  15.779  0.4997 -0.4351  0.4667
 5877TIP3    H139122   5.042   5.088  15.743  0.3481 -0.1416 -0.3815
 5877TIP3    H239123   4.907   5.157  15.748  0.8223  0.8441 -0.9446
 5878TIP3   OH239124   3.846   2.130   5.442 -0.1809 -0.4429  0.2200
 5878TIP3    H139125   3.836   2.083   5.525 -0.4061 -0.2447  0.3045
 5878TIP3    H239126   3.781   2.200   5.446  1.5937  1.2700  1.0803
 5879TIP3   OH239127   1.409   4.491   5.732  0.0389  0.1404  0.0987
 5879TIP3    H139128   1.386   4.433   5.805 -0.2981 -0.3542 -0.3930
 5879TIP3    H239129   1.340   4.558   5.733 -0.4525 -0.3457 -0.2790
 5880TIP3   OH239130   0.219   6.033  15.525  0.1680  0.3830 -0.6700
 5880TIP3    H139131   0.143   6.088  15.507 -0.2460 -0.1515 -0.5898
 5880TIP3    H239132   0.242   6.052  15.616 -0.1884  0.1709 -0.5347
 5881TIP3   OH239133   4.213   5.916   5.351 -1.0633 -0.0861  0.2515
 5881TIP3    H139134   4.211   5.820   5.348  0.9732 -0.1575 -1.3717
 5881TIP3    H239135   4.304   5.937   5.374 -1.9430  1.4963  2.5304
 5882TIP3   OH239136   2.869   4.522   4.056 -0.5558 -0.7365 -0.0883
 5882TIP3    H139137   2.919   4.596   4.020 -1.2216  0.6213  1.6520
 5882TIP3    H239138   2.885   4.526   4.150 -0.4912 -2.9474  0.0486
 5883TIP3   OH239139   5.741   2.390   3.135  0.5510 -0.0481  0.0537
 5883TIP3    H139140   5.681   2.462   3.116 -2.0269 -2.2895 -1.0086
 5883TIP3    H239141   5.817   2.405   3.078 -0.2581  1.3960 -0.6943
 5884TIP3   OH239142   3.989   2.277   3.298 -0.5447  0.0567 -0.2965
 5884TIP3    H139143   3.988   2.316   3.386  0.0535  0.8352 -0.6216
 5884TIP3    H239144   4.058   2.210   3.302  1.0621  1.5981 -0.7664
 5885TIP3   OH239145   5.014   4.377  15.503 -0.3585 -0.2827 -0.3258
 5885TIP3    H139146   5.103   4.382  15.468 -0.5843  0.3757 -0.8248
 5885TIP3    H239147   4.958   4.376  15.425 -0.7462 -2.4101 -0.0989
 5886TIP3   OH239148   6.823   0.156   4.902 -0.1916 -0.0405  0.1730
 5886TIP3    H139149   6.769   0.187   4.975 -0.1310 -0.7758  0.5469
 5886TIP3    H239150   6.822   0.060   4.912  1.5094 -0.0574  0.4209
 5887TIP3   OH239151   0.532   1.629  12.158 -0.4955  0.2253 -0.0905
 5887TIP3    H139152   0.587   1.633  12.080 -0.8201  0.7762 -0.2971
 5887TIP3    H239153   0.481   1.549  12.147  1.3097 -1.1130  0.8278
 5888TIP3   OH239154   0.192   4.044   0.714 -0.4686  0.3508 -0.2072
 5888TIP3    H139155   0.280   4.066   0.686 -0.2253  1.2509  1.1518
 5888TIP3    H239156   0.135   4.104   0.666  0.1990  4.7203  3.7024
 5889TIP3   OH239157   1.131   4.248   3.208 -0.2084  0.0014 -0.4215
 5889TIP3    H139158   1.154   4.160   3.238 -1.2405 -1.2345 -3.0131
 5889TIP3    H239159   1.113   4.296   3.289  0.2361 -2.1844  1.0674
 5890TIP3   OH239160   5.681   3.506   5.064 -0.2651  0.2876 -0.2605
 5890TIP3    H139161   5.659   3.480   5.153 -0.2137  0.7073 -0.1214
 5890TIP3    H239162   5.608   3.475   5.011 -0.9554  1.2045  0.1211
 5891TIP3   OH239163   4.421   2.667   5.282  0.4096 -0.5861  0.1357
 5891TIP3    H139164   4.347   2.711   5.240  0.9904  0.4749  0.2059
 5891TIP3    H239165   4.497   2.721   5.261  0.8799 -0.5912  1.7010
 5892TIP3   OH239166   1.452   3.259  11.711  0.3208 -0.4450  0.1604
 5892TIP3    H139167   1.511   3.206  11.765 -1.3774 -3.7414 -0.9145
 5892TIP3    H239168   1.481   3.243  11.621 -0.3491  0.3544 -0.2154
 5893TIP3   OH239169   1.566   4.530  13.394  0.6771 -0.1582  0.1316
 5893TIP3    H139170   1.625   4.603  13.410 -0.4815  0.6510  0.7921
 5893TIP3    H239171   1.529   4.547  13.307  0.3653  0.0656  0.3089
 5894TIP3   OH239172   0.005   1.143  16.523  0.1949  0.4071 -0.2757
 5894TIP3    H139173   0.001   1.228  16.568 -1.0400 -0.3742  1.1962
 5894TIP3    H239174   0.096   1.115  16.533  0.4480  1.2387 -0.1715
 5895TIP3   OH239175   3.622   6.680   5.425  0.0705  0.7753  0.0448
 5895TIP3    H139176   3.557   6.647   5.362  1.4448 -0.9106 -0.5712
 5895TIP3    H239177   3.581   6.757   5.463 -1.5192  0.8615 -1.6824
 5896TIP3   OH239178   5.354   3.548   4.435 -0.1476 -0.0367  0.3920
 5896TIP3    H139179   5.264   3.536   4.402 -0.2269  1.3977  0.0054
 5896TIP3    H239180   5.344   3.607   4.510  0.5754  1.2037 -0.4567
 5897TIP3   OH239181   6.479   4.861  11.812 -0.4977  0.7216 -0.0979
 5897TIP3    H139182   6.442   4.774  11.797  0.7405  0.1560 -0.0762
 5897TIP3    H239183   6.440   4.890  11.894 -1.3081  0.4080 -0.3622
 5898TIP3   OH239184   1.158   4.845  17.101 -0.2356 -0.0718 -0.0002
 5898TIP3    H139185   1.068   4.817  17.082 -0.9603  1.6340  0.6859
 5898TIP3    H239186   1.201   4.766  17.135 -1.5286 -0.8625 -0.1155
 5899TIP3   OH239187   3.621   5.914   0.930  0.5250  0.3439 -0.2109
 5899TIP3    H139188   3.653   5.834   0.973  1.3522 -0.5873 -2.3833
 5899TIP3    H239189   3.698   5.949   0.886 -0.5716  0.2384 -2.3440
 5900TIP3   OH239190   6.649   1.055  13.392  0.2285 -0.2264 -0.2765
 5900TIP3    H139191   6.744   1.052  13.404  0.2622 -1.0597 -0.6603
 5900TIP3    H239192   6.634   1.132  13.337  0.5108  0.8493  1.0956
 5901TIP3   OH239193   4.646   0.030   2.002  0.3675 -0.2237  0.6844
 5901TIP3    H139194   4.650  -0.059   1.967  0.5827  0.8627 -2.4152
 5901TIP3    H239195   4.554   0.041   2.028 -0.3945 -0.5333 -1.5941
 5902TIP3   OH239196   0.925   2.619  11.516 -0.2868 -0.4395 -0.7047
 5902TIP3    H139197   0.999   2.582  11.467  0.4309 -0.0607  0.0653
 5902TIP3    H239198   0.879   2.543  11.552  1.7622 -0.6338  1.7254
 5903TIP3   OH239199   3.704   2.658  11.866 -0.1474  0.1127  0.9478
 5903TIP3    H139200   3.762   2.608  11.808  1.0144  0.6653  1.6022
 5903TIP3    H239201   3.643   2.703  11.806  0.0868 -0.4697  0.2520
 5904TIP3   OH239202   5.026   1.510  12.882  0.6144  0.3371 -0.1740
 5904TIP3    H139203   5.064   1.543  12.963 -0.3608  1.7200 -0.2526
 5904TIP3    H239204   4.938   1.548  12.879  0.2308 -0.5840 -1.3402
 5905TIP3   OH239205   1.694   3.860  14.890  0.4644 -0.4632 -0.0976
 5905TIP3    H139206   1.654   3.907  14.964  1.6203  0.5919 -0.0955
 5905TIP3    H239207   1.744   3.790  14.931 -1.3220 -1.8053 -0.1022
 5906TIP3   OH239208   3.497   0.894  12.794 -0.1325  0.2517  0.0369
 5906TIP3    H139209   3.555   0.956  12.839 -0.0054 -0.3013  0.6563
 5906TIP3    H239210   3.544   0.871  12.714  0.2870  0.1793  0.3015
 5907TIP3   OH239211   5.589   1.569  14.142  0.3276  0.0921 -0.1256
 5907TIP3    H139212   5.591   1.477  14.116 -1.0704 -0.5220  1.7017
 5907TIP3    H239213   5.514   1.575  14.201  2.2445  1.6939  2.3390
 5908TIP3   OH239214   1.529   6.609   3.815 -0.6177  0.3711 -0.0802
 5908TIP3    H139215   1.536   6.646   3.904 -1.6059  0.4392 -0.0218
 5908TIP3    H239216   1.435   6.612   3.795 -0.3024  1.4384 -1.5823
 5909TIP3   OH239217   2.742   2.849   5.897  0.0520  0.4600  0.0886
 5909TIP3    H139218   2.831   2.864   5.865  0.2215  0.2888  0.4811
 5909TIP3    H239219   2.732   2.910   5.970  0.9626 -1.6630  2.1095
 5910TIP3   OH239220   0.539   4.065   1.732  0.1234  0.1122  0.1153
 5910TIP3    H139221   0.545   4.139   1.672 -0.0329 -0.2447 -0.3404
 5910TIP3    H239222   0.596   3.998   1.694 -0.4571 -0.3418  0.0412
 5911TIP3   OH239223   4.837   3.478  13.555 -0.6330  0.1642 -0.2417
 5911TIP3    H139224   4.826   3.444  13.466  0.7618 -0.7686 -0.0936
 5911TIP3    H239225   4.898   3.417  13.597  0.5771  1.8589  0.6094
 5912TIP3   OH239226   1.848   1.247   4.277 -0.4434 -0.1028  0.3341
 5912TIP3    H139227   1.823   1.163   4.315 -1.9342  0.1520 -0.0052
 5912TIP3    H239228   1.897   1.224   4.198  1.9567 -0.6284  1.8556
 5913TIP3   OH239229   6.420   3.743   1.563 -0.0925  0.4553 -0.5674
 5913TIP3    H139230   6.415   3.743   1.467  0.0694  0.6333 -0.5771
 5913TIP3    H239231   6.472   3.820   1.584  2.2042 -1.0274 -0.4629
 5914TIP3   OH239232   2.295   0.028   4.725 -0.4416  0.6491 -0.0815
 5914TIP3    H139233   2.258  -0.059   4.736  0.7173  0.0035 -1.1301
 5914TIP3    H239234   2.264   0.056   4.639  0.1410  0.7978 -0.2442
 5915TIP3   OH239235   5.375   4.274   4.022  0.0355  0.4370 -0.8916
 5915TIP3    H139236   5.408   4.185   4.009  1.0746  0.7953 -0.8588
 5915TIP3    H239237   5.336   4.298   3.938 -0.6526 -0.2099 -0.7597
 5916TIP3   OH239238   6.066   2.597   5.748 -0.4085 -0.0307 -0.6450
 5916TIP3    H139239   6.097   2.687   5.756 -0.8865  0.1739 -0.9984
 5916TIP3    H239240   6.014   2.597   5.667 -2.1900 -0.0809  0.4499
 5917TIP3   OH239241   6.411   3.846  12.759 -0.2093 -0.2481  0.1809
 5917TIP3    H139242   6.364   3.773  12.718  0.4789  1.0379 -3.2607
 5917TIP3    H239243   6.493   3.808  12.790 -1.9259 -1.8369  3.1678
 5918TIP3   OH239244   5.306   5.101  13.798  0.6285 -0.3004 -0.1016
 5918TIP3    H139245   5.382   5.053  13.765  0.2257 -0.9224 -0.1523
 5918TIP3    H239246   5.306   5.084  13.892  0.5277 -0.3502 -0.1095
 5919TIP3   OH239247   0.018   0.958  12.855 -0.1704  0.1113  0.1832
 5919TIP3    H139248   0.077   0.887  12.827 -0.9257 -0.3846 -0.1620
 5919TIP3    H239249   0.046   0.977  12.945  1.2498  0.6601 -0.3355
 5920TIP3   OH239250   4.755   5.255   6.441  0.0137  0.5596 -0.4570
 5920TIP3    H139251   4.737   5.280   6.532 -0.9328  0.5899 -0.6445
 5920TIP3    H239252   4.850   5.249   6.436  0.0660  0.3958  0.5830
 5921TIP3   OH239253   4.556   5.302  13.728 -0.2614 -0.4498  0.7543
 5921TIP3    H139254   4.468   5.326  13.756 -0.4005 -2.6100  2.4260
 5921TIP3    H239255   4.608   5.302  13.809  1.4554  1.3393 -0.2711
 5922TIP3   OH239256   0.359   4.458   2.625 -0.3403  0.0196  0.3633
 5922TIP3    H139257   0.411   4.448   2.545  1.7671  0.3753  1.6046
 5922TIP3    H239258   0.268   4.453   2.595  0.3630  0.1110 -2.0358
 5923TIP3   OH239259   5.629   2.001  11.440 -0.3050  0.0681 -0.4009
 5923TIP3    H139260   5.705   1.964  11.485  0.7445  1.4786 -0.9500
 5923TIP3    H239261   5.582   1.925  11.406 -1.7339 -1.2544  3.8122
 5924TIP3   OH239262   4.924   0.733  14.273  0.2006  1.0528  0.0718
 5924TIP3    H139263   4.873   0.670  14.325 -0.1308  0.8547 -0.4850
 5924TIP3    H239264   4.974   0.678  14.212  3.9233  0.9016  2.9008
 5925TIP3   OH239265   4.716   1.069   5.888 -0.2414 -0.0470 -0.2570
 5925TIP3    H139266   4.661   1.096   5.962 -0.4296 -2.2680  0.5070
 5925TIP3    H239267   4.771   0.999   5.924 -0.2907 -1.1538 -2.1936
 5926TIP3   OH239268   4.461   5.654   3.913  0.5674  0.0857 -0.4936
 5926TIP3    H139269   4.399   5.591   3.949  1.1945  0.4663  1.3249
 5926TIP3    H239270   4.546   5.611   3.917  1.1546  1.2691  1.6134
 5927TIP3   OH239271   1.174   4.140   2.368  0.1143 -0.2917  1.1434
 5927TIP3    H139272   1.221   4.221   2.389 -0.5720  0.3135  0.4267
 5927TIP3    H239273   1.153   4.102   2.453  0.6533  0.1618  1.4857
 5928TIP3   OH239274   5.981   2.917   4.158  0.2127  0.0037 -0.1377
 5928TIP3    H139275   6.070   2.950   4.148  0.1592  0.4600  0.8044
 5928TIP3    H239276   5.926   2.995   4.158 -0.0029 -0.1222  1.1600
 5929TIP3   OH239277   0.992   4.619   3.166 -0.3210  0.5164  0.1603
 5929TIP3    H139278   1.013   4.677   3.239  0.3236  0.7298 -0.1892
 5929TIP3    H239279   0.933   4.670   3.111 -1.2482  0.1626  0.7927
 5930TIP3   OH239280   4.148   2.553  15.522 -0.0774 -0.1598 -0.1574
 5930TIP3    H139281   4.224   2.609  15.508  0.0709 -0.2455  0.2764
 5930TIP3    H239282   4.156   2.525  15.613 -0.9555  0.3122  0.0687
 5931TIP3   OH239283   6.583   3.669   3.413  0.4685  0.2604 -0.2789
 5931TIP3    H139284   6.586   3.762   3.436  1.0870  0.1410  0.1344
 5931TIP3    H239285   6.674   3.643   3.405  0.4080 -0.8705  1.9522
 5932TIP3   OH239286   3.928   2.442   3.064  0.4751 -0.0857  0.1259
 5932TIP3    H139287   3.848   2.487   3.091  0.0616 -0.0977 -1.0311
 5932TIP3    H239288   3.951   2.388   3.140  0.1463  0.9279  0.9760
 5933TIP3   OH239289   0.556   2.726  13.201 -0.9169 -0.1731  0.1982
 5933TIP3    H139290   0.495   2.654  13.187 -1.5489 -0.0644  2.1011
 5933TIP3    H239291   0.543   2.751  13.293  1.2576  0.5301  0.3691
 5934TIP3   OH239292   0.741   5.999   3.628  0.6771  0.7795  0.2025
 5934TIP3    H139293   0.778   6.021   3.713 -1.8854  2.4265  1.0305
 5934TIP3    H239294   0.659   5.954   3.649  1.7583 -2.2205 -1.4981
 5935TIP3   OH239295   0.147   1.481  15.735 -0.4994  0.3080  0.1193
 5935TIP3    H139296   0.062   1.499  15.776 -0.0284  3.6199 -0.0620
 5935TIP3    H239297   0.206   1.462  15.808 -1.5862 -3.6791  0.1583
 5936TIP3   OH239298   4.414   5.276  13.018 -0.3474  0.0757 -0.1537
 5936TIP3    H139299   4.406   5.224  12.938 -1.6174  0.1712 -0.0977
 5936TIP3    H239300   4.367   5.227  13.085 -0.4174  0.6345  0.2173
 5937TIP3   OH239301   3.797   5.891   0.671  0.3776 -0.1606 -0.2493
 5937TIP3    H139302   3.705   5.896   0.694  0.6977 -1.0801  1.3678
 5937TIP3    H239303   3.842   5.942   0.738  0.9821  1.2144 -1.6531
 5938TIP3   OH239304   1.519   5.834  16.759 -0.2551 -0.2535 -0.0320
 5938TIP3    H139305   1.436   5.855  16.715  0.3209  0.1917 -0.9416
 5938TIP3    H239306   1.586   5.850  16.692  0.5893 -0.3462  0.7780
 5939TIP3   OH239307   3.380   5.332   2.618  0.0234 -0.0012 -0.1506
 5939TIP3    H139308   3.382   5.238   2.635  3.1578  0.1301  0.7888
 5939TIP3    H239309   3.448   5.347   2.553  2.6679  1.9872  2.7854
 5940TIP3   OH239310   4.133   4.072   2.667  0.5243  0.1071 -0.2427
 5940TIP3    H139311   4.188   4.073   2.746 -0.3253 -0.0146  0.3593
 5940TIP3    H239312   4.127   4.164   2.641  0.5006  0.1899  0.0516
 5941TIP3   OH239313   1.761   5.312   6.146  0.1377 -0.4529  0.2435
 5941TIP3    H139314   1.847   5.350   6.125 -0.6999  0.5454 -1.6363
 5941TIP3    H239315   1.746   5.337   6.237  0.8707  1.3578 -0.0806
 5942TIP3   OH239316   1.002   0.778  13.528 -0.2726  0.0015  0.1457
 5942TIP3    H139317   1.062   0.707  13.551  0.9999  0.4757 -1.5401
 5942TIP3    H239318   0.924   0.734  13.495  0.3349 -0.6190 -0.4882
 5943TIP3   OH239319   6.444   5.630  11.550 -0.2096 -0.6589  0.2089
 5943TIP3    H139320   6.386   5.632  11.474 -2.3611  1.1698  1.7975
 5943TIP3    H239321   6.472   5.721  11.561  0.5058 -0.9945  1.3039
 5944TIP3   OH239322   2.648   6.506  17.035  0.3072 -0.3088 -0.4500
 5944TIP3    H139323   2.719   6.568  17.051 -1.7150  1.7249  1.5371
 5944TIP3    H239324   2.655   6.483  16.943  3.0539  0.3513 -0.4727
 5945TIP3   OH239325   3.858   4.195  15.123 -0.3363  0.4274 -0.2427
 5945TIP3    H139326   3.853   4.154  15.210 -0.8765 -0.2471 -0.5762
 5945TIP3    H239327   3.872   4.121  15.063 -0.0858  0.8735 -0.7404
 5946TIP3   OH239328   5.550   1.122  14.798 -0.7815  0.0363 -0.3552
 5946TIP3    H139329   5.510   1.189  14.743  0.2589  0.2257 -0.8961
 5946TIP3    H239330   5.628   1.164  14.833 -1.6770  0.1029  1.7121
 5947TIP3   OH239331   5.773   4.369   6.556 -0.2418 -0.2634  0.2659
 5947TIP3    H139332   5.682   4.343   6.568 -0.5615  1.1650  1.3028
 5947TIP3    H239333   5.775   4.461   6.584  1.7496 -0.5929  1.4160
 5948TIP3   OH239334   2.728   6.687   1.998 -0.9385  0.0356  0.9588
 5948TIP3    H139335   2.801   6.695   2.060  0.5241  1.8577 -0.8673
 5948TIP3    H239336   2.701   6.596   2.004  2.2815 -1.0263  0.8714
 5949TIP3   OH239337   0.402   1.122  15.701 -0.1703 -0.3293 -0.5076
 5949TIP3    H139338   0.496   1.110  15.712 -0.2109 -0.6919 -0.5406
 5949TIP3    H239339   0.369   1.034  15.679 -0.9269 -0.8229  2.2014
 5950TIP3   OH239340   5.106   2.094   3.317  0.0313 -0.6773  0.4046
 5950TIP3    H139341   5.161   2.072   3.392  0.8079 -0.0923  0.0214
 5950TIP3    H239342   5.027   2.133   3.356  0.8100  0.4563  0.9181
 5951TIP3   OH239343   2.557   3.681  13.244  0.1411 -0.0543 -0.1467
 5951TIP3    H139344   2.591   3.705  13.330  0.9160  2.2631 -1.0384
 5951TIP3    H239345   2.471   3.723  13.241  0.1003 -0.1668 -0.4865
 5952TIP3   OH239346   5.266   6.565  14.040 -0.0305 -0.4779 -0.0205
 5952TIP3    H139347   5.350   6.564  13.994 -1.0387 -1.8291 -1.9813
 5952TIP3    H239348   5.282   6.515  14.120  1.1926 -0.1065 -0.0127
 5953TIP3   OH239349   4.634   5.210  14.991 -0.4902 -0.3271 -0.8960
 5953TIP3    H139350   4.683   5.262  15.055 -1.3095  1.4255 -1.6436
 5953TIP3    H239351   4.545   5.206  15.027 -1.3052  1.8058 -2.4639
 5954TIP3   OH239352   4.150   2.760   2.216  1.0914 -0.6422  0.1080
 5954TIP3    H139353   4.137   2.826   2.148 -1.2591 -0.0767  0.9985
 5954TIP3    H239354   4.145   2.809   2.298 -0.3560 -1.8281  0.7833
 5955TIP3   OH239355   4.878   4.071   3.391 -0.3460  0.1853 -0.1701
 5955TIP3    H139356   4.902   4.126   3.317  3.6733 -0.3989  0.5008
 5955TIP3    H239357   4.825   4.001   3.352 -0.5249  1.2710 -2.0109
 5956TIP3   OH239358   4.678   1.813  15.131  0.2513 -0.1913  0.4615
 5956TIP3    H139359   4.734   1.739  15.155  1.2720 -0.6647 -2.8907
 5956TIP3    H239360   4.650   1.795  15.041 -0.1878  3.0662 -0.1929
 5957TIP3   OH239361   3.542   2.652  13.687  0.0790  0.7739  0.2882
 5957TIP3    H139362   3.615   2.706  13.656  0.4960  0.3856  0.5747
 5957TIP3    H239363   3.584   2.571  13.715 -0.4796  0.5179  0.3769
 5958TIP3   OH239364   2.454   1.846   0.161  0.0376 -0.1104 -0.0757
 5958TIP3    H139365   2.445   1.771   0.103 -1.1671 -1.3431  1.5864
 5958TIP3    H239366   2.391   1.829   0.231 -0.6630  2.7211  0.1031
 5959TIP3   OH239367   2.055   1.047  16.302  0.6111 -0.1009  0.2152
 5959TIP3    H139368   2.113   1.063  16.376 -1.2043 -2.2707  2.2978
 5959TIP3    H239369   1.973   1.090  16.326  0.6580  1.1838 -1.7133
 5960TIP3   OH239370   4.665   4.658   4.423  0.6288  0.0176  0.5139
 5960TIP3    H139371   4.615   4.688   4.499  0.8192  1.3297  0.1454
 5960TIP3    H239372   4.721   4.732   4.400  1.4048 -0.7667 -0.2173
 5961TIP3   OH239373   3.881   2.480  14.782 -0.0739 -0.6098  0.2899
 5961TIP3    H139374   3.859   2.572  14.769 -0.9023 -0.8748 -0.2391
 5961TIP3    H239375   3.822   2.451  14.852  1.2477 -0.3547  1.5496
 5962TIP3   OH239376   4.699   0.985  12.470 -0.3501 -0.5990 -0.3681
 5962TIP3    H139377   4.649   1.047  12.416 -2.2746  0.3972  2.3234
 5962TIP3    H239378   4.789   0.996  12.442 -0.8135  2.3312 -1.0792
 5963TIP3   OH239379   0.191   1.770   1.149 -0.0629  0.4083  0.4041
 5963TIP3    H139380   0.238   1.832   1.095 -0.8640 -0.1854 -1.0219
 5963TIP3    H239381   0.112   1.817   1.176 -0.0566  0.4290  0.3863
 5964TIP3   OH239382   4.064   1.464  15.173  0.2734  0.3794  0.1695
 5964TIP3    H139383   4.021   1.550  15.166  0.2030  0.5486  2.1579
 5964TIP3    H239384   4.113   1.468  15.255  1.3006 -1.0611 -0.3266
 5965TIP3   OH239385   4.503   1.636  12.724 -0.3213 -0.3075  0.0689
 5965TIP3    H139386   4.585   1.627  12.676 -0.8286 -3.7201 -0.4200
 5965TIP3    H239387   4.453   1.702  12.675  0.6871 -0.8791 -1.8318
 5966TIP3   OH239388   4.360   0.154  16.522  0.1086  0.4223 -0.1904
 5966TIP3    H139389   4.319   0.073  16.550  0.4015  0.6049  0.8170
 5966TIP3    H239390   4.361   0.149  16.426 -1.1511 -0.1140 -0.1925
 5967TIP3   OH239391   1.369   0.875   1.110 -0.1683  0.1190 -0.2680
 5967TIP3    H139392   1.456   0.834   1.116  0.3777  1.3287  0.2613
 5967TIP3    H239393   1.359   0.895   1.017  0.2090  0.1690 -0.2999
 5968TIP3   OH239394   4.784   2.569  14.707  0.4171 -0.3940 -0.0902
 5968TIP3    H139395   4.828   2.520  14.638 -0.3342  0.0805 -0.9327
 5968TIP3    H239396   4.800   2.661  14.686 -0.3856 -0.2274 -0.0265
 5969TIP3   OH239397   6.574   5.438   1.047 -0.2549 -0.1022 -0.2249
 5969TIP3    H139398   6.661   5.403   1.067  0.6470  1.5962 -1.0512
 5969TIP3    H239399   6.563   5.510   1.109 -1.4684 -0.8149  0.4399
 5970TIP3   OH239400   1.886   3.982   6.392 -0.0489  0.0917  0.4080
 5970TIP3    H139401   1.861   4.074   6.388 -1.9992 -0.4115  0.2586
 5970TIP3    H239402   1.845   3.950   6.473 -1.7067 -1.2544 -0.9042
 5971TIP3   OH239403   4.522   0.459   4.209  0.6000 -0.2818 -0.4003
 5971TIP3    H139404   4.608   0.499   4.224  0.6777 -0.8363  0.8280
 5971TIP3    H239405   4.541   0.365   4.204 -0.0163 -0.5039  0.8941
 5972TIP3   OH239406   4.455   0.511   5.823 -0.2975  0.1067 -0.3635
 5972TIP3    H139407   4.363   0.495   5.844 -0.7977  0.6387 -2.0515
 5972TIP3    H239408   4.481   0.435   5.771  0.6209 -0.6634  1.1404
 5973TIP3   OH239409   1.261   0.731   4.283 -0.2521  0.0748 -0.0319
 5973TIP3    H139410   1.211   0.789   4.340  0.5875  1.2459 -0.4437
 5973TIP3    H239411   1.197   0.694   4.223 -1.2279 -1.4796  1.8404
 5974TIP3   OH239412   3.266   1.801  13.800 -0.7024  0.3188  0.0114
 5974TIP3    H139413   3.292   1.874  13.855 -0.8450  0.5250 -0.1925
 5974TIP3    H239414   3.262   1.837  13.712  0.8988 -0.3336 -0.3654
 5975TIP3   OH239415   1.980   1.772   3.872  0.3922  0.6484  0.0404
 5975TIP3    H139416   1.972   1.679   3.851  2.0439 -0.4297  3.4558
 5975TIP3    H239417   1.892   1.797   3.901  0.3597 -0.4224  0.9440
 5976TIP3   OH239418   0.738   0.308  17.016  0.1638 -0.5067 -0.0271
 5976TIP3    H139419   0.702   0.287  17.102 -2.3824 -0.9802 -1.1190
 5976TIP3    H239420   0.729   0.403  17.009  0.5942 -0.4369  0.2878
 5977TIP3   OH239421   6.425   0.116  13.357 -0.0941 -0.2849  0.1327
 5977TIP3    H139422   6.460   0.121  13.446 -0.0666 -0.5719  0.1414
 5977TIP3    H239423   6.400   0.206  13.335  0.2667 -0.1479  0.2809
 5978TIP3   OH239424   3.118   3.964   1.123 -0.0235 -0.5003  0.1803
 5978TIP3    H139425   3.118   4.057   1.099  1.7072 -0.2670  0.9140
 5978TIP3    H239426   3.042   3.927   1.078  0.7099  0.7305 -2.1994
 5979TIP3   OH239427   5.254   6.085  17.010 -0.7924  0.5163  0.7549
 5979TIP3    H139428   5.188   6.017  16.992 -0.6595  0.4977  0.3269
 5979TIP3    H239429   5.210   6.146  17.070 -2.0991  1.8900 -1.4862
 5980TIP3   OH239430   5.109   4.334  11.128  0.0203  0.3082  0.3677
 5980TIP3    H139431   5.146   4.396  11.190  1.1933  1.6930 -1.6279
 5980TIP3    H239432   5.016   4.355  11.125  0.0964  0.7614  1.0099
 5981TIP3   OH239433   1.611   1.332  15.458  0.2062 -0.4237 -0.5473
 5981TIP3    H139434   1.655   1.356  15.376  1.0764 -0.7279 -0.1892
 5981TIP3    H239435   1.521   1.362  15.447  0.7432  1.1413 -0.9201
 5982TIP3   OH239436   6.437   0.535   3.602  0.4334 -0.2079 -0.0341
 5982TIP3    H139437   6.459   0.626   3.583  0.7365 -0.3641 -0.4222
 5982TIP3    H239438   6.515   0.485   3.580  0.5167 -0.4857  0.8523
 5983TIP3   OH239439   6.051   3.304  14.279 -0.1995 -0.0881  0.1720
 5983TIP3    H139440   6.131   3.252  14.283 -0.2981 -0.3096 -0.6236
 5983TIP3    H239441   5.984   3.247  14.317 -0.1280 -0.1835  0.1541
 5984TIP3   OH239442   0.916   2.794   2.583  0.3816 -0.1319  0.5846
 5984TIP3    H139443   0.923   2.806   2.489 -0.0895 -2.2092  0.2230
 5984TIP3    H239444   0.992   2.839   2.619  0.5961  0.6549 -0.7773
 5985TIP3   OH239445   1.482   0.921   0.851  0.7671  0.9713  0.2949
 5985TIP3    H139446   1.553   0.961   0.901  0.9872  1.2981 -0.2592
 5985TIP3    H239447   1.476   0.975   0.772  1.0068 -0.0201 -0.4341
 5986TIP3   OH239448   4.040   0.302  14.153 -0.6422 -0.1038 -0.2506
 5986TIP3    H139449   4.092   0.382  14.160  1.3334 -1.2740 -0.6085
 5986TIP3    H239450   4.052   0.259  14.238 -0.7376 -0.5430 -0.4570
 5987TIP3   OH239451   2.198   3.772  11.608  0.9792 -0.0524 -0.3325
 5987TIP3    H139452   2.228   3.848  11.659 -0.1783  0.7915 -0.8687
 5987TIP3    H239453   2.279   3.725  11.587  1.8811  1.6860 -1.0047
 5988TIP3   OH239454   6.644   0.757   6.112  0.1710  0.0678  0.0676
 5988TIP3    H139455   6.629   0.675   6.065 -1.2159 -0.4677  1.3539
 5988TIP3    H239456   6.651   0.730   6.204  1.8056  1.1838  0.2958
 5989TIP3   OH239457   2.754   0.898  10.820 -0.0874  0.2615  0.1462
 5989TIP3    H139458   2.681   0.858  10.867  1.4843 -2.1944  0.6589
 5989TIP3    H239459   2.728   0.895  10.728 -0.4228 -1.1175  0.2719
 5990TIP3   OH239460   3.307   2.166   0.568 -0.3665  0.1860  0.2188
 5990TIP3    H139461   3.220   2.160   0.529 -0.2809  0.7794 -0.0639
 5990TIP3    H239462   3.292   2.149   0.662 -0.5699 -1.2285 -0.0438
 5991TIP3   OH239463   4.429   6.224  13.315  0.0242 -0.4609  0.0850
 5991TIP3    H139464   4.442   6.131  13.299  2.0522 -0.0595 -0.8752
 5991TIP3    H239465   4.391   6.258  13.234  0.0894 -0.3063  0.1179
 5992TIP3   OH239466   4.357   6.111   2.257 -0.0617 -0.1015  0.0343
 5992TIP3    H139467   4.273   6.118   2.304 -0.2318  2.0058 -0.4842
 5992TIP3    H239468   4.389   6.023   2.278 -1.6356 -0.3702  1.5264
 5993TIP3   OH239469   1.076   3.186   4.063  0.3666  0.0685  0.0125
 5993TIP3    H139470   1.000   3.128   4.059  0.7536 -0.4235 -0.4100
 5993TIP3    H239471   1.134   3.153   3.994  1.5698 -0.4553  1.2362
 5994TIP3   OH239472   5.295   2.005  13.892  0.1408  0.3024  0.8445
 5994TIP3    H139473   5.233   1.958  13.836 -0.6259  3.7873 -1.5501
 5994TIP3    H239474   5.258   1.997  13.980 -1.8933 -0.5006 -0.0052
 5995TIP3   OH239475   6.628   5.111  13.854  0.0216  0.1294  0.7356
 5995TIP3    H139476   6.641   5.016  13.856 -1.1215 -0.0609  0.0072
 5995TIP3    H239477   6.596   5.133  13.942 -1.2720 -0.4221  0.4251
 5996TIP3   OH239478   2.115   1.690   6.155 -0.5030  0.4313 -0.3400
 5996TIP3    H139479   2.146   1.761   6.211 -0.4232  1.3216 -1.4688
 5996TIP3    H239480   2.163   1.613   6.185  2.6471  1.6778 -1.7670
 5997TIP3   OH239481   5.769   3.834   6.072  0.3997 -0.2665 -0.1428
 5997TIP3    H139482   5.851   3.849   6.024 -0.7356  0.6902 -1.9375
 5997TIP3    H239483   5.743   3.922   6.100 -1.2244 -0.1688 -1.7932
 5998TIP3   OH239484   2.088   1.639  10.883 -0.0338  0.0253  0.1501
 5998TIP3    H139485   2.051   1.585  10.813 -1.3025  0.3008  0.5678
 5998TIP3    H239486   2.015   1.695  10.911  0.8673  0.9908  0.6626
 5999TIP3   OH239487   1.089   5.846   3.297  0.3494  0.1027  0.4503
 5999TIP3    H139488   1.036   5.913   3.341  0.1862 -0.3273  0.9136
 5999TIP3    H239489   1.153   5.896   3.247 -0.9226  0.6565 -0.6841
 6000TIP3   OH239490   0.465   3.556   3.942 -0.1925 -0.0907 -0.2837
 6000TIP3    H139491   0.494   3.612   3.870 -0.8368  1.8041  0.8789
 6000TIP3    H239492   0.536   3.560   4.006 -0.7233  0.3204  0.2891
 6001TIP3   OH239493   2.786   0.102   0.072  0.3941  0.5025 -0.2765
 6001TIP3    H139494   2.820   0.172   0.015 -0.0802 -0.2213 -1.4888
 6001TIP3    H239495   2.692   0.099   0.052  0.1214  0.5874  0.9525
 6002TIP3   OH239496   0.569   0.530  12.990 -0.0450  0.0678  0.4830
 6002TIP3    H139497   0.600   0.449  12.950 -1.5276 -1.0051  1.4170
 6002TIP3    H239498   0.510   0.569  12.924 -0.2819 -0.2414  0.5120
 6003TIP3   OH239499   4.401   1.294   3.592 -0.4970  0.1054  0.0149
 6003TIP3    H139500   4.369   1.360   3.531  1.2438  0.4516 -0.5915
 6003TIP3    H239501   4.466   1.340   3.645 -1.0863 -0.5059  1.3143
 6004TIP3   OH239502   4.547   4.040   3.246  0.4206 -0.6124 -0.8739
 6004TIP3    H139503   4.485   4.092   3.196  0.8328  1.1681  0.3691
 6004TIP3    H239504   4.573   4.097   3.319  0.7872 -2.6306  0.6525
 6005TIP3   OH239505   4.054   3.080  12.184  0.4698  0.3113  0.2216
 6005TIP3    H139506   4.132   3.043  12.143  1.5622  1.7549  0.9162
 6005TIP3    H239507   4.071   3.174  12.189 -1.3427  0.6857  0.3616
 6006TIP3   OH239508   4.919   2.088  16.943 -0.8946  0.1823  0.6298
 6006TIP3    H139509   4.944   2.029  17.014  1.7088 -3.0978 -2.6320
 6006TIP3    H239510   4.949   2.174  16.971  1.7358 -1.2775  2.7496
 6007TIP3   OH239511   1.081   1.157   3.534  0.5880  0.1776 -0.0091
 6007TIP3    H139512   1.050   1.173   3.444 -0.4364 -0.6006  0.1813
 6007TIP3    H239513   1.006   1.116   3.578  0.6191  1.7024  1.5827
 6008TIP3   OH239514   3.266   4.240   4.338  0.0328 -0.5015 -0.1948
 6008TIP3    H139515   3.318   4.202   4.409 -0.7773  2.5208  2.2553
 6008TIP3    H239516   3.176   4.215   4.358 -0.1064 -0.4394 -0.7306
 6009TIP3   OH239517   0.759   5.790   1.887  0.0736  0.4441  0.3303
 6009TIP3    H139518   0.796   5.814   1.802  1.3787 -0.6523  0.5536
 6009TIP3    H239519   0.831   5.748   1.934 -1.1515 -0.7379  1.2428
 6010TIP3   OH239520   4.655   6.551   3.239 -0.0450 -0.1607 -0.1024
 6010TIP3    H139521   4.596   6.484   3.272 -1.3489  1.2219  0.5303
 6010TIP3    H239522   4.612   6.584   3.160 -0.4262  1.2040  0.6384
 6011TIP3   OH239523   0.460   3.504  16.929 -0.2137  0.0405  0.7476
 6011TIP3    H139524   0.548   3.513  16.965 -0.0149 -0.1981  0.3213
 6011TIP3    H239525   0.472   3.500  16.834 -0.7407  0.6863  0.6452
 6012TIP3   OH239526   4.388   2.109  15.949 -0.1439 -0.3473  0.1948
 6012TIP3    H139527   4.457   2.173  15.966 -1.6806  0.8918  2.1753
 6012TIP3    H239528   4.432   2.024  15.954  1.6860  0.4518 -1.2195
 6013TIP3   OH239529   2.510   3.568   2.631  0.6323  0.0144  0.0444
 6013TIP3    H139530   2.603   3.556   2.609  0.6502  0.7406 -0.3014
 6013TIP3    H239531   2.465   3.565   2.547  0.7063  2.8601 -0.2048
 6014TIP3   OH239532   4.066   2.546   5.053 -0.2634  0.5997 -0.3004
 6014TIP3    H139533   4.061   2.527   4.959  2.5524 -0.6117 -0.3287
 6014TIP3    H239534   3.976   2.542   5.084 -1.3249  1.4415 -3.0010
 6015TIP3   OH239535   5.715   6.363   1.416 -0.2191 -0.1144 -0.2996
 6015TIP3    H139536   5.731   6.279   1.458 -0.1415  0.5791  1.1074
 6015TIP3    H239537   5.620   6.372   1.415 -0.2346 -0.3292 -0.6698
 6016TIP3   OH239538   0.619   1.140   5.386 -0.0517  0.4280  0.1346
 6016TIP3    H139539   0.621   1.221   5.335 -0.6155  0.0902 -0.4290
 6016TIP3    H239540   0.602   1.170   5.476 -1.2505  0.8827 -0.2168
 6017TIP3   OH239541   3.042   2.854   3.101 -0.4194 -0.4490  0.5352
 6017TIP3    H139542   3.007   2.932   3.059  0.7289 -0.0094  0.3679
 6017TIP3    H239543   3.051   2.790   3.030 -0.9352 -0.5883  0.5917
 6018TIP3   OH239544   4.805   2.809   1.169  0.2889  0.4675  0.3720
 6018TIP3    H139545   4.782   2.877   1.231  1.2506  1.8463 -0.7084
 6018TIP3    H239546   4.743   2.820   1.097 -0.9004 -1.1964  1.0871
 6019TIP3   OH239547   4.024   1.093   4.771 -0.2088  0.1717  0.4167
 6019TIP3    H139548   4.056   1.101   4.861 -0.5208  0.4010  0.5092
 6019TIP3    H239549   4.101   1.113   4.717 -0.0285  0.0646  0.6297
 6020TIP3   OH239550   0.568   0.629   0.861 -0.2642  0.3489 -0.2849
 6020TIP3    H139551   0.597   0.700   0.804 -1.6935  0.1189 -1.3562
 6020TIP3    H239552   0.619   0.553   0.832 -0.3214  0.4436 -0.6439
 6021TIP3   OH239553   4.639   2.099   4.517  0.5065 -0.8057 -0.2021
 6021TIP3    H139554   4.659   2.112   4.424  0.0287  1.1329 -0.0725
 6021TIP3    H239555   4.553   2.139   4.529  0.2917 -1.5610  0.9763
 6022TIP3   OH239556   1.075   2.872   5.233 -0.4452  0.0155 -0.6859
 6022TIP3    H139557   1.011   2.855   5.303  2.2868 -0.7985  1.8344
 6022TIP3    H239558   1.052   2.809   5.164 -1.4532 -1.3041  0.7775
 6023TIP3   OH239559   5.081   5.646   2.883 -0.1677 -0.4404 -0.0126
 6023TIP3    H139560   5.146   5.600   2.830  0.0398 -0.0958 -0.0538
 6023TIP3    H239561   5.002   5.591   2.876  0.4218 -1.4604  0.9496
 6024TIP3   OH239562   5.407   1.772  13.346 -0.4396  0.5151 -0.4065
 6024TIP3    H139563   5.482   1.749  13.291 -0.2096  0.0696  0.0912
 6024TIP3    H239564   5.439   1.763  13.436 -0.7354  1.5014 -0.1902
 6025TIP3   OH239565   5.053   3.825   0.317 -0.2247 -0.3546  0.0844
 6025TIP3    H139566   5.085   3.823   0.407 -1.9962  1.6556  0.8439
 6025TIP3    H239567   4.972   3.773   0.319 -0.1990 -0.4229 -0.3960
 6026TIP3   OH239568   4.465   5.021   3.233  0.1669 -0.0178  0.1720
 6026TIP3    H139569   4.415   4.982   3.162 -0.0135  0.8297 -0.1766
 6026TIP3    H239570   4.434   5.112   3.237  0.0335 -0.1043  1.4588
 6027TIP3   OH239571   6.073   5.799  12.147  0.1275  0.3043 -0.3548
 6027TIP3    H139572   6.147   5.775  12.091 -0.1098  0.6621 -0.8369
 6027TIP3    H239573   6.027   5.867  12.097 -0.5795  0.0145 -0.1140
 6028TIP3   OH239574   4.558   1.020  14.214  0.3460  0.5021 -0.4803
 6028TIP3    H139575   4.639   0.975  14.188 -1.4493 -3.4758  0.2067
 6028TIP3    H239576   4.504   1.020  14.135 -1.2763 -2.6410  0.4660
 6029TIP3   OH239577   0.900   3.245   3.722  0.0895 -0.2747 -0.6310
 6029TIP3    H139578   0.970   3.230   3.786 -0.9793 -0.9352  0.4300
 6029TIP3    H239579   0.936   3.309   3.661  1.6477 -0.6758 -0.1694
 6030TIP3   OH239580   0.213   6.260   2.067  0.3352 -0.5555 -0.1912
 6030TIP3    H139581   0.241   6.324   2.001 -0.4816  1.1414  1.0159
 6030TIP3    H239582   0.292   6.210   2.087  1.3022  0.7959 -0.4465
 6031TIP3   OH239583   6.558   2.136  16.661  0.1131 -0.1435  0.3574
 6031TIP3    H139584   6.501   2.145  16.738 -1.2244  1.6904 -0.7650
 6031TIP3    H239585   6.642   2.173  16.689 -0.2944  0.3190  1.0031
 6032TIP3   OH239586   2.450   1.553   2.001  0.0813 -0.2545 -1.4078
 6032TIP3    H139587   2.457   1.640   2.041  0.0196 -0.3330 -1.2285
 6032TIP3    H239588   2.486   1.565   1.913  0.5824 -0.1771 -1.1922
 6033TIP3   OH239589   0.192   1.129  12.243 -0.2814  0.1679 -0.3852
 6033TIP3    H139590   0.282   1.102  12.227  0.2578  0.5985  1.6419
 6033TIP3    H239591   0.195   1.225  12.243 -0.8354  0.1905 -0.7915
 6034TIP3   OH239592   0.065   6.663   1.057 -0.2992 -0.2536  0.0092
 6034TIP3    H139593   0.027   6.640   1.142 -2.1285  0.2646 -0.6318
 6034TIP3    H239594   0.131   6.729   1.077  1.7701 -2.5573  1.3732
 6035TIP3   OH239595   6.073   6.452  13.167  0.1857  0.0741  0.5335
 6035TIP3    H139596   6.107   6.494  13.246 -0.2212  0.2384  0.6246
 6035TIP3    H239597   6.027   6.523  13.121  3.1266  0.8672 -1.4943
 6036TIP3   OH239598   0.783   4.361   1.968 -0.0503  0.5783 -0.3806
 6036TIP3    H139599   0.870   4.387   1.938  1.4051  0.3795  3.1763
 6036TIP3    H239600   0.784   4.266   1.968  0.4607  0.5417  1.2326
 6037TIP3   OH239601   0.428   5.268  15.529 -0.1477  0.3821  0.1202
 6037TIP3    H139602   0.334   5.253  15.538 -0.0779 -0.8341 -0.9702
 6037TIP3    H239603   0.436   5.325  15.453  0.0369 -0.1792 -0.2855
 6038TIP3   OH239604   0.109   5.478  15.238  0.4506  0.5093 -0.7156
 6038TIP3    H139605   0.027   5.495  15.283  0.7594 -0.0042  0.0632
 6038TIP3    H239606   0.128   5.386  15.255  0.5262  0.2688 -1.9964
 6039TIP3   OH239607   2.534   2.655   6.113  0.6583  0.0236 -0.0341
 6039TIP3    H139608   2.461   2.715   6.124  1.8053  1.2711  1.2021
 6039TIP3    H239609   2.550   2.620   6.201  0.8079 -1.1574 -0.5047
 6040TIP3   OH239610   1.927   6.476   3.890  0.3465  0.7950 -0.1293
 6040TIP3    H139611   1.907   6.539   3.958 -1.9564  0.1095 -0.0944
 6040TIP3    H239612   1.842   6.450   3.855  1.1253 -2.5252  0.0969
 6041TIP3   OH239613   2.546   3.713   5.721  0.1056  0.4665  0.9536
 6041TIP3    H139614   2.599   3.723   5.642 -1.3503 -1.5155 -0.3668
 6041TIP3    H239615   2.562   3.794   5.771  2.4297  0.9994 -0.4933
 6042TIP3   OH239616   2.038   1.502  15.115 -0.9187  0.4717 -0.3859
 6042TIP3    H139617   2.048   1.433  15.050  0.0539  0.9429 -0.7551
 6042TIP3    H239618   2.015   1.580  15.064 -2.0995  0.4210  0.0325
 6043TIP3   OH239619   1.772   4.958  13.543 -0.2186 -0.3124 -0.1642
 6043TIP3    H139620   1.716   4.951  13.466 -1.2250  1.9371  0.2966
 6043TIP3    H239621   1.857   4.987  13.508 -0.1812 -0.8824 -0.5653
 6044TIP3   OH239622   1.189   6.798   0.439  0.4748  0.3923  0.2407
 6044TIP3    H139623   1.129   6.870   0.426  1.2158  0.9159 -0.3913
 6044TIP3    H239624   1.154   6.727   0.384 -1.0155 -0.2391  1.9058
 6045TIP3   OH239625   3.810   4.696   3.634  0.2992  0.2855  0.2585
 6045TIP3    H139626   3.777   4.697   3.724 -0.9910  1.2398 -0.1923
 6045TIP3    H239627   3.840   4.786   3.619  0.7940  0.0520 -0.1677
 6046TIP3   OH239628   3.568   5.130  12.445 -0.2291  0.3100 -0.3860
 6046TIP3    H139629   3.628   5.122  12.371 -1.3114 -0.9261 -1.1705
 6046TIP3    H239630   3.512   5.053  12.439 -0.2023  0.0571  1.8766
 6047TIP3   OH239631   6.433   5.989  11.196 -0.0202  0.2561 -0.2507
 6047TIP3    H139632   6.414   5.977  11.289 -0.7237  2.0261 -0.1384
 6047TIP3    H239633   6.528   5.992  11.192  0.0396 -0.4877  0.3099
 6048TIP3   OH239634   6.191   0.255   4.764 -0.1090 -0.4699  0.5329
 6048TIP3    H139635   6.260   0.215   4.711 -0.0840  0.9048 -0.5279
 6048TIP3    H239636   6.134   0.297   4.700 -0.1328  1.1461  1.5696
 6049TIP3   OH239637   3.114   6.792  11.249 -0.2100  0.0422  0.0848
 6049TIP3    H139638   3.161   6.803  11.167 -1.4426  1.5540 -0.4688
 6049TIP3    H239639   3.024   6.819  11.229 -0.4628  0.7927  1.9978
 6050TIP3   OH239640   0.769   0.058  17.233  0.1364  0.2512 -0.1517
 6050TIP3    H139641   0.863   0.078  17.233  0.0157  0.8412 -1.0895
 6050TIP3    H239642   0.762  -0.021  17.287  1.6012 -1.7751 -2.7243
 6051TIP3   OH239643   3.216   6.089   1.196  0.0339  0.0589 -0.2137
 6051TIP3    H139644   3.149   6.154   1.178 -2.9722 -2.9966 -1.0601
 6051TIP3    H239645   3.273   6.091   1.119 -0.0297  1.5721 -0.2454
 6052TIP3   OH239646   5.403   1.866  16.097 -0.2075  0.1943 -0.0736
 6052TIP3    H139647   5.371   1.799  16.037 -0.0207  0.6149 -0.6418
 6052TIP3    H239648   5.377   1.834  16.184  0.3909 -0.9136 -0.2792
 6053TIP3   OH239649   1.428   3.822   1.486  0.4279  0.3012  0.1508
 6053TIP3    H139650   1.391   3.761   1.550 -0.2428 -0.1917 -0.6775
 6053TIP3    H239651   1.351   3.859   1.442  0.8953 -0.7687 -1.6467
 6054TIP3   OH239652   3.555   5.842   4.397 -0.1752 -0.6077 -0.2630
 6054TIP3    H139653   3.550   5.904   4.471  1.0254 -0.0852 -0.5798
 6054TIP3    H239654   3.465   5.816   4.381 -0.3896 -1.8568  2.3114
 6055TIP3   OH239655   2.895   5.733   1.056  0.2272  0.5324 -0.7953
 6055TIP3    H139656   2.965   5.793   1.083  0.6087  1.2347 -3.1241
 6055TIP3    H239657   2.825   5.749   1.119  1.4075  1.2930  0.3784
 6056TIP3   OH239658   0.075   0.024   6.016  0.1495 -0.0228  0.4602
 6056TIP3    H139659   0.051  -0.033   6.089  1.9046  1.2173  2.1161
 6056TIP3    H239660   0.171   0.023   6.016  0.2890  3.4154  1.0525
 6057TIP3   OH239661   3.622   0.893  15.716 -0.2727 -0.2581  0.2001
 6057TIP3    H139662   3.549   0.930  15.766 -0.1262 -0.2403  0.4025
 6057TIP3    H239663   3.580   0.850  15.641 -0.4762 -0.0677  0.2021
 6058TIP3   OH239664   5.791   2.276  13.057 -0.3506  0.0966 -0.5706
 6058TIP3    H139665   5.879   2.311  13.071 -0.5305  0.1231  0.6010
 6058TIP3    H239666   5.746   2.290  13.141 -2.4599  2.8045 -2.0112
 6059TIP3   OH239667   5.916   2.673   4.255  0.1362 -0.3499  0.4342
 6059TIP3    H139668   5.945   2.748   4.202 -0.1028 -0.4284  0.1845
 6059TIP3    H239669   5.847   2.709   4.311  1.5400  0.1172  1.9123
 6060TIP3   OH239670   1.370   3.271   3.209  0.0296  0.4424  0.4427
 6060TIP3    H139671   1.353   3.189   3.162  4.1379 -0.0948 -0.4779
 6060TIP3    H239672   1.299   3.277   3.273 -1.9879 -2.3410 -1.2965
 6061TIP3   OH239673   1.716   3.055   0.667 -0.1186 -0.2786  0.4585
 6061TIP3    H139674   1.786   3.034   0.729  1.5006  1.3259 -0.7227
 6061TIP3    H239675   1.670   3.129   0.706 -0.6328 -0.7841  0.8291
 6062TIP3   OH239676   6.791   6.049   5.700 -0.3023  0.6438  0.4304
 6062TIP3    H139677   6.805   6.049   5.795 -0.0156 -0.7555  0.4082
 6062TIP3    H239678   6.751   5.964   5.682  0.7474  0.4046 -0.8704
 6063TIP3   OH239679   3.257   6.620   6.418  0.2905 -0.0090 -0.1074
 6063TIP3    H139680   3.240   6.713   6.439  0.0946 -0.1766  0.5164
 6063TIP3    H239681   3.215   6.572   6.490  1.2396 -0.5467  0.1011
 6064TIP3   OH239682   3.090   3.674   2.067 -0.5383 -0.2825 -0.6867
 6064TIP3    H139683   3.122   3.763   2.051  0.3855 -0.6480 -0.9404
 6064TIP3    H239684   2.996   3.679   2.050 -0.7429  0.9449  0.5715
 6065TIP3   OH239685   0.994   0.169   0.375  0.7353 -0.1798 -0.0127
 6065TIP3    H139686   0.912   0.159   0.326 -0.1231 -0.9732  1.5074
 6065TIP3    H239687   1.024   0.257   0.354 -2.5427  1.7072  2.2679
 6066TIP3   OH239688   5.961   4.247  16.056 -0.0574  0.4572  0.1002
 6066TIP3    H139689   5.976   4.166  16.103 -1.8375 -0.7164 -1.1999
 6066TIP3    H239690   5.956   4.221  15.964 -4.2527  1.3201 -0.1137
 6067TIP3   OH239691   3.667   2.770  16.139 -0.2543  0.5403 -0.3746
 6067TIP3    H139692   3.617   2.809  16.211 -1.5554  0.2112 -1.0697
 6067TIP3    H239693   3.723   2.841  16.108  2.4039 -0.0013  2.6535
 6068TIP3   OH239694   2.834   1.597  13.354  0.7148  0.5844 -0.5681
 6068TIP3    H139695   2.786   1.523  13.316  0.5155  0.0109  0.7641
 6068TIP3    H239696   2.912   1.604  13.299  0.3861 -0.1409 -1.1616
 6069TIP3   OH239697   0.785   4.706   4.448 -0.2500 -0.0329 -0.4524
 6069TIP3    H139698   0.852   4.640   4.434 -1.4189 -1.7728  1.6106
 6069TIP3    H239699   0.829   4.776   4.497 -0.0841 -1.6327  1.8344
 6070TIP3   OH239700   1.743   2.171   5.493  0.2521 -0.6587  0.0877
 6070TIP3    H139701   1.680   2.100   5.505 -1.3106  0.5302 -0.6248
 6070TIP3    H239702   1.719   2.210   5.409  0.1673  1.5566  1.0711
 6071TIP3   OH239703   3.449   4.631  11.744  0.0579  0.2946  0.0705
 6071TIP3    H139704   3.479   4.685  11.671  0.3173 -0.4073 -0.3490
 6071TIP3    H239705   3.383   4.685  11.787  0.6870  1.1567 -0.0197
 6072TIP3   OH239706   0.309   6.729   1.286 -0.7575  0.3552  0.4072
 6072TIP3    H139707   0.279   6.794   1.223 -1.7445 -1.0087 -0.5832
 6072TIP3    H239708   0.270   6.756   1.369  0.2881  1.9838  0.4281
 6073TIP3   OH239709   4.588   2.950  12.766 -0.2373  0.5604 -0.1004
 6073TIP3    H139710   4.604   2.882  12.832 -1.5173  0.8394  0.5341
 6073TIP3    H239711   4.670   2.956  12.718  0.9121  0.6866  1.7700
 6074TIP3   OH239712   3.351   5.185  17.195  0.0920 -0.5224  0.2157
 6074TIP3    H139713   3.395   5.254  17.146  1.3094 -0.6652  1.0720
 6074TIP3    H239714   3.325   5.121  17.129  0.7366 -0.1911 -0.3650
 6075TIP3   OH239715   3.965   0.208  13.012 -0.0893 -0.2683  0.3329
 6075TIP3    H139716   3.983   0.133  12.955 -0.0798 -0.5397  0.6897
 6075TIP3    H239717   3.901   0.260  12.964  0.5361 -0.0623 -0.2983
 6076TIP3   OH239718   2.229   5.794   2.298  0.4304 -0.4130  0.0571
 6076TIP3    H139719   2.179   5.744   2.235 -1.3239 -1.4840  2.1690
 6076TIP3    H239720   2.164   5.848   2.344  1.7392  0.8943  0.4659
 6077TIP3   OH239721   2.128   0.560   2.614  0.0997  0.4684  0.0538
 6077TIP3    H139722   2.109   0.499   2.544  1.8968  0.3458 -0.3676
 6077TIP3    H239723   2.163   0.638   2.570 -2.1202  1.8584  0.5716
 6078TIP3   OH239724   2.389   2.446  13.348 -0.3579  0.3769 -0.0094
 6078TIP3    H139725   2.433   2.525  13.315 -2.9395  2.0366  0.2970
 6078TIP3    H239726   2.339   2.414  13.273  0.1990 -0.6728  0.0479
 6079TIP3   OH239727   6.221   5.109   1.373  0.3604  0.4907  0.3451
 6079TIP3    H139728   6.256   5.192   1.340 -1.8246  1.9597  1.4549
 6079TIP3    H239729   6.276   5.088   1.448  1.7115  0.2258 -0.6808
 6080TIP3   OH239730   3.257   3.137  11.513  0.1146  0.8607  0.6488
 6080TIP3    H139731   3.231   3.184  11.434 -0.4053  0.8319  0.7951
 6080TIP3    H239732   3.174   3.120  11.558  0.3735  0.5310  1.0030
 6081TIP3   OH239733   6.300   0.972  15.421  0.4272 -0.3428 -0.4798
 6081TIP3    H139734   6.268   1.062  15.431 -0.3313 -0.7771  1.1785
 6081TIP3    H239735   6.380   0.982  15.369  0.5154  1.3277 -0.0930
 6082TIP3   OH239736   2.611   4.217  11.965  0.1634 -0.1222  0.0932
 6082TIP3    H139737   2.586   4.170  11.885  0.2976 -0.9985  0.5575
 6082TIP3    H239738   2.681   4.276  11.937 -0.2092  0.0199 -0.5584
 6083TIP3   OH239739   3.653   1.591  15.589  0.4754  0.0856  0.3510
 6083TIP3    H139740   3.578   1.595  15.530  0.3802  1.8767  0.5451
 6083TIP3    H239741   3.615   1.582  15.676  0.6114 -2.3049  0.2402
 6084TIP3   OH239742   3.607   5.860   3.566  0.6040 -0.1282 -0.1824
 6084TIP3    H139743   3.649   5.926   3.622  1.4959 -0.5750 -0.3118
 6084TIP3    H239744   3.669   5.787   3.564  0.4769 -0.2287 -1.5534
 6085TIP3   OH239745   0.434   5.666  14.704  0.3303 -0.6079  0.0215
 6085TIP3    H139746   0.496   5.641  14.635  0.0642 -0.3056 -0.3335
 6085TIP3    H239747   0.360   5.704  14.657 -0.0305 -0.7654  0.4564
 6086TIP3   OH239748   5.917   4.014   1.415 -0.0408  0.1127 -1.0046
 6086TIP3    H139749   5.912   4.079   1.345  0.5411  0.3031 -0.8723
 6086TIP3    H239750   5.839   3.959   1.402 -0.5589  0.8535 -1.0926
 6087TIP3   OH239751   5.531   5.020  16.056  0.5320  0.4096  0.3042
 6087TIP3    H139752   5.621   4.988  16.054  0.7959  1.1378  0.2393
 6087TIP3    H239753   5.480   4.945  16.086  1.2080  0.0984  0.7100
 6088TIP3   OH239754   1.004   5.876  16.175 -0.8541  0.2194  0.3562
 6088TIP3    H139755   1.049   5.815  16.116  1.4134 -0.3979  2.5365
 6088TIP3    H239756   0.954   5.819  16.235 -0.6754  0.6347  0.9044
 6089TIP3   OH239757   0.861   5.995   5.690  0.1970  0.2697 -0.9855
 6089TIP3    H139758   0.824   5.907   5.685  0.1692  0.2979 -1.3328
 6089TIP3    H239759   0.914   5.995   5.769 -0.2817  0.1239 -0.6602
 6090TIP3   OH239760   4.594   1.307  16.760  0.4447 -0.3585 -0.7798
 6090TIP3    H139761   4.559   1.396  16.753 -3.8187 -1.6862  0.7910
 6090TIP3    H239762   4.582   1.270  16.673  0.4285 -0.0146 -0.9282
 6091TIP3   OH239763   0.501   6.062   4.751  0.1318 -0.4043 -0.2020
 6091TIP3    H139764   0.484   6.129   4.817  0.7927 -0.3352 -0.0863
 6091TIP3    H239765   0.589   6.084   4.717  0.2352 -1.0422 -0.3619
 6092TIP3   OH239766   5.581   4.432   4.072  0.3206 -0.4264  0.5968
 6092TIP3    H139767   5.499   4.385   4.059 -0.6818  1.9584 -3.8822
 6092TIP3    H239768   5.639   4.398   4.004  1.4507  0.9906  0.8041
 6093TIP3   OH239769   1.724   0.148   5.411 -0.2623 -0.0414  0.9534
 6093TIP3    H139770   1.750   0.066   5.453  1.5512  1.3736  2.7462
 6093TIP3    H239771   1.699   0.206   5.483  1.2406  1.9092  0.0005
 6094TIP3   OH239772   2.279   2.356  13.090 -0.2176 -0.2010 -0.0288
 6094TIP3    H139773   2.348   2.421  13.077  0.4759 -0.8936  0.1271
 6094TIP3    H239774   2.288   2.296  13.016 -1.0648  0.0392 -0.3497
 6095TIP3   OH239775   3.040   1.564  12.560 -0.2066  0.7818  0.9933
 6095TIP3    H139776   3.090   1.496  12.517 -0.7964  0.8003  0.2556
 6095TIP3    H239777   3.104   1.632  12.581  0.3484  0.0902  1.5621
 6096TIP3   OH239778   5.321   1.075   3.938 -0.2870 -0.0955 -0.2681
 6096TIP3    H139779   5.256   1.059   3.870 -0.0904 -0.1554 -0.4450
 6096TIP3    H239780   5.271   1.108   4.012 -0.7924 -2.1432  0.3520
 6097TIP3   OH239781   6.727   0.400  12.020  0.3671 -0.5121  0.4782
 6097TIP3    H139782   6.654   0.379  12.079  1.4800 -2.0282  1.3735
 6097TIP3    H239783   6.705   0.486  11.985 -3.2723 -2.0018 -1.4704
 6098TIP3   OH239784   6.313   0.362   2.903 -0.2775 -0.3300  0.2184
 6098TIP3    H139785   6.398   0.367   2.946  0.3398 -1.3019 -0.8237
 6098TIP3    H239786   6.250   0.366   2.975  0.4201  3.7085  0.8714
 6099TIP3   OH239787   1.414   3.369  12.667  0.3342  0.3229  0.5065
 6099TIP3    H139788   1.457   3.452  12.686 -0.6262  0.8928  0.2528
 6099TIP3    H239789   1.327   3.377  12.707  0.0317 -0.3392 -0.0014
 6100TIP3   OH239790   0.091   5.585  12.172  0.0056  0.3036 -0.1582
 6100TIP3    H139791   0.075   5.491  12.177  2.9664 -0.5773 -3.3278
 6100TIP3    H239792   0.052   5.612  12.089  0.5681  1.5344 -0.0428
 6101TIP3   OH239793   3.579   1.710   1.778  0.2961 -0.0011  0.4456
 6101TIP3    H139794   3.538   1.631   1.813  1.0494 -1.0244 -0.8910
 6101TIP3    H239795   3.672   1.690   1.775  0.5428  1.0654  0.3832
 6102TIP3   OH239796   1.326   0.418   2.611 -0.3241 -0.0701 -0.1109
 6102TIP3    H139797   1.298   0.326   2.606 -0.2578 -0.0843 -0.2339
 6102TIP3    H239798   1.418   0.416   2.585 -0.5478  0.1444 -0.9593
 6103TIP3   OH239799   3.686   2.562  16.812 -0.4082  0.1717 -0.0740
 6103TIP3    H139800   3.630   2.494  16.851  0.2455 -1.2743 -1.4944
 6103TIP3    H239801   3.769   2.517  16.796  1.2936  2.3099  2.1042
 6104TIP3   OH239802   5.054   0.891  13.326 -0.1547  0.4694 -0.0889
 6104TIP3    H139803   5.005   0.816  13.291 -0.0466  0.4696 -0.2439
 6104TIP3    H239804   5.081   0.940  13.248 -0.7628  1.0096  0.0397
 6105TIP3   OH239805   3.771   4.551   3.887 -0.2531  0.2846  0.3037
 6105TIP3    H139806   3.854   4.515   3.918  0.2655  0.8757 -0.3766
 6105TIP3    H239807   3.732   4.479   3.837  0.3658  0.3458 -0.2918
 6106TIP3   OH239808   6.443   0.132   4.705  0.0503  0.1557 -0.3639
 6106TIP3    H139809   6.489   0.074   4.766  1.2243  0.4101 -0.9839
 6106TIP3    H239810   6.511   0.161   4.644 -0.1297  3.4257  0.8274
 6107TIP3   OH239811   0.749   0.263   5.826  0.4938 -0.7844  0.3575
 6107TIP3    H139812   0.709   0.297   5.907  0.3637 -0.0150 -0.0149
 6107TIP3    H239813   0.704   0.310   5.756  2.4199  0.5738 -0.0582
 6108TIP3   OH239814   1.382   1.575  16.817 -0.3309 -0.2491 -0.2350
 6108TIP3    H139815   1.391   1.526  16.735  0.1874  0.2724 -0.4963
 6108TIP3    H239816   1.468   1.615  16.830 -0.7188  0.5009  0.0376
 6109TIP3   OH239817   4.329   6.098   5.095  0.2125  0.2178  0.4072
 6109TIP3    H139818   4.381   6.020   5.117  1.3496  0.7813 -0.1567
 6109TIP3    H239819   4.264   6.104   5.165  0.9448 -0.4909  1.1780
 6110TIP3   OH239820   3.212   3.655   4.589 -0.0328  0.2548 -0.1717
 6110TIP3    H139821   3.165   3.727   4.547 -0.1097 -0.4139 -1.2688
 6110TIP3    H239822   3.169   3.576   4.556  0.9753 -0.3311 -0.1119
 6111TIP3   OH239823   4.646   4.642   3.706  0.3432 -0.1775 -0.2182
 6111TIP3    H139824   4.737   4.623   3.683  0.3783  1.7168 -1.9725
 6111TIP3    H239825   4.623   4.718   3.653 -3.0326 -1.9557 -1.6201
 6112TIP3   OH239826   0.330   3.634  12.685  0.2413  0.1095  0.1080
 6112TIP3    H139827   0.412   3.649  12.730  0.4156 -2.5929  0.8684
 6112TIP3    H239828   0.350   3.567  12.620 -0.9890  0.7173 -0.9489
 6113TIP3   OH239829   0.976   4.383   4.132  0.2586 -0.1443 -0.5551
 6113TIP3    H139830   0.906   4.370   4.197  0.0649 -0.7340 -0.8800
 6113TIP3    H239831   1.057   4.373   4.183  0.1657  2.2670  0.1973
 6114TIP3   OH239832   0.352   2.681  14.293 -0.1220  0.1360 -0.1734
 6114TIP3    H139833   0.270   2.679  14.343  0.0041 -0.4444  0.0126
 6114TIP3    H239834   0.406   2.612  14.332 -0.2491 -0.7486 -1.4851
 6115TIP3   OH239835   4.406   4.451  12.431 -0.2126 -0.1078 -0.5035
 6115TIP3    H139836   4.476   4.387  12.421 -0.0996  0.1425 -1.4190
 6115TIP3    H239837   4.450   4.535  12.430 -0.1639  0.0135  2.3912
 6116TIP3   OH239838   4.627   6.149   4.703  0.0973  0.5465  0.6932
 6116TIP3    H139839   4.659   6.096   4.776 -0.2376 -0.0814  0.3916
 6116TIP3    H239840   4.581   6.222   4.745 -3.5432 -1.8102  1.2400
 6117TIP3   OH239841   0.766   5.021   5.725 -0.2964  0.4498  0.2525
 6117TIP3    H139842   0.729   5.039   5.812 -0.2622  0.3224  0.2931
 6117TIP3    H239843   0.773   5.108   5.684  0.3492  0.5892  0.6421
 6118TIP3   OH239844   4.541   1.270   4.633  0.7210 -0.0389 -0.5242
 6118TIP3    H139845   4.518   1.362   4.623 -0.9840 -0.4643 -0.8488
 6118TIP3    H239846   4.623   1.271   4.683 -0.0662  1.6215  0.8528
 6119TIP3   OH239847   2.675   4.626   2.128 -0.5111  0.0022  0.0904
 6119TIP3    H139848   2.706   4.710   2.162  0.3285 -0.7223  1.1686
 6119TIP3    H239849   2.739   4.603   2.061 -1.5589  0.9012 -1.2738
 6120TIP3   OH239850   5.345   4.920  11.934  0.1057 -0.4027 -0.2271
 6120TIP3    H139851   5.393   4.947  12.013 -0.0219 -2.1447  0.4914
 6120TIP3    H239852   5.292   4.996  11.911  0.5885  0.3432  1.0226
 6121TIP3   OH239853   6.811   6.583  12.309  0.2133 -0.6506  0.5122
 6121TIP3    H139854   6.866   6.661  12.299  1.3224 -1.4305  0.2974
 6121TIP3    H239855   6.866   6.512  12.277 -1.9742 -1.1363 -2.5688
 6122TIP3   OH239856   6.141   0.986   5.736 -0.1910  0.3408  0.0343
 6122TIP3    H139857   6.183   1.066   5.706 -0.6816  0.2567 -0.9026
 6122TIP3    H239858   6.137   0.995   5.832  2.1318  0.2477  0.1882
 6123TIP3   OH239859   4.532   5.254   0.578 -0.1897  0.2671 -0.5041
 6123TIP3    H139860   4.572   5.267   0.664  2.7959 -0.8011 -1.6020
 6123TIP3    H239861   4.546   5.337   0.532  1.7600 -0.3900 -1.1917
 6124TIP3   OH239862   6.808   4.796  15.598 -0.1089 -0.5415 -0.0882
 6124TIP3    H139863   6.815   4.863  15.665  0.5813 -0.1545 -0.5383
 6124TIP3    H239864   6.738   4.827  15.541 -1.7022 -1.5742  1.2139
 6125TIP3   OH239865   6.732   4.736   2.224 -0.0036 -0.2430  0.5988
 6125TIP3    H139866   6.754   4.646   2.249  1.8000 -0.2120 -0.6925
 6125TIP3    H239867   6.766   4.745   2.135 -1.0346  1.4284  0.3347
 6126TIP3   OH239868   5.450   2.977   1.322 -0.5904 -0.2169 -0.7193
 6126TIP3    H139869   5.541   2.947   1.327 -0.2369  0.8596 -0.4380
 6126TIP3    H239870   5.457   3.073   1.316 -1.7605  0.0185  1.0978
 6127TIP3   OH239871   1.742   6.090  12.955 -0.3265 -0.0341  0.4279
 6127TIP3    H139872   1.759   6.007  12.911  1.8312 -0.7191  2.3435
 6127TIP3    H239873   1.787   6.082  13.039 -0.1842  3.0323  0.7424
 6128TIP3   OH239874   6.220   6.390  12.740  0.3316 -0.0938  0.4369
 6128TIP3    H139875   6.187   6.440  12.666 -1.4139 -1.9251 -0.1196
 6128TIP3    H239876   6.274   6.321  12.700 -0.7068 -1.1602  0.8048
 6129TIP3   OH239877   5.829   1.807   2.674  0.3363 -0.2218  0.0650
 6129TIP3    H139878   5.754   1.811   2.734  0.5201 -0.5971  0.3263
 6129TIP3    H239879   5.835   1.715   2.650 -0.8013  0.1641 -1.9071
 6130TIP3   OH239880   4.059   6.497  14.333 -0.0362 -0.2505  0.5738
 6130TIP3    H139881   4.022   6.409  14.336 -2.0436  0.4789 -0.5443
 6130TIP3    H239882   4.085   6.508  14.242 -0.5089  0.5546  0.5288
 6131TIP3   OH239883   0.383   1.943  11.747  0.0667 -0.2306 -0.4843
 6131TIP3    H139884   0.395   1.965  11.655  0.9693  1.1039 -0.0752
 6131TIP3    H239885   0.443   1.871  11.764  1.2834  0.7481 -0.5179
 6132TIP3   OH239886   6.813   2.806   4.989  0.0125  0.0551 -0.1176
 6132TIP3    H139887   6.843   2.721   5.022  1.1215  0.2761 -0.5155
 6132TIP3    H239888   6.719   2.794   4.977  0.2825 -1.4389 -1.0792
 6133TIP3   OH239889   4.895   3.736   2.997  0.5467  0.3397  0.3797
 6133TIP3    H139890   4.888   3.832   3.002  0.5890  0.4143 -0.8661
 6133TIP3    H239891   4.870   3.714   2.908  2.6926 -0.6055 -0.0677
 6134TIP3   OH239892   4.315   6.816   5.938  0.1986 -0.9220 -0.3154
 6134TIP3    H139893   4.303   6.722   5.920 -0.8294 -0.8764  0.0755
 6134TIP3    H239894   4.247   6.837   6.002  0.6711  0.0121 -0.1068
 6135TIP3   OH239895   6.408   0.498   5.521 -0.1515 -0.0711 -0.3993
 6135TIP3    H139896   6.388   0.406   5.539 -0.3186 -0.0281 -0.3621
 6135TIP3    H239897   6.327   0.544   5.542  0.0670  0.1360 -0.0062
 6136TIP3   OH239898   3.809   0.518   4.249 -0.3741 -0.1447 -0.2154
 6136TIP3    H139899   3.762   0.436   4.236  1.9026 -1.2770 -1.8872
 6136TIP3    H239900   3.875   0.497   4.315  0.2792  0.3385 -0.7137
 6137TIP3   OH239901   2.762   0.360  13.053 -0.6266 -0.2687 -0.0500
 6137TIP3    H139902   2.842   0.328  13.095  0.3565 -1.5356 -2.6707
 6137TIP3    H239903   2.773   0.338  12.960 -2.2203  3.1730 -1.2209
 6138TIP3   OH239904   5.394   1.132   4.336  0.3819 -0.0874  0.1720
 6138TIP3    H139905   5.462   1.070   4.309  1.3401  1.3235 -0.7619
 6138TIP3    H239906   5.339   1.143   4.258  0.6193  0.7546  0.1196
 6139TIP3   OH239907   5.715   5.417   1.742  0.3373  0.0745 -0.2303
 6139TIP3    H139908   5.671   5.471   1.676  1.6130 -0.6807 -1.7724
 6139TIP3    H239909   5.681   5.329   1.726  0.7645 -0.1358  0.0221
 6140TIP3   OH239910   0.715   5.373   1.637  0.3820 -0.3050  0.3225
 6140TIP3    H139911   0.620   5.375   1.651  0.5214 -1.0398  1.5104
 6140TIP3    H239912   0.728   5.426   1.559 -0.7024  2.3772  1.8039
 6141TIP3   OH239913   6.016   5.073   3.026  0.5612  0.0028  0.7463
 6141TIP3    H139914   6.094   5.021   3.005  1.6548  1.6731  0.4597
 6141TIP3    H239915   6.023   5.090   3.120  0.5247  0.1184  0.7286
 6142TIP3   OH239916   0.501   3.459   1.962 -0.5275 -0.1330  0.0371
 6142TIP3    H139917   0.567   3.494   1.903  1.4541  0.0556  2.2140
 6142TIP3    H239918   0.417   3.480   1.920  0.6842  2.6872 -1.2052
 6143TIP3   OH239919   4.567   3.149   0.297  0.5174  0.0635 -0.2861
 6143TIP3    H139920   4.530   3.229   0.335 -1.4393 -1.5149  1.3379
 6143TIP3    H239921   4.662   3.163   0.303  0.2498  2.4393 -0.5138
 6144TIP3   OH239922   5.592   4.969   0.046 -0.5016  0.2977 -0.4581
 6144TIP3    H139923   5.578   5.048  -0.006  1.8944  1.7507  0.9462
 6144TIP3    H239924   5.686   4.955   0.044 -0.7741 -2.0675  0.0801
 6145TIP3   OH239925   4.715   3.547  13.124 -0.1744 -0.3352  0.0786
 6145TIP3    H139926   4.623   3.575  13.117 -0.6339 -1.5691  0.9247
 6145TIP3    H239927   4.762   3.626  13.152 -0.9114  0.3743 -0.5987
 6146TIP3   OH239928   2.348   2.065   1.454 -0.0810  0.7335 -0.0208
 6146TIP3    H139929   2.270   2.090   1.406 -0.8267 -1.3891 -0.0480
 6146TIP3    H239930   2.421   2.094   1.398 -0.8751  1.1423 -0.8750
 6147TIP3   OH239931   6.016   0.375  12.202 -0.4323 -0.5631 -0.2214
 6147TIP3    H139932   5.994   0.357  12.111 -0.6562 -2.3731  0.1604
 6147TIP3    H239933   5.933   0.406  12.241 -0.9342 -1.9703 -0.1174
 6148TIP3   OH239934   0.753   4.252   0.659 -0.0599 -0.2585 -0.2337
 6148TIP3    H139935   0.788   4.233   0.572  0.7296  1.0213 -0.2175
 6148TIP3    H239936   0.799   4.331   0.687 -1.3145  0.1646  0.7636
 6149TIP3   OH239937   6.750   4.847   0.240 -0.1088  0.4460 -0.3384
 6149TIP3    H139938   6.758   4.841   0.145  1.5150  0.4341 -0.2238
 6149TIP3    H239939   6.715   4.935   0.255  0.2505  0.6943 -0.9207
 6150TIP3   OH239940   4.675   3.301   0.004  0.4089  0.0693 -0.4735
 6150TIP3    H139941   4.739   3.263   0.064  1.6684  0.2055 -1.6898
 6150TIP3    H239942   4.666   3.392   0.031 -0.9117 -0.4655  1.0294
 6151TIP3   OH239943   3.191   0.450   0.036 -0.3028 -0.5787  0.0100
 6151TIP3    H139944   3.197   0.519   0.102  0.7172  0.0372 -0.7017
 6151TIP3    H239945   3.135   0.384   0.076 -2.8165  1.4042  0.0608
 6152TIP3   OH239946   2.519   5.093  13.252 -0.1413 -0.3334 -0.8514
 6152TIP3    H139947   2.538   5.003  13.226  1.0912  0.1543 -1.7400
 6152TIP3    H239948   2.582   5.146  13.203 -1.4089  1.0963 -1.0172
 6153TIP3   OH239949   1.140   0.444  12.409  0.5963 -0.3826 -0.1106
 6153TIP3    H139950   1.147   0.481  12.321  0.6516 -0.8012 -0.2871
 6153TIP3    H239951   1.084   0.367  12.397 -0.4795  0.2877  0.4481
 6154TIP3   OH239952   2.723   5.807   5.740 -0.0420 -0.0874  0.9667
 6154TIP3    H139953   2.764   5.885   5.778  5.1000 -1.4879 -0.9140
 6154TIP3    H239954   2.695   5.835   5.653 -1.5854  0.4105  1.5830
 6155TIP3   OH239955   1.276   5.677   1.353  0.0900 -0.1980 -1.0398
 6155TIP3    H139956   1.312   5.600   1.397 -0.6887 -0.5563 -1.0118
 6155TIP3    H239957   1.350   5.736   1.343  0.7013 -0.9591 -1.0689
 6156TIP3   OH239958   1.007   5.380   0.255  0.1218 -0.4073  0.9167
 6156TIP3    H139959   1.069   5.316   0.220  1.7146  1.5066  0.0254
 6156TIP3    H239960   1.021   5.376   0.350  0.4340 -1.1452  0.8474
 6157TIP3   OH239961   3.759   5.274   5.791  0.4251  0.1020 -0.2966
 6157TIP3    H139962   3.788   5.197   5.743  1.6840  1.0199 -1.0738
 6157TIP3    H239963   3.750   5.244   5.882  1.8245 -0.7374 -0.4116
 6158TIP3   OH239964   2.897   3.349  11.651  0.0789 -0.1172 -0.3383
 6158TIP3    H139965   2.918   3.434  11.612 -0.7462 -0.1222 -0.8291
 6158TIP3    H239966   2.966   3.291  11.620  0.2504  0.2156 -0.5921
 6159TIP3   OH239967   4.679   3.185  13.455 -0.3126 -0.0283 -0.1160
 6159TIP3    H139968   4.726   3.254  13.409 -1.0312  0.1527 -0.5970
 6159TIP3    H239969   4.608   3.161  13.396  1.0836 -2.6228 -0.9065
 6160TIP3   OH239970   6.364   3.904  15.115 -0.3836  0.0277 -0.0303
 6160TIP3    H139971   6.299   3.835  15.099  0.3651 -0.6226 -0.3423
 6160TIP3    H239972   6.432   3.887  15.050  0.0857  0.7120  0.2816
 6161TIP3   OH239973   4.691   6.343   0.101  0.1042 -0.1171  0.2030
 6161TIP3    H139974   4.749   6.355   0.176  0.2718  1.2371 -0.1220
 6161TIP3    H239975   4.627   6.277   0.130 -0.5713  1.2382  1.9915
 6162TIP3   OH239976   4.427   1.619   3.660 -0.4719  0.2269 -0.0520
 6162TIP3    H139977   4.475   1.677   3.719 -0.1972 -0.9823  0.9322
 6162TIP3    H239978   4.479   1.539   3.655 -1.6537 -0.5641 -0.1011
 6163TIP3   OH239979   0.548   5.429   2.506  0.3981 -0.0871 -0.0987
 6163TIP3    H139980   0.567   5.361   2.442  1.3747 -0.2005  0.2855
 6163TIP3    H239981   0.453   5.434   2.509  0.3196 -1.1200 -0.4636
 6164TIP3   OH239982   2.864   0.079   2.957  0.6029 -0.1914  0.7188
 6164TIP3    H139983   2.823   0.034   2.884  0.2423  0.4617  0.5121
 6164TIP3    H239984   2.791   0.107   3.012  0.8827 -0.9461  1.4985
 6165TIP3   OH239985   5.659   0.377   4.324  0.1604  0.5793 -0.3351
 6165TIP3    H139986   5.701   0.302   4.365 -0.8417 -0.9929 -2.0069
 6165TIP3    H239987   5.706   0.389   4.241  0.0974  1.5929 -0.2374
 6166TIP3   OH239988   1.286   6.734   2.061 -0.3808 -0.0314 -0.0579
 6166TIP3    H139989   1.194   6.748   2.040 -0.3493 -0.1858 -0.3026
 6166TIP3    H239990   1.333   6.798   2.007 -0.4749  1.5771  1.7029
 6167TIP3   OH239991   1.607   2.384   3.567  0.1456 -0.4260 -0.4326
 6167TIP3    H139992   1.538   2.354   3.508  1.4068 -0.9463 -1.7055
 6167TIP3    H239993   1.641   2.303   3.607  0.5784 -0.2670 -0.4699
 6168TIP3   OH239994   5.080   2.846  11.450  0.0929 -0.4194 -0.2823
 6168TIP3    H139995   5.158   2.898  11.468  1.1767  0.0487 -4.9816
 6168TIP3    H239996   5.113   2.757  11.438 -0.5274 -0.7170  0.1634
 6169TIP3   OH239997   1.718   1.842  13.289 -0.4964 -0.0913 -0.0236
 6169TIP3    H139998   1.730   1.747  13.282 -1.6137 -0.3470  1.1021
 6169TIP3    H239999   1.795   1.879  13.247  1.1188 -1.5294  1.5095
 6170TIP3   OH240000   0.472   3.517  10.807  0.0052  0.4457 -0.4616
 6170TIP3    H140001   0.511   3.439  10.847  0.4508  0.9602  0.1257
 6170TIP3    H240002   0.476   3.500  10.713 -1.7908 -1.1414 -0.2969
 6171TIP3   OH240003   2.017   2.339  11.405 -0.7613 -0.0365 -0.1937
 6171TIP3    H140004   2.052   2.250  11.408 -2.1056 -0.6697 -1.6663
 6171TIP3    H240005   1.924   2.329  11.425 -0.3087  1.5806  3.6410
 6172TIP3   OH240006   2.222   3.922   4.974  0.4317 -0.2447 -0.0948
 6172TIP3    H140007   2.171   3.912   4.893  0.5288  1.0792 -0.3298
 6172TIP3    H240008   2.173   3.871   5.039  0.9373 -2.2846 -1.1937
 6173TIP3   OH240009   3.250   3.865  13.620  0.1251 -0.0938  0.1836
 6173TIP3    H140010   3.248   3.853  13.715  0.8992 -0.6507  0.1446
 6173TIP3    H240011   3.335   3.907  13.603 -0.3272  0.6748 -0.1961
 6174TIP3   OH240012   0.451   2.436  13.941 -0.1300 -0.5299 -0.3911
 6174TIP3    H140013   0.438   2.421  14.035 -2.3593  1.2638 -0.3125
 6174TIP3    H240014   0.369   2.407  13.901  0.2425  0.0182 -1.5850
 6175TIP3   OH240015   6.026   5.679   2.261  0.4029  0.0389  0.1250
 6175TIP3    H140016   5.959   5.619   2.230 -0.7381  0.4543  1.6757
 6175TIP3    H240017   5.994   5.766   2.237  1.1756  0.1721 -0.5054
 6176TIP3   OH240018   6.200   3.379  16.840  0.2741  0.8364 -0.0285
 6176TIP3    H140019   6.164   3.426  16.764 -0.2811 -0.6621 -0.7238
 6176TIP3    H240020   6.123   3.353  16.890  0.5119 -0.2623 -0.2241
 6177TIP3   OH240021   4.692   4.013   0.484 -0.3777 -0.3669 -0.5197
 6177TIP3    H140022   4.716   3.921   0.480  0.8006 -0.0537 -3.4143
 6177TIP3    H240023   4.738   4.047   0.561  0.9128 -1.7682 -0.6259
 6178TIP3   OH240024   1.033   5.756  14.330  0.4557  0.6591 -0.2637
 6178TIP3    H140025   1.011   5.671  14.369  0.9728  0.8935  0.5497
 6178TIP3    H240026   0.956   5.810  14.347  0.0895  0.3415 -0.8580
 6179TIP3   OH240027   2.858   4.777  13.737  0.0010  0.3945  0.2740
 6179TIP3    H140028   2.952   4.759  13.728  0.3023  2.0218 -0.0302
 6179TIP3    H240029   2.848   4.803  13.829 -0.4474 -1.2223  0.7271
 6180TIP3   OH240030   2.160   6.787  13.191  0.6348 -0.0124  0.0086
 6180TIP3    H140031   2.200   6.771  13.105  1.2840 -0.8242  0.4497
 6180TIP3    H240032   2.088   6.847  13.172 -0.1164 -1.2526 -1.3293
 6181TIP3   OH240033   3.302   3.616  13.460  0.0722 -0.0817 -0.2361
 6181TIP3    H140034   3.225   3.572  13.497  1.6597 -0.5452  2.8061
 6181TIP3    H240035   3.281   3.710  13.465 -1.4079 -0.2369 -2.2749
 6182TIP3   OH240036   3.385   3.077   1.545  0.3130 -0.8711 -0.0233
 6182TIP3    H140037   3.293   3.073   1.520 -0.7075 -0.2059  3.1190
 6182TIP3    H240038   3.418   3.157   1.504 -1.2607  0.2595  0.8214
 6183TIP3   OH240039   4.499   4.286   0.583  0.4080 -0.6139  0.5572
 6183TIP3    H140040   4.442   4.224   0.629 -0.8575  0.4780  0.5094
 6183TIP3    H240041   4.575   4.234   0.557 -0.6522 -2.1725  0.4447
 6184TIP3   OH240042   2.992   5.150  14.449 -0.4812 -0.0065  0.2036
 6184TIP3    H140043   2.976   5.154  14.543  1.1494 -1.0807  0.5644
 6184TIP3    H240044   3.051   5.223  14.431  2.1719 -1.8900  0.7379
 6185TIP3   OH240045   0.910   5.030  16.848  0.1262  0.4281  0.1410
 6185TIP3    H140046   1.001   5.001  16.845 -0.4575 -1.5922  0.6371
 6185TIP3    H240047   0.911   5.106  16.907  1.4776  0.3729  0.2094
 6186TIP3   OH240048   1.950   5.233   5.843  0.8451 -0.1102  0.4294
 6186TIP3    H140049   1.940   5.205   5.752 -0.9074 -0.0808  0.5629
 6186TIP3    H240050   1.902   5.167   5.893  0.1611  0.8844  1.1290
 6187TIP3   OH240051   3.812   4.596  16.924  0.2139  0.4654 -0.2577
 6187TIP3    H140052   3.728   4.596  16.877 -0.1110  0.3979  0.3207
 6187TIP3    H240053   3.843   4.686  16.916 -0.8263  0.9716  1.1249
 6188TIP3   OH240054   0.073   3.038   0.114 -0.1156 -0.0750  0.1570
 6188TIP3    H140055   0.080   3.121   0.066 -1.2041  0.2429  0.5261
 6188TIP3    H240056   0.163   3.010   0.126  0.2421  0.6907 -0.6103
 6189TIP3   OH240057   4.279   1.674  16.607  0.5802  0.3365 -0.0840
 6189TIP3    H140058   4.258   1.681  16.515  0.4151 -1.1810 -0.1868
 6189TIP3    H240059   4.218   1.609  16.642  2.0215 -0.7277  0.6002
 6190TIP3   OH240060   2.604   6.149   5.745 -0.3255  0.3723 -0.3541
 6190TIP3    H140061   2.582   6.160   5.838 -0.2241 -1.0202 -0.1538
 6190TIP3    H240062   2.700   6.146   5.743 -0.2885  1.3842 -0.6345
 6191TIP3   OH240063   5.907   2.165  12.666 -0.4216  0.2966 -0.5779
 6191TIP3    H140064   5.858   2.245  12.681  0.1164  0.5967 -0.3951
 6191TIP3    H240065   5.856   2.097  12.711 -0.3915  0.6916  0.0644
 6192TIP3   OH240066   4.359   5.304   2.363 -0.1044  0.3509 -0.2330
 6192TIP3    H140067   4.373   5.394   2.391  1.2968  0.2722 -0.5805
 6192TIP3    H240068   4.348   5.255   2.445 -0.3312  0.7588 -0.0183
 6193TIP3   OH240069   2.791   5.276  13.358  0.3989  0.5456  0.0419
 6193TIP3    H140070   2.710   5.282  13.408 -0.6048 -1.6008 -1.1488
 6193TIP3    H240071   2.764   5.240  13.273  2.6682 -1.0705 -0.0907
 6194TIP3   OH240072   4.964   0.878   2.580 -0.8042 -0.1121 -0.8521
 6194TIP3    H140073   4.987   0.789   2.607  0.0250  0.8551  1.9153
 6194TIP3    H240074   5.039   0.908   2.528  0.7359  0.1943  1.3795
 6195TIP3   OH240075   0.283   6.032  15.802  0.1640 -0.5955 -0.0477
 6195TIP3    H140076   0.278   6.000  15.892 -0.1265  0.6030  0.3889
 6195TIP3    H240077   0.345   6.104  15.805 -1.8710  1.2904 -0.1806
 6196TIP3   OH240078   0.094   0.367  10.676  0.8562 -0.3144 -0.1398
 6196TIP3    H140079   0.148   0.439  10.645  0.7571 -0.4895 -0.7266
 6196TIP3    H240080   0.012   0.409  10.703  0.7622 -0.2163 -0.5700
 6197TIP3   OH240081   0.987   3.877  15.918 -0.1912  0.2243 -0.2287
 6197TIP3    H140082   0.996   3.965  15.881  0.5105  0.0912 -0.3883
 6197TIP3    H240083   1.071   3.859  15.960  0.3250 -1.0309 -1.6715
 6198TIP3   OH240084   4.430   0.107  14.379 -0.1470 -0.4506  0.0525
 6198TIP3    H140085   4.457   0.166  14.309  0.0056 -0.7439 -0.1413
 6198TIP3    H240086   4.421   0.163  14.456 -1.0520  0.0101 -0.3664
 6199TIP3   OH240087   1.058   5.080  12.294  0.5336 -0.1958  0.4019
 6199TIP3    H140088   1.025   5.056  12.208  0.3064 -1.8225  0.9197
 6199TIP3    H240089   0.991   5.140  12.329  1.0442  1.1702 -0.8460
 6200TIP3   OH240090   3.727   4.286  15.511  0.2178 -0.3616  0.1292
 6200TIP3    H140091   3.702   4.375  15.486 -2.2307 -0.7181  1.0215
 6200TIP3    H240092   3.792   4.298  15.580  0.5919  0.7200 -0.3940
 6201TIP3   OH240093   4.378   3.478  15.254 -0.2911 -0.4568 -1.0179
 6201TIP3    H140094   4.406   3.436  15.173 -0.0822  0.0083 -1.1921
 6201TIP3    H240095   4.320   3.549  15.226 -1.9248 -1.5971 -0.6411
 6202TIP3   OH240096   2.227   2.716   4.809 -0.0352 -0.3792  0.4087
 6202TIP3    H140097   2.138   2.707   4.774  0.2439 -0.7931 -0.2004
 6202TIP3    H240098   2.250   2.628   4.838 -0.0442 -0.1545  1.1194
 6203TIP3   OH240099   2.730   2.931   1.981  0.4809 -0.1310 -0.4679
 6203TIP3    H140100   2.814   2.947   2.024  0.3358 -0.0797 -0.2020
 6203TIP3    H240101   2.741   2.847   1.936  0.3984 -0.5370  0.2652
 6204TIP3   OH240102   1.259   6.407   0.559  0.5939 -0.4832  0.2391
 6204TIP3    H140103   1.254   6.327   0.612  1.6311 -0.5533  0.2557
 6204TIP3    H240104   1.213   6.473   0.610 -0.8101 -1.1979 -0.0499
 6205TIP3   OH240105   5.244   4.856  15.396 -0.0608  0.5253  0.2400
 6205TIP3    H140106   5.212   4.901  15.475 -0.0135  0.7071  0.1548
 6205TIP3    H240107   5.176   4.873  15.330 -0.1327  0.3169  0.2618
 6206TIP3   OH240108   0.194   5.490   0.297 -0.0846 -0.2340 -0.0849
 6206TIP3    H140109   0.190   5.396   0.310 -0.3530 -0.0608  1.2982
 6206TIP3    H240110   0.102   5.518   0.302  0.0183  0.1306 -0.2145
 6207TIP3   OH240111   6.325   1.702   1.512 -0.0615 -0.9246  0.0841
 6207TIP3    H140112   6.259   1.657   1.459 -3.3552  1.2739  1.9976
 6207TIP3    H240113   6.291   1.699   1.601  0.7561  2.9571  0.7130
 6208TIP3   OH240114   0.455   0.279   1.827  0.1763 -0.3707  0.2544
 6208TIP3    H140115   0.543   0.298   1.795 -0.4660  2.5197 -0.0873
 6208TIP3    H240116   0.467   0.253   1.918  1.3277  3.1373  1.2886
 6209TIP3   OH240117   2.488   1.144   4.073  0.7881  0.2149  0.3170
 6209TIP3    H140118   2.445   1.136   3.988  0.8649 -1.1079  0.3723
 6209TIP3    H240119   2.545   1.067   4.078  1.0242  0.4380  1.4315
 6210TIP3   OH240120   1.547   5.989  14.283 -0.0614 -0.1393  0.2512
 6210TIP3    H140121   1.637   6.022  14.273  0.3597 -0.9059  1.3694
 6210TIP3    H240122   1.533   5.985  14.377 -0.4121 -2.2817  0.1483
 6211TIP3   OH240123   1.620   6.472   5.714 -0.1967 -0.6016  0.2109
 6211TIP3    H140124   1.645   6.403   5.776 -2.0518 -1.8673 -0.3533
 6211TIP3    H240125   1.525   6.478   5.722 -0.1315  1.5872 -0.1308
 6212TIP3   OH240126   1.797   4.247  13.333  0.0598 -0.9051  0.0932
 6212TIP3    H140127   1.862   4.205  13.277 -0.5634 -0.0107 -1.3485
 6212TIP3    H240128   1.742   4.175  13.364 -0.2752 -1.3251 -1.3887
 6213TIP3   OH240129   5.512   4.370  10.879  0.2518  0.0338  0.0247
 6213TIP3    H140130   5.577   4.362  10.809  1.8686 -1.3930  1.6004
 6213TIP3    H240131   5.441   4.312  10.852  1.1773 -1.0609 -0.1152
 6214TIP3   OH240132   1.488   6.701  13.473 -0.0365 -0.2631 -0.4457
 6214TIP3    H140133   1.502   6.633  13.407  1.3316  0.2468 -0.7114
 6214TIP3    H240134   1.570   6.750  13.475 -0.2204  0.0391  1.2991
 6215TIP3   OH240135   1.832   3.309  11.916  0.2188 -0.1293  0.4666
 6215TIP3    H140136   1.916   3.266  11.935  0.2283 -1.2633 -1.7924
 6215TIP3    H240137   1.777   3.239  11.880 -0.6182  1.2287 -1.0161
 6216TIP3   OH240138   2.958   1.419   5.383 -0.0035 -0.4615 -0.1219
 6216TIP3    H140139   2.950   1.353   5.452 -0.3416  0.0584  0.3503
 6216TIP3    H240140   2.891   1.395   5.319  1.3929 -1.9079 -1.1163
 6217TIP3   OH240141   1.456   2.562   3.357  0.0735  0.1598  0.2105
 6217TIP3    H140142   1.521   2.588   3.422 -1.0004 -3.1570  2.8609
 6217TIP3    H240143   1.466   2.468   3.349 -3.7264 -0.3853 -0.0123
 6218TIP3   OH240144   0.965   1.781  13.267 -0.4847  0.4905  0.4339
 6218TIP3    H140145   0.890   1.837  13.286 -0.6665  0.5109 -0.3164
 6218TIP3    H240146   1.026   1.838  13.219 -0.1159  0.3887  0.7700
 6219TIP3   OH240147   4.840   2.291   1.520  0.5779 -0.3639  0.0268
 6219TIP3    H140148   4.886   2.363   1.562  0.8941 -0.9486  0.7059
 6219TIP3    H240149   4.747   2.314   1.526  0.6203 -0.4309  1.0318
 6220TIP3   OH240150   0.404   1.514   0.820  0.2470  0.4837 -0.4546
 6220TIP3    H140151   0.464   1.559   0.760 -0.2930  0.1132 -1.2661
 6220TIP3    H240152   0.318   1.521   0.779 -0.3043  1.0691  0.7383
 6221TIP3   OH240153   1.730   6.211   3.998  0.1870 -0.0366 -0.1037
 6221TIP3    H140154   1.808   6.182   3.951  1.6890  2.4863  0.6016
 6221TIP3    H240155   1.724   6.153   4.074  2.5926  0.8576  0.8659
 6222TIP3   OH240156   0.396   0.783   5.323  0.9184  0.3561  0.0552
 6222TIP3    H140157   0.380   0.732   5.243 -1.1920 -0.4133  0.8971
 6222TIP3    H240158   0.456   0.729   5.374  0.6016 -0.1384 -0.0913
 6223TIP3   OH240159   5.455   4.029   3.383  0.1876  0.1680  0.5349
 6223TIP3    H140160   5.418   4.048   3.469  2.2928  0.5678  1.4051
 6223TIP3    H240161   5.495   4.112   3.356  0.4629 -0.2448 -0.3516
 6224TIP3   OH240162   3.346   1.581   5.822 -0.4824  0.1666 -0.2082
 6224TIP3    H140163   3.398   1.656   5.850 -0.4064 -0.3277  1.0311
 6224TIP3    H240164   3.342   1.524   5.899 -2.0173 -0.2803 -0.5817
 6225TIP3   OH240165   4.580   0.197   3.504 -0.3135 -0.1166 -0.3821
 6225TIP3    H140166   4.512   0.150   3.552  0.6338 -0.8239  0.3087
 6225TIP3    H240167   4.629   0.129   3.458 -0.8501  0.4983 -1.9357
 6226TIP3   OH240168   0.851   1.308  12.755  0.4672  0.4859  0.0386
 6226TIP3    H140169   0.817   1.221  12.735  0.7039  0.5938 -0.9132
 6226TIP3    H240170   0.799   1.338  12.828  0.6772 -0.6375  0.6806
 6227TIP3   OH240171   6.049   0.847  10.607  0.0025  0.2039  0.2724
 6227TIP3    H140172   5.980   0.781  10.613 -1.4865  1.6793  0.0808
 6227TIP3    H240173   6.094   0.828  10.525 -1.8277  0.7288 -0.8963
 6228TIP3   OH240174   6.428   1.677  12.805 -0.7218 -0.2376  0.1439
 6228TIP3    H140175   6.395   1.757  12.847  1.7054  1.0007 -0.0969
 6228TIP3    H240176   6.449   1.705  12.715 -0.1940 -1.2509 -0.0597
 6229TIP3   OH240177   3.714   3.081  13.470 -0.2700 -0.3440  0.7587
 6229TIP3    H140178   3.632   3.040  13.498 -0.3253  0.1001  1.2529
 6229TIP3    H240179   3.688   3.140  13.399 -0.0981 -1.6363 -0.4346
 6230TIP3   OH240180   5.571   1.065  16.987  0.3860 -0.1773  0.0264
 6230TIP3    H140181   5.659   1.069  17.024  0.3638 -1.4626  0.2997
 6230TIP3    H240182   5.524   1.007  17.047 -0.9754  1.3586  0.4975
 6231TIP3   OH240183   3.140   6.591   0.690  0.1666  0.3515  0.3238
 6231TIP3    H140184   3.154   6.553   0.776 -1.5008 -1.0813  0.0219
 6231TIP3    H240185   3.175   6.526   0.629 -1.5303 -0.1588 -0.1548
 6232TIP3   OH240186   0.608   2.395   0.343 -0.5424 -0.2670  0.0638
 6232TIP3    H140187   0.662   2.471   0.323 -0.2794 -0.2356  0.8658
 6232TIP3    H240188   0.658   2.347   0.409 -1.3924 -0.3500  0.6603
 6233TIP3   OH240189   5.637   6.188   4.292 -0.1301 -0.0378 -0.4817
 6233TIP3    H140190   5.609   6.279   4.299  0.2151  0.1414 -1.3830
 6233TIP3    H240191   5.556   6.140   4.270 -0.4782 -0.0845  0.8126
 6234TIP3   OH240192   6.108   6.316  14.211  0.1808 -0.2090  0.5598
 6234TIP3    H140193   6.046   6.344  14.279 -0.0995  0.3237  0.1023
 6234TIP3    H240194   6.176   6.384  14.212  1.0984 -1.0974  1.4634
 6235TIP3   OH240195   0.891   3.667  15.088  0.1553  0.0571  0.4162
 6235TIP3    H140196   0.874   3.752  15.047 -0.1340  0.2410  0.9063
 6235TIP3    H240197   0.858   3.677  15.177 -1.5269 -1.1585 -0.0325
 6236TIP3   OH240198   1.326   1.568   0.978 -0.7106 -0.4430  0.3921
 6236TIP3    H140199   1.268   1.622   1.032  0.1545 -1.0437  2.0104
 6236TIP3    H240200   1.333   1.486   1.026  0.3116 -0.9064 -0.5218
 6237TIP3   OH240201   2.851   3.544  15.590  0.2998  0.0802 -0.1864
 6237TIP3    H140202   2.839   3.601  15.666 -2.6091 -2.2666  1.2995
 6237TIP3    H240203   2.946   3.537  15.581  0.7666  0.8485  2.9132
 6238TIP3   OH240204   4.129   6.811  17.215 -0.5292  0.3393 -0.4696
 6238TIP3    H140205   4.142   6.819  17.120 -1.2675 -1.1318 -0.7223
 6238TIP3    H240206   4.095   6.897  17.241 -1.2986  0.4512 -1.7211
 6239TIP3   OH240207   4.943   4.111   2.578  0.7448 -0.2976  0.0642
 6239TIP3    H140208   4.880   4.040   2.564 -0.4850  0.6842  0.3947
 6239TIP3    H240209   5.021   4.067   2.612 -0.3855 -1.3831  1.3752
 6240TIP3   OH240210   0.792   1.932   2.462  0.0161  0.2021 -0.1398
 6240TIP3    H140211   0.840   1.967   2.386 -0.6893 -1.4545 -1.3955
 6240TIP3    H240212   0.750   2.009   2.500  2.2330  1.4520  0.0046
 6241TIP3   OH240213   5.024   6.506   1.242  0.0909  0.6132 -0.6319
 6241TIP3    H140214   5.010   6.419   1.281 -1.3082  0.4516 -1.4160
 6241TIP3    H240215   4.947   6.520   1.187  0.7325  1.9793 -1.2291
 6242TIP3   OH240216   2.606   6.421   5.653 -0.1492 -0.7975 -0.0567
 6242TIP3    H140217   2.696   6.408   5.625  0.2134 -1.3520  1.2669
 6242TIP3    H240218   2.587   6.345   5.708 -1.0019 -0.0645  0.6925
 6243TIP3   OH240219   3.538   5.326   3.657  0.5984 -0.0553  0.0819
 6243TIP3    H140220   3.623   5.288   3.638 -0.3452 -1.4307 -1.6789
 6243TIP3    H240221   3.511   5.368   3.575 -0.2898  0.6252  0.6995
 6244TIP3   OH240222   4.268   5.118   0.087  0.0421 -0.1080 -0.2095
 6244TIP3    H140223   4.262   5.030   0.050  0.2066  0.3756 -1.4273
 6244TIP3    H240224   4.207   5.170   0.034 -0.6443  0.3604  0.9965
 6245TIP3   OH240225   5.239   0.323   1.105  0.4460  0.3346 -0.4200
 6245TIP3    H140226   5.259   0.281   1.189  1.1783  0.8352 -0.3372
 6245TIP3    H240227   5.174   0.265   1.065  2.1498 -1.4843 -0.7612
 6246TIP3   OH240228   0.581   0.785   4.451  0.0809  0.4226  0.0616
 6246TIP3    H140229   0.672   0.804   4.429  0.5483 -2.1797 -0.5061
 6246TIP3    H240230   0.579   0.783   4.546  0.8588 -0.4338  0.0747
 6247TIP3   OH240231   1.366   0.966  14.590 -0.0170  0.2877  0.4910
 6247TIP3    H140232   1.310   1.035  14.626 -0.4202  0.8398 -1.1250
 6247TIP3    H240233   1.408   1.006  14.514  0.6687 -0.8865  0.2251
 6248TIP3   OH240234   5.299   4.699  12.132 -0.0884  0.3382  0.1563
 6248TIP3    H140235   5.379   4.648  12.120  0.2586  0.3819  1.9170
 6248TIP3    H240236   5.302   4.765  12.064  0.0236 -1.2710 -1.4696
 6249TIP3   OH240237   6.392   6.723   4.407 -0.4622  0.1390 -0.4881
 6249TIP3    H140238   6.301   6.719   4.437 -0.1758  1.8487  0.7547
 6249TIP3    H240239   6.433   6.645   4.444 -0.5830  1.2160  2.1704
 6250TIP3   OH240240   2.446   3.433   4.747  0.8844  0.5151 -0.0035
 6250TIP3    H140241   2.434   3.467   4.658 -1.2823  1.5119  0.5913
 6250TIP3    H240242   2.532   3.392   4.745  2.2926  3.1956 -1.7274
 6251TIP3   OH240243   6.150   2.961  15.753 -0.5564 -0.0482  0.7337
 6251TIP3    H140244   6.085   3.025  15.782 -0.0913  1.1271 -0.7073
 6251TIP3    H240245   6.132   2.950  15.660  0.4905 -0.7063  0.6030
 6252TIP3   OH240246   1.431   4.221   1.285 -0.4451  0.4045 -0.1077
 6252TIP3    H140247   1.440   4.142   1.231  0.1548  0.5997 -0.2974
 6252TIP3    H240248   1.502   4.278   1.256 -1.4031  1.3914 -0.5857
 6253TIP3   OH240249   2.870   4.311  16.959  0.3447  0.5701  0.3683
 6253TIP3    H140250   2.791   4.345  16.918 -0.5236  1.5419  2.6948
 6253TIP3    H240251   2.941   4.334  16.899 -0.8106  2.1652 -0.4377
 6254TIP3   OH240252   4.879   1.220   4.641  0.4028  0.0737  0.1051
 6254TIP3    H140253   4.887   1.298   4.587  0.6393  0.1427  0.2390
 6254TIP3    H240254   4.934   1.237   4.717 -1.0970  0.6173  1.1147
 6255TIP3   OH240255   3.405   6.085   0.991 -1.2228 -0.0700 -0.4298
 6255TIP3    H140256   3.420   6.105   0.899  2.8387  0.8186  0.1954
 6255TIP3    H240257   3.475   6.024   1.013 -1.2771  0.7311  2.3283
 6256TIP3   OH240258   5.645   0.766  15.977 -0.2374  0.3720  0.1845
 6256TIP3    H140259   5.677   0.676  15.988  1.6647  0.8040 -1.2018
 6256TIP3    H240260   5.589   0.781  16.053  1.1327 -1.2638  1.6256
 6257TIP3   OH240261   5.061   3.856  15.085  0.3684  0.2924 -0.0593
 6257TIP3    H140262   5.142   3.880  15.128  1.0157  0.0830 -1.1256
 6257TIP3    H240263   5.041   3.768  15.116 -0.1518  0.8186  1.1789
 6258TIP3   OH240264   2.287   6.398  17.007  0.8322 -0.2441 -0.2432
 6258TIP3    H140265   2.298   6.392  17.102  0.1944  2.2420  0.0636
 6258TIP3    H240266   2.213   6.339  16.988  1.2909 -1.1530  0.7058
 6259TIP3   OH240267   5.315   5.215  16.542  0.5692 -0.0200  0.4124
 6259TIP3    H140268   5.338   5.124  16.561 -2.6692 -0.9710  0.4958
 6259TIP3    H240269   5.311   5.219  16.446  1.1501  0.1737  0.3944
 6260TIP3   OH240270   6.348   6.507  14.137  0.0034 -0.0306  0.5398
 6260TIP3    H140271   6.433   6.551  14.125 -0.1943  0.4186  0.7670
 6260TIP3    H240272   6.291   6.547  14.071 -0.7332  1.5260  2.0147
 6261TIP3   OH240273   5.222   6.183   5.443  0.3635 -0.5503  0.2351
 6261TIP3    H140274   5.209   6.161   5.535 -0.2476 -0.6040  0.1430
 6261TIP3    H240275   5.275   6.263   5.444  0.0660 -0.3542  0.6403
 6262TIP3   OH240276   5.424   2.050  17.204 -0.0482 -0.6591 -0.5137
 6262TIP3    H140277   5.480   2.062  17.127 -0.4673  0.8942 -0.6115
 6262TIP3    H240278   5.480   2.005  17.268  1.2570  0.6107 -0.7002
 6263TIP3   OH240279   4.235   4.170  16.556 -0.3744  0.1472  0.6954
 6263TIP3    H140280   4.318   4.122  16.559 -0.5222 -0.0880  1.1448
 6263TIP3    H240281   4.172   4.112  16.598 -0.6318  0.5887  0.9330
 6264TIP3   OH240282   4.349   4.166   1.085  0.0437  0.3039  0.4136
 6264TIP3    H140283   4.426   4.197   1.038 -0.6652  1.1271 -0.2356
 6264TIP3    H240284   4.311   4.099   1.029 -1.2817  1.8765 -0.6697
 6265TIP3   OH240285   3.685   4.419  16.480  0.5024  0.2702  0.2955
 6265TIP3    H140286   3.684   4.511  16.454  0.9091  0.1259 -0.2658
 6265TIP3    H240287   3.598   4.403  16.517 -1.2859 -0.2195 -3.5744
 6266TIP3   OH240288   1.429   2.008   4.359 -0.5445 -0.1301 -0.1181
 6266TIP3    H140289   1.473   2.066   4.421 -3.2373 -0.6230  2.4845
 6266TIP3    H240290   1.367   1.958   4.412 -0.0982 -3.7264 -2.6000
 6267TIP3   OH240291   6.488   2.083  13.991  0.1425  0.0696 -0.2288
 6267TIP3    H140292   6.454   2.065  14.078 -0.6248 -0.6627 -0.6605
 6267TIP3    H240293   6.484   1.999  13.946 -0.3082  0.6054 -1.2370
 6268TIP3   OH240294   3.803   4.333   1.930 -0.0727 -0.1708  0.5541
 6268TIP3    H140295   3.807   4.396   2.003 -1.4221 -1.4784  1.8264
 6268TIP3    H240296   3.822   4.249   1.970  0.9081 -0.7238 -0.9819
 6269TIP3   OH240297   0.432   4.128  11.854  0.1311 -0.7838 -0.0243
 6269TIP3    H140298   0.417   4.037  11.829  0.9178 -1.0731  0.5027
 6269TIP3    H240299   0.512   4.153  11.806  0.1425 -0.4990  0.1402
 6270TIP3   OH240300   1.180   6.346   2.719  0.0337 -0.3815 -0.2017
 6270TIP3    H140301   1.085   6.340   2.730  0.3136 -1.1135  2.1004
 6270TIP3    H240302   1.203   6.431   2.757  0.6824 -1.7234  2.5786
 6271TIP3   OH240303   5.256   0.569  15.122 -0.3282  0.1943 -0.0617
 6271TIP3    H140304   5.327   0.585  15.059 -0.0423 -0.3845  0.1127
 6271TIP3    H240305   5.301   0.562  15.206 -0.3115 -2.3839 -0.2069
 6272TIP3   OH240306   4.562   1.768  14.877  0.6104 -0.0794 -0.1394
 6272TIP3    H140307   4.539   1.677  14.860  0.4325 -0.0308 -0.1674
 6272TIP3    H240308   4.492   1.818  14.835  1.8154  0.1492 -2.0426
 6273TIP3   OH240309   3.192   2.866  16.810 -0.0482  0.0858 -0.1433
 6273TIP3    H140310   3.256   2.912  16.756 -0.3919  0.3676 -0.3081
 6273TIP3    H240311   3.242   2.841  16.888  0.5131 -0.5398 -0.6850
 6274TIP3   OH240312   1.967   3.658   1.185 -0.0777 -0.5221  0.2225
 6274TIP3    H140313   1.879   3.692   1.200  0.3696  0.6018  0.3837
 6274TIP3    H240314   1.953   3.576   1.138 -1.3415 -1.8786  2.7355
 6275TIP3   OH240315   6.072   1.874  15.752 -0.3073 -0.0023  0.0828
 6275TIP3    H140316   5.982   1.869  15.721 -0.5548 -1.2456  0.9125
 6275TIP3    H240317   6.101   1.962  15.729 -2.1169  0.8273  0.8107
 6276TIP3   OH240318   3.451   6.194   2.186  0.1385 -0.8189  0.7104
 6276TIP3    H140319   3.535   6.240   2.191 -0.3081  0.0714  0.1625
 6276TIP3    H240320   3.388   6.256   2.222 -0.6989 -0.4226 -1.3464
 6277TIP3   OH240321   1.111   5.543  13.149  0.0871 -0.3780 -0.2892
 6277TIP3    H140322   1.056   5.544  13.228  1.9473  2.0425  1.1389
 6277TIP3    H240323   1.199   5.526  13.183  0.9115  0.5979 -1.8560
 6278TIP3   OH240324   6.551   6.450   4.472  0.4403 -0.5509  0.1586
 6278TIP3    H140325   6.516   6.401   4.397  2.0087  1.3971 -1.9939
 6278TIP3    H240326   6.608   6.387   4.517  1.3966 -1.1552 -1.7624
 6279TIP3   OH240327   5.134   1.625   3.888 -0.1481  0.4507  0.0175
 6279TIP3    H140328   5.076   1.555   3.917  2.3137 -1.2074  1.2623
 6279TIP3    H240329   5.098   1.653   3.804 -0.5193 -3.2162 -1.2001
 6280TIP3   OH240330   1.180   0.784  16.400 -0.1419  0.5121  0.4755
 6280TIP3    H140331   1.145   0.724  16.333 -0.7745  0.8325  0.5093
 6280TIP3    H240332   1.200   0.728  16.474 -1.8265  0.4566  0.9426
 6281TIP3   OH240333   5.327   1.637   0.893 -0.1575  0.4086 -0.0992
 6281TIP3    H140334   5.337   1.571   0.825  0.0999 -0.5669  0.8529
 6281TIP3    H240335   5.375   1.602   0.968 -0.2465  1.5536  0.5217
 6282TIP3   OH240336   0.902   4.752  17.070  0.6168 -0.3474 -0.1076
 6282TIP3    H140337   0.852   4.832  17.084 -0.8408 -1.4425  1.2844
 6282TIP3    H240338   0.836   4.684  17.054  1.6481 -1.7407  1.2672
 6283TIP3   OH240339   3.017   6.389   4.363  0.0257 -0.9742 -0.5485
 6283TIP3    H140340   2.978   6.457   4.308 -0.3451 -1.3757 -0.7873
 6283TIP3    H240341   2.943   6.344   4.403  0.2480 -1.4881 -0.6966
 6284TIP3   OH240342   0.283   3.954  12.560 -0.1790  0.0789  0.2572
 6284TIP3    H140343   0.237   3.978  12.479  1.0428  0.9675 -0.2078
 6284TIP3    H240344   0.232   3.881  12.596 -0.8176 -0.2617 -1.2516
 6285TIP3   OH240345   5.907   1.483   1.554  0.6999 -0.5571 -0.2251
 6285TIP3    H140346   5.937   1.461   1.642  0.4180 -1.3273 -0.3111
 6285TIP3    H240347   5.811   1.482   1.561  0.4797  3.9416  0.5849
 6286TIP3   OH240348   6.211   2.543  11.448 -0.6414  0.3125  0.0878
 6286TIP3    H140349   6.205   2.464  11.396 -1.6594 -0.1686  0.9019
 6286TIP3    H240350   6.123   2.557  11.482 -0.1876  1.0290  1.0590
 6287TIP3   OH240351   2.702   1.958  12.990 -0.0877 -0.3927 -0.2357
 6287TIP3    H140352   2.668   2.042  13.018  1.2018 -0.2123  0.9219
 6287TIP3    H240353   2.772   1.939  13.052 -0.8892 -2.7254  0.0511
 6288TIP3   OH240354   1.177   4.090  13.660  0.5762 -0.0299  0.0926
 6288TIP3    H140355   1.141   4.173  13.693  1.3227 -0.2594  1.5806
 6288TIP3    H240356   1.163   4.028  13.732  0.8815 -0.9514 -0.6302
 6289TIP3   OH240357   3.958   6.683  15.880  0.0796  0.4306  0.2430
 6289TIP3    H140358   3.982   6.609  15.824 -0.8079 -0.0000  0.4060
 6289TIP3    H240359   3.876   6.715  15.843 -0.9200 -0.3376  1.7079
 6290TIP3   OH240360   1.564   0.568  11.926 -0.0406 -0.2170 -0.0736
 6290TIP3    H140361   1.613   0.544  12.005 -1.8605 -1.6251  0.7023
 6290TIP3    H240362   1.547   0.485  11.882 -1.9797  0.1598 -0.1314
 6291TIP3   OH240363   2.696   3.957  10.371  0.0791 -0.1837 -0.0189
 6291TIP3    H140364   2.656   3.882  10.328 -0.2862  1.4255 -2.6584
 6291TIP3    H240365   2.622   4.011  10.398  0.3761  0.8540 -1.2437
 6292TIP3   OH240366   6.365   6.786  12.977 -0.1405 -0.6293  0.0554
 6292TIP3    H140367   6.362   6.701  13.021 -0.1611 -0.5201  0.2698
 6292TIP3    H240368   6.389   6.766  12.887  0.2638 -0.8304  0.2017
 6293TIP3   OH240369   4.758   3.736   5.482 -0.1066 -0.1871 -0.7429
 6293TIP3    H140370   4.711   3.810   5.521 -1.0372 -0.7825 -0.7314
 6293TIP3    H240371   4.691   3.681   5.443  0.5781 -1.0213 -0.7859
 6294TIP3   OH240372   3.131   2.874  16.222 -0.2480  0.2204  0.1578
 6294TIP3    H140373   3.221   2.849  16.203 -0.8265 -3.1541  1.1155
 6294TIP3    H240374   3.136   2.922  16.305  0.5210 -2.5066  1.8188
 6295TIP3   OH240375   4.469   5.908  16.303 -0.1751  0.2532 -0.3568
 6295TIP3    H140376   4.460   5.816  16.279 -1.3453  0.5193 -0.9979
 6295TIP3    H240377   4.379   5.940  16.310  0.2240  1.4509 -0.5333
 6296TIP3   OH240378   6.024   0.294   2.944  0.3543  0.1587  0.0461
 6296TIP3    H140379   5.945   0.279   2.995  1.3361 -0.9957  1.3214
 6296TIP3    H240380   6.094   0.257   2.998  1.8496  1.6735 -0.7557
 6297TIP3   OH240381   4.436   3.642  11.808  0.0735 -0.5229  0.2956
 6297TIP3    H140382   4.485   3.606  11.734  0.0634  0.0875 -0.0103
 6297TIP3    H240383   4.346   3.648  11.777  0.0122 -0.5636  0.4659
 6298TIP3   OH240384   5.853   6.684  17.005 -0.0296 -0.4493 -0.0773
 6298TIP3    H140385   5.783   6.745  16.982  1.6531  1.4558 -0.4578
 6298TIP3    H240386   5.857   6.687  17.101 -0.0444 -0.0120 -0.0865
 6299TIP3   OH240387   6.629   4.818  15.385 -0.0893  0.3994 -0.1770
 6299TIP3    H140388   6.645   4.791  15.294  0.5300  1.1348 -0.2904
 6299TIP3    H240389   6.605   4.910  15.379  0.6099  0.6288  0.4688
 6300TIP3   OH240390   1.756   1.427  15.227 -0.3206 -0.3577 -0.0536
 6300TIP3    H140391   1.829   1.372  15.196 -1.6435 -3.0064  1.1835
 6300TIP3    H240392   1.791   1.470  15.306  1.2231  1.9663 -1.8540
 6301TIP3   OH240393   6.225   6.019  12.825  0.1288  0.0983  0.0909
 6301TIP3    H140394   6.190   5.939  12.787 -0.0872  0.6180 -0.8274
 6301TIP3    H240395   6.249   6.073  12.750 -0.1199  1.0703  0.6923
 6302TIP3   OH240396   0.878   2.746   0.676 -0.1383 -0.5240  0.7350
 6302TIP3    H140397   0.937   2.710   0.610 -0.8488 -1.2370  0.4784
 6302TIP3    H240398   0.934   2.803   0.729  0.2792  0.7910 -1.0245
 6303TIP3   OH240399   5.657   0.843   0.111  0.1645  0.4802 -0.2521
 6303TIP3    H140400   5.658   0.859   0.206  1.5680 -2.0329  0.2377
 6303TIP3    H240401   5.641   0.749   0.103 -0.6175  0.7555 -2.5831
 6304TIP3   OH240402   3.493   5.629  16.801  0.2398  0.0568 -0.9686
 6304TIP3    H140403   3.550   5.578  16.744 -0.1344  0.8244 -2.0707
 6304TIP3    H240404   3.469   5.706  16.748  1.1316  1.6042  0.7819
 6305TIP3   OH240405   3.054   4.058   0.334  0.5092  0.2875  0.0293
 6305TIP3    H140406   2.971   4.015   0.312  0.8659 -0.3123 -0.1947
 6305TIP3    H240407   3.053   4.139   0.284  0.0533  0.2866  0.0317
 6306TIP3   OH240408   2.390   2.115  16.931 -0.2361 -0.0557  0.0024
 6306TIP3    H140409   2.408   2.094  16.840 -2.1617 -1.1371 -0.1624
 6306TIP3    H240410   2.410   2.035  16.979  0.3043  0.3571  0.4886
 6307TIP3   OH240411   0.497   2.022  12.723 -0.2282  0.4421  0.3677
 6307TIP3    H140412   0.473   2.035  12.632  1.3036 -4.7911 -1.0927
 6307TIP3    H240413   0.591   2.040  12.726 -0.4427  1.5649  1.2665
 6308TIP3   OH240414   1.291   1.463  11.787 -0.0374  1.2274 -0.3707
 6308TIP3    H140415   1.358   1.517  11.744 -0.1822 -2.1357 -5.7549
 6308TIP3    H240416   1.208   1.493  11.748 -0.5167 -0.3849 -0.6615
 6309TIP3   OH240417   4.341   4.995  16.842 -0.3658 -0.8184  0.7949
 6309TIP3    H140418   4.318   4.939  16.916 -1.0802 -0.1516  1.0814
 6309TIP3    H240419   4.435   5.011  16.854 -0.2913 -1.4169  1.0727
 6310TIP3   OH240420   1.432   6.307  10.782 -0.3368  0.3769  0.1583
 6310TIP3    H140421   1.392   6.293  10.696 -0.9471  0.9087  0.3528
 6310TIP3    H240422   1.480   6.390  10.772  0.0091  0.1846  0.1889
 6311TIP3   OH240423   4.622   5.859   1.403 -0.9247  0.0560  0.0916
 6311TIP3    H140424   4.559   5.819   1.463 -1.8135 -2.7483 -2.4316
 6311TIP3    H240425   4.702   5.808   1.415 -1.7347 -2.0199 -2.3777
 6312TIP3   OH240426   5.668   5.293   3.053 -0.1988 -0.1368  0.3392
 6312TIP3    H140427   5.735   5.309   3.121  0.5627  0.0251 -0.4335
 6312TIP3    H240428   5.693   5.208   3.015 -0.2253  0.0919 -0.1920
 6313TIP3   OH240429   3.613   5.085   1.460  0.0727 -0.6261  0.8003
 6313TIP3    H140430   3.683   5.030   1.425 -0.1000 -0.3024 -0.0741
 6313TIP3    H240431   3.658   5.157   1.504  0.2893 -0.8870  1.0099
 6314TIP3   OH240432   0.156   4.094  11.479  0.0909  0.5464 -0.4735
 6314TIP3    H140433   0.147   4.155  11.552  0.3842  0.8447 -0.6847
 6314TIP3    H240434   0.087   4.120  11.417 -1.8170 -1.2584  0.7582
 6315TIP3   OH240435   3.397   5.778   1.146 -0.3302  0.6693  0.1823
 6315TIP3    H140436   3.473   5.771   1.089 -0.8995  3.8594 -1.1408
 6315TIP3    H240437   3.329   5.728   1.102  0.1160  0.4594 -0.2752
 6316TIP3   OH240438   3.763   1.291  16.812  0.0379 -0.4261  0.2662
 6316TIP3    H140439   3.804   1.206  16.796  1.5358 -0.1233  2.2490
 6316TIP3    H240440   3.674   1.269  16.842  0.2015 -1.2515  0.1756
 6317TIP3   OH240441   2.575   5.739  12.165  0.8914 -1.0493  0.5228
 6317TIP3    H140442   2.552   5.767  12.253 -0.3822 -3.6011  1.1067
 6317TIP3    H240443   2.522   5.794  12.107  1.0162 -0.0026  1.3973
 6318TIP3   OH240444   5.144   5.590  11.796 -0.1730  0.6935 -0.5629
 6318TIP3    H140445   5.184   5.548  11.720  0.8093  1.8330 -0.7017
 6318TIP3    H240446   5.219   5.617  11.850 -0.8240  1.1197  0.1452
 6319TIP3   OH240447   4.925   2.030   6.394  0.5670 -0.0052  0.6763
 6319TIP3    H140448   4.969   1.952   6.360  0.1932 -0.2026  0.6413
 6319TIP3    H240449   4.875   2.063   6.319  0.7011  0.2533  0.6998
 6320TIP3   OH240450   1.416   2.572  12.813  0.0486 -0.0681 -0.4233
 6320TIP3    H140451   1.468   2.493  12.826 -1.4276 -1.0101 -0.0727
 6320TIP3    H240452   1.459   2.617  12.740  1.1298 -0.9913 -0.3852
 6321TIP3   OH240453   1.234   2.015   5.527  0.0143 -0.3534  0.5913
 6321TIP3    H140454   1.217   2.092   5.473  0.3198 -0.9350 -0.3674
 6321TIP3    H240455   1.162   2.012   5.589 -0.3168  0.3668  0.2445
 6322TIP3   OH240456   0.747   3.295  11.473  0.3091  0.2149 -0.1318
 6322TIP3    H140457   0.843   3.288  11.476  0.2705 -0.3880  3.2851
 6322TIP3    H240458   0.718   3.266  11.559 -2.9622  1.0327 -0.8264
 6323TIP3   OH240459   4.127   0.678  16.663 -0.1933  0.0172 -0.8551
 6323TIP3    H140460   4.042   0.647  16.632 -0.5303 -0.7441  0.7199
 6323TIP3    H240461   4.167   0.721  16.587 -1.2425 -1.1469 -2.0963
 6324TIP3   OH240462   1.634   1.770   5.463  0.1786 -0.2852  0.6174
 6324TIP3    H140463   1.657   1.681   5.437  1.8658 -0.2845  1.9494
 6324TIP3    H240464   1.671   1.780   5.551 -1.6629  1.1031  1.2959
 6325TIP3   OH240465   4.159   0.644   1.571  0.2613 -0.9751 -0.5154
 6325TIP3    H140466   4.137   0.553   1.551 -2.7399 -0.7622  1.1569
 6325TIP3    H240467   4.080   0.679   1.614  0.7190  2.8373 -2.3282
 6326TIP3   OH240468   4.443   3.229  17.076 -0.4532 -0.4949  0.0462
 6326TIP3    H140469   4.367   3.217  17.134 -1.6151  0.6334 -1.1621
 6326TIP3    H240470   4.516   3.247  17.135 -1.5636  0.4598  1.1801
 6327TIP3   OH240471   0.092   1.761   5.967 -0.0553 -0.9324  0.0886
 6327TIP3    H140472   0.156   1.828   5.990  0.9560 -2.0638  0.7339
 6327TIP3    H240473   0.030   1.761   6.040  0.0822 -0.8631  0.2073
 6328TIP3   OH240474   4.157   6.008   4.289 -0.3856  0.3515  0.1971
 6328TIP3    H140475   4.217   6.076   4.260 -0.2097 -0.5406 -1.6793
 6328TIP3    H240476   4.084   6.055   4.330  0.6848  1.5369  0.7907
 6329TIP3   OH240477   5.935   1.108  12.465  1.1220 -0.0378 -0.1451
 6329TIP3    H140478   5.904   1.069  12.547  1.9114  1.5701  0.9567
 6329TIP3    H240479   5.866   1.170  12.440  0.7787 -0.6811 -0.8480
 6330TIP3   OH240480   4.164   2.091  16.396  0.1039  0.3857 -0.3381
 6330TIP3    H140481   4.237   2.149  16.421 -1.2462  2.2527 -0.5139
 6330TIP3    H240482   4.102   2.149  16.351 -1.7149 -1.0220  0.2330
 6331TIP3   OH240483   4.338   6.273   6.338  0.0019 -0.0261  0.3271
 6331TIP3    H140484   4.373   6.241   6.421 -0.7900  0.5753  0.9231
 6331TIP3    H240485   4.277   6.205   6.309 -0.3197  0.1118  0.6627
 6332TIP3   OH240486   3.884   3.829   4.290  0.2460  0.4017 -0.1864
 6332TIP3    H140487   3.910   3.873   4.209  1.5088 -0.0321 -0.0390
 6332TIP3    H240488   3.899   3.895   4.359 -1.4074  0.9791 -0.3481
 6333TIP3   OH240489   1.219   1.315  12.486 -0.1317 -0.3065  0.2079
 6333TIP3    H140490   1.308   1.350  12.493  0.0609 -0.5906 -0.6033
 6333TIP3    H240491   1.189   1.305  12.576  0.3441  0.5831  0.4690
 6334TIP3   OH240492   5.586   0.772   6.585  0.2207 -0.7800  0.2196
 6334TIP3    H140493   5.658   0.780   6.523  1.0700 -1.2925  1.1056
 6334TIP3    H240494   5.577   0.859   6.624  0.1091 -0.6215 -0.1592
 6335TIP3   OH240495   2.928   2.156   2.917 -0.6839  0.3632 -0.1067
 6335TIP3    H140496   2.975   2.077   2.890 -0.4125  0.0373  1.2617
 6335TIP3    H240497   2.871   2.176   2.843 -0.7913 -1.1432 -0.4576
 6336TIP3   OH240498   3.102   3.220  14.140  0.2014  0.2853 -0.4210
 6336TIP3    H140499   3.146   3.250  14.220 -2.2709  2.1361  0.3595
 6336TIP3    H240500   3.032   3.284  14.125 -1.5595 -1.8796 -2.1638
 6337TIP3   OH240501   6.564   3.259  11.923 -0.4789 -0.3834 -0.6734
 6337TIP3    H140502   6.617   3.206  11.983 -0.9831 -1.9199 -1.5183
 6337TIP3    H240503   6.628   3.308  11.872  0.0934 -1.4482 -0.9941
 6338TIP3   OH240504   0.665   0.699   1.618  0.6215 -0.4017 -0.3643
 6338TIP3    H140505   0.641   0.632   1.682 -0.1799  0.2007 -0.0158
 6338TIP3    H240506   0.758   0.715   1.633  0.3102  0.2018  1.1127
 6339TIP3   OH240507   3.037   0.712   6.268  0.3078  0.0593  0.0080
 6339TIP3    H140508   3.109   0.650   6.256 -0.8172 -1.2276 -0.4126
 6339TIP3    H240509   3.041   0.736   6.361  1.4112  0.1837 -0.0642
 6340TIP3   OH240510   3.186   5.455   2.949  0.0404  0.5760  0.1331
 6340TIP3    H140511   3.122   5.525   2.964  1.2686  1.3765  1.9988
 6340TIP3    H240512   3.271   5.497   2.961  0.9100 -0.7518 -1.0044
 6341TIP3   OH240513   2.234   0.889   3.036  0.0824  0.4665  0.1430
 6341TIP3    H140514   2.198   0.878   3.124 -0.7332 -0.4624 -0.2927
 6341TIP3    H240515   2.229   0.984   3.020 -1.6684  0.4405  0.3332
 6342TIP3   OH240516   3.780   2.953  15.908 -0.1659  0.0573 -1.0682
 6342TIP3    H140517   3.792   2.974  16.000 -0.3354  1.5444 -1.3515
 6342TIP3    H240518   3.853   2.996  15.864 -1.1334  1.0013 -1.8081
 6343TIP3   OH240519   3.585   2.361   5.416  0.0826 -0.2614  0.2265
 6343TIP3    H140520   3.632   2.393   5.339 -0.4117 -1.4543 -0.5964
 6343TIP3    H240521   3.586   2.436   5.477 -0.2930  1.0275 -1.2754
 6344TIP3   OH240522   4.303   3.669   6.358 -0.4612 -0.4648  0.5293
 6344TIP3    H140523   4.345   3.613   6.424 -0.9467  0.3541  1.5584
 6344TIP3    H240524   4.218   3.691   6.396 -0.4196  0.6734 -0.0125
 6345TIP3   OH240525   3.898   2.119   3.042  0.3937 -0.5294 -0.0154
 6345TIP3    H140526   3.985   2.124   3.082  0.5113  0.2978 -0.3709
 6345TIP3    H240527   3.905   2.168   2.961 -0.7657  0.7128  0.5975
 6346TIP3   OH240528   3.107   4.789   2.957 -0.0869 -0.3326  0.4629
 6346TIP3    H140529   3.131   4.697   2.967 -0.8704 -0.3351  2.7392
 6346TIP3    H240530   3.112   4.805   2.862  1.5708 -2.2699  0.1718
 6347TIP3   OH240531   6.044   1.878  13.265  0.3345  0.1874  0.3659
 6347TIP3    H140532   5.976   1.875  13.198 -3.1266  1.4616  3.4741
 6347TIP3    H240533   6.055   1.787  13.293 -0.8551  0.0506  0.4444
 6348TIP3   OH240534   0.062   2.128  12.694  0.5541  0.5875  0.1602
 6348TIP3    H140535  -0.013   2.089  12.650  1.2594 -1.3469  0.5603
 6348TIP3    H240536   0.074   2.212  12.652  0.1009 -0.4102 -2.1018
 6349TIP3   OH240537   6.227   4.285  10.989  0.2245 -0.5544  0.5492
 6349TIP3    H140538   6.306   4.265  11.040  0.6302  1.1654  0.6595
 6349TIP3    H240539   6.211   4.206  10.937  1.5453 -1.2308  1.1231
 6350TIP3   OH240540   3.847   3.598   0.024 -0.1490 -0.1995 -0.3653
 6350TIP3    H140541   3.781   3.576   0.091 -0.6964 -0.0903 -0.8595
 6350TIP3    H240542   3.924   3.624   0.075 -1.1634  1.7777  0.2726
 6351TIP3   OH240543   4.048   3.368   1.444 -0.1197 -0.3936 -0.1734
 6351TIP3    H140544   4.067   3.432   1.513 -0.8858 -1.0226  0.6344
 6351TIP3    H240545   4.135   3.342   1.412  0.2141  0.9112 -0.4085
 6352TIP3   OH240546   4.445   6.066  15.301 -0.2831  0.4288 -0.1326
 6352TIP3    H140547   4.355   6.093  15.319 -0.4024  0.1339 -0.2868
 6352TIP3    H240548   4.470   6.013  15.376 -0.4713 -0.0528 -0.4098
 6353TIP3   OH240549   2.434   5.730   1.125 -0.2554 -0.3490 -0.2808
 6353TIP3    H140550   2.398   5.667   1.188  1.2877 -0.4881  0.5048
 6353TIP3    H240551   2.395   5.704   1.041 -0.9264 -1.3068  0.3028
 6354TIP3   OH240552   2.007   0.793   2.825  0.0827 -0.5535 -0.5972
 6354TIP3    H140553   2.023   0.698   2.832 -1.1957 -0.7067  0.8879
 6354TIP3    H240554   2.079   0.833   2.873  0.4576 -0.7883 -0.9592
 6355TIP3   OH240555   1.639   3.139   3.348 -0.0304 -0.0425  0.1753
 6355TIP3    H140556   1.600   3.054   3.327 -1.8829  1.0470 -1.1415
 6355TIP3    H240557   1.681   3.126   3.433  0.5354 -2.4907 -0.3908
 6356TIP3   OH240558   3.081   4.365   4.973 -0.0058  0.5359 -0.2750
 6356TIP3    H140559   3.092   4.401   5.061 -1.3611 -1.6937  0.9083
 6356TIP3    H240560   3.141   4.415   4.918  1.0194  1.8676  1.9424
 6357TIP3   OH240561   0.312   4.415  14.085 -0.2270 -0.0485 -0.1621
 6357TIP3    H140562   0.323   4.462  14.167 -0.1216 -0.9893  0.3738
 6357TIP3    H240563   0.393   4.430  14.037 -1.0627  2.1873 -1.0059
 6358TIP3   OH240564   3.899   0.301  12.169 -0.2068  0.0926  0.3741
 6358TIP3    H140565   3.982   0.346  12.181 -0.6352  0.5593  1.9070
 6358TIP3    H240566   3.837   0.350  12.223 -1.1712 -1.0306  0.3449
 6359TIP3   OH240567   2.716   0.036  12.668  0.1144 -0.2406 -0.1124
 6359TIP3    H140568   2.744   0.125  12.646  0.2087 -0.3683 -0.5273
 6359TIP3    H240569   2.760   0.017  12.751  1.0973 -0.3550 -0.6455
 6360TIP3   OH240570   5.166   2.877  14.795  0.0861 -0.2306  0.0194
 6360TIP3    H140571   5.083   2.924  14.805  0.0184 -0.7908  2.7925
 6360TIP3    H240572   5.200   2.905  14.710 -1.6169  2.1241  0.0432
 6361TIP3   OH240573   1.187   6.502   5.211 -0.3668  0.1319  0.0426
 6361TIP3    H140574   1.200   6.454   5.293 -2.9937 -3.5762 -1.4019
 6361TIP3    H240575   1.120   6.567   5.232  0.7808  0.9343  1.3424
 6362TIP3   OH240576   1.022   0.227  15.918 -0.0547 -0.3009  1.0100
 6362TIP3    H140577   0.956   0.275  15.868 -0.0052  0.6622  1.8496
 6362TIP3    H240578   1.013   0.136  15.888 -1.1375 -0.0291  0.4526
 6363TIP3   OH240579   5.334   0.525   2.305 -0.5670 -0.3428  0.5513
 6363TIP3    H140580   5.265   0.589   2.289  0.4527  0.8027  0.6593
 6363TIP3    H240581   5.352   0.487   2.219 -2.4413 -1.8606  0.7618
 6364TIP3   OH240582   6.335   0.790  15.618  0.2106  0.2987  0.6307
 6364TIP3    H140583   6.345   0.856  15.550  2.4988 -0.8688 -0.2893
 6364TIP3    H240584   6.279   0.831  15.684 -1.9338  1.5366 -1.8030
 6365TIP3   OH240585   2.808   5.521  16.108 -0.3067  0.3146  0.5048
 6365TIP3    H140586   2.741   5.565  16.161 -0.7107  0.8972 -0.4693
 6365TIP3    H240587   2.890   5.567  16.130 -0.4875  0.6171  0.5586
 6366TIP3   OH240588   1.930   2.716  16.953  0.9429 -0.7386  0.2266
 6366TIP3    H140589   1.949   2.795  16.902  0.7375  0.8556  2.4988
 6366TIP3    H240590   2.016   2.677  16.970  1.0716 -0.8308 -0.5680
 6367TIP3   OH240591   5.259   3.901   1.505 -0.5475  0.1388 -0.3459
 6367TIP3    H140592   5.283   3.884   1.413  1.3529  0.7714 -0.0066
 6367TIP3    H240593   5.329   3.859   1.556 -1.0052  0.7057  0.7831
 6368TIP3   OH240594   4.791   3.922  17.099  0.9168 -0.6684 -0.0934
 6368TIP3    H140595   4.869   3.938  17.152  0.5536  0.2490  0.1669
 6368TIP3    H240596   4.718   3.935  17.158  0.5622 -2.5158 -0.0787
 6369TIP3   OH240597   6.610   0.298   5.392 -0.1638 -0.0590  0.4066
 6369TIP3    H140598   6.532   0.255   5.428  0.7612 -0.7567  1.6936
 6369TIP3    H240599   6.665   0.315   5.469  0.5634  1.2520 -0.3665
 6370TIP3   OH240600   2.649   2.425  15.990 -0.8733 -0.0960 -0.0092
 6370TIP3    H140601   2.555   2.428  15.970 -0.6269  2.0226 -1.1186
 6370TIP3    H240602   2.674   2.517  16.002  0.8471 -0.6868  1.4673
 6371TIP3   OH240603   2.390   4.106  12.293 -0.2168 -0.0620  0.0517
 6371TIP3    H140604   2.314   4.158  12.321  0.0847  0.3151  0.1749
 6371TIP3    H240605   2.466   4.155  12.325  0.0916 -0.2824 -0.3346
 6372TIP3   OH240606   5.387   4.971   4.954  0.0831  0.0291 -0.3936
 6372TIP3    H140607   5.467   4.961   4.904  0.4718 -2.8923  0.6210
 6372TIP3    H240608   5.415   5.010   5.037  0.7071 -1.8832  0.3500
 6373TIP3   OH240609   6.028   4.482   3.045 -0.2084 -0.2490 -0.3379
 6373TIP3    H140610   6.076   4.553   3.001 -1.4184  0.9251  0.1707
 6373TIP3    H240611   6.024   4.509   3.136 -0.3415 -1.1912 -0.0559
 6374TIP3   OH240612   0.153   6.219  14.533  0.0560  0.1195 -0.1197
 6374TIP3    H140613   0.190   6.301  14.566  0.4241 -0.4408  0.9129
 6374TIP3    H240614   0.146   6.232  14.438  0.5059  1.1747 -0.0254
 6375TIP3   OH240615   0.928   4.123   0.054  0.6236 -0.1967  0.6434
 6375TIP3    H140616   0.832   4.124   0.062  0.3873 -0.1740 -1.4625
 6375TIP3    H240617   0.946   4.045   0.001  1.2919  2.0425 -2.7697
 6376TIP3   OH240618   4.257   5.699  14.568 -0.1693  0.1007  0.1345
 6376TIP3    H140619   4.184   5.646  14.539  0.8057 -1.1144 -0.1959
 6376TIP3    H240620   4.225   5.789  14.565 -1.7561 -0.4352  0.3963
 6377TIP3   OH240621   0.656   3.018  16.785  0.0008  0.2084  0.3416
 6377TIP3    H140622   0.569   2.990  16.816  0.1672 -0.0117  0.6138
 6377TIP3    H240623   0.716   2.953  16.822 -0.0355 -1.8898 -2.8522
 6378TIP3   OH240624   4.453   4.989  13.493 -0.3840 -0.2590  0.4763
 6378TIP3    H140625   4.382   4.951  13.545 -1.4701  0.9677 -0.0727
 6378TIP3    H240626   4.426   5.079  13.476  0.9170 -0.0119 -0.4645
 6379TIP3   OH240627   3.170   4.915  13.547  0.0640 -0.1521 -0.5553
 6379TIP3    H140628   3.226   4.874  13.613 -1.6975 -1.8378 -0.0271
 6379TIP3    H240629   3.192   5.008  13.551  1.9455 -0.6013  0.4550
 6380TIP3   OH240630   1.573   0.989   2.214  0.3021 -0.1853 -0.1940
 6380TIP3    H140631   1.571   0.979   2.309  1.8438  1.3355  0.0372
 6380TIP3    H240632   1.580   1.083   2.199  1.1275 -0.4635 -1.7757
 6381TIP3   OH240633   2.722   4.634   4.480  0.2367  0.5898  0.1581
 6381TIP3    H140634   2.656   4.675   4.537  1.2334  1.2702  0.8558
 6381TIP3    H240635   2.678   4.626   4.395 -1.3901 -0.7066  1.0511
 6382TIP3   OH240636   2.410   0.972   2.690 -0.2244 -0.1543 -0.1386
 6382TIP3    H140637   2.315   0.966   2.684 -0.4704  1.2739  1.4893
 6382TIP3    H240638   2.434   1.032   2.619 -0.4119 -1.1938 -1.1039
 6383TIP3   OH240639   4.910   3.925   4.794 -0.5275  0.0774 -0.1942
 6383TIP3    H140640   4.936   4.016   4.782 -0.1644 -0.0229 -0.1756
 6383TIP3    H240641   4.836   3.913   4.736 -0.9745  0.5599  0.2696
 6384TIP3   OH240642   1.661   5.986   1.913  0.4043  0.1810  1.0009
 6384TIP3    H140643   1.628   6.041   1.985 -2.3263  2.4777 -1.7509
 6384TIP3    H240644   1.715   6.045   1.860 -0.3971 -0.4632 -0.5994
 6385TIP3   OH240645   4.149   0.178   2.427 -0.1933 -0.1703 -0.5540
 6385TIP3    H140646   4.159   0.225   2.510  0.0704  0.1384 -0.7574
 6385TIP3    H240647   4.221   0.114   2.428  0.3562  0.4304 -0.9379
 6386TIP3   OH240648   3.317   6.422   2.291  0.9772 -0.4162  0.9753
 6386TIP3    H140649   3.401   6.466   2.307 -0.0191  1.9306  0.2564
 6386TIP3    H240650   3.305   6.429   2.196 -0.7994  0.8661  1.2508
 6387TIP3   OH240651   3.931   5.660   2.489  0.2189  0.1043 -0.0099
 6387TIP3    H140652   3.899   5.676   2.400  0.9297  2.2893  0.0616
 6387TIP3    H240653   3.853   5.664   2.544  0.0707  1.1428 -0.2864
 6388TIP3   OH240654   1.714   6.062  13.740  0.0605 -0.2886  0.2129
 6388TIP3    H140655   1.770   5.993  13.776  0.6675  0.0551 -0.0484
 6388TIP3    H240656   1.643   6.014  13.696  0.9673 -0.7938 -0.7728
 6389TIP3   OH240657   5.971   2.032  11.293 -0.2510  0.5156 -0.3182
 6389TIP3    H140658   6.038   1.987  11.344 -0.9882 -0.0687  0.1547
 6389TIP3    H240659   6.016   2.059  11.212  0.2398 -0.9503 -0.5594
 6390TIP3   OH240660   2.315   4.102  15.170  0.2278  0.9179 -0.1585
 6390TIP3    H140661   2.361   4.100  15.254  0.3486  0.5603 -0.2322
 6390TIP3    H240662   2.292   4.194  15.158 -2.6970  0.5606  1.7997
 6391TIP3   OH240663   1.864   3.853   6.646  0.4528  0.2342 -0.2601
 6391TIP3    H140664   1.954   3.873   6.619  0.9591 -1.3759  0.1238
 6391TIP3    H240665   1.844   3.769   6.604 -0.2876 -0.2040  0.9162
 6392TIP3   OH240666   0.853   6.653  14.225  0.2880 -0.5917 -0.4324
 6392TIP3    H140667   0.863   6.744  14.196  0.7023 -0.7492 -0.7877
 6392TIP3    H240668   0.923   6.641  14.289  0.6760 -0.8689 -0.9021
 6393TIP3   OH240669   2.614   4.708   4.819  0.3790 -0.2174  0.3832
 6393TIP3    H140670   2.523   4.692   4.794  0.7163  0.5303 -1.5390
 6393TIP3    H240671   2.622   4.670   4.906 -1.1538 -2.3808 -0.3198
 6394TIP3   OH240672   2.348   3.464   0.979  0.0582  0.2352 -0.2978
 6394TIP3    H140673   2.390   3.378   0.986  0.5955  0.4635 -0.6035
 6394TIP3    H240674   2.322   3.486   1.068  1.1209  0.3383  0.0024
 6395TIP3   OH240675   3.425   6.230  16.176 -0.6042 -0.3595  0.2104
 6395TIP3    H140676   3.459   6.273  16.098  0.5215 -0.0448  0.8507
 6395TIP3    H240677   3.330   6.245  16.172 -0.5132  0.0014 -0.8722
 6396TIP3   OH240678   0.219   2.740  11.842 -0.1819 -0.1025  0.1679
 6396TIP3    H140679   0.190   2.744  11.751  1.1605  0.9506 -0.2621
 6396TIP3    H240680   0.168   2.670  11.881 -1.5660  0.1455 -1.1054
 6397TIP3   OH240681   1.752   6.168  14.012  0.5971 -0.8976  0.7868
 6397TIP3    H140682   1.692   6.120  13.954 -0.3300 -0.6138  1.4877
 6397TIP3    H240683   1.817   6.103  14.038  0.7879 -1.1318 -0.2401
 6398TIP3   OH240684   0.592   5.870  15.013 -0.2257 -0.1092 -0.3796
 6398TIP3    H140685   0.518   5.926  14.988 -0.5257 -0.8108 -1.1296
 6398TIP3    H240686   0.661   5.893  14.950  0.3400  0.7887  0.5301
 6399TIP3   OH240687   0.120   2.832   1.678 -0.0138 -0.3691  0.6061
 6399TIP3    H140688   0.179   2.897   1.716 -0.6096 -0.0202  0.9546
 6399TIP3    H240689   0.178   2.767   1.638  0.6431 -0.7984  2.2011
 6400TIP3   OH240690   0.308   2.355  13.347  0.2185 -0.1368  0.5166
 6400TIP3    H140691   0.231   2.333  13.400  1.9406 -0.7380  2.9172
 6400TIP3    H240692   0.368   2.397  13.409  1.7517  0.5222 -1.3480
 6401TIP3   OH240693   5.401   0.320   5.403 -0.1628 -0.2270  0.0384
 6401TIP3    H140694   5.380   0.378   5.330 -0.1304  0.4773  0.5771
 6401TIP3    H240695   5.489   0.289   5.385  0.5007  1.2294  0.5700
 6402TIP3   OH240696   3.336   2.400   5.884 -0.2360  0.5992  0.1363
 6402TIP3    H140697   3.304   2.321   5.841  1.6113 -0.2406  0.2397
 6402TIP3    H240698   3.261   2.460   5.881 -1.7052 -1.1406  0.1109
 6403TIP3   OH240699   4.843   6.240   4.276  0.0171  0.0869 -0.5148
 6403TIP3    H140700   4.803   6.272   4.195  0.0621 -1.3472 -1.1317
 6403TIP3    H240701   4.775   6.184   4.315  1.0440 -1.6609 -1.1207
 6404TIP3   OH240702   0.622   1.806   3.931  0.2912  0.1287  0.2382
 6404TIP3    H140703   0.604   1.716   3.958  0.0814 -0.7223 -2.4187
 6404TIP3    H240704   0.557   1.824   3.862 -0.0930  2.5822  1.1289
 6405TIP3   OH240705   5.947   5.548  16.667 -0.2455 -1.0197  0.2199
 6405TIP3    H140706   5.945   5.598  16.748 -0.2541 -0.6088 -0.0301
 6405TIP3    H240707   5.962   5.458  16.694  0.5031 -0.7796  0.6361
 6406TIP3   OH240708   3.876   4.771   6.338 -0.1788  0.0682  0.2359
 6406TIP3    H140709   3.846   4.785   6.248 -0.9463  1.1658  0.6356
 6406TIP3    H240710   3.795   4.773   6.390  0.2507 -0.6145  0.9476
 6407TIP3   OH240711   4.850   1.273  17.191 -0.3290 -0.2820 -0.1822
 6407TIP3    H140712   4.793   1.196  17.192  1.3020 -1.5712 -0.5892
 6407TIP3    H240713   4.862   1.292  17.098 -0.5211  0.3353 -0.0871
 6408TIP3   OH240714   6.483   1.609  12.433 -0.1086  0.0740  0.2647
 6408TIP3    H140715   6.439   1.632  12.351 -2.1259 -0.4167  1.1496
 6408TIP3    H240716   6.571   1.584  12.407 -0.6538  0.0748 -1.7343
 6409TIP3   OH240717   5.773   2.426   1.551  0.8130 -0.2048 -0.0994
 6409TIP3    H140718   5.740   2.444   1.639  1.2897 -1.9433  0.4766
 6409TIP3    H240719   5.728   2.490   1.495 -2.6060 -1.5709  0.8005
 6410TIP3   OH240720   2.870   3.789   0.458  0.2360 -0.0043  0.1543
 6410TIP3    H140721   2.850   3.857   0.394  0.8814  0.1378  0.1070
 6410TIP3    H240722   2.788   3.739   0.465  0.6753 -1.2135 -2.1994
 6411TIP3   OH240723   3.392   2.738   2.436  0.2766  0.7500 -0.0953
 6411TIP3    H140724   3.365   2.646   2.438 -0.8998  1.0879  2.1775
 6411TIP3    H240725   3.405   2.757   2.343 -0.5820 -1.3894 -0.7051
 6412TIP3   OH240726   5.728   4.566   0.274  0.0642  0.5094 -0.2253
 6412TIP3    H140727   5.751   4.598   0.361  0.9454  0.3812 -0.4031
 6412TIP3    H240728   5.633   4.578   0.268  0.0426  0.8003  0.6335
 6413TIP3   OH240729   3.283   2.227  14.160 -0.1722  0.0382 -0.1626
 6413TIP3    H140730   3.236   2.197  14.238  1.0585 -0.2318  0.5010
 6413TIP3    H240731   3.247   2.314  14.143 -3.3017 -1.3874 -1.7054
 6414TIP3   OH240732   0.212   3.760   5.151  0.2966  0.4685  0.1636
 6414TIP3    H140733   0.213   3.666   5.168 -0.6004  0.0702 -1.6572
 6414TIP3    H240734   0.305   3.784   5.145  0.5376 -0.2316  0.8979
 6415TIP3   OH240735   3.694   5.643   3.249 -0.3399 -0.2961  0.0063
 6415TIP3    H140736   3.767   5.638   3.188 -1.0918 -1.4079 -0.8370
 6415TIP3    H240737   3.649   5.724   3.225  0.0912 -0.0734 -0.0669
 6416TIP3   OH240738   0.491   4.410  11.374 -0.4463 -0.5807 -0.1734
 6416TIP3    H140739   0.488   4.456  11.458 -4.2388  1.0972 -1.0148
 6416TIP3    H240740   0.533   4.471  11.314 -0.3812 -0.5713 -0.1181
 6417TIP3   OH240741   5.417   3.782  15.389  0.1096 -0.0449 -0.4202
 6417TIP3    H140742   5.446   3.695  15.359  0.2652 -0.1177 -0.0702
 6417TIP3    H240743   5.456   3.791  15.476  1.8496  1.2572 -1.2682
 6418TIP3   OH240744   5.370   3.811   5.765  0.2897  0.4723 -0.0953
 6418TIP3    H140745   5.315   3.832   5.841  2.0014  0.4311  1.2010
 6418TIP3    H240746   5.430   3.744   5.797 -1.0513 -2.0412 -2.4408
 6419TIP3   OH240747   4.016   6.131   4.071  0.7775 -0.7077  0.5794
 6419TIP3    H140748   3.924   6.148   4.050  0.7167  1.5611  2.2978
 6419TIP3    H240749   4.047   6.077   3.998 -1.9978 -1.9791  0.1856
 6420TIP3   OH240750   6.621   0.280   3.880  0.0073  0.0546 -0.5654
 6420TIP3    H140751   6.652   0.228   3.806  2.2661  0.4451  0.0150
 6420TIP3    H240752   6.639   0.225   3.956  0.5394  0.8544 -0.0996
 6421TIP3   OH240753   2.130   2.329  12.771  0.1595 -0.1449  0.3866
 6421TIP3    H140754   2.133   2.340  12.676 -0.4154 -0.4517  0.3324
 6421TIP3    H240755   2.055   2.273  12.786 -0.6496  1.1009  1.1409
 6422TIP3   OH240756   2.610   4.897  11.965 -0.0209  0.4959  0.0137
 6422TIP3    H140757   2.668   4.937  12.030  1.2005  0.2681 -0.8991
 6422TIP3    H240758   2.522   4.910  12.000  0.4500  2.4102  0.6067
 6423TIP3   OH240759   1.392   6.772  16.011  0.2560  0.2632  0.0553
 6423TIP3    H140760   1.318   6.789  16.068  1.4830 -0.6100  2.0223
 6423TIP3    H240761   1.389   6.677  15.995  0.5255  0.3353 -0.4416
 6424TIP3   OH240762   0.696   3.546   4.084  0.1182  0.1002 -0.0181
 6424TIP3    H140763   0.767   3.560   4.021 -0.4279 -1.2020 -0.9826
 6424TIP3    H240764   0.702   3.453   4.106  0.6103  0.6283  2.3030
 6425TIP3   OH240765   3.223   3.154  16.297  0.4899 -0.2208  0.1647
 6425TIP3    H140766   3.298   3.212  16.312  0.5404  0.3739 -2.0322
 6425TIP3    H240767   3.231   3.128  16.205 -1.3029 -1.1691  0.2349
 6426TIP3   OH240768   1.443   0.218  14.858  0.0312  0.0713 -0.2320
 6426TIP3    H140769   1.421   0.134  14.817  1.4140 -0.0554 -0.7564
 6426TIP3    H240770   1.358   0.255  14.883 -0.8477 -0.1742 -2.5631
 6427TIP3   OH240771   4.386   3.480  11.407 -0.3471  0.2342 -0.2132
 6427TIP3    H140772   4.441   3.495  11.331 -0.7558 -1.1643 -0.8073
 6427TIP3    H240773   4.447   3.475  11.481  0.1384  0.5464 -0.5882
 6428TIP3   OH240774   3.879   4.257  14.542  0.3040  0.1971 -0.0161
 6428TIP3    H140775   3.924   4.172  14.537 -0.1634 -0.0782  0.3568
 6428TIP3    H240776   3.917   4.300  14.618  0.3886  0.2293 -0.0768
 6429TIP3   OH240777   6.107   3.245   2.724 -0.5593 -0.8310  0.1062
 6429TIP3    H140778   6.058   3.279   2.649 -1.4928 -0.3042  0.9306
 6429TIP3    H240779   6.132   3.324   2.773 -1.3753 -1.2222  1.1976
 6430TIP3   OH240780   4.345   2.731  16.250  0.3349 -0.3640 -0.3550
 6430TIP3    H140781   4.257   2.753  16.218  0.7026  0.5611 -0.7706
 6430TIP3    H240782   4.392   2.814  16.247  1.0467 -0.7314  0.4615
 6431TIP3   OH240783   5.805   6.707   3.460  0.0722  0.4132 -0.1115
 6431TIP3    H140784   5.847   6.715   3.375 -0.1607  0.2922 -0.2398
 6431TIP3    H240785   5.715   6.682   3.440  0.3979 -1.0984  0.2116
 6432TIP3   OH240786   3.854   4.888  14.586  0.2277  0.3400 -0.1507
 6432TIP3    H140787   3.942   4.861  14.615  1.2245  2.1968 -1.2374
 6432TIP3    H240788   3.808   4.911  14.667  0.5871 -0.9825  0.4635
 6433TIP3   OH240789   2.272   6.678   1.310  0.1389  0.4507  0.4762
 6433TIP3    H140790   2.295   6.691   1.402 -0.8368  1.2038  0.6299
 6433TIP3    H240791   2.299   6.759   1.268  0.5841  0.1052  0.0885
 6434TIP3   OH240792   5.387   5.246  16.069  0.5990  0.4970  0.2525
 6434TIP3    H140793   5.437   5.164  16.061  0.2829  0.3559 -0.4133
 6434TIP3    H240794   5.338   5.236  16.150  0.9711  0.2554  0.4542
 6435TIP3   OH240795   3.322   2.394  13.042  0.4013  0.6207 -0.1780
 6435TIP3    H140796   3.346   2.389  12.949 -0.0177  0.8941 -0.3081
 6435TIP3    H240797   3.273   2.476  13.049  1.2364  1.0754  0.4770
 6436TIP3   OH240798   3.839   3.256  14.582 -0.3982 -0.2126  0.0511
 6436TIP3    H140799   3.905   3.191  14.606 -0.4321 -0.2629  0.0087
 6436TIP3    H240800   3.890   3.332  14.554 -0.3587 -0.1310  0.3402
 6437TIP3   OH240801   0.961   3.107   2.724  0.2364  0.3503 -0.1407
 6437TIP3    H140802   1.041   3.069   2.688  0.5085  0.8375 -0.0637
 6437TIP3    H240803   0.936   3.047   2.795  0.1307 -0.1885 -0.6270
 6438TIP3   OH240804   5.967   4.124  15.521  0.0349 -0.2231  0.0317
 6438TIP3    H140805   5.896   4.068  15.553  0.6473 -0.0633  1.8070
 6438TIP3    H240806   6.013   4.069  15.457 -0.1914 -1.2709  0.7349
 6439TIP3   OH240807   5.939   4.577   5.429  0.3588  0.2451 -0.6743
 6439TIP3    H140808   5.951   4.595   5.523 -1.4839 -0.3353 -0.2877
 6439TIP3    H240809   6.017   4.614   5.388  0.3138  2.2503  0.8856
 6440TIP3   OH240810   3.422   4.899  12.461 -0.1089 -0.2546  0.4728
 6440TIP3    H140811   3.459   4.830  12.517 -0.2482 -0.3852  0.4035
 6440TIP3    H240812   3.429   4.864  12.372 -0.1611 -0.1716  0.4361
 6441TIP3   OH240813   6.100   1.172  13.533  0.0320  0.0437 -1.0921
 6441TIP3    H140814   6.154   1.135  13.603 -1.1672 -0.9932 -0.6707
 6441TIP3    H240815   6.097   1.103  13.467 -1.4232 -0.2492 -0.7438
 6442TIP3   OH240816   1.941   1.120  13.770 -0.7035 -0.4350 -0.1535
 6442TIP3    H140817   1.969   1.058  13.703 -0.3589  0.2785 -0.6690
 6442TIP3    H240818   1.882   1.180  13.725  0.5689  0.8630 -0.1590
 6443TIP3   OH240819   4.115   6.536   3.813 -0.8114 -0.0177  0.0921
 6443TIP3    H140820   4.070   6.452   3.802  0.2273 -0.7493  1.1282
 6443TIP3    H240821   4.095   6.562   3.903  2.2250 -1.3123  1.2910
 6444TIP3   OH240822   2.847   0.771  11.697  0.2933  0.3137  0.1649
 6444TIP3    H140823   2.934   0.797  11.725  0.8165 -0.5803 -0.5721
 6444TIP3    H240824   2.861   0.695  11.640 -0.9702  0.0766  0.1257
 6445TIP3   OH240825   5.921   1.886   5.772  0.3419  0.4122  0.1606
 6445TIP3    H140826   5.888   1.971   5.800 -1.2719  0.4016 -1.5167
 6445TIP3    H240827   5.963   1.904   5.687 -0.7712 -0.5668 -0.6268
 6446TIP3   OH240828   4.228   4.858  10.799 -0.5854 -0.1348 -0.6445
 6446TIP3    H140829   4.287   4.791  10.765  0.2886  0.1267  0.3189
 6446TIP3    H240830   4.193   4.821  10.880 -2.0961 -0.4601 -1.4152
 6447TIP3   OH240831   3.487   5.900   5.975 -0.1522 -0.2148  0.3184
 6447TIP3    H140832   3.509   5.904   5.881 -1.8132  0.3763 -0.0704
 6447TIP3    H240833   3.534   5.823   6.007  1.3559  0.2140 -0.7308
 6448TIP3   OH240834   5.038   5.026   5.881 -0.2664 -0.3800  0.3810
 6448TIP3    H140835   5.105   4.981   5.830  0.1497 -1.2292  1.6144
 6448TIP3    H240836   4.995   4.957   5.932 -1.3021  0.3049  0.4812
 6449TIP3   OH240837   0.780   3.145  12.599 -0.0537 -0.7033 -0.4577
 6449TIP3    H140838   0.832   3.081  12.551  2.4947 -0.2213  1.4356
 6449TIP3    H240839   0.825   3.229  12.585  0.8322 -0.5374  2.6104
 6450TIP3   OH240840   6.684   0.955  11.346  0.4994 -0.5873 -0.4100
 6450TIP3    H140841   6.650   0.902  11.273 -0.0068 -0.3456 -0.3560
 6450TIP3    H240842   6.690   1.044  11.310 -1.1828 -0.1587  0.2493
 6451TIP3   OH240843   1.035   2.213   2.434 -0.4376 -0.0535 -0.0250
 6451TIP3    H140844   0.952   2.243   2.398 -1.3858 -1.5214  0.8123
 6451TIP3    H240845   1.028   2.231   2.528  1.4411  2.5012 -0.2749
 6452TIP3   OH240846   2.391   6.683   5.479  0.1285 -0.1125 -0.2357
 6452TIP3    H140847   2.352   6.598   5.498  1.6506 -0.6505  0.6990
 6452TIP3    H240848   2.463   6.690   5.541  1.5031  0.8163 -1.8530
 6453TIP3   OH240849   3.025   4.770   1.164  0.0530 -1.0245 -0.1475
 6453TIP3    H140850   3.075   4.799   1.088 -0.0239 -1.5590 -0.4025
 6453TIP3    H240851   2.937   4.754   1.130 -0.1821 -0.5274  0.2077
 6454TIP3   OH240852   0.561   1.909   1.052 -0.1724  0.5261 -0.0056
 6454TIP3    H140853   0.491   1.935   0.992 -0.0650 -0.6527 -0.6667
 6454TIP3    H240854   0.569   1.815   1.041 -0.1983  0.2575  1.9436
 6455TIP3   OH240855   1.042   1.785   0.163  0.4767 -0.2251 -0.1281
 6455TIP3    H140856   1.066   1.750   0.077  1.9582  0.0111  0.1536
 6455TIP3    H240857   1.039   1.708   0.220  0.7091 -0.2475 -0.1440
 6456TIP3   OH240858   3.541   6.295   1.848  0.4811 -0.1475 -0.0676
 6456TIP3    H140859   3.511   6.240   1.776 -0.3190 -0.4138  0.4541
 6456TIP3    H240860   3.617   6.341   1.813 -0.2293  0.1610 -1.2749
 6457TIP3   OH240861   0.390   1.867  16.279  0.2306  0.0074  0.0571
 6457TIP3    H140862   0.430   1.915  16.207  0.9221 -0.7310 -0.0659
 6457TIP3    H240863   0.345   1.933  16.331 -1.6290  0.4165 -1.8992
 6458TIP3   OH240864   6.240   6.240  16.452  0.1358  0.4770  0.4242
 6458TIP3    H140865   6.326   6.213  16.422 -0.9312 -1.8959 -0.6878
 6458TIP3    H240866   6.251   6.252  16.547  1.5119 -0.5189  0.4229
 6459TIP3   OH240867   6.246   5.740  13.752  0.0940 -0.0868  0.2434
 6459TIP3    H140868   6.305   5.814  13.764 -0.5145  0.2596  1.3421
 6459TIP3    H240869   6.301   5.668  13.721  1.0382  0.2932  1.0076
 6460TIP3   OH240870   4.510   6.306   4.881 -0.0082 -0.1066  0.7891
 6460TIP3    H140871   4.555   6.290   4.964  0.5947  1.0025  0.7031
 6460TIP3    H240872   4.490   6.400   4.882 -1.3502 -0.3615  0.3278
 6461TIP3   OH240873   5.141   6.207   1.956 -0.2584  0.0285  0.2333
 6461TIP3    H140874   5.127   6.119   1.922 -0.8131  0.3819 -0.4892
 6461TIP3    H240875   5.223   6.236   1.915 -1.4162  0.8208 -1.6643
 6462TIP3   OH240876   6.767   2.455   4.029 -0.0635 -0.8256  0.2154
 6462TIP3    H140877   6.853   2.464   3.989 -0.4453  4.6064 -0.1628
 6462TIP3    H240878   6.784   2.460   4.123  0.1073  1.3631  0.1162
 6463TIP3   OH240879   1.290   5.959  16.377  0.2094 -0.5886 -0.3051
 6463TIP3    H140880   1.333   5.953  16.292 -1.0478 -0.5983 -0.9603
 6463TIP3    H240881   1.251   6.046  16.379  0.6758 -0.3848  0.4944
 6464TIP3   OH240882   4.773   4.102   4.378  0.1274 -0.0580  0.9983
 6464TIP3    H140883   4.826   4.035   4.336  0.2347 -1.0973  2.7083
 6464TIP3    H240884   4.817   4.185   4.356  1.6894 -0.7815  1.2525
 6465TIP3   OH240885   3.282   6.599   3.268  1.0000 -0.0357  0.7004
 6465TIP3    H140886   3.357   6.542   3.284  1.5721  0.5456  0.1342
 6465TIP3    H240887   3.262   6.587   3.176  0.6800  0.1497  0.7432
 6466TIP3   OH240888   6.711   1.074  11.588  0.1860 -0.8865 -0.2299
 6466TIP3    H140889   6.733   1.166  11.571  0.3074 -1.3177 -2.6465
 6466TIP3    H240890   6.702   1.035  11.502 -1.1140 -2.8796  0.7395
 6467TIP3   OH240891   2.425   1.491  15.803 -0.1435  0.0844 -0.1540
 6467TIP3    H140892   2.396   1.400  15.812 -0.3881 -0.0009 -1.4856
 6467TIP3    H240893   2.496   1.501  15.866  0.9444 -1.5120 -1.0516
 6468TIP3   OH240894   1.057   1.971   2.291  0.2468 -0.8303 -0.3321
 6468TIP3    H140895   0.983   1.969   2.230  2.2273  2.5776 -3.2669
 6468TIP3    H240896   1.048   2.056   2.335  1.9456 -0.7074 -0.1822
 6469TIP3   OH240897   5.683   0.391  11.113 -0.1407  1.2827 -0.2463
 6469TIP3    H140898   5.652   0.470  11.068 -1.3346 -0.4331 -2.7094
 6469TIP3    H240899   5.603   0.346  11.140  0.5199  0.8712  1.0706
 6470TIP3   OH240900   6.429   2.267  11.628 -0.6116  0.7100  0.1731
 6470TIP3    H140901   6.400   2.281  11.718 -0.5124  1.4630  0.0888
 6470TIP3    H240902   6.488   2.340  11.610  0.2782 -0.0608 -0.1137
 6471TIP3   OH240903   0.575   1.490  15.081  0.2140 -0.8820 -0.2300
 6471TIP3    H140904   0.593   1.485  14.987 -1.0833  1.2437 -0.6624
 6471TIP3    H240905   0.560   1.583  15.097  1.1892 -1.0857  2.2726
 6472TIP3   OH240906   2.921   6.480   4.982 -0.2276  0.0521 -0.1191
 6472TIP3    H140907   2.870   6.400   4.987  0.5522 -0.4092  1.0380
 6472TIP3    H240908   3.001   6.455   4.935  0.0369  0.1322  0.2810
 6473TIP3   OH240909   0.364   3.215  12.230  0.0013 -0.1437 -0.3751
 6473TIP3    H140910   0.340   3.132  12.269  0.4742 -0.3946 -0.6155
 6473TIP3    H240911   0.320   3.215  12.145 -1.5884  0.6937  0.3984
 6474TIP3   OH240912   2.168   6.605   5.283  0.2918 -0.0549 -0.1454
 6474TIP3    H140913   2.080   6.642   5.282  0.3163  0.0068 -1.3406
 6474TIP3    H240914   2.204   6.631   5.368 -1.2607 -1.1184  0.8781
 6475TIP3   OH240915   4.270   6.224   0.885 -0.4804  0.1522  0.6574
 6475TIP3    H140916   4.217   6.149   0.911  2.2402 -1.2891  2.5526
 6475TIP3    H240917   4.303   6.202   0.798  0.3108 -0.9218  1.2057
 6476TIP3   OH240918   1.289   0.044  14.721 -0.1779 -0.2928  0.2290
 6476TIP3    H140919   1.353   0.048  14.651 -0.1888  2.7827  0.2952
 6476TIP3    H240920   1.210   0.084  14.685 -0.8001 -0.4177  1.3910
 6477TIP3   OH240921   5.272   5.620   2.180 -0.0564  0.1784  0.2481
 6477TIP3    H140922   5.287   5.535   2.219 -2.2414 -0.2572  0.2743
 6477TIP3    H240923   5.313   5.682   2.241 -0.8686 -0.6747  1.7166
 6478TIP3   OH240924   2.375   6.751   3.121  0.0656 -0.0540 -0.2596
 6478TIP3    H140925   2.310   6.736   3.190  0.3525 -1.6447 -0.2879
 6478TIP3    H240926   2.330   6.803   3.056 -0.5711  0.4968  0.5989
 6479TIP3   OH240927   1.561   2.470  14.706  0.3376 -0.1420  0.3687
 6479TIP3    H140928   1.637   2.443  14.759  0.3850 -0.0882  0.3286
 6479TIP3    H240929   1.589   2.455  14.616  1.4182  2.6194  0.1579
 6480TIP3   OH240930   6.758   1.989   4.009 -0.0025  0.1441  0.1808
 6480TIP3    H140931   6.697   2.008   4.081 -1.0712  0.1019 -0.7005
 6480TIP3    H240932   6.708   1.934   3.949  0.6169  0.8548 -1.0033
 6481TIP3   OH240933   3.321   5.379   4.427 -0.8746  0.2188 -0.4221
 6481TIP3    H140934   3.278   5.309   4.377 -0.2656 -0.7575  0.3833
 6481TIP3    H240935   3.386   5.415   4.368 -0.0839 -0.9990 -0.3174
 6482TIP3   OH240936   1.070   2.901  16.529  0.1781 -0.0068  0.0580
 6482TIP3    H140937   1.063   2.924  16.436 -1.5295 -0.4974  0.0299
 6482TIP3    H240938   0.999   2.949  16.571 -1.9755 -3.1587  0.3754
 6483TIP3   OH240939   5.843   1.587   4.744  0.6425  0.3008 -0.0327
 6483TIP3    H140940   5.895   1.666   4.726 -0.2461  0.8406 -0.2893
 6483TIP3    H240941   5.753   1.615   4.730  0.0232  0.1285  2.9608
 6484TIP3   OH240942   5.475   4.557  11.358  0.4292  0.2139  0.0520
 6484TIP3    H140943   5.538   4.609  11.409  0.9211  0.3351 -0.6681
 6484TIP3    H240944   5.528   4.515  11.290 -0.3198  0.5552 -0.7572
 6485TIP3   OH240945   5.492   5.145  11.667  0.1779  0.3093 -0.0054
 6485TIP3    H140946   5.413   5.113  11.625 -0.0452  0.3400  0.3814
 6485TIP3    H240947   5.563   5.120  11.608  0.1060 -1.6283  0.6333
 6486TIP3   OH240948   0.568   4.211  12.313  0.3496  0.0851  0.4835
 6486TIP3    H140949   0.647   4.160  12.299  1.4896  1.4224  1.7548
 6486TIP3    H240950   0.565   4.225  12.408 -1.6467 -0.2962  0.5155
 6487TIP3   OH240951   5.616   5.267  17.191 -0.0074  0.0853 -0.0556
 6487TIP3    H140952   5.607   5.254  17.286  0.5485 -0.2929 -0.0489
 6487TIP3    H240953   5.581   5.354  17.175  0.4401  0.3910  0.5908
 6488TIP3   OH240954   2.354   6.578   5.083  0.3999 -0.4311 -0.4780
 6488TIP3    H140955   2.326   6.501   5.033 -0.3339  0.2441 -1.1255
 6488TIP3    H240956   2.301   6.575   5.163  0.3729 -0.6021 -0.5021
 6489TIP3   OH240957   1.429   6.674   0.493  0.4049  0.0660  0.0242
 6489TIP3    H140958   1.429   6.607   0.424  1.0378  1.7867 -1.7675
 6489TIP3    H240959   1.341   6.711   0.490  0.8954  1.2531 -1.1064
 6490TIP3   OH240960   5.553   2.017   3.090  0.0387  0.1662 -0.1202
 6490TIP3    H140961   5.636   2.049   3.125  0.3900 -2.2945  1.5318
 6490TIP3    H240962   5.569   1.925   3.070 -2.3996 -0.5132  0.6835
 6491TIP3   OH240963   2.633   2.792  15.382 -0.0248  0.2475 -0.2403
 6491TIP3    H140964   2.666   2.757  15.465  0.9471  0.0373 -0.6967
 6491TIP3    H240965   2.626   2.715  15.326 -0.7830  0.3746 -0.3273
 6492TIP3   OH240966   1.960   1.675   0.313 -0.9213 -0.0879  0.1432
 6492TIP3    H140967   2.005   1.591   0.302 -1.9002 -0.5062 -0.8566
 6492TIP3    H240968   2.029   1.735   0.341  0.2059 -0.7956 -0.9975
 6493TIP3   OH240969   3.190   2.297  14.824 -0.9666  0.4193 -0.1882
 6493TIP3    H140970   3.215   2.369  14.882  0.4050  0.3405 -0.6411
 6493TIP3    H240971   3.120   2.332  14.771  0.3612  1.7976 -1.1004
 6494TIP3   OH240972   4.982   2.823  11.998 -0.0467  0.3474  0.3259
 6494TIP3    H140973   4.904   2.790  11.953 -0.0715  0.7306  0.0734
 6494TIP3    H240974   4.947   2.884  12.063  0.0933  2.1124 -1.1378
 6495TIP3   OH240975   5.873   4.525  11.430  0.4207  0.8108 -0.0750
 6495TIP3    H140976   5.837   4.551  11.345 -0.4136  1.6985  0.5265
 6495TIP3    H240977   5.809   4.556  11.494  0.8022 -0.2527  0.8655
 6496TIP3   OH240978   3.226   5.664   3.263 -0.2725 -0.1061 -0.2671
 6496TIP3    H140979   3.252   5.756   3.267  0.0976 -0.2385  1.6148
 6496TIP3    H240980   3.134   5.666   3.238 -0.2642  0.7810 -0.2583
 6497TIP3   OH240981   1.124   5.374   5.305 -0.5786  0.1607 -0.2492
 6497TIP3    H140982   1.129   5.353   5.212 -1.9701 -0.5663 -0.1848
 6497TIP3    H240983   1.032   5.396   5.320  0.0207  2.4559  0.5241
 6498TIP3   OH240984   6.320   0.450   4.919  0.0420  0.1814  0.6411
 6498TIP3    H140985   6.225   0.445   4.927  0.0413  0.0937  0.5704
 6498TIP3    H240986   6.345   0.373   4.869 -0.0531  1.2730 -1.1489
 6499TIP3   OH240987   0.113   4.295  12.977 -0.1965 -0.1587  0.3783
 6499TIP3    H140988   0.173   4.342  12.919 -1.9819  1.9416  0.1224
 6499TIP3    H240989   0.105   4.208  12.937  0.0827  0.6203 -1.4713
 6500TIP3   OH240990   5.231   3.149   0.159  0.0847  0.1181 -0.2100
 6500TIP3    H140991   5.213   3.113   0.246  0.8408 -1.2529 -0.5934
 6500TIP3    H240992   5.160   3.117   0.104 -1.2094  2.1779  0.1570
 6501TIP3   OH240993   1.336   0.652  17.052 -0.0328  0.6328 -0.4983
 6501TIP3    H140994   1.256   0.604  17.030  0.2920 -0.1230 -0.0875
 6501TIP3    H240995   1.389   0.589  17.101 -0.1279  1.7993  1.2004
 6502TIP3   OH240996   0.393   3.634   1.320  0.1015 -0.0665 -0.6654
 6502TIP3    H140997   0.399   3.545   1.353  0.3882 -0.6855 -2.3054
 6502TIP3    H240998   0.394   3.689   1.399  0.7400 -1.4561  0.3344
 6503TIP3   OH240999   2.654   3.833   1.732  0.3950  0.3213  0.2718
 6503TIP3    H141000   2.610   3.915   1.708 -0.2175 -0.9102 -3.5752
 6503TIP3    H241001   2.747   3.852   1.722  0.2036  0.2323 -2.2013
 6504TIP3   OH241002   6.662   1.193   5.112  0.0225  0.2701  0.2162
 6504TIP3    H141003   6.677   1.176   5.019  0.8229 -1.3770  0.6076
 6504TIP3    H241004   6.569   1.176   5.125  0.4456 -2.5008  0.2385
 6505TIP3   OH241005   2.792   6.352  13.612  0.1495 -0.4674 -0.1886
 6505TIP3    H141006   2.750   6.399  13.684  0.6095 -2.3771  1.3739
 6505TIP3    H241007   2.800   6.418  13.543 -1.6635  1.0250  0.9333
 6506TIP3   OH241008   0.668   6.119   6.170 -0.0269 -0.1307  0.0808
 6506TIP3    H141009   0.683   6.135   6.077 -0.0829  2.2410  0.4198
 6506TIP3    H241010   0.574   6.136   6.183  0.4336  2.0757  0.9602
 6507TIP3   OH241011   6.521   5.111   1.479 -0.3565 -0.2070 -0.8573
 6507TIP3    H141012   6.517   5.163   1.399 -1.5018 -1.3898 -1.6113
 6507TIP3    H241013   6.614   5.090   1.490 -0.1875 -0.0261 -1.8720
 6508TIP3   OH241014   2.227   0.179   1.661  0.0113  0.1406  0.1103
 6508TIP3    H141015   2.270   0.265   1.670  1.3610 -0.2944 -1.7563
 6508TIP3    H241016   2.150   0.197   1.608 -1.0160  0.5521  1.6712
 6509TIP3   OH241017   3.319   2.787  14.041  0.5418 -0.1164  0.3385
 6509TIP3    H141018   3.396   2.742  14.076 -0.5344 -0.5751  2.2732
 6509TIP3    H241019   3.293   2.848  14.110 -1.6405 -0.9986  0.3934
 6510TIP3   OH241020   3.846   3.937   1.639  0.1133  0.3950 -0.4603
 6510TIP3    H141021   3.911   3.944   1.569  0.0688  1.0758 -0.4454
 6510TIP3    H241022   3.855   4.020   1.687 -0.1699  0.1269  0.0610
 6511TIP3   OH241023   1.712   3.363   0.717 -0.1035  0.1391  0.6420
 6511TIP3    H141024   1.645   3.418   0.677  0.9491  1.5200  0.6899
 6511TIP3    H241025   1.696   3.370   0.811  0.1740  0.5801  0.6601
 6512TIP3   OH241026   6.059   4.013  16.808 -0.2472 -0.1417 -0.0667
 6512TIP3    H141027   6.134   4.072  16.803 -0.3827  0.4912  3.1399
 6512TIP3    H241028   6.098   3.926  16.811  0.5096  0.2016  2.1623
 6513TIP3   OH241029   0.734   6.743   0.914  0.1120  0.2709  0.1670
 6513TIP3    H141030   0.653   6.772   0.956  0.0522 -0.3986  0.5241
 6513TIP3    H241031   0.709   6.668   0.861  0.5751 -0.2123  0.6204
 6514TIP3   OH241032   0.174   0.756  13.781  0.5535  0.5534 -0.2261
 6514TIP3    H141033   0.188   0.776  13.874  0.4196  0.8295 -0.2667
 6514TIP3    H241034   0.158   0.661  13.780  1.0680  0.4597 -0.0243
 6515TIP3   OH241035   6.490   0.011   4.187  0.2525  0.2032 -0.1382
 6515TIP3    H141036   6.462   0.005   4.278  0.3234 -0.1642 -0.1411
 6515TIP3    H241037   6.527  -0.075   4.167 -0.6349 -0.0378 -0.7965
 6516TIP3   OH241038   3.252   0.368   0.969  0.0000 -0.0452  0.1771
 6516TIP3    H141039   3.175   0.339   1.017 -0.3966 -1.1199 -1.0630
 6516TIP3    H241040   3.257   0.310   0.893  0.8350  1.3360 -0.8745
 6517TIP3   OH241041   6.063   4.980  14.692 -0.3090  0.1987  0.0861
 6517TIP3    H141042   6.113   4.971  14.774 -0.5381  0.6318  0.2785
 6517TIP3    H241043   6.091   5.065  14.657 -0.6352  0.2734  0.0044
 6518TIP3   OH241044   0.637   5.595  14.532 -0.1022  0.0057  0.1594
 6518TIP3    H141045   0.562   5.551  14.493  0.6328 -2.1631  1.0407
 6518TIP3    H241046   0.653   5.671  14.475 -1.3449 -0.9417 -1.5324
 6519TIP3   OH241047   3.187   4.547  14.011  0.6870  0.4736  0.6126
 6519TIP3    H141048   3.157   4.532  14.101  0.1144  1.3796  0.5792
 6519TIP3    H241049   3.168   4.465  13.966  0.3212  0.2539  1.1513
 6520TIP3   OH241050   1.515   6.640  14.780 -0.3629  0.5086 -0.1172
 6520TIP3    H141051   1.558   6.560  14.812  0.0612  0.8015  0.0446
 6520TIP3    H241052   1.485   6.685  14.859 -1.3619  0.1043 -0.2397
 6521TIP3   OH241053   0.897   2.529   5.084  0.2714  0.3608 -0.0094
 6521TIP3    H141054   0.901   2.444   5.040  0.6826 -0.2051  1.0614
 6521TIP3    H241055   0.983   2.569   5.068  0.3038  0.2944 -0.0015
 6522TIP3   OH241056   4.752   6.796   3.690  0.6516 -0.2488 -0.6562
 6522TIP3    H141057   4.811   6.865   3.659 -0.1348 -0.5530 -3.0276
 6522TIP3    H241058   4.794   6.715   3.661  0.7408 -0.7037  0.6719
 6523TIP3   OH241059   3.016   5.994  15.753  0.6532  0.5106  0.1161
 6523TIP3    H141060   3.022   6.059  15.823  2.6470 -1.1594  1.6388
 6523TIP3    H241061   2.961   5.925  15.789  1.7179 -0.3773  0.0854
 6524TIP3   OH241062   3.345   0.431  14.923  0.3272 -0.2468  0.0904
 6524TIP3    H141063   3.419   0.371  14.933 -1.5852 -2.4874  2.4753
 6524TIP3    H241064   3.362   0.500  14.987  1.7770  0.9857 -1.5517
 6525TIP3   OH241065   1.260   5.918   3.648 -0.4588  0.2787 -0.5935
 6525TIP3    H141066   1.339   5.947   3.693 -2.0551  1.6357  1.5242
 6525TIP3    H241067   1.238   5.989   3.588 -1.8550  1.5136  1.2809
 6526TIP3   OH241068   3.779   0.837  12.785  0.0671  0.4379  0.1638
 6526TIP3    H141069   3.747   0.904  12.846 -1.0995  1.2538 -1.2612
 6526TIP3    H241070   3.867   0.866  12.762 -0.4588  1.5760 -0.5058
 6527TIP3   OH241071   4.306   6.001   0.664  0.2414 -0.1276 -0.0844
 6527TIP3    H141072   4.267   5.961   0.743  1.0447 -0.2744  0.2418
 6527TIP3    H241073   4.230   6.025   0.611 -0.3070 -3.0127 -0.7847
 6528TIP3   OH241074   4.446   0.041   0.291  0.3153 -0.0743  0.2393
 6528TIP3    H141075   4.420   0.010   0.205 -2.4725 -1.6602  1.5120
 6528TIP3    H241076   4.489   0.125   0.275  0.5670 -0.6733 -2.6997
 6529TIP3   OH241077   1.997   0.485   3.826 -0.0986  0.7631  0.1802
 6529TIP3    H141078   2.043   0.566   3.804  1.1554  0.3915  1.3407
 6529TIP3    H241079   2.041   0.418   3.774 -0.5345  0.6790 -0.0835
 6530TIP3   OH241080   0.114   4.053   5.748 -0.2649 -0.0668 -0.2113
 6530TIP3    H141081   0.074   3.969   5.770  0.3698 -0.2506  0.2602
 6530TIP3    H241082   0.208   4.039   5.759 -0.2417  1.1857  1.5402
 6531TIP3   OH241083   1.738   6.219  12.725 -0.3180 -0.5450  0.0651
 6531TIP3    H141084   1.645   6.241  12.728  0.2716  2.3721  4.2309
 6531TIP3    H241085   1.757   6.183  12.812  2.5171 -0.9572 -0.6385
 6532TIP3   OH241086   0.432   3.901  14.632 -0.7587 -0.2788 -0.0423
 6532TIP3    H141087   0.474   3.979  14.596 -2.5929  0.8950  0.2394
 6532TIP3    H241088   0.500   3.861  14.687  0.1343  1.3191  0.0952
 6533TIP3   OH241089   6.784   3.771   1.059  0.3727 -0.1273 -0.2312
 6533TIP3    H141090   6.865   3.727   1.082  0.8436  0.5316 -0.5879
 6533TIP3    H241091   6.797   3.800   0.969  0.0177  0.5771 -0.0666
 6534TIP3   OH241092   1.727   4.658   1.047 -0.2602  0.3344 -0.0055
 6534TIP3    H141093   1.767   4.625   0.967  2.2396  2.6937  0.1153
 6534TIP3    H241094   1.634   4.665   1.027  0.2018  0.2004 -2.4477
 6535TIP3   OH241095   3.996   1.884   2.776 -0.6245 -0.0900  0.4914
 6535TIP3    H141096   3.910   1.844   2.764  0.0716 -1.3326 -0.5625
 6535TIP3    H241097   4.010   1.882   2.871 -0.5997 -2.5109  0.5099
 6536TIP3   OH241098   3.666   2.809   1.915  0.0102  0.0240  0.1703
 6536TIP3    H141099   3.645   2.833   2.006  1.3519  1.2112  0.1953
 6536TIP3    H241100   3.758   2.782   1.918 -0.6565 -2.5306 -0.3898
 6537TIP3   OH241101   6.112   6.133   5.037 -0.7352 -0.0799 -0.0863
 6537TIP3    H141102   6.176   6.166   4.975  0.0218 -0.1918  0.6177
 6537TIP3    H241103   6.028   6.161   5.002 -0.1461  2.8343  0.6004
 6538TIP3   OH241104   5.884   0.527  17.073  0.1005 -0.4136  0.4092
 6538TIP3    H141105   5.864   0.458  17.009 -0.7227 -0.5136  0.7672
 6538TIP3    H241106   5.931   0.482  17.143  1.6811 -0.1787 -0.4280
 6539TIP3   OH241107   5.209   6.175   4.677 -0.3863  0.0739  0.4703
 6539TIP3    H141108   5.157   6.250   4.650 -2.5906 -2.1306 -2.0892
 6539TIP3    H241109   5.177   6.155   4.766 -0.4069  1.5601  0.8289
 6540TIP3   OH241110   2.922   0.159  14.867 -0.4712 -0.5652 -0.3450
 6540TIP3    H141111   2.863   0.207  14.926 -0.8008 -0.7257 -0.5399
 6540TIP3    H241112   2.959   0.090  14.921 -1.3397 -1.1719 -0.5070
 6541TIP3   OH241113   0.043   1.600  13.551 -0.1262  0.3503  0.0655
 6541TIP3    H141114   0.089   1.680  13.577  0.7683 -0.5527  1.3819
 6541TIP3    H241115   0.032   1.552  13.633  1.3715 -1.9152 -0.9820
 6542TIP3   OH241116   2.800   5.712   1.742 -0.0374 -0.4677 -0.0613
 6542TIP3    H141117   2.869   5.674   1.688  1.4773  0.2737  1.2731
 6542TIP3    H241118   2.843   5.783   1.790 -1.2953 -1.0936  2.1267
 6543TIP3   OH241119   0.230   5.794  13.788 -0.3774 -0.0026 -0.0102
 6543TIP3    H141120   0.232   5.743  13.707 -3.5089 -0.0454 -0.1895
 6543TIP3    H241121   0.172   5.868  13.769  1.7850  2.1071  1.1241
 6544TIP3   OH241122   4.525   4.539   2.159 -0.2476  0.1412  0.6722
 6544TIP3    H141123   4.573   4.525   2.241  1.5839  3.7603  0.4397
 6544TIP3    H241124   4.568   4.481   2.096  1.4307  0.6080  1.3192
 6545TIP3   OH241125   1.814   1.528  12.371  0.3331 -0.1134  0.6110
 6545TIP3    H141126   1.778   1.441  12.389 -0.3509 -0.3774 -1.7465
 6545TIP3    H241127   1.909   1.515  12.374  0.2358 -0.8961  0.5333
 6546TIP3   OH241128   5.724   2.612  10.751 -0.2583 -0.5945  0.0301
 6546TIP3    H141129   5.798   2.647  10.801  1.3473 -1.9038 -1.2949
 6546TIP3    H241130   5.705   2.527  10.792  0.2873 -1.1361 -0.8118
 6547TIP3   OH241131   4.899   3.595   5.259  0.3573 -0.1411 -0.1751
 6547TIP3    H141132   4.899   3.691   5.269 -1.1786  0.0101 -1.1667
 6547TIP3    H241133   4.856   3.563   5.338  1.9498 -0.1273  0.7280
 6548TIP3   OH241134   5.147   1.406   1.856  0.6367  0.2176 -0.3785
 6548TIP3    H141135   5.126   1.321   1.816  0.0178  1.0123 -1.8183
 6548TIP3    H241136   5.068   1.431   1.903  1.1535 -0.4261  0.8897
 6549TIP3   OH241137   3.708   1.566  12.731 -0.2714  0.2762  0.2842
 6549TIP3    H141138   3.670   1.635  12.676 -0.9836 -1.4392 -1.4868
 6549TIP3    H241139   3.759   1.513  12.670 -0.8318 -1.5224  1.3150
 6550TIP3   OH241140   0.046   3.138  16.663 -0.2443  0.3683 -0.4618
 6550TIP3    H141141  -0.011   3.205  16.626 -0.5081  0.4911  0.1438
 6550TIP3    H241142   0.082   3.179  16.742 -0.5743 -0.2705  0.0315
 6551TIP3   OH241143   3.381   0.428  17.086 -0.6256 -0.0517 -0.2153
 6551TIP3    H141144   3.444   0.499  17.095  0.2533 -0.9507  1.1379
 6551TIP3    H241145   3.320   0.440  17.159  0.4584 -1.5274  1.0038
 6552TIP3   OH241146   6.658   5.075   2.600  0.1779 -0.4660 -0.0876
 6552TIP3    H141147   6.732   5.058   2.659  0.0802  0.3590  0.2903
 6552TIP3    H241148   6.692   5.140   2.537  0.0890 -0.8657 -0.5545
 6553TIP3   OH241149   2.793   3.994  11.608  0.1752 -0.0011  0.1026
 6553TIP3    H141150   2.795   3.990  11.513  0.2839  0.1851  0.0984
 6553TIP3    H241151   2.808   4.086  11.630  1.2022 -0.2099  0.3275
 6554TIP3   OH241152   3.439   3.611  16.560 -0.2723 -0.6696  0.1355
 6554TIP3    H141153   3.440   3.617  16.655  1.3010  2.2762  0.0323
 6554TIP3    H241154   3.356   3.651  16.533  0.2892  0.6189  0.2439
 6555TIP3   OH241155   4.155   0.936   0.897 -0.0743  0.3945 -0.2910
 6555TIP3    H141156   4.145   0.842   0.910  0.1060  0.5888  1.4168
 6555TIP3    H241157   4.072   0.974   0.923 -0.7420  0.6366 -2.5148
 6556TIP3   OH241158   3.167   0.401   4.766 -0.5748 -0.3326  0.2716
 6556TIP3    H141159   3.201   0.358   4.688 -2.9209  1.0897 -1.6875
 6556TIP3    H241160   3.168   0.494   4.744  0.8045  0.3724  2.8864
 6557TIP3   OH241161   4.992   2.729   0.103  0.6755 -0.6733 -0.2864
 6557TIP3    H141162   4.942   2.660   0.146  0.6843 -1.4589 -1.4907
 6557TIP3    H241163   5.082   2.717   0.133  1.0675 -2.4969 -2.0101
 6558TIP3   OH241164   4.940   2.736   2.910 -0.1686  0.4827 -0.1712
 6558TIP3    H141165   4.917   2.646   2.932 -2.1330  1.4858  2.2763
 6558TIP3    H241166   4.915   2.745   2.818 -0.6257 -1.2361 -0.2550
 6559TIP3   OH241167   4.313   4.372   1.995  0.1907  0.5097 -0.6615
 6559TIP3    H141168   4.280   4.445   2.047  0.8505  1.4868 -1.5570
 6559TIP3    H241169   4.277   4.386   1.908 -0.2711 -0.6637 -0.6779
 6560TIP3   OH241170   2.360   0.828   0.875 -0.2334  0.2465 -0.2230
 6560TIP3    H141171   2.301   0.755   0.891 -1.7870  1.1684 -1.4598
 6560TIP3    H241172   2.330   0.897   0.935 -0.6243  0.8278 -1.0765
 6561TIP3   OH241173   0.713   4.842   1.776  1.1465  0.3022  0.3489
 6561TIP3    H141174   0.751   4.892   1.848  1.7130  2.3038 -1.2677
 6561TIP3    H241175   0.709   4.752   1.809 -0.4554  1.4040  3.5845
 6562TIP3   OH241176   4.443   2.085   2.285 -0.5697  0.5187 -0.2032
 6562TIP3    H141177   4.414   2.171   2.254  0.6280  1.3502  0.8834
 6562TIP3    H241178   4.386   2.066   2.360 -1.8042 -0.3524 -1.3017
 6563TIP3   OH241179   2.995   3.267   2.550  0.7697 -0.2785 -0.7651
 6563TIP3    H141180   2.941   3.346   2.544  1.8151  0.6392  0.9063
 6563TIP3    H241181   2.995   3.231   2.462 -2.9973 -0.6639 -0.7791
 6564TIP3   OH241182   6.624   3.107   6.093 -0.0369 -0.6796 -0.5743
 6564TIP3    H141183   6.553   3.070   6.145 -0.0533  1.0833  0.7616
 6564TIP3    H241184   6.649   3.038   6.032 -0.6398 -2.4958  1.1640
 6565TIP3   OH241185   2.673   6.032  11.497  0.1615 -0.6219  0.1527
 6565TIP3    H141186   2.674   6.121  11.532 -0.4170 -0.8429  0.7427
 6565TIP3    H241187   2.755   5.993  11.528 -1.3114 -1.5544  3.2845
 6566TIP3   OH241188   3.306   2.462   6.657  0.5832  0.2796 -0.4022
 6566TIP3    H141189   3.253   2.536   6.629  3.3309  1.7336 -2.2517
 6566TIP3    H241190   3.313   2.472   6.752 -0.4644  1.4198 -0.4186
 6567TIP3   OH241191   6.223   4.649   2.988 -0.0686  0.6375 -0.4700
 6567TIP3    H141192   6.238   4.742   2.970  0.8182  0.1990 -2.1804
 6567TIP3    H241193   6.310   4.614   3.009 -0.5688  0.4037  1.3995
 6568TIP3   OH241194   1.173   2.079  11.278  0.1606 -0.1986 -0.3739
 6568TIP3    H141195   1.101   2.141  11.289 -0.2277 -0.1758 -2.6385
 6568TIP3    H241196   1.146   2.003  11.329 -2.0868 -0.6421 -2.0534
 6569TIP3   OH241197   0.635   2.680  14.943 -0.2101 -0.5709  0.7177
 6569TIP3    H141198   0.645   2.765  14.986 -1.3821  0.0491 -0.1902
 6569TIP3    H241199   0.571   2.633  14.996  0.0388 -0.7002  0.9117
 6570TIP3   OH241200   1.551   2.638   3.962 -0.5230 -0.0505 -0.1596
 6570TIP3    H141201   1.621   2.662   3.902  1.2354 -1.0933  1.3697
 6570TIP3    H241202   1.520   2.721   3.998  1.7680  0.3359  1.0672
 6571TIP3   OH241203   2.694   3.655   3.391  0.3006  0.0116  0.1631
 6571TIP3    H141204   2.788   3.661   3.374 -0.0171  0.8870 -1.4975
 6571TIP3    H241205   2.653   3.696   3.315 -1.4555 -0.8511  0.5855
 6572TIP3   OH241206   4.896   6.640   2.470  0.1159 -0.0740  0.6694
 6572TIP3    H141207   4.844   6.560   2.479  0.7332 -0.2944  3.4292
 6572TIP3    H241208   4.948   6.626   2.391 -1.4459 -1.3613 -0.1904
 6573TIP3   OH241209   4.771   6.647  13.047 -0.7246 -0.1964  0.3451
 6573TIP3    H141210   4.726   6.665  13.130 -0.1122 -1.5560  1.0052
 6573TIP3    H241211   4.858   6.618  13.073 -0.0897  0.5665 -0.8490
 6574TIP3   OH241212   1.235   3.074   6.264  0.7810 -0.1152 -0.1353
 6574TIP3    H141213   1.237   3.160   6.307 -1.2450 -0.0966  0.0503
 6574TIP3    H241214   1.238   3.011   6.337  1.0241 -0.1631 -0.1885
 6575TIP3   OH241215   1.157   0.357  17.185  0.2832  0.2828 -1.1902
 6575TIP3    H141216   1.120   0.427  17.131 -1.1275  0.2080 -0.3630
 6575TIP3    H241217   1.204   0.403  17.254 -0.9290  0.4524 -0.4497
 6576TIP3   OH241218   5.258   6.373   2.194 -0.3257  0.1386  0.4710
 6576TIP3    H141219   5.247   6.359   2.100 -0.2235 -0.9658  0.6056
 6576TIP3    H241220   5.353   6.376   2.207 -0.3457  0.7239  0.4821
 6577TIP3   OH241221   3.622   0.822  16.593 -0.3975 -0.6136  0.1911
 6577TIP3    H141222   3.577   0.854  16.515 -1.8732 -1.6118  0.5985
 6577TIP3    H241223   3.693   0.768  16.559  0.8158  1.2718 -0.4610
 6578TIP3   OH241224   3.434   5.363  13.961 -0.0771  0.2054 -0.2531
 6578TIP3    H141225   3.341   5.368  13.940 -0.2448 -1.4068 -0.0316
 6578TIP3    H241226   3.440   5.296  14.029  1.3816 -0.6665 -1.1984
 6579TIP3   OH241227   1.441   4.746   1.019  0.4767 -0.2743  0.4646
 6579TIP3    H141228   1.389   4.705   0.950  1.8683 -0.1396 -0.7056
 6579TIP3    H241229   1.376   4.785   1.078 -0.7658  1.1784 -1.7181
 6580TIP3   OH241230   2.651   1.184   1.031  0.3590 -0.0269 -0.3975
 6580TIP3    H141231   2.561   1.172   1.060  0.6544 -1.0510  0.1024
 6580TIP3    H241232   2.643   1.214   0.940 -0.4667 -1.3554 -0.7783
 6581TIP3   OH241233   5.027   3.299   1.478  0.0088  0.9414 -0.0307
 6581TIP3    H141234   4.955   3.236   1.472  0.7018  0.1889 -0.7066
 6581TIP3    H241235   4.988   3.381   1.449 -0.9800  0.9187  1.1044
 6582TIP3   OH241236   1.064   6.115  14.516  0.3575  0.7473  0.1239
 6582TIP3    H141237   1.118   6.166  14.576  0.7078 -1.8044  2.1415
 6582TIP3    H241238   1.113   6.035  14.501 -1.9955 -0.8971  0.6005
 6583TIP3   OH241239   0.005   1.808  14.745  0.5470 -0.5392 -0.5757
 6583TIP3    H141240   0.035   1.873  14.808  0.1640 -0.8334 -0.0839
 6583TIP3    H241241   0.067   1.816  14.672  1.3169 -0.5546  0.0543
 6584TIP3   OH241242   1.116   2.444  16.301  0.1850  0.0320  0.2755
 6584TIP3    H141243   1.094   2.351  16.291 -1.1604  0.4539 -1.1102
 6584TIP3    H241244   1.211   2.448  16.292  0.4690 -1.3909  2.1068
 6585TIP3   OH241245   4.102   1.916   2.014 -0.3471 -0.5408  0.3686
 6585TIP3    H141246   4.028   1.941   2.070 -0.2650 -1.3149  0.8369
 6585TIP3    H241247   4.062   1.877   1.936 -0.4891  1.3041 -0.5336
 6586TIP3   OH241248   5.702   1.733   5.741  0.0893 -0.0961  0.3469
 6586TIP3    H141249   5.646   1.748   5.817  1.1206  1.0473  0.9151
 6586TIP3    H241250   5.773   1.796   5.750  0.0212  0.3827 -1.7994
 6587TIP3   OH241251   3.708   1.788   4.025 -0.4935  0.0380  0.4010
 6587TIP3    H141252   3.786   1.843   4.016 -0.9520  0.4793 -1.1366
 6587TIP3    H241253   3.742   1.700   4.043  0.2559  0.7173  2.6158
 6588TIP3   OH241254   1.605   5.722   1.953  0.4514 -0.1457 -0.1037
 6588TIP3    H141255   1.625   5.815   1.957  0.4449 -0.0473 -1.8905
 6588TIP3    H241256   1.678   5.680   1.998  0.6649  0.6881  0.3485
 6589TIP3   OH241257   2.500   4.740   6.006 -0.4043  0.3160  0.1369
 6589TIP3    H141258   2.421   4.720   6.055  0.2824  0.9443  1.5614
 6589TIP3    H241259   2.562   4.671   6.030 -0.5870 -0.3764 -1.2390
 6590TIP3   OH241260   6.696   1.676  16.929  0.4131 -0.8144  0.2085
 6590TIP3    H141261   6.732   1.588  16.928 -0.5855 -1.2328 -0.6157
 6590TIP3    H241262   6.730   1.717  16.850  0.4239 -0.6402  0.3021
 6591TIP3   OH241263   2.537   3.676   0.673 -0.1969 -0.0173  0.2988
 6591TIP3    H141264   2.565   3.666   0.582  1.6609 -0.0176  0.8151
 6591TIP3    H241265   2.442   3.669   0.671 -0.1107 -1.0945 -1.4949
 6592TIP3   OH241266   3.894   5.174  11.510 -0.1930 -0.0559 -1.0134
 6592TIP3    H141267   3.903   5.269  11.503 -1.2223 -0.0678 -3.2768
 6592TIP3    H241268   3.951   5.139  11.441  0.4890 -1.1361  0.0442
 6593TIP3   OH241269   1.670   6.638   5.466  0.1021  0.5079  0.4635
 6593TIP3    H141270   1.590   6.688   5.452 -0.1393  0.0966  0.3756
 6593TIP3    H241271   1.669   6.614   5.559 -1.3559 -1.9986 -0.1089
 6594TIP3   OH241272   4.350   2.248   0.126  0.0994  0.1020 -0.2251
 6594TIP3    H141273   4.313   2.197   0.198  0.0619  1.3721  0.6751
 6594TIP3    H241274   4.295   2.226   0.050  2.6755 -4.6757 -1.1220
 6595TIP3   OH241275   5.348   2.600   3.076  0.3940 -0.1116 -0.1943
 6595TIP3    H141276   5.427   2.628   3.121 -0.3303  0.0842  1.0051
 6595TIP3    H241277   5.281   2.663   3.103 -0.3875 -0.8178 -0.4262
 6596TIP3   OH241278   5.045   4.628  15.986  0.2815  0.0362  0.3206
 6596TIP3    H141279   5.045   4.603  15.894  0.2217  0.6544  0.1466
 6596TIP3    H241280   5.016   4.550  16.033  1.1261 -0.5397 -0.1083
 6597TIP3   OH241281   4.177   1.191  15.850 -0.1490 -0.2772  0.0750
 6597TIP3    H141282   4.159   1.119  15.790 -1.8613  0.7735 -0.7804
 6597TIP3    H241283   4.113   1.180  15.920 -0.3791  0.3389 -0.0307
 6598TIP3   OH241284   2.699   3.284   2.902 -0.0929 -0.2579 -0.1115
 6598TIP3    H141285   2.694   3.243   2.988 -2.4616 -0.2226 -0.1593
 6598TIP3    H241286   2.612   3.271   2.864  0.3367  1.2775 -1.7849
 6599TIP3   OH241287   1.117   3.257   4.934 -0.1153 -0.3330 -0.4016
 6599TIP3    H141288   1.033   3.281   4.972 -1.0880 -1.9650 -1.4168
 6599TIP3    H241289   1.122   3.162   4.943  1.7365 -0.2510 -0.1646
 6600TIP3   OH241290   3.523   6.534   4.428 -0.0461  0.4468 -0.3290
 6600TIP3    H141291   3.465   6.538   4.352  0.5236  0.5715 -0.7653
 6600TIP3    H241292   3.541   6.626   4.449 -2.1033  0.5430  1.4698
 6601TIP3   OH241293   1.017   0.344  11.369  0.7605 -0.0158  0.2029
 6601TIP3    H141294   1.006   0.434  11.340 -0.9651 -1.1503 -3.1948
 6601TIP3    H241295   0.929   0.317  11.395  1.4304 -0.5048  2.1040
 6602TIP3   OH241296   1.991   2.055   5.602 -0.1521 -0.4196 -0.6955
 6602TIP3    H141297   1.900   2.068   5.575  0.5841 -0.6791 -3.5557
 6602TIP3    H241298   2.042   2.108   5.541  1.6403  0.2854  1.2862
 6603TIP3   OH241299   6.082   3.507   2.099  0.4235  0.6236 -0.1719
 6603TIP3    H141300   6.084   3.412   2.086  3.3305  0.8546 -2.4508
 6603TIP3    H241301   6.021   3.520   2.172  0.0645 -2.9623  0.3527
 6604TIP3   OH241302   2.891   0.175  11.618  0.1054  0.3288  0.3169
 6604TIP3    H141303   2.913   0.087  11.651  1.7048  0.7424  0.4119
 6604TIP3    H241304   2.796   0.171  11.603 -0.0155 -1.1157  1.2112
 6605TIP3   OH241305   1.734   6.573   3.564 -0.0654  0.6124  0.4442
 6605TIP3    H141306   1.731   6.508   3.634  0.6469  0.1187  0.0194
 6605TIP3    H241307   1.690   6.650   3.601  2.3194  1.2125  2.3309
 6606TIP3   OH241308   1.565   3.686   5.432  0.2733 -0.1820  0.3897
 6606TIP3    H141309   1.628   3.747   5.470  1.0255 -2.8338  3.9600
 6606TIP3    H241310   1.519   3.649   5.507 -1.3325 -2.7167 -1.6661
 6607TIP3   OH241311   3.448   5.578  15.294 -0.4263 -0.2382 -0.2103
 6607TIP3    H141312   3.367   5.606  15.335  0.0278 -1.5811  1.7199
 6607TIP3    H241313   3.454   5.484  15.313  1.6372 -0.1524 -0.1558
 6608TIP3   OH241314   2.852   1.027   1.182 -0.3957  0.8484 -0.0026
 6608TIP3    H141315   2.848   0.950   1.125 -1.3409 -0.4190  1.6834
 6608TIP3    H241316   2.796   1.091   1.139 -0.1294  0.3817 -1.0963
 6609TIP3   OH241317   3.859   4.013  13.989 -0.5358 -0.0398  0.7672
 6609TIP3    H141318   3.771   4.050  13.999 -0.6363 -0.1966  0.4997
 6609TIP3    H241319   3.887   4.043  13.902 -0.1831  0.2984  0.9970
 6610TIP3   OH241320   4.855   3.010  13.599  0.1121  0.0594 -0.5630
 6610TIP3    H141321   4.943   3.016  13.560 -0.6272  2.2692 -2.0426
 6610TIP3    H241322   4.800   3.064  13.543 -2.7071 -2.8545 -0.8840
 6611TIP3   OH241323   1.133   6.632   5.675  0.4672  0.2562  0.6118
 6611TIP3    H141324   1.172   6.572   5.611  0.7029  1.4075 -0.3724
 6611TIP3    H241325   1.062   6.675   5.626  0.0616  0.5030  1.4047
 6612TIP3   OH241326   3.516   2.415   0.702 -0.2159 -0.0100 -0.3536
 6612TIP3    H141327   3.484   2.430   0.613  2.4577 -0.2124 -1.4249
 6612TIP3    H241328   3.568   2.493   0.722  3.1459 -1.9145 -0.9346
 6613TIP3   OH241329   5.138   4.042   4.503  0.0758 -0.5113 -0.2520
 6613TIP3    H141330   5.060   4.087   4.535  1.6778  1.3139  1.3522
 6613TIP3    H241331   5.126   4.037   4.408 -1.4384  0.8194 -0.1746
 6614TIP3   OH241332   1.914   3.156  12.647  0.2896  0.1266 -0.3573
 6614TIP3    H141333   1.967   3.181  12.722  0.7600 -0.0678 -0.6229
 6614TIP3    H241334   1.843   3.220  12.646  0.6214  0.5034 -0.1135
 6615TIP3   OH241335   2.641   4.885  12.617 -0.2240  0.1234  0.0864
 6615TIP3    H141336   2.583   4.810  12.631  0.0647 -0.0394  0.4221
 6615TIP3    H241337   2.582   4.957  12.594 -0.4756 -0.2773 -0.5193
 6616TIP3   OH241338   5.619   2.576  13.728 -0.2594 -0.1631 -0.0999
 6616TIP3    H141339   5.581   2.551  13.812 -0.0830 -1.4369 -0.3674
 6616TIP3    H241340   5.604   2.670  13.721  1.2990  0.3347  2.1772
 6617TIP3   OH241341   1.989   6.488  16.602 -0.5738  0.3496 -0.6951
 6617TIP3    H141342   1.998   6.565  16.545  5.2875  0.5991 -0.0486
 6617TIP3    H241343   2.015   6.519  16.689  0.3836 -1.9336 -0.0810
 6618TIP3   OH241344   6.630   3.734   6.044 -0.3879  0.0955 -0.0774
 6618TIP3    H141345   6.689   3.665   6.012 -0.8345 -0.0021 -0.7239
 6618TIP3    H241346   6.650   3.742   6.137  1.4485  0.8667 -0.4986
 6619TIP3   OH241347   1.638   5.587  12.030  0.1642  0.4397  0.6427
 6619TIP3    H141348   1.649   5.622  11.942 -1.1805  1.1864  0.7440
 6619TIP3    H241349   1.553   5.544  12.028  0.8265 -0.9571  1.1479
 6620TIP3   OH241350   2.258   3.243   1.686 -0.0511  0.0701 -0.3170
 6620TIP3    H141351   2.271   3.150   1.666 -2.9444 -0.6404  0.5084
 6620TIP3    H241352   2.304   3.257   1.768 -1.2263 -1.2191  0.6091
 6621TIP3   OH241353   6.608   1.286  13.244  0.2087  0.7146  0.4240
 6621TIP3    H141354   6.636   1.236  13.167  0.6997 -0.6050  1.4154
 6621TIP3    H241355   6.623   1.378  13.220  3.0709  0.2287 -0.0671
 6622TIP3   OH241356   1.895   6.272   5.314 -0.3079 -0.0221  0.4426
 6622TIP3    H141357   1.889   6.342   5.249 -1.5286  0.0988  0.6558
 6622TIP3    H241358   1.915   6.318   5.396  3.2268 -0.3353 -0.0901
 6623TIP3   OH241359   3.974   3.571  14.679 -0.1229  0.3377  0.2161
 6623TIP3    H141360   3.970   3.572  14.584 -1.2775 -0.0709  0.2417
 6623TIP3    H241361   4.021   3.491  14.702 -0.0923  0.2954  0.0005
 6624TIP3   OH241362   6.337   0.390  13.258  0.3355 -0.5636 -0.1268
 6624TIP3    H141363   6.427   0.401  13.226  0.0593 -1.0356 -1.0760
 6624TIP3    H241364   6.290   0.349  13.186 -0.1778 -2.1617  1.0793
 6625TIP3   OH241365   5.335   4.146  15.250  0.0581  0.4750 -0.0703
 6625TIP3    H141366   5.312   4.067  15.201 -0.2382  0.5003  0.0253
 6625TIP3    H241367   5.406   4.118  15.309  0.1871  0.3638 -0.2755
 6626TIP3   OH241368   5.623   0.878  13.511 -0.3449  0.2377  0.2109
 6626TIP3    H141369   5.577   0.799  13.540  0.8266 -0.2923  0.7008
 6626TIP3    H241370   5.615   0.877  13.416 -1.3357  0.1674  0.2863
 6627TIP3   OH241371   6.656   6.446   1.114  0.3173 -0.0807 -0.1987
 6627TIP3    H141372   6.695   6.365   1.080  1.6289  0.7340 -0.6619
 6627TIP3    H241373   6.599   6.416   1.185  1.4966 -1.3330  0.2569
 6628TIP3   OH241374   6.220   4.818  14.535  0.2771 -0.1638 -0.0861
 6628TIP3    H141375   6.152   4.869  14.578 -1.0638  0.3903 -2.6725
 6628TIP3    H241376   6.174   4.765  14.470  2.3052  0.9572 -2.6288
 6629TIP3   OH241377   3.449   4.171   2.256 -0.1839 -0.0449  0.3325
 6629TIP3    H141378   3.370   4.125   2.285 -0.7680  0.2739 -0.6959
 6629TIP3    H241379   3.508   4.167   2.331 -1.4742  0.4047  1.4265
 6630TIP3   OH241380   0.165   5.595   1.183  0.5211 -0.3589 -0.1610
 6630TIP3    H141381   0.141   5.670   1.129 -0.4648 -0.4467  0.1171
 6630TIP3    H241382   0.234   5.628   1.240 -1.7081  1.2501  1.8641
 6631TIP3   OH241383   6.784   4.422   4.070  0.2320  0.3927  0.2105
 6631TIP3    H141384   6.835   4.465   4.139 -2.3929 -0.6356  3.0203
 6631TIP3    H241385   6.829   4.338   4.057  0.8761  0.6788  0.5039
 6632TIP3   OH241386   4.968   4.080  13.761  0.1863 -0.0581 -0.2950
 6632TIP3    H141387   4.877   4.103  13.781  0.9151  3.3889 -0.3074
 6632TIP3    H241388   4.970   4.072  13.666 -0.3378 -1.5345 -0.1997
 6633TIP3   OH241389   2.001   4.639  11.603  0.9484 -0.1931  0.0380
 6633TIP3    H141390   2.075   4.676  11.650  1.3012 -0.5167 -0.2597
 6633TIP3    H241391   1.937   4.618  11.671  1.2836 -0.2693  0.3294
 6634TIP3   OH241392   3.268   0.269   5.397 -0.9541 -0.4224 -0.2738
 6634TIP3    H141393   3.238   0.351   5.436 -0.0905  0.7176 -1.8737
 6634TIP3    H241394   3.191   0.213   5.396 -2.0567  1.0231 -0.7523
 6635TIP3   OH241395   5.393   0.063  13.825  0.3447  0.6333 -0.5786
 6635TIP3    H141396   5.310   0.027  13.857  1.2110 -1.4894 -0.5816
 6635TIP3    H241397   5.444   0.081  13.904  1.6196 -2.4901 -0.5833
 6636TIP3   OH241398   5.656   0.766   1.506  0.2142 -0.0145 -0.0996
 6636TIP3    H141399   5.736   0.713   1.510  0.4696  0.1579 -2.0005
 6636TIP3    H241400   5.637   0.786   1.597  1.9932 -0.5702  0.4515
 6637TIP3   OH241401   5.092   6.063  11.437 -0.3243 -0.3027 -0.2533
 6637TIP3    H141402   5.149   6.133  11.404 -0.0836 -0.6842 -0.6541
 6637TIP3    H241403   5.097   6.071  11.532 -2.3848  1.9327 -0.2220
 6638TIP3   OH241404   0.796   5.350   4.992  0.7024  0.1877 -0.0567
 6638TIP3    H141405   0.877   5.402   4.992  0.8917 -0.1093 -0.5158
 6638TIP3    H241406   0.732   5.407   5.035  1.1028  0.5015  0.1339
 6639TIP3   OH241407   1.406   1.609  13.353 -0.1963 -0.4115 -0.6821
 6639TIP3    H141408   1.427   1.702  13.365 -0.5138 -0.3041 -0.9425
 6639TIP3    H241409   1.436   1.567  13.434 -2.4922  0.3272  0.6525
 6640TIP3   OH241410   4.446   2.974  16.123  0.0453  0.8243 -0.7215
 6640TIP3    H141411   4.411   3.023  16.048  1.8177  0.5371 -1.8033
 6640TIP3    H241412   4.525   3.021  16.147 -1.0834  1.5845  1.8015
 6641TIP3   OH241413   3.263   0.539   3.358  1.0415 -0.3894  0.0296
 6641TIP3    H141414   3.190   0.588   3.320  0.9180 -0.8806 -0.3669
 6641TIP3    H241415   3.270   0.574   3.447  0.5104 -0.1308 -0.0213
 6642TIP3   OH241416   6.252   0.591  13.891 -0.2850 -0.4191 -0.3445
 6642TIP3    H141417   6.263   0.615  13.798 -0.2641  1.5355  0.1032
 6642TIP3    H241418   6.330   0.627  13.934 -1.5482  1.0943  0.8010
 6643TIP3   OH241419   2.001   5.126   3.785 -0.2462  0.1427  1.0843
 6643TIP3    H141420   2.030   5.036   3.802  1.6946 -0.3211 -3.3595
 6643TIP3    H241421   1.960   5.123   3.698 -0.1232  3.5664  0.7498
 6644TIP3   OH241422   4.813   5.682   0.131 -0.5790  0.3313 -0.2034
 6644TIP3    H141423   4.754   5.743   0.087 -1.4598 -1.6322 -1.8599
 6644TIP3    H241424   4.761   5.644   0.202 -0.9659 -0.5506 -0.9449
 6645TIP3   OH241425   3.683   0.162  13.844  0.0747  0.0017 -0.4541
 6645TIP3    H141426   3.770   0.203  13.843  0.6288 -0.9944  1.3023
 6645TIP3    H241427   3.656   0.166  13.936 -1.4259 -0.3715 -0.8483
 6646TIP3   OH241428   5.620   0.865   2.619  0.0067 -0.0286  0.2843
 6646TIP3    H141429   5.587   0.867   2.709  0.8462  1.1504  0.5904
 6646TIP3    H241430   5.697   0.807   2.624  0.7097  0.8922  0.5962
 6647TIP3   OH241431   2.488   1.587   3.255  0.0190 -0.1316  0.2894
 6647TIP3    H141432   2.560   1.525   3.258  0.0733 -0.4455 -3.4501
 6647TIP3    H241433   2.531   1.673   3.250 -0.0055  0.0142  2.0433
 6648TIP3   OH241434   1.671   2.559  15.387 -0.3350  0.1630  0.1930
 6648TIP3    H141435   1.644   2.605  15.467  1.0537  0.0883  0.7397
 6648TIP3    H241436   1.599   2.500  15.368 -1.2934  1.1638  0.6059
 6649TIP3   OH241437   3.214   5.592   1.043  0.2013 -0.1064  0.0874
 6649TIP3    H141438   3.134   5.566   1.087 -0.1993 -0.6593 -0.9410
 6649TIP3    H241439   3.207   5.554   0.956  0.8534  1.1851 -0.5545
 6650TIP3   OH241440   4.497   4.795  11.184  0.4112  0.0225  0.2222
 6650TIP3    H141441   4.557   4.817  11.254 -0.7964  0.6937  1.0911
 6650TIP3    H241442   4.446   4.721  11.219  0.7323 -0.5590 -0.5078
 6651TIP3   OH241443   5.292   6.039  14.625 -0.0525  0.0460 -0.3320
 6651TIP3    H141444   5.282   5.953  14.586 -0.7933 -0.9173  1.8248
 6651TIP3    H241445   5.207   6.081  14.612 -0.4993 -0.5027  0.6951
 6652TIP3   OH241446   4.734   4.515  14.385 -0.1856  0.3284  0.0603
 6652TIP3    H141447   4.777   4.432  14.408 -0.4111 -0.1392 -1.1535
 6652TIP3    H241448   4.688   4.541  14.465 -0.5734 -1.0121  0.2965
 6653TIP3   OH241449   4.798   0.453  16.000  0.2232 -1.1360 -0.3235
 6653TIP3    H141450   4.730   0.453  15.934 -0.7853  0.2161  0.6498
 6653TIP3    H241451   4.852   0.377  15.980 -0.7482 -1.4292 -1.9570
 6654TIP3   OH241452   5.121   1.132   5.392  0.0176 -0.3308 -0.7194
 6654TIP3    H141453   5.188   1.197   5.369 -1.2263  0.7005 -1.6026
 6654TIP3    H241454   5.038   1.178   5.378 -0.8940 -1.1086  1.6836
 6655TIP3   OH241455   3.918   0.560   0.768  0.2747 -0.0111  0.0144
 6655TIP3    H141456   3.994   0.502   0.766  1.3190  1.3144 -0.4235
 6655TIP3    H241457   3.953   0.645   0.741 -1.5894  0.3831 -1.3165
 6656TIP3   OH241458   2.359   4.142  13.570  0.0186  0.5560  0.2644
 6656TIP3    H141459   2.379   4.132  13.663  0.1219 -0.4549  0.1496
 6656TIP3    H241460   2.279   4.194  13.568 -0.3634  0.0070  0.9514
 6657TIP3   OH241461   5.804   4.097  16.868  0.0942 -0.3441  0.0523
 6657TIP3    H141462   5.878   4.065  16.816 -1.2810  0.2288 -2.4176
 6657TIP3    H241463   5.828   4.186  16.892  0.1171 -0.0494 -1.0144
 6658TIP3   OH241464   5.389   6.015  14.074  0.1664 -0.0278 -0.2286
 6658TIP3    H141465   5.323   6.079  14.049  0.2761 -0.6251 -2.2196
 6658TIP3    H241466   5.353   5.931  14.045  1.1514 -0.5423 -0.0017
 6659TIP3   OH241467   4.155   6.651   1.583  0.4191  0.0097 -0.2142
 6659TIP3    H141468   4.222   6.586   1.604 -0.1039 -0.3684  0.2871
 6659TIP3    H241469   4.109   6.615   1.507  0.1721 -0.1697  0.0227
 6660TIP3   OH241470   3.839   3.776  11.359 -0.1875  0.2209  0.1706
 6660TIP3    H141471   3.812   3.750  11.272  0.9808 -0.4976  0.0027
 6660TIP3    H241472   3.757   3.783  11.409 -0.8613  0.5962 -0.9476
 6661TIP3   OH241473   6.140   1.472  17.082 -0.3762 -0.7856  0.6434
 6661TIP3    H141474   6.125   1.377  17.074 -0.9998 -0.5495 -2.2207
 6661TIP3    H241475   6.071   1.502  17.140 -0.6214 -1.9975  1.0193
 6662TIP3   OH241476   0.964   3.981   3.277 -0.4613  0.3911 -0.3412
 6662TIP3    H141477   1.031   3.995   3.345 -0.7872 -0.3890  0.1500
 6662TIP3    H241478   0.881   3.999   3.320 -0.7392 -0.9468 -0.2669
 6663TIP3   OH241479   4.051   3.498   1.683  0.6939 -1.3086  0.6876
 6663TIP3    H141480   3.998   3.448   1.744  0.0618  0.2931  1.5228
 6663TIP3    H241481   4.126   3.527   1.735  0.6294 -0.7070  0.4529
 6664TIP3   OH241482   0.118   5.342  13.912  0.0159 -0.0933  0.2069
 6664TIP3    H141483   0.170   5.278  13.863  1.2877  0.5441  0.6677
 6664TIP3    H241484   0.177   5.417  13.922 -1.2190  0.8918  0.2504
 6665TIP3   OH241485   2.442   0.805  17.178 -0.1903  0.0872  0.1488
 6665TIP3    H141486   2.409   0.729  17.226 -1.1686  0.1946 -0.3308
 6665TIP3    H241487   2.450   0.775  17.087  0.4573  0.2436  0.1496
 6666TIP3   OH241488   1.557   3.797   0.117 -0.1657 -0.2067  0.0086
 6666TIP3    H141489   1.504   3.719   0.104 -1.4953  0.9253 -1.7818
 6666TIP3    H241490   1.511   3.848   0.183 -0.6172  0.1455 -0.5645
 6667TIP3   OH241491   0.896   5.513  11.755  0.5420 -0.2516 -0.0437
 6667TIP3    H141492   0.871   5.427  11.721 -0.0921 -0.2857  0.4844
 6667TIP3    H241493   0.984   5.528  11.721 -0.0481 -0.2921 -1.6997
 6668TIP3   OH241494   1.472   0.597   5.785  0.1091 -1.0638  0.0547
 6668TIP3    H141495   1.413   0.560   5.720 -0.4392 -0.4555  0.2043
 6668TIP3    H241496   1.551   0.621   5.735 -0.5850  0.0731 -0.5282
 6669TIP3   OH241497   4.778   1.772  16.208 -0.4287  0.1231 -0.7116
 6669TIP3    H141498   4.872   1.775  16.228 -0.7322 -0.3482  0.9122
 6669TIP3    H241499   4.768   1.694  16.153 -0.1758 -1.1623  1.0087
 6670TIP3   OH241500   1.854   4.750   2.874  0.6215  0.2384  0.6949
 6670TIP3    H141501   1.926   4.743   2.812 -0.5713 -1.1581 -0.5987
 6670TIP3    H241502   1.893   4.725   2.958  1.4079 -1.8366 -0.2060
 6671TIP3   OH241503   6.210   4.505   5.241 -0.2935 -0.3322  0.7510
 6671TIP3    H141504   6.240   4.445   5.310  0.4034  0.2043  0.9279
 6671TIP3    H241505   6.227   4.592   5.276 -1.7109  0.0005  0.6820
 6672TIP3   OH241506   5.612   2.034   4.199  0.3940  0.3883 -0.0937
 6672TIP3    H141507   5.616   1.939   4.206 -0.1258  0.1949 -1.8342
 6672TIP3    H241508   5.541   2.060   4.258 -0.1101 -0.4268 -0.3162
 6673TIP3   OH241509   5.351   5.856  16.786  0.2219 -0.4556  0.2660
 6673TIP3    H141510   5.278   5.833  16.730 -0.6958  2.2230  0.1988
 6673TIP3    H241511   5.359   5.951  16.777  3.0540 -0.5065  1.0854
 6674TIP3   OH241512   2.312   3.111   2.258  0.4382  0.1019 -0.0236
 6674TIP3    H141513   2.386   3.154   2.302 -0.2673 -0.2286  1.5550
 6674TIP3    H241514   2.257   3.184   2.227  0.7264  0.3434  0.0285
 6675TIP3   OH241515   5.805   6.350  13.594  0.8721  0.3570  0.3947
 6675TIP3    H141516   5.775   6.290  13.663  1.6254  1.3009  1.5960
 6675TIP3    H241517   5.871   6.301  13.545 -1.7361 -1.3927 -1.6370
 6676TIP3   OH241518   2.762   3.703   1.209 -0.6005 -0.4906  0.2036
 6676TIP3    H141519   2.668   3.716   1.198 -0.8414 -1.4525  0.9733
 6676TIP3    H241520   2.772   3.681   1.302  0.3635 -0.5872  0.0839
 6677TIP3   OH241521   6.011   2.247   1.593  0.8956 -0.1927  0.3308
 6677TIP3    H141522   5.936   2.251   1.652  0.2089 -0.7022 -0.4969
 6677TIP3    H241523   6.084   2.281   1.645 -0.2791  2.2089  0.5464
 6678TIP3   OH241524   4.914   2.017  13.244 -0.1369 -0.0467  0.7341
 6678TIP3    H141525   4.920   1.990  13.335 -0.0813 -1.5773  0.2951
 6678TIP3    H241526   4.953   1.945  13.194 -2.7240 -0.5966 -0.6914
 6679TIP3   OH241527   4.814   4.978   1.841 -0.3600 -0.0046 -0.4473
 6679TIP3    H141528   4.829   5.042   1.771 -0.3196  1.4564  0.8300
 6679TIP3    H241529   4.744   5.017   1.893  0.3954 -0.4907  0.9727
 6680TIP3   OH241530   5.928   5.358   1.037  0.2162 -0.2523 -0.0959
 6680TIP3    H141531   6.014   5.318   1.031  0.7331  0.9608 -1.7939
 6680TIP3    H241532   5.945   5.449   1.061 -0.8067 -0.5852  2.1193
 6681TIP3   OH241533   0.307   4.820   2.688  0.4115  0.0749 -0.3052
 6681TIP3    H141534   0.300   4.898   2.633 -1.9020  1.0126  1.1532
 6681TIP3    H241535   0.392   4.828   2.731  0.4130  1.5459 -0.5508
 6682TIP3   OH241536   4.271   2.081  13.146  0.2506 -0.3059 -0.1941
 6682TIP3    H141537   4.185   2.044  13.126  1.2335 -2.1085 -1.3798
 6682TIP3    H241538   4.299   2.123  13.065  1.8024 -2.5749 -0.9320
 6683TIP3   OH241539   4.155   5.879   2.088  0.2125  0.2336 -0.3495
 6683TIP3    H141540   4.138   5.789   2.115 -2.0104  0.3309 -1.1838
 6683TIP3    H241541   4.238   5.876   2.041  1.7940 -0.7591  2.2828
 6684TIP3   OH241542   2.588   5.639   5.405 -0.1959  0.2255 -0.3758
 6684TIP3    H141543   2.673   5.637   5.449 -0.2607  0.8657 -0.2106
 6684TIP3    H241544   2.599   5.582   5.329  0.2556 -0.0194 -0.1288
 6685TIP3   OH241545   1.597   1.481  16.328  0.1974  0.4535 -1.0234
 6685TIP3    H141546   1.592   1.457  16.235 -1.6012 -0.1619 -0.8164
 6685TIP3    H241547   1.621   1.400  16.372 -0.4667  0.3589 -0.8255
 6686TIP3   OH241548   4.418   4.498   1.600  0.1977  0.2796  0.6750
 6686TIP3    H141549   4.342   4.452   1.566  0.9154 -0.1134 -0.4569
 6686TIP3    H241550   4.411   4.586   1.564  1.7137 -0.5276 -1.8358
 6687TIP3   OH241551   3.825   3.641  15.504  0.4602  0.3409  0.3590
 6687TIP3    H141552   3.867   3.561  15.473  1.0204  0.6862  0.2118
 6687TIP3    H241553   3.786   3.617  15.588  0.3211 -0.1743  0.1528
 6688TIP3   OH241554   6.167   4.863   2.297 -0.0624  0.3408  0.2323
 6688TIP3    H141555   6.237   4.834   2.355  1.4611  3.1626 -0.0163
 6688TIP3    H241556   6.094   4.883   2.355 -0.3890 -1.6195  0.5898
 6689TIP3   OH241557   6.577   0.956  12.306  0.2654  0.4333  0.4001
 6689TIP3    H141558   6.658   0.912  12.278 -0.0137 -0.0537  0.3530
 6689TIP3    H241559   6.527   0.887  12.351 -0.6369  0.4273 -0.5784
 6690TIP3   OH241560   5.345   0.505   2.835 -0.0398  0.5653 -0.4549
 6690TIP3    H141561   5.362   0.519   2.742 -0.2816  2.2341 -0.2662
 6690TIP3    H241562   5.296   0.582   2.863 -1.0319 -0.4668  0.8040
 6691TIP3   OH241563   2.443   4.983  15.837 -0.1482 -0.2141 -0.9048
 6691TIP3    H141564   2.456   4.989  15.742 -2.6418  3.5873 -1.2373
 6691TIP3    H241565   2.479   5.065  15.871 -2.2760  0.0332  0.9373
 6692TIP3   OH241566   5.292   3.411   2.561 -1.0663  0.1291 -0.3745
 6692TIP3    H141567   5.316   3.325   2.595 -0.8581 -0.3987 -1.7985
 6692TIP3    H241568   5.317   3.408   2.469  0.3020  2.2398 -0.1259
 6693TIP3   OH241569   3.607   0.841  16.967  0.2924  0.2150  0.0748
 6693TIP3    H141570   3.597   0.888  17.049  1.9544  1.6846 -0.4980
 6693TIP3    H241571   3.686   0.787  16.978 -1.1972 -2.0110  0.4754
 6694TIP3   OH241572   3.786   4.975  11.678  0.6644 -0.5822  0.2177
 6694TIP3    H141573   3.794   5.044  11.613 -1.2388 -0.2391  0.2930
 6694TIP3    H241574   3.759   5.020  11.758 -0.4938 -1.3805  0.3003
 6695TIP3   OH241575   5.231   6.624   1.454 -0.0922  0.6358  0.1213
 6695TIP3    H141576   5.243   6.709   1.412  0.4600  0.3479 -0.3189
 6695TIP3    H241577   5.150   6.590   1.416 -0.5003  1.1078  0.5536
 6696TIP3   OH241578   5.282   1.670   4.135  0.0771  0.0341  0.8487
 6696TIP3    H141579   5.332   1.597   4.172 -0.2501  0.1286  1.4837
 6696TIP3    H241580   5.250   1.637   4.051  1.6256  0.1424  0.1876
 6697TIP3   OH241581   0.138   5.875  10.947 -0.0315  0.0036  0.5226
 6697TIP3    H141582   0.140   5.957  10.997  2.2047 -0.1947  0.8935
 6697TIP3    H241583   0.154   5.807  11.013  0.5646 -0.4803 -0.1037
 6698TIP3   OH241584   2.918   6.263  13.028  0.0489  0.1797  0.1810
 6698TIP3    H141585   2.992   6.312  12.993 -0.9255  1.3676 -0.3178
 6698TIP3    H241586   2.841   6.311  12.996 -0.9511 -1.4976 -0.0200
 6699TIP3   OH241587   4.589   5.434   1.387  0.4280 -0.4022 -0.7827
 6699TIP3    H141588   4.665   5.435   1.445  0.7706 -1.7890 -1.1611
 6699TIP3    H241589   4.514   5.424   1.445  0.5348  0.8289 -0.4154
 6700TIP3   OH241590   6.638   0.387  13.155 -0.3726 -0.0791  0.4635
 6700TIP3    H141591   6.692   0.393  13.076 -1.0237  0.9716  0.0738
 6700TIP3    H241592   6.677   0.316  13.206  0.6368 -0.1350 -0.3617
 6701TIP3   OH241593   4.322   3.250  14.792 -0.5897  0.1328 -0.0392
 6701TIP3    H141594   4.260   3.199  14.739 -0.7937 -0.0432  0.3659
 6701TIP3    H241595   4.362   3.186  14.851 -1.1457  0.4998  0.7514
 6702TIP3   OH241596   4.436   0.816  16.789  0.1198 -0.5623 -0.5568
 6702TIP3    H141597   4.481   0.874  16.727 -0.7615  0.0565 -0.6347
 6702TIP3    H241598   4.468   0.844  16.875 -1.0571  0.7632 -0.5177
 6703TIP3   OH241599   4.875   2.470  15.602  0.7397  0.7090 -0.5150
 6703TIP3    H141600   4.929   2.402  15.561  1.8990  1.6604 -0.6216
 6703TIP3    H241601   4.800   2.478  15.544  0.4251 -0.6782 -0.3452
 6704TIP3   OH241602   0.235   4.516  16.544  0.0358  0.3015 -0.6909
 6704TIP3    H141603   0.146   4.496  16.516 -0.4332  0.8614  0.3462
 6704TIP3    H241604   0.272   4.566  16.471 -0.6323  0.4236 -0.9552
 6705TIP3   OH241605   2.826   2.260  17.025 -0.0951 -0.4901  0.0395
 6705TIP3    H141606   2.804   2.175  16.986  0.5075 -0.7146  0.1958
 6705TIP3    H241607   2.740   2.299  17.044 -0.3775 -1.2946  0.4845
 6706TIP3   OH241608   2.701   4.695  12.244  0.0409  0.0117 -0.0864
 6706TIP3    H141609   2.753   4.642  12.183  1.8182 -1.3470  2.3986
 6706TIP3    H241610   2.681   4.635  12.317  2.1681  2.6160  2.9253
 6707TIP3   OH241611   1.140   1.083   3.994 -0.2176 -0.4523 -0.0348
 6707TIP3    H141612   1.169   1.151   3.933  0.4103 -0.3251  0.3973
 6707TIP3    H241613   1.052   1.061   3.965 -0.9579  1.4832  0.6118
 6708TIP3   OH241614   4.532   4.885  10.895 -0.4947 -0.2247 -0.8388
 6708TIP3    H141615   4.553   4.804  10.849  2.0710 -0.2197  0.2096
 6708TIP3    H241616   4.505   4.857  10.983  2.0604  0.0321  0.1056
 6709TIP3   OH241617   5.370   0.686   1.690 -0.1828  0.1185  0.3419
 6709TIP3    H141618   5.286   0.668   1.647 -0.7387 -0.8812  1.7828
 6709TIP3    H241619   5.346   0.726   1.773  0.6970 -1.1950  1.2618
 6710TIP3   OH241620   1.775   5.586  12.719  0.4158  0.4769  0.4372
 6710TIP3    H141621   1.776   5.531  12.797  0.4470  0.1377  0.2033
 6710TIP3    H241622   1.867   5.592  12.693  0.5048  1.3257  0.9296
 6711TIP3   OH241623   6.519   4.953   2.843  0.2937 -0.1700  0.3233
 6711TIP3    H141624   6.538   5.017   2.774  1.6637  0.6728  1.4100
 6711TIP3    H241625   6.570   4.984   2.918  1.1018 -2.6169  0.8729
 6712TIP3   OH241626   3.515   0.832   0.636  0.1747  0.4876  0.1101
 6712TIP3    H141627   3.552   0.745   0.655  2.1658  1.5958  1.6869
 6712TIP3    H241628   3.463   0.853   0.713 -0.0610  0.8205 -0.1412
 6713TIP3   OH241629   2.989   1.473   4.432  0.1320  0.4461 -0.1108
 6713TIP3    H141630   2.956   1.424   4.507 -2.1347 -0.0420 -1.3505
 6713TIP3    H241631   3.032   1.549   4.471  0.3520 -0.5462  1.7082
 6714TIP3   OH241632   0.142   5.291  15.637  0.0074  0.1206 -0.7122
 6714TIP3    H141633   0.114   5.382  15.636  1.2323  0.6222  1.8203
 6714TIP3    H241634   0.080   5.247  15.695  0.1348 -0.4004 -0.9595
 6715TIP3   OH241635   6.354   4.575   3.863  0.0276 -0.1590 -0.1721
 6715TIP3    H141636   6.323   4.525   3.787  0.1905 -0.7868  0.1630
 6715TIP3    H241637   6.448   4.558   3.866  0.2032  0.7016 -0.4281
 6716TIP3   OH241638   1.259   3.134   5.999 -0.2221 -0.5981 -0.2294
 6716TIP3    H141639   1.255   3.101   6.089 -0.4763 -0.2215 -0.1027
 6716TIP3    H241640   1.171   3.166   5.981 -0.3295 -1.2138 -0.8215
 6717TIP3   OH241641   5.802   1.009  17.168 -0.8191  0.1030 -0.2021
 6717TIP3    H141642   5.809   0.945  17.097 -1.1126  0.1069 -0.2373
 6717TIP3    H241643   5.771   0.958  17.243 -0.5659  0.1100 -0.0930
 6718TIP3   OH241644   6.819   0.552  16.125  0.1605  0.3384  0.1679
 6718TIP3    H141645   6.758   0.589  16.189  1.1503  1.9178  0.2591
 6718TIP3    H241646   6.808   0.606  16.047  0.3900 -0.3057 -0.3218
 6719TIP3   OH241647   6.276   0.882   3.663 -0.1781 -0.0526  0.1374
 6719TIP3    H141648   6.245   0.966   3.629  1.4358 -0.1870 -1.9014
 6719TIP3    H241649   6.368   0.878   3.635 -0.0052 -2.1736  0.8242
 6720TIP3   OH241650   1.361   5.487  13.286 -0.1445  0.1256 -0.6092
 6720TIP3    H141651   1.423   5.489  13.213  0.2064  1.3385 -0.3035
 6720TIP3    H241652   1.409   5.442  13.356  0.0810  0.3093 -0.6437
 6721TIP3   OH241653   4.462   3.850  16.370 -0.9669 -0.1681  0.4829
 6721TIP3    H141654   4.440   3.901  16.291 -1.3234 -1.5612 -0.3491
 6721TIP3    H241655   4.438   3.908  16.442 -0.4079  1.2471 -0.4092
 6722TIP3   OH241656   5.690   0.320  16.251 -0.1574  0.1692 -0.2468
 6722TIP3    H141657   5.606   0.279  16.269 -1.2300  2.5736  0.5573
 6722TIP3    H241658   5.747   0.291  16.323 -0.0500 -1.9400 -1.1139
 6723TIP3   OH241659   1.543   4.267  17.009  0.0455  0.4964  0.1573
 6723TIP3    H141660   1.552   4.277  16.914  0.1634  1.0395  0.2205
 6723TIP3    H241661   1.504   4.180  17.021  1.4537 -0.2211 -0.3126
 6724TIP3   OH241662   0.728   0.250   1.770 -0.7345 -0.6505  0.8403
 6724TIP3    H141663   0.780   0.243   1.850 -0.0934 -0.9762  0.4034
 6724TIP3    H241664   0.751   0.171   1.720 -0.4395  0.0039 -0.0687
 6725TIP3   OH241665   0.081   0.489   4.423 -0.2402  0.6450 -0.1355
 6725TIP3    H141666   0.053   0.416   4.478 -0.8502 -0.4073 -1.7714
 6725TIP3    H241667   0.088   0.563   4.484 -1.1026 -0.3910  1.3062
 6726TIP3   OH241668   4.701   0.386  16.745 -0.4265 -0.3417 -0.6162
 6726TIP3    H141669   4.633   0.432  16.697 -0.1372 -1.2376 -1.9525
 6726TIP3    H241670   4.677   0.294  16.738  0.3912 -0.5943 -0.2772
 6727TIP3   OH241671   0.898   6.399  16.452 -0.1036 -0.6999 -0.2342
 6727TIP3    H141672   0.967   6.403  16.518  0.9427  0.2278 -1.3322
 6727TIP3    H241673   0.828   6.347  16.493  1.0176 -1.2128  1.1023
 6728TIP3   OH241674   1.451   6.140  12.238 -0.3690  0.1787  0.1566
 6728TIP3    H141675   1.508   6.142  12.315 -1.4606  2.7090  0.9908
 6728TIP3    H241676   1.431   6.231  12.220 -0.2643 -0.3384 -3.1137
 6729TIP3   OH241677   3.450   4.696  12.266 -0.4243  0.3199  0.0085
 6729TIP3    H141678   3.521   4.671  12.325 -0.3979 -0.5075 -0.3562
 6729TIP3    H241679   3.494   4.739  12.193 -0.1236 -1.4515 -0.9050
 6730TIP3   OH241680   5.255   4.754   4.988 -0.0173 -0.3821 -0.4423
 6730TIP3    H141681   5.265   4.845   4.961  3.6789 -0.7140 -0.6742
 6730TIP3    H241682   5.339   4.731   5.027 -1.2093 -3.4083  0.6847
 6731TIP3   OH241683   2.100   1.991   0.893 -0.1828  0.1797 -0.3277
 6731TIP3    H141684   2.071   1.912   0.848  1.0898  0.2351 -1.2951
 6731TIP3    H241685   2.114   1.963   0.984  0.1873 -0.6927 -0.6420
 6732TIP3   OH241686   6.018   2.895  16.609  0.4660  0.7083  0.2242
 6732TIP3    H141687   6.001   2.989  16.614 -0.8516  0.4432  1.1372
 6732TIP3    H241688   5.974   2.867  16.528  2.3816  1.1407 -1.0351
 6733TIP3   OH241689   0.107   5.875  11.321 -0.4421  0.1334  0.0276
 6733TIP3    H141690   0.151   5.861  11.405 -0.2920 -0.2939 -0.1189
 6733TIP3    H241691   0.178   5.887  11.258 -0.4577 -1.7903 -0.4309
 6734TIP3   OH241692   0.030   5.471   0.985  0.1292  0.6784  0.5427
 6734TIP3    H141693  -0.032   5.542   0.976 -1.2772 -0.5350  0.3097
 6734TIP3    H241694   0.072   5.487   1.070 -1.1832  1.0120  1.1532
 6735TIP3   OH241695   2.570   1.363   2.280  0.0716  0.4786  0.4329
 6735TIP3    H141696   2.654   1.346   2.238 -0.1725  0.2116  0.0477
 6735TIP3    H241697   2.586   1.439   2.336  0.6880  0.1410  0.7198
 6736TIP3   OH241698   2.712   1.483   5.073  0.0722 -0.4792 -0.5072
 6736TIP3    H141699   2.790   1.439   5.107  1.6728  0.7887 -2.2987
 6736TIP3    H241700   2.661   1.414   5.031  0.1129 -1.3523  0.8119
 6737TIP3   OH241701   3.487   2.176   3.465  0.1111  0.0954  0.3178
 6737TIP3    H141702   3.580   2.177   3.486  0.3068 -1.4438 -0.2655
 6737TIP3    H241703   3.468   2.083   3.447 -1.6024  0.3299  0.7202
 6738TIP3   OH241704   4.301   1.320   2.710 -0.4515  0.2495 -0.2302
 6738TIP3    H141705   4.362   1.248   2.722 -3.1987 -1.9399  2.0065
 6738TIP3    H241706   4.244   1.292   2.638 -2.2826 -0.5225  1.4243
 6739TIP3   OH241707   3.241   4.379   5.810  0.0621  0.4055  0.1668
 6739TIP3    H141708   3.240   4.284   5.800  1.4552  0.0683  2.3857
 6739TIP3    H241709   3.324   4.406   5.771 -0.4732  0.7888 -0.7417
 6740TIP3   OH241710   4.509   1.091   5.380  0.1941  0.0784  0.1399
 6740TIP3    H141711   4.543   1.144   5.308  1.4947 -1.5845 -0.5393
 6740TIP3    H241712   4.585   1.045   5.415 -0.9254 -1.7591  0.3204
 6741TIP3   OH241713   6.780   2.475  14.361  0.1582 -0.3347  0.1716
 6741TIP3    H141714   6.757   2.468  14.454  2.0385  0.5503  0.7628
 6741TIP3    H241715   6.832   2.555  14.355  1.7323 -1.3795 -1.2672
 6742TIP3   OH241716   5.796   4.161  11.768 -0.3002  0.3073  0.2527
 6742TIP3    H141717   5.706   4.152  11.798 -0.0565  2.3199  1.8101
 6742TIP3    H241718   5.800   4.250  11.732  0.0692 -1.1256 -3.7229
 6743TIP3   OH241719   2.584   6.426  15.706 -0.0676 -0.2588  0.3711
 6743TIP3    H141720   2.513   6.432  15.770 -1.0857 -0.6042 -0.6863
 6743TIP3    H241721   2.655   6.478  15.743 -0.3886 -0.9649  2.0702
 6744TIP3   OH241722   6.114   1.889  14.697 -0.3274 -0.0557  0.3822
 6744TIP3    H141723   6.175   1.818  14.677 -1.3449 -0.6142 -0.8754
 6744TIP3    H241724   6.101   1.884  14.792  0.0208 -1.2153  0.3820
 6745TIP3   OH241725   2.518   0.171   4.712 -0.1619 -0.2729 -0.3325
 6745TIP3    H141726   2.450   0.116   4.751 -0.7307 -0.2344 -1.2405
 6745TIP3    H241727   2.470   0.240   4.666  0.5392  0.8819  0.6167
 6746TIP3   OH241728   3.322   3.110   2.451 -0.5516  0.0016 -0.0995
 6746TIP3    H141729   3.249   3.055   2.419 -0.1045 -0.7310  0.1097
 6746TIP3    H241730   3.344   3.166   2.377  0.3823 -1.5798 -1.0606
 6747TIP3   OH241731   2.891   3.595  16.260  0.1149 -0.1073  0.2883
 6747TIP3    H141732   2.825   3.653  16.299  1.9425  1.7484  0.7739
 6747TIP3    H241733   2.884   3.609  16.166 -0.2178  0.0340  0.3328
 6748TIP3   OH241734   0.779   1.802   1.224 -0.6054  0.1879 -0.3387
 6748TIP3    H141735   0.781   1.742   1.150 -0.1330 -0.8494  0.4848
 6748TIP3    H241736   0.791   1.889   1.186 -2.7185 -0.0534 -1.7137
 6749TIP3   OH241737   2.425   2.805  12.316 -0.1120 -0.1358  0.7491
 6749TIP3    H141738   2.440   2.711  12.328 -0.9279 -0.7450 -2.1767
 6749TIP3    H241739   2.506   2.838  12.278 -0.7019 -0.2768 -0.7246
 6750TIP3   OH241740   0.438   3.900   0.274 -0.2562 -0.1754  0.4772
 6750TIP3    H141741   0.474   3.977   0.230  1.6028 -0.7464  0.8977
 6750TIP3    H241742   0.373   3.865   0.212  0.1536  0.7112 -0.4894
 6751TIP3   OH241743   5.783   0.660   2.725 -0.4833 -0.8801  0.2572
 6751TIP3    H141744   5.876   0.652   2.704 -0.1521  2.6247 -0.1855
 6751TIP3    H241745   5.779   0.734   2.786 -2.9539 -1.3835  0.8126
 6752TIP3   OH241746   1.846   5.713   3.273 -0.3883  0.2698 -0.2332
 6752TIP3    H141747   1.807   5.796   3.301  1.4047  0.9415  0.3944
 6752TIP3    H241748   1.940   5.730   3.270 -0.1416 -1.0417 -2.5329
 6753TIP3   OH241749   3.897   2.855  12.244  0.5112 -0.2238 -0.2331
 6753TIP3    H141750   3.850   2.881  12.165  0.1476  0.6300  0.2419
 6753TIP3    H241751   3.960   2.926  12.258  0.7021 -0.4649  0.1240
 6754TIP3   OH241752   6.174   3.118   0.925  0.0514 -0.1286 -0.3623
 6754TIP3    H141753   6.252   3.118   0.981  1.0992  1.6557 -1.7189
 6754TIP3    H241754   6.202   3.073   0.846 -0.9110 -1.1377 -0.1547
 6755TIP3   OH241755   4.167   6.508  15.338  0.5096  0.4308 -0.0957
 6755TIP3    H141756   4.099   6.572  15.359 -1.7145 -2.4236  2.3182
 6755TIP3    H241757   4.224   6.508  15.415  0.6122 -0.3232 -0.1674
 6756TIP3   OH241758   2.869   2.961   2.219  0.4906  0.1886  0.2174
 6756TIP3    H141759   2.812   2.913   2.279  1.6199 -2.7004 -0.8108
 6756TIP3    H241760   2.932   3.005   2.275  0.5848 -1.1782  1.2447
 6757TIP3   OH241761   0.467   3.043  14.330  0.0360  0.0962 -0.4631
 6757TIP3    H141762   0.467   2.962  14.382  0.5727  0.1914 -0.3073
 6757TIP3    H241763   0.400   3.098  14.370 -2.2240 -1.2584 -2.1522
 6758TIP3   OH241764   2.588   0.116   5.524  0.0871 -0.0953 -0.5297
 6758TIP3    H141765   2.500   0.128   5.490  0.4363  1.1520 -1.0606
 6758TIP3    H241766   2.598   0.021   5.533 -0.9876 -0.2990 -1.3172
 6759TIP3   OH241767   2.282   2.392   1.204  0.8826  0.4374  0.5375
 6759TIP3    H141768   2.365   2.415   1.161  0.0060  2.5292 -0.1572
 6759TIP3    H241769   2.301   2.398   1.298  2.0435 -1.2478  0.4549
 6760TIP3   OH241770   3.371   3.531  15.168  0.3019  0.1294 -0.0215
 6760TIP3    H141771   3.364   3.451  15.220 -1.5962  0.1842 -0.1294
 6760TIP3    H241772   3.463   3.556  15.176  0.8050 -1.6915  0.5456
 6761TIP3   OH241773   1.987   1.980  12.360  0.0518 -0.1683  0.0904
 6761TIP3    H141774   2.035   2.060  12.339  1.8792 -1.3932 -0.6280
 6761TIP3    H241775   1.960   1.991  12.451 -0.4193  1.5741 -0.2316
 6762TIP3   OH241776   4.144   4.244  15.700  0.4390  0.2764 -0.4417
 6762TIP3    H141777   4.054   4.240  15.732  0.9118 -0.1992  0.9243
 6762TIP3    H241778   4.149   4.326  15.651 -0.9785 -0.1584 -1.3451
 6763TIP3   OH241779   6.314   3.936  12.997 -0.2710 -0.3826  0.1729
 6763TIP3    H141780   6.362   3.912  12.918  1.2197 -0.7394  1.1379
 6763TIP3    H241781   6.223   3.913  12.978  0.1431 -0.9726 -1.2250
 6764TIP3   OH241782   6.276   0.071  11.817  0.0067 -0.2735  0.4742
 6764TIP3    H141783   6.189   0.048  11.848 -0.9515  0.7785 -1.2832
 6764TIP3    H241784   6.335   0.016  11.868 -1.8386 -3.5893 -0.6668
 6765TIP3   OH241785   3.181   5.003   6.488 -0.5434 -0.2924  0.1169
 6765TIP3    H141786   3.161   4.964   6.403  0.5118  0.6674 -0.5903
 6765TIP3    H241787   3.164   5.096   6.477  1.8109  0.2023  0.2163
 6766TIP3   OH241788   2.335   4.843  10.788 -0.6749 -0.2546 -0.3763
 6766TIP3    H141789   2.240   4.833  10.787 -0.9547  1.4616 -3.1639
 6766TIP3    H241790   2.349   4.937  10.786  1.1772 -0.4142  1.7903
 6767TIP3   OH241791   3.061   4.216   1.026  0.5648  0.0465  0.2038
 6767TIP3    H141792   3.039   4.191   0.936  0.6580  0.5129  0.0503
 6767TIP3    H241793   3.088   4.307   1.019  0.9779 -0.0438  0.6430
 6768TIP3   OH241794   6.098   5.272   5.532 -0.6131 -0.3831  0.0602
 6768TIP3    H141795   6.096   5.310   5.620  0.0509 -1.8731  0.7530
 6768TIP3    H241796   6.189   5.283   5.504 -0.3567 -1.5981  0.3587
 6769TIP3   OH241797   3.200   5.493  16.249 -0.3465 -0.2563  0.0709
 6769TIP3    H141798   3.137   5.517  16.317 -0.7799 -0.4731 -0.2482
 6769TIP3    H241799   3.153   5.432  16.193  0.8066 -2.0694  0.9818
 6770TIP3   OH241800   1.512   0.686   5.449  0.0827  0.2068  0.0313
 6770TIP3    H141801   1.572   0.719   5.516  0.4904 -2.1502  0.9042
 6770TIP3    H241802   1.434   0.741   5.458  0.7537  0.9906  1.3258
 6771TIP3   OH241803   5.461   5.022   3.482 -0.2452  0.5456 -0.4272
 6771TIP3    H141804   5.552   5.050   3.473  0.1900 -0.4712  0.6478
 6771TIP3    H241805   5.444   4.968   3.405 -0.1784  1.3326 -1.0033
 6772TIP3   OH241806   3.012   6.184  16.005  0.2725 -0.3677 -0.3132
 6772TIP3    H141807   2.995   6.097  16.043  1.9736 -1.4982 -1.9331
 6772TIP3    H241808   3.049   6.235  16.078 -1.6951 -0.6242  0.9288
 6773TIP3   OH241809   6.272   5.606   4.053 -0.0482  0.7321 -0.0815
 6773TIP3    H141810   6.299   5.624   4.143 -2.7115  1.1523  0.6903
 6773TIP3    H241811   6.264   5.692   4.012 -1.6610  0.7403  0.1916
 6774TIP3   OH241812   4.555   4.309  15.132 -0.7989  0.0834 -0.4380
 6774TIP3    H141813   4.555   4.230  15.185 -1.0246 -1.1603 -2.2048
 6774TIP3    H241814   4.474   4.306  15.082 -0.0754  0.5742 -1.7157
 6775TIP3   OH241815   4.094   6.627   6.611  0.3580 -0.1110  0.3138
 6775TIP3    H141816   4.018   6.651   6.664 -0.1950 -0.3855 -0.3403
 6775TIP3    H241817   4.119   6.708   6.567 -1.9752 -0.7221 -2.4883
 6776TIP3   OH241818   6.411   0.725  11.381  0.1251 -0.2896 -0.4127
 6776TIP3    H141819   6.461   0.800  11.414  0.2035 -0.8416  0.7888
 6776TIP3    H241820   6.326   0.761  11.358  0.7257  0.4789 -1.5289
 6777TIP3   OH241821   5.419   5.309   3.195  0.0543  0.5960 -0.1142
 6777TIP3    H141822   5.433   5.215   3.186 -0.3731  0.5238 -0.0390
 6777TIP3    H241823   5.497   5.349   3.155  0.3634  0.2111  0.0944
 6778TIP3   OH241824   2.164   3.250  15.650 -0.1275  0.1183 -0.1419
 6778TIP3    H141825   2.246   3.276  15.692 -0.1164  0.7578 -0.5548
 6778TIP3    H241826   2.103   3.321  15.669 -0.6561 -0.4525  0.3445
 6779TIP3   OH241827   1.860   0.302  11.949 -0.1790  0.7711 -0.3541
 6779TIP3    H141828   1.912   0.274  11.875 -0.5384 -0.3712 -0.1993
 6779TIP3    H241829   1.788   0.239  11.953 -0.8915  1.5917  0.1657
 6780TIP3   OH241830   2.489   6.486  11.871 -0.2138  0.3438  0.4548
 6780TIP3    H141831   2.482   6.564  11.816 -0.6732  0.4251  0.6220
 6780TIP3    H241832   2.400   6.449  11.873 -0.2145  0.3601  1.1623
 6781TIP3   OH241833   0.509   1.091  13.488  0.3373 -0.5914  0.0942
 6781TIP3    H141834   0.427   1.128  13.456  0.7515  0.6593  0.4380
 6781TIP3    H241835   0.481   1.022  13.548 -0.6155  1.9707  2.8387
 6782TIP3   OH241836   5.109   5.370  15.947 -0.1756 -0.0573 -0.1485
 6782TIP3    H141837   5.065   5.304  15.894 -1.3122 -0.6576  1.4486
 6782TIP3    H241838   5.174   5.408  15.889 -0.0793 -1.9783 -1.3850
 6783TIP3   OH241839   2.820   4.267   5.019 -0.1807  0.0528 -0.1087
 6783TIP3    H141840   2.909   4.302   5.011 -0.1335 -0.3562 -1.7946
 6783TIP3    H241841   2.778   4.289   4.937 -1.8680  0.7376  0.8881
 6784TIP3   OH241842   1.721   6.049   0.374 -0.0284  0.1898  0.1299
 6784TIP3    H141843   1.660   5.978   0.356  1.1613 -0.5364 -1.3073
 6784TIP3    H241844   1.796   6.006   0.416  0.3636  0.7222 -0.0144
 6785TIP3   OH241845   3.444   1.681  13.519 -0.4528  0.1212 -0.0397
 6785TIP3    H141846   3.351   1.696  13.502 -0.8194  2.6172  3.2646
 6785TIP3    H241847   3.489   1.733  13.451 -1.4902  0.3648 -0.5556
 6786TIP3   OH241848   1.544   1.036  15.946 -0.4446  0.0913  0.2012
 6786TIP3    H141849   1.597   1.036  15.866 -0.3319 -1.1253  0.2544
 6786TIP3    H241850   1.606   1.056  16.016 -0.3843  0.3538  0.0725
 6787TIP3   OH241851   3.054   1.444  11.310  0.2613  0.0973 -0.2225
 6787TIP3    H141852   3.050   1.507  11.237 -0.1455  2.8844  2.0056
 6787TIP3    H241853   3.130   1.472  11.361  0.2494 -1.4813  0.7175
 6788TIP3   OH241854   1.426   6.111  13.367  0.3569  0.0830  0.1515
 6788TIP3    H141855   1.379   6.191  13.341 -0.8716 -0.5314  0.3924
 6788TIP3    H241856   1.443   6.066  13.285 -2.7484 -1.4350  0.2067
 6789TIP3   OH241857   1.321   6.148  11.182 -0.0473  0.1005  0.0903
 6789TIP3    H141858   1.344   6.055  11.186 -1.6004 -0.3591  4.9759
 6789TIP3    H241859   1.406   6.193  11.183  0.7589 -1.3513  0.9858
 6790TIP3   OH241860   2.675   3.569  15.341 -0.4334  0.5343 -0.5004
 6790TIP3    H141861   2.733   3.595  15.413 -1.1376 -0.3882  0.4261
 6790TIP3    H241862   2.713   3.488  15.308  0.1430  1.1853 -1.4992
 6791TIP3   OH241863   3.962   0.142   4.671 -0.0049 -0.0252  0.1526
 6791TIP3    H141864   3.988   0.107   4.585  1.0598  0.1180  0.3953
 6791TIP3    H241865   4.016   0.221   4.681 -0.8591  0.5196  0.5185
 6792TIP3   OH241866   6.794   2.909  15.576 -0.0591  0.1788 -0.4457
 6792TIP3    H141867   6.779   2.832  15.631  0.5151 -0.2228 -0.8258
 6792TIP3    H241868   6.734   2.898  15.502  0.9388 -0.6288 -1.1851
 6793TIP3   OH241869   2.724   1.158  14.053 -0.3189 -0.0798 -0.0137
 6793TIP3    H141870   2.715   1.087  14.117 -0.1389 -2.4226 -2.4062
 6793TIP3    H241871   2.634   1.187  14.037 -0.3627  0.5569  1.2718
 6794TIP3   OH241872   1.575   0.501  15.095 -0.0130  0.7407 -0.3268
 6794TIP3    H141873   1.637   0.442  15.139  3.1852  3.1098 -1.2875
 6794TIP3    H241874   1.543   0.558  15.165 -3.9746 -2.4398  0.8331
 6795TIP3   OH241875   1.701   4.137  16.433 -0.1714  0.3888  0.1032
 6795TIP3    H141876   1.637   4.161  16.366  2.2007  0.4604 -2.2786
 6795TIP3    H241877   1.714   4.217  16.484 -2.9117  0.0104  1.6216
 6796TIP3   OH241878   6.526   5.377   0.381 -0.6123 -0.3955 -0.0859
 6796TIP3    H141879   6.595   5.444   0.380 -0.4496 -0.5658 -0.7463
 6796TIP3    H241880   6.488   5.383   0.469 -1.7540  1.7198 -0.6495
 6797TIP3   OH241881   0.388   4.768   6.577 -0.0115  0.1131 -0.1583
 6797TIP3    H141882   0.306   4.766   6.527 -0.9524 -2.1098  1.3534
 6797TIP3    H241883   0.364   4.807   6.661  1.2567  2.4869 -0.8001
 6798TIP3   OH241884   3.753   0.122  14.788  0.0034 -0.2140 -0.1903
 6798TIP3    H141885   3.695   0.171  14.730  0.9860 -0.3409 -1.3230
 6798TIP3    H241886   3.830   0.103  14.735  0.4962 -1.2599  0.8448
 6799TIP3   OH241887   3.296   2.259   5.524  0.4514 -0.0454 -0.1398
 6799TIP3    H141888   3.237   2.247   5.450  1.0799 -3.9983 -0.2293
 6799TIP3    H241889   3.247   2.314   5.585 -0.2682  2.9623 -3.1510
 6800TIP3   OH241890   3.282   3.310  14.328 -0.3712 -0.9427  0.2932
 6800TIP3    H141891   3.256   3.277  14.414 -0.3053 -1.0657  0.2666
 6800TIP3    H241892   3.377   3.299  14.326 -0.4049 -1.2237  0.0892
 6801TIP3   OH241893   3.415   3.776  15.989 -0.0153  0.4074  0.1618
 6801TIP3    H141894   3.362   3.769  16.069 -0.1424 -1.6347 -0.0668
 6801TIP3    H241895   3.496   3.729  16.010  0.1421  0.2609 -0.7619
 6802TIP3   OH241896   0.542   4.486  11.022 -0.2151 -0.3253  0.3950
 6802TIP3    H141897   0.630   4.474  10.986  0.1033  0.2212  0.9644
 6802TIP3    H241898   0.494   4.408  10.996  1.2280 -1.9774  2.3707
 6803TIP3   OH241899   1.961   1.104   0.408  0.8430  0.3832  0.5880
 6803TIP3    H141900   2.001   1.184   0.374  0.2435  0.2969 -0.3597
 6803TIP3    H241901   1.943   1.051   0.331  0.2655 -0.2143  1.1167
 6804TIP3   OH241902   3.833   3.165   4.622  0.0045  0.7438  1.2491
 6804TIP3    H141903   3.827   3.204   4.709 -1.8270 -1.8177  2.3980
 6804TIP3    H241904   3.767   3.212   4.571 -0.0021  1.2194  1.6833
 6805TIP3   OH241905   1.897   6.513  14.209 -0.3548 -0.2082 -0.1834
 6805TIP3    H141906   1.870   6.436  14.257  1.2658 -0.8342 -0.1988
 6805TIP3    H241907   1.918   6.481  14.121  0.1054  0.2821 -0.2633
 6806TIP3   OH241908   5.357   0.667   0.115  0.9482 -0.2379  0.0862
 6806TIP3    H141909   5.300   0.729   0.161  1.1359  1.5026 -1.8756
 6806TIP3    H241910   5.308   0.584   0.117 -0.1529  0.3999  1.2177
 6807TIP3   OH241911   3.360   5.793  11.530  0.0166  0.3063  0.0048
 6807TIP3    H141912   3.421   5.768  11.600  0.6329  1.4067 -0.1290
 6807TIP3    H241913   3.339   5.710  11.486 -0.2353 -0.3899  1.3553
 6808TIP3   OH241914   2.619   2.800   2.207  0.2189  0.2421 -0.2920
 6808TIP3    H141915   2.532   2.763   2.197 -0.3122  1.2383  0.4721
 6808TIP3    H241916   2.640   2.836   2.121  0.2787 -0.7952 -0.7301
 6809TIP3   OH241917   4.715   5.022   2.918 -0.4079  0.1068 -0.0374
 6809TIP3    H141918   4.659   4.945   2.915 -2.3692  1.4705 -2.6497
 6809TIP3    H241919   4.658   5.091   2.952  0.0239  1.2276 -1.4771
 6810TIP3   OH241920   3.133   0.296  15.129  0.4053  0.0300 -0.3879
 6810TIP3    H141921   3.178   0.342  15.058  2.0608 -0.8284  0.0526
 6810TIP3    H241922   3.109   0.365  15.191  1.7337  0.4661 -0.3246
 6811TIP3   OH241923   2.329   4.142  11.248 -0.3263  0.3382  0.2002
 6811TIP3    H141924   2.403   4.105  11.200 -0.7163 -0.2487  0.0313
 6811TIP3    H241925   2.261   4.154  11.182  0.1155  2.3552  0.0490
 6812TIP3   OH241926   5.417   6.098   3.060  0.1458 -0.9374  0.3065
 6812TIP3    H141927   5.464   6.114   2.978 -0.5707 -1.0141 -0.1337
 6812TIP3    H241928   5.335   6.057   3.032 -0.6486  0.1391  0.9499
 6813TIP3   OH241929   0.449   4.543  14.321  0.1585 -0.4895  0.3435
 6813TIP3    H141930   0.538   4.511  14.304  0.4811 -0.1180  1.2733
 6813TIP3    H241931   0.456   4.638  14.313 -0.0665 -0.4323  0.7976
 6814TIP3   OH241932   6.777   4.440  13.135 -0.0867 -0.2203  0.1652
 6814TIP3    H141933   6.693   4.407  13.104  0.4281  0.1107 -1.6951
 6814TIP3    H241934   6.842   4.393  13.082  0.7450  2.0634 -0.9697
 6815TIP3   OH241935   3.941   2.843   0.451 -0.8437 -0.1962  0.1986
 6815TIP3    H141936   3.996   2.773   0.417  0.2372  0.5615  0.3420
 6815TIP3    H241937   3.861   2.838   0.399 -0.4245 -0.9640 -0.3945
 6816TIP3   OH241938   1.580   2.177  11.003 -0.4277  0.2000 -0.4426
 6816TIP3    H141939   1.628   2.208  10.927 -0.4178  0.2053 -0.4345
 6816TIP3    H241940   1.619   2.093  11.024 -0.6308  0.0609 -0.6234
 6817TIP3   OH241941   0.561   6.768   4.444  0.4205  0.1014 -0.0595
 6817TIP3    H141942   0.495   6.716   4.491  0.9160 -0.2790  0.2285
 6817TIP3    H241943   0.598   6.708   4.380  0.5758  0.2729 -0.1317
 6818TIP3   OH241944   5.607   1.319  10.833 -1.0471  0.3935 -0.4194
 6818TIP3    H141945   5.531   1.305  10.889  0.0934 -0.9048  0.8883
 6818TIP3    H241946   5.620   1.235  10.788 -1.3124  1.0930 -1.8478
 6819TIP3   OH241947   3.719   4.918   4.836  0.5231 -0.3294  0.5026
 6819TIP3    H141948   3.638   4.902   4.884  1.1058 -0.6487  1.3974
 6819TIP3    H241949   3.719   5.013   4.820  0.7387 -0.0759  1.9082
 6820TIP3   OH241950   5.329   1.439   2.457 -0.2411 -0.7772 -0.0990
 6820TIP3    H141951   5.257   1.458   2.397 -1.4970 -0.0065  1.5849
 6820TIP3    H241952   5.357   1.351   2.433 -0.6753 -0.4875 -1.8141
 6821TIP3   OH241953   0.993   0.425  14.547  0.0455 -0.1060  0.0756
 6821TIP3    H141954   1.057   0.396  14.611  1.6679  0.6688 -1.1078
 6821TIP3    H241955   0.948   0.346  14.519 -1.2625 -0.3815  2.6522
 6822TIP3   OH241956   4.533   1.152  12.281  0.2664 -0.3343  0.0735
 6822TIP3    H141957   4.596   1.124  12.216  0.7990 -0.1745  0.5126
 6822TIP3    H241958   4.456   1.096  12.266 -0.5320  1.2200 -2.1786
 6823TIP3   OH241959   5.954   0.640  11.297  0.1638  0.3961 -0.1978
 6823TIP3    H141960   5.963   0.548  11.272 -0.8694 -0.0186  0.8762
 6823TIP3    H241961   5.874   0.669  11.254 -0.0413  0.5119  0.2543
 6824TIP3   OH241962   1.084   0.921   3.179  0.6139 -0.2684 -0.3584
 6824TIP3    H141963   1.000   0.921   3.226  1.0077  2.3544  0.4949
 6824TIP3    H241964   1.081   0.999   3.125  1.7617 -1.1960 -1.8215
 6825TIP3   OH241965   5.092   0.336  15.026 -0.1371  0.1353  0.3548
 6825TIP3    H141966   5.124   0.421  15.056  1.6320 -0.7496  1.1124
 6825TIP3    H241967   5.086   0.345  14.931  0.7861  0.8648  0.3516
 6826TIP3   OH241968   2.578   2.313  17.143 -0.3697  0.0776 -0.0928
 6826TIP3    H141969   2.580   2.221  17.172 -0.7540  0.6695  2.0006
 6826TIP3    H241970   2.488   2.341  17.160  0.1831  1.3100  1.0323
 6827TIP3   OH241971   5.028   1.347  16.458  0.1697 -0.2702 -0.5671
 6827TIP3    H141972   5.095   1.405  16.494 -1.3092  2.7210 -2.1747
 6827TIP3    H241973   4.946   1.378  16.497 -0.4794 -3.2109  0.6488
 6828TIP3   OH241974   5.410   5.595   4.757  0.0144 -0.3472 -0.6680
 6828TIP3    H141975   5.387   5.523   4.816  0.0373  1.3253  1.4988
 6828TIP3    H241976   5.363   5.576   4.676 -1.0600 -2.0858  0.3225
 6829TIP3   OH241977   0.102   4.294   5.886 -0.3149  0.1000 -0.2814
 6829TIP3    H141978   0.062   4.239   5.954  0.1212  0.0281 -0.0778
 6829TIP3    H241979   0.101   4.240   5.808  1.3325 -0.7280  0.2307
 6830TIP3   OH241980   1.865   4.468  17.047 -0.2358 -0.1588  0.2278
 6830TIP3    H141981   1.817   4.480  17.129 -0.9639  1.5608 -0.3980
 6830TIP3    H241982   1.826   4.390  17.007 -2.0077  0.7417  0.1054
 6831TIP3   OH241983   2.036   1.133  14.258 -0.8356 -0.1764 -0.5452
 6831TIP3    H141984   2.033   1.060  14.196 -0.6118 -1.2979  0.7248
 6831TIP3    H241985   2.119   1.122  14.304 -0.9020  0.7624 -0.1720
 6832TIP3   OH241986   6.174   2.552   0.791 -0.3505 -0.3671 -0.4624
 6832TIP3    H141987   6.204   2.632   0.834  0.3466 -1.9723  2.2362
 6832TIP3    H241988   6.081   2.547   0.813  0.0767 -1.3534  1.2283
 6833TIP3   OH241989   4.292   2.388  11.546  0.4555  0.4817  0.4584
 6833TIP3    H141990   4.379   2.426  11.559  0.1507  1.3740 -0.0642
 6833TIP3    H241991   4.308   2.293  11.542  1.3247  0.5978  0.9424
 6834TIP3   OH241992   4.522   2.685  16.655 -0.6258 -0.3224  0.1455
 6834TIP3    H141993   4.497   2.776  16.638 -1.3287 -0.4128  0.6169
 6834TIP3    H241994   4.454   2.633  16.611  0.3446 -0.6496 -1.0055
 6835TIP3   OH241995   3.240   0.357   0.375  0.0448  0.3265  0.1676
 6835TIP3    H141996   3.314   0.353   0.435  0.3961 -2.0366 -0.3148
 6835TIP3    H241997   3.163   0.340   0.430  0.2525 -0.7283  0.1524
 6836TIP3   OH241998   6.469   1.900  16.517 -0.2385  0.3073  0.0758
 6836TIP3    H141999   6.502   1.905  16.427 -2.3250 -0.5127 -0.7922
 6836TIP3    H242000   6.518   1.967  16.564  1.0608  0.6154 -1.6016
 6837TIP3   OH242001   4.941   2.279  11.490  0.0529  0.0800  1.0888
 6837TIP3    H142002   4.991   2.232  11.424 -0.3589  0.6454  0.3691
 6837TIP3    H242003   4.959   2.231  11.571 -0.5804 -1.5030  0.3348
 6838TIP3   OH242004   5.060   4.467  16.440  0.2642 -0.3510 -0.5781
 6838TIP3    H142005   5.059   4.450  16.534 -1.8000  2.0288 -0.0637
 6838TIP3    H242006   5.045   4.382  16.400  0.3155 -1.2796  1.2610
 6839TIP3   OH242007   2.587   5.159   2.737 -0.1317 -0.5944 -0.1047
 6839TIP3    H142008   2.667   5.165   2.685 -0.8177 -1.4225 -1.2914
 6839TIP3    H242009   2.518   5.141   2.673 -1.1945 -0.3851  0.9538
 6840TIP3   OH242010   1.384   4.193  14.373 -0.0165 -0.0007  0.3722
 6840TIP3    H142011   1.470   4.163  14.400  0.5419  1.4766  0.3090
 6840TIP3    H242012   1.393   4.288  14.362 -1.5233  0.1251 -0.0906
 6841TIP3   OH242013   0.442   1.443   3.885 -0.0518  0.6812 -0.3470
 6841TIP3    H142014   0.457   1.481   3.798 -0.5189 -2.2605 -1.8542
 6841TIP3    H242015   0.351   1.414   3.883 -0.2383  1.0659  1.3565
 6842TIP3   OH242016   1.756   4.482  13.166  0.0993  0.3282  0.6581
 6842TIP3    H142017   1.699   4.431  13.109 -0.0320  1.6364 -0.4501
 6842TIP3    H242018   1.752   4.438  13.251 -2.9821  0.6178  0.7824
 6843TIP3   OH242019   0.107   3.633  16.844  0.2178 -0.5920 -0.5315
 6843TIP3    H142020   0.127   3.704  16.782  0.2827 -1.6361 -1.7369
 6843TIP3    H242021   0.189   3.618  16.890 -0.2179  1.2470  0.9853
 6844TIP3   OH242022   3.083   3.305   0.893 -0.2507 -0.3412 -0.1084
 6844TIP3    H142023   2.988   3.305   0.880 -0.4061  0.5461  0.9208
 6844TIP3    H242024   3.116   3.365   0.826 -0.4572 -0.3339 -0.2037
 6845TIP3   OH242025   2.962   4.680   2.421  0.2355 -0.0428 -0.0022
 6845TIP3    H142026   2.972   4.725   2.337  0.0169 -0.6024 -0.3321
 6845TIP3    H242027   2.928   4.747   2.480 -1.9463 -0.2237 -0.9626
 6846TIP3   OH242028   4.705   1.958   1.020  0.4206 -0.5374  0.4033
 6846TIP3    H142029   4.666   2.029   1.070  0.4447  0.9344 -1.5642
 6846TIP3    H242030   4.760   2.001   0.956 -0.4308 -2.2595 -1.5984
 6847TIP3   OH242031   2.564   6.356   1.371 -0.0635 -0.6371 -0.2921
 6847TIP3    H142032   2.488   6.309   1.337 -0.7429  0.2435 -0.0221
 6847TIP3    H242033   2.552   6.446   1.340 -0.0827 -0.0793  1.2751
 6848TIP3   OH242034   5.199   4.694  13.873 -0.4555  0.2541  0.4773
 6848TIP3    H142035   5.129   4.747  13.912 -0.4113 -0.2506  1.2678
 6848TIP3    H242036   5.279   4.725  13.915 -0.3284  0.1101  0.3441
 6849TIP3   OH242037   1.362   5.771   0.599  0.2986  0.0606  0.5594
 6849TIP3    H142038   1.335   5.810   0.682 -0.6061  1.0335 -0.1624
 6849TIP3    H242039   1.349   5.840   0.534 -2.2629 -1.6324 -0.9355
 6850TIP3   OH242040   3.190   1.743  10.895 -0.1486  0.0230  0.0794
 6850TIP3    H142041   3.162   1.737  10.804 -0.2977 -1.7862  0.2012
 6850TIP3    H242042   3.283   1.724  10.893 -0.2390 -0.4584  0.3439
 6851TIP3   OH242043   6.235   5.319  16.075 -0.2291  0.4763  0.1620
 6851TIP3    H142044   6.310   5.379  16.071 -1.1710  1.6892 -0.0518
 6851TIP3    H242045   6.233   5.289  16.166 -0.8814  2.3248  0.8026
 6852TIP3   OH242046   5.254   0.721  16.450  0.2748  0.0405 -0.6558
 6852TIP3    H142047   5.216   0.809  16.454 -0.8549 -0.4131 -0.9272
 6852TIP3    H242048   5.182   0.665  16.419  1.3724 -0.7339 -1.9265
 6853TIP3   OH242049   4.183   2.570   3.411 -0.6926  0.0312  0.2131
 6853TIP3    H142050   4.161   2.478   3.427 -0.4218 -0.0591  0.0884
 6853TIP3    H242051   4.191   2.609   3.498  2.5234 -0.8708  0.4610
 6854TIP3   OH242052   5.831   1.846  11.572  0.6667  0.4363 -0.3914
 6854TIP3    H142053   5.907   1.806  11.529  2.9283  2.7495  1.1957
 6854TIP3    H242054   5.794   1.775  11.625  1.5297 -0.8110 -1.3813
 6855TIP3   OH242055   1.342   6.682   0.015 -0.4475  0.6294  0.0969
 6855TIP3    H142056   1.388   6.632   0.083 -2.1455 -1.4272 -0.1986
 6855TIP3    H242057   1.288   6.744   0.064 -0.3911  0.3218  0.5545
 6856TIP3   OH242058   6.097   1.048  16.168 -0.3337 -0.1866 -0.3252
 6856TIP3    H142059   6.173   1.059  16.226  0.2377 -0.1032 -1.0728
 6856TIP3    H242060   6.045   1.127  16.181 -0.2751 -0.2294  0.1731
 6857TIP3   OH242061   5.192   2.400  14.238  0.2347 -0.4782  0.3638
 6857TIP3    H142062   5.158   2.438  14.157  2.1307  0.2046 -0.1645
 6857TIP3    H242063   5.230   2.316  14.211  2.0702  0.3364  0.2213
 6858TIP3   OH242064   5.907   3.776  12.326  0.2024 -0.0494 -0.1784
 6858TIP3    H142065   5.935   3.865  12.348 -0.4817  0.6393 -1.9370
 6858TIP3    H242066   5.954   3.756  12.244  0.2954 -1.2871  0.1599
 6859TIP3   OH242067   4.621   5.148   3.535 -0.2309  0.2189 -0.0980
 6859TIP3    H142068   4.597   5.232   3.496 -0.9384  0.6539  1.2194
 6859TIP3    H242069   4.693   5.116   3.481  1.4182  2.6013  0.5618
 6860TIP3   OH242070   4.942   0.250  15.569 -0.7378 -0.1779  0.0606
 6860TIP3    H142071   4.981   0.211  15.491  0.2047  0.7858  0.0111
 6860TIP3    H242072   4.915   0.176  15.623  0.4094 -0.8864 -0.3062
 6861TIP3   OH242073   3.065   1.413   4.861 -0.2929 -0.5800 -0.2599
 6861TIP3    H142074   3.108   1.330   4.839 -0.1048 -0.5787  0.0957
 6861TIP3    H242075   3.117   1.480   4.818 -0.9008 -0.6975 -1.2125
 6862TIP3   OH242076   3.793   1.548   1.763  0.0982 -0.5313 -0.8156
 6862TIP3    H142077   3.805   1.460   1.798 -2.3342 -0.6829 -0.2202
 6862TIP3    H242078   3.834   1.606   1.828 -1.7941 -1.0055  0.8996
 6863TIP3   OH242079   0.485   5.548   3.383 -0.2250 -0.1286  0.4355
 6863TIP3    H142080   0.540   5.529   3.307 -0.4073 -0.1010  0.2937
 6863TIP3    H242081   0.398   5.515   3.358  0.3087 -2.7376  1.7543
 6864TIP3   OH242082   2.324   4.240   3.229 -0.2737  0.6948 -0.3983
 6864TIP3    H142083   2.337   4.277   3.142  1.3968 -0.1128 -0.5315
 6864TIP3    H242084   2.313   4.316   3.286  2.3668  1.4370 -0.7717
 6865TIP3   OH242085   5.125   4.550  15.128  0.1946 -0.0976  0.1483
 6865TIP3    H142086   5.135   4.645  15.114  1.8927  0.0958  2.1541
 6865TIP3    H242087   5.030   4.535  15.126 -0.2404  2.0049  1.6974
 6866TIP3   OH242088   6.604   5.295   5.211  0.2531 -0.3603 -0.1362
 6866TIP3    H142089   6.582   5.248   5.131  0.3249  2.5414 -1.9891
 6866TIP3    H242090   6.551   5.375   5.208 -0.2579 -0.4284  3.1065
 6867TIP3   OH242091   6.581   2.469   1.098 -0.0354 -0.4128  0.0527
 6867TIP3    H142092   6.487   2.467   1.080  0.1298  0.7819 -1.0298
 6867TIP3    H242093   6.591   2.530   1.171 -0.2390 -1.7823  1.2668
 6868TIP3   OH242094   3.190   1.806  12.073 -0.2559 -0.2960  0.3574
 6868TIP3    H142095   3.130   1.738  12.042  0.2036 -0.1753 -0.8555
 6868TIP3    H242096   3.254   1.815  12.002 -0.0965  1.1307  0.6610
 6869TIP3   OH242097   3.668   3.720   0.448 -0.0864  0.4178 -0.7798
 6869TIP3    H142098   3.714   3.712   0.532  1.7298  0.6131 -1.7171
 6869TIP3    H242099   3.594   3.778   0.468  0.7036  1.0462  0.5454
 6870TIP3   OH242100   2.812   5.741   3.370  0.0250 -0.1023  0.2542
 6870TIP3    H142101   2.888   5.798   3.357  0.4267 -0.7932 -0.4824
 6870TIP3    H242102   2.794   5.704   3.284  0.3207 -1.7714  0.8804
 6871TIP3   OH242103   0.274   3.141   4.980  0.1859  0.2097 -0.9383
 6871TIP3    H142104   0.196   3.124   4.928 -0.7688  0.9558  0.1913
 6871TIP3    H242105   0.340   3.083   4.943 -0.6070  0.2681 -2.5672
 6872TIP3   OH242106   0.662   0.832   0.696 -0.1876 -0.1945  0.2593
 6872TIP3    H142107   0.674   0.897   0.628 -1.4350  0.0200  0.2259
 6872TIP3    H242108   0.741   0.840   0.750  1.0796 -0.7463 -1.4256
 6873TIP3   OH242109   1.629   4.834  12.411 -0.3833  0.6098 -0.1481
 6873TIP3    H142110   1.609   4.751  12.367  0.1392 -0.4889  1.5431
 6873TIP3    H242111   1.721   4.851  12.389  0.8749 -1.5325  2.6623
 6874TIP3   OH242112   0.727   3.215  12.902  0.1000  0.0705 -0.5737
 6874TIP3    H142113   0.746   3.130  12.941 -2.9790  0.1266  1.4305
 6874TIP3    H242114   0.747   3.204  12.809  3.0473 -1.6837  0.1434
 6875TIP3   OH242115   2.590   0.095   0.580 -0.1608 -0.3162 -0.1141
 6875TIP3    H142116   2.642   0.175   0.583 -1.0085  0.2352  0.6246
 6875TIP3    H242117   2.527   0.105   0.652  0.2000 -1.9817  0.4779
 6876TIP3   OH242118   3.955   4.498   2.173  0.2846  0.4830 -0.2034
 6876TIP3    H142119   4.045   4.527   2.155  0.2399  0.6906 -0.0840
 6876TIP3    H242120   3.922   4.559   2.239 -0.9003  2.1032 -2.1895
 6877TIP3   OH242121   2.943   3.847   1.751 -0.7119  0.1298 -0.2764
 6877TIP3    H142122   3.026   3.814   1.716 -0.5595 -0.0867  0.2810
 6877TIP3    H242123   2.962   3.866   1.843 -1.1251  0.6324 -0.2888
 6878TIP3   OH242124   5.593   1.733  12.749 -0.7239 -0.2157 -0.1847
 6878TIP3    H142125   5.520   1.765  12.800 -1.3046 -2.6181  0.6524
 6878TIP3    H242126   5.563   1.737  12.658 -0.0309  3.2060 -0.3921
 6879TIP3   OH242127   2.196   0.559   2.127 -0.2065  0.1874  0.1986
 6879TIP3    H142128   2.239   0.502   2.062 -0.3918  1.5673 -1.1769
 6879TIP3    H242129   2.212   0.648   2.095 -0.7815  0.8847  1.7721
 6880TIP3   OH242130   2.383   2.570   2.169 -0.8704  0.0591 -0.6345
 6880TIP3    H142131   2.428   2.486   2.180  1.3068  0.9336 -2.1991
 6880TIP3    H242132   2.387   2.611   2.255 -3.1613 -1.9119  0.5193
 6881TIP3   OH242133   1.293   1.585   4.427 -0.0340 -0.5201  0.0456
 6881TIP3    H142134   1.385   1.564   4.412  0.1569  0.8887 -1.0220
 6881TIP3    H242135   1.259   1.605   4.340 -1.0462  0.0895  0.5639
 6882TIP3   OH242136   4.709   1.755   3.268  0.1581  0.7733 -0.2512
 6882TIP3    H142137   4.716   1.825   3.333 -1.6691  1.3241 -0.6059
 6882TIP3    H242138   4.624   1.768   3.227 -0.5893 -2.1073  0.1836
 6883TIP3   OH242139   2.006   2.199   2.469  0.3305 -0.1023 -0.3802
 6883TIP3    H142140   2.044   2.134   2.528  2.0590  1.9427  0.9335
 6883TIP3    H242141   1.921   2.219   2.508 -0.7156 -2.2504 -1.4054
 6884TIP3   OH242142   2.765   3.440   3.747  0.2151  0.0421 -0.1336
 6884TIP3    H142143   2.769   3.477   3.836 -2.6032 -2.0660  1.0195
 6884TIP3    H242144   2.791   3.348   3.758 -2.2922 -0.8681 -0.9383
 6885TIP3   OH242145   2.875   1.781   6.665 -0.1667  0.4472 -0.0689
 6885TIP3    H142146   2.962   1.746   6.645 -0.8623 -0.4152 -1.8279
 6885TIP3    H242147   2.892   1.870   6.697  1.4262 -0.2358  1.1700
 6886TIP3   OH242148   6.731   2.911   5.279  0.2583  0.4738  0.8030
 6886TIP3    H142149   6.764   2.832   5.238  1.2046  0.2868  1.8587
 6886TIP3    H242150   6.683   2.880   5.356  0.0007  0.8906  0.8158
 6887TIP3   OH242151   2.494   6.150   0.506  0.1165  0.7594  0.3065
 6887TIP3    H142152   2.516   6.080   0.567  0.4894  2.7969  2.6766
 6887TIP3    H242153   2.550   6.223   0.532 -1.7633  2.6406 -0.6069
 6888TIP3   OH242154   0.096   2.208  11.744  0.7098  0.5388 -0.0846
 6888TIP3    H142155   0.087   2.142  11.675  1.9027  0.1581  0.0848
 6888TIP3    H242156   0.179   2.251  11.725  1.2189  0.2221  1.2617
 6889TIP3   OH242157   2.049   2.496  13.162  0.4103  0.1675 -0.3035
 6889TIP3    H142158   2.033   2.554  13.087  1.0376  0.8080  0.0407
 6889TIP3    H242159   2.104   2.426  13.127 -0.9376 -0.6305 -0.8876
 6890TIP3   OH242160   2.491   6.399  15.346  0.6198 -0.1822  0.5569
 6890TIP3    H142161   2.457   6.481  15.311  1.4589  0.3022  0.8191
 6890TIP3    H242162   2.416   6.340  15.349 -0.0547  0.6597  0.6026
 6891TIP3   OH242163   4.187   4.109  11.575  0.6229 -0.2677 -0.0447
 6891TIP3    H142164   4.178   4.204  11.587  3.0091  0.3460 -2.2169
 6891TIP3    H242165   4.123   4.087  11.508  0.7410 -0.0127 -0.2407
 6892TIP3   OH242166   2.880   3.570  14.809  0.4012  0.1900 -0.3750
 6892TIP3    H142167   2.929   3.631  14.754  0.2814 -0.0640 -0.7731
 6892TIP3    H242168   2.943   3.503  14.833  0.4124  0.2107 -0.3472
 6893TIP3   OH242169   1.498   6.244  16.324  0.4860  0.6168 -0.2146
 6893TIP3    H142170   1.415   6.253  16.277 -0.2035 -0.7872  0.6831
 6893TIP3    H242171   1.565   6.259  16.257 -0.4676 -0.5875 -1.5029
 6894TIP3   OH242172   3.708   2.753  11.450 -0.2808 -0.0825  0.2314
 6894TIP3    H142173   3.751   2.703  11.380  0.2857  0.9361 -0.1682
 6894TIP3    H242174   3.780   2.782  11.507 -0.5274  0.8166  0.1002
 6895TIP3   OH242175   1.890   6.764  12.055 -0.3809  0.3879  0.3332
 6895TIP3    H142176   1.984   6.743  12.057 -0.6516 -1.1266 -0.6730
 6895TIP3    H242177   1.877   6.805  11.969 -0.4669  1.6268  0.9229
 6896TIP3   OH242178   5.837   5.923  12.574  0.4477  0.2898 -0.1529
 6896TIP3    H142179   5.743   5.940  12.565  0.3828  0.5215  0.7867
 6896TIP3    H242180   5.871   5.929  12.485 -0.4016  0.3817 -0.4854
 6897TIP3   OH242181   3.955   4.951   4.943  0.5087 -0.4642  0.3469
 6897TIP3    H142182   3.958   4.882   5.009  0.5857  0.7949  1.7131
 6897TIP3    H242183   3.883   4.926   4.886  0.1205 -1.3427  1.1943
 6898TIP3   OH242184   5.997   2.273   6.094  0.1458 -0.6293  0.0860
 6898TIP3    H142185   6.035   2.222   6.022 -0.9542  0.7899 -1.5870
 6898TIP3    H242186   5.921   2.221   6.123 -0.7892 -0.1494 -1.4012
 6899TIP3   OH242187   1.377   0.700  10.691  0.3562  0.0399 -0.2537
 6899TIP3    H142188   1.356   0.629  10.752 -0.0633  1.8531  1.8137
 6899TIP3    H242189   1.312   0.768  10.709  1.5787  1.5172 -1.1659
 6900TIP3   OH242190   3.709   0.908  11.713  0.5650  0.7358 -0.1407
 6900TIP3    H142191   3.732   0.952  11.631  0.2159  3.9175  1.3345
 6900TIP3    H242192   3.764   0.949  11.779  0.5300 -1.4532  1.3659
 6901TIP3   OH242193   6.404   3.611  16.673 -0.6437 -0.2073  0.2463
 6901TIP3    H142194   6.446   3.679  16.620  1.6892  0.0859  2.2407
 6901TIP3    H242195   6.397   3.536  16.615  2.2235 -0.0609 -0.4529
 6902TIP3   OH242196   6.233   4.813  16.919  0.1307  0.0757 -0.8570
 6902TIP3    H142197   6.150   4.861  16.924 -1.1983 -2.1872  1.2844
 6902TIP3    H242198   6.292   4.861  16.978 -1.0668 -0.5705  0.9852
 6903TIP3   OH242199   4.366   0.954  13.271 -0.4437  0.4247  0.1790
 6903TIP3    H142200   4.448   0.982  13.313 -1.4057  0.3662  2.2110
 6903TIP3    H242201   4.386   0.867  13.237  0.4495  0.5513  0.3391
 6904TIP3   OH242202   3.709   3.292   2.138 -0.3381  0.0410 -0.3918
 6904TIP3    H142203   3.785   3.334   2.177 -1.5020  1.9824 -0.0599
 6904TIP3    H242204   3.653   3.271   2.212 -1.3174  1.1942 -0.7623
 6905TIP3   OH242205   2.418   5.442  12.881 -0.0950 -0.1442  0.4448
 6905TIP3    H142206   2.356   5.515  12.873  1.4500  1.1711 -0.4069
 6905TIP3    H242207   2.379   5.371  12.830 -0.8720  0.6624 -0.1113
 6906TIP3   OH242208   0.533   5.860   6.351  0.1074  0.2490 -0.8606
 6906TIP3    H142209   0.450   5.909   6.349 -0.3022 -0.4117 -0.5686
 6906TIP3    H242210   0.587   5.907   6.415 -0.3647  0.1901 -0.4116
 6907TIP3   OH242211   4.722   4.515   3.047 -0.1109 -0.0412  0.2783
 6907TIP3    H142212   4.650   4.468   3.088  1.1629 -2.0197  0.3938
 6907TIP3    H242213   4.751   4.578   3.113 -0.6857 -0.3710  0.8520
 6908TIP3   OH242214   3.567   3.704  12.772  0.3070  0.0498  0.3629
 6908TIP3    H142215   3.494   3.654  12.808  1.6440 -1.0202  1.7286
 6908TIP3    H242216   3.583   3.664  12.686 -1.1886  0.8351 -0.3177
 6909TIP3   OH242217   5.284   6.508  15.475  0.2579 -0.3533 -0.4312
 6909TIP3    H142218   5.297   6.603  15.477  0.4019 -0.3634 -0.7333
 6909TIP3    H242219   5.338   6.475  15.548  0.7650 -0.2612 -0.7564
 6910TIP3   OH242220   0.668   2.693  15.348 -0.3278  0.5460  0.6742
 6910TIP3    H142221   0.715   2.678  15.266  0.6210 -0.0964  1.3013
 6910TIP3    H242222   0.673   2.788  15.362 -1.6237  0.8389 -0.6258
 6911TIP3   OH242223   4.756   5.348   4.058  0.4843  0.0179 -0.0439
 6911TIP3    H142224   4.834   5.304   4.025  0.6813 -0.2983  0.8227
 6911TIP3    H242225   4.787   5.435   4.084  0.3443  0.2412 -0.6101
 6912TIP3   OH242226   3.615   1.410  16.602  0.0333  0.1884 -0.0037
 6912TIP3    H142227   3.672   1.446  16.534 -0.2115 -0.0005 -0.3120
 6912TIP3    H242228   3.674   1.382  16.671  0.2518  0.8978  0.1087
 6913TIP3   OH242229   3.010   6.236   6.014  0.1162  0.2162  0.3401
 6913TIP3    H142230   3.017   6.317   5.963  1.3567  1.8911  2.9708
 6913TIP3    H242231   3.097   6.223   6.051  0.1193 -2.7154 -0.4069
 6914TIP3   OH242232   0.721   6.569  17.201 -0.4589  0.0356  0.4634
 6914TIP3    H142233   0.751   6.598  17.288  1.4455  0.2996 -0.2445
 6914TIP3    H242234   0.669   6.490  17.219  0.4371 -0.2776  1.7925
 6915TIP3   OH242235   5.624   1.635   0.171 -0.0379  0.0084  0.1828
 6915TIP3    H142236   5.558   1.596   0.114  0.0879 -1.0942  0.7690
 6915TIP3    H242237   5.689   1.566   0.183  0.7388  0.7664  0.3747
 6916TIP3   OH242238   2.639   1.429  12.474  0.2956  0.5943  0.0151
 6916TIP3    H142239   2.710   1.430  12.537  1.8750  0.4111 -1.6737
 6916TIP3    H242240   2.638   1.340  12.439 -1.3122  0.3622  0.5686
 6917TIP3   OH242241   5.401   1.542   3.846  0.8506  0.5934 -0.5615
 6917TIP3    H142242   5.315   1.582   3.856  0.6956  0.0995  0.1634
 6917TIP3    H242243   5.386   1.467   3.788  0.3440 -0.7796  1.2543
 6918TIP3   OH242244   1.303   4.695  12.722 -0.7612 -0.0278  0.3825
 6918TIP3    H142245   1.348   4.610  12.726 -1.3061 -0.3215  0.3231
 6918TIP3    H242246   1.277   4.713  12.812  0.6015  0.7682  0.6490
 6919TIP3   OH242247   0.220   0.169   3.725  0.1367 -0.5703 -0.3158
 6919TIP3    H142248   0.177   0.087   3.748  1.0817 -0.7955  0.6614
 6919TIP3    H242249   0.184   0.190   3.638 -0.7527 -1.5586 -0.2125
 6920TIP3   OH242250   5.646   1.245   3.922  0.7009  0.1893  0.4530
 6920TIP3    H142251   5.592   1.246   4.001 -0.9922  0.5458 -0.6532
 6920TIP3    H242252   5.611   1.173   3.870 -0.1541  1.7272 -1.1999
 6921TIP3   OH242253   4.383   4.727  15.590  0.2169  0.4674  0.0539
 6921TIP3    H142254   4.299   4.695  15.622  0.7933 -1.2987 -0.0905
 6921TIP3    H242255   4.400   4.807  15.640 -1.2062  0.4625  0.5695
 6922TIP3   OH242256   5.139   4.159   5.324 -0.3344 -0.2008 -0.4065
 6922TIP3    H142257   5.169   4.144   5.234 -2.0888 -0.8068 -0.9447
 6922TIP3    H242258   5.067   4.096   5.335 -0.9978  0.7587  0.9747
 6923TIP3   OH242259   4.161   4.526   5.626 -0.7015  0.1570  0.3139
 6923TIP3    H142260   4.229   4.459   5.634 -0.7248 -0.5203 -3.4889
 6923TIP3    H242261   4.191   4.598   5.681  2.3901 -0.6737 -0.1377
 6924TIP3   OH242262   6.125   5.232  14.904 -0.7595  0.3053 -0.1771
 6924TIP3    H142263   6.070   5.257  14.830  0.5052 -1.9911 -2.0007
 6924TIP3    H242264   6.212   5.265  14.882 -0.2369 -0.9311 -0.0655
 6925TIP3   OH242265   6.806   0.751  17.064 -0.1721  0.0145  0.3725
 6925TIP3    H142266   6.875   0.792  17.011 -0.4450  1.0574  0.7901
 6925TIP3    H242267   6.727   0.760  17.011 -0.0061 -1.1526 -0.0927
 6926TIP3   OH242268   2.793   0.647  12.908  0.4181  0.2385  0.4283
 6926TIP3    H142269   2.763   0.560  12.934  0.1709  0.8931  2.5541
 6926TIP3    H242270   2.885   0.634  12.882 -0.2360 -0.9768 -1.4682
 6927TIP3   OH242271   0.869   0.523  12.304  0.3727 -0.2321  0.3260
 6927TIP3    H142272   0.945   0.535  12.248  0.3436 -1.1089  0.0781
 6927TIP3    H242273   0.824   0.608  12.302  0.9634  0.0779 -0.0878
 6928TIP3   OH242274   1.449   1.522  12.803  0.2616 -0.0241 -0.2569
 6928TIP3    H142275   1.483   1.433  12.807  0.1256 -0.0818 -0.4204
 6928TIP3    H242276   1.500   1.565  12.734  2.5849  0.9676  1.8751
 6929TIP3   OH242277   6.684   5.524  12.780  0.4167 -0.1765 -0.4798
 6929TIP3    H142278   6.680   5.606  12.831  2.6657  0.1171 -0.6553
 6929TIP3    H242279   6.763   5.534  12.727  0.6135 -2.3967 -0.6620
 6930TIP3   OH242280   2.982   1.623   5.048 -0.2058 -0.1497  0.1660
 6930TIP3    H142281   3.015   1.551   4.995 -0.0461  0.3153 -0.3831
 6930TIP3    H242282   2.889   1.603   5.060  0.2868 -1.5992  1.9374
 6931TIP3   OH242283   4.273   3.823   4.196  0.5034  0.1193  0.5108
 6931TIP3    H142284   4.285   3.912   4.228 -0.5892 -0.0767  1.5557
 6931TIP3    H242285   4.292   3.767   4.272  0.2105 -0.4739  0.1586
 6932TIP3   OH242286   5.627   5.833   1.799  0.2821 -0.3374 -0.6376
 6932TIP3    H142287   5.569   5.792   1.863 -0.4105  1.2074 -0.2397
 6932TIP3    H242288   5.624   5.774   1.723 -0.6408 -1.0377 -0.0815
 6933TIP3   OH242289   2.592   2.717  14.302  0.2481  1.0343  0.6219
 6933TIP3    H142290   2.660   2.662  14.264 -0.5996 -0.6100  1.3665
 6933TIP3    H242291   2.513   2.696  14.252 -0.5211  0.0381  2.1628
 6934TIP3   OH242292   2.335   3.274  15.869  0.2765  0.5306 -0.2140
 6934TIP3    H142293   2.367   3.194  15.911 -1.3131 -0.0562 -0.0741
 6934TIP3    H242294   2.275   3.312  15.932  0.4603  1.4591 -0.5850
 6935TIP3   OH242295   5.385   3.694  13.490  0.0634 -0.0918 -0.0832
 6935TIP3    H142296   5.360   3.747  13.566  0.2162 -0.7276  0.4174
 6935TIP3    H242297   5.368   3.604  13.517  1.3082 -0.4193 -0.3420
 6936TIP3   OH242298   1.446   1.935  16.844 -0.1485  0.2571  0.3119
 6936TIP3    H142299   1.375   1.979  16.891 -1.4574 -0.2087 -1.1614
 6936TIP3    H242300   1.420   1.938  16.752  2.2574  1.0126 -0.4346
 6937TIP3   OH242301   0.262   6.617  11.972 -0.7034  0.1457 -0.1810
 6937TIP3    H142302   0.191   6.680  11.978  0.7040  1.9933 -1.5416
 6937TIP3    H242303   0.338   6.663  12.008 -0.0181 -1.4899  0.5436
 6938TIP3   OH242304   1.220   6.524  15.905 -0.5446  0.2122  0.2596
 6938TIP3    H142305   1.176   6.449  15.945  0.1225 -0.3580 -0.0505
 6938TIP3    H242306   1.196   6.598  15.960  0.7253 -0.6110  2.0249
 6939TIP3   OH242307   5.630   3.718   5.361  0.2175 -0.0828 -0.0014
 6939TIP3    H142308   5.661   3.782   5.297 -0.7274  1.4668  1.0172
 6939TIP3    H242309   5.544   3.692   5.329  0.0687  0.1258  0.2169
 6940TIP3   OH242310   1.032   5.817   0.348 -0.1371 -0.5458 -0.3242
 6940TIP3    H142311   1.041   5.779   0.435 -0.6609  1.0678  0.4772
 6940TIP3    H242312   0.969   5.760   0.303 -1.3882 -0.3104  1.0539
 6941TIP3   OH242313   2.750   4.294  13.701  0.0874 -0.1679 -0.1773
 6941TIP3    H142314   2.718   4.234  13.769  0.0281  1.5026  1.3560
 6941TIP3    H242315   2.671   4.321  13.654 -0.0180 -0.5077 -0.1946
 6942TIP3   OH242316   3.454   1.029   3.776  0.1038 -0.0136 -0.3617
 6942TIP3    H142317   3.464   0.986   3.691  0.9819  1.3569 -0.9782
 6942TIP3    H242318   3.535   1.011   3.823 -0.4928 -1.0049  0.3176
 6943TIP3   OH242319   6.757   6.321  12.515  0.5074 -0.6207 -0.4692
 6943TIP3    H142320   6.733   6.412  12.498  2.7875 -0.0518 -1.0511
 6943TIP3    H242321   6.809   6.324  12.595 -1.5046 -1.8446  0.9917
 6944TIP3   OH242322   3.955   4.423  16.061 -0.1936 -0.1933  0.3291
 6944TIP3    H142323   4.034   4.476  16.048  0.4858 -1.5128 -1.2586
 6944TIP3    H242324   3.895   4.451  15.993 -0.9440  0.4640  1.2347
 6945TIP3   OH242325   1.406   0.642  13.716 -0.1316 -0.4381 -0.0150
 6945TIP3    H142326   1.436   0.614  13.630  0.6818 -0.3815  0.2393
 6945TIP3    H242327   1.472   0.608  13.777  0.5299  1.3730  0.3653
 6946TIP3   OH242328   4.438   1.612  10.924  0.0325 -0.4282  0.0098
 6946TIP3    H142329   4.440   1.684  10.860 -1.4339 -0.2929  0.0854
 6946TIP3    H242330   4.353   1.571  10.911  0.4174 -1.4974  0.7092
 6947TIP3   OH242331   3.980   6.174  12.308  0.3332 -0.0607 -0.1927
 6947TIP3    H142332   4.058   6.230  12.312 -0.1612  0.5905  0.5982
 6947TIP3    H242333   4.013   6.090  12.277  1.1166  0.6161 -1.2569
 6948TIP3   OH242334   3.250   1.836   1.995  0.3013  0.3318 -0.4877
 6948TIP3    H142335   3.286   1.753   2.026 -0.3867 -0.3335 -1.4049
 6948TIP3    H242336   3.161   1.838   2.032 -0.7462 -0.7471 -2.7532
 6949TIP3   OH242337   5.542   4.331   0.647 -0.8131  0.0385  0.7101
 6949TIP3    H142338   5.581   4.251   0.681 -1.3762 -0.4404  0.2480
 6949TIP3    H242339   5.470   4.352   0.707 -2.3705 -1.2906 -0.5969
 6950TIP3   OH242340   4.795   4.225   3.170  0.4956 -0.3026  0.0309
 6950TIP3    H142341   4.754   4.279   3.103  0.5097  0.0476  0.3045
 6950TIP3    H242342   4.748   4.246   3.250 -1.0307 -2.3469 -0.2466
 6951TIP3   OH242343   6.556   4.003  13.208  0.3746  0.5054 -0.0749
 6951TIP3    H142344   6.633   3.992  13.263  1.2214  1.0523 -1.1253
 6951TIP3    H242345   6.499   3.930  13.231  0.8643  0.5130  1.2489
 6952TIP3   OH242346   0.841   4.982   1.541 -0.3875  0.6306 -0.0400
 6952TIP3    H142347   0.925   5.017   1.570 -0.8052  1.7149 -0.0637
 6952TIP3    H242348   0.804   4.941   1.619  0.9892 -1.6281 -0.4962
 6953TIP3   OH242349   6.711   3.015   4.081 -0.2542  0.0069 -0.9751
 6953TIP3    H142350   6.766   3.092   4.086 -0.5600  0.2758 -1.6865
 6953TIP3    H242351   6.767   2.943   4.110  0.3437  0.3413 -1.2890
 6954TIP3   OH242352   6.101   4.810  13.266 -0.1618 -0.0320  0.2889
 6954TIP3    H142353   6.152   4.775  13.193  0.6284  0.1323  0.7424
 6954TIP3    H242354   6.010   4.793  13.243  0.1130 -0.6195 -0.3979
 6955TIP3   OH242355   5.604   5.326   0.583 -0.2437 -0.2789  0.4108
 6955TIP3    H142356   5.520   5.354   0.546 -1.4031 -1.5427  1.9520
 6955TIP3    H242357   5.635   5.402   0.631 -0.5934  0.1427 -0.0110
 6956TIP3   OH242358   2.898   1.005   6.043 -0.1109 -0.5444  0.2338
 6956TIP3    H142359   2.831   0.937   6.046  0.6542 -1.4225 -1.4990
 6956TIP3    H242360   2.980   0.958   6.027  0.2086  0.8024 -2.9038
 6957TIP3   OH242361   0.963   1.176   4.897 -0.4986  0.1469 -0.2559
 6957TIP3    H142362   0.923   1.188   4.984 -2.1657  0.0729 -0.9813
 6957TIP3    H242363   0.963   1.263   4.859  0.2108  0.1728 -0.2045
 6958TIP3   OH242364   2.793   6.493   2.511  0.7795  0.1936 -0.3581
 6958TIP3    H142365   2.842   6.488   2.429  2.8388 -1.6050  0.8829
 6958TIP3    H242366   2.777   6.402   2.535 -0.3830  0.6989  0.9202
 6959TIP3   OH242367   3.597   5.528   1.475  0.4102 -0.2103  0.3932
 6959TIP3    H142368   3.524   5.551   1.418 -1.1565  1.1350  2.7674
 6959TIP3    H242369   3.589   5.433   1.488 -0.2422 -0.2454 -0.2049
 6960TIP3   OH242370   2.826   2.968  13.833 -0.0262  0.0281  0.1541
 6960TIP3    H142371   2.909   2.963  13.880 -0.5041 -1.1117  0.9018
 6960TIP3    H242372   2.849   2.946  13.742  0.3285 -1.4028  0.5651
 6961TIP3   OH242373   3.394   3.548   4.206 -0.2625  0.2123  0.7843
 6961TIP3    H142374   3.309   3.585   4.231 -1.0514 -0.5212 -0.6900
 6961TIP3    H242375   3.438   3.619   4.158 -0.8098  0.0175 -0.0233
 6962TIP3   OH242376   6.521   4.733   5.886 -0.6029 -0.0927 -0.6666
 6962TIP3    H142377   6.594   4.750   5.826 -2.3090  0.7046 -2.6389
 6962TIP3    H242378   6.523   4.639   5.900  2.0722  0.1152  1.1360
 6963TIP3   OH242379   6.503   4.044  16.787 -0.2431  0.2305 -0.0795
 6963TIP3    H142380   6.413   4.076  16.794  0.0904  1.1643  0.1701
 6963TIP3    H242381   6.556   4.114  16.826  0.5831 -0.3545 -0.1216
 6964TIP3   OH242382   0.058   2.695  10.979  0.2186 -0.1037 -0.3651
 6964TIP3    H142383   0.003   2.774  10.976 -0.1414 -0.3580 -0.4993
 6964TIP3    H242384   0.001   2.625  10.947  0.4323 -0.4789  0.0676
 6965TIP3   OH242385   6.046   5.289   2.595 -0.1151  0.8187 -0.0093
 6965TIP3    H142386   5.954   5.265   2.582 -0.2965  1.2585  0.4209
 6965TIP3    H242387   6.063   5.268   2.686  1.0342 -1.8810 -0.7512
 6966TIP3   OH242388   2.414   5.876   4.650  0.1298 -0.1072 -0.2383
 6966TIP3    H142389   2.392   5.969   4.650 -0.5308 -0.2367 -1.3400
 6966TIP3    H242390   2.416   5.851   4.742 -0.1628  0.8921  0.0516
 6967TIP3   OH242391   0.949   6.089  14.263  0.3279 -0.6201 -0.0947
 6967TIP3    H142392   1.010   6.091  14.336 -0.5716 -0.4350  0.6670
 6967TIP3    H242393   0.985   6.153  14.201  1.2384 -0.9748  0.0534
 6968TIP3   OH242394   4.340   5.822   3.528  0.1927  0.0155  0.2911
 6968TIP3    H142395   4.391   5.791   3.454  0.2204  1.4388 -0.3311
 6968TIP3    H242396   4.406   5.844   3.594  0.3023  0.5180  0.0194
 6969TIP3   OH242397   2.065   1.865  15.947  0.2122 -0.3866  0.1424
 6969TIP3    H142398   2.010   1.905  15.879  0.2280  1.2287  1.0187
 6969TIP3    H242399   2.154   1.886  15.920  0.2346 -0.0625  0.4626
 6970TIP3   OH242400   1.265   6.342  13.755  0.7964  0.1087  0.4834
 6970TIP3    H142401   1.308   6.322  13.838  0.7937  0.8630  0.6763
 6970TIP3    H242402   1.287   6.269  13.697  1.9115  0.2334  0.7346
 6971TIP3   OH242403   6.440   6.370  16.058 -0.0612  0.5315  0.1164
 6971TIP3    H142404   6.444   6.332  15.970  0.3650  0.5607  0.1221
 6971TIP3    H242405   6.524   6.347  16.098 -0.1815  0.6723  0.4538
 6972TIP3   OH242406   6.719   5.115  11.884 -0.4345 -0.4496  0.2042
 6972TIP3    H142407   6.726   5.071  11.969 -0.5039 -1.4671 -0.3092
 6972TIP3    H242408   6.633   5.089  11.851 -0.0544 -0.7602 -0.5586
 6973TIP3   OH242409   6.441   0.262  16.920 -0.4728 -0.0503 -0.5463
 6973TIP3    H142410   6.512   0.326  16.924 -0.3063 -0.2782  0.2314
 6973TIP3    H242411   6.410   0.254  17.010 -3.5946  2.3575 -1.2138
 6974TIP3   OH242412   5.219   1.717   2.661 -0.2105 -0.1349 -0.2605
 6974TIP3    H142413   5.166   1.696   2.738 -0.6965  2.3043  0.1529
 6974TIP3    H242414   5.307   1.685   2.683 -0.2790  0.7198  1.4438
 6975TIP3   OH242415   0.248   4.595   5.621  0.2154 -0.3100 -0.1355
 6975TIP3    H142416   0.184   4.666   5.624 -0.2076 -0.6132 -1.4287
 6975TIP3    H242417   0.216   4.537   5.552  0.9341 -1.3979  0.4194
 6976TIP3   OH242418   1.649   2.345   6.121 -0.0323  0.6769 -0.3856
 6976TIP3    H142419   1.583   2.372   6.185 -0.1044 -1.3600  0.4727
 6976TIP3    H242420   1.731   2.344   6.171  0.1685  0.5588 -0.7156
 6977TIP3   OH242421   6.474   5.051  12.611 -0.0875  0.2416 -0.2279
 6977TIP3    H142422   6.459   5.106  12.534  1.3060  1.0914  0.0721
 6977TIP3    H242423   6.438   5.102  12.684  2.9492  1.7833  0.3371
 6978TIP3   OH242424   4.815   5.253   2.278 -0.1965 -0.3593  0.1458
 6978TIP3    H142425   4.862   5.303   2.345 -0.8345 -0.0950  0.3972
 6978TIP3    H242426   4.883   5.198   2.238  1.0321  2.1146 -1.5264
 6979TIP3   OH242427   5.910   2.708   1.087 -0.2210  0.0615 -0.8415
 6979TIP3    H142428   5.947   2.796   1.096  2.1154 -0.7967 -1.3619
 6979TIP3    H242429   5.909   2.693   0.992  0.6252 -0.9277 -0.7090
 6980TIP3   OH242430   1.388   2.197   4.109 -0.3139  0.3601 -0.4688
 6980TIP3    H142431   1.379   2.156   4.195  0.9838  0.8426 -0.0748
 6980TIP3    H242432   1.473   2.240   4.112 -1.6186  3.1553 -0.8360
 6981TIP3   OH242433   6.541   3.907  15.725  0.2031 -0.3911 -0.3336
 6981TIP3    H142434   6.461   3.873  15.766 -0.0108  0.1829 -0.2768
 6981TIP3    H242435   6.563   3.985  15.775  0.6485 -0.3915 -0.5238
 6982TIP3   OH242436   5.230   5.727  12.524  0.1738 -0.4217 -0.2328
 6982TIP3    H142437   5.231   5.707  12.618 -2.0147 -0.2347 -0.1239
 6982TIP3    H242438   5.242   5.642  12.482  0.6034 -0.5838  0.2010
 6983TIP3   OH242439   3.235   6.507   0.279 -0.2621 -0.0864 -0.4955
 6983TIP3    H142440   3.292   6.573   0.239 -2.0404  1.5621 -0.4855
 6983TIP3    H242441   3.248   6.429   0.226  0.7858  0.7213 -1.4868
 6984TIP3   OH242442   4.362   2.358   2.242  0.3196 -0.1418 -0.4524
 6984TIP3    H142443   4.279   2.393   2.210  0.3269 -0.8727 -1.3075
 6984TIP3    H242444   4.428   2.421   2.213  0.1247  0.1879 -0.1915
 6985TIP3   OH242445   2.587   2.341   2.827  0.0999 -0.2843  0.7117
 6985TIP3    H142446   2.552   2.280   2.892 -0.5191 -0.5416  0.1495
 6985TIP3    H242447   2.546   2.425   2.848  0.3517 -0.2349  1.0089
 6986TIP3   OH242448   2.380   6.809   1.563  0.0288  0.3101  0.0727
 6986TIP3    H142449   2.318   6.870   1.603  1.4201  0.3208  2.3957
 6986TIP3    H242450   2.464   6.855   1.567  0.3752  0.0235 -2.3942
 6987TIP3   OH242451   3.946   5.449  15.998 -0.1015 -0.6294  0.0315
 6987TIP3    H142452   3.989   5.451  15.912  0.8683  0.5533  0.5220
 6987TIP3    H242453   4.017   5.459  16.061 -0.9170 -0.3813  0.9393
 6988TIP3   OH242454   6.305   2.097   1.236 -0.1130 -0.0467  0.3492
 6988TIP3    H142455   6.393   2.066   1.256 -0.9013 -2.2445  0.7157
 6988TIP3    H242456   6.256   2.081   1.316 -1.0183  0.5135 -0.0785
 6989TIP3   OH242457   1.190   2.678  15.304 -0.1379 -0.3487 -0.1771
 6989TIP3    H142458   1.222   2.596  15.341 -1.3669 -0.2756  1.1284
 6989TIP3    H242459   1.116   2.702  15.360 -0.0959  1.4071 -0.8250
 6990TIP3   OH242460   4.933   2.674   0.616 -0.4642 -0.2174 -0.7626
 6990TIP3    H142461   4.956   2.653   0.525 -0.4533  0.0925 -0.8319
 6990TIP3    H242462   4.962   2.598   0.666 -0.5250 -0.4178 -1.0268
 6991TIP3   OH242463   1.917   0.380  13.844  0.5408 -0.4520 -0.3473
 6991TIP3    H142464   1.979   0.364  13.773  0.4258 -1.1241 -0.3070
 6991TIP3    H242465   1.944   0.320  13.914  1.4979  1.1525  0.7288
 6992TIP3   OH242466   5.752   2.710   2.844 -0.0650  0.1958  0.6379
 6992TIP3    H142467   5.780   2.801   2.845  1.8696 -0.3057 -0.8221
 6992TIP3    H242468   5.832   2.661   2.825 -1.4125 -1.6510 -0.6269
 6993TIP3   OH242469   0.136   6.640   5.590 -0.8333 -0.2838 -0.1575
 6993TIP3    H142470   0.081   6.669   5.663 -0.9640  1.5568 -0.9404
 6993TIP3    H242471   0.181   6.720   5.561 -1.4414 -0.7840 -2.6535
 6994TIP3   OH242472   5.400   0.019  11.273 -0.6143  0.1625 -0.1246
 6994TIP3    H142473   5.483  -0.028  11.261 -1.0730 -1.4114  2.2243
 6994TIP3    H242474   5.342  -0.018  11.206 -0.9450 -2.8036  1.6163
 6995TIP3   OH242475   5.102   6.414   0.886  0.8276 -0.4000  0.2949
 6995TIP3    H142476   5.058   6.332   0.865  0.6085 -0.5144  1.1703
 6995TIP3    H242477   5.111   6.413   0.982  0.9235  0.5405  0.3048
 6996TIP3   OH242478   0.920   6.572  16.252  0.6871 -0.4336  0.6923
 6996TIP3    H142479   0.853   6.564  16.184  1.5359  2.4392 -0.6476
 6996TIP3    H242480   0.907   6.496  16.308 -3.7077 -0.0094  0.5608
 6997TIP3   OH242481   5.617   3.543   2.410 -0.5197  0.8771  0.3335
 6997TIP3    H142482   5.531   3.575   2.435 -0.4401  0.6472  0.9072
 6997TIP3    H242483   5.636   3.473   2.472 -0.5387 -0.0483 -0.6665
 6998TIP3   OH242484   6.481   4.944  13.582 -0.2480 -0.1209  0.6167
 6998TIP3    H142485   6.505   4.892  13.505 -1.5089 -1.5431  1.1409
 6998TIP3    H242486   6.508   5.033  13.559  0.2974 -0.6684 -1.0703
 6999TIP3   OH242487   0.231   1.723   4.734 -0.1456  0.0953  0.4379
 6999TIP3    H142488   0.191   1.638   4.750 -0.6051  0.3149  0.4846
 6999TIP3    H242489   0.204   1.776   4.810  1.1617 -0.0702  1.0456
 7000TIP3   OH242490   6.371   0.064   1.019 -0.2266  0.4619 -0.1629
 7000TIP3    H142491   6.321   0.111   0.952 -0.3055  0.7442  0.0963
 7000TIP3    H242492   6.417  -0.004   0.970 -0.7835  0.2609 -0.4244
 7001TIP3   OH242493   2.913   3.724  13.954 -0.4467 -0.6810 -0.5633
 7001TIP3    H142494   2.927   3.786  13.882 -0.8826  0.8117  0.5841
 7001TIP3    H242495   2.827   3.686  13.936 -1.4422  1.1241  0.1284
 7002TIP3   OH242496   3.057   1.106   4.421 -0.2724  0.0247  0.8809
 7002TIP3    H142497   3.109   1.178   4.386  1.6139 -1.2100  0.9912
 7002TIP3    H242498   2.981   1.148   4.460 -0.6617  1.7137 -1.5164
 7003TIP3   OH242499   6.266   5.290  11.636  0.1422  0.5125  0.1113
 7003TIP3    H142500   6.205   5.360  11.659 -0.2769 -0.3038  1.6114
 7003TIP3    H242501   6.223   5.209  11.666  1.4859 -0.1836  0.2625
 7004TIP3   OH242502   4.477   0.425  14.502  0.0713  0.0341  0.7669
 7004TIP3    H142503   4.549   0.466  14.550 -0.3054  0.3927  1.0252
 7004TIP3    H242504   4.431   0.373  14.567  0.1717 -0.3056  0.5713
 7005TIP3   OH242505   5.639   2.946   4.883 -0.1032 -0.2233 -0.4957
 7005TIP3    H142506   5.680   3.010   4.940  0.0138 -0.4443 -0.3301
 7005TIP3    H242507   5.605   2.879   4.943  2.3164 -1.8379 -0.7840
 7006TIP3   OH242508   4.284   0.452   6.304  0.3470 -0.3143  0.5410
 7006TIP3    H142509   4.292   0.357   6.302  0.1165 -0.3776  1.6857
 7006TIP3    H242510   4.250   0.471   6.391  1.5820  0.9029  0.7968
 7007TIP3   OH242511   1.051   6.613  14.704 -0.7630  0.3940  0.8790
 7007TIP3    H142512   1.130   6.591  14.753 -1.4806  1.2724  2.5110
 7007TIP3    H242513   0.984   6.556  14.741 -0.8018 -0.8461 -0.9750
 7008TIP3   OH242514   4.997   4.460  10.762  0.9443  0.4448  0.0523
 7008TIP3    H142515   4.930   4.398  10.733  1.6377  0.2541 -1.2075
 7008TIP3    H242516   5.018   4.511  10.684  1.7735  0.9634  0.6011
 7009TIP3   OH242517   4.443   3.030   4.422 -0.1080 -0.0065 -0.5218
 7009TIP3    H142518   4.528   2.985   4.427  1.6497  3.0783  0.2355
 7009TIP3    H242519   4.414   3.036   4.513 -0.3101  0.3605 -0.6111
 7010TIP3   OH242520   4.400   3.499  14.836  0.0245 -0.2650 -0.3727
 7010TIP3    H142521   4.338   3.426  14.839 -0.6537  0.1466  4.7593
 7010TIP3    H242522   4.346   3.575  14.816  0.5905 -0.7592 -4.7896
 7011TIP3   OH242523   3.452   6.142   1.343 -0.5219 -0.1279  0.3661
 7011TIP3    H142524   3.371   6.137   1.291 -0.3045 -0.5303  0.0489
 7011TIP3    H242525   3.464   6.052   1.375  0.8761 -0.5954 -1.2957
 7012TIP3   OH242526   3.378   2.608   4.464 -0.1893 -0.8698  0.7818
 7012TIP3    H142527   3.449   2.607   4.527  0.5669 -1.7478 -0.0501
 7012TIP3    H242528   3.421   2.616   4.379 -1.2142  0.9202  0.3859
 7013TIP3   OH242529   3.118   6.087   1.467 -0.1286 -0.0514 -0.5367
 7013TIP3    H142530   3.032   6.123   1.446  0.2978  1.1293 -0.3076
 7013TIP3    H242531   3.169   6.098   1.387  0.1982  0.4565 -0.2594
 7014TIP3   OH242532   0.179   0.435   5.208  0.2822  0.4422 -0.4281
 7014TIP3    H142533   0.228   0.509   5.172  3.4305 -1.1695  0.2480
 7014TIP3    H242534   0.151   0.385   5.132  1.2429  0.4829 -0.8190
 7015TIP3   OH242535   4.454   5.138  10.796 -0.5793  0.4830  0.2126
 7015TIP3    H142536   4.495   5.052  10.796  0.8599  1.0521 -2.5627
 7015TIP3    H242537   4.415   5.147  10.709  0.3941  3.0654 -0.0711
 7016TIP3   OH242538   1.659   0.593  15.749  0.5063  0.4258  0.5711
 7016TIP3    H142539   1.653   0.500  15.725 -2.1069  0.1929  1.7827
 7016TIP3    H242540   1.714   0.594  15.827  1.2458  0.0049  0.0615
 7017TIP3   OH242541   6.549   2.228   1.735  0.7157  0.2129  0.1868
 7017TIP3    H142542   6.549   2.249   1.828  0.5712  1.5277 -0.1001
 7017TIP3    H242543   6.598   2.146   1.730  2.1342  0.9531  1.2429
 7018TIP3   OH242544   6.527   4.641   2.804  0.3689 -0.1499  0.1064
 7018TIP3    H142545   6.479   4.609   2.880  0.1569 -0.3662 -0.1214
 7018TIP3    H242546   6.520   4.737   2.810  0.0040 -0.1781  0.1307
 7019TIP3   OH242547   4.843   6.587   3.917  0.4912 -0.0053  0.2139
 7019TIP3    H142548   4.881   6.610   3.833 -1.8005 -1.8827 -1.4583
 7019TIP3    H242549   4.781   6.657   3.935  1.7903  0.9997  0.9965
 7020TIP3   OH242550   6.632   1.124   0.716 -0.1717 -0.0048 -0.4638
 7020TIP3    H142551   6.678   1.044   0.688  0.0699 -0.5724  1.3913
 7020TIP3    H242552   6.643   1.185   0.643  1.7095 -0.8534 -0.9648
 7021TIP3   OH242553   5.687   0.188   2.740  0.7332 -0.4227 -0.5209
 7021TIP3    H142554   5.764   0.196   2.685 -0.1546 -1.1947 -1.9340
 7021TIP3    H242555   5.650   0.276   2.744  1.2445 -0.2089 -0.4844
 7022TIP3   OH242556   2.409   0.822  16.513  0.1193  0.0114 -0.2380
 7022TIP3    H142557   2.377   0.748  16.565 -0.5432 -0.7420 -1.6797
 7022TIP3    H242558   2.330   0.866  16.483  0.5028  1.8597  1.3059
 7023TIP3   OH242559   6.372   5.909   1.516  0.0955  0.2789  0.3703
 7023TIP3    H142560   6.424   5.831   1.533  0.2716  0.6178  1.4767
 7023TIP3    H242561   6.341   5.937   1.603 -0.9002  0.7920 -0.1223
 7024TIP3   OH242562   6.085   5.789  14.467 -0.0803  0.2922 -0.2723
 7024TIP3    H142563   6.054   5.841  14.394  2.4822  0.7060 -1.1574
 7024TIP3    H242564   6.181   5.790  14.459  0.2907 -0.0772  2.7810
 7025TIP3   OH242565   0.423   5.552  12.890  0.6540  0.1241 -0.5546
 7025TIP3    H142566   0.340   5.592  12.865 -0.3415 -0.5730  1.4208
 7025TIP3    H242567   0.421   5.464  12.852 -1.4332 -1.4208  2.6467
 7026TIP3   OH242568   5.290   1.056  14.670  0.2150  0.1075  0.2182
 7026TIP3    H142569   5.274   1.001  14.593  0.6046  2.9412 -2.0355
 7026TIP3    H242570   5.373   1.023  14.705  0.4001 -0.7841 -0.9877
 7027TIP3   OH242571   4.488   1.144   2.749 -0.4357 -0.4098  0.0413
 7027TIP3    H142572   4.505   1.139   2.843  0.4562 -0.8931 -0.1409
 7027TIP3    H242573   4.573   1.163   2.710 -0.8789  0.2076 -0.6398
 7028TIP3   OH242574   4.447   1.606  12.352 -0.4990 -0.0012  0.3334
 7028TIP3    H142575   4.466   1.592  12.259 -1.3479  0.3839  0.0884
 7028TIP3    H242576   4.477   1.526  12.395  1.3859  0.4717 -0.0338
 7029TIP3   OH242577   3.469   5.528   4.179  0.0046 -0.3841 -0.1203
 7029TIP3    H142578   3.430   5.450   4.139  1.7515 -0.2647 -2.2254
 7029TIP3    H242579   3.467   5.594   4.110 -3.8728  2.4968  2.3235
 7030TIP3   OH242580   0.262   4.265   1.177  0.4576 -0.4223  0.1938
 7030TIP3    H142581   0.252   4.195   1.112 -1.2225 -3.0125  2.9974
 7030TIP3    H242582   0.173   4.298   1.190  0.5381 -0.8849  2.0907
 7031TIP3   OH242583   0.220   3.169   5.744  0.1279  0.0563  0.2247
 7031TIP3    H142584   0.272   3.217   5.808 -0.8070  0.8702  0.4020
 7031TIP3    H242585   0.141   3.222   5.733  0.5142  0.2705 -2.0651
 7032TIP3   OH242586   1.911   5.884  13.870 -0.2670  0.5285  0.1280
 7032TIP3    H142587   1.926   5.793  13.841 -1.1846  0.7725 -1.2116
 7032TIP3    H242588   1.985   5.933  13.833 -1.1815  0.7550 -1.5310
 7033TIP3   OH242589   3.548   2.768   3.437  0.0160  0.1589  0.0390
 7033TIP3    H142590   3.626   2.754   3.383  1.7590 -1.2059  2.6486
 7033TIP3    H242591   3.502   2.684   3.434 -1.0766  0.7677 -0.9977
 7034TIP3   OH242592   2.032   5.869   2.517  0.7414  0.7371  0.1641
 7034TIP3    H142593   1.974   5.929   2.469  1.2164  0.2099 -1.1119
 7034TIP3    H242594   2.023   5.895   2.609 -0.9664  1.1346 -0.0853
 7035TIP3   OH242595   5.617   2.227   5.996 -0.2756  0.4930  0.3574
 7035TIP3    H142596   5.699   2.185   6.021 -0.6221  0.6100  1.7839
 7035TIP3    H242597   5.552   2.190   6.055 -1.6247 -0.8653 -1.8263
 7036TIP3   OH242598   1.466   4.798  12.020 -0.1241  0.1563  0.0837
 7036TIP3    H142599   1.377   4.765  12.003  0.1694 -0.7824  0.2977
 7036TIP3    H242600   1.513   4.722  12.054  0.6111  0.7922  0.5151
 7037TIP3   OH242601   6.066   3.817   0.219 -0.5490  0.4472 -0.8217
 7037TIP3    H142602   6.127   3.873   0.268 -2.0620  1.8195 -0.4210
 7037TIP3    H242603   6.120   3.776   0.152  1.1113  0.4158  0.4635
 7038TIP3   OH242604   5.290   3.855   3.119  0.6909 -0.2527 -0.5297
 7038TIP3    H142605   5.333   3.908   3.186 -0.1642 -0.1444 -0.0569
 7038TIP3    H242606   5.251   3.782   3.168 -0.2176 -0.0007 -0.8506
 7039TIP3   OH242607   0.804   0.642  13.377 -0.0649  0.2488  0.4321
 7039TIP3    H142608   0.743   0.671  13.445 -1.3523 -1.7419  0.2351
 7039TIP3    H242609   0.816   0.549  13.395  0.8688  0.0404 -1.1048
 7040TIP3   OH242610   2.473   2.811   4.782  0.0586 -0.4217  0.5324
 7040TIP3    H142611   2.382   2.782   4.779  0.2861 -1.0653 -0.6943
 7040TIP3    H242612   2.504   2.784   4.868 -0.0327 -2.9873 -0.1731
 7041TIP3   OH242613   0.849   3.775   6.145  0.2740  0.0488 -0.5237
 7041TIP3    H142614   0.879   3.820   6.066  1.0019  0.8151  0.1601
 7041TIP3    H242615   0.894   3.821   6.216 -2.0426  0.8563  0.5232
 7042TIP3   OH242616   6.810   4.112  13.706  0.0505 -0.4076 -0.1598
 7042TIP3    H142617   6.889   4.070  13.741  0.7304  0.3516 -0.7471
 7042TIP3    H242618   6.740   4.081  13.763  0.6324 -1.7715 -0.1413
 7043TIP3   OH242619   0.623   1.551   3.118  0.0833  0.2827  0.0720
 7043TIP3    H142620   0.583   1.540   3.204  0.5865 -0.8571  0.1871
 7043TIP3    H242621   0.634   1.461   3.085 -2.1447  0.7179 -2.1680
 7044TIP3   OH242622   0.622   6.196   0.923  0.6631 -0.1344  0.1816
 7044TIP3    H142623   0.705   6.166   0.961 -0.4009 -2.0196  1.1348
 7044TIP3    H242624   0.555   6.163   0.982 -0.9184 -0.6560 -1.7867
 7045TIP3   OH242625   4.566   3.735   2.723 -0.4729  0.0012  0.1749
 7045TIP3    H142626   4.512   3.814   2.715 -0.5840 -0.2246 -1.7288
 7045TIP3    H242627   4.508   3.663   2.698  0.0048 -0.5300  0.5714
 7046TIP3   OH242628   3.057   0.202   3.433 -0.6068 -0.4172 -0.5765
 7046TIP3    H142629   3.040   0.108   3.429 -0.5675 -0.6171  2.1751
 7046TIP3    H242630   2.982   0.238   3.480  0.9595  0.3569  1.4784
 7047TIP3   OH242631   4.902   5.903  14.770 -0.3061 -0.6687 -0.3920
 7047TIP3    H142632   4.985   5.854  14.772  0.4391  0.5515  0.3803
 7047TIP3    H242633   4.837   5.841  14.802  0.9940 -0.5630  2.8561
 7048TIP3   OH242634   4.339   1.013   0.419 -0.1699  0.0005  0.1075
 7048TIP3    H142635   4.343   1.040   0.511 -0.0827  0.3716 -0.0004
 7048TIP3    H242636   4.300   0.926   0.420 -0.5388  0.1685  0.4663
 7049TIP3   OH242637   5.680   0.111  12.043  0.2947 -0.2111 -0.6957
 7049TIP3    H142638   5.626   0.131  12.119 -2.5603 -0.8550 -2.4045
 7049TIP3    H242639   5.622   0.063  11.984  2.9590 -1.5582 -2.4460
 7050TIP3   OH242640   5.860   5.604   5.218 -0.0483  0.5242  0.2619
 7050TIP3    H142641   5.792   5.544   5.249  0.2439  0.1964  0.2768
 7050TIP3    H242642   5.873   5.665   5.291  0.8554 -0.4295  0.9265
 7051TIP3   OH242643   1.784   2.374  13.124  0.5218  0.0203 -0.2873
 7051TIP3    H142644   1.817   2.417  13.045  0.8111 -0.1486 -0.2598
 7051TIP3    H242645   1.853   2.387  13.189  0.5185 -0.3035 -0.2185
 7052TIP3   OH242646   0.128   6.593  15.703  0.2883 -0.3330  0.2505
 7052TIP3    H142647   0.217   6.607  15.735  0.1522  0.3225  0.3590
 7052TIP3    H242648   0.074   6.651  15.756 -0.3203 -1.2857  0.7181
 7053TIP3   OH242649   3.921   2.080   4.622 -0.0073  0.4188 -0.3068
 7053TIP3    H142650   3.881   2.049   4.703 -0.8610  2.7558  0.2614
 7053TIP3    H242651   3.973   2.156   4.648 -1.4393  2.1127 -2.0795
 7054TIP3   OH242652   1.240   0.727   1.413  0.6023 -0.4916 -0.3059
 7054TIP3    H142653   1.169   0.735   1.348 -0.7730 -0.1287  1.1681
 7054TIP3    H242654   1.254   0.633   1.420  0.1412 -0.5813 -0.4993
 7055TIP3   OH242655   4.410   0.701   4.802 -0.3316  0.4218  0.2531
 7055TIP3    H142656   4.483   0.743   4.757  1.0065 -0.1339  1.7945
 7055TIP3    H242657   4.370   0.771   4.854  2.0673 -0.0599  3.0358
 7056TIP3   OH242658   5.993   3.828  13.581 -0.1975 -0.4895  0.4641
 7056TIP3    H142659   5.936   3.787  13.645 -0.8945 -0.4474 -0.1218
 7056TIP3    H242660   5.934   3.878  13.524  0.6134  1.4536  1.2309
 7057TIP3   OH242661   5.914   3.926  11.424 -0.2113  0.4009  0.3303
 7057TIP3    H142662   5.964   4.008  11.418  0.1563  0.0815 -2.1003
 7057TIP3    H242663   5.868   3.920  11.340 -2.9884 -0.2216  1.7911
 7058TIP3   OH242664   2.335   2.085  15.381  0.6540  0.2972 -0.1508
 7058TIP3    H142665   2.332   2.168  15.334 -0.5190 -0.6263 -1.7859
 7058TIP3    H242666   2.248   2.074  15.418  1.2074  0.4224  1.2643
 7059TIP3   OH242667   2.910   4.900   1.508  0.2864 -0.0511  0.3466
 7059TIP3    H142668   2.966   4.967   1.546  1.0517  0.0233 -0.8922
 7059TIP3    H242669   2.942   4.818   1.546  0.6773  0.0723  0.2867
 7060TIP3   OH242670   2.621   3.843   6.684  0.2657  0.0415  0.0297
 7060TIP3    H142671   2.668   3.798   6.754 -2.6122 -2.4125  0.6190
 7060TIP3    H242672   2.683   3.846   6.611  1.7385 -1.9547  1.0934
 7061TIP3   OH242673   6.798   4.221  10.720 -0.1966 -0.3004 -0.2788
 7061TIP3    H142674   6.886   4.256  10.736 -0.1052 -0.7896  0.3313
 7061TIP3    H242675   6.768   4.266  10.641  0.0961  0.8226  0.2300
 7062TIP3   OH242676   5.021   6.720   0.533  0.5733 -0.0885  0.2068
 7062TIP3    H142677   4.936   6.754   0.561  1.5925  1.2331  1.8977
 7062TIP3    H242678   5.015   6.626   0.550 -0.2870  0.0974  1.0663
 7063TIP3   OH242679   4.685   2.016  11.433 -0.4502 -0.1714 -0.6495
 7063TIP3    H142680   4.643   1.930  11.431 -0.2641 -0.2646 -0.6638
 7063TIP3    H242681   4.779   1.996  11.441 -0.2147 -0.0209 -2.5855
 7064TIP3   OH242682   2.024   5.244  16.079  0.3447  0.1520 -0.0648
 7064TIP3    H142683   2.061   5.279  16.160 -0.0931  0.6568 -0.0746
 7064TIP3    H242684   1.982   5.320  16.037  1.4057  0.1216 -1.2484
 7065TIP3   OH242685   6.484   4.862   2.151 -0.7389 -0.1271  0.4167
 7065TIP3    H142686   6.550   4.794   2.167 -0.7716  0.0751  1.5076
 7065TIP3    H242687   6.407   4.814   2.121  0.0042 -0.3363 -1.3194
 7066TIP3   OH242688   3.046   2.624   6.668 -0.0850  0.2766 -0.0097
 7066TIP3    H142689   2.954   2.623   6.639 -0.2253  1.5558  0.3179
 7066TIP3    H242690   3.050   2.697   6.731  1.1622  0.2479 -0.0377
 7067TIP3   OH242691   4.117   1.925  15.571  0.2387 -0.3676 -0.4725
 7067TIP3    H142692   4.024   1.920  15.592  0.3203  1.4465  0.5631
 7067TIP3    H242693   4.119   1.948  15.478 -0.3101 -1.0562 -0.6642
 7068TIP3   OH242694   0.329   1.510   5.508 -0.1658 -0.1491 -0.0911
 7068TIP3    H142695   0.345   1.590   5.458 -0.2336  0.6465  1.1299
 7068TIP3    H242696   0.326   1.539   5.599  0.7097 -1.6862  0.4454
 7069TIP3   OH242697   1.692   2.311  16.767  0.7490 -0.6833 -0.2392
 7069TIP3    H142698   1.601   2.326  16.743  0.5422 -1.7377 -0.1678
 7069TIP3    H242699   1.740   2.322  16.685  0.9435  2.4882  0.1690
 7070TIP3   OH242700   6.070   1.970   1.727 -0.7971  0.0350 -0.1348
 7070TIP3    H142701   5.999   2.011   1.777  0.1525  0.3075  1.0114
 7070TIP3    H242702   6.052   1.876   1.733 -0.7331  0.0704  0.6558
 7071TIP3   OH242703   4.993   0.190  14.376 -0.3757  1.1190 -0.0751
 7071TIP3    H142704   4.911   0.211  14.421 -0.4041 -0.4568  0.6859
 7071TIP3    H242705   4.980   0.100  14.345  1.4640  0.4221  1.0548
 7072TIP3   OH242706   5.422   2.970   5.481 -0.3334 -0.0250 -0.2826
 7072TIP3    H142707   5.468   3.052   5.495 -0.7951  0.0929  0.6251
 7072TIP3    H242708   5.356   2.967   5.550 -0.1736 -1.2643 -0.1612
 7073TIP3   OH242709   4.540   0.569  13.365 -0.0055  0.2575 -0.0839
 7073TIP3    H142710   4.591   0.587  13.286 -0.9224 -1.1930 -1.0637
 7073TIP3    H242711   4.579   0.489  13.400  0.2646  0.7833  0.8332
 7074TIP3   OH242712   2.274   0.311  11.334 -0.0700  0.0589 -0.5011
 7074TIP3    H142713   2.292   0.256  11.410 -0.8606 -0.8335 -0.9357
 7074TIP3    H242714   2.254   0.397  11.371  1.7125  0.2257  0.1573
 7075TIP3   OH242715   4.558   6.594   2.662 -0.7471 -0.2131  0.0701
 7075TIP3    H142716   4.623   6.544   2.613 -0.2080  1.1296 -0.6302
 7075TIP3    H242717   4.587   6.684   2.655 -0.0217 -0.0323  3.8471
 7076TIP3   OH242718   5.337   6.611  17.163  0.2900 -0.1598  0.2108
 7076TIP3    H142719   5.430   6.629  17.167  0.4918 -0.7084 -1.4045
 7076TIP3    H242720   5.316   6.573  17.249  1.5769 -0.2530  0.4958
 7077TIP3   OH242721   4.380   2.666   5.546  0.5191 -0.3126  0.3748
 7077TIP3    H142722   4.428   2.737   5.588  2.1288 -1.2123  0.1291
 7077TIP3    H242723   4.392   2.681   5.452  0.4193 -0.6260  0.3108
 7078TIP3   OH242724   5.843   4.852  12.866 -0.5971  0.3039 -0.3250
 7078TIP3    H142725   5.797   4.800  12.800  1.7559 -1.0424 -1.0080
 7078TIP3    H242726   5.894   4.915  12.815  0.5532 -0.1565  0.2179
 7079TIP3   OH242727   3.819   0.517  11.399 -0.1798  0.1054  0.9444
 7079TIP3    H142728   3.874   0.528  11.321  1.0668 -0.0480  1.7752
 7079TIP3    H242729   3.881   0.501  11.470 -1.2671  0.6361  2.0492
 7080TIP3   OH242730   5.109   1.591   2.328 -0.4822  0.2231  0.0010
 7080TIP3    H142731   5.136   1.682   2.330  0.5909 -0.0330  2.6607
 7080TIP3    H242732   5.123   1.563   2.238  2.0083  1.9213 -0.2583
 7081TIP3   OH242733   4.657   4.351  14.848  0.3303 -0.4292 -0.4423
 7081TIP3    H142734   4.675   4.305  14.930 -3.4195 -0.4742  0.5259
 7081TIP3    H242735   4.622   4.284  14.790 -1.6559  0.4290 -0.3094
 7082TIP3   OH242736   4.163   5.570  16.184  0.6426  0.1508  0.5456
 7082TIP3    H142737   4.143   5.478  16.204 -0.8213 -0.2357 -2.2468
 7082TIP3    H242738   4.253   5.568  16.152 -0.8700 -1.4270 -4.5290
 7083TIP3   OH242739   0.866   1.083   4.237  0.3532 -0.3747 -0.4530
 7083TIP3    H142740   0.958   1.080   4.210 -0.3661  0.6692 -3.4886
 7083TIP3    H242741   0.837   1.171   4.212 -1.3908 -0.5700  0.7344
 7084TIP3   OH242742   3.081   6.369   1.111 -0.2450 -0.6746  0.1062
 7084TIP3    H142743   3.099   6.389   1.203 -0.6031 -0.5205  0.1467
 7084TIP3    H242744   3.053   6.453   1.074 -1.8785 -1.0843  0.3027
 7085TIP3   OH242745   6.807   0.485  16.636  0.0533 -0.0885 -0.0084
 7085TIP3    H142746   6.850   0.421  16.579  0.6420 -1.0110  1.4110
 7085TIP3    H242747   6.843   0.468  16.723  0.1043  2.0730  0.4599
 7086TIP3   OH242748   5.438   0.010   3.637  0.6960 -0.0674 -0.3180
 7086TIP3    H142749   5.474  -0.038   3.563  1.3873 -0.7277  0.4257
 7086TIP3    H242750   5.344  -0.001   3.630  0.7968 -0.6912 -0.7221
 7087TIP3   OH242751   0.438   1.115  17.173  0.1616  0.1968 -0.0060
 7087TIP3    H142752   0.447   1.028  17.133  1.5965  0.3976 -0.1810
 7087TIP3    H242753   0.381   1.100  17.249  0.2863 -0.8845 -0.0984
 7088TIP3   OH242754   2.739   5.648  13.517  0.6043 -0.5393  0.0059
 7088TIP3    H142755   2.704   5.573  13.564 -0.4842  0.3638  0.6823
 7088TIP3    H242756   2.801   5.688  13.578  0.8993 -0.6694 -0.2076
 7089TIP3   OH242757   2.359   1.755   5.232 -0.7063  0.0347  0.4905
 7089TIP3    H142758   2.446   1.731   5.200 -1.5140 -0.9675 -1.1135
 7089TIP3    H242759   2.318   1.800   5.158 -1.2570  1.3151  1.5314
 7090TIP3   OH242760   3.761   0.902   0.463 -0.1583 -0.4872 -0.2246
 7090TIP3    H142761   3.787   0.928   0.375 -0.7206 -0.8993 -0.5218
 7090TIP3    H242762   3.690   0.838   0.449  0.2961 -1.1658  0.5092
 7091TIP3   OH242763   0.357   0.068   6.051 -0.2855  0.0451  0.4507
 7091TIP3    H142764   0.374   0.158   6.022 -0.8299 -0.4561 -1.5495
 7091TIP3    H242765   0.361   0.073   6.147  0.2180  2.0833  0.3758
 7092TIP3   OH242766   2.992   3.064   6.261  0.2744  0.3499 -0.0587
 7092TIP3    H142767   2.970   3.000   6.329  1.1043  0.1483  0.0406
 7092TIP3    H242768   2.992   3.148   6.306 -1.4216  0.5214 -0.3208
 7093TIP3   OH242769   4.339   3.898  14.325  0.2536 -0.0583  0.2041
 7093TIP3    H142770   4.416   3.947  14.295 -0.1100  0.6137  0.3392
 7093TIP3    H242771   4.284   3.964  14.367 -0.0220 -0.6810  0.8428
 7094TIP3   OH242772   1.804   2.088   2.812 -0.2025  0.3210 -0.1967
 7094TIP3    H142773   1.742   2.059   2.745 -1.9909  1.2575  0.9867
 7094TIP3    H242774   1.805   2.183   2.805 -0.5863  0.4523  1.2283
 7095TIP3   OH242775   5.696   3.173  11.704  0.2014 -0.4228  0.0234
 7095TIP3    H142776   5.729   3.262  11.716  0.4687 -0.0968 -2.5175
 7095TIP3    H242777   5.622   3.166  11.764 -0.1625  1.6975 -0.1114
 7096TIP3   OH242778   4.698   3.366   4.685 -0.4058  1.0882 -0.0460
 7096TIP3    H142779   4.764   3.393   4.622 -0.6092  1.4653 -0.1025
 7096TIP3    H242780   4.686   3.272   4.670 -1.5906  1.4496 -1.6507
 7097TIP3   OH242781   4.975   0.305   1.030 -0.0105 -0.4749  0.1808
 7097TIP3    H142782   5.006   0.341   1.114 -3.8744  0.8123  1.2741
 7097TIP3    H242783   4.959   0.382   0.976  1.8581 -1.2708 -1.6400
 7098TIP3   OH242784   2.588   6.471   2.896  0.5843 -0.1793  0.3632
 7098TIP3    H142785   2.618   6.431   2.814  0.8237  2.0244 -0.7057
 7098TIP3    H242786   2.585   6.565   2.877 -0.7300  0.2731  2.4730
 7099TIP3   OH242787   1.496   1.973  13.755 -0.6275  0.1155  0.0905
 7099TIP3    H142788   1.528   2.030  13.685 -1.5123  3.3145  2.0746
 7099TIP3    H242789   1.572   1.922  13.782  0.2879  0.4912 -1.6484
 7100TIP3   OH242790   3.427   5.297  11.235  0.2332  0.3354  0.0838
 7100TIP3    H142791   3.516   5.266  11.219  0.8693  1.2390  1.6684
 7100TIP3    H242792   3.382   5.285  11.152  1.2800 -1.9480 -0.2230
 7101TIP3   OH242793   4.447   0.829   3.742  0.6849  0.6761 -0.0688
 7101TIP3    H142794   4.456   0.859   3.651 -1.4477  0.6492 -0.3378
 7101TIP3    H242795   4.534   0.796   3.765  0.8999 -0.7954 -2.6338
 7102TIP3   OH242796   0.749   5.826   4.469  0.1286  0.1551 -0.2403
 7102TIP3    H142797   0.797   5.781   4.538 -0.6394  0.6165  0.6160
 7102TIP3    H242798   0.812   5.889   4.434  0.0690  1.0341  1.1448
 7103TIP3   OH242799   0.468   5.105   4.451  0.2309 -0.3156  0.6034
 7103TIP3    H142800   0.407   5.167   4.410  0.1561 -0.9148 -0.2384
 7103TIP3    H242801   0.525   5.159   4.505  0.8414  0.6291 -0.9266
 7104TIP3   OH242802   1.413   2.197   5.821  0.5066 -0.3141  0.0445
 7104TIP3    H142803   1.367   2.114   5.805  0.5267 -0.5130  0.9672
 7104TIP3    H242804   1.504   2.172   5.835  0.4379 -0.1851  0.7513
 7105TIP3   OH242805   4.382   2.724  11.893  0.1338  0.7817  0.2736
 7105TIP3    H142806   4.323   2.742  11.820 -0.3160  1.0246  0.6883
 7105TIP3    H242807   4.432   2.647  11.865 -2.3891 -1.3072  1.0275
 7106TIP3   OH242808   5.227   5.170  13.049 -0.2106  0.1128  0.4497
 7106TIP3    H142809   5.199   5.237  13.112  2.3903  1.7174  0.0387
 7106TIP3    H242810   5.314   5.143  13.079 -0.1219 -1.2200 -0.8677
 7107TIP3   OH242811   1.207   1.678   5.097 -0.4084 -0.0572 -0.3944
 7107TIP3    H142812   1.137   1.720   5.047  0.4312  1.2892 -0.4969
 7107TIP3    H242813   1.168   1.598   5.131 -2.2669  1.0662  0.2592
 7108TIP3   OH242814   0.104   1.583  17.190 -0.0673  0.3620 -0.1847
 7108TIP3    H142815   0.050   1.659  17.170 -0.1856  0.1932 -0.5234
 7108TIP3    H242816   0.090   1.567  17.283 -1.1377 -0.0902 -0.4105
 7109TIP3   OH242817   4.043   6.227  12.990 -0.1811 -0.2671 -0.1399
 7109TIP3    H142818   4.118   6.225  12.930  2.2396  0.8434  2.5975
 7109TIP3    H242819   4.058   6.155  13.051 -1.7324 -0.4342  0.0949
 7110TIP3   OH242820   6.483   4.322   3.698  0.2438 -0.3009 -0.0285
 7110TIP3    H142821   6.412   4.320   3.633 -0.0301  1.8571  0.1482
 7110TIP3    H242822   6.518   4.411   3.692  2.1757 -0.9669  0.7315
 7111TIP3   OH242823   3.678   6.587   2.011 -0.1377 -0.2185 -0.2996
 7111TIP3    H142824   3.734   6.658   2.042  0.0671 -0.3653 -0.3388
 7111TIP3    H242825   3.706   6.510   2.060  0.7175 -0.6287 -1.4097
 7112TIP3   OH242826   4.345   1.317  14.291 -0.1688 -0.2984 -0.0473
 7112TIP3    H142827   4.352   1.240  14.348  0.7337 -1.7073 -1.9467
 7112TIP3    H242828   4.365   1.391  14.349  0.2016 -1.5914  1.5718
 7113TIP3   OH242829   1.426   1.510   6.002  0.0866  0.0138 -0.5649
 7113TIP3    H142830   1.385   1.425   6.015  0.6407 -0.3759 -1.3178
 7113TIP3    H242831   1.480   1.524   6.079  0.4284 -0.5718 -0.6951
 7114TIP3   OH242832   3.469   1.129   2.111  0.1313 -0.3012  0.0158
 7114TIP3    H142833   3.476   1.210   2.161  0.4775 -1.2890  1.6359
 7114TIP3    H242834   3.560   1.100   2.100  0.0291 -0.3403 -0.8262
 7115TIP3   OH242835   1.909   2.516  14.668 -0.1410  0.2017  0.1791
 7115TIP3    H142836   1.848   2.476  14.729 -0.2572 -0.7934 -0.5585
 7115TIP3    H242837   1.974   2.560  14.723  0.0469 -1.1032  1.0283
 7116TIP3   OH242838   0.114   3.569  15.730 -0.0467  0.4019  0.7350
 7116TIP3    H142839   0.169   3.506  15.778 -0.7231 -2.0700 -1.5260
 7116TIP3    H242840   0.026   3.532  15.734 -0.3778  0.9195 -1.1065
 7117TIP3   OH242841   5.578   1.912   0.135 -0.4595 -0.0052 -0.1003
 7117TIP3    H142842   5.671   1.935   0.124 -0.1595 -0.3965  1.4142
 7117TIP3    H242843   5.579   1.820   0.161 -1.5175 -1.2108 -3.7455
 7118TIP3   OH242844   3.230   1.344   1.282  0.0611 -0.0552 -0.4332
 7118TIP3    H142845   3.208   1.412   1.219 -0.7497 -0.3440 -0.4682
 7118TIP3    H242846   3.182   1.266   1.253 -1.1512  0.0707  1.0809
 7119TIP3   OH242847   4.136   2.970  15.492  0.1880  0.1798  0.5138
 7119TIP3    H142848   4.183   2.913  15.432 -1.5359  0.1192 -0.8782
 7119TIP3    H242849   4.186   3.051  15.493  1.0743 -0.3480  0.2195
 7120TIP3   OH242850   3.262   4.110  11.139  0.0863  0.3178 -0.2562
 7120TIP3    H142851   3.337   4.170  11.133  0.3506 -0.0292 -0.4908
 7120TIP3    H242852   3.216   4.122  11.056 -1.0914  1.7748  0.5565
 7121TIP3   OH242853   2.609   2.871  11.202  0.3610 -0.2081 -0.0269
 7121TIP3    H142854   2.684   2.847  11.256 -1.2545 -1.8089  1.6070
 7121TIP3    H242855   2.648   2.894  11.117  3.0427  2.7168  1.7386
 7122TIP3   OH242856   4.223   5.897  16.702 -0.0088 -0.1635 -0.1446
 7122TIP3    H142857   4.182   5.830  16.647  0.1200 -0.1406 -0.2659
 7122TIP3    H242858   4.315   5.896  16.677 -0.1949  0.8197 -0.9310
 7123TIP3   OH242859   3.990   2.053  10.764  0.0241  0.3470 -0.6324
 7123TIP3    H142860   4.000   2.119  10.695 -0.6534  0.5065 -0.5808
 7123TIP3    H242861   4.067   1.997  10.755 -0.5834 -0.2702 -2.1879
 7124TIP3   OH242862   3.752   2.351  14.591 -0.7068 -0.6111  0.6830
 7124TIP3    H142863   3.664   2.387  14.599 -0.8894 -1.2453  1.6685
 7124TIP3    H242864   3.808   2.412  14.639 -0.7255 -0.6182  0.7135
 7125TIP3   OH242865   3.626   2.408   4.550 -0.2286  0.0677 -0.1475
 7125TIP3    H142866   3.642   2.499   4.573  0.2087 -0.0856  0.1796
 7125TIP3    H242867   3.555   2.380   4.608 -0.5043  0.2596 -0.3938
 7126TIP3   OH242868   6.341   5.240  12.769  0.0772  0.3807 -0.1031
 7126TIP3    H142869   6.274   5.297  12.731 -1.8775  0.0431  2.5431
 7126TIP3    H242870   6.402   5.300  12.811  1.5808  0.6905 -2.5162
 7127TIP3   OH242871   4.583   1.636  15.401  0.6523 -0.2666 -0.5380
 7127TIP3    H142872   4.677   1.639  15.386  0.5283 -2.9173 -2.4747
 7127TIP3    H242873   4.565   1.546  15.428 -1.6287 -0.7523 -3.2209
 7128TIP3   OH242874   5.584   3.489  15.965  0.0459  0.2592  0.6258
 7128TIP3    H142875   5.534   3.486  15.884 -0.6848  1.3334  1.0180
 7128TIP3    H242876   5.533   3.436  16.027 -0.1157  0.5712  0.7615
 7129TIP3   OH242877   4.209   4.147  14.321  0.5582  0.2270  0.3631
 7129TIP3    H142878   4.269   4.167  14.249 -1.2055  3.8301 -0.3589
 7129TIP3    H242879   4.144   4.089  14.282  0.4696  0.9142 -0.5457
 7130TIP3   OH242880   1.663   4.363   1.664  0.4431  0.0590  0.0106
 7130TIP3    H142881   1.628   4.359   1.575 -0.0133 -3.6077  0.2269
 7130TIP3    H242882   1.590   4.394   1.718  0.2961  0.9056 -0.6424
 7131TIP3   OH242883   0.453   2.893  13.430  0.5166  0.5460 -0.0926
 7131TIP3    H142884   0.401   2.969  13.403  1.3763  0.6426 -1.6134
 7131TIP3    H242885   0.393   2.819  13.424  0.3827  0.7327 -1.3279
 7132TIP3   OH242886   6.309   1.392  16.055 -0.7096 -0.3360  0.0665
 7132TIP3    H142887   6.294   1.436  15.971  1.4234  0.4483  0.0126
 7132TIP3    H242888   6.222   1.367  16.085 -1.6782  0.7420 -1.6367
 7133TIP3   OH242889   2.672   4.240   4.471  0.3862  0.6039  0.2753
 7133TIP3    H142890   2.731   4.295   4.522 -0.0134  1.9613 -0.6522
 7133TIP3    H242891   2.584   4.273   4.492 -0.1615 -1.7348  2.0515
 7134TIP3   OH242892   1.628   4.774  16.708  0.2666 -0.1919  0.1343
 7134TIP3    H142893   1.674   4.832  16.648 -1.0693  2.1443  1.2562
 7134TIP3    H242894   1.649   4.807  16.795 -1.4001 -0.7208  0.7736
 7135TIP3   OH242895   0.377   0.353   1.182 -0.5116  0.1220  0.4074
 7135TIP3    H142896   0.357   0.300   1.105 -0.4537 -0.7621  0.9760
 7135TIP3    H242897   0.469   0.377   1.173 -1.2174  2.5248 -1.2382
 7136TIP3   OH242898   0.940   5.802  13.041 -0.0512 -0.5042 -0.3591
 7136TIP3    H142899   0.938   5.796  13.136 -2.3471 -0.9582 -0.3840
 7136TIP3    H242900   0.998   5.876  13.023 -1.6480  1.3280  1.5298
 7137TIP3   OH242901   5.447   4.677   4.071  0.0333  0.3337 -0.2692
 7137TIP3    H142902   5.501   4.601   4.048 -0.2321 -0.0750  0.4276
 7137TIP3    H242903   5.424   4.717   3.986 -2.5245 -2.2282 -0.9580
 7138TIP3   OH242904   2.550   5.972  13.988  0.3458  0.2802 -0.1926
 7138TIP3    H142905   2.490   5.898  13.992  2.7489 -1.7697 -0.0787
 7138TIP3    H242906   2.577   5.986  14.079  1.1330  0.2106 -0.4080
 7139TIP3   OH242907   0.986   0.217   0.632  0.8598 -0.5948 -0.4144
 7139TIP3    H142908   0.890   0.219   0.634  0.8665  0.0726  1.5357
 7139TIP3    H242909   1.008   0.212   0.539 -1.0558  0.6118 -1.0015
 7140TIP3   OH242910   5.084   0.381   4.730 -0.2339 -0.5451 -0.5088
 7140TIP3    H142911   5.175   0.369   4.757 -1.0189  0.0194  2.9008
 7140TIP3    H242912   5.036   0.315   4.780 -1.8631  0.1419 -1.1056
 7141TIP3   OH242913   0.128   2.327  17.054 -0.1220 -0.3162  0.1268
 7141TIP3    H142914   0.159   2.288  17.136  1.3976 -0.3111 -0.4070
 7141TIP3    H242915   0.171   2.413  17.051  1.6515 -1.1709 -1.6715
 7142TIP3   OH242916   3.990   0.266   6.014  0.6115 -0.6672 -0.0433
 7142TIP3    H142917   4.004   0.353   5.978  1.2493 -0.1364  1.4352
 7142TIP3    H242918   3.910   0.273   6.067  0.6470 -0.9889  0.0605
 7143TIP3   OH242919   5.604   4.603   3.459 -0.2781  0.0972 -0.0011
 7143TIP3    H142920   5.653   4.643   3.388  1.0827 -0.2375  0.7243
 7143TIP3    H242921   5.513   4.603   3.428  0.0838  1.2024 -1.1473
 7144TIP3   OH242922   6.317   5.103   1.008 -0.1818  0.3516 -0.2553
 7144TIP3    H142923   6.366   5.035   0.961  0.1734  0.5561 -0.1835
 7144TIP3    H242924   6.380   5.140   1.069 -0.7082 -0.0611  0.5468
 7145TIP3   OH242925   2.343   3.739  17.088 -0.3727  0.2496  0.1179
 7145TIP3    H142926   2.303   3.792  17.157  0.0538  0.9374 -0.1524
 7145TIP3    H242927   2.287   3.753  17.012  0.9149  2.0883 -0.5749
 7146TIP3   OH242928   5.588   3.195   4.315 -0.0255 -0.4333  0.0667
 7146TIP3    H142929   5.549   3.109   4.300 -0.5018 -0.2004 -0.0513
 7146TIP3    H242930   5.633   3.186   4.399 -0.2931 -0.7243  0.1841
 7147TIP3   OH242931   0.320   5.630   5.429 -0.5361  0.0575  0.1117
 7147TIP3    H142932   0.311   5.618   5.335  0.0538 -0.1534  0.0805
 7147TIP3    H242933   0.232   5.655   5.458 -1.1681 -1.6293 -0.2211
 7148TIP3   OH242934   4.703   0.288  11.821 -0.1942 -0.2721 -0.6135
 7148TIP3    H142935   4.732   0.279  11.730  0.9402  0.4523 -0.3513
 7148TIP3    H242936   4.753   0.222  11.869  0.5698  0.5415 -0.2574
 7149TIP3   OH242937   1.521   3.347  10.674 -0.1121  0.1916 -0.1272
 7149TIP3    H142938   1.588   3.280  10.665  0.3960  0.8755 -1.7832
 7149TIP3    H242939   1.566   3.423  10.712 -0.0976  0.4248 -0.6044
 7150TIP3   OH242940   0.396   4.571   2.873 -0.2205 -0.0157 -0.1060
 7150TIP3    H142941   0.367   4.521   2.797 -1.3538 -0.0184  0.3100
 7150TIP3    H242942   0.478   4.611   2.845  0.0345 -1.0335 -0.8952
 7151TIP3   OH242943   1.851   2.560  13.739 -0.2415 -0.0767  0.0892
 7151TIP3    H142944   1.832   2.513  13.658  0.0930  2.2238 -1.4277
 7151TIP3    H242945   1.947   2.560  13.746 -0.2229  0.5584 -0.0699
 7152TIP3   OH242946   3.112   1.687   6.566  0.3126 -0.1441 -0.4782
 7152TIP3    H142947   3.084   1.611   6.515 -0.8413  1.2598 -2.0508
 7152TIP3    H242948   3.207   1.687   6.560  0.2677 -0.8370 -1.3846
 7153TIP3   OH242949   4.832   3.723  16.915  0.7227  0.0637  0.2313
 7153TIP3    H142950   4.858   3.691  17.002 -1.5036  0.4247  1.0858
 7153TIP3    H242951   4.835   3.819  16.923  3.4115  0.2101 -1.0897
 7154TIP3   OH242952   0.680   0.434   3.738 -0.2553  0.5228 -0.7011
 7154TIP3    H142953   0.601   0.484   3.756  1.4591  3.0665  0.4390
 7154TIP3    H242954   0.694   0.381   3.817  0.4538  2.0148  0.2311
 7155TIP3   OH242955   3.174   5.067   5.070 -0.0601  0.2655 -0.2832
 7155TIP3    H142956   3.151   4.978   5.099 -0.6254 -0.2121 -2.0694
 7155TIP3    H242957   3.100   5.093   5.015  1.0854  0.9958 -1.5162
 7156TIP3   OH242958   2.444   2.411   5.983 -0.0395  0.1812 -0.0348
 7156TIP3    H142959   2.370   2.448   5.934  1.4583 -0.7746 -3.3387
 7156TIP3    H242960   2.491   2.487   6.016 -1.1309  0.9047 -0.0863
 7157TIP3   OH242961   5.306   3.520  14.062  0.2271 -0.7217 -0.4666
 7157TIP3    H142962   5.223   3.476  14.082  0.9079 -2.6059 -1.5178
 7157TIP3    H242963   5.344   3.468  13.991  2.2499  0.1726 -0.1146
 7158TIP3   OH242964   1.278   4.801  14.784 -0.0680 -0.3258 -0.4582
 7158TIP3    H142965   1.227   4.870  14.826  0.6641 -0.6115  0.9630
 7158TIP3    H242966   1.283   4.732  14.850 -0.1243 -1.4339 -1.5617
 7159TIP3   OH242967   0.931   5.586  14.498 -0.8865  0.3002 -0.6345
 7159TIP3    H142968   0.859   5.526  14.517 -0.6334  0.4908  1.0898
 7159TIP3    H242969   0.923   5.655  14.564  0.4964  0.6642 -0.8162
 7160TIP3   OH242970   1.840   0.416   5.360  0.4368  0.1571  0.5158
 7160TIP3    H142971   1.764   0.360   5.375  0.7766 -0.1947  0.9579
 7160TIP3    H242972   1.804   0.496   5.322  0.0177 -0.6523 -0.8685
 7161TIP3   OH242973   6.058   2.476   0.035 -0.9658 -0.3475  0.3351
 7161TIP3    H142974   6.088   2.567   0.046 -1.0847 -0.3111  0.3571
 7161TIP3    H242975   6.051   2.443   0.124  1.9057 -1.3081  0.3119
 7162TIP3   OH242976   3.899   4.381   5.831 -0.4608 -0.1090 -0.4134
 7162TIP3    H142977   3.951   4.445   5.877 -0.1845 -0.8457  0.3227
 7162TIP3    H242978   3.849   4.336   5.900 -2.4681  0.8987 -1.1177
 7163TIP3   OH242979   4.289   2.540  14.371 -0.9656  0.4983  0.1669
 7163TIP3    H142980   4.292   2.538  14.466 -0.9650  0.8831  0.1753
 7163TIP3    H242981   4.366   2.490  14.343  1.5395  3.9185  0.3777
 7164TIP3   OH242982   0.107   6.638  14.933  0.0402 -0.5767 -0.3984
 7164TIP3    H142983   0.038   6.588  14.977  0.5487 -0.7289  0.2388
 7164TIP3    H242984   0.061   6.714  14.897 -0.4000 -0.4459  0.4029
 7165TIP3   OH242985   0.876   6.138   1.023 -0.4077  0.3391  0.4045
 7165TIP3    H142986   0.893   6.169   1.112  1.3876  0.7615 -0.0546
 7165TIP3    H242987   0.952   6.166   0.972 -0.6489 -1.2624 -0.9355
 7166TIP3   OH242988   0.788   5.128   5.321 -0.1563 -0.0841 -0.7377
 7166TIP3    H142989   0.812   5.213   5.358  0.1024 -0.4363 -0.0844
 7166TIP3    H242990   0.732   5.149   5.247 -0.2239  0.6510 -0.4818
 7167TIP3   OH242991   1.856   0.120  11.576  0.2169  0.3012  0.5164
 7167TIP3    H142992   1.845   0.203  11.529  0.0914  0.7855  1.3822
 7167TIP3    H242993   1.943   0.126  11.615  0.5009 -0.2902 -0.0066
 7168TIP3   OH242994   3.393   3.111  15.102 -0.5252 -0.2420  0.1168
 7168TIP3    H142995   3.409   3.172  15.030 -1.5029 -0.8936 -0.6796
 7168TIP3    H242996   3.358   3.166  15.172  1.4495  0.5727  0.5259
 7169TIP3   OH242997   0.080   6.623  11.483  0.2741 -0.2861  0.2969
 7169TIP3    H142998   0.006   6.565  11.466  0.9318 -0.9651 -0.3193
 7169TIP3    H242999   0.112   6.596  11.569  0.7544 -1.0375 -0.1122
 7170TIP3   OH243000   6.095   4.699  15.624  0.1318 -0.2534  0.3164
 7170TIP3    H143001   6.085   4.672  15.532 -1.9183  0.0806  0.3873
 7170TIP3    H243002   6.110   4.617  15.671  1.2364 -0.4271 -0.3038
 7171TIP3   OH243003   5.039   1.835   3.307 -0.3952 -0.2506 -0.0377
 7171TIP3    H143004   5.128   1.839   3.342 -0.4783  1.7629  0.0643
 7171TIP3    H243005   5.010   1.926   3.304 -3.5737 -0.9784  2.7557
 7172TIP3   OH243006   2.633   6.500  12.097 -0.2733 -0.0330  0.1405
 7172TIP3    H143007   2.564   6.520  12.034 -0.3123  2.0100  0.7425
 7172TIP3    H243008   2.698   6.570  12.084  1.6652 -1.8087 -0.3163
 7173TIP3   OH243009   5.690   4.088  14.180  0.0614 -0.6101  0.1633
 7173TIP3    H143010   5.670   4.062  14.271 -0.5703  0.4384  0.3335
 7173TIP3    H243011   5.771   4.041  14.160  0.2181 -0.8583  1.2737
 7174TIP3   OH243012   2.295   2.982   0.035  0.9863  0.0173 -0.3069
 7174TIP3    H143013   2.331   3.024  -0.044  1.7348 -0.5035 -0.2576
 7174TIP3    H243014   2.205   3.014   0.040 -0.1523 -2.2129 -3.1094
 7175TIP3   OH243015   0.364   1.868   2.366 -0.5309 -0.0837  0.0218
 7175TIP3    H143016   0.438   1.825   2.408  0.4621  1.0221 -0.5170
 7175TIP3    H243017   0.375   1.848   2.273  0.6061  2.1361 -0.4045
 7176TIP3   OH243018   2.988   6.471  13.427 -0.0271  0.1399 -0.2671
 7176TIP3    H143019   2.977   6.544  13.488  1.1112 -0.8162  1.1321
 7176TIP3    H243020   3.083   6.456  13.425 -0.1690 -0.6994 -1.2709
 7177TIP3   OH243021   3.718   3.503   0.269  0.0282 -0.0192 -0.0140
 7177TIP3    H143022   3.715   3.582   0.322 -1.7282  1.5709 -2.2800
 7177TIP3    H243023   3.694   3.433   0.329  1.1921  1.1948  1.9541
 7178TIP3   OH243024   5.203   4.768   1.435 -0.1454  0.0784 -0.5957
 7178TIP3    H143025   5.276   4.829   1.443  0.2355 -0.1672 -2.0449
 7178TIP3    H243026   5.235   4.687   1.474 -0.1804  0.3871  0.0966
 7179TIP3   OH243027   2.479   5.122  13.892  0.2159  0.5271 -0.5264
 7179TIP3    H143028   2.560   5.087  13.855 -1.4964 -1.7581 -2.4019
 7179TIP3    H243029   2.500   5.213  13.913  2.7930  0.5211 -2.5668
 7180TIP3   OH243030   0.634   5.299   0.085  0.1645 -0.1221  0.0950
 7180TIP3    H143031   0.666   5.265   0.169 -1.4235 -0.8160  0.4467
 7180TIP3    H243032   0.631   5.394   0.099  1.7056 -0.0473  0.1474
 7181TIP3   OH243033   0.828   3.930   5.002 -0.1168  0.4195  0.2014
 7181TIP3    H143034   0.746   3.891   4.972 -0.4673  1.3902 -0.1301
 7181TIP3    H243035   0.837   4.010   4.951  0.6267  0.7396  0.8154
 7182TIP3   OH243036   3.596   6.204  15.705  0.4031  0.9121 -0.1145
 7182TIP3    H143037   3.643   6.283  15.733 -1.7885  1.8963  0.9957
 7182TIP3    H243038   3.524   6.237  15.651 -0.2253 -0.3776 -0.0899
 7183TIP3   OH243039   4.481   2.324  14.345 -0.5468 -0.1168 -0.2769
 7183TIP3    H143040   4.510   2.283  14.427 -0.0880  1.4753  0.3957
 7183TIP3    H243041   4.482   2.253  14.281  2.3692 -0.7454  0.3077
 7184TIP3   OH243042   3.887   2.914   4.999 -0.8184 -0.1356  1.0892
 7184TIP3    H143043   3.980   2.936   4.988 -0.7686 -1.0004 -0.3952
 7184TIP3    H243044   3.870   2.848   4.932 -2.4376 -0.2172  1.5567
 7185TIP3   OH243045   3.361   1.463  16.700  0.1772 -0.2784 -0.0110
 7185TIP3    H143046   3.452   1.442  16.678  0.2549  0.0615 -0.0119
 7185TIP3    H243047   3.332   1.522  16.631 -0.4044 -1.2780 -0.6327
 7186TIP3   OH243048   6.062   2.362   0.268 -0.2712  0.0518 -0.4071
 7186TIP3    H143049   6.018   2.363   0.353  0.3926 -0.5321 -0.0491
 7186TIP3    H243050   6.112   2.280   0.267 -0.2791  0.0425 -1.3668
 7187TIP3   OH243051   3.207   3.989  16.534  0.4241 -0.4014  0.2127
 7187TIP3    H143052   3.171   4.077  16.542 -1.0314 -1.1538  2.9976
 7187TIP3    H243053   3.285   3.989  16.590  0.0094 -1.0478  0.8082
 7188TIP3   OH243054   4.865   4.453  11.154 -0.5437 -0.0159 -0.0028
 7188TIP3    H143055   4.771   4.453  11.136 -0.4856  0.5122 -0.3439
 7188TIP3    H243056   4.890   4.546  11.153  0.0989 -0.1818 -0.5623
 7189TIP3   OH243057   1.676   4.525   5.830  0.1135 -0.1671 -0.5664
 7189TIP3    H143058   1.583   4.537   5.811  0.1896 -0.3271 -1.0413
 7189TIP3    H243059   1.711   4.482   5.753  0.5304 -0.3623 -0.2705
 7190TIP3   OH243060   6.568   6.283  10.640  0.5369  0.4920  0.6369
 7190TIP3    H143061   6.538   6.193  10.655  0.3184  0.4640  0.0670
 7190TIP3    H243062   6.498   6.322  10.588  0.3919  1.1506  1.3045
 7191TIP3   OH243063   3.667   6.606  12.949  0.1768  0.5350 -0.0306
 7191TIP3    H143064   3.633   6.627  12.862 -0.3677 -0.8107 -0.1722
 7191TIP3    H243065   3.762   6.610  12.940  0.1696 -1.0822 -1.1131
 7192TIP3   OH243066   2.139   2.253   5.236  0.9345 -0.0736  0.5255
 7192TIP3    H143067   2.210   2.214   5.185  0.7560  1.4140 -0.9526
 7192TIP3    H243068   2.181   2.324   5.284  0.7119 -0.1389  0.8179
 7193TIP3   OH243069   4.801   2.928  11.056  0.3364  0.7035  0.2683
 7193TIP3    H143070   4.706   2.940  11.046  0.6337  1.3790 -2.7590
 7193TIP3    H243071   4.818   2.948  11.147 -2.3407  1.2957  0.7351
 7194TIP3   OH243072   1.284   2.152   1.336  0.0915 -0.5938 -0.3755
 7194TIP3    H143073   1.364   2.103   1.317  1.0482 -0.0354  1.9163
 7194TIP3    H243074   1.230   2.092   1.387  0.1874 -0.1270  0.2933
 7195TIP3   OH243075   2.776   5.793   5.207 -0.2587  0.1541 -0.0481
 7195TIP3    H143076   2.750   5.827   5.121  0.3476 -1.5387 -0.9461
 7195TIP3    H243077   2.858   5.747   5.191 -0.5584 -0.8971  1.2793
 7196TIP3   OH243078   0.668   1.238   5.699  0.1866  0.4064 -0.2022
 7196TIP3    H143079   0.649   1.326   5.666  1.7646  1.0504  0.4895
 7196TIP3    H243080   0.587   1.210   5.742 -0.5365  1.2487 -0.9866
 7197TIP3   OH243081   3.110   2.237  14.381 -0.1996 -0.2521 -0.0748
 7197TIP3    H143082   3.072   2.306  14.435  0.0045  1.4651 -2.0079
 7197TIP3    H243083   3.046   2.222  14.312 -0.0250 -1.7073  0.0343
 7198TIP3   OH243084   3.889   4.739   3.089 -0.6557 -0.6626  0.1030
 7198TIP3    H143085   3.821   4.749   3.156 -1.7074 -0.3394 -0.9833
 7198TIP3    H243086   3.952   4.678   3.128 -0.7619  0.2150  1.7402
 7199TIP3   OH243087   1.940   4.506   1.560  0.2628 -1.1314 -0.5160
 7199TIP3    H143088   1.908   4.579   1.507 -0.3731 -1.4126 -0.5353
 7199TIP3    H243089   1.890   4.430   1.529 -1.0129 -1.0983  1.2537
 7200TIP3   OH243090   2.707   0.913  17.067  0.0118  0.2491 -0.0870
 7200TIP3    H143091   2.772   0.972  17.105  1.1044 -1.3834  0.6855
 7200TIP3    H243092   2.678   0.859  17.141 -1.7274  0.4612 -0.5554
 7201TIP3   OH243093   0.020   0.472   3.081 -0.0575 -0.4811  0.4126
 7201TIP3    H143094   0.079   0.408   3.042  1.9886  1.5999 -0.0913
 7201TIP3    H243095   0.052   0.483   3.171  0.0547  0.2930  0.2902
 7202TIP3   OH243096   4.852   6.203  12.019 -0.0321 -0.3085 -0.4935
 7202TIP3    H143097   4.917   6.140  12.047  0.3119 -0.1198 -0.8540
 7202TIP3    H243098   4.784   6.201  12.087  1.0418  0.5560  0.6494
 7203TIP3   OH243099   5.059   6.560  17.137 -0.5838 -0.0127 -0.5234
 7203TIP3    H143100   5.154   6.562  17.126 -0.7053  1.8075 -1.4669
 7203TIP3    H243101   5.046   6.582  17.229 -0.0746 -1.8924  0.0532
 7204TIP3   OH243102   6.132   2.721   3.421  0.2544  0.2100  0.1472
 7204TIP3    H143103   6.043   2.732   3.454  0.0839 -2.1057  0.6900
 7204TIP3    H243104   6.187   2.718   3.499  0.5966  0.1107 -0.0937
 7205TIP3   OH243105   3.581   6.133   5.679  0.7294  0.2742  0.3086
 7205TIP3    H143106   3.674   6.152   5.687  0.7521  0.3982 -0.2140
 7205TIP3    H243107   3.539   6.190   5.743  0.4669  4.5667 -3.2162
 7206TIP3   OH243108   5.098   3.776  14.798 -0.4447  0.0331  0.3849
 7206TIP3    H143109   5.139   3.842  14.742 -0.0643 -0.6093 -0.0981
 7206TIP3    H243110   5.088   3.821  14.883  0.9728  0.3205  0.4399
 7207TIP3   OH243111   1.509   3.511  16.516 -0.2478  0.1905 -0.2575
 7207TIP3    H143112   1.602   3.492  16.523 -0.5466 -0.6989  2.8704
 7207TIP3    H243113   1.484   3.476  16.431  1.7920 -1.9860 -0.0610
 7208TIP3   OH243114   5.648   0.980   4.740 -0.3585  0.4537  0.3197
 7208TIP3    H143115   5.721   0.933   4.700 -1.5290 -2.9202  1.7243
 7208TIP3    H243116   5.570   0.937   4.705 -1.5593  1.5715  1.5078
 7209TIP3   OH243117   2.738   5.486   0.987  0.3072  0.4230  0.3275
 7209TIP3    H143118   2.699   5.497   0.900  1.5410  1.0046 -0.1811
 7209TIP3    H243119   2.775   5.572   1.007 -1.5208  0.8302  2.2433
 7210TIP3   OH243120   2.351   0.182  14.069 -0.3548  0.1091  0.3348
 7210TIP3    H143121   2.441   0.155  14.087 -0.0480  1.3313  0.7087
 7210TIP3    H243122   2.335   0.255  14.129 -1.5856 -0.0538  0.2430
 7211TIP3   OH243123   5.929   3.708   0.593 -0.6962  0.1267 -0.2543
 7211TIP3    H143124   5.942   3.667   0.678 -1.4746 -0.1631 -0.2706
 7211TIP3    H243125   5.876   3.645   0.543  0.3004 -0.0093 -1.1895
 7212TIP3   OH243126   6.395   1.324  16.903  0.4397 -0.0333  0.2332
 7212TIP3    H143127   6.340   1.276  16.842  0.3069  0.4342 -0.0181
 7212TIP3    H243128   6.477   1.275  16.905  0.2813 -0.3087  0.0337
 7213TIP3   OH243129   1.128   5.601   4.121 -0.1674 -0.7120 -0.1667
 7213TIP3    H143130   1.220   5.613   4.098 -0.1124  0.3911  0.5335
 7213TIP3    H243131   1.109   5.510   4.100  1.1198 -0.9843 -0.2085
 7214TIP3   OH243132   1.721   6.283   0.969  0.3531  0.2445  0.6474
 7214TIP3    H143133   1.771   6.324   0.898  0.7962  1.4344  1.6166
 7214TIP3    H243134   1.674   6.356   1.010  0.4383 -0.3610  1.8412
 7215TIP3   OH243135   1.927   0.091  13.159  0.1552 -0.2419 -0.0362
 7215TIP3    H143136   1.916   0.180  13.192  0.0840 -0.4477  0.5100
 7215TIP3    H243137   1.874   0.088  13.079  0.5940  0.3615 -0.3527
 7216TIP3   OH243138   2.140   6.070   0.526 -0.1204  0.3960  0.1773
 7216TIP3    H143139   2.184   6.120   0.457  0.2392 -0.4317 -0.2049
 7216TIP3    H243140   2.125   6.134   0.595 -4.2383  2.4079 -2.1677
 7217TIP3   OH243141   4.631   2.822   1.748 -0.2119  0.3542  0.5944
 7217TIP3    H143142   4.567   2.771   1.698  0.7883 -0.9506  0.5694
 7217TIP3    H243143   4.706   2.831   1.689  0.0443  0.9019  0.9962
 7218TIP3   OH243144   4.520   5.100   5.529  0.3432 -0.2486 -0.1935
 7218TIP3    H143145   4.490   5.065   5.613 -0.7275 -1.8844 -1.1919
 7218TIP3    H243146   4.580   5.033   5.495  0.5760  0.2747 -0.8421
 7219TIP3   OH243147   6.343   3.466   5.537  0.3389  0.0124  0.6655
 7219TIP3    H143148   6.279   3.413   5.585  1.0667 -1.5345 -0.0060
 7219TIP3    H243149   6.290   3.524   5.483 -0.5162 -1.1287  0.2463
 7220TIP3   OH243150   3.888   2.603   4.369  0.0260 -0.1285 -0.6911
 7220TIP3    H143151   3.894   2.638   4.280  1.4766  1.4743 -0.0067
 7220TIP3    H243152   3.949   2.655   4.420 -1.8044 -0.0496  1.5934
 7221TIP3   OH243153   1.413   0.178  16.316 -0.1512  0.1908  0.3746
 7221TIP3    H143154   1.478   0.170  16.247  0.0883 -0.1422  0.6309
 7221TIP3    H243155   1.366   0.259  16.296  0.1831  0.3071  0.0523
 7222TIP3   OH243156   1.882   0.142  15.644 -0.1474 -0.2151  0.6284
 7222TIP3    H143157   1.974   0.115  15.640 -0.5155 -1.9262  2.0474
 7222TIP3    H243158   1.837   0.081  15.585 -0.2544  1.4814 -1.1286
 7223TIP3   OH243159   2.758   3.336   3.409  0.1698 -0.1794  0.2527
 7223TIP3    H143160   2.822   3.280   3.366  0.7587 -0.1237  1.0411
 7223TIP3    H243161   2.747   3.411   3.349  0.7307 -0.2593  0.0515
 7224TIP3   OH243162   1.757   3.204   1.727 -0.2732 -0.7452 -0.1166
 7224TIP3    H143163   1.851   3.223   1.726 -0.1467 -1.3474 -1.3210
 7224TIP3    H243164   1.750   3.126   1.783 -0.2883  0.2815  1.3681
 7225TIP3   OH243165   4.424   6.404   3.952  0.2480  0.3272  0.8064
 7225TIP3    H143166   4.495   6.415   3.888 -0.5941  1.4178  0.0296
 7225TIP3    H243167   4.372   6.331   3.918 -0.4237  1.1585 -0.0011
 7226TIP3   OH243168   1.046   4.422   4.959  0.2909  0.6107  0.9150
 7226TIP3    H143169   1.011   4.509   4.981  1.3310  0.9758  1.1996
 7226TIP3    H243170   1.136   4.424   4.992  0.4173 -0.4788  0.6590
 7227TIP3   OH243171   3.525   2.340  14.326  0.1877  0.0131 -0.1901
 7227TIP3    H143172   3.616   2.360  14.306  0.2818 -1.2894 -1.1868
 7227TIP3    H243173   3.522   2.245  14.333 -1.4766 -0.1448 -2.2074
 7228TIP3   OH243174   5.862   0.363   1.649  0.2631  0.2204 -0.8099
 7228TIP3    H143175   5.824   0.277   1.631  0.9233 -0.0836 -0.7497
 7228TIP3    H243176   5.948   0.345   1.687 -1.2005  0.7449  3.2903
 7229TIP3   OH243177   5.098   6.589   1.771  0.8391 -0.4806  0.7597
 7229TIP3    H143178   5.175   6.596   1.827  0.3962 -0.2145  1.3475
 7229TIP3    H243179   5.040   6.658   1.802  0.2320 -0.8801  0.5244
 7230TIP3   OH243180   6.610   3.450  12.665 -0.4461  0.5036  0.4780
 7230TIP3    H143181   6.701   3.450  12.695 -0.0047  1.3443 -0.7931
 7230TIP3    H243182   6.562   3.496  12.734  0.2040  0.6085  0.8645
 7231TIP3   OH243183   3.176   0.048  15.196  0.2017 -0.4404 -0.4186
 7231TIP3    H143184   3.181   0.137  15.161  0.9034 -1.1634 -2.2230
 7231TIP3    H243185   3.123  -0.000  15.132  2.2662 -2.0118 -1.0194
 7232TIP3   OH243186   1.277   2.109  16.927  0.4021 -0.1651 -0.3395
 7232TIP3    H143187   1.196   2.105  16.977 -0.5997 -0.4220 -1.9256
 7232TIP3    H243188   1.292   2.202  16.913  0.5685 -0.1025  0.2108
 7233TIP3   OH243189   5.832   1.666  14.416 -0.5624 -0.3282  0.2949
 7233TIP3    H143190   5.870   1.730  14.476 -0.5535  0.1933 -0.2563
 7233TIP3    H243191   5.741   1.657  14.445 -0.9326  0.9162 -0.3992
 7234TIP3   OH243192   5.492   3.326   3.033  0.1564 -0.1890  0.7503
 7234TIP3    H143193   5.410   3.357   2.994  2.5184  2.1063 -3.0573
 7234TIP3    H243194   5.502   3.237   3.001 -0.5310 -0.2319  0.6411
 7235TIP3   OH243195   1.420   1.934   1.451 -0.1030 -0.3740  0.4444
 7235TIP3    H143196   1.393   1.845   1.429 -0.6822  0.2253 -1.5382
 7235TIP3    H243197   1.501   1.948   1.402 -0.8765  0.6805 -0.6130
 7236TIP3   OH243198   1.278   0.716  11.797 -0.5616  0.1220  0.0103
 7236TIP3    H143199   1.194   0.692  11.835 -0.0935 -0.1366  0.9205
 7236TIP3    H243200   1.339   0.714  11.871  0.5151 -0.9848 -0.8693
 7237TIP3   OH243201   2.932   3.422  15.268  0.2201 -0.0500 -0.1657
 7237TIP3    H143202   2.984   3.352  15.229  1.6046  0.7691  0.1300
 7237TIP3    H243203   2.978   3.444  15.349 -0.8347  0.4283  0.3306
 7238TIP3   OH243204   5.049   6.715  15.412  0.0466  0.4474  0.3137
 7238TIP3    H143205   5.114   6.782  15.434 -1.1728  2.0532 -0.7594
 7238TIP3    H243206   5.074   6.684  15.325  0.2582 -0.0634  0.5532
 7239TIP3   OH243207   4.971   4.782  13.999 -0.0385  0.2536  0.4181
 7239TIP3    H143208   4.929   4.858  13.957 -0.0111  0.7404  1.2538
 7239TIP3    H243209   4.943   4.787  14.090 -2.7402 -2.5828 -0.0977
 7240TIP3   OH243210   5.421   5.450   0.419 -0.3460 -0.1729  0.2630
 7240TIP3    H143211   5.425   5.388   0.346 -2.1962 -0.4146  0.3050
 7240TIP3    H243212   5.339   5.428   0.464 -1.1939  2.4556  0.1447
 7241TIP3   OH243213   6.799   3.982   1.751  0.4490  0.1657  0.1813
 7241TIP3    H143214   6.815   3.913   1.688  0.1737  0.7002 -0.4903
 7241TIP3    H243215   6.855   3.961   1.825 -0.0846 -1.1060  0.2526
 7242TIP3   OH243216   3.890   0.969  17.133  0.2892 -0.2732  0.0161
 7242TIP3    H143217   3.818   0.967  17.196  0.8635  1.4165  0.7746
 7242TIP3    H243218   3.904   1.062  17.115  2.4090 -0.5448  0.0222
 7243TIP3   OH243219   0.438   1.317  13.135 -0.8166 -0.3895 -0.4650
 7243TIP3    H143220   0.431   1.286  13.044  0.3348 -0.9922 -0.3626
 7243TIP3    H243221   0.524   1.357  13.140 -1.2610  0.5113  0.1180
 7244TIP3   OH243222   2.866   0.071  11.186  0.2627  0.0739  0.2571
 7244TIP3    H143223   2.806   0.130  11.233 -0.0672  0.6803 -0.8966
 7244TIP3    H243224   2.808   0.014  11.135  0.5949 -1.0081  1.0418
 7245TIP3   OH243225   1.001   2.583   0.382  0.4455 -0.3612  0.4923
 7245TIP3    H143226   0.967   2.653   0.327  0.9246 -0.9132 -0.5231
 7245TIP3    H243227   1.073   2.624   0.430 -0.9064  0.5240  1.8722
 7246TIP3   OH243228   2.124   2.426   3.520  0.0202 -0.2059  0.0194
 7246TIP3    H143229   2.176   2.497   3.559 -0.9597 -0.7478  2.5084
 7246TIP3    H243230   2.043   2.467   3.493  0.5338  0.0961 -1.1019
 7247TIP3   OH243231   0.964   4.170  15.601 -0.3748 -0.6051  0.2019
 7247TIP3    H143232   0.877   4.140  15.628 -0.2301 -0.4762  0.8262
 7247TIP3    H243233   0.978   4.252  15.649 -0.0813 -0.4006 -0.2186
 7248TIP3   OH243234   4.430   4.493   0.863 -0.5531  0.1322  0.0752
 7248TIP3    H143235   4.466   4.577   0.833 -1.0836  0.5582  0.5983
 7248TIP3    H243236   4.454   4.431   0.794 -1.4695  1.0157 -1.0873
 7249TIP3   OH243237   0.889   1.647   2.457 -0.0727  0.0458  0.1723
 7249TIP3    H143238   0.841   1.600   2.388  1.0256  1.0773 -1.3465
 7249TIP3    H243239   0.858   1.737   2.451  0.5985  0.3061  0.5263
 7250TIP3   OH243240   0.713   4.861  11.188  0.2238 -0.3071  0.0749
 7250TIP3    H143241   0.718   4.947  11.229  0.3243 -0.6395  0.7862
 7250TIP3    H243242   0.692   4.878  11.097  0.1700  0.4649  0.2295
 7251TIP3   OH243243   5.761   3.349  14.404 -0.0445  0.2379  0.3845
 7251TIP3    H143244   5.672   3.356  14.370 -0.1381 -0.8011  0.3642
 7251TIP3    H243245   5.805   3.428  14.373 -1.0249  0.8869  0.6082
 7252TIP3   OH243246   0.042   1.759   3.466  0.4557 -0.6977 -0.1116
 7252TIP3    H143247  -0.015   1.834   3.484 -0.0546 -0.3794 -2.6721
 7252TIP3    H243248   0.056   1.762   3.371  1.2587 -3.2517 -0.1477
 7253TIP3   OH243249   1.454   2.893   3.712 -0.2404  0.1519  0.0127
 7253TIP3    H143250   1.446   2.961   3.778  0.9398 -0.4716  0.8460
 7253TIP3    H243251   1.540   2.909   3.672 -0.3022 -0.3574 -0.3370
 7254TIP3   OH243252   1.437   0.706  12.377 -0.5202 -0.1117  0.4489
 7254TIP3    H143253   1.442   0.636  12.442 -0.3798 -2.3706 -1.8343
 7254TIP3    H243254   1.440   0.786  12.428  1.3023 -1.7110  3.0997
 7255TIP3   OH243255   5.986   5.760  13.489 -0.0827 -0.4808 -0.3522
 7255TIP3    H143256   5.957   5.852  13.493  0.4836 -0.3019 -0.3571
 7255TIP3    H243257   6.081   5.764  13.493 -0.0820 -1.1247  0.6776
 7256TIP3   OH243258   6.807   2.455   4.311 -0.8676  0.3197  0.1431
 7256TIP3    H143259   6.749   2.511   4.363 -1.5463  0.6341 -0.9081
 7256TIP3    H243260   6.784   2.366   4.337 -1.6099  0.4554 -0.0229
 7257TIP3   OH243261   4.949   1.934   2.878 -0.3019 -0.5721 -0.0774
 7257TIP3    H143262   4.889   1.980   2.819 -1.5318 -1.0561  0.7407
 7257TIP3    H243263   4.912   1.846   2.886  0.3791 -0.8069  0.6550
 7258TIP3   OH243264   1.675   2.791  13.603 -0.4187  0.0411  0.1073
 7258TIP3    H143265   1.685   2.805  13.697 -0.3273 -0.1184  0.1237
 7258TIP3    H243266   1.612   2.719  13.596 -1.3182  0.8190  0.0130
 7259TIP3   OH243267   0.617   6.176  16.163 -0.5292 -0.0602 -0.1404
 7259TIP3    H143268   0.565   6.127  16.226 -1.2967  0.9161  0.0181
 7259TIP3    H243269   0.571   6.259  16.154  0.8174  0.7051 -0.2655
 7260TIP3   OH243270   2.587   4.563   1.434  0.5612  0.5680  0.0461
 7260TIP3    H143271   2.492   4.562   1.448  0.5957  0.3452  0.2707
 7260TIP3    H243272   2.610   4.471   1.424  0.7828  0.6091  0.1837
 7261TIP3   OH243273   0.155   2.401   3.482 -0.0937 -0.0361 -0.4039
 7261TIP3    H143274   0.245   2.433   3.470 -0.4240  0.0711 -3.1522
 7261TIP3    H243275   0.125   2.379   3.394 -2.6351 -0.5157  0.4953
 7262TIP3   OH243276   6.335   1.053  14.000 -0.0523  0.2159  0.1961
 7262TIP3    H143277   6.257   1.101  14.028 -2.5987 -2.5450 -1.6216
 7262TIP3    H243278   6.337   0.975  14.055  1.7041  0.4015  0.4597
 7263TIP3   OH243279   6.009   5.540  11.988  0.2517  0.2806 -0.1061
 7263TIP3    H143280   6.070   5.503  12.052  1.6156  0.6942 -1.1079
 7263TIP3    H243281   5.928   5.491  12.001  1.0594 -0.9163  0.6809
 7264TIP3   OH243282   2.521   3.398  11.604  0.3588  0.3505 -1.1908
 7264TIP3    H143283   2.466   3.327  11.637 -0.9797  1.3881 -1.1033
 7264TIP3    H243284   2.597   3.398  11.662 -0.6678  0.3924  0.2051
 7265TIP3   OH243285   4.191   1.923  12.527  0.1224  0.0437 -0.3013
 7265TIP3    H143286   4.276   1.921  12.570  0.2484  0.5888 -0.5281
 7265TIP3    H243287   4.192   1.847  12.468 -0.2909 -1.0902  1.0893
 7266TIP3   OH243288   2.879   5.714  15.380 -0.4721  0.3001  0.1434
 7266TIP3    H143289   2.943   5.654  15.342 -0.4066 -0.4432  1.4002
 7266TIP3    H243290   2.923   5.800  15.377  0.5600 -0.1762  0.8780
 7267TIP3   OH243291   5.265   3.380  13.108  0.2154  0.1504  0.0183
 7267TIP3    H143292   5.359   3.396  13.101  0.4952 -1.0362  0.6696
 7267TIP3    H243293   5.230   3.457  13.152  0.6031  1.3477 -1.6861
 7268TIP3   OH243294   0.132   3.881  16.750 -0.4673 -0.0840 -0.2681
 7268TIP3    H143295   0.152   3.869  16.843  3.4300 -0.6417 -1.0089
 7268TIP3    H243296   0.193   3.948  16.720 -1.0571 -0.4881 -2.6193
 7269TIP3   OH243297   3.066   4.358  13.344  0.3332  0.0174  0.1342
 7269TIP3    H143298   3.085   4.399  13.429  0.6028 -1.7057  0.9558
 7269TIP3    H243299   3.153   4.339  13.308  0.2048 -0.2591 -0.0233
 7270TIP3   OH243300   2.071   1.484   4.262  0.2363  0.1948 -0.5258
 7270TIP3    H143301   1.995   1.427   4.253 -0.9144  1.4954  0.3881
 7270TIP3    H243302   2.034   1.572   4.267  1.6916  0.7836  1.1236
 7271TIP3   OH243303   4.649   3.007   1.276  0.2716  0.4887  0.3826
 7271TIP3    H143304   4.557   2.996   1.302  0.0331 -1.5611 -1.0240
 7271TIP3    H243305   4.644   3.050   1.190  0.4882 -0.8103 -0.3200
 7272TIP3   OH243306   6.422   5.499  14.601 -0.0663 -0.0680  0.1784
 7272TIP3    H143307   6.425   5.568  14.668  1.6397  0.9300 -0.8684
 7272TIP3    H243308   6.334   5.462  14.610 -1.4989  2.9890  0.0625
 7273TIP3   OH243309   3.304   0.800   5.008  0.4834 -0.1680 -0.5807
 7273TIP3    H143310   3.357   0.872   5.044 -0.6259  0.2931  0.1923
 7273TIP3    H243311   3.316   0.808   4.913 -1.6973  2.8133 -0.7656
 7274TIP3   OH243312   3.893   3.510   0.616  0.2432  0.1374 -0.2209
 7274TIP3    H143313   3.841   3.517   0.536  0.3701  0.4286 -0.2779
 7274TIP3    H243314   3.854   3.572   0.677 -0.4080 -0.7167  0.2576
 7275TIP3   OH243315   1.571   4.514  14.831 -0.1738  0.2535 -0.1835
 7275TIP3    H143316   1.492   4.471  14.797  0.8866 -1.8553 -0.1066
 7275TIP3    H243317   1.621   4.538  14.753 -0.0009 -0.1627 -0.2022
 7276TIP3   OH243318   0.085   1.511  16.428 -0.2630 -0.1156 -0.4418
 7276TIP3    H143319   0.065   1.427  16.386  0.9907  0.8632 -3.2392
 7276TIP3    H243320   0.179   1.509  16.441 -0.2484  0.7630 -0.3605
 7277TIP3   OH243321   2.320   2.780  11.991 -0.4313  0.1954  0.6825
 7277TIP3    H143322   2.340   2.694  12.028 -1.1424 -0.0703  0.4764
 7277TIP3    H243323   2.224   2.780  11.983 -0.3070  0.2677 -1.0941
 7278TIP3   OH243324   1.891   5.002   0.822 -0.1817 -0.5286 -0.2672
 7278TIP3    H143325   1.981   4.994   0.854 -0.1456 -1.4395 -0.5482
 7278TIP3    H243326   1.836   4.988   0.900 -0.0817 -0.8452 -0.2520
 7279TIP3   OH243327   5.068   2.061   0.472 -0.7812  0.3003  0.0553
 7279TIP3    H143328   4.977   2.060   0.445 -0.6829 -1.1321 -0.3035
 7279TIP3    H243329   5.118   2.060   0.390 -0.4473  0.4071  0.2528
 7280TIP3   OH243330   6.287   3.750  11.357 -0.6300 -0.3233 -0.3889
 7280TIP3    H143331   6.281   3.657  11.381 -1.4643 -0.0549  0.4970
 7280TIP3    H243332   6.371   3.757  11.310 -0.1915 -1.3740  0.1943
 7281TIP3   OH243333   3.570   2.880  16.384 -0.3513  0.3326  0.0762
 7281TIP3    H143334   3.567   2.831  16.466  0.9307  0.8389  0.4561
 7281TIP3    H243335   3.638   2.946  16.398 -0.3740  0.6696 -1.2594
 7282TIP3   OH243336   4.976   6.617  15.648  0.1260 -0.4571 -0.6950
 7282TIP3    H143337   5.005   6.673  15.576 -0.9999  0.0706 -0.7551
 7282TIP3    H243338   5.004   6.529  15.623  1.2942 -0.0351 -0.9294
 7283TIP3   OH243339   0.436   5.600   5.684  0.5000 -0.6472  0.7077
 7283TIP3    H143340   0.393   5.627   5.602  0.8534 -0.8624  0.4505
 7283TIP3    H243341   0.367   5.555   5.732  0.4519 -1.0584  0.2623
 7284TIP3   OH243342   1.544   1.986  13.479  0.5538  0.1189 -0.4085
 7284TIP3    H143343   1.453   1.996  13.454  0.3917  2.4486  0.7880
 7284TIP3    H243344   1.589   1.960  13.398 -1.2111 -1.8031 -0.8420
 7285TIP3   OH243345   2.632   2.470  13.489 -0.0465  0.2182 -0.7249
 7285TIP3    H143346   2.551   2.465  13.437  0.0035  0.4412 -0.8252
 7285TIP3    H243347   2.603   2.462  13.580 -0.3201  1.5776 -0.6722
 7286TIP3   OH243348   5.115   5.046   5.572 -0.3594  0.1653 -0.2879
 7286TIP3    H143349   5.044   5.063   5.511  0.1387  0.6429 -0.7472
 7286TIP3    H243350   5.168   5.126   5.570 -0.4561  0.2752  0.9332
 7287TIP3   OH243351   3.781   0.213   3.693  0.3848  0.9722 -0.4321
 7287TIP3    H143352   3.688   0.200   3.675 -0.1200  1.8329  1.2724
 7287TIP3    H243353   3.826   0.177   3.617 -1.3123 -0.1611 -0.9534
 7288TIP3   OH243354   5.020   6.400  15.388  0.2160 -0.0447  0.2467
 7288TIP3    H143355   5.026   6.349  15.468  2.9354 -3.2654 -1.7487
 7288TIP3    H243356   5.107   6.437  15.375 -0.4323  1.2356 -0.7678
 7289TIP3   OH243357   4.010   4.910  12.878 -0.3501 -0.2313  0.4245
 7289TIP3    H143358   4.061   4.991  12.876  1.0337 -1.0802  0.2218
 7289TIP3    H243359   3.931   4.932  12.927 -0.7580  1.6652 -0.9670
 7290TIP3   OH243360   4.101   2.897  16.559 -0.3347  0.0061 -0.3355
 7290TIP3    H143361   4.195   2.882  16.569 -0.1690  1.5944  0.7451
 7290TIP3    H243362   4.076   2.945  16.638 -2.2099 -0.9995 -0.2623
 7291TIP3   OH243363   5.179   0.670  13.127  0.0428  0.5719  0.3163
 7291TIP3    H143364   5.215   0.667  13.215  0.0015  1.1996  0.3553
 7291TIP3    H243365   5.240   0.617  13.075  1.1638  1.7909  0.3377
 7292TIP3   OH243366   1.021   0.708   3.474  0.2184 -0.4266  0.0168
 7292TIP3    H143367   1.003   0.680   3.564  0.0692 -2.4669 -0.5835
 7292TIP3    H243368   0.994   0.800   3.471 -0.4476 -0.5245  1.8548
 7293TIP3   OH243369   1.531   3.675   3.798 -0.4594  0.2923 -0.5098
 7293TIP3    H143370   1.585   3.654   3.875 -1.0124  1.3562  0.1963
 7293TIP3    H243371   1.582   3.643   3.724 -0.2203 -1.3722  0.3357
 7294TIP3   OH243372   2.336   4.186  16.324 -0.0887 -0.3529  0.0642
 7294TIP3    H143373   2.394   4.113  16.306 -0.1386 -0.6600  1.0722
 7294TIP3    H243374   2.391   4.264  16.314  0.6213 -0.6569  1.3876
 7295TIP3   OH243375   6.001   3.556  15.985  0.6606 -0.2462 -0.0186
 7295TIP3    H143376   5.946   3.489  16.026 -1.0943 -0.3355 -2.2881
 7295TIP3    H243377   6.084   3.512  15.967 -0.4356 -1.8719 -1.4126
 7296TIP3   OH243378   6.621   4.605  12.488  0.3808 -0.4316 -0.2435
 7296TIP3    H143379   6.685   4.533  12.491  1.4830  0.2889 -3.3088
 7296TIP3    H243380   6.539   4.565  12.517  1.4124 -2.3318  0.2323
 7297TIP3   OH243381   1.078   6.252  13.033 -0.6611  0.3030  0.4457
 7297TIP3    H143382   0.986   6.226  13.039 -0.3768 -0.8852 -0.0741
 7297TIP3    H243383   1.125   6.170  13.018  0.3516  1.0511 -0.6324
 7298TIP3   OH243384   6.045   5.351  17.041 -0.4403  0.8202  0.4774
 7298TIP3    H143385   6.084   5.334  16.955 -0.8221  0.2596  0.4050
 7298TIP3    H243386   5.962   5.304  17.038 -1.1287  1.9993  0.6228
 7299TIP3   OH243387   0.370   1.771  12.463 -0.2125  0.1870  0.4753
 7299TIP3    H143388   0.330   1.844  12.511 -0.8016 -1.1457  2.0836
 7299TIP3    H243389   0.350   1.790  12.371 -0.2683  2.0756  0.8231
 7300TIP3   OH243390   4.393   0.239   1.174  0.2565  0.1333  0.0491
 7300TIP3    H143391   4.376   0.277   1.260  0.1144 -0.0256  0.0908
 7300TIP3    H243392   4.376   0.311   1.113  2.7128  1.0129  0.2787
 7301TIP3   OH243393   2.293   1.768  14.777 -0.0005 -0.6501  0.7730
 7301TIP3    H143394   2.278   1.806  14.690  3.0913  0.7325  0.7027
 7301TIP3    H243395   2.301   1.844  14.835  0.1253 -1.4664  1.8635
 7302TIP3   OH243396   6.158   3.459  11.963  0.2718  0.5255 -0.1931
 7302TIP3    H143397   6.101   3.452  11.887  0.1413 -0.1419 -0.0365
 7302TIP3    H243398   6.224   3.391  11.951  0.7612  0.9829 -0.1377
 7303TIP3   OH243399   5.628   1.765   4.165 -0.2635 -0.1765  0.6594
 7303TIP3    H143400   5.620   1.733   4.075  0.5506  1.9198 -0.2298
 7303TIP3    H243401   5.555   1.725   4.212 -1.0862 -0.8053 -1.0973
 7304TIP3   OH243402   1.475   5.967  15.295  0.0749 -0.1971 -0.4108
 7304TIP3    H143403   1.462   5.910  15.371 -1.4802 -0.4706 -0.8574
 7304TIP3    H243404   1.569   5.984  15.294  0.1772 -0.4688  1.3777
 7305TIP3   OH243405   1.368   2.842  16.416  0.2936 -0.0597  0.2464
 7305TIP3    H143406   1.425   2.819  16.490  0.5120  0.1176  0.1346
 7305TIP3    H243407   1.283   2.806  16.439  0.5283 -0.6110  0.2706
 7306TIP3   OH243408   0.505   1.270   4.792 -0.2610  0.3287 -0.0197
 7306TIP3    H143409   0.504   1.270   4.888  4.0605  0.4446  0.2168
 7306TIP3    H243410   0.505   1.362   4.767  3.3414  0.5587  0.2947
 7307TIP3   OH243411   4.629   5.084   2.036 -0.1290  0.2035 -0.3566
 7307TIP3    H143412   4.597   4.994   2.048  1.1032  0.0039  2.2875
 7307TIP3    H243413   4.561   5.139   2.075 -0.2957  0.3346 -0.8227
 7308TIP3   OH243414   0.252   1.128   0.155  0.0506  0.2397  0.1274
 7308TIP3    H143415   0.274   1.114   0.247  2.0812  0.8325 -0.2197
 7308TIP3    H243416   0.178   1.069   0.139 -0.1958 -0.0474  2.0545
 7309TIP3   OH243417   2.507   2.648   1.258  0.7465  0.0776  0.0795
 7309TIP3    H143418   2.565   2.571   1.263  0.9028  0.2218  0.5538
 7309TIP3    H243419   2.514   2.677   1.168  0.7379 -0.4278 -0.0903
 7310TIP3   OH243420   1.341   6.246   0.338 -0.0613 -0.5127  0.2599
 7310TIP3    H143421   1.335   6.289   0.424  0.8241 -0.3991  0.2745
 7310TIP3    H243422   1.258   6.201   0.328 -1.0733  1.2572  0.2103
 7311TIP3   OH243423   2.186   5.238   3.383  0.1571 -0.3973 -0.3553
 7311TIP3    H143424   2.150   5.165   3.434  0.4380 -0.0825  0.3170
 7311TIP3    H243425   2.112   5.297   3.370  0.0345 -0.5823 -0.4899
 7312TIP3   OH243426   4.568   3.864  11.370  0.3263 -0.2461 -0.3904
 7312TIP3    H143427   4.639   3.799  11.373 -0.0844 -0.6796  0.2738
 7312TIP3    H243428   4.565   3.900  11.459  0.9217  1.1127 -0.8998
 7313TIP3   OH243429   0.654   1.952  15.696 -0.0249 -0.2625 -0.3766
 7313TIP3    H143430   0.604   1.871  15.703  0.2254 -0.2848  2.3571
 7313TIP3    H243431   0.589   2.021  15.691 -0.3704 -0.4411  1.0369
 7314TIP3   OH243432   4.271   0.335   5.967 -0.2869 -0.0923  0.1563
 7314TIP3    H143433   4.335   0.285   6.018  0.7822 -0.2320 -1.2706
 7314TIP3    H243434   4.243   0.276   5.898 -1.2861  0.2874  0.2167
 7315TIP3   OH243435   1.571   2.890  11.574  0.3369  0.4638 -0.3268
 7315TIP3    H143436   1.531   2.825  11.632  0.0294  1.0783  0.1563
 7315TIP3    H243437   1.632   2.938  11.630  2.8551 -1.3531 -1.3351
 7316TIP3   OH243438   0.132   4.740   6.465  0.1510  0.4674 -0.6996
 7316TIP3    H143439   0.063   4.786   6.418 -0.9646  0.6463  1.0089
 7316TIP3    H243440   0.087   4.672   6.515  0.8983  1.6572  1.7920
 7317TIP3   OH243441   0.389   6.344   0.410  0.2639  0.3071 -0.8915
 7317TIP3    H143442   0.380   6.271   0.471  0.3588  1.8556  1.1137
 7317TIP3    H243443   0.367   6.308   0.325 -1.6329 -1.5810  0.3098
 7318TIP3   OH243444   2.046   3.019   0.229  0.1585 -0.1100 -0.0742
 7318TIP3    H143445   2.065   3.100   0.276 -0.3247  1.0480 -1.7767
 7318TIP3    H243446   1.955   3.028   0.200  0.4347 -0.7385 -1.2336
 7319TIP3   OH243447   6.048   3.477  11.702 -0.1476 -0.0262  0.0942
 7319TIP3    H143448   6.102   3.402  11.678 -1.3391 -0.5402 -1.1612
 7319TIP3    H243449   5.963   3.439  11.724 -0.3281  0.8447  0.9852
 7320TIP3   OH243450   3.346   5.971  12.712  0.0542 -0.4057 -0.2367
 7320TIP3    H143451   3.336   6.063  12.737 -0.1709 -0.5541  0.2326
 7320TIP3    H243452   3.306   5.965  12.626 -1.8978 -0.5071  0.6331
 7321TIP3   OH243453   3.594   4.108   2.481 -0.2926 -0.3101  0.0161
 7321TIP3    H143454   3.540   4.054   2.538  0.1239 -0.2969  0.4260
 7321TIP3    H243455   3.638   4.170   2.540 -0.2950  0.0768 -0.3785
 7322TIP3   OH243456   1.734   3.035  16.365 -0.1361 -0.8831 -0.5634
 7322TIP3    H143457   1.644   3.066  16.378  0.0482 -0.5311 -0.0872
 7322TIP3    H243458   1.741   3.024  16.270 -0.5352 -0.4433 -0.6543
 7323TIP3   OH243459   3.983   1.440   5.049 -0.0440 -0.0822 -0.3146
 7323TIP3    H143460   4.056   1.414   4.992  0.3291  1.4234 -0.5821
 7323TIP3    H243461   3.914   1.376   5.031  1.2128 -1.5540 -0.0272
 7324TIP3   OH243462   1.705   4.937  15.578  0.4387  0.8166 -0.7062
 7324TIP3    H143463   1.718   4.977  15.664 -0.6480 -0.3030  0.0202
 7324TIP3    H243464   1.754   4.855  15.582  0.0830  0.5874 -1.0239
 7325TIP3   OH243465   3.251   0.402   1.496  0.6647 -0.2132 -0.3099
 7325TIP3    H143466   3.272   0.327   1.441  0.0767 -0.7011  0.1176
 7325TIP3    H243467   3.157   0.415   1.485  0.6071 -0.0826  0.2890
 7326TIP3   OH243468   3.304   6.540   4.268  0.6540  0.1320  0.2910
 7326TIP3    H143469   3.217   6.501   4.280  0.9701 -0.4343  0.8055
 7326TIP3    H243470   3.290   6.612   4.207 -0.1982  0.1184  0.4592
 7327TIP3   OH243471   0.147   6.025  14.217  0.4946 -0.5039 -0.1255
 7327TIP3    H143472   0.189   5.944  14.244  1.4905 -0.0994 -0.4280
 7327TIP3    H243473   0.115   6.007  14.128 -0.5174 -0.9992  0.3212
 7328TIP3   OH243474   4.407   3.396  15.701 -0.2419  0.4308 -0.1181
 7328TIP3    H143475   4.468   3.337  15.657  0.1838  0.3274  0.5905
 7328TIP3    H243476   4.458   3.435  15.773 -1.5794 -1.4458  1.9986
 7329TIP3   OH243477   1.273   2.693  16.946  0.1234 -0.1012 -0.2765
 7329TIP3    H143478   1.281   2.779  16.988 -1.3179 -0.8443  1.6708
 7329TIP3    H243479   1.357   2.651  16.962  0.1103  0.1890  0.6058
 7330TIP3   OH243480   5.768   0.252   4.968  0.7668  0.3762 -0.2857
 7330TIP3    H143481   5.713   0.188   5.013 -0.8434  1.5742 -0.4368
 7330TIP3    H243482   5.841   0.201   4.934 -0.4819 -1.3940 -0.4731
 7331TIP3   OH243483   4.348   5.288   5.466  0.2108 -0.2541  0.5630
 7331TIP3    H143484   4.325   5.308   5.376 -0.4986 -0.0470  0.7853
 7331TIP3    H243485   4.415   5.219   5.459  2.1228  1.5579 -0.1994
 7332TIP3   OH243486   3.758   0.998  16.784  0.1264  0.6599 -0.3267
 7332TIP3    H143487   3.728   0.971  16.871  3.8691 -0.1290  0.8749
 7332TIP3    H243488   3.703   0.947  16.723 -0.5106 -1.1615  1.6451
 7333TIP3   OH243489   5.697   5.687  11.173  0.1224  0.6496 -0.5023
 7333TIP3    H143490   5.776   5.636  11.192  0.0055  0.6503 -0.0094
 7333TIP3    H243491   5.665   5.652  11.090 -0.4356 -0.6568  0.2461
 7334TIP3   OH243492   5.592   2.515   2.092  0.4857  0.0888  0.4614
 7334TIP3    H143493   5.511   2.481   2.053  0.9774 -0.2138 -0.3219
 7334TIP3    H243494   5.589   2.609   2.075 -0.3716  0.3100  1.7001
 7335TIP3   OH243495   1.448   6.003  12.656  0.8140  0.3582 -0.2182
 7335TIP3    H143496   1.413   5.993  12.568 -0.1627  1.1138  0.0710
 7335TIP3    H243497   1.491   5.919  12.674  0.5067 -0.0198 -1.1801
 7336TIP3   OH243498   1.970   6.348  11.588  0.5194  0.1169 -0.0200
 7336TIP3    H143499   1.877   6.347  11.608  0.8140  2.7665  1.9902
 7336TIP3    H243500   2.003   6.265  11.624 -0.9224 -0.5118 -0.0896
 7337TIP3   OH243501   2.540   6.178   2.700 -0.4315 -0.2821 -0.5792
 7337TIP3    H143502   2.477   6.144   2.636  0.0474  0.4876 -1.4866
 7337TIP3    H243503   2.623   6.139   2.674  0.1512  1.5686 -1.6997
 7338TIP3   OH243504   3.125   4.772  16.859 -0.1467 -0.3957  0.4700
 7338TIP3    H143505   3.142   4.782  16.765 -0.5334  1.4928  0.5578
 7338TIP3    H243506   3.211   4.780  16.900  0.1323 -2.0019  0.2606
 7339TIP3   OH243507   2.363   4.546  13.412  0.3175  0.9956 -0.3907
 7339TIP3    H143508   2.295   4.587  13.466 -0.2732  0.8139 -0.9839
 7339TIP3    H243509   2.401   4.619  13.363 -0.1517  0.9617 -0.8139
 7340TIP3   OH243510   4.007   6.754  12.449  0.0733  0.1970 -0.2924
 7340TIP3    H143511   4.100   6.775  12.449  0.1419  2.8255  6.9666
 7340TIP3    H243512   4.002   6.666  12.488 -0.4581  0.5706  0.5018
 7341TIP3   OH243513   6.710   6.194  14.248 -0.2130  0.0534 -0.2490
 7341TIP3    H143514   6.790   6.144  14.230 -1.1772 -1.7871  0.3024
 7341TIP3    H243515   6.671   6.150  14.323 -0.9566  1.9092  0.5197
 7342TIP3   OH243516   6.230   2.540  14.299  0.0585  0.3798  0.4193
 7342TIP3    H143517   6.251   2.466  14.243  0.0109  1.4797 -1.1348
 7342TIP3    H243518   6.135   2.551  14.290  0.2100  1.2686 -0.2384
 7343TIP3   OH243519   2.374   6.040  14.354 -0.1981  0.4136  0.4204
 7343TIP3    H143520   2.366   6.074  14.443  1.0638 -1.7947  1.4472
 7343TIP3    H243521   2.466   6.051  14.331 -0.3852  0.3928 -0.3906
 7344TIP3   OH243522   3.314   1.061  12.064  0.2953  0.0204 -0.1337
 7344TIP3    H143523   3.233   1.068  12.114  1.6407  1.0162  2.0753
 7344TIP3    H243524   3.295   1.104  11.981 -1.0913  1.3314  0.8163
 7345TIP3   OH243525   6.635   6.211   0.385  0.1824  0.1337 -0.0331
 7345TIP3    H143526   6.597   6.276   0.445 -0.6550  1.3465 -1.8004
 7345TIP3    H243527   6.724   6.242   0.370 -0.2895  1.0724 -1.0597
 7346TIP3   OH243528   3.051   2.085  12.996 -0.4293 -0.3818 -0.6355
 7346TIP3    H143529   2.984   2.068  13.061  0.2626  0.1632  0.2417
 7346TIP3    H243530   3.122   2.126  13.045 -0.1039  0.5249 -1.8212
 7347TIP3   OH243531   0.300   6.387  15.580  0.1777  0.2474 -0.2682
 7347TIP3    H143532   0.343   6.464  15.616  1.1397  0.0430 -0.9476
 7347TIP3    H243533   0.281   6.411  15.489  1.0704 -0.5319 -0.6772
 7348TIP3   OH243534   5.605   0.584  16.357 -0.0986  0.4783  0.1292
 7348TIP3    H143535   5.700   0.579  16.353 -0.1363  0.4345 -1.1493
 7348TIP3    H243536   5.575   0.519  16.294 -1.0340 -0.8472  1.8356
 7349TIP3   OH243537   6.334   4.052  12.237 -0.3959 -1.2392  0.0929
 7349TIP3    H143538   6.317   4.007  12.320 -2.7186  1.6415  1.3438
 7349TIP3    H243539   6.257   4.034  12.184 -0.5868 -0.1436 -0.0208
 7350TIP3   OH243540   3.817   1.841  16.520 -0.1355 -0.1128  0.0224
 7350TIP3    H143541   3.756   1.769  16.509  2.1713 -1.9954 -1.3382
 7350TIP3    H243542   3.820   1.884  16.435  0.4301 -0.0540  0.0677
 7351TIP3   OH243543   1.410   0.908  13.268  0.0354 -0.1081 -0.0399
 7351TIP3    H143544   1.424   0.813  13.275  1.5370  0.0670 -0.3678
 7351TIP3    H243545   1.414   0.926  13.174  0.0588  0.3230  0.0420
 7352TIP3   OH243546   2.126   2.742  14.463 -0.3155  0.3329  0.3592
 7352TIP3    H143547   2.157   2.810  14.523  0.2021  0.8755 -0.5064
 7352TIP3    H243548   2.198   2.679  14.459 -0.6779 -0.1292  0.9318
 7353TIP3   OH243549   5.241   1.730   1.366 -0.1020  0.1506  0.5806
 7353TIP3    H143550   5.225   1.749   1.458  0.6313  0.6274  0.6156
 7353TIP3    H243551   5.318   1.673   1.366 -0.5731 -0.4994  0.3020
 7354TIP3   OH243552   5.117   1.613  16.752 -0.2906 -0.7361 -0.2792
 7354TIP3    H143553   5.126   1.704  16.779 -0.3458 -0.8628  0.1724
 7354TIP3    H243554   5.109   1.564  16.834 -2.2208 -0.9504 -0.5321
 7355TIP3   OH243555   3.717   0.908  12.113  0.1682 -0.6648  0.2407
 7355TIP3    H143556   3.787   0.959  12.071 -1.3849 -0.0007 -1.7370
 7355TIP3    H243557   3.660   0.973  12.152  1.5411 -1.2685  3.6212
 7356TIP3   OH243558   0.186   4.357   1.639  0.0365  0.5026 -0.1263
 7356TIP3    H143559   0.192   4.266   1.610 -2.5551 -0.7298  2.6301
 7356TIP3    H243560   0.276   4.382   1.660  0.6391 -2.0183  0.5761
 7357TIP3   OH243561   5.075   4.863  12.961  0.1790 -0.3300  0.3207
 7357TIP3    H143562   5.133   4.934  12.989 -0.0780  0.3553 -0.8169
 7357TIP3    H243563   5.127   4.813  12.899 -0.4928  0.4111 -0.8667
 7358TIP3   OH243564   1.066   0.979  15.807  0.6645  0.2443 -0.7170
 7358TIP3    H143565   1.060   1.069  15.774 -1.4766 -0.6088 -3.0370
 7358TIP3    H243566   1.159   0.959  15.806  1.1642  2.2913 -0.4649
 7359TIP3   OH243567   0.049   4.332  12.412  0.4858  0.5072  0.3499
 7359TIP3    H143568   0.009   4.246  12.409 -1.0057  1.0761  2.0344
 7359TIP3    H243569   0.062   4.356  12.320 -1.4440 -0.4545 -0.2242
 7360TIP3   OH243570   5.518   2.233  12.928  0.1256  0.2385  0.8530
 7360TIP3    H143571   5.569   2.286  12.867 -1.2716  0.7094  0.0376
 7360TIP3    H243572   5.561   2.244  13.012  1.3961  0.5469  0.1852
 7361TIP3   OH243573   2.783   3.657   5.146  0.1410 -0.2891 -0.1869
 7361TIP3    H143574   2.832   3.724   5.099 -0.8346 -0.8805 -2.1647
 7361TIP3    H243575   2.732   3.612   5.078 -1.9061 -0.7461  1.5323
 7362TIP3   OH243576   2.581   5.303   0.433 -0.1587  0.4917 -0.3621
 7362TIP3    H143577   2.522   5.266   0.498  0.6726  0.2721  0.2729
 7362TIP3    H243578   2.533   5.295   0.350 -0.1407 -1.7398 -0.2145
 7363TIP3   OH243579   3.106   0.985   5.458  0.1115 -0.3072 -0.0263
 7363TIP3    H143580   3.124   0.923   5.388 -0.0340  2.4979 -2.7507
 7363TIP3    H243581   3.011   0.979   5.472 -0.2825  0.8176 -1.9195
 7364TIP3   OH243582   3.451   4.463  10.804 -0.1331  1.1453  0.1574
 7364TIP3    H143583   3.516   4.394  10.788 -0.1243  1.2957 -0.4830
 7364TIP3    H243584   3.466   4.526  10.734 -0.7124  1.3781  0.2393
 7365TIP3   OH243585   5.159   6.072   6.007 -0.3336  0.3037  0.0367
 7365TIP3    H143586   5.235   6.015   6.001 -0.5693  0.1085 -1.3154
 7365TIP3    H243587   5.161   6.124   5.927 -1.6439  0.2666 -0.0453
 7366TIP3   OH243588   0.251   2.507  14.755 -0.4247 -0.0134 -0.2405
 7366TIP3    H143589   0.307   2.548  14.690  2.2289 -0.4421  1.6131
 7366TIP3    H243590   0.232   2.576  14.818 -1.8267  0.0539 -0.6960
 7367TIP3   OH243591   4.096   5.998  12.530 -0.2226  0.0411 -0.2423
 7367TIP3    H143592   4.112   5.968  12.441  1.2531 -0.5422  0.1774
 7367TIP3    H243593   4.055   5.923  12.573  1.9169 -0.8884  0.3512
 7368TIP3   OH243594   1.247   2.234   5.402  0.0674  0.0282 -0.6056
 7368TIP3    H143595   1.159   2.249   5.368 -0.6246 -2.2769  0.0133
 7368TIP3    H243596   1.295   2.197   5.328 -0.1002 -0.6982 -0.3499
 7369TIP3   OH243597   4.520   5.462  15.715  0.4584  0.4242  0.4658
 7369TIP3    H143598   4.601   5.452  15.664  0.3141  2.2189 -0.1725
 7369TIP3    H243599   4.452   5.478  15.649 -0.0546  0.9242  1.1035
 7370TIP3   OH243600   2.652   6.428  12.431 -0.3128 -0.3757 -0.6434
 7370TIP3    H143601   2.598   6.505  12.412  0.3079  0.1236 -0.4185
 7370TIP3    H243602   2.662   6.429  12.526  1.6537  0.6394 -0.8037
 7371TIP3   OH243603   4.200   3.339  16.122  0.0617  0.0275  0.2179
 7371TIP3    H143604   4.286   3.297  16.121 -0.1078 -0.4614  2.1034
 7371TIP3    H243605   4.142   3.276  16.079  0.3998 -0.2382  0.1496
 7372TIP3   OH243606   1.009   5.029   5.475 -0.6876  0.2449  0.0299
 7372TIP3    H143607   1.068   5.036   5.400 -0.1298 -0.2095  0.4141
 7372TIP3    H243608   0.921   5.036   5.438 -0.5546 -2.4855 -1.0328
 7373TIP3   OH243609   2.640   0.212   3.901 -0.4424  0.0175  0.1039
 7373TIP3    H143610   2.572   0.223   3.968  1.0483 -2.0841  2.1164
 7373TIP3    H243611   2.610   0.139   3.848  0.8518 -2.0203  2.0093
 7374TIP3   OH243612   3.177   2.201   2.435 -0.3301  0.2527  0.0450
 7374TIP3    H143613   3.192   2.238   2.522 -1.9422 -0.1900  0.5607
 7374TIP3    H243614   3.154   2.109   2.452  1.6679 -0.4913 -1.0562
 7375TIP3   OH243615   1.043   2.219   3.701  0.1926 -0.6777  0.1059
 7375TIP3    H143616   1.074   2.310   3.701 -0.2358 -0.5072 -1.4198
 7375TIP3    H243617   1.076   2.183   3.783  1.7544  0.4049  0.0119
 7376TIP3   OH243618   1.026   0.200  12.434  0.6471  0.4756 -0.5418
 7376TIP3    H143619   1.062   0.208  12.522  2.4601 -1.2927 -1.0493
 7376TIP3    H243620   1.055   0.114  12.404  0.5847  1.2573 -3.0857
 7377TIP3   OH243621   5.396   6.365   3.281  0.1307 -0.3797  0.0564
 7377TIP3    H143622   5.480   6.319   3.275  0.7284  0.7106 -0.2949
 7377TIP3    H243623   5.377   6.391   3.190  0.2151  0.7402  0.3413
 7378TIP3   OH243624   4.567   0.229   2.622 -1.0126  0.0738 -0.0714
 7378TIP3    H143625   4.521   0.230   2.538 -2.3893  0.2489  0.6552
 7378TIP3    H243626   4.613   0.145   2.624 -1.3073 -0.1043 -0.8175
 7379TIP3   OH243627   1.337   0.554   2.866  0.6851 -0.1006 -0.1685
 7379TIP3    H143628   1.352   0.517   2.779 -0.3728  0.0720 -0.4476
 7379TIP3    H243629   1.290   0.635   2.850  0.8067  0.1228  0.5535
 7380TIP3   OH243630   6.502   3.431   4.853  0.1004 -0.0262  0.2902
 7380TIP3    H143631   6.595   3.445   4.872  0.1152 -1.2491  1.3458
 7380TIP3    H243632   6.460   3.433   4.939 -0.4585 -1.9642  0.1069
 7381TIP3   OH243633   2.144   3.533   1.822 -0.3129 -0.0006 -0.5472
 7381TIP3    H143634   2.228   3.542   1.866 -0.5992 -0.8071  0.1906
 7381TIP3    H243635   2.165   3.537   1.729  0.8961 -2.5877 -0.4742
 7382TIP3   OH243636   2.539   5.468  11.496 -0.4199  0.0142 -0.3901
 7382TIP3    H143637   2.478   5.399  11.470 -0.6840  0.4832 -1.0537
 7382TIP3    H243638   2.568   5.507  11.413  1.1053 -0.4575 -0.1163
 7383TIP3   OH243639   4.483   3.102   1.699  0.7241  0.2511 -0.2451
 7383TIP3    H143640   4.463   3.157   1.775  0.0142 -2.5320  1.7462
 7383TIP3    H243641   4.526   3.025   1.736 -0.9030 -1.8710 -2.4629
 7384TIP3   OH243642   5.120   6.687   6.116 -0.1314  0.0270 -0.5001
 7384TIP3    H143643   5.130   6.766   6.062  1.0581  2.4092  2.8797
 7384TIP3    H243644   5.049   6.708   6.176  1.1668 -0.8034  1.4203
 7385TIP3   OH243645   0.762   4.693  12.128 -0.2983 -0.1426  0.1139
 7385TIP3    H143646   0.791   4.624  12.188  0.8271 -0.1221 -0.3716
 7385TIP3    H243647   0.668   4.680  12.120 -0.5947  0.2467  2.3543
 7386TIP3   OH243648   2.344   6.252   4.446  0.3694 -0.0271  0.5721
 7386TIP3    H143649   2.256   6.215   4.438 -0.6669  2.1934  0.9973
 7386TIP3    H243650   2.366   6.281   4.358  0.4851 -0.1632  0.5561
 7387TIP3   OH243651   3.009   1.906  11.154 -0.4121 -0.1241 -0.0479
 7387TIP3    H143652   2.958   1.932  11.078 -1.4829 -2.1883 -0.1129
 7387TIP3    H243653   3.036   1.816  11.136  0.0537 -0.3702  1.6268
 7388TIP3   OH243654   0.634   0.038   5.721 -0.3541 -0.0612  0.7531
 7388TIP3    H143655   0.588  -0.016   5.785  1.7853  0.0264  2.5077
 7388TIP3    H243656   0.652   0.119   5.768  0.7517  0.2345 -0.1491
 7389TIP3   OH243657   4.682   4.912  11.615  0.1870  0.0459  0.1987
 7389TIP3    H143658   4.706   4.931  11.705  0.4968  0.6940 -0.0156
 7389TIP3    H243659   4.597   4.869  11.621  0.7400 -1.0200  0.8750
 7390TIP3   OH243660   6.051   6.679  11.194  0.2400 -0.0058 -0.0369
 7390TIP3    H143661   5.998   6.602  11.173 -0.5461  0.0624  1.5300
 7390TIP3    H243662   6.139   6.644  11.209 -0.2568 -0.7401  1.3617
 7391TIP3   OH243663   1.724   3.260   5.469  0.1383 -0.6620 -0.0530
 7391TIP3    H143664   1.783   3.223   5.403  3.7552 -3.5821  4.2099
 7391TIP3    H243665   1.747   3.353   5.471  1.4864 -0.9164 -1.4261
 7392TIP3   OH243666   0.705   1.063   4.801  0.2811  0.7387 -1.4803
 7392TIP3    H143667   0.760   1.102   4.869 -0.1558 -1.5736  0.3494
 7392TIP3    H243668   0.635   1.126   4.787 -1.7029 -0.1021  3.0226
 7393TIP3   OH243669   5.894   3.463  16.487 -0.0680 -0.1784 -0.0521
 7393TIP3    H143670   5.925   3.504  16.407 -0.3276  2.6258  1.1912
 7393TIP3    H243671   5.808   3.502  16.503 -0.0953 -0.8002  1.5160
 7394TIP3   OH243672   1.015   6.587  16.809  0.0684  0.5499 -0.5631
 7394TIP3    H143673   1.022   6.623  16.898  1.7180 -1.0095 -0.0094
 7394TIP3    H243674   1.097   6.613  16.767 -0.9634  1.7976 -1.8695
 7395TIP3   OH243675   4.411   5.791   2.009 -0.1754 -0.1119 -0.1879
 7395TIP3    H143676   4.393   5.715   1.954 -0.8507  0.0805 -0.2438
 7395TIP3    H243677   4.446   5.857   1.949  1.3473 -0.6863  0.0193
 7396TIP3   OH243678   6.133   3.827   0.854  0.6500  0.5142  0.5015
 7396TIP3    H143679   6.138   3.748   0.800 -0.3987 -0.3927  1.6657
 7396TIP3    H243680   6.198   3.812   0.923 -1.0160 -0.3469  1.9447
 7397TIP3   OH243681   6.049   4.212  17.211  0.1560 -0.1608 -0.2338
 7397TIP3    H143682   5.973   4.237  17.264  0.3292  0.6148 -0.3329
 7397TIP3    H243683   6.052   4.117  17.217 -0.6002 -0.1760  0.0813
 7398TIP3   OH243684   1.529   5.672   5.950  0.3717  0.8537 -0.7348
 7398TIP3    H143685   1.612   5.701   5.987  0.0259  0.4784  0.3655
 7398TIP3    H243686   1.552   5.601   5.890  0.6321 -1.4682  1.9154
 7399TIP3   OH243687   2.921   2.214   4.723  0.1540 -0.4020  0.3965
 7399TIP3    H143688   2.967   2.238   4.803  1.8458 -2.5392  0.1444
 7399TIP3    H243689   2.887   2.297   4.689  1.3193  0.8537  2.1415
 7400TIP3   OH243690   1.194   0.207   3.829  0.2660  0.2626 -0.7687
 7400TIP3    H143691   1.143   0.200   3.749  0.0216  0.5189 -0.6387
 7400TIP3    H243692   1.274   0.156   3.812 -0.5938 -1.2406 -0.5153
 7401TIP3   OH243693   5.728   6.331   1.948  0.0047  0.4201 -0.8331
 7401TIP3    H143694   5.774   6.283   2.015 -2.3591  1.6073  1.8602
 7401TIP3    H243695   5.731   6.274   1.871 -1.8976 -3.7720  1.8237
 7402TIP3   OH243696   4.650   3.181  11.496 -0.2983 -0.1613 -0.3973
 7402TIP3    H143697   4.623   3.092  11.518 -1.0571  0.2971  0.5836
 7402TIP3    H243698   4.661   3.180  11.401  0.8415 -1.6010 -0.2853
 7403TIP3   OH243699   1.975   0.609  15.631 -0.0020 -0.2195  0.1532
 7403TIP3    H143700   1.939   0.536  15.581 -0.0200 -0.7270  0.8861
 7403TIP3    H243701   1.918   0.683  15.610 -0.6122 -0.6670  0.1960
 7404TIP3   OH243702   0.716   0.308  12.271 -0.8350 -0.2773 -0.0397
 7404TIP3    H143703   0.775   0.236  12.294 -0.8709  0.4182  2.5006
 7404TIP3    H243704   0.764   0.387  12.296 -0.5768  0.7438 -3.2562
 7405TIP3   OH243705   0.784   4.543  10.883 -0.0870 -0.0907  0.5435
 7405TIP3    H143706   0.828   4.514  10.963  1.5444  0.0174 -0.2721
 7405TIP3    H243707   0.832   4.502  10.812 -1.2802  0.1040 -0.4231
 7406TIP3   OH243708   4.638   1.693  14.537 -0.1518 -0.3325  0.6089
 7406TIP3    H143709   4.617   1.606  14.503 -1.5570  0.0374  0.4807
 7406TIP3    H243710   4.720   1.716  14.494 -0.2445 -1.2075 -0.0743
 7407TIP3   OH243711   4.074   0.778  14.344  0.2111 -0.2079  0.5322
 7407TIP3    H143712   4.104   0.869  14.351  1.1340 -0.5574  1.3120
 7407TIP3    H243713   4.077   0.745  14.433 -4.1608  0.1752  1.0433
 7408TIP3   OH243714   5.201   1.829  16.899  0.1881  0.2199 -0.0302
 7408TIP3    H143715   5.216   1.922  16.884  0.3444  0.0361 -1.1334
 7408TIP3    H243716   5.281   1.798  16.942  0.4471  0.4429 -0.3511
 7409TIP3   OH243717   2.561   2.150   1.300 -0.5579 -0.5710  0.0424
 7409TIP3    H143718   2.525   2.143   1.212 -1.0286 -0.1372  0.1939
 7409TIP3    H243719   2.555   2.243   1.321  1.3564 -0.3608 -0.2102
 7410TIP3   OH243720   1.343   4.197   4.759 -0.2264  0.0070  0.5643
 7410TIP3    H143721   1.298   4.132   4.705 -2.9775  1.6078  0.7855
 7410TIP3    H243722   1.351   4.156   4.845 -1.3286 -0.3024  0.5276
 7411TIP3   OH243723   5.110   4.280  16.239 -0.1594  0.4551 -0.6210
 7411TIP3    H143724   5.173   4.320  16.179  1.0491 -0.5595 -0.0660
 7411TIP3    H243725   5.161   4.215  16.287 -2.0009 -1.6771 -1.3896
 7412TIP3   OH243726   3.535   1.059  12.251  0.1015 -0.1180  0.4637
 7412TIP3    H143727   3.481   1.087  12.325 -0.4858  1.8615 -0.6179
 7412TIP3    H243728   3.472   1.039  12.182  0.6635 -1.2700  0.2661
 7413TIP3   OH243729   6.767   1.600  12.344  0.0532  0.5188  0.3603
 7413TIP3    H143730   6.813   1.555  12.415 -0.4707 -0.2381  0.2322
 7413TIP3    H243731   6.812   1.684  12.336  1.5838 -0.2843  0.0776
 7414TIP3   OH243732   5.518   1.343  14.627  0.5850  0.3496 -0.1301
 7414TIP3    H143733   5.530   1.413  14.692  0.1336 -0.9831  1.4629
 7414TIP3    H243734   5.595   1.351  14.570  2.3569  0.0611  2.0651
 7415TIP3   OH243735   4.483   6.771  16.998 -0.2496  0.2652  0.2117
 7415TIP3    H143736   4.443   6.713  16.933  2.2611  0.7801 -1.9744
 7415TIP3    H243737   4.484   6.857  16.956 -0.1062  0.9961  1.6576
 7416TIP3   OH243738   4.079   3.972   2.428  0.4487  0.1000 -0.1457
 7416TIP3    H143739   4.077   4.002   2.519 -3.0712 -1.4372  0.4598
 7416TIP3    H243740   4.035   4.041   2.379  1.0214  0.2647 -0.4292
 7417TIP3   OH243741   2.679   2.597  16.623 -0.4168 -0.4097  0.0620
 7417TIP3    H143742   2.620   2.527  16.598  1.1309 -1.7610  0.0432
 7417TIP3    H243743   2.766   2.566  16.599  0.5756  0.5171  2.1378
 7418TIP3   OH243744   0.318   2.622  15.464  0.3314 -0.2661 -0.3402
 7418TIP3    H143745   0.342   2.563  15.392 -0.1564 -0.6702 -0.1774
 7418TIP3    H243746   0.397   2.629  15.517  0.8341  0.3800 -1.1454
 7419TIP3   OH243747   6.076   2.283   1.234 -0.2107  0.5263 -0.3315
 7419TIP3    H143748   6.139   2.212   1.224 -1.8048 -0.9953 -0.0246
 7419TIP3    H243749   6.128   2.356   1.267  1.1630 -1.1510  1.5407
 7420TIP3   OH243750   5.628   3.723   2.701  0.3369 -0.0844  0.3720
 7420TIP3    H143751   5.533   3.721   2.690  0.1218 -0.9707  2.0362
 7420TIP3    H243752   5.652   3.631   2.716  1.5162  0.0815 -0.3389
 7421TIP3   OH243753   6.232   4.892   4.365  0.4412 -0.1847 -0.1667
 7421TIP3    H143754   6.280   4.969   4.335 -0.0310  0.9429  1.7613
 7421TIP3    H243755   6.182   4.863   4.289 -0.9554  2.6771 -0.4691
 7422TIP3   OH243756   5.216   0.157  12.286  0.0650 -0.6003  0.1056
 7422TIP3    H143757   5.165   0.230  12.251 -0.3756 -1.4271 -1.0358
 7422TIP3    H243758   5.158   0.115  12.349  0.0478 -0.4047  0.2216
 7423TIP3   OH243759   5.015   3.916  12.957 -0.0504 -0.6095 -0.4251
 7423TIP3    H143760   4.958   3.969  12.901  0.4927 -1.5009 -1.9072
 7423TIP3    H243761   5.104   3.938  12.928  0.3500  0.1226  1.2618
 7424TIP3   OH243762   3.672   0.122  14.109 -0.0816  0.3845  0.4601
 7424TIP3    H143763   3.727   0.049  14.137 -0.0201 -0.6091 -1.9533
 7424TIP3    H243764   3.721   0.201  14.131  1.5049 -0.4283 -0.0551
 7425TIP3   OH243765   3.146   6.360  12.331 -0.1823  0.3747 -0.1624
 7425TIP3    H143766   3.064   6.398  12.300  0.1929  0.1931 -1.4543
 7425TIP3    H243767   3.157   6.281  12.277  0.4341 -0.0397  0.5569
 7426TIP3   OH243768   0.155   2.871   1.217 -0.1322  0.4123  0.4286
 7426TIP3    H143769   0.218   2.802   1.240  1.0770  1.6313  0.9579
 7426TIP3    H243770   0.070   2.827   1.216  0.0402 -0.4317  4.4340
 7427TIP3   OH243771   3.837   6.172   5.754  0.0592 -0.2361 -0.2950
 7427TIP3    H143772   3.795   6.153   5.837  1.4494 -1.4487  0.1736
 7427TIP3    H243773   3.926   6.200   5.778  0.4679 -0.5778 -1.3619
 7428TIP3   OH243774   0.453   5.333  16.176 -0.3849  0.7763  0.5815
 7428TIP3    H143775   0.500   5.334  16.092 -2.0585 -0.4644 -0.4303
 7428TIP3    H243776   0.494   5.262  16.226  1.2012  2.0810  1.2251
 7429TIP3   OH243777   2.033   6.259  15.389 -0.6415 -0.3262 -0.1722
 7429TIP3    H143778   1.970   6.191  15.413 -0.3906 -1.5417 -2.6323
 7429TIP3    H243779   1.980   6.324  15.342 -0.8768  1.2653  2.1457
 7430TIP3   OH243780   1.941   6.690   3.174 -0.0552  0.5827 -0.4639
 7430TIP3    H143781   1.985   6.613   3.140  0.3190  0.7684 -0.4022
 7430TIP3    H243782   1.851   6.661   3.191  0.6013 -0.4604  1.5991
 7431TIP3   OH243783   5.943   1.306  14.072  0.6190  0.1530  0.0550
 7431TIP3    H143784   5.968   1.340  14.158  2.1338 -1.5891  0.3538
 7431TIP3    H243785   5.849   1.322  14.066  0.3088 -0.4662  2.4353
 7432TIP3   OH243786   1.981   6.146   3.864  0.8740 -0.1710 -0.3480
 7432TIP3    H143787   1.956   6.057   3.840  1.5319 -0.7416  0.9548
 7432TIP3    H243788   2.026   6.180   3.787  0.4256 -0.8786 -0.9383
 7433TIP3   OH243789   2.051   3.731   6.397 -0.0851 -0.2507 -0.4449
 7433TIP3    H143790   2.102   3.658   6.362  1.3777  0.2355  0.5530
 7433TIP3    H243791   1.969   3.692   6.427  0.3088 -1.3228 -0.7307
 7434TIP3   OH243792   1.564   3.166   0.160  0.2035  0.9323  0.0591
 7434TIP3    H143793   1.599   3.247   0.197  2.4515  0.0745 -0.0296
 7434TIP3    H243794   1.541   3.113   0.236  0.2629  1.0418  0.1534
 7435TIP3   OH243795   3.140   0.863  12.614  0.7788 -0.1512  0.1599
 7435TIP3    H143796   3.128   0.955  12.640 -0.3406 -0.5849  1.3155
 7435TIP3    H243797   3.194   0.826  12.684  0.9749 -0.4505 -0.1504
 7436TIP3   OH243798   5.112   4.499  13.034  0.5371 -0.2693  0.0885
 7436TIP3    H143799   5.136   4.425  13.089 -1.1332 -2.2332 -1.6412
 7436TIP3    H243800   5.016   4.500  13.036  0.4006 -0.4151 -2.6683
 7437TIP3   OH243801   1.648   5.127   3.578 -0.4494 -0.0854 -0.0309
 7437TIP3    H143802   1.632   5.221   3.575  0.1926  0.0340  0.1219
 7437TIP3    H243803   1.594   5.096   3.650 -1.2254  0.0478 -0.5515
 7438TIP3   OH243804   4.031   4.252   2.301 -0.1588 -0.0498 -0.5563
 7438TIP3    H143805   4.008   4.330   2.251 -2.5767 -0.3584 -0.0116
 7438TIP3    H243806   4.004   4.272   2.390 -2.5523 -2.0989 -0.7053
 7439TIP3   OH243807   3.132   1.845   4.738  0.5915 -0.2480 -0.3866
 7439TIP3    H143808   3.113   1.855   4.831  0.5283 -0.2469 -0.4004
 7439TIP3    H243809   3.218   1.887   4.727  0.3116  0.3181 -0.4525
 7440TIP3   OH243810   6.657   4.789  17.211 -0.4529  0.7022 -0.4282
 7440TIP3    H143811   6.703   4.766  17.131  0.6333  1.5184 -0.0716
 7440TIP3    H243812   6.611   4.710  17.237  0.7145 -0.1403 -0.8477
 7441TIP3   OH243813   2.759   3.567   2.247 -0.0287  0.9489  0.3983
 7441TIP3    H143814   2.707   3.519   2.183  1.8855 -0.1358 -0.4424
 7441TIP3    H243815   2.700   3.633   2.282 -1.3006  1.2694 -2.1582
 7442TIP3   OH243816   2.010   0.253  11.110  0.6032 -0.7217  0.1912
 7442TIP3    H143817   2.085   0.310  11.125  0.5907 -1.5383  4.7248
 7442TIP3    H243818   1.948   0.306  11.060  2.5918  1.3661 -0.1917
 7443TIP3   OH243819   2.056   2.034   2.679  0.2528 -0.7413 -0.2108
 7443TIP3    H143820   2.045   1.939   2.683 -0.1213 -0.6777  0.5579
 7443TIP3    H243821   1.993   2.067   2.744 -1.1269  0.1627 -1.9286
 7444TIP3   OH243822   5.676   3.313   0.618 -0.5768 -0.1167  1.0104
 7444TIP3    H143823   5.766   3.332   0.646 -0.1817 -0.5770  0.0916
 7444TIP3    H243824   5.625   3.389   0.648  0.0118 -0.0975  2.0091
 7445TIP3   OH243825   3.457   4.286  15.357 -0.3627 -0.5466  0.0190
 7445TIP3    H143826   3.536   4.237  15.332  0.5004  0.6674  0.2785
 7445TIP3    H243827   3.475   4.318  15.445  0.0453  2.0403 -0.9148
 7446TIP3   OH243828   6.271   0.142  13.620 -0.1363 -0.3644 -0.2813
 7446TIP3    H143829   6.365   0.154  13.634 -0.4275 -0.8643  2.5132
 7446TIP3    H243830   6.238   0.231  13.608  0.3187  0.1486  1.8382
 7447TIP3   OH243831   3.929   5.730  15.295 -0.6045  0.7790  0.1743
 7447TIP3    H143832   3.970   5.647  15.319  0.9288  1.6602  0.7623
 7447TIP3    H243833   3.883   5.711  15.213 -1.0326 -0.8446  0.7460
 7448TIP3   OH243834   5.115   6.089   2.206  0.2226  0.0534 -0.2815
 7448TIP3    H143835   5.191   6.141   2.232  1.3971 -1.9109  0.4332
 7448TIP3    H243836   5.096   6.117   2.116  1.9759  0.3916 -0.5800
 7449TIP3   OH243837   0.543   0.569  12.083  0.1794 -0.0425 -0.0779
 7449TIP3    H143838   0.639   0.568  12.090  0.1113 -0.7003  0.8690
 7449TIP3    H243839   0.525   0.520  12.002  0.6141 -0.6700  0.1957
 7450TIP3   OH243840   0.192   6.327  13.609 -0.1359  0.9959  0.4066
 7450TIP3    H143841   0.149   6.355  13.690  0.3866 -1.8363  1.7881
 7450TIP3    H243842   0.285   6.337  13.627 -0.0412  1.2153 -0.2018
 7451TIP3   OH243843   2.522   0.855   2.388 -0.2861 -0.2903  0.3710
 7451TIP3    H143844   2.536   0.936   2.436 -1.1185  0.4410 -0.5856
 7451TIP3    H243845   2.607   0.837   2.346  0.2459 -0.5747  1.5289
 7452TIP3   OH243846   3.856   2.699   0.871  0.5058 -0.7221  0.3003
 7452TIP3    H143847   3.827   2.608   0.862  1.6395 -1.1376  0.7101
 7452TIP3    H243848   3.788   2.750   0.827  0.4841 -1.8547 -1.0445
 7453TIP3   OH243849   1.463   5.458   1.282  0.0896 -0.0701 -0.0746
 7453TIP3    H143850   1.528   5.417   1.225  0.1733 -0.3924  0.2460
 7453TIP3    H243851   1.493   5.548   1.293  0.1951 -0.0720 -0.3570
 7454TIP3   OH243852   1.780   6.720   0.930  0.4157 -0.0169  0.1514
 7454TIP3    H143853   1.771   6.815   0.936 -0.2590 -0.0641  0.0051
 7454TIP3    H243854   1.803   6.703   0.839  1.3252  0.0572  0.3629
 7455TIP3   OH243855   2.851   3.304  14.544  0.0044 -0.6121 -0.2177
 7455TIP3    H143856   2.867   3.395  14.570  0.8298 -0.5951 -0.7437
 7455TIP3    H243857   2.794   3.269  14.612 -0.3357  0.3045 -0.0147
 7456TIP3   OH243858   2.507   5.394   5.610  0.2818  0.3761 -0.3411
 7456TIP3    H143859   2.494   5.304   5.580 -1.6310  0.7468 -0.8069
 7456TIP3    H243860   2.571   5.431   5.549  1.4313 -0.7657  0.1257
 7457TIP3   OH243861   1.401   4.160  13.155  0.7063 -0.7147 -0.5965
 7457TIP3    H143862   1.349   4.080  13.150 -0.8433  0.1897  0.4404
 7457TIP3    H243863   1.338   4.230  13.169  2.1806  0.4279  0.7819
 7458TIP3   OH243864   4.539   4.222  15.764 -0.3134  0.3837 -0.2899
 7458TIP3    H143865   4.600   4.153  15.793 -0.9609 -0.1028 -0.0605
 7458TIP3    H243866   4.465   4.215  15.824 -0.7730  0.7072 -0.8110
 7459TIP3   OH243867   2.532   1.127   0.553  0.2612 -0.3479  0.9846
 7459TIP3    H143868   2.485   1.055   0.595 -0.3706  0.1585  1.1756
 7459TIP3    H243869   2.624   1.101   0.555 -0.1018 -1.9799 -0.5892
 7460TIP3   OH243870   5.756   0.553   0.860 -0.4660  0.3632  0.6421
 7460TIP3    H143871   5.779   0.479   0.803 -0.8680  0.7278 -0.0167
 7460TIP3    H243872   5.703   0.514   0.929 -1.0174  0.0851  0.0757
 7461TIP3   OH243873   4.558   2.274   0.305 -0.1150  0.0680  0.5157
 7461TIP3    H143874   4.564   2.366   0.333  1.5308 -0.1321  0.9334
 7461TIP3    H243875   4.562   2.278   0.210 -0.0991  0.4351  0.5275
 7462TIP3   OH243876   2.890   3.886   2.628  0.1180 -0.5987 -0.2154
 7462TIP3    H143877   2.922   3.863   2.541  0.0254 -1.9164  0.0807
 7462TIP3    H243878   2.795   3.876   2.622 -0.4442  3.5380 -1.1660
 7463TIP3   OH243879   0.575   0.012  14.612 -0.1138  0.0617 -0.6839
 7463TIP3    H143880   0.656  -0.038  14.600  0.0828  0.1006  0.3435
 7463TIP3    H243881   0.559   0.053  14.527  1.0998  0.2755 -0.8337
 7464TIP3   OH243882   0.243   3.718   5.984 -0.2650 -0.1678 -0.0276
 7464TIP3    H143883   0.202   3.688   6.064 -1.3332 -1.0336 -0.8733
 7464TIP3    H243884   0.229   3.647   5.921  2.3044 -0.4247 -0.4542
 7465TIP3   OH243885   5.435   5.092  12.135 -0.5494  0.2085 -0.2373
 7465TIP3    H143886   5.446   5.187  12.132 -1.0646  0.3663  1.3975
 7465TIP3    H243887   5.355   5.079  12.187  0.4335 -1.1308  1.0179
 7466TIP3   OH243888   5.225   0.894   3.122  0.1448  0.2877 -0.1253
 7466TIP3    H143889   5.161   0.824   3.112  1.0030 -0.2915 -2.0202
 7466TIP3    H243890   5.217   0.921   3.214 -1.9139 -0.5909  0.0149
 7467TIP3   OH243891   4.309   1.181   4.758 -0.1453 -0.0547  0.0020
 7467TIP3    H143892   4.399   1.187   4.727 -0.4406  0.9112 -0.7141
 7467TIP3    H243893   4.294   1.263   4.805 -0.2250 -0.8040  1.3207
 7468TIP3   OH243894   2.913   1.298   2.732 -0.1670 -0.2089 -0.2296
 7468TIP3    H143895   2.855   1.274   2.660 -0.0446  1.5424 -0.9733
 7468TIP3    H243896   2.997   1.259   2.709  0.3017  1.6029 -1.9341
 7469TIP3   OH243897   5.891   0.924   2.848 -0.6947  0.7306 -0.3870
 7469TIP3    H143898   5.822   0.931   2.914 -0.4278  1.6605 -0.1809
 7469TIP3    H243899   5.954   0.991   2.874 -0.6563  1.2079 -1.6778
 7470TIP3   OH243900   1.293   4.008  12.649  0.2492  0.7312  0.3744
 7470TIP3    H143901   1.244   4.087  12.625  0.1098  0.3223 -0.7906
 7470TIP3    H243902   1.241   3.936  12.613  1.1325  0.2121  0.0989
 7471TIP3   OH243903   0.636   2.177   1.004 -0.2115  0.8112 -0.0499
 7471TIP3    H143904   0.644   2.083   1.019 -3.0902  0.6180  0.8278
 7471TIP3    H243905   0.689   2.217   1.073  1.0338 -0.1314 -0.4275
 7472TIP3   OH243906   5.269   3.051  16.845 -0.6585 -0.0974 -0.0657
 7472TIP3    H143907   5.356   3.072  16.879 -0.7238 -0.0119  0.0478
 7472TIP3    H243908   5.209   3.107  16.894 -0.9265 -1.1352  0.8533
 7473TIP3   OH243909   0.487   1.277   5.916  0.6539 -0.0969 -0.2756
 7473TIP3    H143910   0.458   1.220   5.987  1.5900  0.2314  0.3997
 7473TIP3    H243911   0.453   1.364   5.940  0.7875 -0.0248 -0.3463
 7474TIP3   OH243912   4.057   2.345   0.198 -0.2422 -0.3713  0.1084
 7474TIP3    H143913   3.990   2.394   0.150  1.3209  1.8376  0.0083
 7474TIP3    H243914   4.033   2.253   0.185 -3.1463  0.2961  0.0176
 7475TIP3   OH243915   5.149   4.544   1.583 -0.1278 -0.4688  0.4214
 7475TIP3    H143916   5.077   4.483   1.591 -0.9150  0.3679 -0.0849
 7475TIP3    H243917   5.187   4.550   1.671 -0.6895 -0.8835  0.6920
 7476TIP3   OH243918   3.140   2.015  14.712  0.0393 -0.0081  0.1932
 7476TIP3    H143919   3.050   2.040  14.733  0.3185  0.0941  1.3792
 7476TIP3    H243920   3.193   2.090  14.739  0.4724  0.0134 -0.6792
 7477TIP3   OH243921   4.539   6.203  12.646  0.6213 -0.0023 -0.5771
 7477TIP3    H143922   4.542   6.275  12.583  0.1338  0.5072 -0.0212
 7477TIP3    H243923   4.613   6.219  12.705 -0.5119  1.0549  0.6197
 7478TIP3   OH243924   4.779   1.807   1.665  0.2460 -0.2319  0.5505
 7478TIP3    H143925   4.851   1.805   1.727  1.0443 -0.9136 -0.3794
 7478TIP3    H243926   4.772   1.899   1.639 -0.5638  0.1906  2.1462
 7479TIP3   OH243927   4.560   5.059  14.542 -0.3525  0.3914  0.3729
 7479TIP3    H143928   4.597   4.972  14.559 -1.0144  0.3604  1.8762
 7479TIP3    H243929   4.514   5.051  14.459  1.8521  0.0689 -0.8753
 7480TIP3   OH243930   2.991   0.883   3.521 -0.1240  0.2682 -0.2472
 7480TIP3    H143931   2.900   0.896   3.549 -0.2234 -2.0797  0.7700
 7480TIP3    H243932   3.041   0.946   3.571 -0.9746  0.1029  0.8648
 7481TIP3   OH243933   0.676   2.126   2.642 -0.1688  0.1719  0.2263
 7481TIP3    H143934   0.657   2.130   2.735  1.5959 -0.4429  0.6635
 7481TIP3    H243935   0.670   2.216   2.612 -0.6729  0.3877  0.9442
 7482TIP3   OH243936   1.776   5.711  13.215 -0.6348 -0.1832 -0.3549
 7482TIP3    H143937   1.822   5.632  13.243 -0.4081 -1.1308 -3.0712
 7482TIP3    H243938   1.842   5.781  13.223 -0.3174 -0.5677  0.4983
 7483TIP3   OH243939   2.870   1.801  10.751 -0.4944  0.3643  0.3600
 7483TIP3    H143940   2.798   1.770  10.697 -1.4114  0.7622  1.3048
 7483TIP3    H243941   2.849   1.770  10.839  0.6279  0.2702  0.6150
 7484TIP3   OH243942   2.222   5.254   2.885 -0.1228  0.8094 -0.1430
 7484TIP3    H143943   2.178   5.169   2.892  0.2189  0.6507  0.1156
 7484TIP3    H243944   2.282   5.256   2.959 -1.4617  2.0735  0.9769
 7485TIP3   OH243945   4.880   5.837  12.475 -0.4976 -0.1407 -0.4185
 7485TIP3    H143946   4.875   5.862  12.383  0.1556  0.7966 -0.2142
 7485TIP3    H243947   4.810   5.887  12.517 -0.3247 -0.0020 -0.2936
 7486TIP3   OH243948   2.051   4.732  12.942 -0.2717  0.0720  0.5150
 7486TIP3    H143949   2.066   4.792  13.015  0.7047  0.8910 -0.3233
 7486TIP3    H243950   1.966   4.691  12.961 -0.9786  1.7389  1.1049
 7487TIP3   OH243951   0.769   1.228   1.922  0.1962 -1.0006  0.1482
 7487TIP3    H143952   0.763   1.296   1.854 -0.6357  0.3410  1.4931
 7487TIP3    H243953   0.772   1.146   1.873  2.4286 -0.0010 -1.6193
 7488TIP3   OH243954   3.941   5.799  15.849 -0.1051  0.1004 -0.2310
 7488TIP3    H143955   4.001   5.726  15.863 -2.3008 -1.4988  1.7643
 7488TIP3    H243956   3.882   5.768  15.780 -0.2072  0.5319 -0.3379
 7489TIP3   OH243957   4.250   0.491  11.705  0.1014 -0.5186 -0.0928
 7489TIP3    H143958   4.283   0.401  11.708 -0.4910 -0.7136  1.8310
 7489TIP3    H243959   4.171   0.489  11.759 -0.5900  0.9110 -1.0056
 7490TIP3   OH243960   3.793   4.045  11.722 -0.5301  0.2751 -0.6676
 7490TIP3    H143961   3.789   4.140  11.734  0.9276  0.2906 -0.0867
 7490TIP3    H243962   3.733   4.027  11.650  0.5154  1.8804 -1.9952
 7491TIP3   OH243963   2.390   4.601  14.273  0.0739 -0.2117 -0.2570
 7491TIP3    H143964   2.399   4.692  14.244 -0.7869 -0.9482 -3.0995
 7491TIP3    H243965   2.471   4.584  14.322  2.0856  1.0154 -2.8706
 7492TIP3   OH243966   1.952   0.231   1.595  0.9153  0.0109 -0.7487
 7492TIP3    H143967   1.925   0.204   1.508  1.9691  1.8185 -1.6808
 7492TIP3    H243968   1.873   0.269   1.634  0.7598  0.3775 -1.4124
 7493TIP3   OH243969   4.255   0.107  13.486 -0.4732  0.0522 -0.0344
 7493TIP3    H143970   4.220   0.160  13.558 -0.0380 -0.4528  0.5524
 7493TIP3    H243971   4.210   0.023  13.494  0.6934 -0.5392  0.6092
 7494TIP3   OH243972   0.113   4.906   2.430  0.6371 -0.3640 -0.3499
 7494TIP3    H143973   0.066   4.937   2.507  0.5449  0.6237 -0.7923
 7494TIP3    H243974   0.062   4.831   2.399  0.3185 -0.3665  0.1719
 7495TIP3   OH243975   4.635   0.505  10.476  0.0353  0.5197  0.2274
 7495TIP3    H143976   4.696   0.516  10.403  0.7902  0.1958  0.7880
 7495TIP3    H243977   4.625   0.592  10.513 -1.1573  0.8804 -0.8627
 7496TIP3   OH243978   3.119   0.216  16.028 -0.3538  0.2765 -0.0101
 7496TIP3    H143979   3.025   0.224  16.009 -0.2343  2.2443  0.0978
 7496TIP3    H243980   3.162   0.271  15.963  0.9987 -2.5094 -1.6889
 7497TIP3   OH243981   5.806   5.815   5.578 -0.2411 -0.4047 -0.1029
 7497TIP3    H143982   5.753   5.737   5.562  0.2692 -0.3831 -2.1632
 7497TIP3    H243983   5.861   5.823   5.500  1.4040  0.6896  1.1015
 7498TIP3   OH243984   3.503   5.387  12.259  0.0604 -0.4229  0.2012
 7498TIP3    H143985   3.595   5.375  12.239  0.1437 -0.1025  0.3946
 7498TIP3    H243986   3.489   5.339  12.341 -0.3761 -2.1051 -0.7959
 7499TIP3   OH243987   3.458   3.807   6.111 -0.3415 -0.0748 -0.0188
 7499TIP3    H143988   3.553   3.816   6.113 -0.3048 -0.1228 -1.1746
 7499TIP3    H243989   3.434   3.793   6.203  0.5820  1.6816  0.5513
 7500TIP3   OH243990   2.815   5.238  13.830 -0.1086 -0.2047  0.1792
 7500TIP3    H143991   2.868   5.289  13.768 -0.1240  1.5662  1.5263
 7500TIP3    H243992   2.871   5.165  13.855  0.2781 -0.3822 -1.1543
 7501TIP3   OH243993   4.448   0.661   0.904  0.4787 -0.1934 -0.4096
 7501TIP3    H143994   4.406   0.674   0.819  1.0449 -0.1059 -0.6781
 7501TIP3    H243995   4.398   0.590   0.945  0.4647 -0.5241 -0.9898
 7502TIP3   OH243996   0.533   4.923   0.121 -0.5605  0.8601  0.0648
 7502TIP3    H143997   0.477   4.894   0.049 -0.1815 -0.2470  0.2096
 7502TIP3    H243998   0.511   5.016   0.132 -0.3773  1.1430 -1.7059
 7503TIP3   OH243999   6.819   3.332   5.691 -0.1764 -0.3663 -0.1948
 7503TIP3    H144000   6.768   3.412   5.682 -0.9142 -0.9658 -1.6030
 7503TIP3    H244001   6.757   3.266   5.722  0.0859 -0.7439 -0.4561
 7504TIP3   OH244002   0.753   3.387  14.582  0.0445  0.3820  0.5001
 7504TIP3    H144003   0.777   3.299  14.611 -1.3873 -1.1614 -2.4743
 7504TIP3    H244004   0.657   3.387  14.582 -0.0111  1.1879 -1.4196
 7505TIP3   OH244005   2.786   2.144  13.591  0.2001  0.0767  0.1152
 7505TIP3    H144006   2.876   2.115  13.604 -0.1846 -0.6141  1.4060
 7505TIP3    H244007   2.767   2.198  13.668 -0.7604 -0.4940  0.2960
 7506TIP3   OH244008   0.765   6.568   1.559  0.8065  0.0070  0.4350
 7506TIP3    H144009   0.828   6.640   1.566 -0.2966  0.8363  2.6310
 7506TIP3    H244010   0.733   6.573   1.469  2.4825  0.7280 -0.1699
 7507TIP3   OH244011   3.804   5.256   3.674  0.3690 -0.4447 -0.0841
 7507TIP3    H144012   3.872   5.323   3.664  0.8554 -1.1053 -1.5724
 7507TIP3    H244013   3.827   5.211   3.755  0.2936  0.8708  0.7029
 7508TIP3   OH244014   6.642   4.270   3.289 -0.6089  0.0719 -0.3749
 7508TIP3    H144015   6.577   4.240   3.226 -0.9810 -0.4762  0.2588
 7508TIP3    H244016   6.678   4.190   3.327  2.6698  0.1533 -2.8506
 7509TIP3   OH244017   3.647   0.921   5.354  0.0455  0.0332  0.2983
 7509TIP3    H144018   3.621   0.966   5.274  0.1436  1.8373  1.2207
 7509TIP3    H244019   3.565   0.912   5.404 -0.0312 -1.1573  0.0055
 7510TIP3   OH244020   5.479   4.963   6.040  0.3355  0.1751  0.1074
 7510TIP3    H144021   5.463   5.056   6.058 -2.5345  0.3755 -2.5309
 7510TIP3    H244022   5.394   4.921   6.056  1.6429 -2.1492  1.5473
 7511TIP3   OH244023   2.640   6.207   1.978  0.4965  0.1120 -0.5240
 7511TIP3    H144024   2.634   6.293   2.021 -0.3151  0.1880 -0.7872
 7511TIP3    H244025   2.692   6.223   1.900  1.2966  0.1343 -0.0052
 7512TIP3   OH244026   0.458   4.529   2.335  0.1764  0.5149  0.3234
 7512TIP3    H144027   0.370   4.499   2.310 -0.3507  0.4494  2.1346
 7512TIP3    H244028   0.489   4.576   2.258 -1.8385  1.3677 -0.0424
 7513TIP3   OH244029   0.000   1.159  15.343  0.5430 -0.8578 -0.0814
 7513TIP3    H144030  -0.050   1.238  15.323 -0.2132 -1.0197  1.0530
 7513TIP3    H244031   0.066   1.189  15.406  0.2106 -1.1289  0.4045
 7514TIP3   OH244032   5.875   5.694   5.862  0.4324 -0.1130 -0.1084
 7514TIP3    H144033   5.806   5.651   5.912 -0.1375  1.7035  0.7380
 7514TIP3    H244034   5.831   5.730   5.785  0.8834 -0.9067 -0.7537
 7515TIP3   OH244035   1.361   4.627   0.198 -0.4533  0.5260  0.0961
 7515TIP3    H144036   1.324   4.620   0.286 -1.5950  0.7505 -0.3490
 7515TIP3    H244037   1.330   4.549   0.152  1.2633 -0.3006  0.2733
 7516TIP3   OH244038   1.710   6.795  11.109 -0.3388  0.2657  0.0720
 7516TIP3    H144039   1.620   6.765  11.103 -0.5760  1.0150 -0.1818
 7516TIP3    H244040   1.737   6.775  11.198 -0.1283 -1.6857 -0.3877
 7517TIP3   OH244041   2.725   0.629  16.956 -0.4533  0.4407 -0.2260
 7517TIP3    H144042   2.640   0.615  16.999 -0.6314  1.6317 -0.1787
 7517TIP3    H244043   2.789   0.607  17.023 -0.7194  0.0802 -0.0841
 7518TIP3   OH244044   3.947   5.278  13.245 -0.0925 -0.4319  0.5910
 7518TIP3    H144045   3.860   5.278  13.286  0.3901 -0.2925  1.6577
 7518TIP3    H244046   3.969   5.371  13.236 -0.2910 -0.4604 -0.2038
 7519TIP3   OH244047   2.977   5.261   1.430 -0.1402 -0.5739  0.0706
 7519TIP3    H144048   2.995   5.216   1.348  0.0024 -0.3545 -0.0196
 7519TIP3    H244049   3.005   5.198   1.498  1.1223 -0.1961 -0.0676
 7520TIP3   OH244050   5.152   1.990  16.376  0.3806  0.0679 -0.6579
 7520TIP3    H144051   5.098   1.983  16.454 -1.9797  2.3158 -1.9378
 7520TIP3    H244052   5.209   1.913  16.378  0.0091 -0.2558  2.9112
 7521TIP3   OH244053   1.827   5.349   2.039 -0.0242 -0.2511 -0.4594
 7521TIP3    H144054   1.895   5.416   2.032 -1.0993  0.8481 -0.7086
 7521TIP3    H244055   1.849   5.302   2.120  0.3428  0.8862  0.1358
 7522TIP3   OH244056   5.635   1.792  15.912 -0.0668  0.0286  0.5291
 7522TIP3    H144057   5.587   1.806  15.831  0.8105 -0.7197 -0.1381
 7522TIP3    H244058   5.675   1.706  15.901  0.7670  0.2985  1.3998
 7523TIP3   OH244059   4.488   0.343   0.278  0.2580  0.4457  0.6500
 7523TIP3    H144060   4.561   0.331   0.340  1.1414 -1.3419 -0.6513
 7523TIP3    H244061   4.522   0.403   0.213  0.8841 -0.9070 -0.3269
 7524TIP3   OH244062   2.263   5.461   5.985  0.3788 -0.4539 -0.0805
 7524TIP3    H144063   2.246   5.515   5.908  1.5131  0.2085  0.1284
 7524TIP3    H244064   2.269   5.523   6.058  1.6412 -0.8541  0.1675
 7525TIP3   OH244065   1.876   5.474  16.021  0.0113  0.4674 -0.4350
 7525TIP3    H144066   1.858   5.560  16.059  0.0423  0.6071 -0.7332
 7525TIP3    H244067   1.865   5.487  15.927 -1.2522 -0.1663 -0.3865
 7526TIP3   OH244068   3.730   4.253   2.698  0.5126  0.5011  0.0376
 7526TIP3    H144069   3.715   4.184   2.763 -0.1560  0.5317 -0.0763
 7526TIP3    H244070   3.695   4.332   2.739  0.2673  0.5568 -0.2796
 7527TIP3   OH244071   3.122   3.671   0.430 -0.0480 -0.6995  0.1761
 7527TIP3    H144072   3.029   3.683   0.413 -0.4178 -0.7924  1.9450
 7527TIP3    H244073   3.165   3.734   0.372 -1.1935 -0.6322 -0.6371
 7528TIP3   OH244074   2.369   5.345  13.173  0.2581 -0.0707  0.5776
 7528TIP3    H144075   2.329   5.265  13.139 -0.8477  1.2082 -1.3009
 7528TIP3    H244076   2.408   5.386  13.096 -1.9233  2.7145  0.8224
 7529TIP3   OH244077   0.026   5.173   3.135 -0.2484  0.1107  0.1496
 7529TIP3    H144078  -0.005   5.248   3.084  1.2295  0.8213  0.2637
 7529TIP3    H244079   0.018   5.202   3.226 -0.2737 -0.1112  0.2185
 7530TIP3   OH244080   2.492   3.576  14.226 -0.4199 -0.0287  0.2592
 7530TIP3    H144081   2.397   3.571  14.230 -0.3878 -1.2358  0.1407
 7530TIP3    H244082   2.511   3.664  14.196 -1.5670 -0.4411 -1.8415
 7531TIP3   OH244083   3.861   4.317  15.768  0.4689  0.3850  0.0179
 7531TIP3    H144084   3.839   4.262  15.843  1.2104 -0.4127 -0.3361
 7531TIP3    H244085   3.820   4.402  15.788 -0.7812 -0.3044  0.5283
 7532TIP3   OH244086   2.546   5.388   2.450 -0.1110  0.1959  0.0085
 7532TIP3    H144087   2.485   5.359   2.518  1.1085 -0.2156  0.9744
 7532TIP3    H244088   2.496   5.452   2.399 -1.1572  0.3144  1.1212
 7533TIP3   OH244089   1.833   1.245   2.332  0.4812 -0.2354  0.2958
 7533TIP3    H144090   1.793   1.201   2.407  0.5321 -0.6482  0.0814
 7533TIP3    H244091   1.763   1.253   2.268  0.9644 -1.8725 -0.4849
 7534TIP3   OH244092   4.564   5.779  16.052  0.2562 -0.1336  0.2854
 7534TIP3    H144093   4.534   5.866  16.027  0.1992 -0.6487 -1.6725
 7534TIP3    H244094   4.657   5.779  16.030  0.4518 -0.3028  1.0963
 7535TIP3   OH244095   6.196   0.918   4.835  0.1136  0.1724  0.2254
 7535TIP3    H144096   6.162   0.830   4.817 -2.0223  0.6742  1.3504
 7535TIP3    H244097   6.256   0.906   4.908 -0.6836 -0.3111  0.8235
 7536TIP3   OH244098   2.302   4.472  12.937 -0.3687  0.3075  0.1957
 7536TIP3    H144099   2.306   4.457  12.842 -0.0909 -0.1629  0.2775
 7536TIP3    H244100   2.230   4.416  12.967  0.2246 -0.3580  0.4064
 7537TIP3   OH244101   0.822   3.278  13.660 -0.0756  0.0750  0.5149
 7537TIP3    H144102   0.792   3.203  13.608  1.0760 -2.5417  3.3171
 7537TIP3    H244103   0.901   3.308  13.615 -0.8499 -0.0271 -0.9548
 7538TIP3   OH244104   0.619   2.948   4.397 -0.1726 -0.4675 -0.5999
 7538TIP3    H144105   0.592   3.039   4.387  2.3418  0.6268  1.5115
 7538TIP3    H244106   0.671   2.929   4.319 -0.5578 -0.0459 -0.9628
 7539TIP3   OH244107   3.266   0.384  14.366  0.2622  0.2561  0.5047
 7539TIP3    H144108   3.279   0.365  14.458  1.6194  0.1048  0.3007
 7539TIP3    H244109   3.354   0.400  14.332  0.1356 -2.2909 -1.3202
 7540TIP3   OH244110   1.027   1.298   6.359  0.3995 -0.1133  0.3372
 7540TIP3    H144111   1.042   1.205   6.342 -0.9372 -0.1224 -0.9832
 7540TIP3    H244112   1.106   1.327   6.404  0.1947 -2.2207  2.2136
 7541TIP3   OH244113   2.168   0.169   3.615  0.4902  0.0657 -0.2799
 7541TIP3    H144114   2.092   0.173   3.558  0.2525 -2.8728 -0.3454
 7541TIP3    H244115   2.201   0.259   3.619 -1.2525  0.8911 -2.5606
 7542TIP3   OH244116   4.016   0.435  10.425 -0.9069 -0.2614  0.5049
 7542TIP3    H144117   4.039   0.468  10.512 -0.6008 -0.2137  0.4089
 7542TIP3    H244118   4.099   0.403  10.389 -1.0057 -0.1531  0.1758
 7543TIP3   OH244119   6.776   2.391   5.922 -0.2338  0.1465 -0.0246
 7543TIP3    H144120   6.788   2.319   5.860 -0.6305  0.9528 -1.0878
 7543TIP3    H244121   6.687   2.421   5.906  0.0180  1.0408  0.2025
 7544TIP3   OH244122   6.577   2.073  14.697  0.3673 -0.3222 -0.9980
 7544TIP3    H144123   6.601   2.010  14.765 -1.5290 -1.0565 -0.9562
 7544TIP3    H244124   6.499   2.116  14.731  1.8976  2.5238 -0.7792
 7545TIP3   OH244125   5.451   3.791  14.398 -0.1469  0.0998  0.2614
 7545TIP3    H144126   5.466   3.800  14.304 -2.6398 -0.7644 -0.2836
 7545TIP3    H244127   5.392   3.716  14.406  0.4797 -0.2260  2.5881
 7546TIP3   OH244128   1.740   3.629  16.140  0.8515 -0.1724 -0.6363
 7546TIP3    H144129   1.759   3.670  16.224 -1.4991 -0.5415  0.1184
 7546TIP3    H244130   1.677   3.560  16.159  1.0082 -0.9207 -2.5760
 7547TIP3   OH244131   4.648   2.537   0.973 -0.3557  0.0561  0.0160
 7547TIP3    H144132   4.566   2.563   1.015  0.0395  1.3415  0.0307
 7547TIP3    H244133   4.680   2.617   0.931  1.9145  0.1536  1.7366
 7548TIP3   OH244134   4.979   5.547   1.507  0.3296 -0.2927 -0.3538
 7548TIP3    H144135   4.892   5.513   1.531 -0.0214  0.3812 -0.6347
 7548TIP3    H244136   5.030   5.541   1.588  0.0296 -0.7282 -0.1934
 7549TIP3   OH244137   4.893   0.196   3.656 -0.3332  0.2479  0.0631
 7549TIP3    H144138   4.914   0.187   3.563  1.7162 -0.3116  0.5194
 7549TIP3    H244139   4.964   0.250   3.692 -0.5139 -0.3820  1.4593
 7550TIP3   OH244140   2.999   0.069   3.716 -0.4604 -0.2861  0.2715
 7550TIP3    H144141   3.040   0.085   3.802 -0.0104  1.2948 -0.1961
 7550TIP3    H244142   3.070   0.035   3.662  0.0140  1.3979 -0.2276
 7551TIP3   OH244143   3.383   1.792   0.812 -0.8115  0.1732  0.1732
 7551TIP3    H144144   3.442   1.795   0.737 -0.9722 -0.8872 -0.0067
 7551TIP3    H244145   3.297   1.815   0.775 -0.6096  1.3010  0.3586
 7552TIP3   OH244146   0.230   1.114  11.845  0.2277 -0.2771  0.3414
 7552TIP3    H144147   0.264   1.099  11.933 -0.2800 -0.5886  0.4899
 7552TIP3    H244148   0.196   1.203  11.847  0.9185 -0.0071  0.2271
 7553TIP3   OH244149   2.085   6.665   4.977 -0.1238 -0.5018 -0.1404
 7553TIP3    H144150   2.043   6.743   5.014 -2.4418 -1.3411 -0.8282
 7553TIP3    H244151   2.177   6.673   5.003 -0.6321  1.5358  1.3203
 7554TIP3   OH244152   2.108   2.618  11.181 -0.3551  0.1355 -0.6135
 7554TIP3    H144153   2.153   2.548  11.228 -2.4209 -1.3474 -0.6935
 7554TIP3    H244154   2.088   2.683  11.248 -0.2770 -0.3649 -0.0933
 7555TIP3   OH244155   1.698   6.658   1.719  0.2279  0.9048 -0.0821
 7555TIP3    H144156   1.742   6.724   1.772  1.6631 -0.2581  0.2345
 7555TIP3    H244157   1.661   6.707   1.645  1.6573  2.0106 -0.1089
 7556TIP3   OH244158   2.534   0.261   4.192 -0.4534  0.2806  0.3647
 7556TIP3    H144159   2.589   0.296   4.261 -0.0743 -2.0029  1.3251
 7556TIP3    H244160   2.448   0.300   4.206  0.4911  2.7467 -0.2513
 7557TIP3   OH244161   6.378   6.059  14.747  0.0420  0.0106  0.5789
 7557TIP3    H144162   6.395   6.063  14.841  0.8407 -0.5999  0.4798
 7557TIP3    H244163   6.293   6.017  14.739  0.7674 -1.6320  1.0081
 7558TIP3   OH244164   3.894   1.956   3.638  0.6663  0.0996 -0.0782
 7558TIP3    H144165   3.941   2.012   3.700  1.8045 -1.2590  0.3463
 7558TIP3    H244166   3.906   1.867   3.673  0.9455 -0.6575 -1.9785
 7559TIP3   OH244167   6.534   5.631  14.388  0.1266  0.1760  0.2961
 7559TIP3    H144168   6.504   5.566  14.452  1.5974 -1.7091 -0.8036
 7559TIP3    H244169   6.473   5.704  14.397 -2.5349 -1.9347  0.6324
 7560TIP3   OH244170   4.369   5.274  11.026 -0.1671  0.1300 -0.2763
 7560TIP3    H144171   4.410   5.234  10.950  0.3345 -0.6822  0.4001
 7560TIP3    H244172   4.339   5.199  11.079  1.1870  0.6143  1.2385
 7561TIP3   OH244173   6.629   1.116  16.888 -0.1784 -0.0092  0.3877
 7561TIP3    H144174   6.608   1.099  16.980  0.1628 -1.2270  0.2612
 7561TIP3    H244175   6.724   1.130  16.888 -0.2661  0.5965  0.2993
 7562TIP3   OH244176   0.910   1.897   5.152 -0.3212  0.2309  0.0785
 7562TIP3    H144177   0.845   1.874   5.086 -0.0907  1.2579 -0.5286
 7562TIP3    H244178   0.895   1.990   5.169  1.1602  0.5664 -0.2962
 7563TIP3   OH244179   1.496   5.489   5.628 -0.2306  0.3355 -0.2054
 7563TIP3    H144180   1.408   5.501   5.593 -0.7661  1.4640  1.3991
 7563TIP3    H244181   1.528   5.578   5.643  0.0839 -0.0577  1.7880
 7564TIP3   OH244182   0.324   2.150   3.811  0.4905 -0.2052  0.0161
 7564TIP3    H144183   0.324   2.140   3.906  1.2452 -1.5932 -0.1008
 7564TIP3    H244184   0.322   2.244   3.797  0.2950  0.0220  1.4025
 7565TIP3   OH244185   2.927   2.678  11.976  0.1571  0.2456 -0.3838
 7565TIP3    H144186   2.879   2.745  11.927  1.0938  0.4834 -1.0065
 7565TIP3    H244187   2.963   2.620  11.909  1.6071  0.6740 -0.0172
 7566TIP3   OH244188   2.008   2.317   6.023  0.3245 -0.0152  0.0661
 7566TIP3    H144189   1.963   2.329   6.107 -3.1821  0.2232 -1.6836
 7566TIP3    H244190   1.974   2.234   5.989 -0.1059  0.9619 -2.0727
 7567TIP3   OH244191   2.001   6.763   1.989 -0.2297 -0.1242  0.1637
 7567TIP3    H144192   1.997   6.776   1.894 -0.9964 -0.3831  0.1495
 7567TIP3    H244193   2.015   6.850   2.025 -2.0424  0.3070 -0.0869
 7568TIP3   OH244194   6.140   2.976   1.409 -0.2659 -0.8186  0.7310
 7568TIP3    H144195   6.088   3.035   1.463  0.4360  0.2533  0.2639
 7568TIP3    H244196   6.115   2.888   1.439 -1.3013 -0.2980  1.4556
 7569TIP3   OH244197   1.516   6.560  11.015  0.3362 -0.0944  0.2295
 7569TIP3    H144198   1.558   6.603  10.940 -0.2842  0.2539  0.0712
 7569TIP3    H244199   1.464   6.629  11.056  0.2291 -0.4248  0.6509
 7570TIP3   OH244200   5.679   5.906  16.075 -0.2106 -0.0836  0.1365
 7570TIP3    H144201   5.586   5.881  16.075 -0.1166 -0.4572 -0.5874
 7570TIP3    H244202   5.725   5.826  16.050  0.2000  0.4651 -0.9401
 7571TIP3   OH244203   4.383   5.183  11.577 -0.5612  0.2359 -0.0715
 7571TIP3    H144204   4.477   5.196  11.576 -0.6951  1.2964 -0.5568
 7571TIP3    H244205   4.360   5.171  11.669 -0.1248  1.4041  0.2011
 7572TIP3   OH244206   5.298   4.132   1.648  0.7603 -0.3909 -0.3070
 7572TIP3    H144207   5.369   4.103   1.704  1.1823 -0.8313 -1.0630
 7572TIP3    H244208   5.269   4.053   1.603  0.7820  0.0497 -1.1042
 7573TIP3   OH244209   4.385   4.130  12.998  0.6262 -0.7083 -0.3733
 7573TIP3    H144210   4.347   4.042  12.991  0.1417 -0.4429 -1.3196
 7573TIP3    H244211   4.406   4.140  13.091 -0.1925 -1.4653 -0.0908
 7574TIP3   OH244212   0.659   6.520  15.285  0.5974  0.9312 -0.1941
 7574TIP3    H144213   0.582   6.569  15.256 -0.8244 -0.7251  0.5424
 7574TIP3    H244214   0.669   6.451  15.219 -0.8436 -1.0447  1.4751
 7575TIP3   OH244215   3.884   1.516   0.173 -0.4473  0.2035  0.2278
 7575TIP3    H144216   3.903   1.546   0.084 -1.9869 -0.7364 -0.4703
 7575TIP3    H244217   3.962   1.466   0.198 -0.5357 -0.6897 -1.1618
 7576TIP3   OH244218   6.327   4.527   4.137  0.5783  0.0089  0.4830
 7576TIP3    H144219   6.369   4.533   4.051  3.3395  1.7029  1.8134
 7576TIP3    H244220   6.399   4.534   4.200 -1.4605  0.2182  2.9816
 7577TIP3   OH244221   6.814   5.459  13.584 -0.3001  0.3199  0.0615
 7577TIP3    H144222   6.908   5.450  13.603 -0.2623  1.9772  0.8173
 7577TIP3    H244223   6.770   5.417  13.658 -0.1206  3.4857  2.1690
 7578TIP3   OH244224   5.521   4.939  13.743  0.0152  0.2139 -0.2504
 7578TIP3    H144225   5.544   4.908  13.655  0.1037 -0.3266 -0.0385
 7578TIP3    H244226   5.554   4.871  13.802  0.0063  0.6001  0.2077
 7579TIP3   OH244227   2.404   5.153   5.477 -0.0718 -0.0148 -0.7128
 7579TIP3    H144228   2.316   5.115   5.475  0.1737 -0.6694  0.0523
 7579TIP3    H244229   2.461   5.082   5.444  0.2462  0.1472 -0.5168
 7580TIP3   OH244230   5.819   1.083  14.842  0.4291 -0.2670  0.0651
 7580TIP3    H144231   5.856   1.170  14.823  0.8923 -0.4778 -0.0159
 7580TIP3    H244232   5.861   1.025  14.779  0.2381 -0.5805  0.2254
 7581TIP3   OH244233   3.021   1.998  16.557 -0.0091  0.0281  0.4550
 7581TIP3    H144234   3.104   1.956  16.533  0.0526 -1.3177  2.7620
 7581TIP3    H244235   2.967   1.927  16.590 -0.8097  1.3938  2.2401
 7582TIP3   OH244236   5.687   4.177   5.279 -0.0789 -0.1397  0.3615
 7582TIP3    H144237   5.664   4.084   5.290 -1.6153  0.1553 -0.1226
 7582TIP3    H244238   5.762   4.176   5.219 -1.1373 -1.0283 -1.0233
 7583TIP3   OH244239   1.241   5.086   2.892  0.3404 -0.0203 -0.3416
 7583TIP3    H144240   1.300   5.050   2.958 -2.1868 -0.6380  1.7547
 7583TIP3    H244241   1.224   5.013   2.832  0.1782 -0.4565  0.2244
 7584TIP3   OH244242   2.075   1.528  17.116  0.8250  0.1812 -0.7470
 7584TIP3    H144243   1.993   1.574  17.099  0.4413 -0.2194 -0.0222
 7584TIP3    H244244   2.048   1.446  17.156  1.6551  1.4425  2.7491
 7585TIP3   OH244245   1.970   6.149  13.614 -0.2162  0.4704 -0.5571
 7585TIP3    H144246   2.020   6.126  13.535 -0.6145  1.5182 -1.1355
 7585TIP3    H244247   1.889   6.098  13.607 -0.5704  1.1040 -1.2145
 7586TIP3   OH244248   2.933   6.623  13.656  0.3692  0.1908  0.6746
 7586TIP3    H144249   2.935   6.618  13.752 -0.2736 -0.0218  0.6801
 7586TIP3    H244250   2.977   6.706  13.636 -0.5705  0.8441  1.2180
 7587TIP3   OH244251   5.520   1.091   2.176  0.2316 -0.5344  0.0666
 7587TIP3    H144252   5.539   0.998   2.173 -0.0198 -0.5823 -0.0436
 7587TIP3    H244253   5.594   1.129   2.223 -0.2432 -0.9436  1.1915
 7588TIP3   OH244254   2.134   3.454   4.510  0.4859  0.1334 -0.5607
 7588TIP3    H144255   2.225   3.485   4.513  0.3792  0.4897 -0.8994
 7588TIP3    H244256   2.087   3.524   4.464  0.4780 -1.0716 -2.4937
 7589TIP3   OH244257   5.171   2.514  10.577 -0.4883  0.1528  0.0546
 7589TIP3    H144258   5.200   2.595  10.536  1.0628  0.1260  1.0309
 7589TIP3    H244259   5.115   2.543  10.650 -1.5030  0.2608 -0.7465
 7590TIP3   OH244260   0.735   0.073   2.723  0.2579  0.4262  0.2790
 7590TIP3    H144261   0.711   0.041   2.809 -0.1990  0.7932  0.2904
 7590TIP3    H244262   0.726   0.168   2.729  0.3313  0.4638 -0.1399
 7591TIP3   OH244263   2.975   0.649   0.717 -0.6790  0.1041  0.1094
 7591TIP3    H144264   3.041   0.580   0.704 -1.2403 -0.0703 -2.2301
 7591TIP3    H244265   3.010   0.724   0.669 -0.4806  1.2413  1.9406
 7592TIP3   OH244266   1.221   0.196   3.288  0.1014 -0.2991 -0.0084
 7592TIP3    H144267   1.180   0.279   3.313 -0.1305  0.1353 -1.7175
 7592TIP3    H244268   1.314   0.216   3.281  0.3156 -0.6761  1.4227
 7593TIP3   OH244269   3.090   3.399  14.842  0.5999  0.0687  0.2546
 7593TIP3    H144270   3.147   3.471  14.870  0.4410  0.0428  0.6454
 7593TIP3    H244271   3.062   3.357  14.924  1.1782 -0.8131  0.0102
 7594TIP3   OH244272   3.347   5.994   4.781  0.1875 -0.2282 -0.1976
 7594TIP3    H144273   3.309   5.970   4.866 -1.0490  1.6487 -0.1714
 7594TIP3    H244274   3.297   5.942   4.718  1.4168 -1.9808  0.1864
 7595TIP3   OH244275   6.732   6.063  14.588 -0.1446  0.1427 -0.0029
 7595TIP3    H144276   6.815   6.111  14.582  0.8895 -1.7235 -1.9688
 7595TIP3    H244277   6.753   5.975  14.558 -2.6078 -0.7248  0.6209
 7596TIP3   OH244278   1.304   3.697  11.431 -0.7325  0.0809  0.3122
 7596TIP3    H144279   1.381   3.733  11.474 -0.5565 -0.6414  0.6128
 7596TIP3    H244280   1.232   3.717  11.490 -0.3001 -2.1754  1.7328
 7597TIP3   OH244281   4.047   5.054  17.105 -0.0092 -0.0691  0.2507
 7597TIP3    H144282   4.024   5.098  17.023 -0.5812 -2.2420 -0.8082
 7597TIP3    H244283   3.964   5.039  17.149  0.0222 -1.3550 -0.0931
 7598TIP3   OH244284   1.936   4.005   5.926 -0.4336 -0.2397  0.4357
 7598TIP3    H144285   2.029   4.004   5.949 -0.3162 -0.5355 -0.0485
 7598TIP3    H244286   1.911   4.097   5.933  0.2636  0.0708 -0.8848
 7599TIP3   OH244287   2.389   3.017  11.301 -0.1061 -0.4091  0.5979
 7599TIP3    H144288   2.390   3.009  11.397  2.9361  2.7304  1.0108
 7599TIP3    H244289   2.455   2.954  11.271  0.5509  0.1792  0.7953
 7600TIP3   OH244290   3.411   6.161   1.628 -0.0302  0.0391  0.4928
 7600TIP3    H144291   3.451   6.146   1.542  0.7046 -2.6427  1.2017
 7600TIP3    H244292   3.363   6.243   1.618 -1.2214 -0.8929 -2.9540
 7601TIP3   OH244293   1.555   3.769  16.615  0.4102 -0.2130 -0.0541
 7601TIP3    H144294   1.497   3.810  16.552 -0.0506 -2.1621 -0.9541
 7601TIP3    H244295   1.528   3.677  16.617  0.7720 -0.3326  2.5837
 7602TIP3   OH244296   4.969   3.841   3.855  0.1855 -0.1804 -0.0853
 7602TIP3    H144297   4.995   3.750   3.868  0.2185 -0.2257 -0.4551
 7602TIP3    H244298   5.047   3.892   3.877 -0.1954 -0.1590  1.3368
 7603TIP3   OH244299   6.021   5.361  15.845 -0.1769 -0.1183  0.1166
 7603TIP3    H144300   6.094   5.416  15.872 -1.4560  0.7851  2.0320
 7603TIP3    H244301   6.009   5.379  15.752  1.6387  0.1527 -0.0876
 7604TIP3   OH244302   1.425   2.925   1.434  0.6866 -0.5214 -0.4584
 7604TIP3    H144303   1.518   2.944   1.450  0.8287 -2.5253  1.6059
 7604TIP3    H244304   1.425   2.877   1.352  1.7286 -1.8397  0.2648
 7605TIP3   OH244305   0.923   2.338   2.688  0.6397 -0.3227  0.2652
 7605TIP3    H144306   0.881   2.420   2.662  1.4421 -0.3395 -1.1934
 7605TIP3    H244307   0.896   2.325   2.779 -0.2110  1.0987  0.2474
 7606TIP3   OH244308   2.361   2.724  14.685 -0.6365  0.2937 -0.2549
 7606TIP3    H144309   2.397   2.688  14.766 -0.2677 -0.7859 -0.8809
 7606TIP3    H244310   2.344   2.816  14.705 -0.3978  0.0827  0.9927
 7607TIP3   OH244311   0.527   0.063  13.979  0.1350  0.1098  0.0501
 7607TIP3    H144312   0.552  -0.026  14.004  0.3440 -0.2319 -1.3202
 7607TIP3    H244313   0.610   0.111  13.974  0.0165  0.4179  0.8641
 7608TIP3   OH244314   2.928   5.250  15.571  0.0418 -1.0181 -0.1270
 7608TIP3    H144315   2.848   5.278  15.528  0.2116 -1.3875 -0.7010
 7608TIP3    H244316   2.959   5.176  15.519  2.1049  0.6454 -1.4808
 7609TIP3   OH244317   2.591   6.480  14.326 -0.2530 -0.6909  0.4499
 7609TIP3    H144318   2.498   6.501  14.318 -0.1277 -0.5253 -0.7822
 7609TIP3    H244319   2.594   6.410  14.392 -0.8622  1.6614  3.1745
 7610TIP3   OH244320   2.859   1.796  14.669  0.0555 -0.7620  0.4954
 7610TIP3    H144321   2.873   1.887  14.695  0.7989 -0.6465 -0.2561
 7610TIP3    H244322   2.820   1.755  14.746  1.8027 -0.3591  1.6619
 7611TIP3   OH244323   1.638   5.659   5.305 -0.7469 -0.2718 -0.0182
 7611TIP3    H144324   1.661   5.681   5.395 -0.1181  1.2661 -0.5239
 7611TIP3    H244325   1.641   5.564   5.302  0.4226 -0.2988  1.2730
 7612TIP3   OH244326   3.907   3.740   2.388  0.5445 -0.0501  0.1069
 7612TIP3    H144327   3.973   3.794   2.432 -0.1257 -1.6886  3.4734
 7612TIP3    H244328   3.958   3.669   2.348  1.0386  0.0000  0.6238
 7613TIP3   OH244329   5.984   5.937  17.053  0.4088 -0.2758 -0.0651
 7613TIP3    H144330   5.956   5.910  17.140  0.3384 -1.8495 -0.5383
 7613TIP3    H244331   5.928   6.011  17.032  1.0582  0.7356  1.5726
 7614TIP3   OH244332   5.528   1.759  13.614  0.2159  0.4948  0.2565
 7614TIP3    H144333   5.513   1.761  13.708  1.5221 -2.4177  0.6120
 7614TIP3    H244334   5.622   1.748  13.604  0.0318  0.0283 -1.3543
 7615TIP3   OH244335   3.211   0.377  15.829  0.6981 -0.5348 -0.7593
 7615TIP3    H144336   3.296   0.416  15.851  0.4857 -0.6381  0.3172
 7615TIP3    H244337   3.208   0.379  15.733  1.0880  1.2372 -0.7693
 7616TIP3   OH244338   3.305   1.424  13.975  0.0002 -0.4288  0.2752
 7616TIP3    H144339   3.216   1.419  13.941 -0.0877 -2.3194  0.6412
 7616TIP3    H244340   3.356   1.366  13.918  0.5601 -0.9262  1.2503
 7617TIP3   OH244341   3.059   4.829  14.559  0.2446  0.1104 -0.2756
 7617TIP3    H144342   3.048   4.916  14.596 -0.0111 -0.0342 -0.0096
 7617TIP3    H244343   3.146   4.801  14.587 -0.4680 -0.5631  1.4080
 7618TIP3   OH244344   0.611   5.525  10.259  0.3280  0.3743 -0.5840
 7618TIP3    H144345   0.655   5.457  10.312  0.2977  0.2904 -0.6664
 7618TIP3    H244346   0.518   5.514  10.279  0.2294 -0.2383 -1.3227
 7619TIP3   OH244347   0.962   5.456   6.072  0.6535 -0.5011 -0.2636
 7619TIP3    H144348   0.909   5.497   6.004 -0.4927  0.5650  1.1991
 7619TIP3    H244349   0.925   5.369   6.083 -0.2771 -0.0660  0.1510
 7620TIP3   OH244350   3.300   0.799   2.485  0.1401  0.4583  0.3606
 7620TIP3    H144351   3.350   0.725   2.520  0.5976  0.7234  0.2811
 7620TIP3    H244352   3.347   0.823   2.405  0.3257  1.1850  0.6814
 7621TIP3   OH244353   6.511   2.453   3.367  0.7008  0.2623 -0.5126
 7621TIP3    H144354   6.453   2.529   3.367  0.8489  0.3765 -0.6251
 7621TIP3    H244355   6.559   2.459   3.449 -1.4398 -1.3756  0.9718
 7622TIP3   OH244356   3.340   0.161   5.041 -0.1560 -0.1109  0.3834
 7622TIP3    H144357   3.319   0.254   5.058  0.1484  0.0281  0.0045
 7622TIP3    H244358   3.258   0.115   5.060 -0.5718  0.3365 -0.2742
 7623TIP3   OH244359   6.672   2.894   5.934 -0.4853  0.5500 -0.2846
 7623TIP3    H144360   6.689   2.828   6.001 -0.9021  0.1451 -0.5796
 7623TIP3    H244361   6.759   2.929   5.912 -0.3666  0.8510  0.6266
 7624TIP3   OH244362   3.669   0.535   3.504  0.9211  0.2936 -0.1476
 7624TIP3    H144363   3.760   0.565   3.511  0.2955  2.3963 -0.4172
 7624TIP3    H244364   3.620   0.591   3.565 -0.1356 -1.2445  0.4967
 7625TIP3   OH244365   2.781   0.780   6.196  0.5852  0.0727 -0.3487
 7625TIP3    H144366   2.765   0.870   6.223  0.5258  0.4485 -1.5858
 7625TIP3    H244367   2.860   0.754   6.243  0.8679  0.9303 -0.3449
 7626TIP3   OH244368   0.051   0.542   1.049 -0.2705  0.1861  0.2407
 7626TIP3    H144369   0.035   0.633   1.024 -0.1022 -0.0336 -0.7234
 7626TIP3    H244370   0.119   0.548   1.117  0.1954  0.7576 -0.2534
 7627TIP3   OH244371   1.466   4.026  15.482  0.4700  0.0715 -0.2011
 7627TIP3    H144372   1.547   4.062  15.446  0.4416 -0.6130 -0.9689
 7627TIP3    H244373   1.494   3.958  15.542  0.4616 -1.1893 -1.5725
 7628TIP3   OH244374   3.083   2.147  15.094  0.1020  0.9585 -0.6757
 7628TIP3    H144375   3.100   2.060  15.059  0.8781  1.0267 -0.4978
 7628TIP3    H244376   3.168   2.192  15.089 -0.3835  1.8502 -1.1564
 7629TIP3   OH244377   2.675   5.186  16.896 -0.2203  0.0720 -0.1056
 7629TIP3    H144378   2.679   5.281  16.883 -1.3465  0.3044  1.0131
 7629TIP3    H244379   2.628   5.176  16.979 -1.1034 -1.4963 -0.7657
 7630TIP3   OH244380   1.684   2.762  13.318 -0.5646 -0.1194 -0.3558
 7630TIP3    H144381   1.629   2.687  13.340 -0.7333  0.2886  0.6738
 7630TIP3    H244382   1.721   2.791  13.402  0.3762  0.2680 -0.8889
 7631TIP3   OH244383   4.704   5.481   3.335 -0.2848  0.4536 -0.3024
 7631TIP3    H144384   4.749   5.467   3.252 -0.4679  0.1300 -0.3483
 7631TIP3    H244385   4.770   5.520   3.392  0.5506 -1.4953  0.1498
 7632TIP3   OH244386   4.247   5.763   4.317 -0.2637  0.2249  0.1430
 7632TIP3    H144387   4.203   5.844   4.295  1.7085  1.4926  0.6193
 7632TIP3    H244388   4.284   5.777   4.404 -0.2188 -1.3530  0.4246
 7633TIP3   OH244389   6.102   1.706  12.439 -0.2683  0.4190  0.4300
 7633TIP3    H144390   6.018   1.671  12.408  0.0085 -2.1113  2.1891
 7633TIP3    H244391   6.159   1.702  12.362 -1.1122 -0.1432 -0.1917
 7634TIP3   OH244392   1.483   5.275   2.852 -0.4221 -0.2235 -0.1670
 7634TIP3    H144393   1.410   5.219   2.880 -1.0990  0.4422 -0.5357
 7634TIP3    H244394   1.482   5.347   2.914  0.0184 -0.2843 -0.0908
 7635TIP3   OH244395   2.160   1.538   4.522  0.6782 -0.4047  0.2907
 7635TIP3    H144396   2.136   1.538   4.429  0.6935 -0.4708  0.2874
 7635TIP3    H244397   2.135   1.451   4.554 -0.8511  0.1601  0.7362
 7636TIP3   OH244398   6.454   1.038   2.692 -0.8141  0.2380 -0.1956
 7636TIP3    H144399   6.378   1.033   2.750 -0.8936 -1.0606 -0.3903
 7636TIP3    H244400   6.421   1.010   2.606 -0.7094  2.1651 -0.9142
 7637TIP3   OH244401   0.978   1.400  10.283 -0.4239  0.2500 -0.3823
 7637TIP3    H144402   0.926   1.480  10.287 -1.8533 -0.6348 -0.4575
 7637TIP3    H244403   0.957   1.354  10.365 -0.8142 -0.7389 -1.0213
 7638TIP3   OH244404   0.146   6.376   2.680 -0.9128  0.3061 -0.4355
 7638TIP3    H144405   0.144   6.310   2.611 -0.6030 -0.6837  0.4774
 7638TIP3    H244406   0.054   6.389   2.703 -0.8917 -1.3753  0.7985
 7639TIP3   OH244407   6.469   3.628   2.947  0.4873  0.6576  0.1282
 7639TIP3    H144408   6.523   3.696   2.907 -1.5096  0.8891 -2.4063
 7639TIP3    H244409   6.395   3.617   2.887 -1.6901 -0.4673  2.8138
 7640TIP3   OH244410   6.729   0.024   2.183  0.2572  0.2301 -0.0852
 7640TIP3    H144411   6.745   0.043   2.275  1.6881  0.7304 -0.4222
 7640TIP3    H244412   6.769  -0.062   2.169  0.9331  0.6039 -0.4735
 7641TIP3   OH244413   6.278   3.492  15.979 -0.2390 -0.3578 -0.4762
 7641TIP3    H144414   6.307   3.524  15.893  1.3512  0.8868  0.4587
 7641TIP3    H244415   6.284   3.397  15.973  0.7633 -0.2550 -1.4711
 7642TIP3   OH244416   5.587   4.843   4.629  0.1114 -0.1971  0.7341
 7642TIP3    H144417   5.670   4.832   4.677  0.1462  0.0908  0.7417
 7642TIP3    H244418   5.603   4.802   4.544  1.1741  2.1763 -0.2972
 7643TIP3   OH244419   0.777   5.670  14.979  0.4019  0.4114 -0.1934
 7643TIP3    H144420   0.682   5.663  14.981  0.5269 -2.6683  1.4719
 7643TIP3    H244421   0.798   5.746  15.033 -1.0804  0.1764  0.7548
 7644TIP3   OH244422   0.503   4.184  13.780  0.1541  0.0030 -0.2099
 7644TIP3    H144423   0.522   4.192  13.687  0.9189  0.7399  0.0011
 7644TIP3    H244424   0.563   4.245  13.822 -0.0582 -0.4590  0.7838
 7645TIP3   OH244425   5.198   2.087   4.481 -0.0348 -0.3533  0.6207
 7645TIP3    H144426   5.195   2.133   4.397  1.3597 -1.3011  0.0271
 7645TIP3    H244427   5.106   2.077   4.506 -0.4587  0.2073 -0.6323
 7646TIP3   OH244428   4.512   4.543   0.495 -0.5547  0.0439  0.2384
 7646TIP3    H144429   4.605   4.567   0.504 -0.8390  1.5593 -0.5871
 7646TIP3    H244430   4.504   4.462   0.544  0.4947  1.5850  3.1743
 7647TIP3   OH244431   0.815   3.793   0.243 -0.2471  0.6024 -0.1032
 7647TIP3    H144432   0.782   3.801   0.153 -0.1610  0.8822 -0.1103
 7647TIP3    H244433   0.739   3.763   0.293 -0.2196  0.1732 -0.3207
 7648TIP3   OH244434   4.454   1.275   1.478 -0.0870 -0.0968 -0.3157
 7648TIP3    H144435   4.494   1.213   1.416 -0.7170  0.2625 -1.1064
 7648TIP3    H244436   4.490   1.360   1.452  0.6891 -0.0974  0.6959
 7649TIP3   OH244437   0.317   5.382   0.980  0.4446 -0.1067 -0.6374
 7649TIP3    H144438   0.314   5.301   0.929 -0.4763 -1.1572  1.0083
 7649TIP3    H244439   0.246   5.436   0.945 -1.1595 -1.4291  0.4520
 7650TIP3   OH244440   3.626   2.227  11.176  0.0474  0.1283 -0.3353
 7650TIP3    H144441   3.589   2.148  11.137  0.9630 -0.7752  0.5663
 7650TIP3    H244442   3.646   2.283  11.101  0.6245 -1.0518 -1.1012
 7651TIP3   OH244443   6.651   5.798   4.814  0.1284 -0.1844  0.0365
 7651TIP3    H144444   6.670   5.731   4.880  1.0636 -0.1460 -0.1843
 7651TIP3    H244445   6.730   5.803   4.761 -0.3611  0.2832 -0.6636
 7652TIP3   OH244446   3.316   0.303   6.123  0.1359  0.0633 -0.1335
 7652TIP3    H144447   3.360   0.230   6.167  0.6232  0.5126  0.1399
 7652TIP3    H244448   3.372   0.321   6.047 -0.2659 -0.1828 -0.4912
 7653TIP3   OH244449   2.753   2.343  12.717  0.3595  0.3371 -0.2949
 7653TIP3    H144450   2.736   2.352  12.811 -1.6391  1.0550 -0.6784
 7653TIP3    H244451   2.848   2.354  12.710  0.7142 -0.8666  1.7370
 7654TIP3   OH244452   3.392   3.675  10.452  0.1883 -0.3943 -0.4860
 7654TIP3    H144453   3.342   3.678  10.534  0.0223  1.9491 -0.6052
 7654TIP3    H244454   3.329   3.696  10.384  0.8747  0.4641 -0.8755
 7655TIP3   OH244455   1.733   4.875  16.492  0.0347  0.4530 -0.1798
 7655TIP3    H144456   1.803   4.818  16.459  0.2105  0.1060  0.7773
 7655TIP3    H244457   1.768   4.964  16.483  1.1830  0.2142  1.5993
 7656TIP3   OH244458   3.803   6.620   0.099  0.5354  0.0750  0.3141
 7656TIP3    H144459   3.891   6.594   0.126  1.1545 -0.6802 -2.1825
 7656TIP3    H244460   3.758   6.538   0.081 -0.1268  0.5064 -0.0579
 7657TIP3   OH244461   5.412   1.685  17.011 -0.3736  0.0687  0.3205
 7657TIP3    H144462   5.499   1.724  17.010 -0.2999 -0.0716  1.0747
 7657TIP3    H244463   5.416   1.616  16.945  0.9149 -1.7185  2.1556
 7658TIP3   OH244464   2.582   2.920  13.939  0.6742 -0.0229 -0.0010
 7658TIP3    H144465   2.666   2.904  13.896 -0.1156  1.3330 -2.2849
 7658TIP3    H244466   2.605   2.968  14.019  2.1552 -1.5965  0.5885
 7659TIP3   OH244467   0.347   6.658   2.325 -0.7477 -0.3272  0.1835
 7659TIP3    H144468   0.374   6.569   2.305 -2.0390 -0.8224  0.5688
 7659TIP3    H244469   0.318   6.655   2.416 -1.2321  0.3901  0.0618
 7660TIP3   OH244470   3.148   3.364   3.037  0.1446 -0.1669  0.1084
 7660TIP3    H144471   3.134   3.417   2.959  0.5642  0.1264  0.2324
 7660TIP3    H244472   3.223   3.309   3.016 -0.3294 -0.7737 -0.0458
 7661TIP3   OH244473   5.433   5.026  15.799  0.3907 -0.2541  0.0121
 7661TIP3    H144474   5.356   4.977  15.827  0.0653  0.3108  0.1209
 7661TIP3    H244475   5.472   5.059  15.880 -0.0338  0.6096 -0.1222
 7662TIP3   OH244476   6.500   0.632  13.295  0.7117  0.3168 -0.5671
 7662TIP3    H144477   6.589   0.650  13.324 -0.2790  1.7655  1.8202
 7662TIP3    H244478   6.485   0.541  13.319  0.2983  1.1594  2.8222
 7663TIP3   OH244479   3.617   0.397  10.361  0.5798  0.3368 -0.2452
 7663TIP3    H144480   3.677   0.466  10.334  0.9976  0.3563  0.6858
 7663TIP3    H244481   3.536   0.444  10.384  0.1407  0.2952 -1.6324
 7664TIP3   OH244482   1.131   6.158  11.800 -0.4116 -0.4787 -0.4063
 7664TIP3    H144483   1.037   6.169  11.817 -0.4495  2.0359 -1.9327
 7664TIP3    H244484   1.139   6.155  11.705  1.0222 -1.3851 -0.2916
 7665TIP3   OH244485   1.166   4.663  14.992  0.6453  0.4826 -0.6568
 7665TIP3    H144486   1.177   4.568  14.997 -0.9321  0.3193  0.4952
 7665TIP3    H244487   1.161   4.692  15.083  2.5762  1.9059 -0.9305
 7666TIP3   OH244488   1.164   6.656  15.253  0.0892  0.2999  0.5734
 7666TIP3    H144489   1.216   6.666  15.333  0.2342  0.9747  0.4047
 7666TIP3    H244490   1.073   6.655  15.283  0.1465  0.4732  0.7565
 7667TIP3   OH244491   5.457   2.685   0.262  0.1768 -0.3276  0.0506
 7667TIP3    H144492   5.365   2.683   0.239 -0.1600  1.6874  1.0018
 7667TIP3    H244493   5.503   2.699   0.179 -0.5627  0.9899 -0.1555
 7668TIP3   OH244494   6.008   0.138  14.355 -0.5738  0.1249  0.1172
 7668TIP3    H144495   6.025   0.225  14.318 -0.1064  1.2813  2.8335
 7668TIP3    H244496   5.997   0.153  14.449 -0.5799 -2.7570  0.6738
 7669TIP3   OH244497   4.178   3.542   3.011  0.9462  0.0069  0.2605
 7669TIP3    H144498   4.256   3.547   3.067  0.9981  1.2396  0.1172
 7669TIP3    H244499   4.174   3.629   2.970 -1.4868  0.6166  1.5990
 7670TIP3   OH244500   2.183   5.035   4.044 -0.7611 -0.3094 -0.2527
 7670TIP3    H144501   2.197   5.038   3.949 -0.2371 -1.9984 -0.2596
 7670TIP3    H244502   2.251   5.091   4.080 -2.5340  2.5229 -0.9371
 7671TIP3   OH244503   6.651   1.980   3.097 -0.0145  0.1826 -0.1383
 7671TIP3    H144504   6.666   1.901   3.044 -0.6407 -1.0349  1.3916
 7671TIP3    H244505   6.646   2.051   3.034  1.5164 -0.8441 -1.5208
 7672TIP3   OH244506   3.302   4.298  14.320 -0.3316 -0.0814  0.4221
 7672TIP3    H144507   3.343   4.260  14.398  3.3851  2.7759  0.1464
 7672TIP3    H244508   3.249   4.371  14.353 -0.7726 -0.3856  0.3991
 7673TIP3   OH244509   5.019   3.011   0.052  0.1625  0.4367 -0.0511
 7673TIP3    H144510   5.001   2.920   0.071 -0.2988  0.7953  1.3141
 7673TIP3    H244511   5.027   3.015  -0.043  2.1160 -1.3715 -0.0436
 7674TIP3   OH244512   2.484   6.150  15.762  0.6972  0.2475 -0.5120
 7674TIP3    H144513   2.513   6.075  15.710  1.4113 -0.2591  0.5790
 7674TIP3    H244514   2.561   6.206  15.769  0.2872  0.8844 -0.9501
 7675TIP3   OH244515   1.369   6.581   5.828 -0.1858 -0.3036  0.0704
 7675TIP3    H144516   1.288   6.582   5.778  0.7849 -1.5552 -1.6253
 7675TIP3    H244517   1.349   6.525   5.904 -1.1461  0.1396  0.1614
 7676TIP3   OH244518   2.332   5.807  14.006  0.2431  0.2387 -0.0538
 7676TIP3    H144519   2.273   5.830  13.935  1.8972 -0.4283 -1.7303
 7676TIP3    H244520   2.353   5.715  13.992  2.2079  0.6266  0.0040
 7677TIP3   OH244521   4.130   6.771   0.376 -0.6368 -0.3626  0.3026
 7677TIP3    H144522   4.077   6.692   0.361  0.3192 -0.5733 -2.3732
 7677TIP3    H244523   4.216   6.749   0.341  0.1818  1.2585  1.2110
 7678TIP3   OH244524   6.804   3.005   1.840  0.1935  0.6986  0.0540
 7678TIP3    H144525   6.760   2.990   1.756 -0.8681 -1.1591  0.8826
 7678TIP3    H244526   6.874   2.940   1.842  2.0671  2.5829 -0.5492
 7679TIP3   OH244527   1.405   2.801   4.889 -0.2937  0.1112 -0.4758
 7679TIP3    H144528   1.377   2.816   4.980 -0.9074 -0.1145 -0.6249
 7679TIP3    H244529   1.484   2.855   4.880  0.4160 -0.7004  0.5156
 7680TIP3   OH244530   1.924   2.808   2.166 -0.1562 -0.0583  0.8729
 7680TIP3    H144531   1.849   2.864   2.148 -1.5640 -2.0386  0.1635
 7680TIP3    H244532   2.000   2.861   2.144 -1.4408  1.2935 -0.5113
 7681TIP3   OH244533   1.149   3.050  16.939  0.1082 -0.6275 -0.7590
 7681TIP3    H144534   1.161   2.994  17.016 -1.4907 -1.9471 -1.4067
 7681TIP3    H244535   1.149   3.139  16.974  2.1688 -1.0190  0.3751
 7682TIP3   OH244536   2.054   2.814   6.370  0.0627  0.5036  0.0956
 7682TIP3    H144537   2.088   2.778   6.452  1.0801 -2.2255 -1.3819
 7682TIP3    H244538   2.007   2.893   6.396  0.1865 -0.3352  3.3042
 7683TIP3   OH244539   5.092   5.737   0.443 -0.1491 -0.1073 -0.1642
 7683TIP3    H144540   5.089   5.720   0.537  1.0700 -1.2459 -0.2996
 7683TIP3    H244541   5.051   5.823   0.433  1.1485  0.7957  1.6170
 7684TIP3   OH244542   5.182   3.676   0.856  0.0768  0.0402  0.3767
 7684TIP3    H144543   5.092   3.644   0.849  1.0396 -3.1934  1.1523
 7684TIP3    H244544   5.207   3.694   0.765 -0.5317 -1.7497 -0.2081
 7685TIP3   OH244545   5.187   2.955   6.460  0.1016  0.2901 -0.2822
 7685TIP3    H144546   5.129   2.901   6.406 -0.2985 -0.2471  0.6650
 7685TIP3    H244547   5.274   2.918   6.445  0.4778  1.9158 -2.7292
 7686TIP3   OH244548   0.911   5.577   0.827 -0.3453 -0.0661  0.1567
 7686TIP3    H144549   0.822   5.593   0.794 -1.2984 -2.7188  1.1988
 7686TIP3    H244550   0.936   5.660   0.869 -1.4769  1.3980 -1.8491
 7687TIP3   OH244551   6.208   6.352   5.198  0.3331 -0.3378  0.6095
 7687TIP3    H144552   6.150   6.297   5.145 -0.3892 -0.0346  1.0634
 7687TIP3    H244553   6.296   6.321   5.178 -0.0002 -0.9709  0.0863
 7688TIP3   OH244554   4.726   4.664  13.308  0.3951 -0.2994  0.2840
 7688TIP3    H144555   4.807   4.714  13.312  1.1742 -1.5197  0.3249
 7688TIP3    H244556   4.731   4.617  13.225  0.2277 -1.1866  0.7608
 7689TIP3   OH244557   3.552   3.098   5.723 -0.0275  0.5632 -0.3664
 7689TIP3    H144558   3.631   3.144   5.697  1.2520 -1.0347  0.5110
 7689TIP3    H244559   3.507   3.159   5.782  1.4397  0.8660  0.4921
 7690TIP3   OH244560   0.756   1.904   3.253 -0.3741 -0.0613 -0.2215
 7690TIP3    H144561   0.785   1.833   3.310 -0.9729 -0.9847 -1.0185
 7690TIP3    H244562   0.836   1.949   3.226  0.2057 -1.5995 -1.1738
 7691TIP3   OH244563   4.116   6.287   1.748 -0.4762 -0.1459  0.2492
 7691TIP3    H144564   4.099   6.368   1.797 -1.1517 -0.3066  0.2870
 7691TIP3    H244565   4.141   6.224   1.815  1.5836  0.4061  0.0817
 7692TIP3   OH244566   0.858   0.918   3.389  0.0796 -0.1891 -0.8923
 7692TIP3    H144567   0.885   1.002   3.353 -0.4939 -0.8814 -3.1132
 7692TIP3    H244568   0.762   0.917   3.378  0.1276 -1.3132 -1.4142
 7693TIP3   OH244569   4.381   6.737  16.025  0.6177  0.5356 -0.4527
 7693TIP3    H144570   4.426   6.715  16.107 -1.4058 -0.7372  0.3776
 7693TIP3    H244571   4.449   6.727  15.957  2.0217  0.4260  0.9105
 7694TIP3   OH244572   5.499   4.520   3.153 -0.4422  0.6742 -0.2088
 7694TIP3    H144573   5.459   4.507   3.067 -1.5226 -1.4180  0.5489
 7694TIP3    H244574   5.588   4.486   3.143 -0.5583  0.4556 -0.5030
 7695TIP3   OH244575   4.509   3.223  10.672 -0.0656 -0.0170  0.1909
 7695TIP3    H144576   4.473   3.311  10.682  0.2894  0.0243  1.4063
 7695TIP3    H244577   4.594   3.236  10.631 -1.4414 -0.1420 -2.9702
 7696TIP3   OH244578   2.279   5.729   4.469 -0.5807 -0.0393  0.2346
 7696TIP3    H144579   2.329   5.775   4.536  0.1560 -0.3647 -0.0861
 7696TIP3    H244580   2.261   5.643   4.508  0.0715 -0.3228 -0.0799
 7697TIP3   OH244581   1.638   2.775  13.063 -0.4240  0.6265 -0.2002
 7697TIP3    H144582   1.660   2.750  13.153 -0.1275  0.8764 -0.2002
 7697TIP3    H244583   1.543   2.771  13.059 -0.4565  0.9520  0.2229
 7698TIP3   OH244584   0.749   6.316  15.558 -0.4324  0.1563 -0.1514
 7698TIP3    H144585   0.817   6.374  15.593 -0.3277  0.8263 -1.4236
 7698TIP3    H244586   0.676   6.374  15.538 -1.7170 -0.6374  1.8539
 7699TIP3   OH244587   0.541   2.565   5.685 -0.2510  0.2136 -0.5077
 7699TIP3    H144588   0.555   2.588   5.776  1.1470 -0.0074 -0.6442
 7699TIP3    H244589   0.516   2.472   5.687  2.5139 -0.6105 -0.4767
 7700TIP3   OH244590   2.974   5.448   1.635 -0.0926 -0.0775  0.1842
 7700TIP3    H144591   3.000   5.531   1.595 -2.5402  0.2332 -0.9344
 7700TIP3    H244592   2.975   5.385   1.562 -0.4678 -0.4926  0.5333
 7701TIP3   OH244593   2.056   2.289  13.501  0.6622  0.6526 -0.0100
 7701TIP3    H144594   2.025   2.375  13.472 -1.0254 -0.5406 -2.0719
 7701TIP3    H244595   1.977   2.243  13.526  1.6026 -0.1643  1.5679
 7702TIP3   OH244596   2.920   4.525  16.257  0.4586 -0.2159 -0.1690
 7702TIP3    H144597   2.940   4.616  16.236  1.0206  0.2373  2.0908
 7702TIP3    H244598   2.928   4.479  16.173 -0.7580  1.9238 -1.5556
 7703TIP3   OH244599   3.224   3.547   2.288 -0.0930  0.7298  0.3492
 7703TIP3    H144600   3.189   3.617   2.343 -2.2341 -0.6841  0.9149
 7703TIP3    H244601   3.178   3.557   2.204  1.6171  1.6067 -0.5264
 7704TIP3   OH244602   4.231   6.267   4.558  0.5727  0.2172  0.0576
 7704TIP3    H144603   4.282   6.193   4.592  0.6195  0.4072  0.4052
 7704TIP3    H244604   4.297   6.331   4.531  0.5290  0.1950 -0.1043
 7705TIP3   OH244605   5.692   4.306  16.099  1.0783  0.2138  0.5085
 7705TIP3    H144606   5.658   4.296  16.010  0.5295 -0.1462  0.7555
 7705TIP3    H244607   5.773   4.254  16.098  1.3043  0.5613  0.1012
 7706TIP3   OH244608   5.063   4.934  14.255  0.0693  0.2571 -0.0469
 7706TIP3    H144609   5.078   4.998  14.325 -0.2438  2.5107 -1.8918
 7706TIP3    H244610   4.986   4.967  14.209 -0.3151 -1.6991 -0.8816
 7707TIP3   OH244611   3.837   3.597  14.155  0.2096  0.1647  0.2351
 7707TIP3    H144612   3.897   3.663  14.189 -0.4664  0.3410  1.1317
 7707TIP3    H244613   3.786   3.569  14.231  0.3908 -1.3058 -0.1456
 7708TIP3   OH244614   0.336   0.398  15.581 -0.4722 -0.0975  0.1375
 7708TIP3    H144615   0.419   0.350  15.587 -1.0114 -1.1584 -0.6077
 7708TIP3    H244616   0.350   0.461  15.510 -0.3208 -0.3299 -0.0430
 7709TIP3   OH244617   4.200   6.133   0.183 -0.2271 -0.1952 -0.3391
 7709TIP3    H144618   4.133   6.164   0.122  0.1390  2.4509  0.4850
 7709TIP3    H244619   4.225   6.210   0.233 -0.1627 -2.1036  2.8850
 7710TIP3   OH244620   3.409   0.002  11.677 -0.7121 -0.0656  0.3604
 7710TIP3    H144621   3.416   0.082  11.626 -1.6045 -0.8921 -1.1595
 7710TIP3    H244622   3.395   0.031  11.767 -1.2220  1.4852 -0.1934
 7711TIP3   OH244623   2.915   0.274   4.671  0.0339 -0.2506  0.0291
 7711TIP3    H144624   2.910   0.264   4.576 -1.1974 -0.2659  0.0906
 7711TIP3    H244625   2.892   0.365   4.688 -2.1463 -0.8339  0.4658
 7712TIP3   OH244626   3.910   2.403  16.802  0.4635 -0.2003  0.4465
 7712TIP3    H144627   3.952   2.370  16.882  0.2385  0.2397  0.7557
 7712TIP3    H244628   3.934   2.341  16.734  2.7765  0.7588  0.2888
 7713TIP3   OH244629   5.266   3.561  15.100  0.3440 -0.4296  0.2547
 7713TIP3    H144630   5.331   3.542  15.168  0.9354  1.7159  0.3836
 7713TIP3    H244631   5.316   3.602  15.030 -0.8156  1.2899  0.3617
 7714TIP3   OH244632   5.761   5.635   2.396  0.0934 -0.0433 -0.0145
 7714TIP3    H144633   5.788   5.563   2.339 -1.5536 -0.7628  0.0535
 7714TIP3    H244634   5.794   5.610   2.482 -1.9763 -1.7028  0.3878
 7715TIP3   OH244635   1.751   0.684   4.929 -0.2306  0.4364 -0.0646
 7715TIP3    H144636   1.808   0.683   5.006 -1.8700 -3.0928  1.2980
 7715TIP3    H244637   1.795   0.627   4.866  0.8026  2.8407 -1.7188
 7716TIP3   OH244638   4.115   4.682  13.301 -0.1550 -0.4175  0.6070
 7716TIP3    H144639   4.168   4.756  13.270 -3.1176  0.7709 -2.0827
 7716TIP3    H244640   4.130   4.613  13.236 -0.6373 -0.6672  0.7608
 7717TIP3   OH244641   6.397   1.130   5.095 -0.5386  0.4380 -0.1015
 7717TIP3    H144642   6.329   1.118   5.161 -0.9081 -0.0167 -0.5579
 7717TIP3    H244643   6.353   1.170   5.021 -0.8637 -1.9619 -1.2963
 7718TIP3   OH244644   6.772   5.570   4.291 -0.6249 -0.0643  0.1738
 7718TIP3    H144645   6.785   5.639   4.226  0.3769  0.0002  0.4265
 7718TIP3    H244646   6.772   5.489   4.239  1.7744 -0.1491  0.2097
 7719TIP3   OH244647   5.829   3.590   5.904 -0.2961  0.6373 -0.1631
 7719TIP3    H144648   5.922   3.567   5.897 -0.2587  1.0024 -0.8961
 7719TIP3    H244649   5.813   3.648   5.830 -0.9360  1.1616  0.3822
 7720TIP3   OH244650   3.150   1.073   0.981 -0.2596  0.2251  0.3697
 7720TIP3    H144651   3.067   1.100   0.941 -0.7422  0.1782  1.3230
 7720TIP3    H244652   3.170   0.989   0.940  1.0474  1.7049 -2.3313
 7721TIP3   OH244653   3.011   1.542   2.829  0.2027 -0.0702  0.0650
 7721TIP3    H144654   2.928   1.579   2.861 -0.0190 -0.0440 -0.5234
 7721TIP3    H244655   2.986   1.455   2.797  0.3548  0.0450 -0.3611
 7722TIP3   OH244656   2.751   4.316  16.343 -0.3052  0.0352 -0.0361
 7722TIP3    H144657   2.670   4.337  16.390 -1.3964 -0.2159 -1.7129
 7722TIP3    H244658   2.793   4.401  16.329 -0.1960  0.1551  0.9595
 7723TIP3   OH244659   1.544   3.601  12.770 -0.2602 -0.0161 -0.5154
 7723TIP3    H144660   1.582   3.650  12.697 -0.2084  0.6715 -0.0332
 7723TIP3    H244661   1.616   3.589  12.831 -0.6170  0.6150  0.0464
 7724TIP3   OH244662   3.157   6.087  12.966 -0.0791  0.0148  0.0600
 7724TIP3    H144663   3.187   6.001  12.993  0.9198  0.5463  0.6914
 7724TIP3    H244664   3.079   6.070  12.912 -0.1334 -1.2433  0.5165
 7725TIP3   OH244665   5.046   3.180  15.748 -0.6684  0.1547  0.4097
 7725TIP3    H144666   5.062   3.200  15.656  1.8577  0.3586  0.8269
 7725TIP3    H244667   5.092   3.098  15.763  0.8720  1.2343  1.9641
 7726TIP3   OH244668   0.955   4.884   5.114  0.2695  0.3698  0.5958
 7726TIP3    H144669   0.863   4.865   5.132  0.4445  0.4588  1.6914
 7726TIP3    H244670   0.957   4.978   5.096  0.0756  0.2668  0.0291
 7727TIP3   OH244671   0.821   2.985  11.470  0.1001  0.4228  0.3597
 7727TIP3    H144672   0.814   2.901  11.516  1.8410 -0.2503 -0.5186
 7727TIP3    H244673   0.740   3.031  11.493  0.1885 -0.4727  2.8484
 7728TIP3   OH244674   2.770   6.796   5.868  0.0773  0.0362 -0.2674
 7728TIP3    H144675   2.826   6.736   5.819  0.6124  0.8922 -0.7268
 7728TIP3    H244676   2.767   6.759   5.957 -1.2178 -1.7456 -0.9928
 7729TIP3   OH244677   4.997   3.616  10.834  0.4867  0.7927  0.2438
 7729TIP3    H144678   4.958   3.587  10.752 -0.8143 -1.4571  1.5724
 7729TIP3    H244679   4.940   3.687  10.863 -1.6488 -1.1926  1.2095
 7730TIP3   OH244680   1.029   2.927   3.502 -0.0258  0.2588 -0.7012
 7730TIP3    H144681   1.000   2.837   3.516  1.8152 -0.3742 -0.7399
 7730TIP3    H244682   0.962   2.965   3.445 -0.3567 -1.3805 -1.4574
 7731TIP3   OH244683   1.059   4.918  14.931  0.4624 -0.4461 -0.3859
 7731TIP3    H144684   1.027   4.945  15.017  0.1395 -0.3770 -0.5250
 7731TIP3    H244685   1.060   4.822  14.934  0.1976 -0.4487 -0.3951
 7732TIP3   OH244686   5.192   0.334   2.474  0.3733 -0.2639  0.0399
 7732TIP3    H144687   5.221   0.408   2.421  0.5331 -0.1331  0.3130
 7732TIP3    H244688   5.106   0.360   2.506  1.3101  0.7006  1.8801
 7733TIP3   OH244689   0.013   4.645  13.399  0.0095  0.3803  0.1369
 7733TIP3    H144690  -0.070   4.659  13.354  0.5043  0.8972 -0.6562
 7733TIP3    H244691   0.008   4.556  13.433 -0.2629 -0.1547 -1.2471
 7734TIP3   OH244692   2.119   3.032  13.975  0.0949 -0.0256 -0.4125
 7734TIP3    H144693   2.063   3.101  13.939  1.5220  0.7651 -1.1639
 7734TIP3    H244694   2.202   3.040  13.929  1.3365 -0.2790  1.6288
 7735TIP3   OH244695   5.709   5.063  11.855  0.2816 -0.0708  0.0143
 7735TIP3    H144696   5.704   5.027  11.943 -1.5493  1.8319  0.7746
 7735TIP3    H244697   5.618   5.076  11.829  0.8226  1.2150 -1.3508
 7736TIP3   OH244698   3.791   3.048   2.690 -0.4878  0.0459  0.1627
 7736TIP3    H144699   3.723   2.994   2.648 -0.0427 -0.5681  0.2094
 7736TIP3    H244700   3.763   3.055   2.781  1.2594 -3.2882  1.1433
 7737TIP3   OH244701   1.448   1.686  15.200 -0.1589 -0.0250  0.2124
 7737TIP3    H144702   1.455   1.594  15.178 -0.5875 -0.1268  0.4895
 7737TIP3    H244703   1.366   1.693  15.249  0.0015  0.4568  0.4199
 7738TIP3   OH244704   4.119   1.249  12.422  0.0438  0.5490  0.1953
 7738TIP3    H144705   4.070   1.168  12.408 -0.7168  0.8959  0.7717
 7738TIP3    H244706   4.106   1.300  12.342  0.3496  0.1936 -0.0812
 7739TIP3   OH244707   2.522   5.289  11.964 -0.5423  0.1628  0.2245
 7739TIP3    H144708   2.528   5.258  11.874 -1.3286 -0.0209  0.2285
 7739TIP3    H244709   2.572   5.370  11.965  0.0883 -0.2173 -0.1981
 7740TIP3   OH244710   3.067   3.393   4.244 -0.0146 -0.1829 -0.3823
 7740TIP3    H144711   3.071   3.489   4.246 -0.2121 -0.1454 -1.4725
 7740TIP3    H244712   2.974   3.373   4.237  0.0697 -0.4355 -0.8147
 7741TIP3   OH244713   0.646   4.875   0.711  0.8406  0.1895 -0.1036
 7741TIP3    H144714   0.651   4.825   0.630  0.9117  0.7676 -0.4598
 7741TIP3    H244715   0.703   4.828   0.772  1.3089  0.1321 -0.5856
 7742TIP3   OH244716   6.578   5.849   6.224 -0.2042 -0.3292  0.0174
 7742TIP3    H144717   6.563   5.907   6.299 -0.0233 -0.4537  0.1486
 7742TIP3    H244718   6.672   5.831   6.225 -0.1821 -0.2302 -0.3137
 7743TIP3   OH244719   4.759   0.272  15.242 -0.1080  0.1814  0.2221
 7743TIP3    H144720   4.802   0.187  15.230  2.5022  1.0633  2.1906
 7743TIP3    H244721   4.678   0.266  15.192  0.5243 -3.0376 -0.6320
 7744TIP3   OH244722   3.560   1.448  15.852  0.4015  0.4815  0.8529
 7744TIP3    H144723   3.588   1.527  15.898 -1.9263  2.1509 -0.4011
 7744TIP3    H244724   3.473   1.470  15.818 -0.9312 -3.0775  1.5520
 7745TIP3   OH244725   2.675   1.254  10.884 -0.1568 -0.0252 -0.4989
 7745TIP3    H144726   2.716   1.224  10.803  0.3404 -1.8131  0.3544
 7745TIP3    H244727   2.741   1.311  10.924  0.2971 -0.4981 -0.5603
 7746TIP3   OH244728   1.532   1.614   1.326 -0.4570 -0.3142 -0.0393
 7746TIP3    H144729   1.505   1.616   1.418  0.8557 -0.1091  0.3700
 7746TIP3    H244730   1.450   1.616   1.277 -1.2240  3.3733  1.0670
 7747TIP3   OH244731   1.740   3.146   3.603  0.1998  0.3487  0.1118
 7747TIP3    H144732   1.675   3.197   3.652 -0.4181  0.2102 -0.5336
 7747TIP3    H244733   1.820   3.151   3.655 -0.1210  1.1663  0.5422
 7748TIP3   OH244734   1.224   5.925  10.731  0.3095 -0.2112  0.0039
 7748TIP3    H144735   1.231   5.996  10.796  1.2998 -0.6237  0.3802
 7748TIP3    H244736   1.311   5.885  10.732 -0.8077 -2.8483  1.4426
 7749TIP3   OH244737   4.173   1.412   4.855  0.1083 -0.5442  0.4742
 7749TIP3    H144738   4.204   1.501   4.841  2.2636 -1.4231 -0.6700
 7749TIP3    H244739   4.141   1.383   4.770 -1.6276 -0.5538  1.0719
 7750TIP3   OH244740   4.360   5.370   1.736  0.3664 -0.3433  0.8251
 7750TIP3    H144741   4.416   5.410   1.802 -0.5938  0.2440  1.3034
 7750TIP3    H244742   4.276   5.414   1.746 -0.4562 -1.8369  0.7290
 7751TIP3   OH244743   5.789   0.953   3.109  0.4052  0.4858  0.0401
 7751TIP3    H144744   5.777   0.859   3.126 -0.3180  0.5474 -0.1055
 7751TIP3    H244745   5.700   0.987   3.096  0.6014  1.3529  0.8993
 7752TIP3   OH244746   4.747   5.839  13.774 -0.1951  0.1727  0.8790
 7752TIP3    H144747   4.751   5.760  13.827 -0.3423 -1.4464 -1.3716
 7752TIP3    H244748   4.733   5.807  13.684  3.3478  2.5331 -0.7337
 7753TIP3   OH244749   1.111   6.387   3.165 -0.1268 -0.3866  0.2147
 7753TIP3    H144750   1.140   6.304   3.125  1.2115  0.2976 -0.3175
 7753TIP3    H244751   1.115   6.450   3.093  0.4456  0.4716  0.9810
 7754TIP3   OH244752   2.430   4.999  15.207  0.7342 -0.7291 -0.2311
 7754TIP3    H144753   2.417   5.059  15.280 -0.8676  0.6324 -1.5659
 7754TIP3    H244754   2.391   4.917  15.236 -0.3777 -0.0426  0.2662
 7755TIP3   OH244755   2.551   4.274   3.411 -0.3110 -0.0389  0.3802
 7755TIP3    H144756   2.495   4.219   3.467 -2.6190  0.4933 -1.2560
 7755TIP3    H244757   2.574   4.348   3.467 -3.2851  0.9166  0.5195
 7756TIP3   OH244758   5.579   1.652  16.688  0.3631  0.0012 -0.0402
 7756TIP3    H144759   5.522   1.664  16.612  0.6675 -0.5645 -0.3715
 7756TIP3    H244760   5.664   1.686  16.659 -0.3153  3.2109  1.2805
 7757TIP3   OH244761   5.488   1.328  17.073  0.3148 -0.3995 -0.0855
 7757TIP3    H144762   5.501   1.235  17.055  0.5818 -0.0005 -2.2193
 7757TIP3    H244763   5.577   1.364  17.076  0.1840 -0.0748 -0.0776
 7758TIP3   OH244764   6.251   2.677  16.378 -0.7212  0.1447 -0.0632
 7758TIP3    H144765   6.255   2.631  16.462  0.3881  1.0639  0.4118
 7758TIP3    H244766   6.224   2.766  16.401 -1.7037  0.0641 -0.8408
 7759TIP3   OH244767   5.468   1.041  13.113 -0.2699 -0.2418  0.2080
 7759TIP3    H144768   5.520   0.976  13.162 -0.1987 -0.7995 -0.5876
 7759TIP3    H244769   5.502   1.125  13.142 -2.3607 -0.3728  3.5600
 7760TIP3   OH244770   5.301   4.174  11.750  0.2927  0.4794  0.1308
 7760TIP3    H144771   5.343   4.205  11.830 -1.1461  2.0556  0.3423
 7760TIP3    H244772   5.344   4.222  11.679  0.4920  0.2611  0.1009
 7761TIP3   OH244773   4.831   4.720  15.376 -0.4747 -0.3057 -0.2586
 7761TIP3    H144774   4.840   4.653  15.308 -3.7108 -0.6306 -0.5326
 7761TIP3    H244775   4.788   4.674  15.449 -0.0660  0.8052  0.7029
 7762TIP3   OH244776   1.797   1.072  16.922 -0.1491  0.4165 -0.4954
 7762TIP3    H144777   1.884   1.108  16.940  1.0705 -1.8607 -1.3572
 7762TIP3    H244778   1.746   1.092  17.000  1.5565  0.6258  0.6271
 7763TIP3   OH244779   1.354   0.078  15.454 -0.5438 -0.0629 -0.4864
 7763TIP3    H144780   1.277   0.074  15.398 -0.0250 -0.6399 -1.1745
 7763TIP3    H244781   1.374  -0.013  15.475 -1.5357  0.1757  1.7929
 7764TIP3   OH244782   4.958   6.189   5.344 -0.2482  0.0776 -0.4007
 7764TIP3    H144783   4.913   6.105   5.347 -0.4892  0.2215  0.0041
 7764TIP3    H244784   5.032   6.180   5.404  1.2473 -0.7118 -2.2459
 7765TIP3   OH244785   0.486   3.810  14.972 -0.1780  0.1176  0.0216
 7765TIP3    H144786   0.575   3.812  14.937 -0.1757 -1.7935 -0.1785
 7765TIP3    H244787   0.498   3.798  15.066 -0.2145 -0.2094 -0.0140
 7766TIP3   OH244788   1.490   1.428  16.069 -0.0629  0.6429  0.3989
 7766TIP3    H144789   1.414   1.371  16.072  0.9078 -0.6696  1.6743
 7766TIP3    H244790   1.541   1.397  15.994 -0.4267  1.0600 -0.0265
 7767TIP3   OH244791   1.913   3.940   4.120  0.2891  0.7063 -0.2076
 7767TIP3    H144792   1.864   4.003   4.068 -0.8481  0.4035  0.4541
 7767TIP3    H244793   1.971   3.993   4.174 -0.5979  1.1870  0.2906
 7768TIP3   OH244794   0.608   0.713  10.806 -0.3436 -0.2275  0.8895
 7768TIP3    H144795   0.538   0.747  10.861  0.6574  0.2046  1.9208
 7768TIP3    H244796   0.576   0.626  10.779 -1.3403  0.0218  1.1996
 7769TIP3   OH244797   1.918   1.517  10.650 -0.1404  0.1073  0.6931
 7769TIP3    H144798   1.877   1.589  10.603 -0.4004 -1.5429 -1.8295
 7769TIP3    H244799   1.849   1.451  10.657  1.4421 -2.1509 -2.3454
 7770TIP3   OH244800   2.352   5.258  11.488 -0.6236 -0.3139 -0.2472
 7770TIP3    H144801   2.343   5.170  11.450 -0.4513 -0.2471 -0.4443
 7770TIP3    H244802   2.273   5.304  11.460  0.5702  0.4913 -2.5546
 7771TIP3   OH244803   4.631   3.919  12.976 -0.4358 -0.6887  0.1125
 7771TIP3    H144804   4.671   3.902  13.062  0.5920  0.8459 -0.0303
 7771TIP3    H244805   4.569   3.990  12.991 -0.9391 -1.0403 -0.2574
 7772TIP3   OH244806   3.224   4.121   4.913  0.4322 -0.4205  0.6006
 7772TIP3    H144807   3.286   4.139   4.983  0.9572  0.0667  0.0251
 7772TIP3    H244808   3.146   4.171   4.936 -0.2800 -2.0679  2.0201
 7773TIP3   OH244809   1.772   5.088  16.198  0.5203  0.1022 -0.2677
 7773TIP3    H144810   1.770   5.029  16.122  3.4690 -0.2807 -0.1604
 7773TIP3    H244811   1.732   5.169  16.166 -0.7912 -0.9175 -1.3622
 7774TIP3   OH244812   6.586   6.673   1.652 -0.1569  0.1834 -0.0097
 7774TIP3    H144813   6.595   6.759   1.692  0.2564 -0.4170  1.2367
 7774TIP3    H244814   6.634   6.680   1.569 -0.9703  1.4302 -0.4077
 7775TIP3   OH244815   6.101   3.347   1.210 -0.0722  0.7109  0.3752
 7775TIP3    H144816   6.135   3.381   1.128  2.0719 -1.6243  0.1580
 7775TIP3    H244817   6.168   3.369   1.275  1.1160 -2.2568  0.3282
 7776TIP3   OH244818   3.878   2.864  15.550 -0.4237 -0.2980 -0.6866
 7776TIP3    H144819   3.961   2.908  15.531 -0.3375 -0.6777 -1.1996
 7776TIP3    H244820   3.859   2.813  15.472 -1.2676 -0.0307 -0.6631
 7777TIP3   OH244821   6.209   1.762   1.220  0.1633  0.3673  0.2166
 7777TIP3    H144822   6.172   1.843   1.254 -2.4249 -1.3724  1.9128
 7777TIP3    H244823   6.140   1.727   1.163  0.1042 -1.8489  1.5512
 7778TIP3   OH244824   4.550   4.620  10.807 -0.2246  0.1482  0.1303
 7778TIP3    H144825   4.570   4.569  10.886  0.8301  0.2519 -0.0512
 7778TIP3    H244826   4.538   4.554  10.739 -1.2264  0.0541  0.3816
 7779TIP3   OH244827   3.950   5.170  12.206 -0.0760  0.2682  0.3709
 7779TIP3    H144828   3.950   5.180  12.111 -0.8939  0.1247  0.3459
 7779TIP3    H244829   3.916   5.253  12.239  2.8031  1.4318  0.7167
 7780TIP3   OH244830   1.865   0.092  13.896 -0.6132 -0.2641  0.4234
 7780TIP3    H144831   1.959   0.074  13.889 -1.1954 -3.2411 -2.4008
 7780TIP3    H244832   1.837   0.041  13.972  0.1209  1.3983  1.8683
 7781TIP3   OH244833   3.697   0.859   0.917 -0.3372 -0.3573  0.6292
 7781TIP3    H144834   3.721   0.940   0.962 -0.6679 -0.9230  1.8568
 7781TIP3    H244835   3.604   0.848   0.936 -0.6967 -0.1748 -0.9095
 7782TIP3   OH244836   4.949   2.234  14.999 -0.0584  0.2684  0.2757
 7782TIP3    H144837   4.943   2.250  14.905 -0.7154  1.0199  0.4320
 7782TIP3    H244838   4.868   2.270  15.035  0.4528  0.5412  1.2012
 7783TIP3   OH244839   4.421   3.331   4.053 -0.2493 -0.3013  0.3464
 7783TIP3    H144840   4.419   3.251   4.106  0.6850 -0.7626 -0.2785
 7783TIP3    H244841   4.486   3.387   4.095  3.8547 -2.3766 -2.5006
 7784TIP3   OH244842   0.893   2.086  16.295  0.1952 -0.1780 -0.0225
 7784TIP3    H144843   0.904   2.137  16.375 -0.7539 -0.6475  0.4282
 7784TIP3    H244844   0.907   2.149  16.224  0.0273  0.4791  0.5147
 7785TIP3   OH244845   5.859   3.692  10.873 -0.0038 -0.0847 -0.1733
 7785TIP3    H144846   5.772   3.726  10.890 -0.2361 -0.8572  0.2086
 7785TIP3    H244847   5.875   3.713  10.781 -0.1445  1.0187  0.0425
 7786TIP3   OH244848   3.259   0.417   5.030  0.6001 -0.1856  0.1234
 7786TIP3    H144849   3.219   0.413   4.943  1.7337  1.1651 -0.5042
 7786TIP3    H244850   3.186   0.411   5.091 -0.4540  1.1030 -0.9609
 7787TIP3   OH244851   6.202   3.217  13.154 -0.0354  0.4481 -0.0579
 7787TIP3    H144852   6.283   3.190  13.111  0.0882 -0.4441  0.7053
 7787TIP3    H244853   6.225   3.295  13.204  0.7718 -0.7228  1.4511
 7788TIP3   OH244854   6.283   6.803   1.739 -0.0831  0.2697  0.0611
 7788TIP3    H144855   6.277   6.854   1.819  1.1458 -0.3384  0.5713
 7788TIP3    H244856   6.376   6.807   1.715 -0.1993 -0.6434 -0.5947
 7789TIP3   OH244857   0.377   2.379  15.319  0.6645 -0.2292  0.4424
 7789TIP3    H144858   0.397   2.300  15.269  0.2691  0.4697 -0.8801
 7789TIP3    H244859   0.282   2.384  15.319  0.6954  0.4435  0.1940
 7790TIP3   OH244860   3.312   0.437  11.744  0.1891  0.6284  0.6009
 7790TIP3    H144861   3.290   0.352  11.706  1.7865  0.7183 -0.6512
 7790TIP3    H244862   3.322   0.494  11.669  3.2055  0.8904  1.0938
 7791TIP3   OH244863   2.256   5.662  12.860 -0.2281  0.1729  0.5588
 7791TIP3    H144864   2.207   5.642  12.940 -0.3385 -1.4500  0.1076
 7791TIP3    H244865   2.201   5.725  12.814 -1.7649 -1.3295  0.2425
 7792TIP3   OH244866   5.401   1.436  16.843 -0.9369  0.1335  0.1264
 7792TIP3    H144867   5.472   1.431  16.908 -1.5164 -0.3888  0.7398
 7792TIP3    H244868   5.347   1.359  16.861 -1.4452  0.3114 -0.5918
 7793TIP3   OH244869   5.137   3.663  12.884 -0.2919  0.4088 -0.2843
 7793TIP3    H144870   5.207   3.645  12.946  1.6683  3.0648 -1.5497
 7793TIP3    H244871   5.102   3.748  12.911 -0.8049  0.6428 -1.6161
 7794TIP3   OH244872   4.422   5.955  10.528 -0.2488 -0.4075 -0.0521
 7794TIP3    H144873   4.420   5.999  10.614  0.8832  0.6759 -0.5445
 7794TIP3    H244874   4.509   5.975  10.493 -1.5755  1.4554 -2.5934
 7795TIP3   OH244875   4.467   0.858  13.642 -0.2652 -0.0086 -0.1931
 7795TIP3    H144876   4.409   0.802  13.693 -0.5863  0.3970 -0.1077
 7795TIP3    H244877   4.489   0.806  13.565 -0.8559 -0.1177 -0.2955
 7796TIP3   OH244878   4.163   0.963  14.739 -0.6852 -0.4332  0.1775
 7796TIP3    H144879   4.186   0.891  14.798 -2.5668 -0.2743  1.1850
 7796TIP3    H244880   4.113   1.023  14.793  2.4483  2.7577 -0.0747
 7797TIP3   OH244881   1.396   1.866   5.178  0.1530  0.3671 -0.1069
 7797TIP3    H144882   1.355   1.796   5.127  0.2956 -1.0334  1.5995
 7797TIP3    H244883   1.353   1.861   5.264 -0.5321  3.0513 -0.2112
 7798TIP3   OH244884   4.833   4.904   0.124 -0.3968  0.2225 -0.3200
 7798TIP3    H144885   4.925   4.923   0.143  0.2284 -1.5557 -1.3064
 7798TIP3    H244886   4.833   4.871   0.034 -1.9276 -0.3148 -0.1633
 7799TIP3   OH244887   6.046   1.425  11.904  0.1581 -0.3357 -0.3616
 7799TIP3    H144888   6.048   1.411  11.998 -0.6433 -2.1934 -0.5868
 7799TIP3    H244889   5.992   1.504  11.893 -0.2795 -0.4727  0.6889
 7800TIP3   OH244890   6.296   1.901  17.137  0.0328 -0.7130  0.5243
 7800TIP3    H144891   6.343   1.823  17.108 -1.6269 -1.8278  0.7346
 7800TIP3    H244892   6.363   1.970  17.139  1.6420 -2.2191  0.7921
 7801TIP3   OH244893   2.175   2.763   1.038 -0.1429 -0.2122  0.0428
 7801TIP3    H144894   2.185   2.801   0.951  1.4004  0.1386  0.3420
 7801TIP3    H244895   2.130   2.680   1.022  1.1755 -0.7239 -1.2534
 7802TIP3   OH244896   3.859   1.157  12.733 -0.0091 -0.3766  0.0532
 7802TIP3    H144897   3.859   1.113  12.648  0.1297 -0.7044  0.2231
 7802TIP3    H244898   3.769   1.187  12.745 -0.0071 -0.2428 -0.2522
 7803TIP3   OH244899   1.445   1.478  12.457  0.5941 -0.3507 -0.3253
 7803TIP3    H144900   1.488   1.542  12.399  0.9642  0.1368  0.4558
 7803TIP3    H244901   1.364   1.521  12.483 -0.8883 -1.6620 -2.5480
 7804TIP3   OH244902   5.151   1.801   5.844  0.0963  0.4646  0.2110
 7804TIP3    H144903   5.180   1.750   5.767 -1.8607 -2.1692  1.0848
 7804TIP3    H244904   5.198   1.762   5.917 -1.2772  0.0213  0.8794
 7805TIP3   OH244905   4.693   6.811  16.084 -0.0637 -0.4561 -0.3226
 7805TIP3    H144906   4.781   6.815  16.122  0.3098 -0.5254 -1.1616
 7805TIP3    H244907   4.707   6.779  15.995 -0.6420  1.9322 -1.3563
 7806TIP3   OH244908   4.704   1.006  17.239  0.1899 -0.0566 -0.0896
 7806TIP3    H144909   4.666   1.028  17.324  2.7911  0.5061  1.0333
 7806TIP3    H244910   4.717   0.911  17.242  1.7607  0.1499  0.8873
 7807TIP3   OH244911   6.560   0.737   5.613 -0.2544  0.6752  0.4723
 7807TIP3    H144912   6.545   0.686   5.534 -0.7934  1.4424  0.0584
 7807TIP3    H244913   6.472   0.748   5.651 -0.1372  1.2349  0.5872
 7808TIP3   OH244914   4.931   3.596   0.803  0.4309  0.2496 -0.6643
 7808TIP3    H144915   4.848   3.577   0.760  0.2248  0.7664 -0.5086
 7808TIP3    H244916   4.909   3.661   0.870  1.0902  1.0469 -1.1882
 7809TIP3   OH244917   6.508   0.563  14.607  0.3325 -1.1448 -0.4230
 7809TIP3    H144918   6.592   0.574  14.652 -0.2730 -0.6424  0.6268
 7809TIP3    H244919   6.468   0.487  14.649  0.0583 -1.1000 -0.6044
 7810TIP3   OH244920   0.854   2.767  15.168  0.0180 -0.2651 -0.0307
 7810TIP3    H144921   0.942   2.788  15.138 -0.1143  1.2175  0.5195
 7810TIP3    H244922   0.809   2.852  15.171 -1.4675 -0.9952 -0.3943
 7811TIP3   OH244923   1.046   1.802   6.038  0.0473  0.0007 -0.3306
 7811TIP3    H144924   1.011   1.891   6.027 -0.6757 -0.2668 -0.2897
 7811TIP3    H244925   0.983   1.746   5.992 -0.3265 -0.6352  0.9134
 7812TIP3   OH244926   0.956   1.677   2.057 -0.0818 -0.3213  0.0709
 7812TIP3    H144927   0.867   1.701   2.032 -1.2266 -4.4516 -0.3920
 7812TIP3    H244928   1.010   1.705   1.982 -1.1149  1.1396 -0.1673
 7813TIP3   OH244929   3.234   5.680   4.925  0.3001 -0.6699  0.2699
 7813TIP3    H144930   3.245   5.585   4.919  0.8886 -0.5396 -1.6918
 7813TIP3    H244931   3.209   5.707   4.836  0.4902  1.0405  0.6911
 7814TIP3   OH244932   2.293   5.056   2.572  0.0527 -0.5219 -0.0692
 7814TIP3    H144933   2.352   5.051   2.496  1.6533  1.2929  0.9348
 7814TIP3    H244934   2.206   5.063   2.535  0.9011  1.8269 -1.8681
 7815TIP3   OH244935   3.605   2.249   4.042  0.2269  0.1316  0.4877
 7815TIP3    H144936   3.575   2.198   4.117 -1.5053  1.0309  0.4542
 7815TIP3    H244937   3.564   2.209   3.966 -0.5130  1.0420  0.3794
 7816TIP3   OH244938   6.213   2.611  14.636  0.3730  0.5980 -0.1448
 7816TIP3    H144939   6.183   2.699  14.655  0.7556  1.0478 -1.5314
 7816TIP3    H244940   6.301   2.622  14.599  0.2756 -0.3276 -0.6911
 7817TIP3   OH244941   2.141   0.064  10.968 -0.5069 -0.6011 -0.0417
 7817TIP3    H144942   2.106   0.151  10.990 -0.8172 -0.5931 -0.5576
 7817TIP3    H244943   2.235   0.079  10.955 -0.2406 -0.6683  1.5988
 7818TIP3   OH244944   1.425   1.695  11.749  0.1411  0.1688 -0.4089
 7818TIP3    H144945   1.430   1.787  11.724 -0.4887  0.0879 -0.8755
 7818TIP3    H244946   1.476   1.689  11.830 -0.6546  1.1295  0.1880
 7819TIP3   OH244947   2.233   0.040  12.913  0.0631 -0.1905 -0.0111
 7819TIP3    H144948   2.233   0.102  12.840  0.8606 -0.4444 -0.2395
 7819TIP3    H244949   2.152  -0.010  12.903  1.1001 -1.6066 -1.9417
 7820TIP3   OH244950   0.626   0.263   1.091 -0.1705 -0.1915  0.1650
 7820TIP3    H144951   0.696   0.229   1.036  0.8548  2.8221 -0.5597
 7820TIP3    H244952   0.664   0.269   1.178  0.8595  2.1215 -0.3602
 7821TIP3   OH244953   0.450   2.734   0.325 -0.0148 -0.8196 -0.2998
 7821TIP3    H144954   0.532   2.690   0.301 -0.0140 -2.7355  2.6713
 7821TIP3    H244955   0.465   2.766   0.414 -2.4161 -1.0749  0.2573
 7822TIP3   OH244956   5.613   5.563  11.857 -0.1303 -0.0983 -0.6471
 7822TIP3    H144957   5.548   5.599  11.796  0.2645  2.2226  0.1889
 7822TIP3    H244958   5.654   5.640  11.896  0.7087 -1.5068  1.4179
 7823TIP3   OH244959   4.175   2.967   2.425 -0.0982  0.4901 -0.4489
 7823TIP3    H144960   4.103   3.026   2.405  0.7763  2.5126  1.8923
 7823TIP3    H244961   4.156   2.935   2.513  1.3378  0.2544 -0.2067
 7824TIP3   OH244962   2.120   4.624   1.030  0.5730  0.0398 -1.1858
 7824TIP3    H144963   2.048   4.683   1.011  0.9000  0.1738 -2.0592
 7824TIP3    H244964   2.120   4.561   0.957 -0.5137 -1.8074  0.3026
 7825TIP3   OH244965   3.643   2.917   4.150 -0.6472 -0.0720  0.0319
 7825TIP3    H144966   3.562   2.875   4.119 -0.7534 -0.2214  0.4950
 7825TIP3    H244967   3.613   2.979   4.217 -0.6310  1.6942 -1.5070
 7826TIP3   OH244968   5.326   2.925  16.589 -0.3449  0.1956  0.1858
 7826TIP3    H144969   5.299   2.968  16.670 -0.5831 -1.8524  1.2525
 7826TIP3    H244970   5.263   2.853  16.578 -0.5042  0.5914 -1.9929
 7827TIP3   OH244971   3.788   1.213   0.439 -0.1001 -0.3457 -0.1762
 7827TIP3    H144972   3.721   1.239   0.375 -0.0955 -0.3435 -0.1802
 7827TIP3    H244973   3.757   1.130   0.474 -0.9075  0.4098  0.9656
 7828TIP3   OH244974   3.109   4.982   3.878 -0.7013 -0.2081  0.2777
 7828TIP3    H144975   3.134   5.021   3.962  0.4631 -0.1862 -0.0508
 7828TIP3    H244976   3.155   5.035   3.813  0.4741 -1.7526 -0.2200
 7829TIP3   OH244977   0.772   1.418   4.905  0.2763  0.5811 -0.0356
 7829TIP3    H144978   0.713   1.492   4.921 -1.6101 -0.6330 -1.0407
 7829TIP3    H244979   0.828   1.448   4.833 -0.5649  1.0040 -0.5343
 7830TIP3   OH244980   5.204   2.581  16.318  0.2906 -0.1440  0.6130
 7830TIP3    H144981   5.162   2.654  16.272  0.5610 -0.3792 -0.0170
 7830TIP3    H244982   5.249   2.531  16.249 -0.0381 -1.0103  1.0062
 7831TIP3   OH244983   2.862   6.247  13.304  0.1725  0.2713  0.7757
 7831TIP3    H144984   2.911   6.328  13.321  0.9515  0.0115 -0.1646
 7831TIP3    H244985   2.890   6.220  13.217 -0.5900 -0.6573  0.8105
 7832TIP3   OH244986   2.434   0.823  15.033 -0.6700  0.6912  0.3110
 7832TIP3    H144987   2.406   0.747  15.085  1.0708  0.7519  1.4236
 7832TIP3    H244988   2.481   0.878  15.096  2.3173  0.3534 -1.4658
 7833TIP3   OH244989   0.439   3.791   2.982 -0.2338 -0.2603  0.2360
 7833TIP3    H144990   0.496   3.715   2.975 -0.2030 -0.1344 -1.1925
 7833TIP3    H244991   0.371   3.775   2.916 -0.2318  0.9292 -0.0707
 7834TIP3   OH244992   0.024   0.862  13.133  0.1811 -0.4391  0.3966
 7834TIP3    H144993  -0.017   0.841  13.217 -2.3318 -0.8520 -0.8466
 7834TIP3    H244994   0.003   0.788  13.076 -0.5092  1.0267 -1.3396
 7835TIP3   OH244995   2.097   1.164  14.662  0.3032  0.3411  0.8534
 7835TIP3    H144996   2.018   1.155  14.609 -0.3257 -0.8340  1.9272
 7835TIP3    H244997   2.163   1.112  14.617  0.2279  0.6463  0.3897
 7836TIP3   OH244998   1.575   1.626  15.786 -0.0612 -0.3253  0.2660
 7836TIP3    H144999   1.520   1.571  15.730  0.4119 -0.3707 -0.1659
 7836TIP3    H245000   1.569   1.714  15.747 -2.1262  0.3258  1.9017
 7837TIP3   OH245001   3.408   5.754  17.040  0.5319  0.1923  0.1038
 7837TIP3    H145002   3.442   5.733  16.953 -1.8094 -1.7477 -0.4334
 7837TIP3    H245003   3.468   5.708  17.100  0.2198 -1.3217 -0.6931
 7838TIP3   OH245004   2.070   2.914   0.522 -0.1187 -0.0920  0.0622
 7838TIP3    H145005   2.112   2.880   0.443 -2.0681 -0.0277 -1.0695
 7838TIP3    H245006   2.072   3.009   0.510 -0.2980 -0.0776  0.1426
 7839TIP3   OH245007   5.551   6.757  12.479  0.3570  0.3645  0.5845
 7839TIP3    H145008   5.573   6.793  12.565 -0.0321  0.2390  0.7363
 7839TIP3    H245009   5.615   6.687  12.466  1.9853  1.8985 -0.2756
 7840TIP3   OH245010   2.357   2.611  16.782  0.3886  0.0312 -0.2095
 7840TIP3    H145011   2.394   2.526  16.808 -2.2021 -0.8237  1.0078
 7840TIP3    H245012   2.424   2.675  16.806  1.1439 -1.4109  1.7718
 7841TIP3   OH245013   5.692   1.428   3.721 -0.4889 -0.7802  0.5093
 7841TIP3    H145014   5.668   1.413   3.812 -0.8288  0.7856  0.7021
 7841TIP3    H245015   5.741   1.510   3.722 -1.4910 -0.1158 -0.8343
 7842TIP3   OH245016   1.633   6.274  13.578  0.2867  0.1125  0.1539
 7842TIP3    H145017   1.668   6.189  13.604  0.5637  0.1218 -0.1859
 7842TIP3    H245018   1.638   6.328  13.657  1.6447  0.3179 -0.0485
 7843TIP3   OH245019   1.670   3.424   5.808  0.0925 -0.5587  0.2913
 7843TIP3    H145020   1.707   3.509   5.831 -1.3631 -0.0569  0.8645
 7843TIP3    H245021   1.643   3.386   5.891  0.1507 -1.3198 -0.0286
 7844TIP3   OH245022   0.791   5.929  15.607  0.0269  0.4400 -0.0645
 7844TIP3    H145023   0.873   5.909  15.561  1.0862 -0.2033  1.9949
 7844TIP3    H245024   0.732   5.858  15.581  0.8866 -0.4065  0.2179
 7845TIP3   OH245025   1.634   3.044  16.073 -0.3052  0.5531 -0.0068
 7845TIP3    H145026   1.541   3.041  16.050 -1.1988  0.8911  3.0369
 7845TIP3    H245027   1.671   2.964  16.035 -1.8807  0.3015 -1.0905
 7846TIP3   OH245028   2.804   2.482   2.105 -0.4824  0.1118  0.1384
 7846TIP3    H145029   2.891   2.508   2.136 -1.1569  0.3410  2.0045
 7846TIP3    H245030   2.786   2.541   2.032  1.8272 -1.4625 -1.8408
 7847TIP3   OH245031   5.468   6.212   4.608  0.4079 -0.2109  0.0945
 7847TIP3    H145032   5.480   6.170   4.523 -0.6501 -0.7927  0.2091
 7847TIP3    H245033   5.373   6.224   4.615  0.6075  1.3650  0.4739
 7848TIP3   OH245034   0.390   2.061   6.274  0.4467  0.2673 -0.4742
 7848TIP3    H145035   0.476   2.036   6.309  0.1191 -0.2000  0.0257
 7848TIP3    H245036   0.376   2.150   6.307  0.5412  0.1725 -0.1726
 7849TIP3   OH245037   3.686   3.376  16.174  0.0823  0.3369  0.0999
 7849TIP3    H145038   3.700   3.415  16.260  0.2920 -1.2846  0.8513
 7849TIP3    H245039   3.591   3.366  16.168  0.1498 -2.3784  1.5832
 7850TIP3   OH245040   0.441   2.231  11.742 -0.3315 -0.0855 -0.3784
 7850TIP3    H145041   0.533   2.214  11.759 -0.9129 -1.2764  1.9618
 7850TIP3    H245042   0.395   2.156  11.780 -2.2604  0.2271 -1.9147
 7851TIP3   OH245043   3.723   6.338  15.229  0.1296  0.4436 -0.5937
 7851TIP3    H145044   3.646   6.316  15.282 -0.8223  3.1042 -0.7035
 7851TIP3    H245045   3.709   6.292  15.146 -0.1999 -0.8714  0.1667
 7852TIP3   OH245046   6.464   1.682   4.803 -0.2024  0.2354 -0.1901
 7852TIP3    H145047   6.400   1.739   4.844 -0.5672  0.5935 -1.2388
 7852TIP3    H245048   6.467   1.605   4.861 -1.1768  0.4382  0.1561
 7853TIP3   OH245049   6.776   0.336   0.391  0.3403 -0.1242 -0.0542
 7853TIP3    H145050   6.707   0.271   0.405 -0.7079  0.7984 -0.7492
 7853TIP3    H245051   6.813   0.314   0.305  1.0584 -0.7336  0.4020
 7854TIP3   OH245052   1.012   2.416   2.985  0.0367 -0.3129 -0.3317
 7854TIP3    H145053   1.054   2.479   2.926 -0.8072  0.7076  0.1304
 7854TIP3    H245054   1.082   2.354   3.007  0.8035  0.2688 -1.0555
 7855TIP3   OH245055   5.691   4.420  11.667  0.2669 -0.3962 -0.1995
 7855TIP3    H145056   5.608   4.390  11.629 -0.3198 -0.1028  0.8100
 7855TIP3    H245057   5.699   4.511  11.639 -0.6352  0.1159  1.0748
 7856TIP3   OH245058   5.052   6.404  13.671  0.1620 -0.0798 -0.0300
 7856TIP3    H145059   5.146   6.423  13.669  0.1814  0.1969  1.7057
 7856TIP3    H245060   5.033   6.387  13.763 -1.6875  0.8872 -0.1734
 7857TIP3   OH245061   3.142   3.163   3.688 -0.8547  0.2645  0.0495
 7857TIP3    H145062   3.057   3.150   3.731 -0.8477 -1.4117 -0.3399
 7857TIP3    H245063   3.128   3.236   3.628 -2.2912 -0.4964 -0.5978
 7858TIP3   OH245064   5.907   2.989  14.063 -0.6170  0.4900 -0.3447
 7858TIP3    H145065   5.956   2.915  14.099 -2.2729  0.1319  1.3513
 7858TIP3    H245066   5.974   3.055  14.043  0.7523 -0.9172 -0.5542
 7859TIP3   OH245067   0.106   5.560   5.160  0.2229  0.4497 -0.3050
 7859TIP3    H145068   0.058   5.641   5.143  0.0133  0.2897 -0.4844
 7859TIP3    H245069   0.132   5.528   5.074  0.4541  0.4176 -0.2223
 7860TIP3   OH245070   1.119   1.122   1.529 -0.3136  0.1547 -0.0383
 7860TIP3    H145071   1.055   1.193   1.524 -0.5041 -0.1120 -1.8077
 7860TIP3    H245072   1.121   1.085   1.441  0.6146 -1.3144  0.5654
 7861TIP3   OH245073   6.599   1.471  17.161  0.0810 -0.0647  0.3762
 7861TIP3    H145074   6.676   1.418  17.143 -1.2207 -2.2821  1.0057
 7861TIP3    H245075   6.619   1.515  17.244  0.6747 -0.5885  0.5128
 7862TIP3   OH245076   3.199   3.966   3.936 -0.4628 -0.1058  0.4778
 7862TIP3    H145077   3.231   4.053   3.916  0.5462 -0.2076  1.5208
 7862TIP3    H245078   3.108   3.966   3.906 -0.5415  1.3683  0.6568
 7863TIP3   OH245079   6.289   6.198   2.372  0.0250 -0.3769  0.2471
 7863TIP3    H145080   6.364   6.252   2.396 -0.9394  0.9663  0.4125
 7863TIP3    H245081   6.265   6.227   2.284  0.8357 -2.1430 -0.5928
 7864TIP3   OH245082   2.815   0.673  14.824 -0.1632 -0.4322  0.0777
 7864TIP3    H145083   2.730   0.710  14.847 -0.3549 -1.3864  0.9751
 7864TIP3    H245084   2.875   0.707  14.891 -0.0254 -0.4760 -0.0227
 7865TIP3   OH245085   2.463   1.235  14.066  0.6577 -0.6687 -0.5199
 7865TIP3    H145086   2.507   1.313  14.100  0.5112 -0.5286 -0.6500
 7865TIP3    H245087   2.382   1.268  14.026  1.9446 -0.5024 -3.1855
 7866TIP3   OH245088   1.937   5.907  11.319 -0.1542  0.0210 -0.1865
 7866TIP3    H145089   1.881   5.949  11.254  0.1666  1.0181  0.1571
 7866TIP3    H245090   1.922   5.813  11.307 -0.2960  0.1924 -1.5113
 7867TIP3   OH245091   1.256   4.378  13.090 -0.1528 -0.2708  0.0484
 7867TIP3    H145092   1.242   4.472  13.102  1.2863  0.1160 -1.1162
 7867TIP3    H245093   1.187   4.351  13.028 -0.7820 -0.0749  0.6490
 7868TIP3   OH245094   6.318   1.098   4.665 -0.4480  0.4301  0.5837
 7868TIP3    H145095   6.293   1.088   4.573 -1.3760  2.4661  0.5653
 7868TIP3    H245096   6.287   1.017   4.707  2.2514 -1.7420 -1.2478
 7869TIP3   OH245097   1.971   1.159   3.047 -0.4810  0.3623 -0.4945
 7869TIP3    H145098   1.927   1.096   2.990  0.8201 -1.3659  0.3198
 7869TIP3    H245099   2.059   1.167   3.011  0.1402 -0.2276  0.8110
 7870TIP3   OH245100   0.581   5.796   1.164  0.5688  0.0196 -0.8311
 7870TIP3    H145101   0.619   5.818   1.249 -1.0350  0.4701 -0.1866
 7870TIP3    H245102   0.651   5.814   1.101  1.5585  0.3532  0.3217
 7871TIP3   OH245103   2.245   2.348   2.377  0.0836  0.1692  0.4540
 7871TIP3    H145104   2.177   2.300   2.424  0.6956 -2.0044 -0.7253
 7871TIP3    H245105   2.324   2.336   2.430  0.4721 -1.1338 -0.3556
 7872TIP3   OH245106   6.235   0.664  15.293  0.7599 -0.2753 -0.0313
 7872TIP3    H145107   6.223   0.572  15.269  0.8460 -0.4309  0.5086
 7872TIP3    H245108   6.316   0.665  15.345  1.4957  0.3067 -1.1332
 7873TIP3   OH245109   1.712   4.039   0.059 -0.1769 -0.5266  0.6284
 7873TIP3    H145110   1.659   3.960   0.058 -0.8975 -0.0512  0.0598
 7873TIP3    H245111   1.731   4.054   0.152 -0.7900 -0.8801  0.8190
 7874TIP3   OH245112   2.931   1.295  15.073 -0.6235  0.1640  0.2292
 7874TIP3    H145113   3.020   1.260  15.063 -0.5701  0.0654  1.0242
 7874TIP3    H245114   2.877   1.236  15.020 -0.4276 -0.6895  0.9620
 7875TIP3   OH245115   1.531   1.998   2.436  0.4318 -0.3647 -0.4961
 7875TIP3    H145116   1.604   1.941   2.458  1.3224 -0.0733 -2.4394
 7875TIP3    H245117   1.513   1.979   2.344 -0.9445  0.6487 -0.4673
 7876TIP3   OH245118   5.879   5.678   3.286 -0.0869  0.0682  0.0259
 7876TIP3    H145119   5.835   5.742   3.230 -1.1102  0.8113  1.6070
 7876TIP3    H245120   5.967   5.714   3.300  0.3168 -0.3135 -1.3472
 7877TIP3   OH245121   5.889   1.729  16.660  0.3524 -0.5143  0.2766
 7877TIP3    H145122   5.947   1.728  16.736  0.0644  0.0994  0.5057
 7877TIP3    H245123   5.928   1.666  16.599  0.7775 -0.7472  0.7858
 7878TIP3   OH245124   3.769   0.771   3.000 -0.6884 -0.2069  0.4802
 7878TIP3    H145125   3.739   0.857   2.970 -0.5350 -0.5710 -0.7628
 7878TIP3    H245126   3.857   0.786   3.034 -1.3675  0.4540  2.0171
 7879TIP3   OH245127   1.481   4.615  16.538 -0.2078  0.1693  0.1492
 7879TIP3    H145128   1.563   4.567  16.532 -0.3687 -0.2015  0.7527
 7879TIP3    H245129   1.499   4.685  16.601 -0.4056 -0.0334  0.4350
 7880TIP3   OH245130   0.365   4.434   0.209 -0.2571  0.3875  0.4230
 7880TIP3    H145131   0.316   4.438   0.127  0.3799 -0.7763 -0.0430
 7880TIP3    H245132   0.431   4.503   0.201 -0.4577  0.5494  0.1408
 7881TIP3   OH245133   0.625   3.791  11.208  0.0295  0.0169  0.2769
 7881TIP3    H145134   0.675   3.734  11.266 -1.0176  0.0441  1.2555
 7881TIP3    H245135   0.689   3.852  11.171  0.7435 -0.1042  1.2930
 7882TIP3   OH245136   3.355   6.416   1.998  0.1018 -0.3747  0.1379
 7882TIP3    H145137   3.390   6.503   1.976 -0.9525 -0.5699 -2.7374
 7882TIP3    H245138   3.420   6.354   1.966 -0.4847 -0.6570 -0.5398
 7883TIP3   OH245139   6.258   1.109   1.386 -0.1488  0.6927  0.6217
 7883TIP3    H145140   6.328   1.070   1.333 -0.3555 -0.8347  1.4439
 7883TIP3    H245141   6.290   1.198   1.405  1.8200 -0.1203  1.3987
 7884TIP3   OH245142   3.865   3.918   2.753 -0.2894 -0.4597  0.0257
 7884TIP3    H145143   3.951   3.938   2.714 -0.8343 -1.8366 -2.0595
 7884TIP3    H245144   3.847   3.828   2.725 -2.3665 -0.2401  0.5311
 7885TIP3   OH245145   4.058   1.561  13.164 -0.1130 -0.1042  0.4570
 7885TIP3    H145146   4.141   1.513  13.166 -0.9876 -1.8689 -1.5212
 7885TIP3    H245147   3.994   1.500  13.202 -1.1393 -0.3553 -1.5224
 7886TIP3   OH245148   4.297   0.865   5.923 -0.2426  0.4878 -0.2622
 7886TIP3    H145149   4.266   0.783   5.960 -1.4153 -0.0139 -2.1860
 7886TIP3    H245150   4.245   0.933   5.967 -1.7470 -0.1008 -1.0316
 7887TIP3   OH245151   6.202   2.460  10.854  0.1143 -0.4007 -0.4982
 7887TIP3    H145152   6.283   2.485  10.810 -0.0462  0.7189 -0.1836
 7887TIP3    H245153   6.158   2.402  10.792 -0.0868  1.1042 -1.8430
 7888TIP3   OH245154   3.825   5.432  11.152 -0.1776  0.3255 -0.0365
 7888TIP3    H145155   3.791   5.386  11.228 -1.2084  0.6882 -0.2570
 7888TIP3    H245156   3.881   5.501  11.188  1.4847 -1.1257  0.2916
 7889TIP3   OH245157   0.921   0.628  15.661 -0.3248  0.3427 -0.0727
 7889TIP3    H145158   0.911   0.631  15.566 -1.2245  1.5285  0.0395
 7889TIP3    H245159   1.006   0.669  15.677  1.0851 -2.1979 -0.4880
 7890TIP3   OH245160   1.985   4.616  13.259  0.6530  0.8728  0.3409
 7890TIP3    H145161   1.906   4.571  13.228  0.3416  1.3395  0.4442
 7890TIP3    H245162   1.969   4.632  13.352  1.2128  0.2623  0.5475
 7891TIP3   OH245163   6.711   1.827  13.731  0.1336 -1.0022  0.4407
 7891TIP3    H145164   6.625   1.823  13.773 -0.0969 -1.4129 -0.0661
 7891TIP3    H245165   6.758   1.894  13.780 -1.0943  0.5425 -0.4138
 7892TIP3   OH245166   1.072   1.800  16.758 -0.4743  0.3292 -0.1084
 7892TIP3    H145167   1.167   1.793  16.748 -0.5341  1.3367 -1.9026
 7892TIP3    H245168   1.044   1.714  16.790  1.0302  0.0361  0.4959
 7893TIP3   OH245169   5.622   5.989  11.952 -0.5247  0.1798 -0.2180
 7893TIP3    H145170   5.660   5.902  11.943  0.1651  0.1952  2.1328
 7893TIP3    H245171   5.634   6.029  11.865  1.8631 -0.9770 -0.4911
 7894TIP3   OH245172   3.381   3.971  16.752 -0.2931 -0.3144  0.6173
 7894TIP3    H145173   3.444   3.926  16.695 -0.7366  1.2857 -1.2533
 7894TIP3    H245174   3.434   4.026  16.809  0.1924 -2.3144  2.2236
 7895TIP3   OH245175   2.940   5.327  16.618  0.4500  0.0016  0.3574
 7895TIP3    H145176   2.848   5.302  16.607  0.9218 -1.3837 -0.8268
 7895TIP3    H245177   2.986   5.278  16.550  1.9904  1.1997  0.4827
 7896TIP3   OH245178   4.092   1.971  16.050 -0.0092 -0.4079 -0.1158
 7896TIP3    H145179   4.024   2.038  16.047  0.2928  0.0122  1.3085
 7896TIP3    H245180   4.172   2.019  16.071 -0.0633 -1.2985  2.5840
 7897TIP3   OH245181   4.225   5.685  14.132  0.7415  0.4372  0.0269
 7897TIP3    H145182   4.285   5.743  14.179  0.6514  0.6871 -0.1649
 7897TIP3    H245183   4.202   5.617  14.196  2.6582 -0.7269 -0.4387
 7898TIP3   OH245184   6.200   1.863   0.148 -0.3286 -0.6316 -0.9955
 7898TIP3    H145185   6.283   1.822   0.172 -0.7243 -1.2866 -0.7170
 7898TIP3    H245186   6.202   1.867   0.053 -0.0043 -0.7029 -0.9933
 7899TIP3   OH245187   3.236   6.248  13.442 -0.0080 -0.1556  0.8508
 7899TIP3    H145188   3.220   6.158  13.472 -1.2698 -0.3407 -0.2732
 7899TIP3    H245189   3.247   6.241  13.348  0.1573  0.8368  0.7851
 7900TIP3   OH245190   3.091   5.461  11.915  0.4879 -0.1238  0.3540
 7900TIP3    H145191   3.062   5.504  11.835  0.1334  0.9576  1.0430
 7900TIP3    H245192   3.010   5.437  11.960  0.6854 -0.8685  0.3228
 7901TIP3   OH245193   4.670   4.527  16.933 -0.0700 -0.0531 -0.3901
 7901TIP3    H145194   4.710   4.492  16.853  1.2510  0.2928  0.0880
 7901TIP3    H245195   4.636   4.613  16.907 -1.3680 -0.7501 -1.0328
 7902TIP3   OH245196   3.876   1.429  12.571 -0.0405 -0.8741 -0.0128
 7902TIP3    H145197   3.962   1.389  12.566  0.2407 -0.5777  1.6902
 7902TIP3    H245198   3.820   1.373  12.518  0.9497 -1.7468 -0.1749
 7903TIP3   OH245199   4.085   4.869   2.791 -0.8300  0.0431 -0.1442
 7903TIP3    H145200   4.118   4.918   2.716  0.3860  1.1018  1.0318
 7903TIP3    H245201   4.031   4.933   2.839  0.3866  0.1608  1.1496
 7904TIP3   OH245202   1.649   2.436  14.446  0.1889 -0.0573  0.7388
 7904TIP3    H145203   1.696   2.376  14.388 -2.1244  0.2714 -1.6431
 7904TIP3    H245204   1.642   2.518  14.396 -4.6353 -0.6969 -0.1362
 7905TIP3   OH245205   4.732   0.869   0.359  0.0785  0.0113 -0.3758
 7905TIP3    H145206   4.774   0.816   0.291 -1.0860  0.0012 -1.1115
 7905TIP3    H245207   4.639   0.867   0.338 -0.0786  1.8579 -0.0835
 7906TIP3   OH245208   2.799   0.486  16.727  0.7848 -0.2563  0.0740
 7906TIP3    H145209   2.892   0.505  16.742  0.1561  1.9106  1.6382
 7906TIP3    H245210   2.754   0.528  16.800 -1.3774 -2.1947 -0.0538
 7907TIP3   OH245211   6.367   4.645  10.814 -0.3495  0.6007  0.0745
 7907TIP3    H145212   6.292   4.685  10.770 -1.7284 -1.1208  0.7471
 7907TIP3    H245213   6.405   4.587  10.747 -0.4363  0.4696  0.1382
 7908TIP3   OH245214   1.675   1.297   3.935 -0.8399 -0.3066 -0.3430
 7908TIP3    H145215   1.682   1.393   3.937 -3.2310 -0.0662  0.9686
 7908TIP3    H245216   1.763   1.267   3.913  0.7347  2.1038  2.0290
 7909TIP3   OH245217   1.241   0.829  12.208 -0.1918 -0.1268  0.1850
 7909TIP3    H145218   1.289   0.785  12.277 -0.8430 -1.3974 -0.1386
 7909TIP3    H245219   1.307   0.853  12.143  0.0443 -1.8441 -0.2554
 7910TIP3   OH245220   6.625   1.267  15.720 -0.6021  0.1854 -0.5478
 7910TIP3    H145221   6.622   1.173  15.702  0.2712 -0.4461  2.2172
 7910TIP3    H245222   6.564   1.280  15.792  1.1755  1.2476  0.8422
 7911TIP3   OH245223   6.249   1.029  12.590  0.3799 -0.3996  0.1044
 7911TIP3    H145224   6.198   1.093  12.541  0.4026  0.0613  0.6751
 7911TIP3    H245225   6.333   1.025  12.544 -0.1930 -1.2666 -0.9276
 7912TIP3   OH245226   0.787   4.891  14.387 -0.1937 -0.2422  0.5798
 7912TIP3    H145227   0.795   4.940  14.305  0.1020 -1.0369  0.1154
 7912TIP3    H245228   0.869   4.841  14.392 -0.4118 -0.5460  1.1225
 7913TIP3   OH245229   4.189   0.593   5.735  0.5078 -0.0321 -0.2144
 7913TIP3    H145230   4.262   0.636   5.690 -1.0295  1.4908 -1.4224
 7913TIP3    H245231   4.112   0.642   5.706 -0.9386 -1.2065  1.4625
 7914TIP3   OH245232   1.090   6.102   0.425 -0.6551 -0.1315 -0.3233
 7914TIP3    H145233   1.068   6.018   0.385  0.1834 -0.3963 -0.2425
 7914TIP3    H245234   1.012   6.125   0.475 -0.6998 -1.1364  0.1034
 7915TIP3   OH245235   6.558   2.514  11.313  0.3018  0.0933  0.2550
 7915TIP3    H145236   6.631   2.459  11.341  0.1464 -0.3764 -0.2576
 7915TIP3    H245237   6.537   2.566  11.391  0.1906 -0.8522  0.8785
 7916TIP3   OH245238   4.826   1.541   5.328  0.6272 -0.5345 -0.0233
 7916TIP3    H145239   4.912   1.535   5.369  0.1594 -0.6744  0.9697
 7916TIP3    H245240   4.764   1.532   5.401 -0.2264 -0.4016 -0.7162
 7917TIP3   OH245241   5.993   4.405  15.541 -0.1996  0.4374  0.3161
 7917TIP3    H145242   5.949   4.320  15.537  1.4866 -0.4709  0.0820
 7917TIP3    H245243   6.070   4.389  15.595  1.2005  1.2980 -1.3344
 7918TIP3   OH245244   4.533   5.078   0.156  0.0212 -0.1364 -0.0453
 7918TIP3    H145245   4.445   5.103   0.128 -1.1504 -0.9915  2.5631
 7918TIP3    H245246   4.553   4.998   0.107 -0.8121 -0.1371 -0.3949
 7919TIP3   OH245247   5.967   2.630  10.878  0.3015 -0.0551  0.3865
 7919TIP3    H145248   5.943   2.637  10.970  0.4866  2.2463  0.3121
 7919TIP3    H245249   6.054   2.591  10.879 -0.1173 -1.0273  1.0924
 7920TIP3   OH245250   4.148   5.905   0.928 -0.9464  0.6601  0.2792
 7920TIP3    H145251   4.157   5.913   1.023  1.1761 -1.4509  0.3791
 7920TIP3    H245252   4.125   5.813   0.914  1.6184  0.1338 -1.2560
 7921TIP3   OH245253   3.669   3.820  15.129 -0.3120 -0.0975 -0.0537
 7921TIP3    H145254   3.756   3.856  15.114  0.2889 -0.9888  1.1497
 7921TIP3    H245255   3.654   3.763  15.053  0.6544 -0.8366  0.2892
 7922TIP3   OH245256   5.116   5.139  14.423 -0.4741 -0.0464 -0.3256
 7922TIP3    H145257   5.176   5.076  14.464 -0.1762 -0.1186 -0.8664
 7922TIP3    H245258   5.050   5.155  14.490  2.0303  2.7905  1.7229
 7923TIP3   OH245259   5.598   3.919  11.872  0.1089 -0.1901  0.3216
 7923TIP3    H145260   5.639   3.910  11.787  0.6859  0.5514  0.5137
 7923TIP3    H245261   5.638   3.850  11.926 -0.7148 -1.0705 -0.1640
 7924TIP3   OH245262   5.281   5.041  14.063  0.0919 -0.6095 -0.8164
 7924TIP3    H145263   5.220   4.999  14.123 -0.4676 -1.2235 -1.7768
 7924TIP3    H245264   5.365   4.999  14.081 -0.1504 -1.0635 -0.7189
 7925TIP3   OH245265   1.450   4.639  13.176 -0.7117  0.0428 -0.5922
 7925TIP3    H145266   1.504   4.644  13.097 -0.1536  2.6020 -0.1475
 7925TIP3    H245267   1.371   4.593  13.148  0.1838 -0.6256 -2.1750
 7926TIP3   OH245268   2.222   1.178   2.921 -0.2446  0.1511  0.4146
 7926TIP3    H145269   2.300   1.150   2.969 -1.1874 -2.5007  0.5890
 7926TIP3    H245270   2.242   1.158   2.829 -0.4795  0.0564  0.3832
 7927TIP3   OH245271   5.926   0.778  15.005 -0.4245  0.2766  0.3325
 7927TIP3    H145272   5.914   0.864  15.045  0.3344  0.7887 -0.4966
 7927TIP3    H245273   5.942   0.720  15.078 -1.0916  0.8128  0.9182
 7928TIP3   OH245274   0.875   4.632   4.918 -0.4904  0.2658 -0.2257
 7928TIP3    H145275   0.882   4.579   4.839  0.6153 -0.5328  0.3779
 7928TIP3    H245276   0.800   4.690   4.903 -0.5854 -0.2138 -1.6420
 7929TIP3   OH245277   6.526   1.635  13.380  0.4672  0.0439  0.6017
 7929TIP3    H145278   6.433   1.639  13.360  0.4544  0.0686  0.6651
 7929TIP3    H245279   6.531   1.652  13.474  0.6348  1.1995  0.3931
 7930TIP3   OH245280   3.751   2.634   2.878 -0.1625  0.2665  0.0647
 7930TIP3    H145281   3.754   2.697   2.950  0.9703 -1.2615  1.4378
 7930TIP3    H245282   3.838   2.594   2.878 -0.0709  0.3316 -2.3039
 7931TIP3   OH245283   3.012   6.602   2.874  0.2070  0.0561  0.4052
 7931TIP3    H145284   2.981   6.623   2.962 -0.9827 -0.8803  0.2410
 7931TIP3    H245285   3.030   6.508   2.878 -3.2656 -0.8403 -1.2317
 7932TIP3   OH245286   3.749   6.316   1.506  0.1443  0.3871 -0.7624
 7932TIP3    H145287   3.757   6.342   1.598  0.1306  0.8720 -0.9005
 7932TIP3    H245288   3.816   6.248   1.495 -0.0477  0.1152 -0.3216
 7933TIP3   OH245289   3.638   1.327   0.236 -1.1743 -0.1837  0.3423
 7933TIP3    H145290   3.571   1.364   0.178 -1.9109 -0.7859  0.7894
 7933TIP3    H245291   3.652   1.394   0.302 -0.9641  0.1531 -0.0428
 7934TIP3   OH245292   1.934   0.785  12.423  0.8074 -0.1462 -0.4543
 7934TIP3    H145293   1.952   0.879  12.417  1.2024 -0.2803 -1.9213
 7934TIP3    H245294   1.870   0.777  12.494  2.5873  0.9295  1.3512
 7935TIP3   OH245295   5.786   0.034  16.173  0.0726 -0.1302 -0.3974
 7935TIP3    H145296   5.865   0.050  16.225  0.3633 -0.7800 -0.6181
 7935TIP3    H245297   5.815  -0.027  16.105 -0.7538 -0.8221 -0.1480
 7936TIP3   OH245298   4.448   1.028   4.496 -0.0822 -0.3013 -0.1022
 7936TIP3    H145299   4.514   0.962   4.474 -0.8686 -1.5335  1.0214
 7936TIP3    H245300   4.495   1.094   4.546  0.4660 -0.7375 -0.0258
 7937TIP3   OH245301   3.698   2.103   2.313  0.0168  0.0440 -0.6683
 7937TIP3    H145302   3.726   2.046   2.384 -2.5807 -0.9758 -0.3300
 7937TIP3    H245303   3.609   2.073   2.293 -0.0943  1.6795 -2.9294
 7938TIP3   OH245304   4.656   6.249  14.045 -0.6755  0.2329  0.2150
 7938TIP3    H145305   4.682   6.311  14.113  1.1419 -0.4044  0.1499
 7938TIP3    H245306   4.696   6.282  13.965 -0.4090 -0.5538  0.0132
 7939TIP3   OH245307   4.224   2.941  14.304  0.0580  0.7795 -0.3272
 7939TIP3    H145308   4.269   3.020  14.274  0.9375  0.9084  1.2335
 7939TIP3    H245309   4.285   2.870  14.283  0.0526  0.7150 -0.1230
 7940TIP3   OH245310   0.599   1.504  13.501  0.0915  0.4922  0.4380
 7940TIP3    H145311   0.584   1.526  13.409 -0.4877  1.5864  0.7766
 7940TIP3    H245312   0.521   1.534  13.547 -0.0952 -1.0021  1.1661
 7941TIP3   OH245313   6.284   0.988   6.386  0.1915  0.4641 -0.3730
 7941TIP3    H145314   6.273   0.893   6.381 -2.3992  0.7256 -1.1142
 7941TIP3    H245315   6.333   1.003   6.467 -1.0031 -1.4062  0.7556
 7942TIP3   OH245316   3.532   6.642   3.445 -0.4128  0.1208 -0.1595
 7942TIP3    H145317   3.516   6.713   3.383 -1.5125  0.2009  0.1930
 7942TIP3    H245318   3.496   6.564   3.403  0.7160 -0.2281 -0.5088
 7943TIP3   OH245319   4.652   0.278   0.491 -0.3497 -0.3036  0.0044
 7943TIP3    H145320   4.678   0.206   0.548  0.3500 -0.1723 -0.1413
 7943TIP3    H245321   4.692   0.355   0.530 -1.6062  0.1191  0.5128
 7944TIP3   OH245322   5.096   6.320  12.619 -0.1950  0.3836  0.3803
 7944TIP3    H145323   5.033   6.379  12.661  0.6988 -0.6563  3.4625
 7944TIP3    H245324   5.064   6.232  12.638  2.8710 -0.2757  3.7110
 7945TIP3   OH245325   3.440   4.211  14.590 -0.3842 -0.2701 -0.3516
 7945TIP3    H145326   3.435   4.297  14.630  0.2863 -0.6950  0.6736
 7945TIP3    H245327   3.499   4.221  14.515  0.3024 -0.0129  0.2246
 7946TIP3   OH245328   6.032   4.527   3.318  0.1469 -0.2606 -0.5201
 7946TIP3    H145329   6.033   4.447   3.371  1.6566 -0.1603 -0.3635
 7946TIP3    H245330   6.101   4.581   3.356  0.8279  0.0876 -2.2112
 7947TIP3   OH245331   1.714   4.630   2.338  0.0071 -0.1620  0.0248
 7947TIP3    H145332   1.806   4.610   2.324  0.2835 -0.3868  1.9347
 7947TIP3    H245333   1.667   4.558   2.296  0.7545 -0.9395  0.4910
 7948TIP3   OH245334   0.044   2.314   6.191 -0.0635 -1.0155 -0.6364
 7948TIP3    H145335   0.006   2.331   6.105 -2.1662 -2.1705 -0.0147
 7948TIP3    H245336   0.066   2.401   6.225 -0.0476 -0.4812 -1.9489
 7949TIP3   OH245337   5.376   2.526  13.206  0.3168  0.4035  0.3524
 7949TIP3    H145338   5.317   2.601  13.215  0.4476  0.7470 -1.2759
 7949TIP3    H245339   5.339   2.459  13.264 -1.7582  0.5710 -0.6785
 7950TIP3   OH245340   5.403   1.151   2.503  0.0849  0.4200  0.3365
 7950TIP3    H145341   5.493   1.119   2.496 -0.2512 -0.5481  0.3179
 7950TIP3    H245342   5.352   1.091   2.449 -0.5820  0.9396  0.3800
 7951TIP3   OH245343   1.760   0.648   5.229 -0.8847 -0.9501  0.3282
 7951TIP3    H145344   1.854   0.665   5.217 -1.1256 -0.0350 -0.3678
 7951TIP3    H245345   1.721   0.735   5.231 -1.5722 -1.2665  2.0197
 7952TIP3   OH245346   2.512   4.002   3.032 -0.1162 -0.0029  0.0840
 7952TIP3    H145347   2.517   4.052   2.951  0.3946  2.0346  1.2927
 7952TIP3    H245348   2.422   3.967   3.033  0.4037 -1.6455 -2.1482
 7953TIP3   OH245349   5.310   1.487   5.291  0.5840  0.4348  0.2405
 7953TIP3    H145350   5.376   1.442   5.343  0.2638 -1.0255 -0.5525
 7953TIP3    H245351   5.307   1.439   5.208 -1.3706  0.5142  0.2037
 7954TIP3   OH245352   3.675   3.104  12.510 -0.2659 -0.1883  0.5269
 7954TIP3    H145353   3.743   3.159  12.470  0.3714 -0.8680  0.6544
 7954TIP3    H245354   3.623   3.166  12.562  1.4990  0.0900  2.1051
 7955TIP3   OH245355   5.431   0.800   4.144 -0.4308 -0.4465 -0.4470
 7955TIP3    H145356   5.355   0.750   4.175  1.3877 -3.7000 -0.7510
 7955TIP3    H245357   5.413   0.817   4.052 -0.8771 -1.0043 -0.4665
 7956TIP3   OH245358   1.935   2.211  10.600  0.0201 -0.2766 -0.6929
 7956TIP3    H145359   1.979   2.271  10.660 -2.5950  0.1732  0.9458
 7956TIP3    H245360   1.934   2.127  10.647 -1.9547  0.0518 -0.0442
 7957TIP3   OH245361   3.994   6.488   4.456 -0.4939  1.0987 -0.5562
 7957TIP3    H145362   3.917   6.461   4.407 -0.7342 -0.1468  0.4417
 7957TIP3    H245363   4.068   6.456   4.404 -0.7664 -1.3544  0.4227
 7958TIP3   OH245364   2.893   4.569  15.506 -0.0399  0.1302  0.0925
 7958TIP3    H145365   2.850   4.525  15.432  1.1884  0.5356 -0.9230
 7958TIP3    H245366   2.987   4.561  15.486  0.2880  1.0229  1.1677
 7959TIP3   OH245367   4.410   1.489   2.492  0.4253 -0.0977  0.1542
 7959TIP3    H145368   4.503   1.470   2.503  0.1084 -1.2999  1.0377
 7959TIP3    H245369   4.366   1.427   2.551 -0.9655 -0.0210 -0.7606
 7960TIP3   OH245370   6.511   5.981  13.178 -0.2818 -0.0937  0.0795
 7960TIP3    H145371   6.444   5.920  13.206 -0.7279 -0.1051 -0.9684
 7960TIP3    H245372   6.521   5.965  13.084  0.1704  0.8812 -0.0567
 7961TIP3   OH245373   5.081   1.217   1.389  0.1044  0.7966 -0.3065
 7961TIP3    H145374   5.055   1.276   1.460 -1.6201 -2.2592  1.8426
 7961TIP3    H245375   5.017   1.234   1.320 -1.0562  0.7243  0.7167
 7962TIP3   OH245376   2.224   3.876   5.637 -0.6811  0.3707  0.1242
 7962TIP3    H145377   2.281   3.875   5.560 -2.1489  0.7715 -1.0049
 7962TIP3    H245378   2.274   3.925   5.703 -0.2974  1.9673 -1.2976
 7963TIP3   OH245379   6.705   0.798   1.948  0.1936 -0.0966 -0.1905
 7963TIP3    H145380   6.760   0.777   1.873  0.7862  0.1951  0.1524
 7963TIP3    H245381   6.662   0.880   1.923 -0.2014 -0.3961 -0.5143
 7964TIP3   OH245382   1.491   1.150   0.659  0.6743  0.4659  0.0822
 7964TIP3    H145383   1.425   1.209   0.696  0.7880  0.8755 -0.3491
 7964TIP3    H245384   1.465   1.140   0.568 -0.4931 -1.7952  0.6054
 7965TIP3   OH245385   5.823   4.689  12.621 -0.1132 -0.0460  0.7909
 7965TIP3    H145386   5.806   4.775  12.582 -0.5225 -0.2065  0.6124
 7965TIP3    H245387   5.908   4.664  12.586 -0.4363 -0.1509  0.0582
 7966TIP3   OH245388   3.966   0.976   3.512  0.3484  0.3857 -0.0235
 7966TIP3    H145389   4.010   0.916   3.451 -1.9421 -0.2538 -1.1977
 7966TIP3    H245390   4.034   1.036   3.540  2.1929 -1.2128 -0.8070
 7967TIP3   OH245391   6.520   0.271  11.823 -0.6376 -0.1804 -0.2585
 7967TIP3    H145392   6.436   0.287  11.865 -1.7172  1.1596 -2.7460
 7967TIP3    H245393   6.585   0.303  11.886 -2.1166  1.0331  0.7016
 7968TIP3   OH245394   3.318   4.477   2.648 -0.3530 -0.2046 -0.0283
 7968TIP3    H145395   3.407   4.466   2.681 -0.5122 -2.9511 -0.2410
 7968TIP3    H245396   3.327   4.474   2.553 -0.5470  1.0944 -0.1025
 7969TIP3   OH245397   0.960   2.856   2.885 -0.0308 -0.6219 -0.6258
 7969TIP3    H145398   1.001   2.887   2.966  1.4757  0.3614 -1.7326
 7969TIP3    H245399   0.994   2.768   2.873 -0.8562 -1.0719  0.1827
 7970TIP3   OH245400   2.027   4.147  16.957  0.0427  0.0419 -0.4584
 7970TIP3    H145401   2.121   4.142  16.975 -0.1324 -1.1692  0.2148
 7970TIP3    H245402   2.003   4.237  16.978  0.8767  0.0954  0.3093
 7971TIP3   OH245403   3.401   2.730   2.772  0.1583 -0.6692 -0.1478
 7971TIP3    H145404   3.375   2.693   2.857 -2.1356 -1.0603 -0.9443
 7971TIP3    H245405   3.461   2.665   2.736  0.9127 -0.6513  1.0156
 7972TIP3   OH245406   5.647   1.982   1.684  0.0716  0.6141 -0.2731
 7972TIP3    H145407   5.566   1.950   1.723  0.8686  1.9007  2.7538
 7972TIP3    H245408   5.627   2.071   1.655  0.7201  1.5497  1.9749
 7973TIP3   OH245409   2.559   2.828   2.582 -0.2248 -0.0974 -0.2394
 7973TIP3    H145410   2.638   2.793   2.624 -1.5256 -1.0314  1.5687
 7973TIP3    H245411   2.576   2.922   2.574  0.7758 -0.1687  0.7992
 7974TIP3   OH245412   0.376   0.839  15.621  0.5017 -0.3363  0.1466
 7974TIP3    H145413   0.358   0.768  15.560 -0.8862  1.0205 -1.1051
 7974TIP3    H245414   0.300   0.840  15.679 -1.5929  2.5410 -2.3358
 7975TIP3   OH245415   6.751   4.347  14.211 -0.2775  0.1214 -0.0734
 7975TIP3    H145416   6.811   4.309  14.148 -0.2949  0.0219 -0.0305
 7975TIP3    H245417   6.665   4.342  14.169 -0.5891 -1.6678  0.7042
 7976TIP3   OH245418   0.365   5.596  16.235 -0.0284 -0.5622 -0.7881
 7976TIP3    H145419   0.372   5.502  16.214 -1.9075 -0.8134 -0.4904
 7976TIP3    H245420   0.416   5.639  16.167 -2.0854 -1.6302 -3.2094
 7977TIP3   OH245421   3.466   5.057   5.127 -0.6302 -0.1902  0.9560
 7977TIP3    H145422   3.451   5.117   5.054 -0.9274  0.7385  1.7624
 7977TIP3    H245423   3.448   5.109   5.205  0.7354 -0.8426  1.7453
 7978TIP3   OH245424   5.391   1.170   5.281  0.0172 -0.3729 -0.3701
 7978TIP3    H145425   5.408   1.082   5.247  1.2187 -0.0913 -0.5731
 7978TIP3    H245426   5.390   1.226   5.203  1.4912  0.0916 -0.0966
 7979TIP3   OH245427   1.554   2.801  11.976  0.4037  0.2434 -0.2960
 7979TIP3    H145428   1.587   2.732  11.919 -0.4674 -0.1901 -0.2926
 7979TIP3    H245429   1.598   2.880  11.945  1.2286 -0.2655 -0.4566
 7980TIP3   OH245430   4.538   3.555  12.046 -0.4581  0.2108 -0.2782
 7980TIP3    H145431   4.607   3.494  12.021 -0.9480  0.0868 -1.4055
 7980TIP3    H245432   4.492   3.573  11.964  0.7324  3.4640 -0.3505
 7981TIP3   OH245433   3.091   6.804  11.710 -0.2702  0.4243  0.1387
 7981TIP3    H145434   3.175   6.838  11.679  0.5691 -0.8106  0.9578
 7981TIP3    H245435   3.101   6.709  11.706 -1.4346  0.2547  0.7822
 7982TIP3   OH245436   5.922   3.953  14.130 -0.3256 -0.3936 -0.2816
 7982TIP3    H145437   5.996   3.985  14.181 -2.0280  3.8990 -0.0940
 7982TIP3    H245438   5.942   3.977  14.040 -1.4581  0.9351 -0.2120
 7983TIP3   OH245439   4.921   3.213   1.154  0.8310 -0.3784 -0.2959
 7983TIP3    H145440   4.958   3.146   1.097  2.0551  0.8058 -0.9602
 7983TIP3    H245441   4.932   3.179   1.243  2.1864 -0.7086 -0.5775
 7984TIP3   OH245442   3.233   2.929  16.487 -0.8634  0.1112  0.6235
 7984TIP3    H145443   3.283   3.011  16.488 -1.1103  0.2687  1.6197
 7984TIP3    H245444   3.163   2.944  16.551 -0.7971 -0.9434  0.9554
 7985TIP3   OH245445   4.076   1.975  14.610  0.1585  0.3018 -0.7437
 7985TIP3    H145446   4.063   1.905  14.546 -1.0207 -0.5516  0.3909
 7985TIP3    H245447   3.997   2.029  14.603 -0.6724 -0.6220  0.9479
 7986TIP3   OH245448   3.145   3.429  15.973 -0.2561  0.1985  0.0056
 7986TIP3    H145449   3.216   3.364  15.971 -0.0631  0.4183 -0.7532
 7986TIP3    H245450   3.174   3.493  16.039 -0.1810 -0.1837  0.3509
 7987TIP3   OH245451   2.677   6.009  16.773 -0.1862 -0.7041 -0.3290
 7987TIP3    H145452   2.611   6.049  16.716 -2.0794 -4.8810 -1.4797
 7987TIP3    H245453   2.646   6.026  16.862 -0.1063  1.4081 -0.6588
 7988TIP3   OH245454   1.840   3.195   5.200 -0.0426 -0.0897 -0.3149
 7988TIP3    H145455   1.808   3.211   5.111 -2.1264 -0.6032  0.2925
 7988TIP3    H245456   1.836   3.100   5.210 -2.0233  0.1081  1.0654
 7989TIP3   OH245457   0.659   5.382  14.925  0.8114  0.4785 -0.5162
 7989TIP3    H145458   0.577   5.432  14.928 -0.7866 -1.7929 -2.8408
 7989TIP3    H245459   0.679   5.364  15.017 -2.0949 -0.0777  0.1101
 7990TIP3   OH245460   5.330   2.521  14.888 -0.2621 -0.3692 -0.2748
 7990TIP3    H145461   5.266   2.575  14.841  1.3782  0.1215 -2.0587
 7990TIP3    H245462   5.347   2.570  14.969 -1.2472  0.0915 -0.3306
 7991TIP3   OH245463   6.106   0.910   1.560  0.1520 -0.6163 -0.2167
 7991TIP3    H145464   6.032   0.926   1.501 -0.0897 -0.4166  0.1386
 7991TIP3    H245465   6.181   0.952   1.517 -0.1307 -0.0034 -0.1191
 7992TIP3   OH245466   2.528   0.482  13.136 -0.0924  0.1506  0.2210
 7992TIP3    H145467   2.601   0.429  13.103  0.5742  1.8017 -1.1080
 7992TIP3    H245468   2.569   0.544  13.196 -0.6857 -0.0588  0.8472
 7993TIP3   OH245469   4.063   6.269  14.529 -0.2304  0.1086  0.4759
 7993TIP3    H145470   3.978   6.225  14.537 -0.9629  1.0498 -1.4762
 7993TIP3    H245471   4.094   6.277  14.619 -2.7938  0.8460  1.3958
 7994TIP3   OH245472   0.696   2.981  15.004  0.2044  0.3021  0.3307
 7994TIP3    H145473   0.756   3.054  14.993 -0.8197  1.1171  0.0409
 7994TIP3    H245474   0.612   3.021  15.026 -0.1308 -0.8348  1.2751
 7995TIP3   OH245475   4.994   3.778   1.609 -0.1514 -0.1127 -0.6047
 7995TIP3    H145476   5.085   3.775   1.581 -0.3603 -0.2179 -1.2734
 7995TIP3    H245477   4.993   3.730   1.692  0.5403  0.5717 -0.1882
 7996TIP3   OH245478   2.424   5.902  15.331 -0.2184 -0.2715 -0.2604
 7996TIP3    H145479   2.355   5.851  15.372  1.5993 -3.0291 -0.3223
 7996TIP3    H245480   2.401   5.903  15.238 -0.2346 -1.1574 -0.2805
 7997TIP3   OH245481   2.106   3.589   3.864  0.1717 -0.2649  0.1407
 7997TIP3    H145482   2.023   3.580   3.911  1.2393 -0.1371  2.1414
 7997TIP3    H245483   2.159   3.516   3.896  0.8039 -0.4191 -1.2122
 7998TIP3   OH245484   0.835   5.884   2.219  0.1821 -0.0785  0.0371
 7998TIP3    H145485   0.875   5.864   2.134 -0.4936  0.8010 -0.5095
 7998TIP3    H245486   0.869   5.970   2.242 -0.8866  0.4111 -0.1400
 7999TIP3   OH245487   6.663   0.361   1.052  0.5175  0.2030  0.2752
 7999TIP3    H145488   6.697   0.293   0.993  1.2744 -0.3835  1.3548
 7999TIP3    H245489   6.739   0.416   1.071  0.4563 -0.0498  1.2836
 8000TIP3   OH245490   1.860   1.135  16.439  0.0673  0.1661  0.1203
 8000TIP3    H145491   1.789   1.077  16.467 -1.2780  1.5147 -0.3157
 8000TIP3    H245492   1.864   1.202  16.508  0.7698  0.2428  0.0121
 8001TIP3   OH245493   5.941   5.532  17.218 -0.0483  0.3928 -0.3196
 8001TIP3    H145494   5.897   5.592  17.157  0.2487  0.8053 -0.1358
 8001TIP3    H245495   6.000   5.481  17.163 -1.7794 -1.2118 -0.8182
 8002TIP3   OH245496   6.707   6.322   1.631 -0.0464 -1.2202 -0.3581
 8002TIP3    H145497   6.751   6.327   1.546 -1.9128 -0.1326 -1.3294
 8002TIP3    H245498   6.668   6.235   1.633 -1.0270 -0.8306 -1.2162
 8003TIP3   OH245499   2.176   4.624   2.296 -0.0024 -0.5575  0.6653
 8003TIP3    H145500   2.186   4.657   2.207  0.4513  0.5857  1.1232
 8003TIP3    H245501   2.084   4.597   2.301 -0.1368 -0.2431 -0.0215
 8004TIP3   OH245502   3.849   0.111  15.323  0.0823  0.0549  0.4038
 8004TIP3    H145503   3.911   0.082  15.256  0.0930  0.0760  0.4046
 8004TIP3    H245504   3.764   0.082  15.292  0.1584 -0.4737  0.6783
 8005TIP3   OH245505   6.605   1.918   1.843 -0.3901 -0.1082  0.0582
 8005TIP3    H145506   6.693   1.953   1.860 -0.2818 -0.2041 -0.3018
 8005TIP3    H245507   6.546   1.991   1.860 -0.4751 -0.7083  2.8634
 8006TIP3   OH245508   5.383   5.694   1.282  0.0349 -0.1592 -0.1119
 8006TIP3    H145509   5.288   5.684   1.273  0.0872 -0.4451 -0.3766
 8006TIP3    H245510   5.412   5.608   1.315  0.1448  0.0805  0.4327
 8007TIP3   OH245511   0.019   6.342   1.409 -0.1983 -0.3164 -0.1945
 8007TIP3    H145512  -0.019   6.308   1.328  0.6992  1.9582 -1.6650
 8007TIP3    H245513   0.110   6.313   1.408  0.5982  1.9906 -1.5040
 8008TIP3   OH245514   0.992   3.585   0.341 -0.1649 -0.5692  0.4964
 8008TIP3    H145515   0.946   3.660   0.303  1.9306  1.4445  1.7065
 8008TIP3    H245516   0.969   3.511   0.284 -1.7756  1.0876 -1.1340
 8009TIP3   OH245517   3.596   6.358   0.556 -0.2922  0.2942 -0.1497
 8009TIP3    H145518   3.653   6.368   0.480 -0.8068  0.4879 -0.5173
 8009TIP3    H245519   3.655   6.360   0.631  0.4078 -1.5029 -0.6022
 8010TIP3   OH245520   2.737   0.384  16.478  0.3292  0.2727 -0.3247
 8010TIP3    H145521   2.741   0.421  16.566 -0.3673  0.7693 -0.4997
 8010TIP3    H245522   2.773   0.453  16.422 -1.9499  1.1611 -0.7855
 8011TIP3   OH245523   4.220   2.498   1.257 -0.2761 -0.4319 -0.1107
 8011TIP3    H145524   4.163   2.552   1.312 -0.4031 -1.9913  1.3615
 8011TIP3    H245525   4.162   2.457   1.193 -0.4524 -0.2789 -0.0496
 8012TIP3   OH245526   1.128   1.573  16.906 -0.5422  0.1720 -0.7453
 8012TIP3    H145527   1.108   1.480  16.894 -1.1519  0.2963 -0.7333
 8012TIP3    H245528   1.214   1.584  16.866  1.8148 -1.3650  3.2801
 8013TIP3   OH245529   5.114   4.059  16.884 -0.8414 -0.5665  0.5299
 8013TIP3    H145530   5.118   3.980  16.831  0.4333 -0.4614  0.4449
 8013TIP3    H245531   5.176   4.043  16.956 -2.4239 -0.6591  1.9572
 8014TIP3   OH245532   4.803   0.460   5.705  0.8920 -0.0631  0.5052
 8014TIP3    H145533   4.864   0.387   5.716 -0.4273 -1.3473 -0.4143
 8014TIP3    H245534   4.716   0.422   5.718 -0.1418  0.4741 -3.5238
 8015TIP3   OH245535   1.869   3.323  11.245  0.1706 -0.0030 -0.8615
 8015TIP3    H145536   1.836   3.382  11.177  1.2650  0.9011 -0.6568
 8015TIP3    H245537   1.876   3.379  11.323  1.1007 -0.4381 -0.6224
 8016TIP3   OH245538   1.893   0.336  14.841  0.6834 -0.0223 -0.1068
 8016TIP3    H145539   1.810   0.332  14.794  1.2513 -0.6892 -1.0689
 8016TIP3    H245540   1.878   0.404  14.908 -0.7087 -0.3089 -0.0834
 8017TIP3   OH245541   1.413   0.769   2.606 -0.9314 -0.1596 -0.4064
 8017TIP3    H145542   1.358   0.835   2.649  1.0581  1.7445 -0.5545
 8017TIP3    H245543   1.364   0.744   2.528 -3.0905 -1.1829  1.1707
 8018TIP3   OH245544   4.450   2.872  13.687  0.2075 -0.5763  0.1615
 8018TIP3    H145545   4.443   2.890  13.781 -2.0055 -0.0762 -0.0309
 8018TIP3    H245546   4.452   2.959  13.647 -2.1973 -0.6997 -0.3695
 8019TIP3   OH245547   0.900   1.289   5.556  0.4027  0.3187  0.3248
 8019TIP3    H145548   0.946   1.347   5.617  1.3107 -0.2148  0.1649
 8019TIP3    H245549   0.832   1.248   5.609  1.6475 -0.6982  1.2024
 8020TIP3   OH245550   2.635   6.390   3.554  0.6245 -0.0753  0.6131
 8020TIP3    H145551   2.617   6.418   3.464 -0.9536 -0.2116  0.8685
 8020TIP3    H245552   2.639   6.294   3.549 -2.4153 -0.3270  1.1146
 8021TIP3   OH245553   6.498   3.129  15.950  0.0699 -0.1209  0.5902
 8021TIP3    H145554   6.491   3.100  15.859 -2.0516 -0.4558  0.8037
 8021TIP3    H245555   6.425   3.191  15.961 -0.5619 -1.1032  2.3889
 8022TIP3   OH245556   0.804   2.380  16.227 -0.2815  0.3750  0.1175
 8022TIP3    H145557   0.805   2.460  16.174 -3.0028  0.8780  0.7167
 8022TIP3    H245558   0.807   2.411  16.317 -2.3065 -0.0699  0.3890
 8023TIP3   OH245559   3.443   4.031  11.813 -0.4788 -0.1785 -0.5832
 8023TIP3    H145560   3.526   4.075  11.794 -0.4965  0.3523  0.5017
 8023TIP3    H245561   3.460   3.980  11.892 -1.2694  0.2054 -0.1505
 8024TIP3   OH245562   2.127   1.064  13.402 -0.1926 -0.2460  0.7423
 8024TIP3    H145563   2.102   1.156  13.406  0.8206  0.1311 -0.8611
 8024TIP3    H245564   2.201   1.057  13.462  0.1335  0.1316  0.3892
 8025TIP3   OH245565   2.298   4.579   3.106  0.0956  0.3857 -0.0168
 8025TIP3    H145566   2.259   4.494   3.083  3.4515 -1.3716  0.1835
 8025TIP3    H245567   2.347   4.605   3.028  0.9214  0.9755  0.6801
 8026TIP3   OH245568   4.588   6.136   4.365 -0.0884  0.1133  0.0690
 8026TIP3    H145569   4.568   6.069   4.299  1.7606  0.1851 -0.6168
 8026TIP3    H245570   4.609   6.087   4.444 -2.7279  0.0331  0.8162
 8027TIP3   OH245571   4.114   4.874  14.664 -0.6152 -0.4051  0.5488
 8027TIP3    H145572   4.128   4.969  14.665 -0.7950 -0.3698 -0.0549
 8027TIP3    H245573   4.191   4.838  14.709 -0.9515  0.0701  1.5319
 8028TIP3   OH245574   5.255   6.038   2.490  0.3331 -0.1370 -0.1845
 8028TIP3    H145575   5.180   6.089   2.520 -0.5039 -0.9957 -0.7541
 8028TIP3    H245576   5.326   6.102   2.484  0.2371  0.3290  2.3321
 8029TIP3   OH245577   4.382   3.056   4.673  0.4529  0.9961 -0.3194
 8029TIP3    H145578   4.367   2.978   4.726 -0.2845 -0.3455 -2.3755
 8029TIP3    H245579   4.382   3.128   4.736 -1.1740 -0.3979  1.4153
 8030TIP3   OH245580   5.371   2.306  17.088 -0.6573  0.2331  0.2265
 8030TIP3    H145581   5.387   2.260  17.170  0.3360 -1.5271 -0.8930
 8030TIP3    H245582   5.408   2.393  17.101  2.5294 -1.0653  0.5896
 8031TIP3   OH245583   1.913   6.820   4.033 -0.8020  0.3355  0.1054
 8031TIP3    H145584   1.911   6.914   4.017  1.1155  0.4632  0.4523
 8031TIP3    H245585   1.997   6.791   4.000 -1.1478 -1.1848  0.4669
 8032TIP3   OH245586   3.610   5.764   2.087 -0.0362 -0.0011  0.3425
 8032TIP3    H145587   3.544   5.806   2.143 -1.4320 -1.1231 -0.3841
 8032TIP3    H245588   3.604   5.671   2.110 -1.4199 -0.6791 -2.3168
 8033TIP3   OH245589   0.421   2.310  15.989 -0.8909  0.5025  0.4684
 8033TIP3    H145590   0.440   2.378  16.053 -1.5621  0.4903  0.6884
 8033TIP3    H245591   0.329   2.287  16.005 -0.2873 -1.4600  1.3414
 8034TIP3   OH245592   0.689   6.598   4.243  0.2683 -0.2813 -0.0387
 8034TIP3    H145593   0.674   6.582   4.149 -1.4458  0.6974  0.0213
 8034TIP3    H245594   0.758   6.664   4.246 -1.0450  1.1798 -0.7240
 8035TIP3   OH245595   6.631   2.780  16.307  0.4314  0.0490 -0.1231
 8035TIP3    H145596   6.612   2.824  16.390  1.1467  1.0260 -0.4516
 8035TIP3    H245597   6.622   2.849  16.241 -2.1647 -1.1401 -1.1432
 8036TIP3   OH245598   2.343   0.150   5.969 -0.1507 -0.0845  0.6071
 8036TIP3    H145599   2.318   0.058   5.961 -1.2426  0.1868  0.8152
 8036TIP3    H245600   2.275   0.189   6.024  1.8371  0.2313  3.0620
 8037TIP3   OH245601   5.740   3.062  12.292  0.3561  0.7086  0.1413
 8037TIP3    H145602   5.721   3.019  12.209 -0.0985 -0.2800  0.7295
 8037TIP3    H245603   5.832   3.042  12.309  0.2106  0.1387  0.2972
 8038TIP3   OH245604   2.390   4.151   6.016  0.5703  0.0456  0.3127
 8038TIP3    H145605   2.409   4.192   6.101 -2.2246  1.3864  0.4022
 8038TIP3    H245606   2.438   4.204   5.953  0.7500  0.5462  0.8585
 8039TIP3   OH245607   1.719   1.091   0.951  0.4088 -0.5245 -0.5342
 8039TIP3    H145608   1.799   1.121   0.993  0.6317 -3.0841  1.1157
 8039TIP3    H245609   1.657   1.163   0.962  1.4622  0.1616  1.2640
 8040TIP3   OH245610   6.366   2.256  13.824 -0.3449 -0.2936  0.2128
 8040TIP3    H145611   6.397   2.204  13.750  2.3756  0.4830  0.6909
 8040TIP3    H245612   6.392   2.206  13.902 -0.9192  0.0895  0.6673
 8041TIP3   OH245613   1.700   2.532  15.748 -0.5366 -0.3903 -0.1143
 8041TIP3    H145614   1.694   2.525  15.844 -1.4770  0.5591 -0.0777
 8041TIP3    H245615   1.686   2.443  15.717 -0.7099 -0.6315  0.6224
 8042TIP3   OH245616   3.236   0.097   1.688  0.0040  0.0708 -0.0475
 8042TIP3    H145617   3.170   0.118   1.622 -0.9790  1.8273  1.3888
 8042TIP3    H245618   3.318   0.129   1.652 -0.6763  1.8866 -0.0788
 8043TIP3   OH245619   6.212   6.777   6.646 -0.1983 -0.1429 -0.1186
 8043TIP3    H145620   6.196   6.805   6.556  0.9400  0.9793 -0.0067
 8043TIP3    H245621   6.292   6.823   6.671 -0.5460 -0.3677  1.5028
 8044TIP3   OH245622   1.290   1.404  14.482 -0.1300  0.5298 -0.0549
 8044TIP3    H145623   1.362   1.454  14.443  1.3301 -2.0161 -0.8273
 8044TIP3    H245624   1.276   1.445  14.567  2.3253  1.0465  0.1755
 8045TIP3   OH245625   6.456   2.351  11.052 -0.3202 -0.0977  0.2466
 8045TIP3    H145626   6.460   2.421  10.986  1.4107 -0.5386 -0.1760
 8045TIP3    H245627   6.522   2.377  11.116 -0.1260 -1.0163  0.4207
 8046TIP3   OH245628   3.159   6.753   5.642 -0.1241  0.2375 -0.1444
 8046TIP3    H145629   3.254   6.761   5.629  0.0272  0.1956  0.8590
 8046TIP3    H245630   3.121   6.800   5.569  0.6864  1.2105  0.0363
 8047TIP3   OH245631   0.973   3.310   3.286 -1.0256  0.1052  0.4751
 8047TIP3    H145632   0.952   3.394   3.244  0.5199 -0.3158 -1.2867
 8047TIP3    H245633   1.039   3.332   3.351 -1.3169  0.3834  0.6779
 8048TIP3   OH245634   1.290   2.756   4.644 -0.2990 -0.0136 -0.1005
 8048TIP3    H145635   1.341   2.790   4.718  0.2110 -2.0170  0.5213
 8048TIP3    H245636   1.242   2.832   4.612 -0.3238  0.9898  2.1169
 8049TIP3   OH245637   0.916   0.963   1.606  0.1996 -0.2207 -0.0237
 8049TIP3    H145638   0.989   1.024   1.598  0.7005 -0.5832  1.4734
 8049TIP3    H245639   0.876   0.962   1.519  2.2840 -0.4290 -1.0237
 8050TIP3   OH245640   0.264   0.174  12.979 -0.0984  0.3954 -0.5344
 8050TIP3    H145641   0.235   0.209  13.063 -0.9164 -2.1012  0.3024
 8050TIP3    H245642   0.359   0.165  12.987 -0.3673 -1.8374  1.0394
 8051TIP3   OH245643   0.204   2.044  16.413 -0.0075 -0.1022 -0.0042
 8051TIP3    H145644   0.112   2.036  16.386 -0.8373  1.4278  2.1036
 8051TIP3    H245645   0.234   2.125  16.372  1.0321 -1.4550 -2.1126
 8052TIP3   OH245646   4.376   3.246  13.528  0.3364  0.6307 -0.3311
 8052TIP3    H145647   4.283   3.262  13.511  0.3236 -0.0989 -1.0091
 8052TIP3    H245648   4.421   3.296  13.460  0.4440  0.8717 -0.0865
 8053TIP3   OH245649   2.170   3.445  11.557  0.1545 -0.2107  0.4137
 8053TIP3    H145650   2.239   3.512  11.555  0.5686 -0.6359  0.1021
 8053TIP3    H245651   2.108   3.476  11.623  0.5322  0.2920  0.5382
 8054TIP3   OH245652   3.704   1.768  14.384 -0.3838 -0.1477 -0.0964
 8054TIP3    H145653   3.685   1.703  14.316 -0.2055  0.6054 -0.8848
 8054TIP3    H245654   3.649   1.742  14.458  0.8997 -2.1422  0.2033
 8055TIP3   OH245655   6.058   0.567  14.079 -0.3766 -0.9334 -0.0438
 8055TIP3    H145656   6.125   0.540  14.017 -0.2416  0.5717 -0.5967
 8055TIP3    H245657   6.012   0.639  14.035  0.0460  0.5181  1.7631
 8056TIP3   OH245658   5.116   2.403   2.256 -0.3307 -0.2742  0.1987
 8056TIP3    H145659   5.200   2.443   2.278 -1.4549  0.5236  3.8392
 8056TIP3    H245660   5.138   2.321   2.212  2.3219  0.1721  0.5518
 8057TIP3   OH245661   4.731   1.716  16.490  0.2358 -0.2991 -0.2408
 8057TIP3    H145662   4.776   1.754  16.415 -0.2121  0.2324 -0.2407
 8057TIP3    H245663   4.790   1.647  16.520  0.7542 -0.0360 -0.6327
 8058TIP3   OH245664   2.785   4.749   0.809 -0.0160 -0.3057 -0.2401
 8058TIP3    H145665   2.787   4.826   0.866 -1.5393 -1.1213  1.0019
 8058TIP3    H245666   2.791   4.784   0.720 -2.9290  1.4657  0.1599
 8059TIP3   OH245667   5.294   2.888   2.873  0.5471  0.1130  0.2655
 8059TIP3    H145668   5.349   2.821   2.833  2.4793 -1.0922  4.4192
 8059TIP3    H245669   5.265   2.850   2.956 -2.0238  2.8410  0.8114
 8060TIP3   OH245670   0.127   2.678  12.839 -0.0263  0.6495  0.4697
 8060TIP3    H145671   0.184   2.704  12.767 -0.1215 -0.7419 -0.1495
 8060TIP3    H245672   0.180   2.693  12.918  1.5264 -1.2617 -0.1234
 8061TIP3   OH245673   2.088   4.595  12.027 -1.2571 -0.1688 -0.4248
 8061TIP3    H145674   2.006   4.635  11.997 -1.3808 -0.2573 -0.2102
 8061TIP3    H245675   2.154   4.626  11.965 -1.4927 -0.2877 -0.7412
 8062TIP3   OH245676   0.798   0.571   3.342  0.4701 -0.2115  0.3250
 8062TIP3    H145677   0.875   0.623   3.363 -0.0508  0.9893 -0.5898
 8062TIP3    H245678   0.767   0.607   3.259 -1.0967 -0.6412  0.6896
 8063TIP3   OH245679   0.326   3.136  13.414 -0.1071  0.4237 -0.3381
 8063TIP3    H145680   0.365   3.195  13.479  1.6548 -1.1566  0.1169
 8063TIP3    H245681   0.248   3.183  13.384  0.5848  2.4653  0.8206
 8064TIP3   OH245682   0.195   3.112   0.559  0.0505 -0.2015  0.1678
 8064TIP3    H145683   0.286   3.139   0.553  0.3160 -1.0629  0.1349
 8064TIP3    H245684   0.153   3.153   0.483 -0.0556  1.8419  1.2731
 8065TIP3   OH245685   5.350   2.943   2.160  0.0463 -0.4975  0.0429
 8065TIP3    H145686   5.393   2.867   2.118  2.0975  0.4980  0.2027
 8065TIP3    H245687   5.416   2.977   2.221 -1.8826 -0.2656  2.1253
 8066TIP3   OH245688   0.493   5.014   2.606  0.0372 -0.0358 -0.4324
 8066TIP3    H145689   0.511   5.081   2.539 -0.9064 -0.5224 -1.1987
 8066TIP3    H245690   0.480   5.064   2.686 -0.5159  0.6991 -0.9665
 8067TIP3   OH245691   1.039   4.198   3.659  0.3918 -0.1589 -0.5041
 8067TIP3    H145692   1.098   4.224   3.588  1.3339  0.3173  0.4327
 8067TIP3    H245693   1.010   4.280   3.698 -2.3797 -0.2541 -2.0364
 8068TIP3   OH245694   6.500   0.463  12.435  0.1599  0.3087  0.4551
 8068TIP3    H145695   6.501   0.375  12.474 -1.3958 -0.4766 -1.1212
 8068TIP3    H245696   6.523   0.449  12.343  2.6412  1.9635  0.7202
 8069TIP3   OH245697   5.021   0.681   2.775 -0.1208  0.3672  0.4160
 8069TIP3    H145698   5.020   0.596   2.820  1.6410 -0.0213 -0.2295
 8069TIP3    H245699   5.093   0.729   2.816  1.0703  0.2745 -1.4480
 8070TIP3   OH245700   6.213   1.721   0.845 -0.2687 -0.1175  0.0974
 8070TIP3    H145701   6.183   1.745   0.757 -0.0841 -1.7730 -0.4464
 8070TIP3    H245702   6.142   1.750   0.903 -1.2720 -0.7082 -0.7946
 8071TIP3   OH245703   5.737   0.330  16.838 -0.2362  0.5193  0.6878
 8071TIP3    H145704   5.688   0.309  16.759 -0.4444 -0.8408  1.1636
 8071TIP3    H245705   5.766   0.420  16.824 -0.6073  0.4396 -0.7539
 8072TIP3   OH245706   4.703   4.668   5.003  0.1847  0.0258  0.2867
 8072TIP3    H145707   4.683   4.583   4.964 -0.4706 -0.1009  0.8784
 8072TIP3    H245708   4.793   4.686   4.976  0.3843 -0.9222  0.2810
 8073TIP3   OH245709   4.934   4.262  14.253  1.2344 -0.3073  0.4971
 8073TIP3    H145710   4.976   4.213  14.323  1.4373 -1.0279 -0.1177
 8073TIP3    H245711   4.877   4.199  14.210  1.9006 -0.1611 -0.6422
 8074TIP3   OH245712   2.194   1.510   2.400  0.1414  0.2133  0.0796
 8074TIP3    H145713   2.135   1.576   2.363 -0.9785 -1.6006 -1.5503
 8074TIP3    H245714   2.242   1.476   2.324  1.3447 -0.2350  1.0112
 8075TIP3   OH245715   5.109   2.663   1.514 -0.6287 -0.2580  0.3320
 8075TIP3    H145716   5.173   2.722   1.474 -2.5712  1.1990 -0.8047
 8075TIP3    H245717   5.124   2.579   1.470  0.0750  0.2134 -0.3629
 8076TIP3   OH245718   5.253   4.550   5.220 -0.5682 -0.0875  0.1570
 8076TIP3    H145719   5.333   4.603   5.216 -0.3750 -0.3341  0.6138
 8076TIP3    H245720   5.282   4.466   5.256 -0.8083 -0.6276 -0.8829
 8077TIP3   OH245721   5.877   3.033   1.582  0.1011 -0.1157 -0.2832
 8077TIP3    H145722   5.786   3.022   1.611  0.1893  0.3369  0.1798
 8077TIP3    H245723   5.930   2.999   1.654  0.3615  2.5344  0.8889
 8078TIP3   OH245724   6.738   6.512  10.664 -0.2577  0.6803 -0.4418
 8078TIP3    H145725   6.712   6.421  10.649  1.2256  0.2335 -0.4511
 8078TIP3    H245726   6.659   6.563  10.646 -1.2258 -0.6305 -0.0358
 8079TIP3   OH245727   5.972   2.977   0.618 -0.2452  0.3670 -0.2072
 8079TIP3    H145728   5.884   3.005   0.642 -0.0549  1.4828 -0.7563
 8079TIP3    H245729   5.968   2.963   0.523  0.4794  1.7110 -0.4604
 8080TIP3   OH245730   0.514   5.929  16.741  0.0735  0.1758  0.1992
 8080TIP3    H145731   0.581   5.896  16.801 -0.2708  0.7231  0.8924
 8080TIP3    H245732   0.506   5.860  16.675 -1.0265 -1.4250  1.8924
 8081TIP3   OH245733   3.760   6.601  15.043 -0.6487  0.2058  0.3321
 8081TIP3    H145734   3.686   6.603  14.983  0.0357  1.3120 -0.5265
 8081TIP3    H245735   3.768   6.509  15.069 -2.2604  0.0657  0.3887
 8082TIP3   OH245736   4.550   0.762  16.196 -0.2989 -0.5586  0.2409
 8082TIP3    H145737   4.473   0.707  16.182 -0.5028 -0.1387 -0.3460
 8082TIP3    H245738   4.569   0.800  16.109  0.0713 -0.0155  0.5493
 8083TIP3   OH245739   6.696   5.989  11.215 -0.3565 -0.0555  0.1764
 8083TIP3    H145740   6.742   6.020  11.138 -0.2288 -2.1137 -0.6525
 8083TIP3    H245741   6.764   5.945  11.267 -0.6490  0.3801  0.9498
 8084TIP3   OH245742   1.992   5.943  12.507  0.3874  0.3785  0.7489
 8084TIP3    H145743   1.964   5.855  12.483 -0.3201  0.5718  0.8289
 8084TIP3    H245744   1.943   6.000  12.447  1.5496  0.6757  0.0611
 8085TIP3   OH245745   6.304   6.755   1.429 -0.4019  0.1880 -0.0264
 8085TIP3    H145746   6.281   6.706   1.350 -0.0076  0.9770 -0.6562
 8085TIP3    H245747   6.222   6.797   1.456 -0.9122 -1.3682  0.9477
 8086TIP3   OH245748   2.887   6.504   6.479 -0.1696  0.5328  0.1053
 8086TIP3    H145749   2.792   6.508   6.482 -0.2575 -1.0994  0.0406
 8086TIP3    H245750   2.912   6.447   6.551  0.6983  0.1249 -0.4918
 8087TIP3   OH245751   5.691   6.280  11.544  0.0414  0.5797  0.0192
 8087TIP3    H145752   5.748   6.263  11.469 -2.1949 -0.6092 -1.5498
 8087TIP3    H245753   5.658   6.369  11.529  2.1629  1.7174  1.5152
 8088TIP3   OH245754   2.377   4.857   3.296 -0.1153 -0.0127  0.8169
 8088TIP3    H145755   2.307   4.916   3.268  0.1140  0.3682  1.0376
 8088TIP3    H245756   2.456   4.894   3.256 -0.1235 -0.8061  0.0291
 8089TIP3   OH245757   1.505   4.315  12.360  0.0366 -0.5381  0.2135
 8089TIP3    H145758   1.488   4.254  12.288 -1.2403  0.7798 -0.6582
 8089TIP3    H245759   1.592   4.292  12.391  0.6850 -1.0647 -1.8405
 8090TIP3   OH245760   1.165   0.040  11.667 -0.2634 -0.2809  0.2718
 8090TIP3    H145761   1.082   0.066  11.706 -0.7344 -0.2771 -0.7072
 8090TIP3    H245762   1.220   0.016  11.741 -1.7360 -2.0722  0.8486
 8091TIP3   OH245763   4.527   6.135   0.474 -0.0726  0.2107  0.2257
 8091TIP3    H145764   4.452   6.174   0.429  0.0933  0.3960  0.1098
 8091TIP3    H245765   4.488   6.071   0.534 -0.5121  2.0308  1.9824
 8092TIP3   OH245766   2.834   4.876  12.393  0.0197 -0.0800  0.1933
 8092TIP3    H145767   2.807   4.798  12.346 -1.5356  0.3650  0.3091
 8092TIP3    H245768   2.778   4.879  12.470  0.9996  0.4245  0.9221
 8093TIP3   OH245769   2.606   1.088  11.533  0.1100  0.2205 -0.1094
 8093TIP3    H145770   2.595   0.993  11.534  2.2131 -0.0616  0.0026
 8093TIP3    H245771   2.647   1.109  11.617  1.0741  0.9999 -0.7424
 8094TIP3   OH245772   6.117   2.714   1.525  0.0069  0.4515 -0.3142
 8094TIP3    H145773   6.167   2.653   1.471 -1.5605  0.2289 -1.5707
 8094TIP3    H245774   6.116   2.673   1.612 -0.1766 -0.8256 -0.8951
 8095TIP3   OH245775   1.139   3.345   5.394 -0.4858 -0.1344  0.1365
 8095TIP3    H145776   1.117   3.437   5.406  0.3096 -0.1353  2.0245
 8095TIP3    H245777   1.225   3.345   5.353 -0.2138 -0.0022  0.6902
 8096TIP3   OH245778   3.685   3.029  11.411  0.1686  0.7545 -0.0629
 8096TIP3    H145779   3.764   3.038  11.465  1.0509  0.3401 -1.2511
 8096TIP3    H245780   3.668   2.934  11.409 -0.1474  0.8105 -0.1305
 8097TIP3   OH245781   6.629   3.828   3.802 -0.0194  0.7921  0.1369
 8097TIP3    H145782   6.611   3.885   3.727 -0.1349  1.4963  0.6867
 8097TIP3    H245783   6.544   3.818   3.845 -0.1017 -0.2267 -0.2371
 8098TIP3   OH245784   4.837   6.319  14.337 -0.6271  0.0190  0.1797
 8098TIP3    H145785   4.841   6.223  14.327 -1.3392  0.2045 -3.1666
 8098TIP3    H245786   4.916   6.351  14.295 -1.0534  0.9278  0.0487
 8099TIP3   OH245787   6.040   4.117  12.618 -0.5335  0.3245  0.2665
 8099TIP3    H145788   6.047   4.160  12.704 -0.1106 -1.3179  1.0989
 8099TIP3    H245789   6.106   4.160  12.565 -1.6037  2.1870  0.3660
 8100TIP3   OH245790   1.052   0.590  17.069  0.0781 -0.1284  0.2518
 8100TIP3    H145791   1.059   0.666  17.127 -0.9886  0.9696 -0.9886
 8100TIP3    H245792   0.990   0.617  17.002  2.8780 -0.4798 -2.7207
 8101TIP3   OH245793   0.855   6.068   3.854 -0.5481  0.0515 -0.1060
 8101TIP3    H145794   0.871   5.990   3.908 -0.3473  0.2372  0.1068
 8101TIP3    H245795   0.785   6.115   3.901  1.2700  1.4578  1.3481
 8102TIP3   OH245796   1.578   3.590   4.302 -0.2717 -0.4114 -0.0770
 8102TIP3    H145797   1.510   3.584   4.234  1.6811 -0.3112 -2.1556
 8102TIP3    H245798   1.569   3.509   4.352 -1.1217 -0.9797 -1.1107
 8103TIP3   OH245799   2.446   1.026  14.221  0.5312  0.0060 -0.6629
 8103TIP3    H145800   2.398   0.966  14.164 -1.9206  1.6040 -0.4228
 8103TIP3    H245801   2.458   1.105  14.169  1.5321  0.2077 -0.1600
 8104TIP3   OH245802   4.020   6.408  11.551 -0.1446 -0.1901  0.8794
 8104TIP3    H145803   3.957   6.440  11.487  0.8152  2.0496  0.9409
 8104TIP3    H245804   4.052   6.326  11.514 -0.1141  0.6929 -1.2087
 8105TIP3   OH245805   4.602   3.924   0.068  0.3239 -0.5331  0.1770
 8105TIP3    H145806   4.622   3.832   0.086  0.0932 -1.1272 -2.2630
 8105TIP3    H245807   4.513   3.936   0.102  0.5088 -1.0942  0.8724
 8106TIP3   OH245808   1.973   3.666   4.442 -0.2598 -0.1929  0.5531
 8106TIP3    H145809   2.051   3.719   4.461 -0.5905  0.1176  1.0664
 8106TIP3    H245810   1.899   3.724   4.460 -0.6232 -0.7771  0.9693
 8107TIP3   OH245811   0.631   0.224   2.442  0.0316  0.3181 -0.0238
 8107TIP3    H145812   0.538   0.248   2.447  0.5581  2.6343 -0.2413
 8107TIP3    H245813   0.664   0.233   2.531  0.1617 -0.0436 -0.0323
 8108TIP3   OH245814   5.524   3.835   4.929 -0.1366 -0.5433 -0.0957
 8108TIP3    H145815   5.437   3.864   4.903  0.5763  2.8912  0.8230
 8108TIP3    H245816   5.571   3.821   4.847 -0.8943 -0.1854 -0.5939
 8109TIP3   OH245817   4.949   4.646  14.280  0.3029 -0.6821 -0.1003
 8109TIP3    H145818   4.871   4.610  14.323 -0.7402  1.0384 -0.4392
 8109TIP3    H245819   4.960   4.732  14.321  0.2467  0.3266 -2.0995
 8110TIP3   OH245820   3.538   1.771   1.315 -0.3509  0.3003  0.2765
 8110TIP3    H145821   3.492   1.853   1.297  2.2146  1.7163 -0.4727
 8110TIP3    H245822   3.515   1.713   1.243 -4.0009 -0.6087  1.9701
 8111TIP3   OH245823   4.491   5.441   5.161  0.3721  0.1684 -0.4472
 8111TIP3    H145824   4.546   5.372   5.199 -1.9533 -0.8298  1.3936
 8111TIP3    H245825   4.490   5.510   5.228  1.9744  1.7085 -1.9045
 8112TIP3   OH245826   2.198   4.729  13.827  0.5950  0.4981 -0.1438
 8112TIP3    H145827   2.262   4.747  13.759  0.3504 -2.4534 -1.2829
 8112TIP3    H245828   2.114   4.724  13.781  0.0998  0.5053  0.7342
 8113TIP3   OH245829   0.668   3.926   3.562 -0.4782  0.2987 -0.5787
 8113TIP3    H145830   0.677   3.967   3.476 -1.1125  3.3867  0.6897
 8113TIP3    H245831   0.756   3.931   3.600 -0.5772  0.6274 -0.3852
 8114TIP3   OH245832   0.645   0.668  11.740  0.0669  0.0710  0.6310
 8114TIP3    H145833   0.556   0.699  11.757 -0.5040  0.2230 -2.0875
 8114TIP3    H245834   0.701   0.734  11.780 -1.0707  0.9384  0.8637
 8115TIP3   OH245835   6.731   5.718   0.959  0.0882 -0.3410  0.8365
 8115TIP3    H145836   6.721   5.759   0.873  0.8385 -0.3410  0.7411
 8115TIP3    H245837   6.649   5.739   1.005  0.1241  0.5873  0.5056
 8116TIP3   OH245838   4.191   4.456   0.505  0.4049  0.1384  0.0470
 8116TIP3    H145839   4.173   4.368   0.472 -0.8120 -0.4500  2.1317
 8116TIP3    H245840   4.195   4.446   0.600  0.7429  2.2542  0.2999
 8117TIP3   OH245841   5.952   3.698  12.834 -0.2715 -0.1826 -0.4859
 8117TIP3    H145842   5.971   3.713  12.741 -0.4193  1.8975 -0.2389
 8117TIP3    H245843   5.875   3.642  12.834 -0.9227  0.6522 -1.6538
 8118TIP3   OH245844   2.644   3.379   6.309  0.2564 -0.2589  0.4611
 8118TIP3    H145845   2.665   3.326   6.385  0.4503  0.3516  0.8370
 8118TIP3    H245846   2.556   3.352   6.284  0.2109 -0.4882  0.8740
 8119TIP3   OH245847   1.441   5.455  12.327 -0.0359 -0.0054  0.2338
 8119TIP3    H145848   1.515   5.510  12.351 -0.3257  0.3747  0.2731
 8119TIP3    H245849   1.386   5.452  12.406 -0.7475  0.8468 -0.2142
 8120TIP3   OH245850   3.371   5.190  14.154  0.7974 -0.2007 -0.4083
 8120TIP3    H145851   3.348   5.207  14.246  0.5292 -0.8818 -0.3413
 8120TIP3    H245852   3.398   5.099  14.153  0.8550 -0.1792 -0.9989
 8121TIP3   OH245853   5.366   5.222   2.549  0.0578  0.5694  0.2201
 8121TIP3    H145854   5.400   5.132   2.547 -1.5327 -0.1630 -3.5589
 8121TIP3    H245855   5.276   5.213   2.579 -1.0249  0.3006 -2.7209
 8122TIP3   OH245856   0.549   2.719   0.590  0.1680 -0.1324 -0.2231
 8122TIP3    H145857   0.644   2.726   0.596  0.0194  2.0764  0.2168
 8122TIP3    H245858   0.518   2.732   0.680 -0.5236 -2.7215  0.0024
 8123TIP3   OH245859   0.750   4.924   3.345 -0.3206 -0.1036  0.0992
 8123TIP3    H145860   0.782   5.007   3.310  0.6174 -0.5045 -0.0163
 8123TIP3    H245861   0.718   4.945   3.433  0.3177  0.3070  0.2375
 8124TIP3   OH245862   2.516   0.660   1.878  0.1034  0.2502  0.1629
 8124TIP3    H145863   2.511   0.645   1.783  0.0068 -1.9070  0.4712
 8124TIP3    H245864   2.553   0.748   1.886  2.0947 -0.2887 -1.8867
 8125TIP3   OH245865   5.943   6.078  15.062 -0.3303  0.2566  0.1980
 8125TIP3    H145866   5.914   6.086  15.153 -0.6847  0.8164  0.0384
 8125TIP3    H245867   5.898   6.149  15.016  1.5248  1.3632 -0.0083
 8126TIP3   OH245868   2.373   6.555   3.611 -0.1577 -0.2384 -0.1821
 8126TIP3    H145869   2.447   6.495   3.611  0.3875  0.3316  2.0654
 8126TIP3    H245870   2.297   6.500   3.630 -0.1851 -0.6454 -1.3531
 8127TIP3   OH245871   5.140   5.957   5.231  0.1460  0.1511  0.6461
 8127TIP3    H145872   5.148   6.037   5.283 -0.5250  0.7725 -0.1707
 8127TIP3    H245873   5.051   5.927   5.249  0.6933 -0.9261  1.6455
 8128TIP3   OH245874   5.985   2.354   2.322 -0.2300 -0.2250  0.3739
 8128TIP3    H145875   6.015   2.309   2.401  1.3592 -1.9960 -1.1339
 8128TIP3    H245876   5.934   2.287   2.276 -1.1367  0.7901 -0.1328
 8129TIP3   OH245877   2.986   1.994   0.318 -0.7552 -0.1750  0.2527
 8129TIP3    H145878   2.895   1.964   0.320 -0.6450 -0.5613 -0.3362
 8129TIP3    H245879   2.991   2.059   0.387 -1.7307  0.5591 -0.3408
 8130TIP3   OH245880   4.140   0.444  12.164 -0.5633  0.1850  0.3217
 8130TIP3    H145881   4.203   0.396  12.218 -0.2253 -2.2398 -2.0126
 8130TIP3    H245882   4.179   0.530  12.151  0.7764 -0.2338  1.3757
 8131TIP3   OH245883   2.838   4.463  12.156 -0.4491 -0.0274 -0.1354
 8131TIP3    H145884   2.844   4.445  12.063  2.9468 -0.9263  0.1330
 8131TIP3    H245885   2.866   4.382  12.199  0.3004  1.0579  1.5690
 8132TIP3   OH245886   4.148   4.141   4.756  0.1578 -0.3307  0.8286
 8132TIP3    H145887   4.069   4.194   4.746 -1.1128 -2.2482  0.0523
 8132TIP3    H245888   4.133   4.090   4.835  1.2030  0.1778  1.3768
 8133TIP3   OH245889   6.225   2.089  16.701  0.0550  0.2424 -0.4460
 8133TIP3    H145890   6.293   2.134  16.750  0.3528 -0.5072 -0.1497
 8133TIP3    H245891   6.253   1.997  16.701  0.6937  0.3485 -3.0121
 8134TIP3   OH245892   1.058   1.500   3.544  0.3471  0.4491  0.4685
 8134TIP3    H145893   1.151   1.488   3.563  0.4722  1.6867  0.7642
 8134TIP3    H245894   1.014   1.475   3.625  0.3326 -1.0976  0.0017
 8135TIP3   OH245895   1.588   6.643  15.208  0.2248 -0.4007 -0.7577
 8135TIP3    H145896   1.660   6.685  15.160 -0.8172  1.3402 -0.8945
 8135TIP3    H245897   1.621   6.634  15.298  0.1452  1.8134 -0.4383
 8136TIP3   OH245898   5.261   1.500  15.974  0.4534  0.6745  0.2479
 8136TIP3    H145899   5.260   1.590  15.943  0.4629  0.9508  1.0280
 8136TIP3    H245900   5.305   1.504  16.059  1.1957 -0.1855 -0.0759
 8137TIP3   OH245901   5.359   6.038   0.224  0.6245  0.6414  0.3910
 8137TIP3    H145902   5.344   6.124   0.263  0.1225 -0.6813  3.3994
 8137TIP3    H245903   5.275   6.013   0.186  0.2312  0.6767  1.2344
 8138TIP3   OH245904   6.564   0.069  16.033  0.2482 -0.1644 -0.3388
 8138TIP3    H145905   6.552   0.092  16.125 -0.2342  0.5833 -0.5868
 8138TIP3    H245906   6.549   0.150  15.985  3.5325  0.2711 -0.9205
 8139TIP3   OH245907   2.567   5.055  15.463  0.3407  0.3336 -0.1080
 8139TIP3    H145908   2.610   5.037  15.379  2.9998  1.2371  0.9464
 8139TIP3    H245909   2.564   5.151  15.468  1.1737  0.3125  1.2263
 8140TIP3   OH245910   3.888   2.274   4.067  0.2814  0.0646  0.3133
 8140TIP3    H145911   3.803   2.259   4.026 -0.1885 -0.2800  1.3802
 8140TIP3    H245912   3.868   2.287   4.160  1.3683  0.2575  0.5368
 8141TIP3   OH245913   3.024   5.659   2.666  0.6300  0.0524  0.3190
 8141TIP3    H145914   3.055   5.643   2.755  0.7196 -0.2936  0.2284
 8141TIP3    H245915   2.928   5.661   2.674  0.6584  0.7718  0.5413
 8142TIP3   OH245916   2.525   6.124   0.074 -0.4615  0.4377  0.3027
 8142TIP3    H145917   2.580   6.201   0.084 -2.0962  1.7114 -0.0010
 8142TIP3    H245918   2.436   6.159   0.068 -1.5425 -1.6365  2.6419
 8143TIP3   OH245919   4.598   0.234   6.346 -0.7504  0.3759 -0.1215
 8143TIP3    H145920   4.507   0.208   6.359 -0.5628 -1.3926 -1.9298
 8143TIP3    H245921   4.646   0.152   6.340  0.6448  1.2365 -1.2516
 8144TIP3   OH245922   0.022   5.111  13.685  0.5123 -0.1900 -0.5093
 8144TIP3    H145923  -0.065   5.130  13.720  1.4733 -0.1089  2.0525
 8144TIP3    H245924   0.028   5.016  13.686  1.0512 -0.1647  1.0415
 8145TIP3   OH245925   2.658   1.105   5.901  0.2203  0.5310 -0.8195
 8145TIP3    H145926   2.703   1.093   5.817  0.9294 -0.0489 -0.3663
 8145TIP3    H245927   2.722   1.080   5.967 -0.3826  0.8267 -0.1023
 8146TIP3   OH245928   5.723   0.283   3.572 -0.2239 -0.6563  0.0186
 8146TIP3    H145929   5.776   0.355   3.540  0.0919 -1.0260 -0.2939
 8146TIP3    H245930   5.768   0.253   3.651 -0.5097 -0.3347  0.3107
 8147TIP3   OH245931   3.390   0.592   4.179  1.0727  0.0520 -0.8366
 8147TIP3    H145932   3.400   0.533   4.254 -2.0100 -1.1207 -1.2236
 8147TIP3    H245933   3.397   0.680   4.216  1.8069 -0.5063  0.4164
 8148TIP3   OH245934   6.777   3.092   3.576  0.0323 -0.5222 -0.5521
 8148TIP3    H145935   6.797   3.077   3.483 -0.3392 -0.4394 -0.6486
 8148TIP3    H245936   6.775   3.004   3.614  2.7448 -0.4667 -0.0538
 8149TIP3   OH245937   2.651   6.467  14.850 -0.3268  0.0027 -0.2467
 8149TIP3    H145938   2.691   6.504  14.929  0.0929  0.3349 -0.6092
 8149TIP3    H245939   2.607   6.541  14.808  0.2394  0.0246 -0.8063
 8150TIP3   OH245940   0.719   4.526  15.372 -0.4453  0.1097  0.3833
 8150TIP3    H145941   0.789   4.461  15.370 -1.2616 -0.7681  0.0735
 8150TIP3    H245942   0.765   4.610  15.360  0.5263 -0.4672 -0.0631
 8151TIP3   OH245943   6.535   5.747  16.803 -0.1561  0.1992  0.3424
 8151TIP3    H145944   6.452   5.781  16.837  0.0531  1.3163 -0.2157
 8151TIP3    H245945   6.534   5.654  16.827 -1.0540  0.4366  1.3274
 8152TIP3   OH245946   3.368   4.624   5.501 -0.2216  0.1141  0.0319
 8152TIP3    H145947   3.289   4.645   5.451 -1.3061 -0.6643  1.3369
 8152TIP3    H245948   3.361   4.531   5.520  0.2598  0.3299  1.3932
 8153TIP3   OH245949   2.738   0.602   2.549 -0.2950 -0.0840 -0.0800
 8153TIP3    H145950   2.654   0.588   2.594  0.4213 -0.0741  1.2951
 8153TIP3    H245951   2.740   0.697   2.533 -1.3621 -0.2991 -1.8417
 8154TIP3   OH245952   3.676   2.341   3.262 -0.4409 -0.0872  0.6081
 8154TIP3    H145953   3.623   2.275   3.218 -0.2117  0.0945  0.0556
 8154TIP3    H245954   3.760   2.297   3.279  0.9809  1.0035 -2.7737
 8155TIP3   OH245955   4.882   6.811   2.818  0.4983 -0.4759 -0.1919
 8155TIP3    H145956   4.955   6.803   2.757  0.4680 -2.2195 -0.0737
 8155TIP3    H245957   4.899   6.743   2.884 -0.1478  0.4956  1.0092
 8156TIP3   OH245958   5.319   3.073  16.339 -0.1365  0.0030  0.1653
 8156TIP3    H145959   5.278   3.020  16.271  0.6557  0.8743 -1.0426
 8156TIP3    H245960   5.320   3.017  16.416  0.4568 -1.6745 -0.9913
 8157TIP3   OH245961   4.895   2.537  11.259 -0.4589  0.4131 -0.1430
 8157TIP3    H145962   4.852   2.462  11.218 -0.8546  0.1350  0.7517
 8157TIP3    H245963   4.932   2.587  11.186  0.1548 -0.8580 -0.7340
 8158TIP3   OH245964   0.283   6.654   4.284  0.4394 -0.3139 -0.5103
 8158TIP3    H145965   0.244   6.593   4.347 -2.4003  2.8968  1.1942
 8158TIP3    H245966   0.345   6.705   4.335 -0.0807  0.7205 -0.8838
 8159TIP3   OH245967   3.660   0.661   4.039 -0.2452 -0.2482  0.5103
 8159TIP3    H145968   3.712   0.587   4.070  0.2217 -0.0228  0.2797
 8159TIP3    H245969   3.577   0.654   4.086  0.8266  0.7162  2.7257
 8160TIP3   OH245970   1.395   4.660   4.218  0.1170 -0.5935 -0.2140
 8160TIP3    H145971   1.483   4.682   4.249  0.1539 -0.6824 -0.2561
 8160TIP3    H245972   1.394   4.565   4.215  0.0868 -0.5860 -0.4162
 8161TIP3   OH245973   2.484   2.926   5.227 -0.0511  0.0684  0.2034
 8161TIP3    H145974   2.540   2.894   5.298 -1.4025 -1.4172  0.6694
 8161TIP3    H245975   2.476   2.851   5.168 -0.4129  0.7147 -0.5880
 8162TIP3   OH245976   4.498   5.899   5.438  0.6048 -0.2854  0.6551
 8162TIP3    H145977   4.464   5.924   5.524 -0.7146 -1.0390  0.3708
 8162TIP3    H245978   4.588   5.932   5.438 -0.0228  1.5820  1.5002
 8163TIP3   OH245979   1.708   6.312  11.640 -0.7547 -0.4937 -0.1021
 8163TIP3    H145980   1.682   6.273  11.724  0.3512 -1.9610 -0.4109
 8163TIP3    H245981   1.655   6.267  11.575 -1.1898  0.2374 -0.2725
 8164TIP3   OH245982   5.495   5.135   5.459 -0.0872 -0.5760  0.0579
 8164TIP3    H145983   5.498   5.129   5.555  0.4637  0.4591  0.1120
 8164TIP3    H245984   5.502   5.228   5.441  0.4931 -0.8251 -1.0226
 8165TIP3   OH245985   2.576   2.769   1.017  0.1083  0.0612  0.2404
 8165TIP3    H145986   2.510   2.820   0.969  0.8092  0.4574 -0.3262
 8165TIP3    H245987   2.627   2.835   1.064  0.4981 -0.1851  0.1657
 8166TIP3   OH245988   5.799   1.626  11.888  0.3587 -0.2273  0.5557
 8166TIP3    H145989   5.765   1.566  11.955 -0.1271 -0.1700  0.3618
 8166TIP3    H245990   5.738   1.616  11.815 -0.4132  1.3658  0.9407
 8167TIP3   OH245991   4.778   6.225   0.465 -0.4929  0.0339 -0.4720
 8167TIP3    H145992   4.805   6.165   0.534  0.7143 -0.3075 -1.2227
 8167TIP3    H245993   4.682   6.216   0.462 -0.9677  2.0599  2.9780
 8168TIP3   OH245994   3.775   1.727   2.775 -0.6316  0.0878 -0.0444
 8168TIP3    H145995   3.734   1.775   2.703  2.3598  0.6826 -1.5300
 8168TIP3    H245996   3.702   1.690   2.825 -2.8911  1.6231 -2.0163
 8169TIP3   OH245997   3.138   4.236   4.679  0.7235  0.2528  0.6319
 8169TIP3    H145998   3.177   4.191   4.754  1.4133  0.4061  0.3743
 8169TIP3    H245999   3.205   4.299   4.651  1.3227 -1.1737 -1.3546
 8170TIP3   OH246000   3.743   3.399  11.237  0.7862  0.3720 -0.5579
 8170TIP3    H146001   3.686   3.475  11.227 -1.1251 -0.5729  2.1129
 8170TIP3    H246002   3.685   3.324  11.225  1.8137 -0.6291  0.4561
 8171TIP3   OH246003   4.534   3.828  16.806  0.1169 -0.2637  0.2287
 8171TIP3    H146004   4.446   3.792  16.794  0.3331 -0.5937 -0.4562
 8171TIP3    H246005   4.520   3.918  16.836 -0.4831  0.1093 -1.1067
 8172TIP3   OH246006   0.117   4.788  12.299 -0.1571 -0.0353  0.1732
 8172TIP3    H146007   0.086   4.739  12.223 -2.0262  1.1828  0.1016
 8172TIP3    H246008   0.181   4.850  12.264  2.3964 -2.3889  0.2903
 8173TIP3   OH246009   5.599   0.273  17.064  0.5800  0.4411  0.1542
 8173TIP3    H146010   5.630   0.295  16.976  0.3093  0.3224  0.0295
 8173TIP3    H246011   5.547   0.348  17.092 -1.7308 -0.6659 -0.9265
 8174TIP3   OH246012   0.843   3.776   5.270  0.3695  0.1010 -0.8197
 8174TIP3    H146013   0.763   3.758   5.220 -0.2249  0.4428 -0.0047
 8174TIP3    H246014   0.830   3.864   5.306  0.7918 -0.1403 -0.0649
 8175TIP3   OH246015   4.465   5.083  11.877  0.1335 -0.1776 -0.8545
 8175TIP3    H146016   4.403   5.013  11.857 -1.6295  0.7555  0.9607
 8175TIP3    H246017   4.417   5.141  11.935  1.7147  2.2726 -1.8375
 8176TIP3   OH246018   3.762   1.556   0.887 -0.4996  0.6404 -0.0022
 8176TIP3    H146019   3.684   1.519   0.845  0.9325  0.5950 -2.8114
 8176TIP3    H246020   3.756   1.650   0.871 -0.5831  0.8128  0.9468
 8177TIP3   OH246021   4.863   0.453  13.781 -0.5665 -0.3097 -0.4568
 8177TIP3    H146022   4.821   0.419  13.859 -1.9295 -1.9342 -1.8118
 8177TIP3    H246023   4.810   0.419  13.708  0.8873  0.7593 -2.1116
 8178TIP3   OH246024   0.113   2.489   2.771 -0.1637  0.5679  0.6000
 8178TIP3    H146025   0.067   2.556   2.822 -1.2713 -0.0684  0.4792
 8178TIP3    H246026   0.104   2.518   2.680  0.0852  0.6781  0.6092
 8179TIP3   OH246027   4.552   6.095   3.727  0.5888  0.2100 -0.8272
 8179TIP3    H146028   4.504   6.023   3.768 -0.5781  1.0961 -0.5711
 8179TIP3    H246029   4.594   6.141   3.799  0.5162  0.3552 -0.8759
 8180TIP3   OH246030   4.380   2.389  11.859 -0.1931  0.2828 -0.0761
 8180TIP3    H146031   4.331   2.394  11.776  0.2803 -1.1456 -0.4798
 8180TIP3    H246032   4.470   2.409  11.835 -0.0675 -0.0602  0.1012
 8181TIP3   OH246033   0.453   3.696  16.206  0.3815  0.0483 -0.0987
 8181TIP3    H146034   0.522   3.740  16.156  0.5276  0.2187  0.2479
 8181TIP3    H246035   0.401   3.650  16.140  0.5043  0.3621 -0.4181
 8182TIP3   OH246036   5.771   3.572  12.485  0.3868 -0.4903  0.4248
 8182TIP3    H146037   5.820   3.629  12.426  0.9802 -1.8140 -0.3868
 8182TIP3    H246038   5.681   3.574  12.452  0.3741  0.0644  0.4845
 8183TIP3   OH246039   1.010   6.517   5.925 -0.3466 -0.6152  0.0200
 8183TIP3    H146040   1.045   6.580   5.988 -0.9133 -0.3114  0.0361
 8183TIP3    H246041   1.001   6.567   5.844  0.5138 -1.0418 -0.3480
 8184TIP3   OH246042   0.439   5.397  15.299 -0.1862  0.0777  0.6013
 8184TIP3    H146043   0.526   5.410  15.261 -0.5224  0.4722 -0.0659
 8184TIP3    H246044   0.392   5.477  15.277 -0.4354  0.2737  1.7925
 8185TIP3   OH246045   0.450   2.693   2.017  0.4010 -0.0621  0.2099
 8185TIP3    H146046   0.451   2.598   2.007  2.0996  0.0894 -1.7530
 8185TIP3    H246047   0.540   2.720   1.999 -0.6136  2.1419 -2.3144
 8186TIP3   OH246048   6.742   5.671  11.407 -0.1279  0.1054  0.6233
 8186TIP3    H146049   6.812   5.736  11.395  1.1391 -1.4163 -0.6994
 8186TIP3    H246050   6.736   5.626  11.322 -1.0475 -1.4055  1.4481
 8187TIP3   OH246051   3.477   5.632   2.375 -0.0797  0.0357  0.1452
 8187TIP3    H146052   3.456   5.725   2.373 -1.5019 -0.2666 -0.5485
 8187TIP3    H246053   3.399   5.590   2.412 -0.3822 -1.0587 -1.5880
 8188TIP3   OH246054   0.050   3.776   1.582  0.1311  0.0093 -0.3342
 8188TIP3    H146055   0.141   3.806   1.589  0.6718 -1.7651  0.7881
 8188TIP3    H246056   0.045   3.738   1.494  0.5641 -0.1659 -0.2881
 8189TIP3   OH246057   5.000   4.423  12.076 -0.3968  0.1827  0.4072
 8189TIP3    H146058   4.922   4.378  12.043 -0.6046  0.8770 -0.0727
 8189TIP3    H246059   4.970   4.513  12.092  0.3063  0.4494  0.2328
 8190TIP3   OH246060   3.232   3.140  10.649 -0.0027 -0.3253 -0.6150
 8190TIP3    H146061   3.206   3.232  10.652  1.0014 -0.0432  1.9492
 8190TIP3    H246062   3.150   3.092  10.659 -0.4575  0.2631 -1.3295
 8191TIP3   OH246063   4.189   3.415   1.075  0.5607 -0.3414  0.8143
 8191TIP3    H146064   4.094   3.421   1.065  0.6627  0.1909  0.0115
 8191TIP3    H246065   4.208   3.322   1.073  0.3900 -0.4912 -3.1943
 8192TIP3   OH246066   5.829   3.434   2.276  0.1715  0.2901 -0.0178
 8192TIP3    H146067   5.799   3.364   2.217 -0.3516 -0.5294  1.1867
 8192TIP3    H246068   5.749   3.468   2.315  0.4495  1.4333 -0.4147
 8193TIP3   OH246069   0.598   5.192   2.402  0.4457 -0.1148 -0.1479
 8193TIP3    H146070   0.692   5.203   2.388 -0.1788  3.0196 -3.0702
 8193TIP3    H246071   0.565   5.159   2.318 -1.0679 -1.9145  1.0576
 8194TIP3   OH246072   4.778   4.293  15.330  0.1041  0.2053 -0.1280
 8194TIP3    H146073   4.765   4.220  15.391 -1.3991  0.4481 -0.1036
 8194TIP3    H246074   4.735   4.265  15.249 -0.9294  1.2183  0.0369
 8195TIP3   OH246075   5.157   5.297  14.895  0.3545 -0.4885 -0.4118
 8195TIP3    H146076   5.077   5.350  14.901  0.3894 -0.4783 -0.0521
 8195TIP3    H246077   5.204   5.316  14.976  1.1756  0.2317 -1.0388
 8196TIP3   OH246078   1.027   0.090  14.594 -0.0847  0.0007  0.0768
 8196TIP3    H146079   1.022  -0.003  14.619  0.4403  0.2100  1.0137
 8196TIP3    H246080   0.978   0.095  14.512 -1.8137 -0.7578  0.9942
 8197TIP3   OH246081   1.772   6.128   6.029  0.9015  0.4284 -0.3500
 8197TIP3    H146082   1.719   6.083   6.094  1.5902  2.0992  1.4691
 8197TIP3    H246083   1.824   6.059   5.988 -1.2131 -0.9704 -0.8356
 8198TIP3   OH246084   5.648   0.095  13.600 -0.5044 -0.0799  0.4304
 8198TIP3    H146085   5.722   0.136  13.644 -0.8000 -1.1527  2.0151
 8198TIP3    H246086   5.575   0.107  13.660 -1.4735  0.3359 -0.7907
 8199TIP3   OH246087   6.079   3.984  15.795 -0.2462  0.2196 -0.3604
 8199TIP3    H146088   6.056   3.934  15.717 -0.7124 -1.5653  0.8423
 8199TIP3    H246089   6.072   3.921  15.867  1.3737  1.4646  0.9888
 8200TIP3   OH246090   5.232   2.777  13.124  0.5111  0.1436 -0.4258
 8200TIP3    H146091   5.195   2.813  13.204 -1.1502 -1.0413 -0.5882
 8200TIP3    H246092   5.235   2.850  13.063 -2.5887  0.1875 -0.6979
 8201TIP3   OH246093   1.257   1.812  12.234 -0.3174 -0.1284 -0.2392
 8201TIP3    H146094   1.165   1.821  12.210 -0.2406 -1.1826 -1.0390
 8201TIP3    H246095   1.277   1.720  12.216  1.0428  0.2204 -0.6057
 8202TIP3   OH246096   0.174   2.233   4.039  0.0420  1.0366 -0.9867
 8202TIP3    H146097   0.200   2.252   4.129 -0.0320  1.2254 -1.0042
 8202TIP3    H246098   0.091   2.186   4.047  0.0897  0.9583 -0.9527
 8203TIP3   OH246099   1.418   5.658  12.912  0.5133  0.6966 -0.5597
 8203TIP3    H146100   1.460   5.735  12.950 -0.8737  1.3273 -0.2587
 8203TIP3    H246101   1.326   5.682  12.906 -0.1878 -1.4255  0.7868
 8204TIP3   OH246102   2.948   2.911   3.842  0.0471 -0.3825  0.2386
 8204TIP3    H146103   2.891   2.886   3.769 -0.9184  0.6672  0.6005
 8204TIP3    H246104   3.033   2.872   3.820 -0.7928 -2.0282 -0.2999
 8205TIP3   OH246105   1.602   2.890  10.679  0.0850 -0.5245 -0.2149
 8205TIP3    H146106   1.516   2.847  10.688 -0.6761  0.7559 -1.1144
 8205TIP3    H246107   1.621   2.887  10.586  2.0208 -2.5688  0.1589
 8206TIP3   OH246108   2.881   3.667   1.491 -0.9534 -0.2387  0.2613
 8206TIP3    H146109   2.944   3.716   1.438  0.4655 -0.7390  1.4155
 8206TIP3    H246110   2.808   3.728   1.503 -2.1281 -0.6649 -3.5430
 8207TIP3   OH246111   0.401   3.706  16.650 -0.1745 -0.0562  0.4944
 8207TIP3    H146112   0.473   3.648  16.674 -2.0670 -1.9103  2.0985
 8207TIP3    H246113   0.394   3.768  16.722 -0.2970 -0.0058  0.4417
 8208TIP3   OH246114   0.474   4.929  12.529 -0.5235 -0.3046 -1.2007
 8208TIP3    H146115   0.511   4.906  12.614  0.7907  3.4676 -0.5827
 8208TIP3    H246116   0.384   4.895  12.532 -0.4325 -0.5494  1.5642
 8209TIP3   OH246117   4.921   1.918   4.822 -0.0377 -0.4004 -0.0693
 8209TIP3    H146118   4.838   1.965   4.818 -1.0643 -2.0811  0.5702
 8209TIP3    H246119   4.916   1.867   4.903  1.1804 -1.3232 -0.5401
 8210TIP3   OH246120   0.395   1.669  11.407 -0.3783  0.3335 -0.0944
 8210TIP3    H146121   0.335   1.712  11.347 -0.6527 -1.8822 -1.5459
 8210TIP3    H246122   0.339   1.631  11.475 -0.4756 -0.3088 -0.5233
 8211TIP3   OH246123   3.499   6.205  11.813  0.1560 -0.1394  0.0355
 8211TIP3    H146124   3.560   6.199  11.739  0.4053  0.0185  0.2278
 8211TIP3    H246125   3.412   6.206  11.772  0.2884 -0.1824 -0.2497
 8212TIP3   OH246126   6.355   1.046   1.709  0.3494 -0.0287  0.2852
 8212TIP3    H146127   6.321   0.957   1.706 -0.4551  0.2652  0.3879
 8212TIP3    H246128   6.392   1.061   1.622  0.3838 -0.4271  0.2328
 8213TIP3   OH246129   1.507   3.946   0.823 -0.1040  0.0937 -0.4663
 8213TIP3    H146130   1.449   3.919   0.753  0.5819 -0.1731 -0.9441
 8213TIP3    H246131   1.553   3.866   0.848  0.1098  0.3123 -0.1416
 8214TIP3   OH246132   3.403   4.045  13.324 -0.3263  0.0831  0.1267
 8214TIP3    H146133   3.351   3.964  13.327 -0.1668 -0.0639 -0.8405
 8214TIP3    H246134   3.435   4.056  13.413 -2.6374  0.5912  0.9723
 8215TIP3   OH246135   5.820   3.032  17.094 -0.0046 -0.9809 -0.3799
 8215TIP3    H146136   5.731   3.063  17.107  0.4603  0.6077 -0.7143
 8215TIP3    H246137   5.810   2.946  17.053 -1.3665 -1.5854  1.1403
 8216TIP3   OH246138   2.069   2.253   4.741 -0.4189 -0.4252  0.0877
 8216TIP3    H146139   2.121   2.331   4.759  1.5569 -1.0808 -2.3009
 8216TIP3    H246140   2.110   2.184   4.793  0.1743 -0.6168 -0.6191
 8217TIP3   OH246141   0.619   4.518   5.318  0.3400 -0.1822 -0.6847
 8217TIP3    H146142   0.715   4.513   5.319  0.5102  1.9127 -1.2932
 8217TIP3    H246143   0.595   4.532   5.410  0.6323 -0.5368 -0.5529
 8218TIP3   OH246144   2.702   2.970  12.962 -0.0016  0.1634 -0.0192
 8218TIP3    H146145   2.614   2.966  12.998 -0.7673  0.2384 -1.7791
 8218TIP3    H246146   2.701   3.048  12.906  0.6337 -0.8110 -1.4162
 8219TIP3   OH246147   6.046   0.202   5.487 -0.2306  0.4881  0.6389
 8219TIP3    H146148   6.047   0.297   5.478  1.0333  0.7010  2.4845
 8219TIP3    H246149   5.990   0.185   5.563 -0.8285 -0.2949  0.0423
 8220TIP3   OH246150   3.629   1.248  17.194  0.1013 -0.9075  0.3668
 8220TIP3    H146151   3.619   1.341  17.173  0.2986 -1.5988 -3.5110
 8220TIP3    H246152   3.694   1.246  17.265  1.1649  1.8460 -0.4012
 8221TIP3   OH246153   1.001   1.533   0.277 -0.5537  0.6383  0.2776
 8221TIP3    H146154   1.026   1.534   0.369  0.8638 -0.6980 -0.0493
 8221TIP3    H246155   0.991   1.441   0.255  0.4605  0.8381 -1.2266
 8222TIP3   OH246156   4.233   4.615   2.477 -0.2173  0.2934 -0.7206
 8222TIP3    H146157   4.209   4.684   2.415  0.0191  0.5852 -0.4924
 8222TIP3    H246158   4.314   4.646   2.518 -0.5176  0.2439 -0.0657
 8223TIP3   OH246159   1.035   0.694  12.542 -0.3412 -0.2993 -0.2216
 8223TIP3    H146160   1.080   0.610  12.544 -0.4861 -0.3724  0.6365
 8223TIP3    H246161   0.991   0.697  12.457  0.6001 -0.5797 -0.7284
 8224TIP3   OH246162   5.988   1.600   3.494  0.3477  0.3996 -0.5740
 8224TIP3    H146163   5.968   1.585   3.587  2.0863  0.7719 -0.1035
 8224TIP3    H246164   5.940   1.680   3.472 -0.8682 -0.2221 -0.2998
 8225TIP3   OH246165   0.411   2.003  13.479  0.1881 -0.5827  0.0657
 8225TIP3    H146166   0.352   2.003  13.403  1.0812  0.6429 -0.6623
 8225TIP3    H246167   0.497   1.985  13.442  0.2799 -2.7430  1.1665
 8226TIP3   OH246168   5.022   4.430   1.087 -0.4709  0.3288 -0.3932
 8226TIP3    H146169   4.929   4.444   1.099 -1.1458 -3.0666 -0.5107
 8226TIP3    H246170   5.062   4.456   1.170 -1.7645  0.1706  0.2904
 8227TIP3   OH246171   4.700   5.696  14.512 -0.4570  0.1440  0.5052
 8227TIP3    H146172   4.627   5.674  14.455 -0.0597 -1.0877  0.4401
 8227TIP3    H246173   4.750   5.614  14.520 -0.0141  0.5243  1.8966
 8228TIP3   OH246174   5.533   5.570  12.996 -0.3405 -0.1425  0.7573
 8228TIP3    H146175   5.439   5.587  12.999 -0.6895 -1.7581  0.2691
 8228TIP3    H246176   5.572   5.634  13.055 -1.7596  0.4754  1.0472
 8229TIP3   OH246177   5.907   0.766  12.064 -0.3583 -0.4682  0.5972
 8229TIP3    H146178   5.835   0.739  12.008  0.9106 -2.1115 -0.3438
 8229TIP3    H246179   5.866   0.819  12.133 -2.8421 -3.4169  1.6081
 8230TIP3   OH246180   3.711   4.764   6.076 -0.6442 -0.1476  0.0106
 8230TIP3    H146181   3.661   4.846   6.081 -1.9421 -0.9458  0.9674
 8230TIP3    H246182   3.776   4.780   6.008 -1.1072  1.5436 -0.0992
 8231TIP3   OH246183   3.278   4.075  12.395  0.1227  0.0586 -0.5196
 8231TIP3    H146184   3.357   4.023  12.405 -0.6628 -0.8247  1.6983
 8231TIP3    H246185   3.245   4.051  12.308  1.1258 -1.2227 -0.5798
 8232TIP3   OH246186   2.534   0.549   2.214 -0.2154 -0.2288  0.1959
 8232TIP3    H146187   2.445   0.514   2.222 -0.8901  1.1679 -0.8526
 8232TIP3    H246188   2.523   0.644   2.227  1.1524 -0.0646  0.2340
 8233TIP3   OH246189   2.215   4.990   6.111  0.3501  0.5754  0.6329
 8233TIP3    H146190   2.157   4.920   6.080 -2.1982  2.1081  1.5868
 8233TIP3    H246191   2.231   5.043   6.033  1.7852 -0.6640  0.0405
 8234TIP3   OH246192   2.844   6.423   5.518 -0.1057 -0.0032 -0.0338
 8234TIP3    H146193   2.925   6.373   5.527  0.6924  1.0484 -1.0391
 8234TIP3    H246194   2.837   6.439   5.424 -1.2166  0.3626  0.1009
 8235TIP3   OH246195   1.320   3.726  12.147 -0.3582  0.7694 -0.0372
 8235TIP3    H146196   1.390   3.682  12.100 -0.8682 -0.5798  0.4115
 8235TIP3    H246197   1.280   3.785  12.083 -0.6899 -0.6172 -1.1450
 8236TIP3   OH246198   1.394   2.547  15.679 -0.3479 -0.0015  0.3733
 8236TIP3    H146199   1.455   2.580  15.745  1.3754 -0.4625 -0.9371
 8236TIP3    H246200   1.384   2.620  15.618 -0.2725 -0.3021  0.0050
 8237TIP3   OH246201   2.583   6.060  12.220  1.0569 -0.1848 -0.2110
 8237TIP3    H146202   2.630   6.083  12.301 -0.8400  3.5859  0.0182
 8237TIP3    H246203   2.636   6.098  12.150 -0.0091  1.4521 -0.1883
 8238TIP3   OH246204   4.264   5.715  12.145  0.7773 -0.3486  0.0328
 8238TIP3    H146205   4.200   5.653  12.110 -1.6441  1.7791  0.3941
 8238TIP3    H246206   4.328   5.660  12.190 -1.1953 -2.5864  0.3372
 8239TIP3   OH246207   6.414   5.794   2.901 -0.1181  0.2824 -0.0453
 8239TIP3    H146208   6.332   5.745   2.907 -1.2592  2.2335  1.1341
 8239TIP3    H246209   6.394   5.869   2.845  0.7289  0.9914  0.5695
 8240TIP3   OH246210   5.280   6.179   1.161 -0.0614 -0.3084  0.0439
 8240TIP3    H146211   5.191   6.197   1.191 -0.2130 -1.4545  0.3362
 8240TIP3    H246212   5.322   6.265   1.155 -1.8742  0.5356 -2.3812
 8241TIP3   OH246213   6.808   3.624   0.622 -0.1776 -0.1841  0.0950
 8241TIP3    H146214   6.780   3.649   0.534  0.5971  1.2507  0.2280
 8241TIP3    H246215   6.810   3.528   0.620  0.0409 -0.1808 -1.5099
 8242TIP3   OH246216   5.063   3.949  11.565  0.8007  0.1620  0.0210
 8242TIP3    H146217   5.058   4.023  11.505 -1.0237  0.5138  0.5626
 8242TIP3    H246218   5.147   3.961  11.610  0.6210  1.8092 -0.0300
 8243TIP3   OH246219   5.682   2.646  14.372  0.1279  0.0724  0.2142
 8243TIP3    H146220   5.610   2.652  14.434  0.9104  0.9082  1.0719
 8243TIP3    H246221   5.760   2.670  14.422  0.8622  0.2503 -0.9533
 8244TIP3   OH246222   6.218   0.641  14.425 -0.3358 -0.6214  0.1632
 8244TIP3    H146223   6.242   0.670  14.513 -1.0192 -2.7241  1.1313
 8244TIP3    H246224   6.133   0.683  14.409 -0.1383 -0.1057  0.4529
 8245TIP3   OH246225   0.752   6.369  11.204  0.3956 -0.0026 -0.2448
 8245TIP3    H146226   0.735   6.416  11.122  0.4819  1.0484  0.3268
 8245TIP3    H246227   0.837   6.401  11.233  0.7316 -0.9558 -0.1330
 8246TIP3   OH246228   4.616   0.570  11.738  0.3779 -0.0894 -0.2647
 8246TIP3    H146229   4.637   0.480  11.766  1.1520 -0.0890 -0.8085
 8246TIP3    H246230   4.699   0.616  11.743  0.0947  0.4566 -0.5394
 8247TIP3   OH246231   4.027   2.171   5.251 -0.2907  0.0527  0.3161
 8247TIP3    H146232   4.081   2.093   5.267 -0.1360 -0.1137 -0.9415
 8247TIP3    H246233   3.949   2.156   5.304 -0.7567 -1.5144 -0.7115
 8248TIP3   OH246234   2.908   0.473  11.851  0.0175  0.5906  0.4731
 8248TIP3    H146235   2.937   0.436  11.767  0.0042  0.1723  0.6519
 8248TIP3    H246236   2.988   0.482  11.902 -0.2462 -1.6867  1.4156
 8249TIP3   OH246237   4.728   6.626   1.855 -0.0168  0.1958 -0.0448
 8249TIP3    H146238   4.756   6.553   1.800 -0.1744  0.2456 -0.1932
 8249TIP3    H246239   4.798   6.691   1.844 -0.2891  0.4078 -0.5877
 8250TIP3   OH246240   4.731   5.549  12.712 -0.5273  0.2422 -0.0111
 8250TIP3    H146241   4.813   5.580  12.674 -1.0761  0.8001 -0.7793
 8250TIP3    H246242   4.724   5.596  12.795  0.9965 -1.4642  1.1497
 8251TIP3   OH246243   3.462   6.204  12.475  0.0794  0.1629 -0.3666
 8251TIP3    H146244   3.432   6.295  12.486  1.5860  0.6082  0.2629
 8251TIP3    H246245   3.557   6.210  12.474  0.1884 -1.2633 -1.8520
 8252TIP3   OH246246   4.296   3.917  11.314  0.2402 -0.4483  0.3228
 8252TIP3    H146247   4.300   4.012  11.300 -1.6779  0.1143  2.8655
 8252TIP3    H246248   4.383   3.894  11.348  0.6027  0.4497  0.0353
 8253TIP3   OH246249   6.197   0.618  12.352 -0.2705 -0.6380 -0.5909
 8253TIP3    H146250   6.115   0.598  12.306 -1.3241 -0.4818  1.1204
 8253TIP3    H246251   6.258   0.642  12.283 -1.9047  0.0588 -1.8673
 8254TIP3   OH246252   4.957   4.369   5.970 -0.3289 -0.2340 -0.0290
 8254TIP3    H146253   4.881   4.328   6.011 -0.0798 -0.0198  0.6475
 8254TIP3    H246254   4.978   4.444   6.026  1.0376 -0.9138  0.3928
 8255TIP3   OH246255   3.653   2.921   4.540  0.2286  0.1014 -0.0169
 8255TIP3    H146256   3.629   2.983   4.610 -1.2826 -1.1287  0.6223
 8255TIP3    H246257   3.621   2.962   4.460  0.7686  0.9132  0.1704
 8256TIP3   OH246258   3.153   6.724   1.893  0.0481  0.2815 -0.0038
 8256TIP3    H146259   3.246   6.715   1.916  0.0202  0.1633  0.0658
 8256TIP3    H246260   3.149   6.804   1.841  0.0441  0.7744  0.7519
 8257TIP3   OH246261   2.839   3.479  17.079  0.3202  0.0033  0.3383
 8257TIP3    H146262   2.845   3.386  17.100 -0.5993 -0.0978  0.1988
 8257TIP3    H246263   2.899   3.491  17.006  0.6934 -0.4090  0.5705
 8258TIP3   OH246264   0.237   5.328   3.688  0.5101 -0.3487  0.3638
 8258TIP3    H146265   0.149   5.356   3.662  0.2995 -1.3396 -0.0467
 8258TIP3    H246266   0.288   5.409   3.690 -0.6158  0.3878  1.5143
 8259TIP3   OH246267   0.131   5.840   4.552 -0.3937  0.1499  0.7228
 8259TIP3    H146268   0.045   5.832   4.512 -0.2303 -0.9207  0.5696
 8259TIP3    H246269   0.149   5.934   4.551 -1.4010  0.3500  0.4396
 8260TIP3   OH246270   2.909   2.400   3.519  0.4312 -0.5676 -0.4482
 8260TIP3    H146271   2.952   2.414   3.603  1.6196  0.1876 -1.1511
 8260TIP3    H246272   2.875   2.311   3.524  3.4844 -1.8349 -0.4209
 8261TIP3   OH246273   1.871   4.309   3.460 -0.0650 -0.1150  0.5877
 8261TIP3    H146274   1.846   4.243   3.395  0.2364  0.4962 -0.1575
 8261TIP3    H246275   1.963   4.288   3.481 -0.2996 -0.5941  1.1772
 8262TIP3   OH246276   2.850   0.512   3.077  0.4791  0.2131 -0.1892
 8262TIP3    H146277   2.813   0.566   3.007  0.0548 -0.7709 -0.7545
 8262TIP3    H246278   2.774   0.478   3.124  0.7751  1.4014  1.1971
 8263TIP3   OH246279   5.379   0.969  11.142 -0.5201  0.2555 -0.4596
 8263TIP3    H146280   5.353   0.952  11.051  0.4076 -1.1085 -0.5082
 8263TIP3    H246281   5.473   0.985  11.137  0.2006 -2.9544  0.5363
 8264TIP3   OH246282   3.343   1.543  10.680 -0.2709  0.9023 -0.0054
 8264TIP3    H146283   3.279   1.614  10.674 -1.5910 -0.3711 -2.6329
 8264TIP3    H246284   3.425   1.587  10.699 -1.0190  3.1865 -1.5553
 8265TIP3   OH246285   6.607   1.752   0.461 -0.0413 -0.2389  0.2300
 8265TIP3    H146286   6.626   1.672   0.509 -1.2516  0.2316  1.5816
 8265TIP3    H246287   6.644   1.822   0.514  0.1391  0.1732 -0.4252
 8266TIP3   OH246288   0.849   1.983   4.791  0.5439  0.0688 -0.2477
 8266TIP3    H146289   0.801   2.065   4.782  0.0033 -0.0066  1.4834
 8266TIP3    H246290   0.895   1.972   4.708  0.1052  1.7817 -0.7491
 8267TIP3   OH246291   6.707   5.829   5.301  0.1501 -0.0348 -0.7028
 8267TIP3    H146292   6.682   5.921   5.296  0.1617 -0.0298 -0.6673
 8267TIP3    H246293   6.646   5.784   5.241  2.7738  0.5209 -4.1400
 8268TIP3   OH246294   3.455   6.637  12.528 -0.3660 -0.2299 -0.2672
 8268TIP3    H146295   3.486   6.620  12.439 -1.5329 -2.8933 -0.2718
 8268TIP3    H246296   3.409   6.557  12.552 -0.1771  0.4557  2.7156
 8269TIP3   OH246297   4.896   0.480  15.355  0.6117  0.2815  0.3380
 8269TIP3    H146298   4.858   0.397  15.330 -0.9022  1.1119 -0.2294
 8269TIP3    H246299   4.914   0.525  15.272  1.6524  0.4422  0.6278
 8270TIP3   OH246300   1.143   5.654   0.138 -0.3719 -0.0350  0.3421
 8270TIP3    H146301   1.076   5.721   0.153 -2.2710 -2.0461  1.3946
 8270TIP3    H246302   1.160   5.619   0.225  1.6171 -0.0443 -0.0095
 8271TIP3   OH246303   2.637   6.775  11.886 -0.4741  0.0866 -0.2881
 8271TIP3    H146304   2.692   6.851  11.907  0.0346  0.2610 -2.1453
 8271TIP3    H246305   2.690   6.723  11.826 -1.3373 -1.0893 -0.0551
 8272TIP3   OH246306   5.782   3.017  13.047 -0.0873  0.4725  0.0862
 8272TIP3    H146307   5.806   3.109  13.043  0.9845  0.1589 -1.0465
 8272TIP3    H246308   5.809   2.981  12.963 -0.7214 -0.8321  0.4139
 8273TIP3   OH246309   3.474   1.216  15.982 -0.0893  0.2188  0.2299
 8273TIP3    H146310   3.528   1.284  15.944  0.9462 -0.1706  0.9417
 8273TIP3    H246311   3.434   1.257  16.059 -1.6091  0.7918 -0.8252
 8274TIP3   OH246312   2.083   2.512   0.996  0.2243  0.0756  0.0528
 8274TIP3    H146313   2.135   2.460   1.057  1.5886  0.8911 -0.3891
 8274TIP3    H246314   1.993   2.503   1.029  0.8397  0.0725  1.8791
 8275TIP3   OH246315   5.535   5.661   0.076  0.2852  0.5074 -0.1344
 8275TIP3    H146316   5.473   5.672   0.148  1.1579 -1.1005  0.9139
 8275TIP3    H246317   5.591   5.739   0.080  1.6685 -0.4951  2.3527
 8276TIP3   OH246318   6.002   4.338  13.301 -0.5313 -0.3873 -0.6985
 8276TIP3    H146319   5.939   4.399  13.262 -0.9461 -1.4110 -1.7009
 8276TIP3    H246320   6.081   4.390  13.314 -1.0964  0.5386 -0.8596
 8277TIP3   OH246321   1.073   5.431  12.893  0.5876 -0.0762 -0.0929
 8277TIP3    H146322   1.104   5.427  12.984  0.1992  1.4470  0.1469
 8277TIP3    H246323   1.020   5.511  12.890 -2.1521 -1.8180 -0.8440
 8278TIP3   OH246324   5.226   6.725  12.850 -0.0840 -0.5292  0.9169
 8278TIP3    H146325   5.284   6.784  12.802  2.5631 -1.9389  2.1664
 8278TIP3    H246326   5.152   6.781  12.875  0.2685  1.1695 -1.4205
 8279TIP3   OH246327   0.502   1.125   1.168  0.2775 -0.0337 -0.1482
 8279TIP3    H146328   0.526   1.153   1.256  3.6428  0.5263 -1.1120
 8279TIP3    H246329   0.483   1.031   1.176  1.6483 -0.2365  1.0081
 8280TIP3   OH246330   0.501   1.361  15.826 -0.3161 -0.1767  0.2095
 8280TIP3    H146331   0.452   1.285  15.795 -2.5141  1.4933 -0.7253
 8280TIP3    H246332   0.509   1.348  15.921  0.1616 -1.9519 -0.0453
 8281TIP3   OH246333   6.503   4.422   2.357  0.9896 -0.2421  0.2146
 8281TIP3    H146334   6.519   4.462   2.443  2.4473 -0.9610  0.3032
 8281TIP3    H246335   6.432   4.360   2.373  1.3518 -0.4829  0.9420
 8282TIP3   OH246336   0.429   2.016   0.007 -0.2944 -0.0608  0.1898
 8282TIP3    H146337   0.343   1.976  -0.005 -0.5782  1.0334 -1.9597
 8282TIP3    H246338   0.480   1.986  -0.069  0.4556  1.1404  0.1931
 8283TIP3   OH246339   4.686   5.362  12.179 -0.4948 -0.2996  0.0993
 8283TIP3    H146340   4.714   5.362  12.088 -2.3774 -2.6032 -0.6064
 8283TIP3    H246341   4.651   5.274  12.192 -2.7734  0.8125  2.2343
 8284TIP3   OH246342   3.095   5.750  10.587  0.0577  0.3889  0.7471
 8284TIP3    H146343   3.163   5.692  10.552 -2.7664 -1.4352 -2.3646
 8284TIP3    H246344   3.091   5.821  10.523 -0.8619  0.5324  0.9629
 8285TIP3   OH246345   0.465   2.512   3.541  0.6995 -0.3548 -0.4438
 8285TIP3    H146346   0.519   2.474   3.610  0.6476  1.2351  0.5315
 8285TIP3    H246347   0.514   2.589   3.513 -0.0099 -0.1409 -1.1064
 8286TIP3   OH246348   6.029   3.295   3.102  0.0435 -0.0886 -0.1719
 8286TIP3    H146349   5.967   3.322   3.170 -1.3288 -0.1545 -1.3534
 8286TIP3    H246350   6.100   3.254   3.150 -0.5670  0.4658  1.2734
 8287TIP3   OH246351   3.126   1.358  16.789 -0.2717  0.1728  0.2562
 8287TIP3    H146352   3.101   1.394  16.874  0.3829  1.8125 -0.2113
 8287TIP3    H246353   3.211   1.398  16.770  0.4061 -1.4727 -0.4241
 8288TIP3   OH246354   5.019   2.347   0.448 -0.5215 -0.1159 -0.6077
 8288TIP3    H146355   5.034   2.378   0.537 -3.1589 -2.6177  0.9156
 8288TIP3    H246356   5.045   2.255   0.450 -0.1349 -0.0986 -2.6171
 8289TIP3   OH246357   1.437   5.407  13.940  0.4400 -0.1360  0.2499
 8289TIP3    H146358   1.499   5.477  13.918  2.7920 -2.0137  0.5369
 8289TIP3    H246359   1.432   5.353  13.862  0.3939 -0.8862  0.7578
 8290TIP3   OH246360   1.027   3.169  13.262 -0.2643  0.6941  0.1331
 8290TIP3    H146361   1.095   3.118  13.218 -1.4412 -0.4899 -0.3687
 8290TIP3    H246362   0.967   3.104  13.297 -0.6481  1.6908  1.4112
 8291TIP3   OH246363   6.515   6.582  12.854 -0.2470  0.1202 -0.2513
 8291TIP3    H146364   6.472   6.572  12.769 -0.1452 -0.3130 -0.2552
 8291TIP3    H246365   6.456   6.537  12.916 -0.4271  0.6167 -0.0591
 8292TIP3   OH246366   6.367   4.429  13.593  0.0709  0.1070  0.1029
 8292TIP3    H146367   6.424   4.492  13.638 -0.1614 -0.9631  1.9885
 8292TIP3    H246368   6.427   4.373  13.544  0.3857  0.8302 -0.3656
 8293TIP3   OH246369   1.034   5.166   3.531 -0.4077 -0.0325 -0.2166
 8293TIP3    H146370   1.000   5.212   3.607 -0.7307  0.2133 -0.5051
 8293TIP3    H246371   1.020   5.226   3.458 -2.0284 -1.0909 -0.8153
 8294TIP3   OH246372   2.247   6.614  14.615 -0.1253 -0.2218 -0.1575
 8294TIP3    H146373   2.202   6.544  14.663 -2.1846  1.4254  0.4685
 8294TIP3    H246374   2.188   6.637  14.544 -0.2238  1.8731  0.5465
 8295TIP3   OH246375   6.246   4.200  12.457 -0.2667  0.4004 -0.6063
 8295TIP3    H146376   6.310   4.187  12.386 -1.2775 -2.4088 -1.1518
 8295TIP3    H246377   6.171   4.240  12.414 -0.3583 -0.0333 -0.8637
 8296TIP3   OH246378   0.831   1.806   5.805 -0.7905  0.9572  0.4899
 8296TIP3    H146379   0.748   1.820   5.760 -0.0222  1.1976 -0.9170
 8296TIP3    H246380   0.826   1.861   5.883 -1.7394  1.3564  0.1617
 8297TIP3   OH246381   2.672   4.588  14.098  0.1886  0.2173 -0.4152
 8297TIP3    H146382   2.706   4.500  14.083 -0.1426  0.1592 -0.8383
 8297TIP3    H246383   2.731   4.645  14.050 -1.5958 -0.0659 -3.1461
 8298TIP3   OH246384   3.141   6.056  11.184 -0.5029 -0.7069  0.4809
 8298TIP3    H146385   3.152   6.026  11.274 -0.0189 -0.1595  0.6115
 8298TIP3    H246386   3.231   6.062  11.149 -0.5870  0.3616  0.3998
 8299TIP3   OH246387   0.080   4.255  16.685  0.0670  0.0017 -0.4838
 8299TIP3    H146388   0.114   4.342  16.664  0.3487  0.2246  0.8448
 8299TIP3    H246389   0.135   4.194  16.636  0.0591  0.5491 -1.1796
 8300TIP3   OH246390   0.557   4.834  14.643 -0.0962 -1.2480 -1.0266
 8300TIP3    H146391   0.555   4.811  14.736 -0.6997 -1.6650 -1.1372
 8300TIP3    H246392   0.468   4.864  14.624  0.2272 -0.4001 -1.2893
 8301TIP3   OH246393   3.499   2.929  13.556 -0.0870  0.4808 -0.1598
 8301TIP3    H146394   3.435   2.893  13.495  1.2138 -0.0129 -1.2797
 8301TIP3    H246395   3.470   2.898  13.642 -0.9324 -0.3565 -0.7268
 8302TIP3   OH246396   3.608   5.882   1.625  0.1021  0.3168 -0.2704
 8302TIP3    H146397   3.668   5.957   1.622 -0.4167  0.7145 -1.1381
 8302TIP3    H246398   3.579   5.872   1.534 -1.9649  0.8041  0.3020
 8303TIP3   OH246399   1.622   6.369  14.814  0.0314 -0.1565 -0.3539
 8303TIP3    H146400   1.580   6.299  14.863  0.2018 -2.5511 -3.3379
 8303TIP3    H246401   1.715   6.360  14.836  0.0499 -0.8620 -0.7019
 8304TIP3   OH246402   6.634   3.215   1.762  0.7276  0.6447 -0.3742
 8304TIP3    H146403   6.696   3.150   1.793  1.4599  1.5437  0.0883
 8304TIP3    H246404   6.586   3.242   1.840 -0.6958 -0.4863 -0.8228
 8305TIP3   OH246405   2.441   2.517  12.352 -0.4002  0.1828  0.0095
 8305TIP3    H146406   2.441   2.450  12.420 -0.1419 -0.4670 -0.6277
 8305TIP3    H246407   2.533   2.525  12.326 -0.6748 -0.5522 -1.2176
 8306TIP3   OH246408   5.232   6.777  14.916 -0.2272 -0.3966  0.6109
 8306TIP3    H146409   5.259   6.860  14.955  0.9037  0.7987 -2.4498
 8306TIP3    H246410   5.154   6.798  14.866  1.3364 -0.5451 -2.0606
 8307TIP3   OH246411   0.104   2.423   1.858 -0.0390  0.1513 -0.3668
 8307TIP3    H146412   0.153   2.375   1.925  2.4840  1.6357 -1.0239
 8307TIP3    H246413   0.117   2.373   1.778 -1.4243 -0.5697 -0.1709
 8308TIP3   OH246414   3.388   0.978  11.254 -0.1289  0.2048 -0.2918
 8308TIP3    H146415   3.417   0.949  11.168  0.1282 -0.7310  0.1016
 8308TIP3    H246416   3.466   0.974  11.309 -0.6194 -0.6998  0.3631
 8309TIP3   OH246417   6.515   0.051  16.645  0.2742  0.4757 -0.1349
 8309TIP3    H146418   6.469   0.023  16.725  0.5119 -0.0918 -0.1940
 8309TIP3    H246419   6.450   0.103  16.597  0.5708  2.1028  1.1197
 8310TIP3   OH246420   3.506   5.202  12.008 -0.0524  0.1125 -0.4458
 8310TIP3    H146421   3.496   5.165  12.096  1.0565 -1.0886 -0.7913
 8310TIP3    H246422   3.450   5.147  11.953  1.0949 -0.6820 -0.8561
 8311TIP3   OH246423   4.706   3.913  10.089  0.1686 -0.5528 -0.1782
 8311TIP3    H146424   4.785   3.879  10.131 -0.4304 -1.1599  0.4783
 8311TIP3    H246425   4.664   3.835  10.052 -0.7608 -0.4049  0.5527
 8312TIP3   OH246426   4.161   4.032   3.949  0.6226 -0.1468 -0.6736
 8312TIP3    H146427   4.152   4.065   4.039  1.1856  1.3513 -1.1312
 8312TIP3    H246428   4.239   3.976   3.952 -0.7109 -2.0643  0.2587
 8313TIP3   OH246429   1.062   3.270  14.651  0.2532  0.0197  0.1278
 8313TIP3    H146430   1.139   3.327  14.658 -1.1743  2.1136 -0.5591
 8313TIP3    H246431   1.051   3.256  14.557  0.2665 -0.9802  0.2659
 8314TIP3   OH246432   5.371   4.280  12.456 -0.2959  0.0636 -0.2039
 8314TIP3    H146433   5.400   4.367  12.426 -0.7727  0.2345 -0.1719
 8314TIP3    H246434   5.297   4.299  12.513  1.2700 -0.1343  2.0626
 8315TIP3   OH246435   5.219   1.581   3.220 -0.4535  0.5936  0.5693
 8315TIP3    H146436   5.216   1.559   3.313  0.4828  0.5595  0.6025
 8315TIP3    H246437   5.129   1.606   3.198 -0.4856  1.5939  1.7311
 8316TIP3   OH246438   4.593   1.719   1.085  0.0894  1.2597  0.4263
 8316TIP3    H146439   4.518   1.707   1.026 -0.3731 -0.6283  1.3270
 8316TIP3    H246440   4.623   1.809   1.067 -1.9181  1.8128 -0.4870
 8317TIP3   OH246441   4.326   1.171  14.924  0.4047  0.1156  0.9362
 8317TIP3    H146442   4.232   1.158  14.908  0.7975 -1.4093 -0.3536
 8317TIP3    H246443   4.339   1.265  14.913 -0.9033  0.2896  0.6704
 8318TIP3   OH246444   5.351   2.031   5.826  0.6848 -0.2463 -0.1388
 8318TIP3    H146445   5.278   1.971   5.809  0.2654 -0.0851  0.9986
 8318TIP3    H246446   5.380   2.009   5.914 -0.2580  1.9812  0.7980
 8319TIP3   OH246447   4.160   3.518   4.643 -0.6125  0.1876  0.5077
 8319TIP3    H146448   4.119   3.445   4.598 -0.9216  0.7663 -0.1714
 8319TIP3    H246449   4.185   3.578   4.573  0.8040  0.1518  0.9621
 8320TIP3   OH246450   5.066   0.513   0.622 -1.0025 -0.3213 -0.1019
 8320TIP3    H146451   5.079   0.419   0.627 -0.3628 -0.2696 -0.7158
 8320TIP3    H246452   5.015   0.534   0.701 -0.6233 -1.0821  0.3571
 8321TIP3   OH246453   6.521   6.406   3.656  0.8039 -0.6105  0.2071
 8321TIP3    H146454   6.519   6.343   3.584 -0.3263  0.9397 -1.1949
 8321TIP3    H246455   6.432   6.402   3.693  0.7314  0.1245  0.1235
 8322TIP3   OH246456   5.029   2.173  13.938  0.2460 -0.1942 -0.0657
 8322TIP3    H146457   4.944   2.196  13.975 -0.1439  0.6558 -1.4200
 8322TIP3    H246458   5.013   2.165  13.844  1.9568  1.5790 -0.5781
 8323TIP3   OH246459   2.359   4.683  16.700 -0.1045  0.2763 -0.3083
 8323TIP3    H146460   2.424   4.746  16.733 -1.2643  1.5543 -0.3646
 8323TIP3    H246461   2.362   4.611  16.762 -0.6078  1.5918  1.3065
 8324TIP3   OH246462   2.472   6.331   2.401  0.2859  0.1041 -0.1353
 8324TIP3    H146463   2.464   6.416   2.444  1.5296 -0.7187  1.9007
 8324TIP3    H246464   2.420   6.272   2.456 -0.9261 -0.4224 -1.7656
 8325TIP3   OH246465   3.851   5.882  16.419 -0.4311 -0.0541  0.3108
 8325TIP3    H146466   3.777   5.843  16.374 -0.1709  0.7230 -0.8406
 8325TIP3    H246467   3.918   5.893  16.351  0.6053 -0.3936  1.2420
 8326TIP3   OH246468   0.600   0.429   2.086  0.0926  0.0127 -0.3744
 8326TIP3    H146469   0.537   0.371   2.130  0.6195  0.3460  0.8435
 8326TIP3    H246470   0.622   0.495   2.152 -0.3790  1.5364 -1.6792
 8327TIP3   OH246471   2.164   1.521   0.571  0.3773 -0.9088  0.2840
 8327TIP3    H146472   2.174   1.427   0.584  2.1699 -0.5807  1.7736
 8327TIP3    H246473   2.210   1.540   0.489 -2.9210 -1.7155 -1.9282
 8328TIP3   OH246474   1.176   3.120   5.174  0.1807  0.7931  0.1453
 8328TIP3    H146475   1.110   3.187   5.158 -0.3945  0.3535  0.6187
 8328TIP3    H246476   1.126   3.044   5.203  1.0201  0.9642  2.1678
 8329TIP3   OH246477   1.470   3.395   5.346  0.1052  0.4205  0.4974
 8329TIP3    H146478   1.459   3.490   5.344 -0.5474  0.3377 -0.4653
 8329TIP3    H246479   1.564   3.382   5.358  0.5283  1.2153 -1.6058
 8330TIP3   OH246480   0.396   3.485  10.535  0.1989 -0.2243  0.5252
 8330TIP3    H146481   0.340   3.439  10.598 -1.1845  1.1894  0.4006
 8330TIP3    H246482   0.362   3.458  10.449  0.9895 -0.8414  0.3919
 8331TIP3   OH246483   0.104   0.724   2.130  0.2614  0.8596  0.1931
 8331TIP3    H146484   0.106   0.737   2.224  1.8871 -0.1625  0.3440
 8331TIP3    H246485   0.032   0.778   2.099  0.6996  2.4517  1.8268
 8332TIP3   OH246486   0.256   5.108   0.898  0.2097  0.3541 -0.7656
 8332TIP3    H146487   0.308   5.104   0.818  0.2581  2.7874 -0.9115
 8332TIP3    H246488   0.167   5.088   0.870  0.2898  0.8273 -1.3709
 8333TIP3   OH246489   1.845   2.804  14.902 -0.1837 -0.1601 -0.0660
 8333TIP3    H146490   1.770   2.773  14.852  1.1962  1.0710 -3.1416
 8333TIP3    H246491   1.855   2.895  14.876  0.6800  0.5763  2.5407
 8334TIP3   OH246492   2.222   6.216  14.159  0.5366 -0.0637  0.0588
 8334TIP3    H146493   2.217   6.197  14.065 -1.3718 -2.9769  0.6317
 8334TIP3    H246494   2.272   6.144  14.196  1.6471  1.2766  1.3038
 8335TIP3   OH246495   0.392   3.979   4.006  0.3483  0.3921 -0.6601
 8335TIP3    H146496   0.340   3.900   4.022  1.1092  0.1364  0.7256
 8335TIP3    H246497   0.468   3.948   3.956 -0.9731  0.8405 -3.1007
 8336TIP3   OH246498   1.599   5.556  10.522  0.5047  0.5362 -0.4073
 8336TIP3    H146499   1.637   5.500  10.455  2.0041 -1.0719  1.6412
 8336TIP3    H246500   1.667   5.620  10.541  0.8915 -0.2162  0.8691
 8337TIP3   OH246501   0.587   1.934  16.094 -0.6083 -0.9237 -0.0584
 8337TIP3    H146502   0.661   1.902  16.146 -0.8895 -0.5977  0.5592
 8337TIP3    H246503   0.625   1.999  16.035 -0.5918  0.2418  1.1860
 8338TIP3   OH246504   5.524   6.480  13.088  0.1619  0.4600 -0.2123
 8338TIP3    H146505   5.504   6.398  13.133 -2.8999  1.0871 -0.1966
 8338TIP3    H246506   5.457   6.487  13.019  2.4759  1.3115 -2.5300
 8339TIP3   OH246507   0.497   5.791  13.763  0.2414 -0.1977 -0.6596
 8339TIP3    H146508   0.546   5.873  13.752 -0.6640  0.1161 -2.7876
 8339TIP3    H246509   0.409   5.819  13.791 -0.0162 -0.4580 -1.2014
 8340TIP3   OH246510   0.400   6.704   5.094 -0.4772 -0.4654 -0.2837
 8340TIP3    H146511   0.345   6.780   5.111 -1.2852 -1.0733 -0.0960
 8340TIP3    H246512   0.406   6.659   5.178  2.4040  0.8768  0.3387
 8341TIP3   OH246513   2.396   2.441   3.170 -0.0441  0.6658  0.5746
 8341TIP3    H146514   2.372   2.370   3.230  1.5224 -1.5244 -1.1994
 8341TIP3    H246515   2.460   2.492   3.218  1.9510 -1.6390  0.5637
 8342TIP3   OH246516   1.310   6.455   6.076  0.4743  0.5216 -0.3518
 8342TIP3    H146517   1.270   6.505   6.147  0.1813 -0.6794  0.3539
 8342TIP3    H246518   1.266   6.370   6.078  1.7878 -0.1959 -0.7359
 8343TIP3   OH246519   3.310   1.656  12.298  0.2662 -0.5838 -0.4412
 8343TIP3    H146520   3.246   1.694  12.237  0.3767 -0.7029 -0.6302
 8343TIP3    H246521   3.394   1.666  12.254  0.6148  1.0465  0.4853
 8344TIP3   OH246522   2.332   5.974  12.585  0.1484  0.3190  0.1530
 8344TIP3    H146523   2.404   5.913  12.572  1.1792  1.6430 -0.6713
 8344TIP3    H246524   2.314   5.971  12.679  0.7269 -0.6226  0.2417
 8345TIP3   OH246525   2.536   4.147   5.134 -0.1533 -0.2827 -0.2049
 8345TIP3    H146526   2.605   4.194   5.087 -0.6695 -1.4340 -2.2476
 8345TIP3    H246527   2.582   4.078   5.182  0.4775  1.4549  1.8351
 8346TIP3   OH246528   3.947   1.099   2.672 -0.2948  0.0138 -0.1454
 8346TIP3    H146529   3.873   1.050   2.637  0.4456 -1.1882 -0.0823
 8346TIP3    H246530   3.910   1.150   2.745 -0.8024 -1.7695  0.9141
 8347TIP3   OH246531   4.798   2.836  15.342  0.7897 -0.4031 -0.1683
 8347TIP3    H146532   4.841   2.862  15.260  0.0940  0.4640 -0.2770
 8347TIP3    H246533   4.719   2.789  15.314  0.6458 -0.2639  0.0030
 8348TIP3   OH246534   1.250   3.334  15.152 -0.1957  0.2925  0.0531
 8348TIP3    H146535   1.253   3.295  15.239  1.1960  1.6955  0.6724
 8348TIP3    H246536   1.329   3.302  15.109 -1.0896 -0.7447 -0.8901
 8349TIP3   OH246537   2.488   1.293   5.441  0.4197 -0.3525 -0.6512
 8349TIP3    H146538   2.502   1.357   5.511 -0.2905 -0.2762 -0.5682
 8349TIP3    H246539   2.517   1.210   5.479 -0.3021 -0.3732 -0.1250
 8350TIP3   OH246540   5.124   0.063  13.265  1.2616  0.1500  1.0290
 8350TIP3    H146541   5.085   0.059  13.353  0.2237  0.0569  0.5791
 8350TIP3    H246542   5.148  -0.028  13.245  0.5883  0.0076  0.8302
 8351TIP3   OH246543   4.661   6.443  16.302 -0.0296 -0.3855  1.0019
 8351TIP3    H146544   4.632   6.534  16.306 -0.0123 -0.2692 -0.7817
 8351TIP3    H246545   4.583   6.391  16.322 -0.6620 -0.0126 -0.4091
 8352TIP3   OH246546   3.055   6.637   1.024  0.4925  0.0278 -0.4261
 8352TIP3    H146547   2.964   6.638   1.053  0.5178  1.9936 -0.2744
 8352TIP3    H246548   3.054   6.690   0.944  0.9315 -2.8552 -2.4801
 8353TIP3   OH246549   3.972   4.307  11.315 -0.3501  0.0488 -0.2352
 8353TIP3    H146550   3.903   4.242  11.302 -1.0942  1.0325 -1.4306
 8353TIP3    H246551   3.970   4.326  11.408 -1.4769 -0.1711 -0.2032
 8354TIP3   OH246552   2.728   0.639  13.724  0.3674 -0.6051  0.2592
 8354TIP3    H146553   2.744   0.682  13.639  0.8983  0.3518  0.8259
 8354TIP3    H246554   2.810   0.593  13.742  0.0258 -1.3351 -0.0447
 8355TIP3   OH246555   6.737   4.774   4.178 -0.0955  0.7408 -0.2628
 8355TIP3    H146556   6.773   4.698   4.226 -0.7219  0.6102  0.0089
 8355TIP3    H246557   6.713   4.836   4.247  2.5684  2.2130 -0.5353
 8356TIP3   OH246558   1.067   6.724  12.399  0.3298  0.0168  0.3422
 8356TIP3    H146559   1.126   6.661  12.358  1.6318  0.6840  1.1023
 8356TIP3    H246560   1.053   6.690  12.487  0.7303  0.5632  0.6275
 8357TIP3   OH246561   1.695   5.678   3.052 -0.1508 -0.1860  0.3660
 8357TIP3    H146562   1.746   5.700   3.131 -0.1258  0.5254  0.1610
 8357TIP3    H246563   1.754   5.699   2.980 -0.6424  0.4379  0.1309
 8358TIP3   OH246564   4.206   4.072  13.574 -0.3164  0.4939 -0.4258
 8358TIP3    H146565   4.114   4.086  13.600  0.0159  1.8860  0.0931
 8358TIP3    H246566   4.240   4.013  13.642 -0.0403  2.3976  1.1817
 8359TIP3   OH246567   2.811   3.736  16.006  0.1958  0.1824  0.1143
 8359TIP3    H146568   2.853   3.803  15.952  1.5989  1.1162  2.2449
 8359TIP3    H246569   2.743   3.783  16.054  3.1618  1.0752  3.9874
 8360TIP3   OH246570   2.977   6.642   6.269  0.4588 -0.3766 -0.4803
 8360TIP3    H146571   2.999   6.720   6.320  2.5658 -1.1623 -0.0701
 8360TIP3    H246572   2.946   6.579   6.335 -1.0841  0.0228 -0.7899
 8361TIP3   OH246573   2.030   6.672   5.899  0.0135  0.8080  0.5426
 8361TIP3    H146574   2.050   6.683   5.806  0.4192 -2.0335  0.1862
 8361TIP3    H246575   2.111   6.695   5.944  1.0150 -1.1010 -0.1510
 8362TIP3   OH246576   2.125   0.717   3.710  0.5001  0.5503  0.3837
 8362TIP3    H146577   2.145   0.727   3.803 -2.4235  0.8863  1.0621
 8362TIP3    H246578   2.175   0.787   3.668  1.8644  0.3993  1.6748
 8363TIP3   OH246579   3.196   0.329   2.705  0.4369  0.9078 -0.4732
 8363TIP3    H146580   3.238   0.402   2.752  2.0783 -0.5206  0.3930
 8363TIP3    H246581   3.162   0.272   2.774 -0.1293  0.4495 -1.1158
 8364TIP3   OH246582   0.917   2.266  10.417  0.1000  0.7755  0.3872
 8364TIP3    H146583   0.866   2.304  10.489 -0.7977  0.6088 -0.1446
 8364TIP3    H246584   0.998   2.317  10.416  0.5778  0.1449  2.1397
 8365TIP3   OH246585   5.302   6.049  11.118  0.6484  0.8237  0.2116
 8365TIP3    H146586   5.352   6.001  11.052 -1.2326  0.3126 -0.9091
 8365TIP3    H246587   5.333   6.015  11.202  0.1585 -1.5964 -0.5210
 8366TIP3   OH246588   0.408   3.208  15.937 -0.4737  0.3987  0.5151
 8366TIP3    H146589   0.443   3.175  16.019  0.2910 -1.1002 -0.3684
 8366TIP3    H246590   0.456   3.290  15.921  1.1161 -0.5156  0.4003
 8367TIP3   OH246591   2.913   4.506  13.099 -0.2822 -0.0316  0.2309
 8367TIP3    H146592   2.936   4.435  13.159 -1.7088 -2.2602 -1.6975
 8367TIP3    H246593   2.985   4.509  13.036  0.3363  1.0745  0.9600
 8368TIP3   OH246594   2.884   4.384   4.626  0.1505 -0.0077  0.0837
 8368TIP3    H146595   2.903   4.478   4.630 -0.4875  0.0888  1.7749
 8368TIP3    H246596   2.950   4.344   4.682 -0.2991 -0.4348  0.3147
 8369TIP3   OH246597   0.336   0.231  17.212  0.4400 -0.4952 -0.8071
 8369TIP3    H146598   0.341   0.305  17.152  3.0469 -0.8335 -1.1188
 8369TIP3    H246599   0.347   0.153  17.157  0.1221 -0.9630 -0.2221
 8370TIP3   OH246600   0.405   3.787  13.420 -0.1526  0.6971 -0.0463
 8370TIP3    H146601   0.490   3.829  13.431  0.4488 -0.6018  0.5822
 8370TIP3    H246602   0.403   3.760  13.328 -0.5178  2.0072 -0.4326
 8371TIP3   OH246603   0.654   6.520  11.422  0.1836  0.4497 -0.2053
 8371TIP3    H146604   0.710   6.491  11.350  0.4764 -0.9200  0.5430
 8371TIP3    H246605   0.565   6.507  11.391  0.3124 -0.5418 -0.1650
 8372TIP3   OH246606   2.034   3.701  11.136 -1.0005  0.3230 -0.1179
 8372TIP3    H146607   2.005   3.783  11.177 -1.9862  0.1755 -0.4953
 8372TIP3    H246608   1.967   3.638  11.161 -0.6237 -0.2066 -0.4365
 8373TIP3   OH246609   4.205   0.693  13.219  0.1824 -0.2814 -0.3501
 8373TIP3    H146610   4.143   0.621  13.207 -0.6238  0.1815  0.8507
 8373TIP3    H246611   4.255   0.667  13.296 -1.5301  1.3517  1.4125
 8374TIP3   OH246612   5.630   0.028   5.077  0.2064 -0.6802 -0.2658
 8374TIP3    H146613   5.550  -0.011   5.043 -0.4927 -0.9199  1.5063
 8374TIP3    H246614   5.696  -0.040   5.064 -0.1312 -0.9290 -0.7161
 8375TIP3   OH246615   2.178   6.795  14.869  0.5812 -0.4198 -0.3273
 8375TIP3    H146616   2.255   6.847  14.895 -0.2842  1.1630 -0.7990
 8375TIP3    H246617   2.199   6.706  14.897  2.6539 -0.0657 -0.5761
 8376TIP3   OH246618   6.605   0.446  13.574  0.7083 -0.2524 -0.4086
 8376TIP3    H146619   6.584   0.531  13.535 -0.8121 -1.5820 -2.7226
 8376TIP3    H246620   6.615   0.464  13.667  0.4250  2.4402 -0.8317
 8377TIP3   OH246621   1.942   3.678  12.808 -0.2914  0.0334  0.2618
 8377TIP3    H146622   1.907   3.684  12.719  1.5629 -4.0255 -0.9565
 8377TIP3    H246623   1.889   3.610  12.850  0.2403  0.3856  1.5595
 8378TIP3   OH246624   4.152   1.160   3.604 -0.5706  0.2009 -0.0911
 8378TIP3    H146625   4.109   1.198   3.681 -0.6484 -0.3169  0.1320
 8378TIP3    H246626   4.243   1.188   3.611 -0.7276  0.7303 -0.1868
 8379TIP3   OH246627   3.282   3.770   5.197 -0.2659  0.1016  0.5272
 8379TIP3    H146628   3.196   3.735   5.173 -0.1452 -1.3756  2.0092
 8379TIP3    H246629   3.272   3.794   5.290  1.3173 -1.5857  1.1868
 8380TIP3   OH246630   4.662   1.617  14.026  0.4234  0.8574  0.4759
 8380TIP3    H146631   4.620   1.534  14.001  0.4409  0.6351  1.1855
 8380TIP3    H246632   4.647   1.674  13.950 -0.1351  0.4053  0.2344
 8381TIP3   OH246633   0.788   6.472   6.077  0.6887 -0.7734 -0.2509
 8381TIP3    H146634   0.851   6.520   6.024 -0.0443  0.3008 -0.1836
 8381TIP3    H246635   0.803   6.502   6.166  0.1156 -0.5329 -0.2294
 8382TIP3   OH246636   3.171   1.726   1.358 -0.0883  0.3965 -0.1996
 8382TIP3    H146637   3.153   1.645   1.310 -1.3045  0.7995 -0.4537
 8382TIP3    H246638   3.221   1.698   1.435 -2.7491 -1.0162  1.1608
 8383TIP3   OH246639   3.287   6.032   5.612  0.1569  0.2228  0.7096
 8383TIP3    H146640   3.275   6.114   5.659  0.6544 -0.1868  1.5808
 8383TIP3    H246641   3.260   6.051   5.522 -1.5498  0.8230  1.3112
 8384TIP3   OH246642   6.479   3.794  16.498 -0.2540  0.4082 -0.4448
 8384TIP3    H146643   6.558   3.818  16.545  0.7323 -3.1668 -0.0254
 8384TIP3    H246644   6.411   3.851  16.535  1.1413  0.1233  2.8383
 8385TIP3   OH246645   0.633   1.294   2.947 -0.6608  0.0824  0.0789
 8385TIP3    H146646   0.567   1.227   2.928  0.4650 -0.2972 -3.1031
 8385TIP3    H246647   0.640   1.345   2.866  1.2873  1.6042  1.1064
 8386TIP3   OH246648   6.639   3.712   5.407 -0.4027  0.0401  0.7059
 8386TIP3    H146649   6.596   3.797   5.406  1.9788  1.3038 -0.8118
 8386TIP3    H246650   6.730   3.730   5.387 -0.2263 -3.0704 -2.2385
 8387TIP3   OH246651   1.727   1.095  16.185  0.2763 -0.3915  0.0647
 8387TIP3    H146652   1.754   1.184  16.161  1.1915 -0.6740  0.0315
 8387TIP3    H246653   1.758   1.084  16.275  1.1234 -1.0547 -0.2976
 8388TIP3   OH246654   1.722   4.039   2.348 -0.0016  0.2489  0.2347
 8388TIP3    H146655   1.760   3.973   2.290  1.7244  0.8491  0.6219
 8388TIP3    H246656   1.741   4.008   2.436 -0.6698  0.4298  0.4480
 8389TIP3   OH246657   5.193   2.191  14.532 -0.1347  0.7234 -0.5213
 8389TIP3    H146658   5.123   2.237  14.484 -1.0850  0.3115  0.4329
 8389TIP3    H246659   5.160   2.185  14.621  0.3487 -1.0321 -0.4349
 8390TIP3   OH246660   5.905   2.985  11.967  0.3620  0.0770  0.1459
 8390TIP3    H146661   5.955   2.946  12.039  2.7938 -2.4253 -2.6353
 8390TIP3    H246662   5.835   2.923  11.950  0.2328  0.2878 -0.1068
 8391TIP3   OH246663   1.321   4.896   2.445 -0.1399 -0.2230 -0.0178
 8391TIP3    H146664   1.306   4.990   2.456 -1.5690 -0.3200 -0.9114
 8391TIP3    H246665   1.386   4.890   2.375 -0.6366  0.0865 -0.5121
 8392TIP3   OH246666   4.075   1.187   0.437 -0.4353 -0.1483  0.4653
 8392TIP3    H146667   4.144   1.121   0.429 -0.6055 -0.1930 -0.9557
 8392TIP3    H246668   3.994   1.136   0.438 -0.4995 -0.0395  1.0579
 8393TIP3   OH246669   1.660   3.085  10.212  0.1628 -0.3166 -0.4235
 8393TIP3    H146670   1.696   3.075  10.300  0.2271  1.6744 -0.1891
 8393TIP3    H246671   1.605   3.007  10.201  0.1945 -0.6493  1.3532
 8394TIP3   OH246672   4.936   1.347  10.632 -0.0208  0.3009  0.1346
 8394TIP3    H146673   4.943   1.438  10.661  1.0688 -0.3225  2.0406
 8394TIP3    H246674   4.891   1.351  10.547 -0.1034  2.5811  0.2419
 8395TIP3   OH246675   1.697   0.074   1.899 -0.8711  0.0329 -0.5180
 8395TIP3    H146676   1.602   0.067   1.912 -0.8887  0.3893 -0.4318
 8395TIP3    H246677   1.714   0.168   1.902 -0.4386 -0.0583 -0.0005
 8396TIP3   OH246678   5.792   0.744   5.769  0.0482  0.4810 -0.5753
 8396TIP3    H146679   5.708   0.750   5.724 -0.4536  2.7887  0.4999
 8396TIP3    H246680   5.783   0.803   5.844  2.5719  0.6921 -0.3492
 8397TIP3   OH246681   6.072   0.921   1.842  0.0969  0.5440  1.0217
 8397TIP3    H146682   5.983   0.929   1.875 -0.2432 -0.9073  0.5028
 8397TIP3    H246683   6.063   0.927   1.747  0.6500  1.0840  0.9943
 8398TIP3   OH246684   4.835   1.278  16.896 -0.6815 -0.3146 -0.1852
 8398TIP3    H146685   4.854   1.184  16.904 -0.2123 -0.2281 -0.2793
 8398TIP3    H246686   4.745   1.281  16.862 -1.8964 -0.7114  2.6931
 8399TIP3   OH246687   3.845   1.567  16.140 -0.0707 -0.4425 -0.3800
 8399TIP3    H146688   3.906   1.507  16.097 -2.1090 -2.8509 -0.1721
 8399TIP3    H246689   3.882   1.581  16.227  0.8853 -0.6921 -0.7341
 8400TIP3   OH246690   2.284   0.088   5.342  0.0260 -0.0506  0.3244
 8400TIP3    H146691   2.190   0.073   5.347 -0.1865  1.3718  0.7981
 8400TIP3    H246692   2.323   0.004   5.369 -1.0838 -0.5475  0.4262
 8401TIP3   OH246693   5.953   4.600  16.692  0.3110 -0.2025 -0.6523
 8401TIP3    H146694   5.937   4.684  16.736 -0.6426 -1.3884  1.3604
 8401TIP3    H246695   6.046   4.584  16.706 -0.1168 -0.9343  1.7491
 8402TIP3   OH246696   3.142   5.904  12.036 -0.3837 -0.1771 -0.0716
 8402TIP3    H146697   3.160   5.845  12.109  0.3870  0.4734  0.2709
 8402TIP3    H246698   3.046   5.904  12.029 -0.4536 -0.4386  0.7758
 8403TIP3   OH246699   0.348   0.442   2.659  0.2846  0.0593 -0.2585
 8403TIP3    H146700   0.360   0.460   2.752  1.9288 -0.8852 -0.2462
 8403TIP3    H246701   0.418   0.491   2.616  0.7469 -1.0351 -0.7958
 8404TIP3   OH246702   3.446   4.284  16.297 -0.6263 -0.2206 -0.2365
 8404TIP3    H146703   3.434   4.372  16.262  2.3775  0.5400  0.3650
 8404TIP3    H246704   3.422   4.291  16.389  1.0647  0.4655  0.2011
 8405TIP3   OH246705   0.929   1.443   3.788  0.2727  0.4400 -0.0326
 8405TIP3    H146706   0.966   1.522   3.828  1.7480  0.0844 -0.6635
 8405TIP3    H246707   0.843   1.472   3.755 -1.0039  0.7957  3.1788
 8406TIP3   OH246708   4.621   6.602  12.506  0.7846 -0.9807 -0.4412
 8406TIP3    H146709   4.592   6.528  12.453  1.7179 -2.6201  1.2226
 8406TIP3    H246710   4.602   6.576  12.596 -0.5237  1.6096  0.1190
 8407TIP3   OH246711   6.583   1.574  16.180  0.2441  0.3915  0.0736
 8407TIP3    H146712   6.644   1.548  16.111  1.2465 -1.2861  1.5003
 8407TIP3    H246713   6.515   1.625  16.135  1.7309  0.7925 -1.8461
 8408TIP3   OH246714   5.805   0.446   0.360  0.2684 -0.1610 -0.2037
 8408TIP3    H146715   5.872   0.465   0.295 -1.2794 -0.4643 -1.9592
 8408TIP3    H246716   5.819   0.511   0.429 -0.9105  3.3694 -3.0057
 8409TIP3   OH246717   3.559   3.766   3.333  0.0292 -0.0832  0.6231
 8409TIP3    H146718   3.484   3.816   3.364 -0.8754  0.8980 -2.7670
 8409TIP3    H246719   3.521   3.686   3.295  0.7030  0.1530 -0.6124
 8410TIP3   OH246720   1.992   5.364   3.116 -0.1436  0.5447  0.3665
 8410TIP3    H146721   1.942   5.327   3.043 -0.9590  1.9223  0.2070
 8410TIP3    H246722   1.926   5.397   3.177  0.4979 -0.8677  1.9441
 8411TIP3   OH246723   3.287   1.014  15.279 -0.2217 -0.0181  0.2665
 8411TIP3    H146724   3.292   0.923  15.248  0.6739  0.0377  0.2199
 8411TIP3    H246725   3.367   1.025  15.331  0.5898  1.2663 -1.1579
 8412TIP3   OH246726   0.074   0.061   4.081 -0.0603  0.0393  0.2173
 8412TIP3    H146727   0.055  -0.011   4.021 -0.1517  0.1069  0.1659
 8412TIP3    H246728   0.169   0.057   4.093 -0.1586 -0.6753  0.9474
 8413TIP3   OH246729   5.790   6.576   1.029 -0.0661 -0.1229 -0.0921
 8413TIP3    H146730   5.857   6.528   1.077  0.2583  0.0742 -0.3488
 8413TIP3    H246731   5.817   6.667   1.035 -1.0096  0.1154  0.9310
 8414TIP3   OH246732   1.193   2.438  15.463  0.0549 -0.1560 -0.5064
 8414TIP3    H146733   1.158   2.356  15.428 -1.6287  0.2146  0.2393
 8414TIP3    H246734   1.167   2.439  15.555 -0.8789  1.6784 -0.7348
 8415TIP3   OH246735   2.846   2.177  15.262 -0.1974  0.7169  0.3572
 8415TIP3    H146736   2.914   2.116  15.290 -1.1765 -1.1364 -1.1157
 8415TIP3    H246737   2.881   2.217  15.182 -0.4567  0.4535  0.1107
 8416TIP3   OH246738   6.384   6.438  13.375  0.5789 -0.0118 -0.4385
 8416TIP3    H146739   6.342   6.353  13.389  0.7294  0.1261  1.0226
 8416TIP3    H246740   6.313   6.502  13.381  0.6948  0.0749  0.1052
 8417TIP3   OH246741   3.869   6.092  14.604 -0.1796 -0.0612  0.3980
 8417TIP3    H146742   3.790   6.091  14.658 -1.4560 -1.7194 -1.3834
 8417TIP3    H246743   3.940   6.066  14.664 -0.8197  1.8528  2.1242
 8418TIP3   OH246744   5.087   4.025   3.563 -0.4530  0.0743 -0.6699
 8418TIP3    H146745   5.037   4.047   3.484  1.0031  2.4865 -1.0217
 8418TIP3    H246746   5.060   4.091   3.628  1.1346  0.5156 -0.4171
 8419TIP3   OH246747   4.978   3.999   5.115  0.4154  0.1172 -0.0371
 8419TIP3    H146748   4.899   3.983   5.165  0.5667 -0.8371 -0.0831
 8419TIP3    H246749   4.956   4.073   5.057 -0.1308  0.4517  0.5922
 8420TIP3   OH246750   2.264   2.733   3.886  0.2254  0.0727 -0.0399
 8420TIP3    H146751   2.286   2.789   3.813  0.1098 -0.5904 -0.5959
 8420TIP3    H246752   2.333   2.666   3.886 -0.3836 -0.5700 -0.2419
 8421TIP3   OH246753   2.765   3.034  11.495  0.6407  0.5186  0.4988
 8421TIP3    H146754   2.724   3.007  11.578 -0.0546 -1.5470 -0.4510
 8421TIP3    H246755   2.711   3.107  11.464 -0.6942 -0.3601  0.6408
 8422TIP3   OH246756   6.451   6.004   3.683  0.8144  0.5031  0.3687
 8422TIP3    H146757   6.372   6.021   3.631  0.6712 -0.4980  0.2383
 8422TIP3    H246758   6.506   5.951   3.626  1.0595  0.1787  0.9016
 8423TIP3   OH246759   1.711   0.758   5.650 -0.2799 -0.4759 -0.0145
 8423TIP3    H146760   1.770   0.816   5.698 -0.8822  2.2665 -2.3124
 8423TIP3    H246761   1.770   0.699   5.603  0.4838 -0.0857  0.4299
 8424TIP3   OH246762   2.872   4.015  16.622  0.2511  0.2825  0.2397
 8424TIP3    H146763   2.912   4.032  16.708  0.9022 -0.5299  0.1028
 8424TIP3    H246764   2.927   4.062  16.560  0.5307 -0.1854  0.1335
 8425TIP3   OH246765   4.906   3.661   3.249  0.2695  0.3272  0.3151
 8425TIP3    H146766   4.996   3.647   3.280  0.5113  2.5518  0.7338
 8425TIP3    H246767   4.915   3.680   3.156  0.1476 -0.1744  0.1977
 8426TIP3   OH246768   5.954   0.308  13.184 -0.9023  0.2382  0.1628
 8426TIP3    H146769   6.031   0.268  13.142 -0.1104  1.5454  0.3070
 8426TIP3    H246770   5.903   0.344  13.112  0.4984  2.5536  0.2271
 8427TIP3   OH246771   6.111   3.252   4.325 -0.5968 -0.3692  0.2797
 8427TIP3    H146772   6.047   3.250   4.253 -0.6605 -0.7029  0.3417
 8427TIP3    H246773   6.187   3.296   4.288  0.0707 -2.1499 -0.6009
 8428TIP3   OH246774   1.918   0.056  16.936  0.2076  0.1216 -0.3018
 8428TIP3    H146775   1.889   0.083  16.849  0.1973 -0.7512 -0.5813
 8428TIP3    H246776   1.992  -0.003  16.919 -0.1441 -0.4896  0.2545
 8429TIP3   OH246777   1.152   1.585  13.817  0.1826  0.4022 -0.5551
 8429TIP3    H146778   1.135   1.590  13.911  1.0844 -1.3129 -0.2673
 8429TIP3    H246779   1.140   1.675  13.786 -1.0556  0.8311  1.0152
 8430TIP3   OH246780   4.448   0.318  16.972  0.3369 -0.2099 -0.4536
 8430TIP3    H146781   4.413   0.313  16.884  0.0623  0.8882 -0.4253
 8430TIP3    H246782   4.543   0.308  16.961  0.2746 -0.3743 -0.8387
 8431TIP3   OH246783   2.649   5.456  13.686 -0.0396 -0.4115 -0.1204
 8431TIP3    H146784   2.624   5.370  13.652  1.4165 -1.2570  0.8241
 8431TIP3    H246785   2.647   5.445  13.781  0.3926  0.5495  0.0112
 8432TIP3   OH246786   2.380   5.853   3.310 -0.1655  0.4060  0.1408
 8432TIP3    H146787   2.405   5.807   3.230  0.0204  1.3370 -0.3564
 8432TIP3    H246788   2.353   5.784   3.371  0.3219 -0.3641 -0.4976
 8433TIP3   OH246789   4.472   4.161  13.268 -0.1084  0.1430 -0.6253
 8433TIP3    H146790   4.465   4.243  13.317 -1.4811  0.6462 -1.6039
 8433TIP3    H246791   4.398   4.109  13.299  1.1938 -1.0796  0.5549
 8434TIP3   OH246792   2.976   0.084  13.679 -0.0230 -0.3037  0.2370
 8434TIP3    H146793   3.043   0.046  13.622  1.4153  0.0388  1.6383
 8434TIP3    H246794   2.993   0.178  13.678 -2.6745  0.3028 -2.0741
 8435TIP3   OH246795   2.504   6.074  11.883 -0.0433 -0.0710  0.1402
 8435TIP3    H146796   2.507   5.986  11.919  2.6275  0.9812  2.8968
 8435TIP3    H246797   2.411   6.094  11.875 -0.7048 -2.4034  1.2834
 8436TIP3   OH246798   5.710   5.098  16.573  0.2447 -0.1125  0.5602
 8436TIP3    H146799   5.700   5.096  16.477 -0.2473  0.0561  0.6023
 8436TIP3    H246800   5.804   5.097  16.587  0.3459  0.8112  0.0395
 8437TIP3   OH246801   6.783   1.555  15.962  0.3589 -0.4664 -0.1877
 8437TIP3    H146802   6.793   1.632  15.906 -1.7144 -1.0053 -1.4380
 8437TIP3    H246803   6.871   1.517  15.969  0.9770  0.6574 -1.5539
 8438TIP3   OH246804   6.235   1.747   5.914 -0.0070 -0.0456  0.1557
 8438TIP3    H146805   6.287   1.696   5.977 -1.4381 -0.1863  1.2799
 8438TIP3    H246806   6.196   1.681   5.857  0.8454  0.0468 -0.5556
 8439TIP3   OH246807   5.104   2.842   5.491 -0.2799 -0.2443 -0.1516
 8439TIP3    H146808   5.142   2.885   5.568 -0.6528 -0.4518  0.1479
 8439TIP3    H246809   5.118   2.905   5.419  0.5054 -0.2537 -0.0230
 8440TIP3   OH246810   3.509   4.370  15.665  0.3435 -0.1300  0.1997
 8440TIP3    H146811   3.573   4.305  15.637  0.7869  0.5046 -0.2640
 8440TIP3    H246812   3.508   4.363  15.761  0.3284 -0.8679  0.1491
 8441TIP3   OH246813   6.652   6.618   5.190  0.4471 -0.0156  0.3132
 8441TIP3    H146814   6.621   6.552   5.252 -2.1579  1.9874  1.3598
 8441TIP3    H246815   6.661   6.698   5.243  0.1063  1.2831 -1.4983
 8442TIP3   OH246816   5.019   5.586  12.963 -0.0134  0.1926  0.3646
 8442TIP3    H146817   5.018   5.493  12.985  0.2690  0.3985  1.2994
 8442TIP3    H246818   5.025   5.588  12.868 -0.3567 -0.7424  0.3149
 8443TIP3   OH246819   6.533   2.152   5.547  0.0800 -0.2704 -0.0644
 8443TIP3    H146820   6.589   2.116   5.615 -1.7264 -1.7429  0.7224
 8443TIP3    H246821   6.590   2.212   5.499  2.3578 -1.7793  0.5705
 8444TIP3   OH246822   4.146   3.510   4.950 -0.6858 -1.0849  0.1938
 8444TIP3    H146823   4.229   3.556   4.963 -0.7596 -1.1472  0.9641
 8444TIP3    H246824   4.122   3.527   4.859  0.6382 -1.8370 -0.3199
 8445TIP3   OH246825   5.699   5.601   4.679 -0.0068  0.1475  0.6012
 8445TIP3    H146826   5.795   5.598   4.679 -0.0286 -1.2795  0.8737
 8445TIP3    H246827   5.677   5.660   4.607  1.0778 -0.0049  0.1191
 8446TIP3   OH246828   5.424   0.421   0.512  0.2879 -0.2620  0.2055
 8446TIP3    H146829   5.397   0.373   0.433 -0.8205 -0.4745  0.6994
 8446TIP3    H246830   5.384   0.507   0.503  2.2537  0.6302 -0.6653
 8447TIP3   OH246831   2.439   2.649   1.773  0.3141  0.4512 -0.1438
 8447TIP3    H146832   2.488   2.662   1.692  1.9953 -0.5842  0.6679
 8447TIP3    H246833   2.412   2.558   1.771  1.1032  0.1796  0.8291
 8448TIP3   OH246834   1.907   6.675   2.316 -0.1021  0.2777 -0.5351
 8448TIP3    H146835   1.875   6.590   2.287 -1.6581 -0.6999  3.3667
 8448TIP3    H246836   1.829   6.731   2.317 -0.2868  0.0881  1.9290
 8449TIP3   OH246837   3.426   3.422  16.183  0.4139  0.0137  0.3980
 8449TIP3    H146838   3.449   3.387  16.269 -1.4177 -1.7919  0.2258
 8449TIP3    H246839   3.351   3.480  16.201  2.1283  2.3932  0.3958
 8450TIP3   OH246840   3.945   5.144   3.383  0.6714 -0.0976 -0.1489
 8450TIP3    H146841   3.977   5.207   3.448  0.2788 -0.6151  0.5499
 8450TIP3    H246842   4.024   5.115   3.337  1.1678 -0.9119  1.1628
 8451TIP3   OH246843   4.528   4.699  13.518 -1.0685  0.1349  0.0509
 8451TIP3    H146844   4.474   4.778  13.520 -0.4633  0.5527  0.0489
 8451TIP3    H246845   4.580   4.708  13.438  0.6018  0.8235  1.1566
 8452TIP3   OH246846   1.847   2.537  12.484 -0.1774  0.2051  0.0224
 8452TIP3    H146847   1.795   2.595  12.428 -0.7680 -1.3216 -1.0927
 8452TIP3    H246848   1.804   2.452  12.476  1.9333 -0.9025 -0.1672
 8453TIP3   OH246849   3.905   1.163   1.435  0.2649 -0.1394 -0.0181
 8453TIP3    H146850   3.878   1.254   1.449 -0.8945 -0.3108 -0.9730
 8453TIP3    H246851   3.902   1.152   1.340  0.4586 -1.1663  0.0867
 8454TIP3   OH246852   4.919   0.661   5.548 -0.3126  0.2244  0.4771
 8454TIP3    H146853   4.980   0.602   5.504 -1.1914 -0.8716  0.7158
 8454TIP3    H246854   4.874   0.607   5.613 -0.7479  1.2744  1.0762
 8455TIP3   OH246855   4.268   5.793  13.114 -0.1696 -0.0085 -0.2298
 8455TIP3    H146856   4.268   5.698  13.122  0.8414 -0.0280 -0.3279
 8455TIP3    H246857   4.311   5.810  13.029  2.0042  0.5876  0.9145
 8456TIP3   OH246858   5.979   6.186   3.408 -0.3757 -0.2900  0.0212
 8456TIP3    H146859   5.933   6.240   3.343  1.6818  0.2728 -1.0630
 8456TIP3    H246860   5.986   6.242   3.485 -0.4192  0.0762 -0.2379
 8457TIP3   OH246861   2.354   3.384   3.461 -0.2224  0.2503  0.2918
 8457TIP3    H146862   2.428   3.324   3.472 -0.0448  0.2144 -0.9925
 8457TIP3    H246863   2.382   3.463   3.507 -0.3826 -0.5556  1.8444
 8458TIP3   OH246864   0.252   0.989  14.693 -0.3183  0.1633 -0.6605
 8458TIP3    H146865   0.239   0.903  14.733 -0.0179  0.2622 -0.3441
 8458TIP3    H246866   0.342   1.013  14.717 -0.5885  0.8076 -0.2749
 8459TIP3   OH246867   6.204   0.558  17.121 -0.1442  0.2499 -0.0705
 8459TIP3    H146868   6.220   0.474  17.078 -0.7380 -0.4720  1.0556
 8459TIP3    H246869   6.152   0.535  17.198  0.3043  1.5656  0.6502
 8460TIP3   OH246870   4.865   6.488  16.681 -0.0413  0.6267  0.4270
 8460TIP3    H146871   4.886   6.461  16.591  0.6598  1.1705  0.4158
 8460TIP3    H246872   4.837   6.408  16.724 -1.9969  0.6311 -0.7240
 8461TIP3   OH246873   1.302   3.547  13.907 -0.1398 -0.6346  0.1838
 8461TIP3    H146874   1.297   3.640  13.888  0.6729 -0.3638  1.1641
 8461TIP3    H246875   1.223   3.509  13.868 -0.0947  0.3361 -0.8809
 8462TIP3   OH246876   5.195   1.131  14.318  0.4360  0.1438 -0.0598
 8462TIP3    H146877   5.208   1.175  14.402  1.3444 -1.3488  0.6316
 8462TIP3    H246878   5.132   1.061  14.337  0.7862 -0.3223 -0.5569
 8463TIP3   OH246879   6.168   6.345  16.879 -0.2171 -0.0760 -0.0138
 8463TIP3    H146880   6.161   6.290  16.956 -0.7039 -1.7337 -1.1851
 8463TIP3    H246881   6.201   6.429  16.912  1.6085 -1.3715  1.7125
 8464TIP3   OH246882   1.710   4.388  16.775  0.2880 -0.3923  0.1468
 8464TIP3    H146883   1.710   4.425  16.687 -2.4148 -2.3113 -0.7663
 8464TIP3    H246884   1.722   4.294  16.763  1.9504 -0.4883  2.0287
 8465TIP3   OH246885   3.164   2.698   2.603  0.1223 -0.0504 -0.6616
 8465TIP3    H146886   3.257   2.717   2.616  0.0260 -0.3614  0.6131
 8465TIP3    H246887   3.162   2.610   2.566  0.2946 -0.5959  0.6014
 8466TIP3   OH246888   1.238   5.857  16.646  0.2313  0.4707  0.2169
 8466TIP3    H146889   1.253   5.899  16.561 -4.1223  2.7525  0.2592
 8466TIP3    H246890   1.203   5.771  16.624 -0.3710  0.8432 -0.3347
 8467TIP3   OH246891   6.527   3.111  14.769 -0.3338 -0.5445  0.3604
 8467TIP3    H146892   6.578   3.180  14.811 -0.3058 -0.4248  0.1287
 8467TIP3    H246893   6.452   3.098  14.828  0.0919 -0.8954  0.8253
 8468TIP3   OH246894   5.507   5.998   1.611  0.4013 -1.1175 -0.3926
 8468TIP3    H146895   5.554   5.953   1.681  1.0118 -0.4000 -0.3319
 8468TIP3    H246896   5.575   6.023   1.549 -0.1461 -1.8403 -1.3118
 8469TIP3   OH246897   6.430   5.549  13.675 -0.4524 -0.2596 -0.4829
 8469TIP3    H146898   6.475   5.482  13.727 -0.1507 -0.1533 -0.6077
 8469TIP3    H246899   6.434   5.516  13.585  0.4170  0.3174 -0.6631
 8470TIP3   OH246900   5.620   0.863  15.560  0.3432 -0.3195 -0.0830
 8470TIP3    H146901   5.555   0.910  15.508 -0.5951 -1.0108  0.4252
 8470TIP3    H246902   5.696   0.921  15.563 -0.7346  1.1021  0.4449
 8471TIP3   OH246903   2.730   3.826  12.423  0.0753 -0.3102  0.1549
 8471TIP3    H146904   2.666   3.846  12.491  0.8089  1.8908  0.2944
 8471TIP3    H246905   2.680   3.785  12.353 -1.2109 -0.0165  0.8799
 8472TIP3   OH246906   6.441   2.069  11.190  0.0963 -0.3701 -0.4854
 8472TIP3    H146907   6.377   2.095  11.256 -0.9351 -1.3962 -1.0357
 8472TIP3    H246908   6.393   2.074  11.108  1.1758  0.2504 -1.0988
 8473TIP3   OH246909   4.978   1.541  12.625  0.1763  0.0599 -0.3644
 8473TIP3    H146910   4.965   1.534  12.720 -1.1957  0.2026 -0.5230
 8473TIP3    H246911   5.050   1.603  12.615  0.5419 -0.1914  0.5834
 8474TIP3   OH246912   6.205   2.549  15.288 -0.4241  0.1770 -0.1921
 8474TIP3    H146913   6.135   2.609  15.262 -2.1700 -2.1595 -1.3174
 8474TIP3    H246914   6.227   2.502  15.207  0.1800 -1.3287  0.7868
 8475TIP3   OH246915   4.290   2.584  12.293  0.3335  0.0164 -0.0092
 8475TIP3    H146916   4.318   2.667  12.256 -2.0472  0.7789 -0.2651
 8475TIP3    H246917   4.267   2.530  12.217  0.9309 -0.5358  0.1930
 8476TIP3   OH246918   0.930   5.533   4.584  0.8322  0.2806 -0.1127
 8476TIP3    H146919   0.955   5.586   4.509  2.7506 -0.7674 -0.2697
 8476TIP3    H246920   0.870   5.468   4.549  0.3622  0.8466 -0.3787
 8477TIP3   OH246921   1.751   3.933  10.438  0.3958  0.1731  0.1972
 8477TIP3    H146922   1.724   3.973  10.521  0.0023  0.4158 -0.0464
 8477TIP3    H246923   1.671   3.929  10.386  0.3440 -1.2830  0.3593
 8478TIP3   OH246924   6.080   4.309  12.278  0.0994  0.0580  0.2228
 8478TIP3    H146925   6.008   4.300  12.216  0.2363  0.6045 -0.0273
 8478TIP3    H246926   6.150   4.254  12.244  0.8736  1.8055 -1.1915
 8479TIP3   OH246927   5.740   4.169   3.470  0.4067  0.1040 -0.3405
 8479TIP3    H146928   5.710   4.227   3.540  0.0629  2.0079 -1.9372
 8479TIP3    H246929   5.738   4.081   3.508  0.8513  1.1079  2.1854
 8480TIP3   OH246930   2.781   4.100   3.167 -0.7588  0.1372 -0.0111
 8480TIP3    H146931   2.831   4.024   3.195  0.9615  0.7907 -1.1464
 8480TIP3    H246932   2.835   4.175   3.194 -0.7255  0.8442 -1.8964
 8481TIP3   OH246933   1.271   4.191   0.407  0.3133 -0.3645 -0.1907
 8481TIP3    H146934   1.198   4.235   0.363  0.3841  1.1926  1.1519
 8481TIP3    H246935   1.238   4.172   0.495  1.7167  1.0726  0.7082
 8482TIP3   OH246936   4.184   4.820   3.404  0.5043 -0.0162 -0.3802
 8482TIP3    H146937   4.106   4.772   3.430  1.5730 -1.6598 -0.0252
 8482TIP3    H246938   4.254   4.755   3.406  1.8162  1.2991 -1.1011
 8483TIP3   OH246939   4.201   3.348  11.247  0.0754 -0.1831  0.0201
 8483TIP3    H146940   4.268   3.347  11.179  0.5184 -0.4294  0.4508
 8483TIP3    H246941   4.230   3.414  11.309 -1.1578  1.2229 -0.8179
 8484TIP3   OH246942   6.633   2.452  16.153  0.2110 -0.0235  0.1863
 8484TIP3    H146943   6.588   2.373  16.184  0.6392 -0.0334  0.7814
 8484TIP3    H246944   6.670   2.426  16.068 -1.0356  0.0339 -0.3968
 8485TIP3   OH246945   4.704   4.073  14.922  0.6427  0.5353 -0.0759
 8485TIP3    H146946   4.778   4.097  14.979 -0.7656  3.4744  0.7119
 8485TIP3    H246947   4.642   4.031  14.981  0.7069  0.2311 -0.2280
 8486TIP3   OH246948   4.847   2.825   1.545  0.2710 -0.0917  0.2106
 8486TIP3    H146949   4.921   2.773   1.513  0.4089  0.1807  0.0829
 8486TIP3    H246950   4.771   2.792   1.497  0.4715  0.3031 -0.3987
 8487TIP3   OH246951   0.479   2.244   2.822  0.0754  0.7963  0.2486
 8487TIP3    H146952   0.479   2.328   2.777 -0.7823  0.8721  0.3875
 8487TIP3    H246953   0.550   2.251   2.886  0.5208  1.1181 -0.2728
 8488TIP3   OH246954   1.365   4.406   0.971 -0.0939  0.2691 -0.2892
 8488TIP3    H146955   1.309   4.339   0.931  1.2316  0.8317 -3.4137
 8488TIP3    H246956   1.318   4.488   0.958 -0.8536  0.2348  1.8523
 8489TIP3   OH246957   4.414   5.474  10.249  0.0550  0.4639 -0.2284
 8489TIP3    H146958   4.495   5.460  10.299  0.4726  2.4155 -0.2745
 8489TIP3    H246959   4.378   5.555  10.285 -2.0297 -0.4621 -0.0740
 8490TIP3   OH246960   3.755   2.728  13.523  0.3544 -0.1063  0.1512
 8490TIP3    H146961   3.810   2.789  13.473 -0.6489  0.1413 -0.6979
 8490TIP3    H246962   3.769   2.643  13.482 -2.6976  0.5427 -2.6865
 8491TIP3   OH246963   0.749   1.244  11.727  0.2087  0.3680 -0.1163
 8491TIP3    H146964   0.763   1.202  11.642  0.4016 -2.2366  1.1170
 8491TIP3    H246965   0.664   1.211  11.756  1.2158 -0.7174  1.7315
 8492TIP3   OH246966   3.040   6.451  14.545 -0.5192  0.0396  0.3542
 8492TIP3    H146967   3.004   6.472  14.631 -0.8884  2.2883 -0.3071
 8492TIP3    H246968   3.045   6.534  14.499 -1.0423 -1.1839 -2.1107
 8493TIP3   OH246969   3.852   1.404  15.535  0.1627 -0.1163 -0.5224
 8493TIP3    H146970   3.825   1.420  15.445 -1.3607 -0.4574 -0.1644
 8493TIP3    H246971   3.772   1.418  15.587  0.6270 -1.3392  0.6030
 8494TIP3   OH246972   2.293   6.234  13.375 -0.3796 -0.2132 -0.4590
 8494TIP3    H146973   2.303   6.145  13.408  0.4409 -1.0861 -2.8661
 8494TIP3    H246974   2.382   6.266  13.366 -0.5971  0.2223 -1.1520
 8495TIP3   OH246975   1.824   3.121  13.036 -0.0402 -0.8603 -0.0916
 8495TIP3    H146976   1.747   3.144  12.984 -0.1377  1.6185  1.0045
 8495TIP3    H246977   1.898   3.157  12.987  0.1533 -1.0172  0.0853
 8496TIP3   OH246978   3.349   3.481  14.118  0.0016  0.3296  0.1558
 8496TIP3    H146979   3.338   3.423  14.194 -0.8932  1.5473  0.9757
 8496TIP3    H246980   3.264   3.479  14.074 -0.0631  1.0881  0.2408
 8497TIP3   OH246981   6.543   1.872   1.579 -0.1026 -0.1105 -0.3353
 8497TIP3    H146982   6.557   1.890   1.672 -1.3081  0.6735 -0.2688
 8497TIP3    H246983   6.469   1.811   1.578 -1.0977  1.0434 -0.7792
 8498TIP3   OH246984   4.561   5.805  11.247 -0.3919  0.2330 -0.1858
 8498TIP3    H146985   4.625   5.740  11.218 -0.5428  0.4922 -1.1211
 8498TIP3    H246986   4.498   5.811  11.175  0.1936  2.1795 -0.5963
 8499TIP3   OH246987   3.336   3.384  11.023  0.2355 -0.0094  0.1857
 8499TIP3    H146988   3.242   3.379  11.035  0.2111 -2.9051 -0.5561
 8499TIP3    H246989   3.361   3.298  10.990  2.9887  1.0599 -0.8261
 8500TIP3   OH246990   3.025   2.050  13.623  0.3575  0.3260  0.3817
 8500TIP3    H146991   3.050   1.989  13.553 -0.5903  0.9348 -0.5163
 8500TIP3    H246992   3.048   2.004  13.704  0.4036 -0.8927 -0.2907
 8501TIP3   OH246993   3.773   0.352  12.887  0.1093  0.2692 -0.0707
 8501TIP3    H146994   3.757   0.435  12.933  0.8990  2.6115 -3.6737
 8501TIP3    H246995   3.776   0.375  12.795  1.8061 -3.6045 -1.1981
 8502TIP3   OH246996   3.339   6.109   4.337  0.5464  0.2325  0.5288
 8502TIP3    H146997   3.248   6.119   4.363  0.4838 -1.2994  0.9793
 8502TIP3    H246998   3.385   6.086   4.418  0.9792 -0.9283 -0.0201
 8503TIP3   OH246999   1.555   2.234  16.250 -0.4712 -0.1729  0.3655
 8503TIP3    H147000   1.595   2.177  16.316 -1.4934 -0.3525  0.8403
 8503TIP3    H247001   1.587   2.199  16.166 -1.0153 -1.4129  0.6451
 8504TIP3   OH247002   6.739   5.455  11.559  0.0037  0.4080  0.2544
 8504TIP3    H147003   6.666   5.399  11.532  0.3209  0.6828 -1.2574
 8504TIP3    H247004   6.726   5.536  11.509 -0.9039  2.0518  2.9616
 8505TIP3   OH247005   2.230   4.324   1.419 -0.5807  0.6940  0.2464
 8505TIP3    H147006   2.276   4.283   1.346  0.6417 -0.1838  1.4613
 8505TIP3    H247007   2.140   4.292   1.411  0.1094 -1.5101  0.5756
 8506TIP3   OH247008   6.129   1.462  16.804  0.8380 -0.7470  0.1659
 8506TIP3    H147009   6.040   1.429  16.817  0.4629 -0.4167 -1.2608
 8506TIP3    H247010   6.177   1.435  16.882 -1.2179  1.6024  2.4426
 8507TIP3   OH247011   1.858   3.431   3.623 -0.0151 -0.0242  0.7364
 8507TIP3    H147012   1.916   3.354   3.624  1.7734  1.2499 -0.0685
 8507TIP3    H247013   1.869   3.470   3.710 -1.7334 -1.1886  1.5330
 8508TIP3   OH247014   1.965   3.368   1.480 -0.2936 -0.2859  0.3458
 8508TIP3    H147015   1.999   3.359   1.390 -0.8731  2.7181 -0.2784
 8508TIP3    H247016   2.041   3.355   1.536  0.3701 -0.7507 -0.6291
 8509TIP3   OH247017   0.394   2.472   2.449  0.7086 -0.0904 -0.7182
 8509TIP3    H147018   0.327   2.406   2.463 -1.2509  2.2259  2.0644
 8509TIP3    H247019   0.440   2.478   2.532  3.1536 -0.2261 -1.9623
 8510TIP3   OH247020   5.960   2.409  15.432  0.3612 -0.2575 -0.0372
 8510TIP3    H147021   5.983   2.393  15.524  2.2239  0.8443 -0.2738
 8510TIP3    H247022   5.894   2.478  15.436 -0.3734 -0.9693  0.5026
 8511TIP3   OH247023   4.171   3.693   1.055 -0.3956  0.0922  0.3866
 8511TIP3    H147024   4.143   3.696   1.146 -0.0948 -2.1367  0.5966
 8511TIP3    H247025   4.190   3.601   1.038  2.8377  0.8379 -0.9334
 8512TIP3   OH247026   1.252   0.069  16.550  0.2815 -0.6935  0.1446
 8512TIP3    H147027   1.314   0.132  16.513  0.1027 -0.0141  0.9666
 8512TIP3    H247028   1.184   0.061  16.483  2.4211 -3.3938 -1.9297
 8513TIP3   OH247029   2.098   4.197  15.871 -0.3247 -0.5043 -0.0009
 8513TIP3    H147030   2.168   4.260  15.888 -0.8755 -0.2875  1.6842
 8513TIP3    H247031   2.143   4.115  15.853  0.3813 -0.3752  1.1012
 8514TIP3   OH247032   1.329   5.933   0.370  0.0840 -0.5130 -0.1593
 8514TIP3    H147033   1.314   5.947   0.276 -1.0773  0.2138  0.1293
 8514TIP3    H247034   1.276   5.999   0.414  2.4170  0.7228  0.9932
 8515TIP3   OH247035   6.659   3.836  14.647  0.4663 -0.4223 -0.8768
 8515TIP3    H147036   6.581   3.792  14.613  0.6595 -0.8256 -0.8146
 8515TIP3    H247037   6.684   3.898  14.578 -0.0113 -0.1628 -0.8163
 8516TIP3   OH247038   0.781   2.836   0.269 -0.3177  0.3709 -0.3624
 8516TIP3    H147039   0.768   2.922   0.231 -1.3075  0.6396  0.5313
 8516TIP3    H247040   0.795   2.852   0.362  1.5876 -0.3056 -0.4886
 8517TIP3   OH247041   1.528   2.153  14.895  0.6601  0.1881  0.2849
 8517TIP3    H147042   1.496   2.063  14.904  1.9522 -0.1739  1.7677
 8517TIP3    H247043   1.493   2.183  14.811  0.0264 -1.6207 -0.1452
 8518TIP3   OH247044   2.596   2.767  17.113 -0.0632 -0.4442  0.2252
 8518TIP3    H147045   2.569   2.707  17.181 -2.3374  0.6858  0.4084
 8518TIP3    H247046   2.582   2.719  17.031 -0.0749 -0.8076  0.4406
 8519TIP3   OH247047   5.283   0.995   6.395 -0.3549  0.6102 -0.6904
 8519TIP3    H147048   5.285   1.083   6.356  0.7874  1.2315  0.6868
 8519TIP3    H247049   5.319   1.007   6.482 -0.5509 -1.1844 -0.3319
 8520TIP3   OH247050   4.028   0.990  12.351  0.3590 -0.2097  0.8384
 8520TIP3    H147051   4.015   1.012  12.259  1.2202 -2.9164 -0.0339
 8520TIP3    H247052   3.940   0.985  12.388 -0.0255  0.2386  0.0007
 8521TIP3   OH247053   0.981   6.592  11.583 -0.1251 -0.7099 -0.0396
 8521TIP3    H147054   0.979   6.603  11.678  0.3225 -1.3331  0.0470
 8521TIP3    H247055   1.070   6.617  11.557 -0.8323  1.4940 -0.5750
 8522TIP3   OH247056   4.779   0.961  14.058 -0.3172 -0.1893  0.4477
 8522TIP3    H147057   4.743   0.915  13.983 -0.9073 -0.2379  0.7584
 8522TIP3    H247058   4.859   0.914  14.080 -0.3944 -0.4581  0.1440
 8523TIP3   OH247059   5.332   5.521  11.138  0.1647  0.3384  0.7111
 8523TIP3    H147060   5.307   5.551  11.226 -2.4680 -0.5835  0.3766
 8523TIP3    H247061   5.317   5.597  11.082  3.4094  1.4549  1.1671
 8524TIP3   OH247062   4.209   0.908  16.502 -0.0693 -0.4421 -0.0566
 8524TIP3    H147063   4.244   0.954  16.578 -1.3815 -0.4649  0.5825
 8524TIP3    H247064   4.115   0.928  16.502 -0.3083 -1.4512 -0.9520
 8525TIP3   OH247065   3.224   3.316   5.516 -0.2450 -0.0586 -0.1295
 8525TIP3    H147066   3.175   3.237   5.537  1.7827 -1.5085 -0.4528
 8525TIP3    H247067   3.203   3.378   5.586  0.6270 -2.0780  2.0486
 8526TIP3   OH247068   4.763   5.115   0.297 -0.1392  0.0260  0.3376
 8526TIP3    H147069   4.785   5.026   0.269  0.8182  0.7627 -1.3801
 8526TIP3    H247070   4.667   5.116   0.300 -0.2571 -0.5003 -1.6951
 8527TIP3   OH247071   0.947   3.534   1.617  0.0917 -0.0392 -0.2314
 8527TIP3    H147072   1.036   3.527   1.581  0.0657  0.7156 -0.4640
 8527TIP3    H247073   0.895   3.564   1.543 -0.3160 -0.2400 -0.0272
 8528TIP3   OH247074   4.923   3.517  12.068  0.0727 -0.2734  0.2264
 8528TIP3    H147075   4.889   3.455  12.003 -0.9055 -0.2250  0.6728
 8528TIP3    H247076   4.999   3.557  12.025 -0.7874  0.0511 -1.0627
 8529TIP3   OH247077   3.169   0.840  11.326 -1.1139 -0.0670  0.2154
 8529TIP3    H147078   3.229   0.914  11.313  0.6482 -1.1803  1.5039
 8529TIP3    H247079   3.220   0.763  11.302 -2.0682 -1.0587  1.2417
 8530TIP3   OH247080   3.600   2.083   4.554  0.2440  0.4930  0.2684
 8530TIP3    H147081   3.642   2.033   4.624  0.0085 -0.3595 -0.1913
 8530TIP3    H247082   3.665   2.150   4.530  2.1602 -1.8596 -1.6309
 8531TIP3   OH247083   4.314   0.890   2.005  0.2496  0.0213 -0.1697
 8531TIP3    H147084   4.274   0.965   2.048 -0.1175  1.2783 -2.5305
 8531TIP3    H247085   4.240   0.835   1.979  0.1883  0.7831 -1.7559
 8532TIP3   OH247086   4.843   6.155   3.920  0.5641  0.3222 -0.1495
 8532TIP3    H147087   4.807   6.233   3.962 -0.6541  0.2453 -0.9943
 8532TIP3    H247088   4.795   6.083   3.959  0.6275  0.1165 -0.4520
 8533TIP3   OH247089   3.802   1.031   3.276  0.1614 -0.5841 -0.2799
 8533TIP3    H147090   3.721   0.986   3.252 -0.0718 -0.7495  0.7747
 8533TIP3    H247091   3.812   1.013   3.370  0.3278  1.1130  0.0584
 8534TIP3   OH247092   0.834   6.189   0.554  0.8508  1.0013 -0.0608
 8534TIP3    H147093   0.750   6.158   0.589  0.7776  1.6584  0.3731
 8534TIP3    H247094   0.900   6.136   0.598  0.6152 -0.7647 -1.7226
 8535TIP3   OH247095   3.301   5.662   0.391  0.6338  0.0322  0.1356
 8535TIP3    H147096   3.213   5.690   0.418  0.7213  1.0857 -0.6414
 8535TIP3    H247097   3.360   5.722   0.437  0.8721  0.4441 -0.7058
 8536TIP3   OH247098   2.780   2.733   6.657 -0.3505 -0.3306  0.6970
 8536TIP3    H147099   2.719   2.660   6.658 -1.1902  0.3525  0.7272
 8536TIP3    H247100   2.771   2.774   6.744  0.4214 -0.4411  0.8351
 8537TIP3   OH247101   5.761   5.959   3.557  0.4803 -0.2422  0.2351
 8537TIP3    H147102   5.701   5.986   3.488  1.9871 -0.4686 -1.2437
 8537TIP3    H247103   5.813   6.037   3.575  0.3566 -0.2966  0.8440
 8538TIP3   OH247104   2.143   5.910  14.253 -0.1752  0.3937  0.0496
 8538TIP3    H147105   2.223   5.938  14.298  0.3975 -0.3902 -0.4435
 8538TIP3    H247106   2.174   5.850  14.185 -1.1875  0.0850 -0.1586
 8539TIP3   OH247107   1.969   2.628   3.193  0.3701 -0.0577 -0.1745
 8539TIP3    H147108   1.967   2.576   3.272 -0.1064  0.7754  0.3792
 8539TIP3    H247109   2.005   2.570   3.126  0.9108 -0.7186  0.6806
 8540TIP3   OH247110   6.815   3.574   3.729  0.1134 -0.1175  0.1689
 8540TIP3    H147111   6.757   3.502   3.703  0.5332 -0.3234 -0.2258
 8540TIP3    H247112   6.891   3.564   3.672  2.2549 -2.1204  3.0740
 8541TIP3   OH247113   1.938   4.236   1.461  0.0483  0.5007  0.0183
 8541TIP3    H147114   1.901   4.198   1.541  1.3078  0.0218  0.3908
 8541TIP3    H247115   1.867   4.232   1.397 -0.7307  0.1792  0.8870
 8542TIP3   OH247116   0.421   3.201  14.120 -0.5194  0.0594 -0.5093
 8542TIP3    H147117   0.430   3.127  14.181 -1.5249  0.4781  0.1771
 8542TIP3    H247118   0.437   3.163  14.034  1.1800 -0.5051  0.0085
 8543TIP3   OH247119   4.048   4.374  15.023 -0.2821  0.1884  0.0591
 8543TIP3    H147120   3.994   4.301  15.054 -0.3159  0.7975  1.5260
 8543TIP3    H247121   4.137   4.338  15.019 -0.1792  0.2303  1.4705
 8544TIP3   OH247122   3.722   4.886  13.285 -0.5084 -0.1944  0.0608
 8544TIP3    H147123   3.637   4.900  13.242 -1.3344  0.0173  1.6765
 8544TIP3    H247124   3.723   4.950  13.356  0.6631 -0.7434  0.5581
 8545TIP3   OH247125   1.899   3.284  10.364 -0.3047  0.1690  0.5652
 8545TIP3    H147126   1.912   3.190  10.367 -1.9748 -0.0762  1.2443
 8545TIP3    H247127   1.870   3.301  10.274  0.6004  0.1425  0.2599
 8546TIP3   OH247128   1.851   5.787   5.152 -0.4883  0.9096  0.3637
 8546TIP3    H147129   1.899   5.866   5.176  1.8420 -0.6389  1.1955
 8546TIP3    H247130   1.801   5.765   5.231 -0.9502  1.4175  0.2135
 8547TIP3   OH247131   2.263   2.877   3.661  0.0697 -0.0161 -0.1328
 8547TIP3    H147132   2.233   2.887   3.571 -0.3230 -0.1257 -0.0201
 8547TIP3    H247133   2.234   2.957   3.705 -1.5057 -0.7945  0.3529
 8548TIP3   OH247134   5.449   6.227  13.263 -0.2843  0.5699  0.2423
 8548TIP3    H147135   5.458   6.204  13.170  0.9375  2.4394 -0.1521
 8548TIP3    H247136   5.414   6.148  13.304 -1.5571 -0.0734 -1.9211
 8549TIP3   OH247137   0.457   6.606  14.443  0.0739 -0.0462  0.0483
 8549TIP3    H147138   0.530   6.666  14.457  1.6801 -0.8048 -3.8157
 8549TIP3    H247139   0.394   6.655  14.391 -0.1746 -0.6784 -0.2656
 8550TIP3   OH247140   3.918   0.411   2.639  0.4871 -0.2272 -0.0433
 8550TIP3    H147141   3.910   0.433   2.732 -0.4555  1.7610 -0.5236
 8550TIP3    H247142   4.011   0.396   2.625  0.6762 -0.2224  1.1545
 8551TIP3   OH247143   2.316   1.112   4.941  0.0290  0.4092 -0.2664
 8551TIP3    H147144   2.399   1.090   4.900 -0.9472 -0.2130 -2.0346
 8551TIP3    H247145   2.275   1.028   4.961 -0.9209  0.6536 -1.0723
 8552TIP3   OH247146   1.345   4.761   3.974  0.5073 -0.1835  0.1601
 8552TIP3    H147147   1.374   4.743   4.064 -0.3044 -0.8040  0.3138
 8552TIP3    H247148   1.300   4.681   3.948 -1.9248  1.0413  0.2989
 8553TIP3   OH247149   1.057   2.684   1.935 -0.0721 -0.4063  0.2560
 8553TIP3    H147150   1.135   2.646   1.975 -0.1827 -1.5865 -0.5855
 8553TIP3    H247151   1.090   2.729   1.857 -0.2298 -0.9791 -0.1471
 8554TIP3   OH247152   3.466   2.911  13.818  0.7307  0.2093  0.2312
 8554TIP3    H147153   3.553   2.906  13.860  1.2841 -1.8228 -1.0067
 8554TIP3    H247154   3.407   2.870  13.881  1.2359 -1.1658 -0.1611
 8555TIP3   OH247155   3.728   5.339  12.101  0.1527 -0.5325 -0.3357
 8555TIP3    H147156   3.664   5.288  12.051  0.6824  0.3998 -2.0448
 8555TIP3    H247157   3.754   5.409  12.041  2.2276 -0.4576  0.5850
 8556TIP3   OH247158   1.372   2.161   5.173 -0.5675  0.5625  0.0181
 8556TIP3    H147159   1.322   2.170   5.092 -0.9770  0.6613  0.2784
 8556TIP3    H247160   1.388   2.067   5.181 -1.2342  0.4640  0.2438
 8557TIP3   OH247161   1.270   0.990   0.090  0.0459 -0.6304  0.0549
 8557TIP3    H147162   1.309   1.076   0.073 -2.3006  0.7191  1.0177
 8557TIP3    H247163   1.254   0.953   0.004  0.6353  0.0924 -0.3763
 8558TIP3   OH247164   3.777   2.153   3.487 -0.0818 -0.1595  0.3400
 8558TIP3    H147165   3.828   2.234   3.492  2.0403 -1.3295 -1.1282
 8558TIP3    H247166   3.835   2.086   3.522 -0.6628 -1.5181 -1.1979
 8559TIP3   OH247167   1.662   3.113  12.375 -0.0840  0.2504 -0.2400
 8559TIP3    H147168   1.646   3.037  12.319 -1.3995  0.2143  0.1653
 8559TIP3    H247169   1.748   3.145  12.347  0.4445 -1.3163 -0.4838
 8560TIP3   OH247170   4.385   6.687   4.116 -0.1993  0.2142 -0.0576
 8560TIP3    H147171   4.367   6.688   4.210  0.1229  1.6127  0.0057
 8560TIP3    H247172   4.399   6.594   4.096 -3.1167 -0.4853  0.6974
 8561TIP3   OH247173   0.265   5.221  13.719  0.2664  0.4480 -0.1485
 8561TIP3    H147174   0.281   5.284  13.649  0.5593  0.3867 -0.1398
 8561TIP3    H247175   0.189   5.171  13.690 -0.8004  1.6732  0.4415
 8562TIP3   OH247176   6.765   2.473  14.649  0.0528 -0.6232 -0.3275
 8562TIP3    H147177   6.728   2.443  14.732  0.1282 -0.9533 -0.4122
 8562TIP3    H247178   6.808   2.556  14.670 -0.4451 -0.4037 -0.1605
 8563TIP3   OH247179   2.007   5.244   1.510 -0.0165  0.1823 -0.1016
 8563TIP3    H147180   2.040   5.294   1.584 -1.5290 -1.0712  1.5086
 8563TIP3    H247181   2.058   5.163   1.512 -1.0031 -0.4510  0.4948
 8564TIP3   OH247182   1.786   1.262  10.743  0.0147  0.4820  0.8081
 8564TIP3    H147183   1.782   1.174  10.705 -0.0870  0.2038  1.4628
 8564TIP3    H247184   1.852   1.256  10.812  0.9730  1.2564 -0.0052
 8565TIP3   OH247185   0.327   0.741  11.991 -0.5130 -0.2365  0.2646
 8565TIP3    H147186   0.276   0.660  12.001 -1.7294  0.6827  2.0739
 8565TIP3    H247187   0.279   0.791  11.926  0.0258 -0.7688 -0.5682
 8566TIP3   OH247188   5.125   2.274  15.777 -0.4054 -0.0506 -0.2761
 8566TIP3    H147189   5.059   2.237  15.719  0.1709  0.5563 -1.3475
 8566TIP3    H247190   5.076   2.333  15.835 -1.0113 -0.8052 -0.0103
 8567TIP3   OH247191   3.784   3.233  13.815  0.1999  0.3161 -0.8149
 8567TIP3    H147192   3.857   3.262  13.761  1.7130  0.8881  1.4254
 8567TIP3    H247193   3.786   3.290  13.892 -2.0024 -0.3042 -0.2020
 8568TIP3   OH247194   4.461   0.457  15.966  0.4355 -0.4985 -0.3487
 8568TIP3    H147195   4.402   0.496  16.031  1.2756 -1.0329  0.7723
 8568TIP3    H247196   4.453   0.362  15.980  2.3281 -0.5690  0.5842
 8569TIP3   OH247197   1.503   2.455   1.852  0.0575 -0.0440  0.2800
 8569TIP3    H147198   1.553   2.490   1.778  0.4508 -2.3297 -0.6349
 8569TIP3    H247199   1.434   2.402   1.811 -0.5640 -0.2614  1.5649
 8570TIP3   OH247200   0.278   1.355  14.217  0.9122  0.1452 -0.6850
 8570TIP3    H147201   0.253   1.263  14.211  1.2790 -0.0089  0.0396
 8570TIP3    H247202   0.233   1.397  14.144 -1.1182 -0.1991  0.2968
 8571TIP3   OH247203   5.085   6.297   4.407 -0.5252  1.0370 -0.0444
 8571TIP3    H147204   5.019   6.317   4.341 -0.1464  0.6450 -0.5556
 8571TIP3    H247205   5.041   6.239   4.469 -0.7887  1.1463 -0.1300
 8572TIP3   OH247206   5.242   1.178  11.799  0.2617 -0.5562  0.0119
 8572TIP3    H147207   5.191   1.123  11.740 -0.7941  1.1129 -0.7218
 8572TIP3    H247208   5.321   1.200  11.749 -0.5311  0.6776 -0.7730
 8573TIP3   OH247209   3.812   1.423   1.466  0.3531 -0.4014  0.7146
 8573TIP3    H147210   3.859   1.474   1.533 -1.0012  1.5345  0.2519
 8573TIP3    H247211   3.720   1.444   1.480 -0.0360 -0.6967 -1.1493
 8574TIP3   OH247212   1.819   5.367   2.335 -0.1258  0.5455  0.5618
 8574TIP3    H147213   1.872   5.446   2.344  0.6854  0.2785 -1.3410
 8574TIP3    H247214   1.828   5.323   2.420  3.0283  0.3781  0.2818
 8575TIP3   OH247215   1.264   2.557   4.460  0.2258 -0.0927  0.0807
 8575TIP3    H147216   1.351   2.533   4.430  1.4169  0.1572  3.0470
 8575TIP3    H247217   1.278   2.625   4.525 -2.2873  0.6449 -0.0253
 8576TIP3   OH247218   0.921   3.841   2.431 -0.0836 -0.1808  0.3803
 8576TIP3    H147219   0.934   3.782   2.505 -1.0699  1.0278  1.5748
 8576TIP3    H247220   0.883   3.920   2.470  3.9924  2.5672 -0.6283
 8577TIP3   OH247221   5.880   2.246  11.460 -0.1445 -0.0492 -0.7814
 8577TIP3    H147222   5.895   2.202  11.544 -1.5433 -1.1857 -1.0933
 8577TIP3    H247223   5.910   2.182  11.395  0.2480  0.5362 -1.1868
 8578TIP3   OH247224   6.414   3.277  14.419 -0.3068 -0.0658  0.1803
 8578TIP3    H147225   6.504   3.252  14.439 -0.6541 -0.9895  0.6329
 8578TIP3    H247226   6.380   3.205  14.366 -1.3874 -0.6762  1.6585
 8579TIP3   OH247227   1.891   1.597  14.271  0.1018  0.2245 -0.2639
 8579TIP3    H147228   1.904   1.527  14.335  1.8373  1.0817  0.3892
 8579TIP3    H247229   1.863   1.673  14.322  0.4307  0.6134 -0.6438
 8580TIP3   OH247230   6.054   6.513   4.242  0.9065 -0.3924 -0.6650
 8580TIP3    H147231   5.984   6.578   4.249  1.5316  0.6603 -3.2029
 8580TIP3    H247232   6.093   6.511   4.329 -2.6844 -1.6252  1.1323
 8581TIP3   OH247233   6.131   0.203  16.062  0.5403 -0.0939  0.1803
 8581TIP3    H147234   6.105   0.116  16.091  1.8265 -0.3387  0.6513
 8581TIP3    H247235   6.101   0.208  15.971 -0.2881 -0.7005  0.4106
 8582TIP3   OH247236   1.777   5.983  13.452  0.1827 -0.3331 -0.4694
 8582TIP3    H147237   1.685   5.964  13.473  0.1216  0.4230 -0.0088
 8582TIP3    H247238   1.776   6.004  13.359  0.3375 -3.0111 -1.1469
 8583TIP3   OH247239   2.510   0.473  17.079 -0.1550 -0.2752 -0.1483
 8583TIP3    H147240   2.536   0.384  17.055  0.5961  0.7896 -4.0807
 8583TIP3    H247241   2.415   0.473  17.074 -0.1395 -0.7828 -0.4600
 8584TIP3   OH247242   0.139   5.727  15.857  0.4546  0.0557  0.3530
 8584TIP3    H147243   0.102   5.638  15.857  2.1952 -0.7330 -1.8413
 8584TIP3    H247244   0.106   5.767  15.777  1.8446  0.4314 -0.0477
 8585TIP3   OH247245   2.439   3.045  12.069  0.6002  0.0061  0.0930
 8585TIP3    H147246   2.401   2.965  12.033 -0.9518  1.0693 -0.7355
 8585TIP3    H247247   2.408   3.047  12.160 -0.3779  0.2565 -0.2348
 8586TIP3   OH247248   4.126   1.897   0.809 -0.1876 -0.4529  0.9616
 8586TIP3    H147249   4.219   1.898   0.830 -0.0698  0.5414  0.4330
 8586TIP3    H247250   4.119   1.835   0.736  0.1997  0.1894  0.3745
 8587TIP3   OH247251   1.619   3.398  13.119  0.0241  0.0236 -0.1256
 8587TIP3    H147252   1.620   3.353  13.204 -2.0761 -0.0541 -0.0768
 8587TIP3    H247253   1.547   3.355  13.071  0.1503  1.1240 -1.3335
 8588TIP3   OH247254   0.543   1.741   3.538  0.1979 -0.2301  0.4133
 8588TIP3    H147255   0.465   1.791   3.512  0.8301 -0.5753 -2.5139
 8588TIP3    H247256   0.613   1.806   3.538  0.6369 -0.6622 -1.2836
 8589TIP3   OH247257   4.651   0.678  12.772 -0.0723  0.2844  0.2875
 8589TIP3    H147258   4.658   0.652  12.864 -0.5791  1.7967  0.7761
 8589TIP3    H247259   4.561   0.710  12.762  0.0076  0.2419 -0.7074
 8590TIP3   OH247260   0.636   0.191  11.232 -0.5157  0.1766  0.0707
 8590TIP3    H147261   0.649   0.098  11.215  1.0965  0.5299 -0.8059
 8590TIP3    H247262   0.679   0.205  11.317  2.1627  0.6932 -1.2806
 8591TIP3   OH247263   2.259   3.346   4.929 -0.0181  0.2860 -0.2856
 8591TIP3    H147264   2.317   3.289   4.980 -0.6337 -1.3179 -1.3085
 8591TIP3    H247265   2.317   3.387   4.864  0.2860  0.1520 -0.1019
 8592TIP3   OH247266   6.787   0.917  16.344  0.4428  0.4230 -0.2463
 8592TIP3    H147267   6.811   0.873  16.426  2.4963  0.5948 -0.6871
 8592TIP3    H247268   6.803   1.010  16.362 -4.0885  1.2529  0.7592
 8593TIP3   OH247269   0.307   2.287  16.322 -0.0712 -0.4165 -0.2163
 8593TIP3    H147270   0.339   2.365  16.276 -0.0297 -1.1721 -1.5132
 8593TIP3    H247271   0.361   2.282  16.401 -0.3317  1.0750  0.0851
 8594TIP3   OH247272   3.534   4.364   3.926 -0.1705  0.0036 -0.0579
 8594TIP3    H147273   3.456   4.334   3.974  0.3623 -1.1304  0.1396
 8594TIP3    H247274   3.499   4.417   3.855 -1.0954 -0.0226  0.3609
 8595TIP3   OH247275   4.390   2.563   2.703  0.3464  0.4090 -0.0452
 8595TIP3    H147276   4.438   2.642   2.727 -0.2568  0.5316  0.8361
 8595TIP3    H247277   4.310   2.567   2.757  1.1109 -1.6770  1.3778
 8596TIP3   OH247278   3.699   5.423  11.421  0.0653  0.2841 -0.6565
 8596TIP3    H147279   3.778   5.464  11.455  0.8113 -0.3161 -1.6170
 8596TIP3    H247280   3.684   5.348  11.479 -0.2446  0.8320 -0.0198
 8597TIP3   OH247281   0.309   1.913   4.290 -0.1276  0.6308 -0.2020
 8597TIP3    H147282   0.281   1.892   4.201 -2.0874  1.8774  0.0537
 8597TIP3    H247283   0.254   1.858   4.346  0.9384  0.0172  0.2688
 8598TIP3   OH247284   3.564   6.639  13.396 -0.1272 -0.0667 -0.6631
 8598TIP3    H147285   3.578   6.545  13.397  0.6852 -0.1039 -3.8566
 8598TIP3    H247286   3.638   6.675  13.445 -1.4618 -1.0404  2.2855
 8599TIP3   OH247287   1.326   1.242   0.012 -0.2817  0.1359 -0.1329
 8599TIP3    H147288   1.285   1.289   0.085 -1.9288 -0.9241 -0.3223
 8599TIP3    H247289   1.254   1.222  -0.048  0.7538 -0.5511 -1.2052
 8600TIP3   OH247290   5.668   2.035  11.162 -0.6262 -0.4190  0.0643
 8600TIP3    H147291   5.665   2.038  11.258 -1.9629  0.4270  0.0225
 8600TIP3    H247292   5.746   1.983  11.143 -0.6263 -1.0686  1.6127
 8601TIP3   OH247293   3.080   5.858   1.250  0.6941 -0.0004  0.3624
 8601TIP3    H147294   3.115   5.943   1.223 -1.9033  0.4870 -1.9286
 8601TIP3    H247295   3.138   5.794   1.207 -0.2117  0.7478 -2.1517
 8602TIP3   OH247296   1.631   4.767   5.197 -0.3429  0.2910  0.5752
 8602TIP3    H147297   1.608   4.717   5.276  1.2245  0.5233  1.2188
 8602TIP3    H247298   1.595   4.854   5.212 -2.3215 -0.3368 -0.1632
 8603TIP3   OH247299   3.644   5.727  17.195 -0.3700 -0.8807 -0.2390
 8603TIP3    H147300   3.697   5.800  17.227 -2.0814  0.8260 -1.1076
 8603TIP3    H247301   3.620   5.679  17.275  1.4089 -0.9777  0.2744
 8604TIP3   OH247302   3.701   6.367   0.042 -0.2578  0.0915  0.4933
 8604TIP3    H147303   3.612   6.379   0.008 -0.4401 -1.3437  0.4095
 8604TIP3    H247304   3.735   6.291  -0.006  0.1163 -0.9113  2.2800
 8605TIP3   OH247305   3.320   1.597   2.097  0.4903  0.1477 -0.1076
 8605TIP3    H147306   3.408   1.573   2.126 -0.1248 -3.2899 -0.7213
 8605TIP3    H247307   3.266   1.588   2.176  0.4563  1.1853  0.0075
 8606TIP3   OH247308   6.764   4.134  13.426 -0.4389  0.3346 -0.3961
 8606TIP3    H147309   6.750   4.041  13.411  0.6365  0.3907 -2.0477
 8606TIP3    H247310   6.800   4.139  13.515  0.1995 -0.9162 -0.5637
 8607TIP3   OH247311   5.475   4.819   2.211 -0.4792  0.8050  0.0516
 8607TIP3    H147312   5.382   4.807   2.192 -0.5893  0.6061  0.6919
 8607TIP3    H247313   5.516   4.741   2.174 -0.4271  1.3855 -1.1495
 8608TIP3   OH247314   1.244   2.713   3.731  0.4510  0.3628 -0.1360
 8608TIP3    H147315   1.192   2.790   3.754 -1.9977 -1.3599  0.3759
 8608TIP3    H247316   1.329   2.750   3.705  0.6560  3.0355  3.4718
 8609TIP3   OH247317   5.911   2.225  12.072  0.3827 -0.0251 -0.2359
 8609TIP3    H147318   5.974   2.167  12.030  0.2400 -1.5652  1.5597
 8609TIP3    H247319   5.845   2.242  12.004  1.3517 -0.5151 -1.3285
 8610TIP3   OH247320   1.787   3.865   1.919 -1.0127  0.4032  0.2106
 8610TIP3    H147321   1.693   3.862   1.905 -0.8868  1.0598 -0.9100
 8610TIP3    H247322   1.811   3.956   1.900  0.0191 -0.0584 -0.8380
 8611TIP3   OH247323   1.281   6.012  16.865  0.3635 -0.0926 -0.5100
 8611TIP3    H147324   1.249   5.971  16.784  2.9956 -2.0277 -0.7153
 8611TIP3    H247325   1.324   6.093  16.835  0.6303 -0.3949 -0.9706
 8612TIP3   OH247326   5.923   3.384   5.533  0.0488  0.1188  0.5828
 8612TIP3    H147327   5.889   3.468   5.500 -0.1795 -0.3426 -0.4017
 8612TIP3    H247328   5.856   3.353   5.593 -0.4939  0.0115 -0.0705
 8613TIP3   OH247329   2.853   3.320  14.129  0.0152  0.8435  0.1393
 8613TIP3    H147330   2.813   3.308  14.043  0.0846 -1.9361  0.3968
 8613TIP3    H247331   2.780   3.343  14.186 -0.3381  0.9517 -0.3438
 8614TIP3   OH247332   2.330   4.235   4.690  0.3180  0.5751 -0.3804
 8614TIP3    H147333   2.252   4.205   4.643  0.2291  0.3831 -0.1098
 8614TIP3    H247334   2.378   4.156   4.711 -0.3680  0.5230  1.1270
 8615TIP3   OH247335   3.021   0.610  13.119 -0.4254 -0.0601 -0.7609
 8615TIP3    H147336   3.087   0.553  13.159  0.6169  1.5222 -0.1525
 8615TIP3    H247337   3.030   0.596  13.025  2.0729  1.4515 -0.8212
 8616TIP3   OH247338   4.192   4.001  10.153 -0.0437 -0.5883 -0.0593
 8616TIP3    H147339   4.233   3.946  10.087  0.8325 -0.5143  0.4136
 8616TIP3    H247340   4.170   4.082  10.106 -1.9590 -1.5436 -0.9278
 8617TIP3   OH247341   1.476   5.732   1.003 -0.5722 -0.3698  0.0886
 8617TIP3    H147342   1.418   5.784   0.946 -0.9934  0.1507  0.9635
 8617TIP3    H247343   1.458   5.765   1.091  0.4737 -0.7757  0.4660
 8618TIP3   OH247344   3.139   1.542   1.131 -0.6210 -0.3497 -0.1079
 8618TIP3    H147345   3.130   1.628   1.090 -3.3780 -0.6692 -0.3899
 8618TIP3    H247346   3.050   1.507   1.133 -0.3573 -1.3324  4.0968
 8619TIP3   OH247347   1.667   3.229  12.835 -0.1295  0.2763 -0.0673
 8619TIP3    H147348   1.598   3.181  12.788 -0.6665  0.9811 -0.0261
 8619TIP3    H247349   1.693   3.298  12.773 -0.5225  0.9316  0.4814
 8620TIP3   OH247350   6.705   2.638   0.900 -0.0088  0.3599  0.3030
 8620TIP3    H147351   6.627   2.593   0.935  0.0154 -0.7829 -1.0452
 8620TIP3    H247352   6.775   2.573   0.906  0.4617  0.8313 -0.0031
 8621TIP3   OH247353   5.616   6.407  11.258 -0.0175 -0.2008 -0.2440
 8621TIP3    H147354   5.637   6.322  11.220 -0.7028  0.3805 -2.0465
 8621TIP3    H247355   5.538   6.436  11.211 -2.4233 -0.3980  3.2258
 8622TIP3   OH247356   0.695   5.127   1.053  0.0194 -0.1766 -0.0196
 8622TIP3    H147357   0.722   5.038   1.074  0.8877  0.1597  0.3212
 8622TIP3    H247358   0.659   5.162   1.135 -0.5609 -0.2864 -0.2174
 8623TIP3   OH247359   1.825   5.262   0.295  0.1226 -0.4767 -0.2506
 8623TIP3    H147360   1.751   5.244   0.236  1.3729 -1.5470 -1.5621
 8623TIP3    H247361   1.786   5.264   0.382 -1.2077 -2.7156 -0.7260
 8624TIP3   OH247362   4.125   2.041  12.186 -0.7846  0.3463  0.0447
 8624TIP3    H147363   4.156   2.072  12.271  2.5692  0.5288 -1.1230
 8624TIP3    H247364   4.072   2.113  12.151  0.3113  1.5133  0.7266
 8625TIP3   OH247365   5.133   5.656  10.979 -0.3824  0.4557  0.7650
 8625TIP3    H147366   5.058   5.688  11.029 -1.3808  1.4201 -1.2244
 8625TIP3    H247367   5.125   5.700  10.894  1.5808 -0.6186 -0.0293
 8626TIP3   OH247368   4.808   6.741  12.269  0.5628 -0.3213 -0.3945
 8626TIP3    H147369   4.735   6.684  12.293 -0.3844  0.6199 -0.9309
 8626TIP3    H247370   4.870   6.683  12.225  0.1150 -1.1376  0.0255
 8627TIP3   OH247371   4.110   2.591  11.042  0.2300  0.3344  0.0389
 8627TIP3    H147372   4.128   2.659  10.977  0.6393 -0.3884 -0.6127
 8627TIP3    H247373   4.029   2.551  11.013 -0.5202  1.1338  0.9382
 8628TIP3   OH247374   6.386   0.364  14.784 -0.8765 -0.1251  0.1683
 8628TIP3    H147375   6.341   0.311  14.718  1.6451  0.2608 -2.0093
 8628TIP3    H247376   6.467   0.317  14.802  1.0138  2.3819 -1.1634
 8629TIP3   OH247377   0.371   0.732  16.678 -0.2354  0.5338  0.0210
 8629TIP3    H147378   0.394   0.763  16.590 -0.3701  2.2960  0.5665
 8629TIP3    H247379   0.442   0.765  16.733 -0.8726  0.6208  0.7883
 8630TIP3   OH247380   0.729   3.701   1.141  0.6758  0.3113  0.5453
 8630TIP3    H147381   0.643   3.718   1.102  1.3261 -0.9997 -1.6690
 8630TIP3    H247382   0.774   3.786   1.139  0.1751  0.5648 -0.2884
 8631TIP3   OH247383   2.262   1.538   4.009 -0.1437 -0.2668 -0.1516
 8631TIP3    H147384   2.354   1.558   4.025 -0.1787 -0.7078  0.6488
 8631TIP3    H247385   2.217   1.568   4.088 -0.5108 -1.2254  0.0098
 8632TIP3   OH247386   4.834   3.696   2.711 -0.3522 -0.2998 -0.1780
 8632TIP3    H147387   4.742   3.690   2.735 -0.0415 -0.8065  0.9219
 8632TIP3    H247388   4.853   3.612   2.668 -1.1629  0.9585 -3.3372
 8633TIP3   OH247389   6.510   1.587   4.549 -0.3065  0.0953  0.1426
 8633TIP3    H147390   6.464   1.503   4.541  0.1547 -0.0328 -1.5342
 8633TIP3    H247391   6.506   1.607   4.643 -0.8863 -1.5331  0.5113
 8634TIP3   OH247392   6.085   6.178  13.207 -0.6135 -0.2920 -0.2530
 8634TIP3    H147393   5.990   6.172  13.198 -0.6860  0.3856 -0.0018
 8634TIP3    H247394   6.104   6.270  13.191  0.2655 -0.8300 -2.6520
 8635TIP3   OH247395   2.601   3.342  16.408  0.2977  0.0544 -0.4263
 8635TIP3    H147396   2.598   3.421  16.353 -1.1209 -0.2354 -0.8022
 8635TIP3    H247397   2.687   3.346  16.451  0.2312  1.8318 -0.3881
 8636TIP3   OH247398   2.664   5.711  13.859  0.2751  0.4637  0.4120
 8636TIP3    H147399   2.622   5.743  13.938 -1.1003 -0.6385  0.1622
 8636TIP3    H247400   2.644   5.777  13.792 -2.2757 -0.6779 -0.0307
 8637TIP3   OH247401   1.493   2.760   0.160  0.3278 -0.1577 -0.2851
 8637TIP3    H147402   1.542   2.790   0.236  1.6680  1.7226 -1.7808
 8637TIP3    H247403   1.556   2.762   0.088 -0.9633 -1.5408 -1.5457
 8638TIP3   OH247404   6.693   3.236  11.240  0.3191  0.2665 -0.5617
 8638TIP3    H147405   6.762   3.293  11.204 -0.8994  0.9347 -1.9780
 8638TIP3    H247406   6.620   3.246  11.178 -0.5727 -1.4639  0.1485
 8639TIP3   OH247407   3.041   4.685   1.629 -0.2520 -0.0671 -0.1330
 8639TIP3    H147408   3.075   4.681   1.540 -0.8225  3.2422 -0.6331
 8639TIP3    H247409   3.119   4.680   1.684  0.3184  0.0779 -0.9071
 8640TIP3   OH247410   4.851   2.799  10.416 -0.5951 -0.1807  0.2016
 8640TIP3    H147411   4.868   2.788  10.509 -1.3990 -0.5900  0.3119
 8640TIP3    H247412   4.813   2.887  10.409 -0.8734 -0.2897  0.3174
 8641TIP3   OH247413   4.018   5.419   3.686 -0.4278 -0.7227  0.1020
 8641TIP3    H147414   4.034   5.465   3.769  0.2707  1.4537 -1.1515
 8641TIP3    H247415   4.099   5.431   3.636 -1.6189 -0.0395 -1.7465
 8642TIP3   OH247416   6.269   3.994   1.762 -0.3774  0.0390 -0.0916
 8642TIP3    H147417   6.352   3.955   1.789 -1.2386 -0.2650  2.3088
 8642TIP3    H247418   6.266   4.079   1.805 -1.8277 -0.4781  0.9196
 8643TIP3   OH247419   3.931   5.869  13.655  0.2067 -0.1698  0.0375
 8643TIP3    H147420   3.993   5.911  13.715 -0.1642 -0.2359  0.4644
 8643TIP3    H247421   3.933   5.925  13.577 -0.7972  1.0572  0.8504
 8644TIP3   OH247422   6.084   0.064  14.076 -0.0653 -0.5981 -0.5281
 8644TIP3    H147423   6.061   0.056  14.169  0.8738 -0.4762 -0.2762
 8644TIP3    H247424   6.131  -0.017  14.057 -0.2096 -0.5967 -0.8857
 8645TIP3   OH247425   5.859   6.656   4.494  0.5660  0.4060 -0.1601
 8645TIP3    H147426   5.840   6.747   4.469 -0.1245  0.6887  1.2676
 8645TIP3    H247427   5.796   6.637   4.563 -0.4021 -1.7418 -1.5496
 8646TIP3   OH247428   3.726   3.424   2.799  0.1544 -0.2456 -0.2463
 8646TIP3    H147429   3.657   3.381   2.748  0.2312 -3.1924  1.8418
 8646TIP3    H247430   3.685   3.441   2.884  1.3822 -0.0941  0.3338
 8647TIP3   OH247431   6.304   4.624  15.975  0.3965 -0.0573  0.0685
 8647TIP3    H147432   6.240   4.676  16.024 -0.7382 -1.7183  0.4301
 8647TIP3    H247433   6.385   4.633  16.026  0.0351  0.7228  0.5328
 8648TIP3   OH247434   2.820   5.635   2.172 -0.3626  0.5754  0.5916
 8648TIP3    H147435   2.915   5.637   2.166 -0.4468  0.4996 -1.1718
 8648TIP3    H247436   2.791   5.594   2.091 -1.8572 -0.7079  1.7152
 8649TIP3   OH247437   0.194   0.478  12.880  0.0166  0.1479  0.1160
 8649TIP3    H147438   0.133   0.404  12.891  0.2593  0.2587  2.9879
 8649TIP3    H247439   0.271   0.438  12.840 -0.8754 -0.5535 -0.9895
 8650TIP3   OH247440   5.413   5.798   3.873  0.0621 -0.5984 -0.1686
 8650TIP3    H147441   5.492   5.789   3.926 -0.3160 -1.8882  0.2003
 8650TIP3    H247442   5.438   5.859   3.803  0.7319  0.6974  1.1443
 8651TIP3   OH247443   5.066   3.613  15.920  0.2601 -0.5186  0.1783
 8651TIP3    H147444   5.003   3.582  15.986 -1.3196  1.7579 -0.1417
 8651TIP3    H247445   5.107   3.533  15.887 -2.0708 -2.0826  0.8037
 8652TIP3   OH247446   3.608   2.123   2.730 -0.6182 -0.1929  0.0146
 8652TIP3    H147447   3.560   2.125   2.812 -2.5916  2.0410 -1.0749
 8652TIP3    H247448   3.549   2.079   2.669 -0.6813  1.2336 -0.9974
 8653TIP3   OH247449   4.506   5.762   1.161 -0.5312  0.2514 -0.1336
 8653TIP3    H147450   4.572   5.724   1.103 -0.3431  1.6736 -0.8885
 8653TIP3    H247451   4.554   5.784   1.241 -0.1318  1.0000 -0.5652
 8654TIP3   OH247452   0.826   5.086  15.604  0.0602 -0.4812 -0.4163
 8654TIP3    H147453   0.812   5.106  15.511 -0.1475  0.3343 -0.2154
 8654TIP3    H247454   0.907   5.036  15.605  0.2762 -0.1554 -0.9994
 8655TIP3   OH247455   5.698   3.631  16.789  0.2757  0.5784 -0.2219
 8655TIP3    H147456   5.691   3.636  16.693  0.9669  0.8754 -0.2600
 8655TIP3    H247457   5.671   3.718  16.819 -0.3969  0.3398 -0.1109
 8656TIP3   OH247458   6.668   4.946   3.080  0.3855 -0.2546  0.1496
 8656TIP3    H147459   6.723   5.023   3.083  0.7489 -0.5007 -0.2177
 8656TIP3    H247460   6.700   4.890   3.151  1.8443 -1.2225 -1.2103
 8657TIP3   OH247461   1.345   2.841   5.187  0.1230  0.3926 -0.7055
 8657TIP3    H147462   1.347   2.769   5.250  0.1694  0.3935 -0.7058
 8657TIP3    H247463   1.253   2.865   5.180  0.3781  2.3317  1.5604
 8658TIP3   OH247464   2.779   0.110   1.072 -0.0463  0.1442  0.0007
 8658TIP3    H147465   2.775   0.014   1.074 -2.7474  0.1900  2.1598
 8658TIP3    H247466   2.742   0.134   0.987  1.4027 -0.6743 -0.9083
 8659TIP3   OH247467   4.516   2.783  15.940 -0.3773  0.4166 -0.3392
 8659TIP3    H147468   4.608   2.790  15.967 -0.5322 -0.7656  0.5785
 8659TIP3    H247469   4.468   2.831  16.007 -0.6103 -1.0670  0.6213
 8660TIP3   OH247470   0.905   0.916   2.432  0.1955  0.0343  0.1189
 8660TIP3    H147471   0.821   0.919   2.386  0.2247 -0.8890 -0.0127
 8660TIP3    H247472   0.961   0.975   2.382  0.0281 -0.4313 -0.6462
 8661TIP3   OH247473   3.136   6.514  11.667  0.4286  0.1468 -0.4045
 8661TIP3    H147474   3.189   6.545  11.594  0.4104 -0.4291 -0.6669
 8661TIP3    H247475   3.121   6.422  11.649 -0.1175  0.1485  0.0009
 8662TIP3   OH247476   5.650   4.169  12.835  0.0339  0.0842  0.0692
 8662TIP3    H147477   5.645   4.261  12.807  1.4322 -0.0596 -0.7965
 8662TIP3    H247478   5.638   4.119  12.754  1.5712 -0.4110  0.1035
 8663TIP3   OH247479   2.809   3.628   5.540  0.4424 -0.0434 -0.3286
 8663TIP3    H147480   2.736   3.592   5.490 -0.1825 -0.6032  0.9438
 8663TIP3    H247481   2.846   3.553   5.586  1.2598  0.3900 -0.2670
 8664TIP3   OH247482   4.300   3.128   1.049  0.4698  0.1091 -0.4172
 8664TIP3    H147483   4.274   3.142   0.958  2.5370 -0.5204 -1.1699
 8664TIP3    H247484   4.336   3.040   1.049  2.6635  0.9521  0.4442
 8665TIP3   OH247485   2.754   4.953  11.721  0.4499 -0.4636  0.2643
 8665TIP3    H147486   2.671   4.905  11.730  0.4808 -0.6385 -0.3395
 8665TIP3    H247487   2.763   5.000  11.804 -1.4681  1.5303 -0.5521
 8666TIP3   OH247488   2.995   6.572  11.906  0.0195 -0.2985 -0.5401
 8666TIP3    H147489   3.015   6.600  11.817  2.2427  0.4967  0.1400
 8666TIP3    H247490   2.961   6.483  11.897 -1.2523  0.3059 -2.2587
 8667TIP3   OH247491   4.745   5.033   3.298  0.3465 -0.1570 -0.0908
 8667TIP3    H147492   4.661   5.006   3.262  0.9558 -0.7701 -1.1218
 8667TIP3    H247493   4.776   5.101   3.238  0.5198  0.1676  0.3649
 8668TIP3   OH247494   3.901   6.423  12.141 -1.1147 -0.5780 -0.3247
 8668TIP3    H147495   3.855   6.498  12.179 -1.2126 -0.6714 -0.2569
 8668TIP3    H247496   3.901   6.358  12.210 -0.4686 -0.4115 -0.1665
 8669TIP3   OH247497   1.189   1.195  13.632 -0.0624  0.4905  0.5718
 8669TIP3    H147498   1.145   1.194  13.547  0.4500 -0.5717  0.3002
 8669TIP3    H247499   1.224   1.106  13.642 -2.2840 -0.2392  3.0149
 8670TIP3   OH247500   5.520   6.363   0.441  0.2137  0.0572 -0.0975
 8670TIP3    H147501   5.577   6.390   0.514  0.5869 -0.5040 -0.1695
 8670TIP3    H247502   5.443   6.419   0.448  0.6870  0.6931  0.1286
 8671TIP3   OH247503   4.496   4.111   4.127  0.3738  0.4187 -0.7591
 8671TIP3    H147504   4.413   4.150   4.100  0.2613 -0.1411 -1.2533
 8671TIP3    H247505   4.471   4.037   4.182  0.5980  1.3494  0.6366
 8672TIP3   OH247506   0.996   6.138   2.214  0.2364  0.0101 -0.1209
 8672TIP3    H147507   1.074   6.148   2.160  0.2967  0.1742 -0.0049
 8672TIP3    H247508   0.945   6.217   2.198 -0.3162 -0.4815 -0.8490
 8673TIP3   OH247509   6.289   1.689  12.226  0.4027 -0.3738  0.1701
 8673TIP3    H147510   6.261   1.649  12.143 -0.1130  1.1149 -0.4255
 8673TIP3    H247511   6.361   1.747  12.201  1.8169 -1.6488  1.1646
 8674TIP3   OH247512   2.894   6.142  14.488 -0.5530 -0.6032 -0.0343
 8674TIP3    H147513   2.937   6.194  14.420 -2.1123 -1.4650 -1.7874
 8674TIP3    H247514   2.850   6.206  14.543  0.5532  0.1046  0.0619
 8675TIP3   OH247515   0.264   4.731   0.040 -0.1982  0.1276  0.0498
 8675TIP3    H147516   0.199   4.661   0.038 -1.2803  1.1175 -1.0815
 8675TIP3    H247517   0.267   4.758   0.131  2.6030 -3.4174  1.2847
 8676TIP3   OH247518   2.486   1.128   2.457  0.1084 -0.2231 -0.2880
 8676TIP3    H147519   2.553   1.153   2.394  0.7961  0.4580  0.6739
 8676TIP3    H247520   2.403   1.145   2.413  0.5730  0.8485 -0.7898
 8677TIP3   OH247521   3.725   5.640   2.757 -0.1156 -0.0905  0.0974
 8677TIP3    H147522   3.689   5.728   2.766  0.5294  0.1846  0.0143
 8677TIP3    H247523   3.651   5.582   2.776 -0.2868  0.4700  1.2232
 8678TIP3   OH247524   4.400   3.698  16.052  0.1396  0.9473  0.2592
 8678TIP3    H147525   4.318   3.660  16.084  0.4639 -1.2062 -1.2510
 8678TIP3    H247526   4.462   3.686  16.123  0.2267 -1.4830 -0.1594
 8679TIP3   OH247527   1.319   4.093   5.038  0.2248 -0.5148 -0.9853
 8679TIP3    H147528   1.225   4.096   5.056 -0.1810 -0.7794 -2.8770
 8679TIP3    H247529   1.357   4.151   5.104 -1.1853 -0.8890  0.2080
 8680TIP3   OH247530   5.519   3.384   6.287  0.1335 -0.8838  0.0947
 8680TIP3    H147531   5.562   3.404   6.203 -1.4703 -0.3042 -0.6298
 8680TIP3    H247532   5.581   3.413   6.353  1.4044 -1.2622 -0.8801
 8681TIP3   OH247533   4.077   2.542   4.751 -0.5522 -0.2815 -0.6038
 8681TIP3    H147534   4.085   2.450   4.726  1.3639  0.1096 -1.6352
 8681TIP3    H247535   4.133   2.588   4.689  0.0740  1.3793  1.1223
 8682TIP3   OH247536   0.460   0.248  12.094  0.4604  0.4884  0.0013
 8682TIP3    H147537   0.486   0.300  12.017 -1.5425  0.0075 -1.0550
 8682TIP3    H247538   0.437   0.314  12.160  0.3073  0.9383 -0.4885
 8683TIP3   OH247539   5.575   4.180   2.416 -0.0503 -0.3310  0.2982
 8683TIP3    H147540   5.513   4.107   2.408 -0.6159 -0.1306  2.2425
 8683TIP3    H247541   5.522   4.251   2.452  0.4899  1.0949 -1.5606
 8684TIP3   OH247542   0.723   1.475  12.938 -0.1236  0.2643 -0.7081
 8684TIP3    H147543   0.807   1.501  12.975 -0.8373  1.1531  0.3415
 8684TIP3    H247544   0.679   1.557  12.915  0.0206 -0.2330 -3.0084
 8685TIP3   OH247545   3.883   1.706  13.865 -0.1392  0.3852  0.1307
 8685TIP3    H147546   3.945   1.735  13.798  0.8076  0.8104  1.1455
 8685TIP3    H247547   3.812   1.666  13.816  1.2543 -0.7573 -1.0753
 8686TIP3   OH247548   3.022   5.295   2.712  0.0190 -0.0751 -0.6139
 8686TIP3    H147549   3.063   5.218   2.673 -4.6811 -3.7474  0.7281
 8686TIP3    H247550   2.990   5.346   2.637  0.6965 -1.0161 -1.5681
 8687TIP3   OH247551   1.651   3.352  16.245 -0.0396  0.5146 -0.4799
 8687TIP3    H147552   1.650   3.257  16.253  1.1883  0.5182 -0.0253
 8687TIP3    H247553   1.564   3.374  16.212  0.1193 -0.8736 -1.9596
 8688TIP3   OH247554   0.146   5.918  16.734 -0.0528 -0.3094  0.4598
 8688TIP3    H147555   0.116   6.009  16.735  1.0349  0.0699  0.0347
 8688TIP3    H247556   0.211   5.914  16.804  0.6497 -0.4707 -0.1821
 8689TIP3   OH247557   6.570   1.024   1.889 -0.0445 -0.1893  0.2337
 8689TIP3    H147558   6.597   1.102   1.841 -0.0989 -0.0819  0.3759
 8689TIP3    H247559   6.488   0.997   1.849  0.9132 -1.2729 -1.0596
 8690TIP3   OH247560   2.539   5.857  16.182  0.0942 -0.2084  0.2253
 8690TIP3    H147561   2.527   5.847  16.087 -1.6321 -1.2757  0.5151
 8690TIP3    H247562   2.513   5.947  16.200 -0.1960 -0.1949 -0.2391
 8691TIP3   OH247563   4.988   2.395  10.309  0.5181  0.3570  0.0047
 8691TIP3    H147564   5.023   2.484  10.305  0.9515  0.1564 -1.1709
 8691TIP3    H247565   4.896   2.405  10.283 -1.2697  1.2330  5.2917
 8692TIP3   OH247566   0.776   0.641   5.606 -0.3439 -0.3422 -0.2165
 8692TIP3    H147567   0.848   0.588   5.641  0.3706 -0.5375 -1.8848
 8692TIP3    H247568   0.813   0.728   5.594  0.0429 -0.7199 -2.1985
 8693TIP3   OH247569   1.679   5.536  12.453 -0.1242  0.3124 -0.1625
 8693TIP3    H147570   1.729   5.481  12.393 -1.4413 -1.7665  0.5509
 8693TIP3    H247571   1.729   5.533  12.535 -0.1602  0.2521 -0.1432
 8694TIP3   OH247572   3.131   5.567   4.125  0.2180  0.1639 -0.3961
 8694TIP3    H147573   3.131   5.512   4.047  0.4044 -0.3219 -0.0578
 8694TIP3    H247574   3.066   5.527   4.183  1.1755 -0.4047  0.3281
 8695TIP3   OH247575   2.983   6.080   5.269  0.3578 -0.1426 -0.0934
 8695TIP3    H147576   2.890   6.071   5.247  0.0585  0.2027  0.9805
 8695TIP3    H247577   3.012   5.990   5.287  0.8791 -0.6064 -2.7446
 8696TIP3   OH247578   6.292   2.285  14.173  0.2127  0.0374  0.4697
 8696TIP3    H147579   6.210   2.250  14.139  0.4061  0.7633 -0.8286
 8696TIP3    H247580   6.309   2.234  14.253 -0.3654 -1.6354 -0.4219
 8697TIP3   OH247581   5.773   4.378  14.223  0.7601 -0.2915  0.0695
 8697TIP3    H147582   5.721   4.363  14.302  0.7093  0.0693  0.1029
 8697TIP3    H247583   5.708   4.391  14.154  0.7632  2.0678  0.4451
 8698TIP3   OH247584   1.078   6.736   1.480  0.3792 -0.4151  0.1955
 8698TIP3    H147585   1.072   6.650   1.437  0.3883 -0.3037 -0.0329
 8698TIP3    H247586   1.062   6.799   1.409  0.9771 -0.2076  0.2419
 8699TIP3   OH247587   5.331   2.737  15.370 -0.1587  0.6478 -0.1831
 8699TIP3    H147588   5.306   2.645  15.363 -0.6308  0.7297  0.3105
 8699TIP3    H247589   5.360   2.761  15.283  1.2066 -0.3222 -0.0257
 8700TIP3   OH247590   6.807   5.616  16.454 -0.1233  0.2513  0.1449
 8700TIP3    H147591   6.823   5.651  16.541  0.8481  2.3036 -0.7851
 8700TIP3    H247592   6.838   5.525  16.458  0.7504  0.5894  1.6740
 8701TIP3   OH247593   5.010   4.954   1.603 -0.4099 -0.0320 -0.2696
 8701TIP3    H147594   4.964   4.879   1.567  0.4765 -0.3774 -0.7049
 8701TIP3    H247595   5.063   4.919   1.674 -1.5923  0.5324  0.9451
 8702TIP3   OH247596   2.649   0.874   1.933 -0.0165  0.0611 -0.3767
 8702TIP3    H147597   2.716   0.941   1.927 -0.0342  0.2520  1.2085
 8702TIP3    H247598   2.566   0.922   1.936 -0.1348 -0.1071 -0.8956
 8703TIP3   OH247599   3.631   2.855   1.205  0.4636  0.2324 -0.2244
 8703TIP3    H147600   3.595   2.778   1.248  0.3369  0.0550 -0.6473
 8703TIP3    H247601   3.577   2.866   1.126 -1.7423  2.6917  1.4577
 8704TIP3   OH247602   1.112   0.253   4.081  1.2786  0.3196  0.1488
 8704TIP3    H147603   1.019   0.272   4.066  1.5223  1.4853  0.0342
 8704TIP3    H247604   1.146   0.229   3.995  0.8264 -1.3699  0.4061
 8705TIP3   OH247605   2.254   6.345  13.617 -0.1757  0.1385 -0.0458
 8705TIP3    H147606   2.337   6.326  13.660  0.1517 -0.7633 -1.0449
 8705TIP3    H247607   2.271   6.333  13.524 -0.9472  1.7685 -0.4390
 8706TIP3   OH247608   0.556   4.711   4.590  0.4746 -0.1620 -0.2380
 8706TIP3    H147609   0.533   4.628   4.548  1.3364 -1.8571  2.3358
 8706TIP3    H247610   0.638   4.738   4.548 -0.3163 -0.0550 -1.7685
 8707TIP3   OH247611   5.378   4.513   4.553 -0.1568  0.5216  0.4057
 8707TIP3    H147612   5.351   4.443   4.612 -1.5880  0.6766 -0.0084
 8707TIP3    H247613   5.374   4.474   4.466 -0.2652  0.9075  0.2357
 8708TIP3   OH247614   1.562   3.237  14.014 -0.2050 -0.0579 -0.0833
 8708TIP3    H147615   1.617   3.160  14.002 -1.4561 -0.8502 -0.9948
 8708TIP3    H247616   1.474   3.207  13.992 -0.8100  1.5002  0.0894
 8709TIP3   OH247617   6.170   0.763  16.072 -0.0082  0.5750 -0.3809
 8709TIP3    H147618   6.248   0.795  16.027  0.9502 -0.4639  0.4840
 8709TIP3    H247619   6.124   0.842  16.100  1.0006  1.2038 -0.4538
 8710TIP3   OH247620   1.633   1.143   5.019  0.4061  0.1573 -0.9400
 8710TIP3    H147621   1.567   1.175   5.081  1.4455 -0.5452  0.6081
 8710TIP3    H247622   1.628   1.204   4.945 -0.5514  1.3455  0.0480
 8711TIP3   OH247623   1.703   3.666   5.959  0.4399 -0.0961  0.5795
 8711TIP3    H147624   1.777   3.652   6.018  1.7823  2.0251 -0.4566
 8711TIP3    H247625   1.652   3.736   6.001  1.0155  0.9268 -0.3722
 8712TIP3   OH247626   6.141   1.157   3.913 -0.4451 -0.6978 -0.5946
 8712TIP3    H147627   6.222   1.200   3.884 -1.3267  0.9293 -0.7643
 8712TIP3    H247628   6.077   1.228   3.918 -1.9281 -1.9884 -0.6598
 8713TIP3   OH247629   3.814   0.726   4.628  0.4836 -0.7372 -0.0026
 8713TIP3    H147630   3.736   0.724   4.572 -0.0410  0.3926  0.6496
 8713TIP3    H247631   3.782   0.699   4.714  1.4452 -3.2735 -0.3595
 8714TIP3   OH247632   4.358   1.086   2.312 -0.0177 -0.1496 -0.2326
 8714TIP3    H147633   4.312   1.141   2.375  1.3942  0.8869 -0.0746
 8714TIP3    H247634   4.300   1.011   2.299 -1.5980  0.9541  0.1864
 8715TIP3   OH247635   6.362   4.489  16.583 -0.3692  0.2221 -0.2161
 8715TIP3    H147636   6.354   4.545  16.506 -2.5654 -0.7761 -0.7801
 8715TIP3    H247637   6.312   4.535  16.651 -0.5616 -0.1180 -0.1289
 8716TIP3   OH247638   6.317   4.769   1.828  0.0587  0.2276  0.3315
 8716TIP3    H147639   6.289   4.771   1.919  0.2868  0.4820  0.3980
 8716TIP3    H247640   6.368   4.850   1.817 -0.8743  0.7471 -0.3158
 8717TIP3   OH247641   2.902   6.369  15.061 -0.3145 -0.7578  0.1723
 8717TIP3    H147642   2.837   6.356  15.131 -0.5770  1.4499  0.3902
 8717TIP3    H247643   2.986   6.357  15.105 -0.4862  0.3126  0.8351
 8718TIP3   OH247644   4.050   5.773   3.511  0.0698  0.5157  0.0378
 8718TIP3    H147645   4.042   5.789   3.417 -0.0478  0.3723  0.0222
 8718TIP3    H247646   4.139   5.740   3.522 -0.5974 -1.6318 -0.3559
 8719TIP3   OH247647   4.693   5.724   5.128  0.6236 -0.5479 -0.4106
 8719TIP3    H147648   4.769   5.719   5.072  2.1678 -0.0967  1.5225
 8719TIP3    H247649   4.702   5.650   5.188 -0.6804 -0.7359 -0.4206
 8720TIP3   OH247650   4.159   1.394  14.091 -0.4693 -0.2398 -0.2790
 8720TIP3    H147651   4.138   1.486  14.078 -0.2672 -0.1182  0.2555
 8720TIP3    H247652   4.221   1.393  14.164 -2.3694 -0.9876  1.4287
 8721TIP3   OH247653   4.229   2.636   2.962  0.3235 -0.2778  0.2164
 8721TIP3    H147654   4.233   2.575   3.035 -0.0622  0.0296  0.5011
 8721TIP3    H247655   4.318   2.671   2.956  0.4713 -0.6491  0.2407
 8722TIP3   OH247656   6.704   0.564  11.186 -0.8987 -0.3148 -0.6184
 8722TIP3    H147657   6.659   0.606  11.113 -0.3705  0.1829 -0.6759
 8722TIP3    H247658   6.784   0.617  11.197 -0.0293 -1.5211 -0.9169
 8723TIP3   OH247659   2.555   0.833  12.923 -0.0250  0.3439 -0.4141
 8723TIP3    H147660   2.515   0.828  12.837 -2.3969 -0.6406  0.6514
 8723TIP3    H247661   2.606   0.752  12.931 -0.1208  0.2498 -0.7578
 8724TIP3   OH247662   4.394   3.628  16.628  0.4385  0.1384 -0.3213
 8724TIP3    H147663   4.368   3.706  16.580 -0.1755 -1.1543 -2.1880
 8724TIP3    H247664   4.328   3.619  16.697  0.5552  1.2657 -0.0453
 8725TIP3   OH247665   2.515   6.480   3.318  0.2021 -0.0973 -0.4396
 8725TIP3    H147666   2.451   6.482   3.247  0.4349 -1.3295 -0.7099
 8725TIP3    H247667   2.473   6.527   3.390 -0.8689 -0.5821 -0.7241
 8726TIP3   OH247668   4.229   4.858  17.227  0.3850 -0.0554  0.2692
 8726TIP3    H147669   4.197   4.772  17.254  0.9157 -0.0658  0.8883
 8726TIP3    H247670   4.152   4.901  17.189  0.1823 -0.8986 -0.3078
 8727TIP3   OH247671   3.533   1.947  15.993 -0.1539 -0.0202 -0.2826
 8727TIP3    H147672   3.537   1.980  16.083 -0.0825  0.2283 -0.3770
 8727TIP3    H247673   3.622   1.916  15.975  0.0059  0.5691 -0.5115
 8728TIP3   OH247674   1.758   6.314   1.980  0.2069 -0.1836 -0.8389
 8728TIP3    H147675   1.800   6.341   1.899  0.4035  2.1214 -0.0254
 8728TIP3    H247676   1.679   6.367   1.985  1.2140  1.2277  1.4169
 8729TIP3   OH247677   0.053   0.751  11.330 -0.0366  0.1928 -0.5481
 8729TIP3    H147678   0.124   0.801  11.288 -1.2536  2.3655 -0.1287
 8729TIP3    H247679  -0.016   0.815  11.345 -0.5917 -1.0113  2.6380
 8730TIP3   OH247680   6.384   3.809   4.176 -0.2208 -0.0741  0.5404
 8730TIP3    H147681   6.377   3.758   4.257 -0.6000  1.3620  1.4570
 8730TIP3    H247682   6.308   3.866   4.177 -0.4369 -0.2988 -1.0584
 8731TIP3   OH247683   5.654   0.610   5.290  0.5348  0.5939  0.4081
 8731TIP3    H147684   5.674   0.541   5.227  0.1753  0.9160 -0.0637
 8731TIP3    H247685   5.740   0.644   5.316  0.8138 -1.1160  1.9023
 8732TIP3   OH247686   3.504   3.687  13.673  0.3677  0.2399  0.6155
 8732TIP3    H147687   3.494   3.626  13.746  0.3409  1.9500  2.1278
 8732TIP3    H247688   3.443   3.655  13.606  0.8042 -1.6986  1.0860
 8733TIP3   OH247689   5.778   4.750   1.846  0.0333 -0.2241 -0.2037
 8733TIP3    H147690   5.826   4.687   1.793 -0.8905 -0.0679 -1.2628
 8733TIP3    H247691   5.845   4.793   1.899  0.8472 -1.0983 -0.4925
 8734TIP3   OH247692   2.337   5.797   2.617 -0.5358  0.3119 -0.5946
 8734TIP3    H147693   2.384   5.801   2.534 -0.5867 -2.6226 -0.8594
 8734TIP3    H247694   2.259   5.851   2.604  0.0529  0.8671 -1.9961
 8735TIP3   OH247695   4.894   2.771  10.694 -0.5358  0.0459 -0.3828
 8735TIP3    H147696   4.898   2.733  10.782  1.1109 -1.1062 -0.9094
 8735TIP3    H247697   4.954   2.845  10.697  1.2421 -1.3063 -1.0863
 8736TIP3   OH247698   2.004   1.152   1.039  0.1049  0.3612 -0.5637
 8736TIP3    H147699   1.993   1.181   0.948 -0.7813  1.5161 -0.1207
 8736TIP3    H247700   2.056   1.072   1.033  1.3555  1.2270 -1.9780
 8737TIP3   OH247701   2.617   6.001   0.299 -0.3381 -0.0966 -0.1490
 8737TIP3    H147702   2.597   6.047   0.218 -0.7346 -0.0467 -0.0272
 8737TIP3    H247703   2.591   6.062   0.368  0.1588 -0.0701  0.0187
 8738TIP3   OH247704   0.645   2.596   1.155 -0.3965 -0.0335 -0.3049
 8738TIP3    H147705   0.617   2.686   1.172  0.3038  0.0047  0.7135
 8738TIP3    H247706   0.678   2.597   1.066  0.2085  0.8709 -0.0763
 8739TIP3   OH247707   4.520   2.906   3.983 -0.6635  0.0987  0.2014
 8739TIP3    H147708   4.452   2.973   3.993 -0.1848  0.6258 -0.0483
 8739TIP3    H247709   4.581   2.943   3.919  0.0882 -0.1912  0.7399
 8740TIP3   OH247710   4.165   1.109  11.143  0.2410 -0.8868 -0.1319
 8740TIP3    H147711   4.179   1.192  11.189  0.1444 -0.9450  0.0054
 8740TIP3    H247712   4.205   1.122  11.057 -1.6699  0.0847 -0.9528
 8741TIP3   OH247713   2.884   5.772  12.943  0.0554 -0.0964 -0.4339
 8741TIP3    H147714   2.820   5.843  12.941  1.1254  0.8943 -0.5333
 8741TIP3    H247715   2.886   5.744  13.034 -1.0732 -0.6707 -0.5713
 8742TIP3   OH247716   3.238   6.187   2.616 -0.7485  0.5376  0.1911
 8742TIP3    H147717   3.179   6.250   2.574 -0.3383  1.2134  0.5979
 8742TIP3    H247718   3.240   6.113   2.556 -1.5872  0.7272 -0.0894
 8743TIP3   OH247719   0.248   1.528   3.207 -0.4136  0.5058  0.0427
 8743TIP3    H147720   0.182   1.479   3.255 -2.6402  2.8549 -0.3940
 8743TIP3    H247721   0.293   1.463   3.153 -3.1394 -1.0725 -0.4622
 8744TIP3   OH247722   0.381   0.744  11.578 -0.4447  0.7031  1.0007
 8744TIP3    H147723   0.303   0.721  11.526 -1.1228  0.3242  2.1594
 8744TIP3    H247724   0.347   0.762  11.665  0.7363  0.9224  1.4275
 8745TIP3   OH247725   3.414   5.546   3.075  0.3672  0.7712  0.1856
 8745TIP3    H147726   3.467   5.512   3.147 -0.0830 -0.6730 -0.1203
 8745TIP3    H247727   3.333   5.575   3.116 -0.8365 -2.1303  0.1083
 8746TIP3   OH247728   2.062   5.057  12.724 -0.1218 -0.4073  0.5879
 8746TIP3    H147729   2.034   4.965  12.726  1.6298 -1.0372 -1.2768
 8746TIP3    H247730   2.109   5.066  12.642  0.6753  1.9178  1.2368
 8747TIP3   OH247731   3.445   5.125  11.490 -0.5210  0.0039  0.8554
 8747TIP3    H147732   3.437   5.179  11.411 -0.2754  0.5451  1.1859
 8747TIP3    H247733   3.530   5.151  11.527  0.3261 -1.7052  0.2313
 8748TIP3   OH247734   6.661   5.917   0.746 -0.0215 -0.2902  0.0727
 8748TIP3    H147735   6.653   5.945   0.655  2.4927  0.6290  0.0576
 8748TIP3    H247736   6.753   5.893   0.756  0.5193  2.3028  3.0331
 8749TIP3   OH247737   4.939   6.392  11.867  0.0733 -0.0044  0.3368
 8749TIP3    H147738   4.895   6.328  11.922  0.5528  0.1749  0.9434
 8749TIP3    H247739   5.014   6.420  11.918 -0.4295  1.4506  0.3314
 8750TIP3   OH247740   6.760   3.005  13.804  0.3336 -0.0851 -0.0938
 8750TIP3    H147741   6.755   3.052  13.887 -1.7688  0.0942 -0.2856
 8750TIP3    H247742   6.802   2.922  13.826 -0.1749 -0.0288  1.1592
 8751TIP3   OH247743   0.757   5.136   4.801  0.4864  0.4354 -0.1936
 8751TIP3    H147744   0.702   5.189   4.743 -1.1357  0.2633  1.1030
 8751TIP3    H247745   0.777   5.193   4.875 -1.1988 -0.6289  1.1741
 8752TIP3   OH247746   3.635   0.573   0.705 -0.0551 -0.0926 -0.0681
 8752TIP3    H147747   3.652   0.506   0.772 -1.6730  1.3805  1.9644
 8752TIP3    H247748   3.721   0.592   0.668  0.9566 -0.9199  1.7030
 8753TIP3   OH247749   1.330   3.050  14.743  0.2456 -0.1707  0.1315
 8753TIP3    H147750   1.360   3.117  14.682 -1.6909  0.6663  0.0391
 8753TIP3    H247751   1.339   2.968  14.694 -1.0189  0.4566 -1.2147
 8754TIP3   OH247752   2.147   6.133   4.088  0.0773 -0.2831 -0.2510
 8754TIP3    H147753   2.078   6.134   4.021 -0.9469  0.0079  0.7899
 8754TIP3    H247754   2.187   6.220   4.081 -0.7949  0.1790  0.2667
 8755TIP3   OH247755   1.137   0.027   4.520  0.4066  0.3501 -0.5325
 8755TIP3    H147756   1.155   0.095   4.455  1.0837 -2.2056 -3.2539
 8755TIP3    H247757   1.224   0.002   4.553  0.2703  0.0608 -0.3852
 8756TIP3   OH247758   0.434   3.606   5.471  0.2411  0.1776  0.4983
 8756TIP3    H147759   0.381   3.602   5.392 -0.4662 -1.1080  1.0182
 8756TIP3    H247760   0.482   3.689   5.463 -1.1209  0.9113 -0.4319
 8757TIP3   OH247761   5.490   2.155  15.560 -0.1681 -0.2849  0.3589
 8757TIP3    H147762   5.499   2.189  15.649 -1.4256  1.1455 -0.0111
 8757TIP3    H247763   5.402   2.118  15.558 -0.0298 -0.5820 -0.1956
 8758TIP3   OH247764   2.602   3.964   0.717  0.6658  0.8617  0.3136
 8758TIP3    H147765   2.542   3.897   0.685  2.5428 -0.4045 -0.8205
 8758TIP3    H247766   2.676   3.914   0.752  1.3057  2.3472  1.1467
 8759TIP3   OH247767   6.533   2.445   5.120 -0.5116  0.7256 -0.1697
 8759TIP3    H147768   6.562   2.435   5.210 -0.2914  0.3231 -0.2849
 8759TIP3    H247769   6.483   2.366   5.101 -0.5160  0.7858 -0.4144
 8760TIP3   OH247770   4.001   2.258  15.860 -0.1243  0.2325 -0.1082
 8760TIP3    H147771   4.050   2.226  15.784  0.6752  0.6810  0.2172
 8760TIP3    H247772   4.027   2.349  15.870 -0.7871  0.3903  0.2637
 8761TIP3   OH247773   3.809   5.984   1.180 -0.4349  0.2086  0.2167
 8761TIP3    H147774   3.898   6.011   1.202 -0.0621  0.2677 -1.3130
 8761TIP3    H247775   3.759   6.065   1.179  0.4727  0.8842 -3.3498
 8762TIP3   OH247776   2.348   4.503   1.125 -0.2469  0.6321  0.0222
 8762TIP3    H147777   2.379   4.544   1.206 -0.6294  1.2621 -0.1388
 8762TIP3    H247778   2.252   4.509   1.131 -0.3815 -1.3659  0.5690
 8763TIP3   OH247779   1.923   2.112  12.851 -0.1546  0.5567 -0.4350
 8763TIP3    H147780   1.833   2.115  12.883  0.0451  0.6912  0.1287
 8763TIP3    H247781   1.976   2.100  12.930  0.3505  0.9009 -0.7174
 8764TIP3   OH247782   6.012   2.682  16.787 -0.5112 -0.7648 -0.0643
 8764TIP3    H147783   5.980   2.596  16.759  0.7499 -1.3490  0.2252
 8764TIP3    H247784   5.987   2.741  16.716  0.7259 -1.8233 -1.4348
 8765TIP3   OH247785   3.008   2.320  12.747  0.7207  0.1892 -0.2542
 8765TIP3    H147786   3.023   2.248  12.685 -0.6178 -0.0379 -0.3624
 8765TIP3    H247787   3.045   2.289  12.830  0.2510 -0.5947 -0.3253
 8766TIP3   OH247788   2.331   3.885   0.340 -0.0647  0.4140 -0.0579
 8766TIP3    H147789   2.239   3.893   0.315 -0.0050  0.4652 -0.2682
 8766TIP3    H247790   2.359   3.976   0.354 -0.2075  0.3574  0.6050
 8767TIP3   OH247791   2.338   1.491   0.095  0.2418 -0.2474  0.2285
 8767TIP3    H147792   2.282   1.532   0.030  0.9435 -0.4676 -0.5349
 8767TIP3    H247793   2.427   1.510   0.066  0.5735 -0.3289  1.1368
 8768TIP3   OH247794   5.538   5.725   2.515 -0.9164  0.2354 -0.2969
 8768TIP3    H147795   5.611   5.710   2.455 -0.0641  0.2949  0.7088
 8768TIP3    H247796   5.501   5.637   2.530 -0.5196  0.0953 -0.1407
 8769TIP3   OH247797   4.864   4.653   2.176  0.1404  0.5627 -0.5009
 8769TIP3    H147798   4.834   4.641   2.266  1.4214 -1.3987 -0.2734
 8769TIP3    H247799   4.841   4.744   2.155  0.3703  1.2895  2.0149
 8770TIP3   OH247800   1.380   4.072  14.643 -0.2784  0.1668 -0.1937
 8770TIP3    H147801   1.436   4.121  14.583  1.8393  0.4840  1.8809
 8770TIP3    H247802   1.382   3.982  14.609 -0.8253  0.7062 -1.7171
 8771TIP3   OH247803   3.585   6.738  17.208  0.2995  0.3067  0.3836
 8771TIP3    H147804   3.673   6.757  17.241 -0.6438  1.8641  2.1472
 8771TIP3    H247805   3.559   6.817  17.161  0.0366 -0.3653 -0.6335
 8772TIP3   OH247806   4.922   0.282   5.470  0.1248  0.7403  0.1166
 8772TIP3    H147807   5.004   0.301   5.516  0.3565  1.8798 -0.7379
 8772TIP3    H247808   4.916   0.186   5.471  2.0935  0.5571 -0.8650
 8773TIP3   OH247809   3.949   3.823  11.636 -0.5344 -0.4367 -0.0675
 8773TIP3    H147810   3.912   3.911  11.645  1.8865  0.6096  0.5640
 8773TIP3    H247811   3.912   3.789  11.555  0.7695  2.4478 -2.0359
 8774TIP3   OH247812   2.113   0.806  16.892  0.3254 -0.1501 -0.2727
 8774TIP3    H147813   2.050   0.744  16.928  0.2899  0.6337  1.0534
 8774TIP3    H247814   2.159   0.841  16.968  0.9274  0.8286 -1.0622
 8775TIP3   OH247815   5.482   5.463   2.540 -0.2132 -0.8189  0.4448
 8775TIP3    H147816   5.448   5.376   2.562 -0.9933 -0.4107  0.9062
 8775TIP3    H247817   5.577   5.454   2.546 -0.2413 -1.8867 -0.4619
 8776TIP3   OH247818   4.678   5.578   1.845 -0.5943 -0.2078  0.0532
 8776TIP3    H147819   4.596   5.550   1.884 -0.7674  1.6284  1.0870
 8776TIP3    H247820   4.736   5.597   1.919  0.6491 -1.0791 -0.6494
 8777TIP3   OH247821   2.359   5.446  13.434  0.2179 -0.7028 -0.7207
 8777TIP3    H147822   2.354   5.397  13.351  0.2313  0.9828 -1.7525
 8777TIP3    H247823   2.446   5.424  13.469  0.2420 -1.3746 -1.1852
 8778TIP3   OH247824   4.866   2.431   4.527 -0.1607  0.1063  0.3385
 8778TIP3    H147825   4.945   2.481   4.504 -0.7123  1.4605  1.1966
 8778TIP3    H247826   4.899   2.351   4.568  0.7676  0.2709 -0.0615
 8779TIP3   OH247827   3.977   6.154   0.008 -0.1167  0.1417 -0.4395
 8779TIP3    H147828   3.965   6.210  -0.069 -2.1612  1.0857  0.4794
 8779TIP3    H247829   3.891   6.115   0.023  1.2931 -3.7887 -1.3160
 8780TIP3   OH247830   6.061   5.333   2.871 -1.1989 -0.0890 -0.2608
 8780TIP3    H147831   6.055   5.238   2.884 -1.4487 -0.0835 -0.3129
 8780TIP3    H247832   6.029   5.370   2.953 -1.0358 -0.0506 -0.2155
 8781TIP3   OH247833   0.185   2.016  12.265 -0.3155 -0.0517 -0.2834
 8781TIP3    H147834   0.162   2.089  12.208  1.4220  0.5983 -0.1987
 8781TIP3    H247835   0.249   1.966  12.215 -0.4869 -0.7759  0.2048
 8782TIP3   OH247836   1.502   4.826   2.221  0.2689 -0.1199 -0.5053
 8782TIP3    H147837   1.582   4.837   2.273  0.2868  0.0083 -0.5585
 8782TIP3    H247838   1.530   4.844   2.131  0.3150 -0.6933 -0.6071
 8783TIP3   OH247839   1.426   4.179  11.013  0.1013  0.2531  0.1011
 8783TIP3    H147840   1.354   4.231  10.979 -1.0090 -0.1153  1.7896
 8783TIP3    H247841   1.491   4.243  11.043 -1.3004  0.7573  2.2803
 8784TIP3   OH247842   1.582   3.081  14.369 -0.1324  0.1357 -0.7736
 8784TIP3    H147843   1.638   3.018  14.324  1.1367  1.2225 -0.8054
 8784TIP3    H247844   1.604   3.165  14.328 -1.0876  0.7325 -0.1021
 8785TIP3   OH247845   3.580   1.486   2.886 -0.1091 -0.0835  0.1894
 8785TIP3    H147846   3.558   1.406   2.934  0.1507  0.9022  2.0661
 8785TIP3    H247847   3.496   1.517   2.852 -0.1481 -1.3626 -0.9863
 8786TIP3   OH247848   3.700   5.566  11.924  0.2755  0.8816 -0.2556
 8786TIP3    H147849   3.642   5.618  11.979 -0.8709 -0.1381 -0.4429
 8786TIP3    H247850   3.757   5.630  11.881  0.6291  1.7545  1.4457
 8787TIP3   OH247851   2.466   6.014  14.602 -0.1833 -0.6328 -0.0025
 8787TIP3    H147852   2.400   6.049  14.661  1.7889  0.9027  1.4536
 8787TIP3    H247853   2.476   5.922  14.627 -0.4191 -0.3742  1.0905
 8788TIP3   OH247854   2.097   5.207  11.288  0.3616  0.1533 -0.3435
 8788TIP3    H147855   2.017   5.180  11.243 -0.2555  0.3021  0.6549
 8788TIP3    H247856   2.067   5.256  11.364  1.3903 -0.0480  0.2085
 8789TIP3   OH247857   3.626   4.330  14.870  0.2511 -0.2654  0.0240
 8789TIP3    H147858   3.710   4.357  14.832  0.1122  1.6000  0.9214
 8789TIP3    H247859   3.561   4.387  14.827 -0.1840  0.2538  1.3076
 8790TIP3   OH247860   2.058   6.694  17.231 -0.1933  0.4827  0.0315
 8790TIP3    H147861   2.085   6.671  17.320 -0.6706  2.5479  0.7717
 8790TIP3    H247862   1.996   6.766  17.243 -1.8819 -0.5580 -1.8866
 8791TIP3   OH247863   3.113   5.078  15.012 -0.6274 -0.0643 -0.1497
 8791TIP3    H147864   3.124   5.162  14.966  3.2354 -1.3198 -1.9543
 8791TIP3    H247865   3.153   5.094  15.098 -0.2758  0.0819 -0.3351
 8792TIP3   OH247866   1.947   1.628   5.509  0.6414  0.1071 -0.1096
 8792TIP3    H147867   1.965   1.721   5.501  1.1571  0.1707  1.4782
 8792TIP3    H247868   2.028   1.585   5.482 -0.2207 -0.0142 -2.8064
 8793TIP3   OH247869   6.682   3.457  15.690  0.2487  0.0594  0.0061
 8793TIP3    H147870   6.701   3.365  15.671 -0.1729  0.1297 -0.7938
 8793TIP3    H247871   6.591   3.469  15.664  0.6969  1.0380 -1.2446
 8794TIP3   OH247872   5.924   3.446   4.942  0.0314 -1.1087 -0.1731
 8794TIP3    H147873   5.946   3.525   4.893 -1.6112 -0.8843 -0.6238
 8794TIP3    H247874   5.841   3.467   4.985 -0.5432 -2.6311 -0.4542
 8795TIP3   OH247875   1.060   3.886  16.946  0.4546 -0.6275  0.5595
 8795TIP3    H147876   1.053   3.975  16.912 -0.0028 -1.2893 -1.2199
 8795TIP3    H247877   1.148   3.857  16.922  0.8274 -0.4575  1.6825
 8796TIP3   OH247878   4.769   2.511   0.069  0.3635  0.2939  0.1427
 8796TIP3    H147879   4.743   2.424   0.098  0.4502 -0.0755 -0.8376
 8796TIP3    H247880   4.820   2.496  -0.010  0.4243  1.2311 -0.0118
 8797TIP3   OH247881   6.720   3.871  13.404  0.0707  0.6635  0.0837
 8797TIP3    H147882   6.803   3.828  13.425 -0.1125 -0.3328 -1.1306
 8797TIP3    H247883   6.656   3.833  13.464 -0.0973 -0.8463 -1.0026
 8798TIP3   OH247884   0.288   6.350  16.320 -0.3441  0.3517  0.4583
 8798TIP3    H147885   0.358   6.399  16.364 -0.4601 -0.4420  1.5806
 8798TIP3    H247886   0.281   6.390  16.234  2.5934 -0.5546 -0.3388
 8799TIP3   OH247887   2.008   5.386  17.068  0.0759 -0.1028  0.2339
 8799TIP3    H147888   2.000   5.431  17.152  0.0204  0.6013 -0.1391
 8799TIP3    H247889   2.032   5.455  17.006  0.2777 -0.6410 -0.3015
 8800TIP3   OH247890   5.489   2.326   1.161  0.1920  0.0357  0.0057
 8800TIP3    H147891   5.456   2.404   1.116 -1.5619  0.3667  1.7559
 8800TIP3    H247892   5.429   2.256   1.134  0.3127 -0.1851  0.3072
 8801TIP3   OH247893   0.409   1.256   2.110  0.0963  0.3653 -0.2223
 8801TIP3    H147894   0.444   1.342   2.087 -0.0776  0.6843  0.6581
 8801TIP3    H247895   0.483   1.210   2.149  0.2112  0.0742 -0.7679
 8802TIP3   OH247896   4.771   0.451   3.554  0.5764  0.0030 -0.6434
 8802TIP3    H147897   4.700   0.386   3.554  1.5516 -1.1224 -2.0151
 8802TIP3    H247898   4.810   0.444   3.641 -2.7950  2.8049  1.3307
 8803TIP3   OH247899   0.644   0.311   3.103 -0.1548  0.1839  0.1023
 8803TIP3    H147900   0.607   0.227   3.129 -1.9512  1.3201  1.4825
 8803TIP3    H247901   0.735   0.307   3.131 -0.0962 -1.4063 -0.1955
 8804TIP3   OH247902   2.758   1.182  16.827  0.2550  0.0758 -0.5551
 8804TIP3    H147903   2.770   1.273  16.801  1.4524 -0.4228 -1.8558
 8804TIP3    H247904   2.684   1.152  16.775  2.0021 -0.6234 -2.7869
 8805TIP3   OH247905   4.968   0.088  15.171  0.2826 -0.2400 -0.4709
 8805TIP3    H147906   4.986   0.179  15.151  0.1657 -0.1609 -0.2175
 8805TIP3    H247907   5.034   0.064  15.236  0.6616 -0.4968 -0.9430
 8806TIP3   OH247908   0.963   4.016   0.409 -0.7362 -0.6393 -0.3888
 8806TIP3    H147909   1.019   4.021   0.331 -0.9981 -0.3207 -0.5565
 8806TIP3    H247910   0.921   3.930   0.402 -2.4015  0.2159 -1.7387
 8807TIP3   OH247911   3.969   3.265   4.208  0.2840  0.1237 -0.0036
 8807TIP3    H147912   4.023   3.306   4.276  0.0797  1.2085 -0.4783
 8807TIP3    H247913   4.005   3.297   4.126  1.2531 -2.0570 -0.5213
 8808TIP3   OH247914   2.941   0.639  16.102  0.1439  0.2451  0.5529
 8808TIP3    H147915   2.954   0.728  16.135  0.6946  0.0846  0.7831
 8808TIP3    H247916   3.022   0.619  16.055 -0.6703  0.5078 -1.0232
 8809TIP3   OH247917   5.412   4.175  16.135  0.0361  0.1048 -0.7417
 8809TIP3    H147918   5.502   4.199  16.159 -0.5210 -0.4532  2.3435
 8809TIP3    H247919   5.384   4.243  16.074  2.3207  0.6475 -1.2617
 8810TIP3   OH247920   4.380   0.798   1.686 -0.2899 -0.1649  0.0193
 8810TIP3    H147921   4.369   0.840   1.771  1.5645  1.1769 -0.3473
 8810TIP3    H247922   4.312   0.730   1.684 -1.4819  0.8754  1.8493
 8811TIP3   OH247923   6.678   1.414   5.415 -0.4131  0.5181 -0.0841
 8811TIP3    H147924   6.727   1.356   5.474  1.3641  1.5365 -0.5201
 8811TIP3    H247925   6.733   1.423   5.338 -1.3627  1.5957 -0.6709
 8812TIP3   OH247926   1.928   6.038  16.564 -0.4128 -0.2919  1.1510
 8812TIP3    H147927   1.887   6.117  16.527 -0.2139  0.1924  1.9392
 8812TIP3    H247928   1.909   6.043  16.657  0.3619 -0.7156  1.3407
 8813TIP3   OH247929   1.806   3.211  13.552  0.0347 -0.4206 -0.0754
 8813TIP3    H147930   1.796   3.224  13.646 -0.1708  1.1478 -0.2951
 8813TIP3    H247931   1.890   3.251  13.531  0.5769 -1.6811 -0.4189
 8814TIP3   OH247932   4.576   5.410   2.214 -0.5975  0.0450 -0.7109
 8814TIP3    H147933   4.659   5.366   2.235 -0.6498  0.3753  0.2247
 8814TIP3    H247934   4.510   5.358   2.259 -0.8262  0.1915 -0.8783
 8815TIP3   OH247935   4.140   6.010   3.647  0.0560 -0.6761 -0.4683
 8815TIP3    H147936   4.162   5.917   3.635 -1.5290 -1.2744  0.9309
 8815TIP3    H247937   4.045   6.013   3.643  0.1158  1.1706 -1.9918
 8816TIP3   OH247938   3.573   4.126  12.156  0.4180 -0.0506  0.0609
 8816TIP3    H147939   3.626   4.086  12.225 -0.1311  0.2930  0.6825
 8816TIP3    H247940   3.556   4.054  12.095 -0.8266 -0.8811  1.3294
 8817TIP3   OH247941   3.625   4.440   0.611 -0.0901 -0.0351 -0.5292
 8817TIP3    H147942   3.611   4.498   0.686 -0.0135  1.2305 -1.4627
 8817TIP3    H247943   3.720   4.434   0.602 -0.0361  2.0410 -2.1246
 8818TIP3   OH247944   4.218   2.459  12.058 -0.4539 -0.6378 -0.2033
 8818TIP3    H147945   4.298   2.428  12.015 -0.7340 -0.5626 -0.7836
 8818TIP3    H247946   4.181   2.523  11.997 -2.3646 -2.5823 -1.2426
 8819TIP3   OH247947   3.191   3.901   4.285 -0.0676  0.2037  0.7107
 8819TIP3    H147948   3.278   3.910   4.322  0.3603  2.5776 -0.6509
 8819TIP3    H247949   3.202   3.923   4.192 -1.9628 -0.3428  0.3068
 8820TIP3   OH247950   3.066   2.355   3.053  0.3515 -0.1080 -0.0084
 8820TIP3    H147951   3.044   2.418   2.983  1.4569 -0.4324 -0.6719
 8820TIP3    H247952   3.029   2.272   3.023 -2.1902  0.3896  1.4386
 8821TIP3   OH247953   1.814   0.197  13.560 -0.5743  0.7804  0.3231
 8821TIP3    H147954   1.837   0.115  13.516 -0.3967  1.1884 -0.3664
 8821TIP3    H247955   1.812   0.175  13.653  1.6910  0.5044  0.3454
 8822TIP3   OH247956   4.623   2.798  13.266  0.7695 -0.0878  0.0678
 8822TIP3    H147957   4.639   2.704  13.268 -0.1815 -0.2568  0.9206
 8822TIP3    H247958   4.528   2.806  13.277  0.7478  0.9486 -0.7279
 8823TIP3   OH247959   6.575   4.410   0.958 -0.1832 -0.1276 -0.0256
 8823TIP3    H147960   6.632   4.335   0.941  0.8067  0.7112 -0.5584
 8823TIP3    H247961   6.596   4.437   1.047  0.8361  0.6248 -0.4651
 8824TIP3   OH247962   0.787   1.931   6.251  0.3475  0.2600 -0.5754
 8824TIP3    H147963   0.704   1.964   6.284 -0.1040 -1.1057 -0.2981
 8824TIP3    H247964   0.852   1.957   6.317 -0.5658 -2.6213  1.6145
 8825TIP3   OH247965   2.016   2.977  16.028 -0.1122 -0.8048 -0.4281
 8825TIP3    H147966   1.943   3.026  15.990 -0.7069 -0.7514  0.7385
 8825TIP3    H247967   2.069   3.043  16.071 -0.6061 -1.0965  0.6595
 8826TIP3   OH247968   4.054   1.024  16.903 -0.2827  0.1896  0.3007
 8826TIP3    H147969   4.079   0.938  16.869  0.0611  0.4222 -0.0473
 8826TIP3    H247970   3.999   1.005  16.979 -0.2223 -0.3362  0.2159
 8827TIP3   OH247971   0.099   2.429  10.695 -0.1243 -0.0966 -0.3509
 8827TIP3    H147972   0.031   2.469  10.750 -0.7685 -1.2179 -0.2804
 8827TIP3    H247973   0.132   2.356  10.748  1.3887  0.6333 -0.2551
 8828TIP3   OH247974   4.625   2.151  16.450 -0.1073 -0.3614 -0.2781
 8828TIP3    H147975   4.596   2.197  16.371 -0.0341 -0.2800 -0.2575
 8828TIP3    H247976   4.719   2.169  16.455 -0.0695 -0.5552 -0.2973
 8829TIP3   OH247977   1.001   1.900   3.097 -0.0428 -0.0927  0.0738
 8829TIP3    H147978   1.034   1.821   3.055  1.0709  0.6056 -0.4294
 8829TIP3    H247979   1.048   1.971   3.054 -1.5978  0.9131 -0.0430
 8830TIP3   OH247980   6.267   5.885  12.441  0.5354 -0.3124 -0.2249
 8830TIP3    H147981   6.186   5.919  12.403  1.6078  1.3090 -1.1754
 8830TIP3    H247982   6.320   5.859  12.365  0.0697 -3.5553  0.4178
 8831TIP3   OH247983   1.203   2.045   0.506  0.0310 -0.4453 -0.7792
 8831TIP3    H147984   1.183   2.038   0.413 -2.1920  0.5061 -0.4449
 8831TIP3    H247985   1.117   2.050   0.549  0.9973  0.3336  1.2074
 8832TIP3   OH247986   2.106   3.906   0.169  0.1518 -0.3261 -0.0844
 8832TIP3    H147987   2.047   3.879   0.099 -0.3015  1.3805 -0.3916
 8832TIP3    H247988   2.058   3.886   0.249 -1.1864  1.6549 -0.3327
 8833TIP3   OH247989   1.906   0.302  13.319  0.2542 -0.1525  0.0627
 8833TIP3    H147990   1.848   0.292  13.395 -0.3323 -0.4061 -0.4028
 8833TIP3    H247991   1.933   0.394  13.321 -1.3780  0.3935 -0.5318
 8834TIP3   OH247992   0.825   3.539   3.405  0.4130 -0.4244 -0.0088
 8834TIP3    H147993   0.915   3.564   3.427  0.0036 -1.6752  3.6847
 8834TIP3    H247994   0.799   3.603   3.338  3.9949 -0.0642 -1.2930
 8835TIP3   OH247995   1.829   5.545   0.953  0.7321 -0.4143 -0.2178
 8835TIP3    H147996   1.778   5.572   0.877 -0.2881  1.7342  1.1327
 8835TIP3    H247997   1.765   5.528   1.021  1.6308 -2.2403  0.2475
 8836TIP3   OH247998   1.225   6.339  16.915  0.4298  0.3282 -0.0843
 8836TIP3    H147999   1.308   6.325  16.869  1.6583  1.8675  1.5532
 8836TIP3    H248000   1.224   6.432  16.936 -0.4016 -0.1516  2.3533
 8837TIP3   OH248001   5.294   0.630   3.179 -0.6808 -0.5122 -0.7531
 8837TIP3    H148002   5.225   0.675   3.229  1.4350  0.0403  1.8617
 8837TIP3    H248003   5.280   0.537   3.196  1.1736 -0.2887  2.7807
 8838TIP3   OH248004   5.627   1.031   5.512 -0.0326  0.3034  0.5052
 8838TIP3    H148005   5.559   1.081   5.558 -1.3440 -0.4326 -0.5804
 8838TIP3    H248006   5.683   1.098   5.473 -0.3664  0.9309  1.0794
 8839TIP3   OH248007   1.483   5.905  16.179 -0.3367 -0.2186  0.0779
 8839TIP3    H148008   1.446   5.940  16.098  2.0265 -1.0387 -1.4766
 8839TIP3    H248009   1.534   5.829  16.151  0.7782 -0.3764  2.3041
 8840TIP3   OH248010   2.554   5.953  15.575 -0.6243 -0.4968 -0.1376
 8840TIP3    H148011   2.616   5.883  15.597  1.7453  1.0136 -1.5614
 8840TIP3    H248012   2.500   5.916  15.505 -1.9012 -2.0832  1.5904
 8841TIP3   OH248013   4.333   0.352  16.706  0.1370  0.1226  0.2457
 8841TIP3    H148014   4.374   0.437  16.690 -1.4052  1.1407  1.3992
 8841TIP3    H248015   4.352   0.301  16.627  0.8107  1.6445 -0.6275
 8842TIP3   OH248016   2.853   4.628   2.692  0.0796 -0.1391 -0.2127
 8842TIP3    H148017   2.925   4.585   2.737 -0.1425 -0.0488  0.2351
 8842TIP3    H248018   2.844   4.580   2.610  0.8560  0.0523 -0.4186
 8843TIP3   OH248019   3.031   4.855  13.078  0.0814 -0.0302 -0.3571
 8843TIP3    H148020   3.108   4.799  13.080 -1.3503 -2.1824 -1.6139
 8843TIP3    H248021   2.988   4.839  13.163  0.1351 -0.1700 -0.3562
 8844TIP3   OH248022   3.228   1.244  11.132  0.1235  0.0966 -0.0516
 8844TIP3    H148023   3.269   1.286  11.057 -0.7455  0.7350 -0.1785
 8844TIP3    H248024   3.156   1.302  11.156 -1.3035 -1.4585 -0.4190
 8845TIP3   OH248025   1.021   3.322  11.570  0.0655  0.0805  0.7143
 8845TIP3    H148026   1.069   3.319  11.653  0.7540  2.2000  0.4516
 8845TIP3    H248027   1.033   3.412  11.539 -0.8286 -0.4508 -1.3097
 8846TIP3   OH248028   6.561   3.918   0.413  0.2364  0.0689 -0.3439
 8846TIP3    H148029   6.500   3.903   0.486  1.7305 -1.3608  0.6927
 8846TIP3    H248030   6.620   3.986   0.446  0.6737 -0.2968 -0.3768
 8847TIP3   OH248031   5.455   5.181  12.473 -0.1391 -0.4916  0.2360
 8847TIP3    H148032   5.485   5.222  12.392  1.4793 -0.8249  0.6278
 8847TIP3    H248033   5.365   5.156  12.455 -1.3017  3.3221  0.0382
 8848TIP3   OH248034   2.725   3.357   2.601  0.1476  0.7037  0.2620
 8848TIP3    H148035   2.726   3.351   2.696  0.0244  1.7435  0.3356
 8848TIP3    H248036   2.795   3.419   2.580  2.4144 -1.8991 -0.5488
 8849TIP3   OH248037   3.923   1.094   1.011 -1.0002 -0.1052  0.2557
 8849TIP3    H148038   3.899   1.175   1.055 -1.3044  0.1099 -0.3017
 8849TIP3    H248039   3.916   1.027   1.079  0.3088  0.4733  1.0141
 8850TIP3   OH248040   2.334   5.479  16.930 -0.0096  0.7273  0.1149
 8850TIP3    H148041   2.249   5.514  16.903  0.6764  1.2921 -1.4788
 8850TIP3    H248042   2.330   5.386  16.910 -1.3304  0.0660  3.0191
 8851TIP3   OH248043   6.394   4.803   5.627 -0.3202 -0.2619  0.0891
 8851TIP3    H148044   6.388   4.713   5.661  1.3517 -0.3862  0.1482
 8851TIP3    H248045   6.307   4.840   5.641 -0.7947 -1.5960  0.8504
 8852TIP3   OH248046   4.727   2.492  12.560  0.3527 -0.6320  0.5797
 8852TIP3    H148047   4.758   2.533  12.641 -0.6992  0.2997  0.5408
 8852TIP3    H248048   4.748   2.399  12.571 -0.8766 -0.7542  2.5122
 8853TIP3   OH248049   1.485   3.319   3.521  0.7072 -0.0949  0.3090
 8853TIP3    H148050   1.538   3.397   3.508 -0.4251  0.6789  0.1895
 8853TIP3    H248051   1.527   3.252   3.468  1.4004  0.5671  0.0042
 8854TIP3   OH248052   6.224   2.314   1.785 -0.3796 -0.9524  1.0095
 8854TIP3    H148053   6.319   2.322   1.785 -0.2828 -1.9008  0.5053
 8854TIP3    H248054   6.206   2.233   1.832 -0.9905 -0.3985  1.7538
 8855TIP3   OH248055   4.581   5.848  15.499  0.1256 -0.7689  0.2434
 8855TIP3    H148056   4.493   5.810  15.498  0.5117 -1.6726 -0.5527
 8855TIP3    H248057   4.596   5.870  15.591 -1.8713  1.7207  0.0744
 8856TIP3   OH248058   3.913   0.226   0.586  0.1401  0.7953 -0.4250
 8856TIP3    H148059   3.877   0.149   0.631  1.8260  1.1498  1.7050
 8856TIP3    H248060   3.944   0.192   0.502  0.1805 -0.7300  0.1766
 8857TIP3   OH248061   4.632   2.392   2.054 -0.3614  0.0222 -0.1629
 8857TIP3    H148062   4.677   2.439   2.124 -0.2421 -1.6449  0.9280
 8857TIP3    H248063   4.683   2.312   2.041 -0.5914  0.1281 -1.9198
 8858TIP3   OH248064   0.610   5.600   6.473 -0.1331 -0.1225  0.1430
 8858TIP3    H148065   0.649   5.554   6.398  2.6155  2.6034 -0.2789
 8858TIP3    H248066   0.531   5.641   6.437  0.2349 -0.2379 -0.8235
 8859TIP3   OH248067   5.950   1.797   0.222 -0.0563  0.8738 -0.1499
 8859TIP3    H148068   6.044   1.800   0.207 -0.3841  0.3182 -2.8518
 8859TIP3    H248069   5.915   1.867   0.168 -1.2128  1.2829  1.0675
 8860TIP3   OH248070   4.871   5.534  15.870  0.4641  0.4486  0.1398
 8860TIP3    H148071   4.804   5.471  15.897  1.9449 -1.4373 -0.3678
 8860TIP3    H248072   4.953   5.497  15.901  1.4012  2.1685 -0.1634
 8861TIP3   OH248073   1.482   2.106   0.547  0.0849 -0.8793 -0.1207
 8861TIP3    H148074   1.391   2.077   0.552  0.0131 -0.5270  0.8978
 8861TIP3    H248075   1.480   2.180   0.486 -0.4461 -0.4427  0.4091
 8862TIP3   OH248076   6.100   0.338   4.307  0.2590  0.0116  0.3589
 8862TIP3    H148077   6.167   0.375   4.249 -1.1754  1.2593 -0.5548
 8862TIP3    H248078   6.137   0.349   4.395  0.2092  3.1799  0.1190
 8863TIP3   OH248079   1.669   2.321   0.863 -0.2417 -0.2182  0.2498
 8863TIP3    H148080   1.749   2.321   0.915  0.6937  1.7393 -1.0732
 8863TIP3    H248081   1.647   2.228   0.853  2.5515 -0.9007 -0.3797
 8864TIP3   OH248082   3.100   1.857   2.990 -0.2271  0.6860  0.1596
 8864TIP3    H148083   3.152   1.929   2.953 -0.7005  0.6025 -0.7048
 8864TIP3    H248084   3.157   1.781   2.983 -0.0614  0.8015  0.2351
 8865TIP3   OH248085   5.860   1.891  10.987 -0.0941  0.0558 -0.0383
 8865TIP3    H148086   5.824   1.885  10.899  0.6088 -0.3183 -0.3131
 8865TIP3    H248087   5.950   1.924  10.974  0.0340 -0.0602  0.5278
 8866TIP3   OH248088   2.477   5.472  15.986  0.0438  0.7549  0.0056
 8866TIP3    H148089   2.521   5.499  16.067 -0.3410  0.2789  0.3823
 8866TIP3    H248090   2.384   5.481  16.005 -0.1012 -0.6788  0.1094
 8867TIP3   OH248091   1.472   5.753  14.790  0.3213 -0.7934 -0.1123
 8867TIP3    H148092   1.530   5.700  14.735  0.5304 -0.8434  0.1538
 8867TIP3    H248093   1.526   5.776  14.866  0.2320 -0.1921 -0.2294
 8868TIP3   OH248094   2.123   4.387   0.856  0.7882  0.2806 -0.8029
 8868TIP3    H148095   2.192   4.405   0.793  1.3233  1.5418  0.0999
 8868TIP3    H248096   2.166   4.332   0.922  0.4724 -0.3040 -1.0821
 8869TIP3   OH248097   1.837   5.020  11.336  0.2166 -0.3337  0.0849
 8869TIP3    H148098   1.854   5.058  11.422  0.3906  1.4877 -0.7002
 8869TIP3    H248099   1.893   4.943  11.331  0.5526 -0.1890  1.4164
 8870TIP3   OH248100   4.272   3.650   3.673 -0.3403 -0.4670  0.1352
 8870TIP3    H148101   4.313   3.692   3.597  0.4637 -3.7856 -1.5014
 8870TIP3    H248102   4.179   3.671   3.665  0.1216  1.7736  0.0677
 8871TIP3   OH248103   3.293   5.032  12.842  0.2061  0.2947  0.0099
 8871TIP3    H148104   3.234   5.020  12.916 -3.7352 -0.8598 -2.9423
 8871TIP3    H248105   3.335   4.947  12.830 -0.0242  0.1415  0.2820
 8872TIP3   OH248106   3.155   5.339  14.364  0.3234  0.6773  0.0946
 8872TIP3    H148107   3.117   5.350  14.277 -1.1153  0.2617  0.6469
 8872TIP3    H248108   3.128   5.418  14.412  0.4689  0.5500  0.3855
 8873TIP3   OH248109   0.067   3.200  11.476 -0.2902  0.0062  0.5309
 8873TIP3    H148110   0.018   3.229  11.399  0.6013 -0.1114 -0.0908
 8873TIP3    H248111   0.004   3.149  11.526 -1.2928  1.2582  0.6101
 8874TIP3   OH248112   5.675   3.606  11.183 -0.5294  0.6468 -0.1510
 8874TIP3    H148113   5.596   3.562  11.215  0.0790 -0.0657  0.3981
 8874TIP3    H248114   5.723   3.538  11.137 -0.6593  1.3015 -1.2955
 8875TIP3   OH248115   1.377   4.349   5.498  0.3399 -0.6168  0.3494
 8875TIP3    H148116   1.363   4.384   5.586  2.4530 -0.3644  0.6509
 8875TIP3    H248117   1.473   4.345   5.490  0.1714 -1.7869 -1.4870
 8876TIP3   OH248118   4.688   4.334   3.880  0.4184  0.6135  0.1276
 8876TIP3    H148119   4.647   4.321   3.794  0.1430  0.8090  0.2276
 8876TIP3    H248120   4.642   4.409   3.917 -0.3401 -0.2477  0.9752
 8877TIP3   OH248121   3.448   1.048  15.487  0.3246  0.0991  0.3221
 8877TIP3    H148122   3.480   0.958  15.490 -1.5141 -0.6080 -0.1586
 8877TIP3    H248123   3.433   1.072  15.578  0.3007 -0.2716  0.4151
 8878TIP3   OH248124   2.748   0.630   5.495  0.1658 -0.3621 -0.2469
 8878TIP3    H148125   2.772   0.674   5.576  0.1003  0.2383 -0.5400
 8878TIP3    H248126   2.678   0.570   5.520  1.2761 -1.4056  0.4298
 8879TIP3   OH248127   4.173   4.282  12.854  0.0303  0.4010  0.0904
 8879TIP3    H148128   4.183   4.349  12.787 -0.0856  2.4185  1.9848
 8879TIP3    H248129   4.261   4.250  12.871  0.2617  1.0602  0.1280
 8880TIP3   OH248130   0.788   0.778  12.286  0.2346  0.2698  0.4179
 8880TIP3    H148131   0.854   0.830  12.240 -0.1189 -0.0968 -0.5350
 8880TIP3    H248132   0.721   0.842  12.311  1.5139  0.8617  2.5367
 8881TIP3   OH248133   4.502   6.478   0.345 -0.0275 -0.2075 -0.3147
 8881TIP3    H148134   4.531   6.439   0.428 -0.0527 -1.2528 -0.7856
 8881TIP3    H248135   4.556   6.556   0.336 -1.0379  0.7645  1.4107
 8882TIP3   OH248136   1.204   0.050   0.142 -0.4149 -0.0731 -0.4596
 8882TIP3    H148137   1.289   0.075   0.179 -0.4206  1.1413 -1.2165
 8882TIP3    H248138   1.140   0.100   0.193 -0.7321 -1.2640  0.3582
 8883TIP3   OH248139   0.333   6.376  13.983  0.2725  0.0955 -0.6416
 8883TIP3    H148140   0.247   6.400  14.017  0.7682  0.8621  0.1366
 8883TIP3    H248141   0.330   6.281  13.974 -1.1434  0.2415 -2.0570
 8884TIP3   OH248142   0.301   5.596  17.064  0.1917  0.8198  0.3055
 8884TIP3    H148143   0.284   5.634  16.978 -0.0450  0.1280  0.0431
 8884TIP3    H248144   0.216   5.564  17.093  0.3559  0.6438  0.5950
 8885TIP3   OH248145   2.286   0.776  16.211 -0.1037  0.3350 -0.1583
 8885TIP3    H148146   2.366   0.826  16.193  0.5904 -0.2065  1.1968
 8885TIP3    H248147   2.317   0.685  16.220 -0.8102  0.1587  0.6845
 8886TIP3   OH248148   0.682   0.654   2.282 -0.4477 -0.0248 -0.0073
 8886TIP3    H148149   0.632   0.681   2.205 -0.4800 -0.6454 -0.2059
 8886TIP3    H248150   0.715   0.736   2.319 -1.5611  0.3926  0.0968
 8887TIP3   OH248151   0.079   2.500   1.228  0.8482  0.2796 -0.2224
 8887TIP3    H148152   0.096   2.500   1.134 -0.7001  0.7584 -0.5316
 8887TIP3    H248153   0.158   2.538   1.267  1.4071  0.3023 -1.3447
 8888TIP3   OH248154   2.628   0.881  12.405 -0.3862 -0.8860  0.0509
 8888TIP3    H148155   2.720   0.889  12.431  0.2804 -0.4593 -2.1822
 8888TIP3    H248156   2.613   0.786  12.401 -0.9822 -1.0261  3.1786
 8889TIP3   OH248157   0.529   2.232  13.193  0.0212  0.1652 -0.4715
 8889TIP3    H148158   0.624   2.245  13.185 -0.3115  2.5422 -1.2859
 8889TIP3    H248159   0.518   2.189  13.278  1.7210  1.3183  0.3879
 8890TIP3   OH248160   3.892   4.656   5.726 -0.0391 -0.1648 -0.1487
 8890TIP3    H148161   3.829   4.586   5.710 -0.8481  0.5964 -0.3302
 8890TIP3    H248162   3.974   4.610   5.746 -0.5203 -1.1562 -0.4052
 8891TIP3   OH248163   3.655   4.535  13.154 -0.6503 -0.6915  0.4460
 8891TIP3    H148164   3.734   4.519  13.206 -0.3447 -0.9630 -0.0854
 8891TIP3    H248165   3.679   4.607  13.096 -1.0522 -0.2604  0.8020
 8892TIP3   OH248166   6.418   2.303  14.496 -0.2891 -0.6951  0.2212
 8892TIP3    H148167   6.386   2.252  14.571  1.2480 -1.6825  0.2743
 8892TIP3    H248168   6.439   2.389  14.533 -0.2630 -0.9275  0.7631
 8893TIP3   OH248169   5.569   4.427  17.202  0.3286 -0.4837  0.0107
 8893TIP3    H148170   5.642   4.415  17.141  0.9812  2.3823  0.0840
 8893TIP3    H248171   5.604   4.399  17.287  1.7509  1.6527  0.2122
 8894TIP3   OH248172   0.382   3.893  16.410 -0.4511  0.4626 -0.1567
 8894TIP3    H148173   0.406   3.829  16.476  1.2848  1.2360  0.0136
 8894TIP3    H248174   0.412   3.856  16.327 -0.2281  0.6637 -0.1680
 8895TIP3   OH248175   4.637   5.811   4.480  0.1749 -0.4276  0.4291
 8895TIP3    H148176   4.698   5.786   4.549  0.1485  2.0511  1.4318
 8895TIP3    H248177   4.693   5.839   4.407  0.4657  3.3670  1.8945
 8896TIP3   OH248178   4.656   2.819   2.273 -0.3744  0.5750 -0.1410
 8896TIP3    H148179   4.608   2.826   2.191  0.0909 -0.3748 -0.5115
 8896TIP3    H248180   4.624   2.738   2.313  0.7095  0.0587 -0.2726
 8897TIP3   OH248181   1.663   0.353   0.748 -0.4728  0.1335 -0.8721
 8897TIP3    H148182   1.601   0.280   0.756 -1.0478  0.5790 -1.1604
 8897TIP3    H248183   1.744   0.320   0.786 -1.2855  0.0199  0.8582
 8898TIP3   OH248184   3.817   5.196   4.275 -0.3417 -0.1295 -0.1069
 8898TIP3    H148185   3.898   5.225   4.318  0.5288 -1.5646 -0.6965
 8898TIP3    H248186   3.750   5.257   4.305  0.9092  0.9217  0.6211
 8899TIP3   OH248187   5.042   0.906  10.571 -0.3617 -0.5287  0.5844
 8899TIP3    H148188   5.072   0.996  10.584 -0.4195 -0.3527 -0.4235
 8899TIP3    H248189   4.955   0.905  10.610  0.1483 -0.5090  1.7561
 8900TIP3   OH248190   3.808   5.915  12.146  0.6070 -0.2759 -0.0564
 8900TIP3    H148191   3.804   5.847  12.078  1.0145 -0.8801  0.5099
 8900TIP3    H248192   3.849   5.989  12.103  0.4714 -0.5051 -0.5946
 8901TIP3   OH248193   1.707   1.897   1.331 -0.1539 -0.5649 -0.0785
 8901TIP3    H148194   1.692   1.828   1.396  1.0311  0.0600  0.8959
 8901TIP3    H248195   1.774   1.860   1.272 -0.5080 -0.7568 -0.3624
 8902TIP3   OH248196   4.812   6.397  16.077  0.0236 -0.0408 -0.3881
 8902TIP3    H148197   4.847   6.478  16.041  0.4048  0.5212  1.1739
 8902TIP3    H248198   4.756   6.424  16.150  1.1051 -1.1711  0.9452
 8903TIP3   OH248199   0.094   4.133   0.208  0.1076 -0.4284  0.8601
 8903TIP3    H148200   0.118   4.071   0.276 -0.1957 -1.1449  0.3340
 8903TIP3    H248201   0.066   4.211   0.255  0.8309 -0.5590  1.5264
 8904TIP3   OH248202   0.684   1.574   3.700 -0.0160 -0.0941 -0.0838
 8904TIP3    H148203   0.688   1.638   3.771 -1.0778  0.4838 -0.5268
 8904TIP3    H248204   0.611   1.602   3.646  0.5063 -0.7740 -1.1788
 8905TIP3   OH248205   1.569   6.082   5.068 -0.3608  0.2832  0.3044
 8905TIP3    H148206   1.546   6.164   5.111 -1.6197  1.3165 -2.0979
 8905TIP3    H248207   1.564   6.016   5.137 -1.4300  1.9196  1.8823
 8906TIP3   OH248208   4.878   6.817   5.060  0.3530  0.2705 -0.3979
 8906TIP3    H148209   4.796   6.827   5.108  0.4622 -0.1604 -0.1256
 8906TIP3    H248210   4.867   6.873   4.983 -0.5723 -0.5117 -0.8564
 8907TIP3   OH248211   4.326   0.171   6.352  0.2982 -0.3262  0.5127
 8907TIP3    H148212   4.282   0.114   6.289 -0.2806  0.3258  0.3069
 8907TIP3    H248213   4.284   0.152   6.435  1.2240 -1.3563  0.7592
 8908TIP3   OH248214   0.592   1.644   5.003 -0.4876  0.1986 -0.0129
 8908TIP3    H148215   0.633   1.731   5.004  0.4840 -0.1812 -2.1016
 8908TIP3    H248216   0.498   1.662   5.004 -0.3489  1.1658  1.9423
 8909TIP3   OH248217   0.693   4.381  13.875  0.2001  0.5482 -0.0892
 8909TIP3    H148218   0.776   4.428  13.888 -0.3824  1.9534 -1.1376
 8909TIP3    H248219   0.634   4.447  13.838 -0.1961 -1.3446 -3.1970
 8910TIP3   OH248220   6.282   6.056   6.103  0.1715 -0.1785  0.1763
 8910TIP3    H148221   6.324   6.005   6.033 -0.2108 -0.5524  0.2143
 8910TIP3    H248222   6.296   6.147   6.078  1.3192 -0.2816  0.3730
 8911TIP3   OH248223   2.488   5.105  12.573 -0.6735  0.3446  0.1562
 8911TIP3    H148224   2.469   5.091  12.481  1.8750 -0.7209 -0.2807
 8911TIP3    H248225   2.559   5.169  12.574  0.0011 -0.3755  1.2840
 8912TIP3   OH248226   4.129   2.467   4.150  0.1123  0.3038 -0.1943
 8912TIP3    H148227   4.119   2.402   4.220 -0.2326 -0.3648 -0.8495
 8912TIP3    H248228   4.070   2.437   4.081  0.9594  0.5741 -1.0509
 8913TIP3   OH248229   1.452   5.934   4.465 -0.5089  0.1502  0.2893
 8913TIP3    H148230   1.486   6.017   4.498 -1.0242  1.3100 -1.8841
 8913TIP3    H248231   1.495   5.867   4.518  0.2230  1.7798  1.8432
 8914TIP3   OH248232   2.573   4.335   3.077 -0.0394  0.0284 -0.3094
 8914TIP3    H148233   2.580   4.369   2.988  0.9166  0.3756 -0.1150
 8914TIP3    H248234   2.613   4.402   3.131 -0.2723 -0.3530  0.3416
 8915TIP3   OH248235   3.503   6.407   2.706  0.2712  0.4714  0.5037
 8915TIP3    H148236   3.552   6.389   2.626 -1.9660  0.6394 -0.9855
 8915TIP3    H248237   3.433   6.466   2.678 -1.4717 -0.6707  2.2751
 8916TIP3   OH248238   4.004   5.904  14.762  0.2102 -0.2454 -0.1287
 8916TIP3    H148239   4.097   5.920  14.748  0.4183 -0.2670  1.0749
 8916TIP3    H248240   4.000   5.859  14.847 -0.8674 -0.5543 -0.3300
 8917TIP3   OH248241   2.974   5.353  14.708  0.5746  0.0386  0.5451
 8917TIP3    H148242   2.949   5.422  14.646 -0.0520  0.2304  1.0060
 8917TIP3    H248243   2.901   5.348  14.769  0.8019 -0.7533  0.7608
 8918TIP3   OH248244   2.567   4.620   4.213 -0.3407 -0.0785  0.1453
 8918TIP3    H148245   2.556   4.603   4.119 -0.5003 -0.3901  0.2191
 8918TIP3    H248246   2.482   4.650   4.243 -0.4922 -0.6712  0.3319
 8919TIP3   OH248247   3.560   0.475  13.308 -0.1712  0.1027  0.3020
 8919TIP3    H148248   3.550   0.544  13.243  1.7526  1.4395  1.3268
 8919TIP3    H248249   3.542   0.394  13.260 -1.2170  1.1957 -1.2491
 8920TIP3   OH248250   4.227   4.492   3.455  0.1342 -0.3070 -0.1129
 8920TIP3    H148251   4.208   4.481   3.548 -0.1454  1.2707  0.0407
 8920TIP3    H248252   4.222   4.403   3.419  1.4812 -1.1538  1.5851
 8921TIP3   OH248253   4.536   0.539  12.456 -0.0920  0.0254 -0.1168
 8921TIP3    H148254   4.495   0.565  12.374  0.3680  0.4349 -0.2219
 8921TIP3    H248255   4.609   0.484  12.430  0.4618  0.6987 -0.0305
 8922TIP3   OH248256   0.020   1.857  12.452 -0.0164 -0.2613 -1.2003
 8922TIP3    H148257  -0.041   1.926  12.477  0.9526  0.0002  0.5704
 8922TIP3    H248258   0.074   1.898  12.384  1.0442  1.0565  0.3453
 8923TIP3   OH248259   4.013   4.645  11.809 -0.1959  0.6299  0.2824
 8923TIP3    H148260   4.077   4.639  11.879  0.0737  2.6038  0.2496
 8923TIP3    H248261   3.970   4.729  11.823 -1.4113  0.2318 -0.8619
 8924TIP3   OH248262   2.086   5.788   3.115  0.1739  0.0212  0.2410
 8924TIP3    H148263   2.065   5.880   3.096  0.5452 -0.1526 -1.1192
 8924TIP3    H248264   2.074   5.743   3.032 -2.2285 -1.6262  1.3599
 8925TIP3   OH248265   4.015   4.237   6.542  0.0119 -0.8954  0.2148
 8925TIP3    H148266   4.103   4.225   6.505  0.1762 -0.4414  0.4400
 8925TIP3    H248267   3.987   4.322   6.509  0.6937  0.1413  2.1166
 8926TIP3   OH248268   0.564   1.959  14.639  0.3483  0.5612  0.5461
 8926TIP3    H148269   0.487   1.944  14.694 -0.3210  0.2347 -0.4481
 8926TIP3    H248270   0.559   2.053  14.617 -1.2804  0.0675 -1.6185
 8927TIP3   OH248271   5.594   4.190  15.071 -0.1265  0.8643  0.0178
 8927TIP3    H148272   5.656   4.248  15.027  0.0722  0.9675  0.4223
 8927TIP3    H248273   5.544   4.248  15.129 -1.4255  0.9810 -1.1568
 8928TIP3   OH248274   6.186   3.771   0.526  0.3481  0.3005  0.2931
 8928TIP3    H148275   6.233   3.696   0.489  1.0687  1.5928 -1.5585
 8928TIP3    H248276   6.102   3.735   0.554  1.0583 -1.3817  0.4214
 8929TIP3   OH248277   3.525   4.998  16.007 -0.0529  0.0980 -0.7801
 8929TIP3    H148278   3.461   5.040  16.065 -0.1382  0.0619 -0.8476
 8929TIP3    H248279   3.574   5.071  15.969  0.9762  0.0683  0.4413
 8930TIP3   OH248280   4.164   0.833  13.921  0.1936 -0.0175  0.0677
 8930TIP3    H148281   4.116   0.804  13.844 -1.5778  0.4639  0.9313
 8930TIP3    H248282   4.112   0.905  13.956  1.8294  0.8633  0.8005
 8931TIP3   OH248283   1.038   5.670   3.699 -0.6568  0.4298  0.8968
 8931TIP3    H148284   1.099   5.743   3.712 -0.4254 -0.1023  3.3522
 8931TIP3    H248285   1.082   5.595   3.738 -2.3631 -0.2394  1.6316
 8932TIP3   OH248286   2.525   3.558  16.966 -0.4800 -0.1100 -0.6760
 8932TIP3    H148287   2.592   3.626  16.962  1.7609 -1.9402  2.0487
 8932TIP3    H248288   2.457   3.594  17.023  0.4706  0.0713  0.3834
 8933TIP3   OH248289   0.854   4.983  11.507  0.5374 -0.0404 -0.2375
 8933TIP3    H148290   0.808   5.006  11.426 -2.5329 -1.1073  1.0280
 8933TIP3    H248291   0.807   5.031  11.576  1.9455 -0.4799  1.0893
 8934TIP3   OH248292   6.407   1.708   5.489  0.4318 -0.3326  0.9639
 8934TIP3    H148293   6.414   1.754   5.405  1.2568 -0.8330  0.7481
 8934TIP3    H248294   6.409   1.778   5.554  1.8040 -0.0298  0.6440
 8935TIP3   OH248295   2.809   5.571  14.916  0.0580  0.0610  0.3710
 8935TIP3    H148296   2.886   5.582  14.972  0.8381  2.8920 -1.0576
 8935TIP3    H248297   2.735   5.586  14.975  0.6860 -0.5664  1.3428
 8936TIP3   OH248298   0.627   2.496   2.273  0.4102  0.4705 -0.7777
 8936TIP3    H148299   0.537   2.466   2.284  0.6050 -0.6951 -2.0419
 8936TIP3    H248300   0.639   2.563   2.340 -0.5061 -1.3455  1.3570
 8937TIP3   OH248301   5.972   4.951   6.509 -0.3950  0.5797  0.5166
 8937TIP3    H148302   5.914   4.876   6.494 -1.9703  2.1344 -2.0819
 8937TIP3    H248303   5.917   5.015   6.554  0.0189  1.2346  0.1057
 8938TIP3   OH248304   2.644   5.591  13.266  0.1743  0.4433 -0.3118
 8938TIP3    H148305   2.591   5.655  13.218  1.4492  0.3921 -1.8661
 8938TIP3    H248306   2.680   5.641  13.339 -0.6924  0.8865 -0.1688
 8939TIP3   OH248307   6.707   3.999  15.524 -0.0661  0.1906 -0.1117
 8939TIP3    H148308   6.649   3.959  15.589  0.8363 -0.4541  0.3136
 8939TIP3    H248309   6.765   4.055  15.575  0.0988  0.3365 -0.4562
 8940TIP3   OH248310   0.576   2.100   4.177 -0.3734 -0.1847  0.2608
 8940TIP3    H148311   0.516   2.029   4.196  1.4026 -1.2288  2.3615
 8940TIP3    H248312   0.555   2.168   4.241  0.5189 -0.4652  0.8630
 8941TIP3   OH248313   4.925   2.319   3.044  0.0603 -0.0888 -0.2108
 8941TIP3    H148314   4.925   2.239   3.097 -0.8043  0.6501  0.9703
 8941TIP3    H248315   5.006   2.363   3.067  0.3882 -0.4705 -0.6270
 8942TIP3   OH248316   4.776   1.664  11.654  0.8305 -0.2511  0.4576
 8942TIP3    H148317   4.713   1.713  11.708 -1.1138 -0.5671 -1.3880
 8942TIP3    H248318   4.758   1.572  11.674  0.0273 -0.3742 -0.7168
 8943TIP3   OH248319   3.497   1.394   5.032 -0.1848  0.0824  0.1271
 8943TIP3    H148320   3.561   1.331   5.001 -1.0416 -0.9859  0.4621
 8943TIP3    H248321   3.539   1.439   5.105  1.1750  1.3365 -1.3439
 8944TIP3   OH248322   0.682   5.505  12.861 -0.0732  0.7296 -0.1302
 8944TIP3    H148323   0.678   5.421  12.906  0.7736  1.3367  1.1126
 8944TIP3    H248324   0.593   5.539  12.867 -0.1604  0.4263  0.3261
 8945TIP3   OH248325   4.989   3.595   6.150 -0.3852 -0.5355 -0.2771
 8945TIP3    H148326   5.068   3.577   6.098  0.0113 -0.0124  0.1372
 8945TIP3    H248327   4.939   3.514   6.144 -1.1016 -0.0015 -2.7505
 8946TIP3   OH248328   4.302   1.386  16.444 -0.1851  0.1315  0.3066
 8946TIP3    H148329   4.395   1.408  16.454  0.1652 -1.1370  0.0185
 8946TIP3    H248330   4.301   1.312  16.384 -1.1734 -1.4865  2.1901
 8947TIP3   OH248331   5.919   4.613  17.054  0.3568  0.2200  0.0869
 8947TIP3    H148332   5.935   4.618  17.148 -1.0994  0.1664  0.3492
 8947TIP3    H248333   5.869   4.692  17.033 -0.1042 -0.2068 -0.4743
 8948TIP3   OH248334   0.438   2.120  15.749  0.6064 -0.2610  0.6174
 8948TIP3    H148335   0.437   2.208  15.710 -1.0363  0.5200  2.2382
 8948TIP3    H248336   0.487   2.131  15.831 -1.1212 -0.3704  1.7196
 8949TIP3   OH248337   2.865   4.519  11.218  0.0996 -0.0165 -0.3787
 8949TIP3    H148338   2.805   4.520  11.143 -0.0363 -1.7573 -0.3264
 8949TIP3    H248339   2.826   4.579  11.281 -2.1591 -1.8168  0.0437
 8950TIP3   OH248340   2.031   2.495   0.237 -0.2124 -0.2345  0.3869
 8950TIP3    H148341   1.976   2.572   0.224  0.6022  0.6895  1.9839
 8950TIP3    H248342   2.118   2.523   0.208  0.3711 -0.0557  2.1866
 8951TIP3   OH248343   1.593   4.990   5.795 -0.3159 -0.2624 -0.1043
 8951TIP3    H148344   1.622   5.046   5.867 -0.0881  0.0760 -0.4489
 8951TIP3    H248345   1.506   5.022   5.774 -0.2697 -0.1731 -0.1621
 8952TIP3   OH248346   1.107   4.148  12.882 -0.5949  0.3231 -0.1060
 8952TIP3    H148347   1.053   4.072  12.902 -0.8674  0.0496 -1.7464
 8952TIP3    H248348   1.190   4.110  12.851 -0.9287  0.6756 -1.4539
 8953TIP3   OH248349   0.951   1.100   2.180  0.1460  0.1391  0.8395
 8953TIP3    H148350   0.908   1.141   2.104  0.1036 -0.5051  0.5059
 8953TIP3    H248351   0.974   1.173   2.237 -0.1192  0.6085  0.3560
 8954TIP3   OH248352   6.065   2.839  15.495  0.2648  0.1538  0.3077
 8954TIP3    H148353   5.992   2.897  15.475  0.8263  0.7992  0.1075
 8954TIP3    H248354   6.132   2.859  15.429  0.2077 -1.2137 -0.2055
 8955TIP3   OH248355   6.284   0.353   2.575  0.5746 -0.0898 -0.5298
 8955TIP3    H148356   6.334   0.355   2.657  1.0058 -1.3159 -0.7403
 8955TIP3    H248357   6.201   0.312   2.599  1.0749 -1.3385 -0.8817
 8956TIP3   OH248358   1.915   1.650  11.664 -0.0708  0.0015 -0.2641
 8956TIP3    H148359   1.894   1.604  11.746 -0.5335  1.1771  0.2997
 8956TIP3    H248360   1.924   1.742  11.690 -0.2564  0.3954 -1.5449
 8957TIP3   OH248361   1.889   4.639   0.242  0.0827 -0.3661  0.4232
 8957TIP3    H148362   1.929   4.560   0.206  0.9281  0.2497 -0.0219
 8957TIP3    H248363   1.894   4.627   0.337 -2.0820 -1.9593  0.4133
 8958TIP3   OH248364   5.903   6.319   4.524 -0.4068 -0.1394 -0.4401
 8958TIP3    H148365   5.993   6.315   4.554 -0.7458  0.2364  0.6618
 8958TIP3    H248366   5.897   6.402   4.477 -0.5596  0.5802  0.8170
 8959TIP3   OH248367   6.311   0.031  16.842 -0.6223  0.6152  0.2808
 8959TIP3    H148368   6.336   0.114  16.883  0.3894  0.0500  0.8568
 8959TIP3    H248369   6.252  -0.011  16.905  2.2561 -1.0286  2.1069
 8960TIP3   OH248370   0.805   4.902   4.667  0.0093 -0.4174  0.2419
 8960TIP3    H148371   0.771   4.976   4.717 -3.0719 -0.8837 -0.9267
 8960TIP3    H248372   0.880   4.938   4.620 -1.1566  1.9399 -0.0053
 8961TIP3   OH248373   0.558   5.577   2.054  0.5343 -0.7014  0.3013
 8961TIP3    H148374   0.652   5.559   2.062  0.7277  0.2098  0.2222
 8961TIP3    H248375   0.544   5.656   2.106 -0.0900 -0.5372 -0.0985
 8962TIP3   OH248376   5.985   1.681   1.038  0.0261 -0.2671 -0.3222
 8962TIP3    H148377   5.946   1.676   1.125  0.1625 -0.2678 -0.2609
 8962TIP3    H248378   5.929   1.627   0.983  0.0778 -0.4602 -0.1843
 8963TIP3   OH248379   0.561   1.786   5.751  0.0447 -0.3903  0.2285
 8963TIP3    H148380   0.493   1.723   5.729 -0.7926  0.5461  0.0402
 8963TIP3    H248381   0.529   1.829   5.831  0.7016 -0.3528  0.4788
 8964TIP3   OH248382   1.956   2.528  13.439 -0.2555  0.0511 -0.1481
 8964TIP3    H148383   2.002   2.531  13.355  1.2351 -0.4916  0.6120
 8964TIP3    H248384   1.880   2.584  13.427  0.6960  1.1282 -1.4159
 8965TIP3   OH248385   2.156   6.464  11.414  0.0467 -0.3474  0.6676
 8965TIP3    H148386   2.119   6.434  11.331  2.4908 -0.5129 -0.4598
 8965TIP3    H248387   2.091   6.440  11.480 -2.2776  0.3575 -1.2288
 8966TIP3   OH248388   2.387   2.197  12.313  0.5069 -0.3894 -0.2880
 8966TIP3    H148389   2.413   2.233  12.398 -1.5891 -3.2652  1.7291
 8966TIP3    H248390   2.455   2.133  12.293  0.5179 -0.3575 -0.3542
 8967TIP3   OH248391   2.673   1.039  13.650 -0.0337  0.5874  0.2557
 8967TIP3    H148392   2.649   1.012  13.562 -0.4756  1.9177 -0.0585
 8967TIP3    H248393   2.614   0.991  13.708 -0.3128  0.3487 -0.2293
 8968TIP3   OH248394   6.187   4.794   4.110  0.6083 -0.3629 -0.5563
 8968TIP3    H148395   6.192   4.699   4.112  2.2355 -0.3146  2.0148
 8968TIP3    H248396   6.104   4.813   4.067  1.2874 -2.8385 -3.2205
 8969TIP3   OH248397   2.329   2.840   5.980  0.2202  0.2558  0.0867
 8969TIP3    H148398   2.234   2.846   5.979  0.2418  1.4069  1.7321
 8969TIP3    H248399   2.356   2.859   5.890 -0.9913  2.3339  0.1180
 8970TIP3   OH248400   0.471   4.297   3.112 -0.0144 -0.6449  0.9767
 8970TIP3    H148401   0.547   4.324   3.061 -0.3864  1.5437  1.4450
 8970TIP3    H248402   0.453   4.208   3.084  1.6254 -0.5844 -0.4450
 8971TIP3   OH248403   3.884   2.562  12.056 -0.0519 -0.3843  0.3142
 8971TIP3    H148404   3.962   2.594  12.010 -0.0495  0.9840  1.2050
 8971TIP3    H248405   3.810   2.596  12.005 -0.1352 -2.4763 -1.0757
 8972TIP3   OH248406   2.865   3.442  16.788  0.1308  0.3162  0.6656
 8972TIP3    H148407   2.901   3.524  16.755 -0.5994 -0.1034 -1.3508
 8972TIP3    H248408   2.772   3.459  16.798  0.0338 -0.1505  0.5850
 8973TIP3   OH248409   1.940   2.945   2.831 -0.1418 -0.2079 -0.1293
 8973TIP3    H148410   1.913   2.951   2.923  0.0841  0.9724 -0.1288
 8973TIP3    H248411   1.940   2.851   2.812  0.1529 -0.4856  1.1738
 8974TIP3   OH248412   4.287   6.814   3.433  0.7181 -0.1649 -0.1518
 8974TIP3    H148413   4.251   6.754   3.368  0.6167  0.5787 -0.8022
 8974TIP3    H248414   4.330   6.758   3.497  1.2235 -0.8949 -1.1140
 8975TIP3   OH248415   5.448   6.105  12.581  0.1218  0.0913 -0.1296
 8975TIP3    H148416   5.523   6.092  12.638 -1.3774 -0.7754  1.7653
 8975TIP3    H248417   5.374   6.120  12.640 -1.4107 -0.1775 -1.8580
 8976TIP3   OH248418   5.608   6.129  13.614  0.2950 -0.1786  0.5551
 8976TIP3    H148419   5.557   6.206  13.639 -0.1676 -0.2320 -0.2081
 8976TIP3    H248420   5.614   6.077  13.694 -1.5303 -0.5538  0.4912
 8977TIP3   OH248421   5.482   1.253  16.232 -0.2825  0.3997  0.7340
 8977TIP3    H148422   5.465   1.180  16.172 -3.6849 -0.3419  2.3997
 8977TIP3    H248423   5.489   1.213  16.318  1.1783  1.7852  1.3138
 8978TIP3   OH248424   2.858   2.585   4.763  0.2308 -0.1655 -0.0611
 8978TIP3    H148425   2.805   2.559   4.838 -0.1169  2.6479  0.8025
 8978TIP3    H248426   2.936   2.626   4.801  1.3500 -1.0206 -1.3032
 8979TIP3   OH248427   6.613   4.933  16.799  0.7615 -0.7651 -0.6316
 8979TIP3    H148428   6.666   4.865  16.758  1.9067  1.4759 -3.1262
 8979TIP3    H248429   6.524   4.915  16.769  1.1196 -0.9536 -1.6184
 8980TIP3   OH248430   2.931   1.558  15.020 -0.1354 -0.4549  0.5358
 8980TIP3    H148431   2.913   1.540  14.928 -0.5254 -0.3986  0.6017
 8980TIP3    H248432   2.930   1.472  15.062 -1.0492 -0.3803  0.6798
 8981TIP3   OH248433   2.675   2.719   4.329  0.1196 -0.3763  0.7673
 8981TIP3    H148434   2.765   2.749   4.320 -0.2123  0.5716  0.5650
 8981TIP3    H248435   2.671   2.686   4.419  0.5973 -0.1811  0.8666
 8982TIP3   OH248436   6.047   2.128   3.233 -0.6471  0.5395 -0.6679
 8982TIP3    H148437   6.064   2.183   3.310 -0.8254 -0.9260  0.4613
 8982TIP3    H248438   6.104   2.164   3.165 -0.9994  2.3078 -0.0741
 8983TIP3   OH248439   2.302   2.501   5.380  0.0386 -0.0643  1.1100
 8983TIP3    H148440   2.359   2.480   5.305 -0.8077 -1.9517  0.9307
 8983TIP3    H248441   2.336   2.446   5.451 -1.6712 -1.4528  0.9163
 8984TIP3   OH248442   3.463   2.047  10.479  0.2930  0.0361 -0.2532
 8984TIP3    H148443   3.380   1.999  10.475  1.3312 -1.9192  0.2120
 8984TIP3    H248444   3.530   1.979  10.483  2.1849  1.4807 -3.5734
 8985TIP3   OH248445   2.496   1.313  12.135  0.0801 -0.0170 -0.1481
 8985TIP3    H148446   2.460   1.388  12.088 -0.8353 -0.9152 -0.9405
 8985TIP3    H248447   2.504   1.343  12.225  3.3080  2.2610 -1.0280
 8986TIP3   OH248448   6.818   1.438  16.868 -0.5590 -0.0233  0.1011
 8986TIP3    H148449   6.845   1.409  16.955 -1.5477  0.5362  0.6291
 8986TIP3    H248450   6.899   1.456  16.821 -0.0194  0.1323  1.0814
 8987TIP3   OH248451   0.766   3.103   1.555  0.4634 -0.5628 -0.4285
 8987TIP3    H148452   0.851   3.138   1.528  0.5936 -0.3698  0.1965
 8987TIP3    H248453   0.704   3.174   1.539 -0.1255 -1.6517 -3.6047
 8988TIP3   OH248454   0.316   6.319  11.727  0.3093 -0.0241  0.3351
 8988TIP3    H148455   0.252   6.390  11.724  0.2840  0.0296  1.7799
 8988TIP3    H248456   0.265   6.240  11.710  0.5803  0.3686 -2.9451
 8989TIP3   OH248457   5.802   2.699   6.367  0.1253  0.2011  0.6613
 8989TIP3    H148458   5.847   2.710   6.451 -2.5532  3.3337  1.9238
 8989TIP3    H248459   5.819   2.781   6.320  0.6426 -1.0461 -1.4729
 8990TIP3   OH248460   0.163   5.333  12.904 -0.4369  0.0647  0.3724
 8990TIP3    H148461   0.120   5.376  12.978 -0.5603  1.1530 -0.3136
 8990TIP3    H248462   0.131   5.380  12.827 -2.4176 -2.7378 -0.6744
 8991TIP3   OH248463   4.820   5.700   5.470 -0.1250 -0.2737 -0.3489
 8991TIP3    H148464   4.779   5.740   5.547  0.4333  1.7841 -1.0712
 8991TIP3    H248465   4.873   5.629   5.506 -2.9181 -1.9563  0.7625
 8992TIP3   OH248466   1.017   4.812  11.635  0.4935 -0.6060  0.1277
 8992TIP3    H148467   1.039   4.853  11.719  0.4471 -1.8991  0.7945
 8992TIP3    H248468   0.962   4.877  11.590  3.3361  1.6012 -0.4602
 8993TIP3   OH248469   1.046   5.293  11.468  0.5813  0.3438  0.0498
 8993TIP3    H148470   1.009   5.226  11.526  0.7496 -1.5445 -1.9086
 8993TIP3    H248471   0.971   5.330  11.423  0.6614 -0.2131 -0.5592
 8994TIP3   OH248472   4.137   0.872   2.720 -0.0859  0.1316  0.5519
 8994TIP3    H148473   4.104   0.950   2.764 -1.3395 -0.7099  1.1581
 8994TIP3    H248474   4.059   0.827   2.688  0.7107 -0.0441 -1.2591
 8995TIP3   OH248475   2.389   5.595   2.799 -0.2765 -0.4495 -0.2876
 8995TIP3    H148476   2.463   5.538   2.776 -0.9457 -1.0255 -1.0928
 8995TIP3    H248477   2.386   5.659   2.727  1.3362  1.5289  1.3006
 8996TIP3   OH248478   5.097   6.601   3.217  0.1389  0.0309  0.0902
 8996TIP3    H148479   5.133   6.669   3.160 -1.3504  1.1987  0.4556
 8996TIP3    H248480   5.173   6.554   3.250  1.2162  1.4565 -0.2681
 8997TIP3   OH248481   2.841   5.665  12.515 -0.1590  0.0296  0.0941
 8997TIP3    H148482   2.891   5.589  12.485 -0.3107  0.1905 -0.5721
 8997TIP3    H248483   2.906   5.735  12.522 -0.7166  1.1697 -3.9545
 8998TIP3   OH248484   2.744   4.135  13.382  0.2317  0.5663 -0.0518
 8998TIP3    H148485   2.720   4.170  13.468  0.2276  0.5026 -0.0260
 8998TIP3    H248486   2.694   4.187  13.319 -1.1234 -0.5210  0.0773
 8999TIP3   OH248487   3.998   2.238  16.562  0.4084  0.2896  0.6693
 8999TIP3    H148488   4.062   2.167  16.562 -0.9379 -0.9666  1.3413
 8999TIP3    H248489   3.998   2.271  16.472 -2.5738 -4.0074 -1.2553
 9000TIP3   OH248490   3.038   3.595  12.090 -0.2738  0.2975 -0.1034
 9000TIP3    H148491   3.035   3.690  12.099  0.2928  0.3471 -0.4428
 9000TIP3    H248492   2.976   3.563  12.156 -1.0807  0.9258 -0.5408
 9001TIP3   OH248493   1.807   0.344  14.480  0.1825 -0.1197  0.5361
 9001TIP3    H148494   1.901   0.332  14.494  0.3486  0.7361  0.2166
 9001TIP3    H248495   1.766   0.290  14.547  0.8784 -1.3888 -0.0146
 9002TIP3   OH248496   5.193   0.398  14.367  0.1255  0.3453 -0.3145
 9002TIP3    H148497   5.277   0.361  14.339  1.2320  0.5072  2.5345
 9002TIP3    H248498   5.133   0.323  14.366  0.1505  0.2899 -2.6734
 9003TIP3   OH248499   1.182   0.384  11.664 -0.5497 -0.0901 -0.3630
 9003TIP3    H148500   1.121   0.448  11.629 -1.1505 -1.0779 -1.1781
 9003TIP3    H248501   1.137   0.346  11.739 -1.5806 -1.7873 -1.7649
 9004TIP3   OH248502   4.041   6.488  15.673 -0.5074 -0.5045  0.2935
 9004TIP3    H148503   4.103   6.443  15.731  2.0576  0.6110 -1.3969
 9004TIP3    H248504   4.034   6.432  15.596  0.7472  0.7081 -0.7519
 9005TIP3   OH248505   1.945   3.928  17.178 -0.2804 -0.0345  0.1130
 9005TIP3    H148506   1.859   3.962  17.200  0.1337  0.2335  1.4118
 9005TIP3    H248507   1.967   3.970  17.095 -0.7328  1.1334  0.5645
 9006TIP3   OH248508   3.882   3.962  14.546 -0.1568  0.2790  0.0003
 9006TIP3    H148509   3.903   3.886  14.492 -3.3220  0.2681 -1.4059
 9006TIP3    H248510   3.869   3.926  14.634  1.7807 -0.1905  0.1453
 9007TIP3   OH248511   4.807   5.580   2.084 -0.6415  0.8851 -0.0356
 9007TIP3    H148512   4.833   5.659   2.131  2.8070 -1.4761  2.5577
 9007TIP3    H248513   4.731   5.547   2.132 -0.9215  1.6119  0.0347
 9008TIP3   OH248514   3.744   3.443   1.478 -0.1709 -0.2300  0.3106
 9008TIP3    H148515   3.727   3.502   1.552 -0.6563 -0.9939  0.8284
 9008TIP3    H248516   3.840   3.440   1.472 -0.1359  0.2806  0.5490
 9009TIP3   OH248517   4.384   5.772   4.566  0.8568 -0.1376  0.3805
 9009TIP3    H148518   4.384   5.795   4.659  1.3382  2.6311 -0.2293
 9009TIP3    H248519   4.474   5.789   4.537  0.6572 -0.7497 -0.6749
 9010TIP3   OH248520   6.622   4.648  10.550 -0.1606 -0.2283 -0.1146
 9010TIP3    H148521   6.635   4.622  10.641  0.2700 -0.2428 -0.1774
 9010TIP3    H248522   6.706   4.688  10.525 -0.8699  1.4669  0.0650
 9011TIP3   OH248523   5.796   4.995   0.789 -0.1628  0.1630 -0.1913
 9011TIP3    H148524   5.730   5.061   0.766  0.5099  0.9062 -0.0621
 9011TIP3    H248525   5.793   4.990   0.884  0.1028  0.3583 -0.1692
 9012TIP3   OH248526   5.819   4.498  13.163  0.1901  0.2145  0.3417
 9012TIP3    H148527   5.763   4.567  13.126 -0.8714 -0.8423 -0.0939
 9012TIP3    H248528   5.872   4.468  13.089 -0.0689 -0.1032  0.2785
 9013TIP3   OH248529   4.546   1.065   6.144  0.2308 -0.6041  0.2497
 9013TIP3    H148530   4.579   1.147   6.181  1.4522 -1.0304  0.1433
 9013TIP3    H248531   4.621   1.006   6.144 -0.5534 -1.6441  0.0562
 9014TIP3   OH248532   3.617   3.822   4.805 -0.4567  0.0458  0.3794
 9014TIP3    H148533   3.546   3.845   4.864 -0.3337  1.1165  0.1335
 9014TIP3    H248534   3.597   3.733   4.777 -1.9317  0.4703 -0.0146
 9015TIP3   OH248535   0.490   6.386  13.121  0.5118 -0.1209 -0.6544
 9015TIP3    H148536   0.492   6.384  13.025  1.0650 -1.1844 -0.6258
 9015TIP3    H248537   0.414   6.332  13.145  1.5025 -1.4586 -0.4568
 9016TIP3   OH248538   6.824   3.573   3.387 -0.5918 -0.0097  0.4451
 9016TIP3    H148539   6.837   3.565   3.292 -0.0773 -1.7740  0.6221
 9016TIP3    H248540   6.861   3.492   3.423  1.1196  1.4996  2.3477
 9017TIP3   OH248541   3.507   6.359  15.031 -0.8708 -0.4243 -0.2882
 9017TIP3    H148542   3.414   6.380  15.023 -1.1583 -0.4671  2.2350
 9017TIP3    H248543   3.511   6.289  15.097  0.9565 -0.4333 -0.3360
 9018TIP3   OH248544   0.268   1.091  16.533 -0.2937 -0.0955  0.2679
 9018TIP3    H148545   0.299   1.053  16.451 -0.6030  2.1480 -0.9811
 9018TIP3    H248546   0.347   1.102  16.586  0.6483  2.1822 -1.4214
 9019TIP3   OH248547   3.344   4.568   0.597 -0.2335 -0.0501 -0.0057
 9019TIP3    H148548   3.388   4.647   0.629  0.7480 -0.7489  0.4225
 9019TIP3    H248549   3.259   4.568   0.640 -0.0095  0.4685  0.4482
 9020TIP3   OH248550   6.300   3.476  13.233  0.5531  0.1035 -0.0635
 9020TIP3    H148551   6.393   3.494  13.218  0.5203  0.1313 -0.2349
 9020TIP3    H248552   6.254   3.543  13.183  0.4397  0.1268  0.0708
 9021TIP3   OH248553   5.605   6.022  12.776 -0.3143  0.4478  0.1129
 9021TIP3    H148554   5.566   5.942  12.811 -0.6254  0.1996 -0.7696
 9021TIP3    H248555   5.689   6.029  12.821 -0.5572 -0.0360  0.6543
 9022TIP3   OH248556   0.586   1.420   1.808  0.2277 -0.2619  0.7065
 9022TIP3    H148557   0.530   1.343   1.811  1.7969 -1.6320 -1.7019
 9022TIP3    H248558   0.589   1.444   1.715  0.3934  2.2563  1.2992
 9023TIP3   OH248559   0.805   3.249   0.879 -0.1666  0.7352 -0.4765
 9023TIP3    H148560   0.898   3.227   0.879 -0.1518  0.7924 -0.5857
 9023TIP3    H248561   0.799   3.329   0.932 -0.1441  0.7679 -0.5231
 9024TIP3   OH248562   2.408   0.598  14.737  0.0336 -0.3053  0.6727
 9024TIP3    H148563   2.470   0.532  14.708  2.8429  1.4221  2.2341
 9024TIP3    H248564   2.346   0.550  14.792 -1.3181 -2.4121 -2.4392
 9025TIP3   OH248565   0.183   6.330   6.766  0.2959 -0.2374  0.6377
 9025TIP3    H148566   0.278   6.323   6.770  0.3313 -0.1081  0.1442
 9025TIP3    H248567   0.150   6.245   6.793  0.5211  0.0860  1.9597
 9026TIP3   OH248568   3.308   2.843   0.576 -0.0164 -0.7214 -0.3949
 9026TIP3    H148569   3.228   2.873   0.533  0.8983  3.9820  0.6587
 9026TIP3    H248570   3.278   2.795   0.653 -1.6957 -1.9407 -1.7382
 9027TIP3   OH248571   0.730   1.393   1.486  0.2686 -0.2482  0.3852
 9027TIP3    H148572   0.661   1.458   1.473 -2.0556 -2.1680  2.0797
 9027TIP3    H248573   0.775   1.387   1.402 -4.1695 -1.5750 -2.2337
 9028TIP3   OH248574   3.335   3.517   1.904  0.4895 -0.5048 -0.2814
 9028TIP3    H148575   3.249   3.520   1.947 -0.0860  0.4119 -1.4259
 9028TIP3    H248576   3.315   3.499   1.812  1.5674 -0.7241 -0.4844
 9029TIP3   OH248577   4.650   5.579   4.322  0.0934  0.4984  0.1521
 9029TIP3    H148578   4.649   5.671   4.348  0.5798 -0.1162  2.5476
 9029TIP3    H248579   4.726   5.572   4.264  0.0931  1.5782 -0.0152
 9030TIP3   OH248580   5.657   3.608  11.512  0.6553  0.2001 -0.2609
 9030TIP3    H148581   5.568   3.618  11.546 -0.0149 -1.3706 -1.4048
 9030TIP3    H248582   5.686   3.698  11.493 -0.1619  0.8352  1.3385
 9031TIP3   OH248583   4.384   6.383   1.108  0.1478 -0.2880  0.0530
 9031TIP3    H148584   4.398   6.313   1.043 -1.6422 -0.9545  0.3190
 9031TIP3    H248585   4.289   6.389   1.115  0.2983  1.2272  1.0950
 9032TIP3   OH248586   1.949   4.246   6.553 -0.0068  0.7086 -0.3750
 9032TIP3    H148587   1.913   4.284   6.473 -1.6781  3.1004  1.3750
 9032TIP3    H248588   1.877   4.249   6.616  0.8182 -2.4215  0.9075
 9033TIP3   OH248589   1.928   5.223  12.110  0.1829  0.4085 -0.5323
 9033TIP3    H148590   1.976   5.219  12.193 -0.5211 -0.3300 -0.1319
 9033TIP3    H248591   1.992   5.198  12.044  0.8644  1.4103 -0.2751
 9034TIP3   OH248592   0.182   0.530  11.441 -0.2452  0.0602  0.1451
 9034TIP3    H148593   0.171   0.479  11.361  1.8798  0.3536 -0.3940
 9034TIP3    H248594   0.144   0.616  11.420 -0.0095  0.0259 -0.4494
 9035TIP3   OH248595   1.219   1.332  13.988 -0.3824  0.0281 -0.3841
 9035TIP3    H148596   1.200   1.425  13.988  0.1457  0.1835 -2.4974
 9035TIP3    H248597   1.138   1.290  13.957 -0.5063 -0.1983  0.2288
 9036TIP3   OH248598   4.367   5.433  12.049 -0.8681 -0.0995  0.2547
 9036TIP3    H148599   4.346   5.344  12.077 -0.6926  0.0339  0.8352
 9036TIP3    H248600   4.401   5.475  12.128  1.3146 -0.2184 -0.5436
 9037TIP3   OH248601   3.292   6.417  12.553  0.2481  0.1590  0.0420
 9037TIP3    H148602   3.258   6.393  12.467 -0.9460  1.4589  0.1137
 9037TIP3    H248603   3.298   6.334  12.600  0.3195 -0.4914 -1.0810
 9038TIP3   OH248604   1.211   5.170   2.521  0.6060 -0.2284  1.4077
 9038TIP3    H148605   1.146   5.173   2.591  1.8217  0.8189  2.5529
 9038TIP3    H248606   1.190   5.246   2.466 -1.5170 -2.0775 -0.5676
 9039TIP3   OH248607   5.902   3.892  10.661 -0.4909  0.1399  0.0356
 9039TIP3    H148608   5.944   3.889  10.575  1.6067 -0.0267  1.0110
 9039TIP3    H248609   5.829   3.952  10.650  0.4318  1.0289 -1.5821
 9040TIP3   OH248610   4.926   5.317  12.987 -0.1505 -0.1718  0.0686
 9040TIP3    H148611   4.959   5.228  13.000  0.3658 -0.1206 -0.7853
 9040TIP3    H248612   4.861   5.308  12.916 -1.8476 -0.2343  1.5580
 9041TIP3   OH248613   4.715   4.874  11.349 -0.3036  0.1869 -0.0197
 9041TIP3    H148614   4.799   4.827  11.354 -0.1629  0.5264  1.1377
 9041TIP3    H248615   4.698   4.901  11.439 -0.7208  1.7793 -0.5497
 9042TIP3   OH248616   5.759   5.682  17.062  0.4518  0.1054  0.1084
 9042TIP3    H148617   5.702   5.752  17.092  1.2106  1.1698 -0.8371
 9042TIP3    H248618   5.703   5.626  17.008 -0.3448 -0.4871  1.5020
 9043TIP3   OH248619   1.444   2.380   2.228  0.6955 -0.5735  0.8526
 9043TIP3    H148620   1.521   2.355   2.176  0.6202  0.2662  0.3150
 9043TIP3    H248621   1.376   2.318   2.200  0.5356  0.1192 -0.4001
 9044TIP3   OH248622   2.694   4.604  12.917 -0.3787  0.7117 -0.6026
 9044TIP3    H148623   2.728   4.596  12.828  1.0958  1.3240 -0.1169
 9044TIP3    H248624   2.772   4.603  12.973 -1.2756  0.4363  0.6737
 9045TIP3   OH248625   1.968   4.409   0.114 -0.4542 -0.0784 -0.0692
 9045TIP3    H148626   2.017   4.326   0.109 -0.1763  0.1016 -4.2836
 9045TIP3    H248627   1.879   4.386   0.089 -0.3481  0.8642 -1.3943
 9046TIP3   OH248628   1.589   3.961   4.025 -0.7459  0.0045  0.2176
 9046TIP3    H148629   1.654   4.031   4.013  1.9794 -2.5183 -0.8856
 9046TIP3    H248630   1.596   3.908   3.946 -3.3154 -1.1243  0.6511
 9047TIP3   OH248631   3.805   4.998  14.829 -0.0722 -0.3639  0.3612
 9047TIP3    H148632   3.765   5.081  14.855 -0.4742 -0.1107 -1.0154
 9047TIP3    H248633   3.858   4.973  14.905 -1.2637  0.2833  1.4549
 9048TIP3   OH248634   1.193   4.913   2.690 -0.0085 -0.4056 -0.2059
 9048TIP3    H148635   1.243   4.899   2.610 -1.2923  0.0345 -1.1204
 9048TIP3    H248636   1.102   4.897   2.665 -0.3612 -1.2421  1.4153
 9049TIP3   OH248637   1.406   6.341   0.865 -0.8410  0.1246 -0.3525
 9049TIP3    H148638   1.464   6.315   0.793 -2.7911  0.2551 -2.0441
 9049TIP3    H248639   1.437   6.428   0.889  1.6282 -1.0061  0.9791
 9050TIP3   OH248640   2.583   3.621  15.881 -0.3193  0.5292  0.3275
 9050TIP3    H148641   2.670   3.635  15.918  0.1192 -1.0775 -0.0431
 9050TIP3    H248642   2.597   3.624  15.786 -0.1300 -2.4519  0.1919
 9051TIP3   OH248643   0.272   5.836   4.306 -0.6171 -0.2186 -0.3202
 9051TIP3    H148644   0.207   5.890   4.351 -1.3794 -1.6454  0.3710
 9051TIP3    H248645   0.323   5.796   4.377 -1.2732 -1.8167 -0.6990
 9052TIP3   OH248646   4.470   5.556   4.785 -0.0408  1.0537  0.3743
 9052TIP3    H148647   4.385   5.515   4.803 -0.4251  0.9307 -1.5301
 9052TIP3    H248648   4.470   5.634   4.840 -1.5856  1.2739  0.1306
 9053TIP3   OH248649   6.047   4.817  13.958 -0.3326 -0.5447  0.9706
 9053TIP3    H148650   5.983   4.844  13.892  0.4302 -0.1464  0.3661
 9053TIP3    H248651   6.080   4.899  13.994  0.2435 -0.7302  0.8724
 9054TIP3   OH248652   3.596   3.728   4.121  0.8266  0.2031  0.0269
 9054TIP3    H148653   3.679   3.721   4.074  1.6778  0.5423  1.4541
 9054TIP3    H248654   3.563   3.815   4.098  1.1702  0.3152 -0.0450
 9055TIP3   OH248655   5.721   2.162  11.842  0.4290 -0.7239  0.6762
 9055TIP3    H148656   5.648   2.107  11.813  0.9032 -0.3542 -1.3929
 9055TIP3    H248657   5.792   2.143  11.780  1.0585  1.1616  0.7533
 9056TIP3   OH248658   5.491   5.477  17.126 -1.0783 -0.0299 -0.4987
 9056TIP3    H148659   5.488   5.548  17.191 -0.4397 -0.2590 -0.2070
 9056TIP3    H248660   5.461   5.518  17.045 -0.8307  0.5440 -0.3101
 9057TIP3   OH248661   1.859   1.201   3.757 -0.3889  0.1072 -0.4709
 9057TIP3    H148662   1.897   1.258   3.691 -2.5935  1.8383 -0.3717
 9057TIP3    H248663   1.788   1.156   3.712 -0.0506 -0.9574  0.0192
 9058TIP3   OH248664   5.173   5.221   2.017  0.1316  0.1340 -1.2068
 9058TIP3    H148665   5.138   5.150   2.070  1.1470  0.7290  0.3143
 9058TIP3    H248666   5.116   5.296   2.036  0.3777  0.2978 -1.1148
 9059TIP3   OH248667   6.736   4.813  11.751  0.3918 -0.1183 -0.4121
 9059TIP3    H148668   6.646   4.823  11.783 -0.1455  1.1314 -2.1088
 9059TIP3    H248669   6.791   4.851  11.820 -0.3060 -1.3749  0.8786
 9060TIP3   OH248670   1.989   6.792   1.720 -0.1380 -0.0433  0.1509
 9060TIP3    H148671   2.020   6.882   1.711  2.5104 -0.3135  4.1588
 9060TIP3    H248672   1.906   6.791   1.671 -0.5331  4.6427  0.2013
 9061TIP3   OH248673   6.420   1.671  16.967  0.3191  0.0781  0.1338
 9061TIP3    H148674   6.385   1.714  16.889  0.0181  0.8298  0.6797
 9061TIP3    H248675   6.514   1.689  16.964  0.2995  0.1528 -0.0291
 9062TIP3   OH248676   4.735   1.100   5.617 -0.3294  0.4361  0.5245
 9062TIP3    H148677   4.699   1.103   5.706 -0.4959 -2.8602  0.6935
 9062TIP3    H248678   4.798   1.029   5.619  1.0451  1.4977 -1.5836
 9063TIP3   OH248679   6.355   5.872  11.474  0.0337 -0.1880 -0.0706
 9063TIP3    H148680   6.263   5.886  11.449 -0.4224 -1.1377  0.9674
 9063TIP3    H248681   6.371   5.937  11.542  0.7724  1.3042 -1.6064
 9064TIP3   OH248682   0.451   3.301   2.372 -0.1601  0.0214  0.0883
 9064TIP3    H148683   0.510   3.227   2.387 -0.0519  0.0940  0.0307
 9064TIP3    H248684   0.507   3.366   2.329 -0.3243  0.0265 -0.1186
 9065TIP3   OH248685   3.353   3.789  11.720 -0.0376 -0.3069  0.1920
 9065TIP3    H148686   3.438   3.750  11.744  0.3033  0.6385  0.5899
 9065TIP3    H248687   3.372   3.882  11.708 -0.8341 -0.2442 -0.7197
 9066TIP3   OH248688   3.326   2.218  14.546 -1.1258 -0.1405  0.9027
 9066TIP3    H148689   3.404   2.180  14.507 -0.9392 -1.1489  2.1874
 9066TIP3    H248690   3.259   2.211  14.478 -0.2030  0.4496 -0.0969
 9067TIP3   OH248691   6.529   3.127  13.116 -0.2254  0.1535 -0.0150
 9067TIP3    H148692   6.579   3.059  13.072 -0.2221 -0.6557  1.2129
 9067TIP3    H248693   6.591   3.199  13.128  0.1135 -0.1126 -0.1648
 9068TIP3   OH248694   1.547   3.841  16.184 -0.9028  0.1997 -0.0341
 9068TIP3    H148695   1.501   3.890  16.116 -0.3269 -0.2870 -0.7979
 9068TIP3    H248696   1.615   3.792  16.137  0.2281  0.6993  1.0195
 9069TIP3   OH248697   0.669   6.390  14.743 -0.0066  0.0350  0.0685
 9069TIP3    H148698   0.631   6.323  14.799 -0.8537 -0.2078 -0.7721
 9069TIP3    H248699   0.594   6.441  14.712  0.2690 -0.6120 -1.8201
 9070TIP3   OH248700   3.202   4.974  11.528 -0.2660 -0.1519 -0.0638
 9070TIP3    H148701   3.133   5.007  11.586 -1.9146  0.1101 -2.0515
 9070TIP3    H248702   3.282   5.012  11.563 -1.4253  1.5357  0.9449
 9071TIP3   OH248703   0.274   1.198  12.539  0.5088 -0.0633  0.3451
 9071TIP3    H148704   0.209   1.195  12.608  2.3876 -1.5104  2.1738
 9071TIP3    H248705   0.295   1.107  12.520  0.2722  0.2890 -1.9867
 9072TIP3   OH248706   5.237   0.790  14.165  0.1267 -0.8340 -0.1030
 9072TIP3    H148707   5.184   0.858  14.125  0.0381  0.0595  1.4659
 9072TIP3    H248708   5.198   0.708  14.135 -1.1906 -0.1932 -0.1825
 9073TIP3   OH248709   1.142   6.452   1.432 -0.2622  0.4967  0.1548
 9073TIP3    H148710   1.156   6.358   1.420 -0.3379  0.2808  1.5541
 9073TIP3    H248711   1.230   6.488   1.438 -0.1940  0.1596  1.8510
 9074TIP3   OH248712   2.338   1.830   4.283 -0.0193 -0.1759  0.4388
 9074TIP3    H148713   2.280   1.847   4.208  0.2022  0.3034  0.3712
 9074TIP3    H248714   2.328   1.736   4.300  0.8418 -0.5641 -0.9800
 9075TIP3   OH248715   4.189   3.653   4.007  0.0915 -0.7692 -0.7235
 9075TIP3    H148716   4.203   3.713   4.080 -0.2690 -0.9989 -0.4648
 9075TIP3    H248717   4.253   3.681   3.941  0.8367 -0.9476 -0.0913
 9076TIP3   OH248718   5.597   3.853  10.872  0.4968  0.1291  0.8509
 9076TIP3    H148719   5.665   3.920  10.878  1.5720 -0.8092 -0.2883
 9076TIP3    H248720   5.522   3.899  10.833  0.9982  0.8292  0.6966
 9077TIP3   OH248721   4.304   4.680   2.915  0.0644  0.7017  0.0462
 9077TIP3    H148722   4.249   4.604   2.931  0.6342 -0.5413 -3.1544
 9077TIP3    H248723   4.248   4.741   2.868  0.3504  1.1468  0.2730
 9078TIP3   OH248724   5.931   3.205  16.572 -0.0624  0.4421 -0.0861
 9078TIP3    H148725   5.930   3.298  16.551 -0.8639  0.5779  0.4961
 9078TIP3    H248726   5.874   3.197  16.649  2.3282 -0.1046  1.7489
 9079TIP3   OH248727   5.579   5.594  15.284 -0.4474  0.2699  0.0919
 9079TIP3    H148728   5.667   5.574  15.251  0.3218 -1.0494  2.6478
 9079TIP3    H248729   5.533   5.633  15.209  1.3346 -1.7602 -2.2336
 9080TIP3   OH248730   6.676   5.001  16.103 -0.3147 -0.1139  0.2551
 9080TIP3    H148731   6.712   4.928  16.153 -1.2179 -0.8326 -0.1304
 9080TIP3    H248732   6.639   5.059  16.170  1.5869  0.7197  0.6845
 9081TIP3   OH248733   0.213   6.376   5.547 -0.2774 -0.1137  0.2222
 9081TIP3    H148734   0.194   6.355   5.456 -1.6202 -1.0832  0.6753
 9081TIP3    H248735   0.203   6.471   5.553  1.4609  0.1713 -0.9605
 9082TIP3   OH248736   1.784   5.480  15.734 -0.1707 -0.4182  0.5094
 9082TIP3    H148737   1.707   5.426  15.753 -0.4489 -0.4100 -0.4888
 9082TIP3    H248738   1.755   5.537  15.663  0.5769  0.0065  0.5427
 9083TIP3   OH248739   3.693   1.021   2.584  0.2108  0.1054 -0.1253
 9083TIP3    H148740   3.730   0.962   2.519  1.3843  0.2857  0.3628
 9083TIP3    H248741   3.678   0.966   2.661 -1.4846 -0.1826 -0.6143
 9084TIP3   OH248742   6.103   2.029   0.896 -0.3996  0.3903 -0.5352
 9084TIP3    H148743   6.164   2.102   0.894 -0.5454  0.5538  0.4989
 9084TIP3    H248744   6.106   1.997   0.986 -1.4267  0.0479 -0.6059
 9085TIP3   OH248745   6.090   0.133   2.218  0.1523 -0.9342 -0.0866
 9085TIP3    H148746   6.002   0.122   2.181  0.8822 -2.2698 -1.5671
 9085TIP3    H248747   6.092   0.075   2.293 -0.6793  0.2329  0.8792
 9086TIP3   OH248748   5.223   0.894   4.660 -0.7007 -0.3941 -0.2449
 9086TIP3    H148749   5.315   0.871   4.645 -1.2175 -2.3308 -0.7602
 9086TIP3    H248750   5.226   0.967   4.722  1.2009  0.2152 -0.9913
 9087TIP3   OH248751   3.684   4.024  11.173 -0.1265  0.6626 -0.0323
 9087TIP3    H148752   3.765   3.984  11.141  0.1438 -0.3831  1.8579
 9087TIP3    H248753   3.620   3.953  11.173 -0.6543  1.1295 -0.1280
 9088TIP3   OH248754   4.008   4.875  14.965  1.3756  0.3027 -0.1060
 9088TIP3    H148755   4.040   4.889  14.876  0.2963 -1.1336 -0.7732
 9088TIP3    H248756   4.062   4.803  14.999 -0.5273 -1.6875 -1.0043
 9089TIP3   OH248757   6.554   0.616   3.323 -0.1791  0.2090  0.1578
 9089TIP3    H148758   6.540   0.707   3.296  2.0206  0.9418  1.2568
 9089TIP3    H248759   6.466   0.581   3.335 -1.1288  2.8094  1.6538
 9090TIP3   OH248760   0.940   4.649   1.615 -0.0060  0.1774  0.1036
 9090TIP3    H148761   1.003   4.650   1.688 -0.1221 -0.0108  0.2090
 9090TIP3    H248762   0.866   4.701   1.647 -0.6586 -1.0645  0.6748
 9091TIP3   OH248763   3.526   2.592   2.001 -0.5104 -0.4348  0.3051
 9091TIP3    H148764   3.516   2.512   1.950 -0.8004  0.5021 -1.1686
 9091TIP3    H248765   3.568   2.654   1.941 -2.6787  1.3447  0.4821
 9092TIP3   OH248766   2.437   2.584  14.948  0.1304  0.1592 -0.6242
 9092TIP3    H148767   2.506   2.576  15.014  1.1617  0.3672 -1.6497
 9092TIP3    H248768   2.371   2.640  14.989 -0.0674 -1.1130  0.8702
 9093TIP3   OH248769   3.356   4.281  12.104 -0.0692 -0.5309 -0.2889
 9093TIP3    H148770   3.429   4.240  12.149 -0.2495 -0.6631 -0.1132
 9093TIP3    H248771   3.394   4.320  12.025  0.4919  0.8904  0.6471
 9094TIP3   OH248772   3.837   0.582  14.332  0.2890 -0.3400 -0.3850
 9094TIP3    H148773   3.759   0.624  14.296  0.3930 -0.9950 -1.4499
 9094TIP3    H248774   3.901   0.652  14.340 -1.2504  0.8504  3.3594
 9095TIP3   OH248775   2.699   2.534  11.267 -0.2102 -1.2294 -0.3659
 9095TIP3    H148776   2.723   2.549  11.176 -0.9595 -0.8008 -0.5097
 9095TIP3    H248777   2.706   2.440  11.279  1.5756 -1.1193 -0.3604
 9096TIP3   OH248778   4.354   6.699   5.081  0.2683 -0.1145  0.1742
 9096TIP3    H148779   4.326   6.771   5.024  1.8164  0.0284 -0.4351
 9096TIP3    H248780   4.283   6.635   5.073  0.1832  0.1334 -1.5039
 9097TIP3   OH248781   1.784   6.760  11.376  0.1303  0.0388 -0.4088
 9097TIP3    H148782   1.832   6.809  11.442 -1.1417  1.9202 -0.8135
 9097TIP3    H248783   1.711   6.720  11.423  0.1336  0.0407 -0.4025
 9098TIP3   OH248784   5.204   5.957   0.913  0.1435  0.2105  0.1743
 9098TIP3    H148785   5.259   6.025   0.952 -0.3463  0.7589 -0.0772
 9098TIP3    H248786   5.122   5.960   0.963 -0.1713  0.3403 -0.3419
 9099TIP3   OH248787   3.846   6.046   1.678  0.0252 -0.3257 -0.6296
 9099TIP3    H148788   3.893   6.119   1.640 -0.1003 -1.9588 -4.3553
 9099TIP3    H248789   3.889   5.968   1.644 -1.6542 -1.9753  0.7459
 9100TIP3   OH248790   3.332   2.858  14.451  0.5912  0.0885  0.3654
 9100TIP3    H148791   3.248   2.822  14.479  0.0446 -0.8720 -2.2166
 9100TIP3    H248792   3.309   2.924  14.386  1.7919  1.8797  1.6752
 9101TIP3   OH248793   1.788   3.132   0.971 -0.2732 -0.3634 -0.6202
 9101TIP3    H148794   1.696   3.134   0.946 -0.2030  1.6192 -0.8619
 9101TIP3    H248795   1.790   3.082   1.053 -1.6976  0.3472 -0.1332
 9102TIP3   OH248796   5.306   1.544  16.599  0.8447 -0.6575  0.3358
 9102TIP3    H148797   5.353   1.489  16.661 -0.2254 -0.5536  1.2877
 9102TIP3    H248798   5.236   1.584  16.651  0.6966  0.4473 -0.6599
 9103TIP3   OH248799   3.556   2.670  16.562 -0.0277 -0.3971  0.2084
 9103TIP3    H148800   3.621   2.613  16.520  0.0302 -0.5481  0.5036
 9103TIP3    H248801   3.539   2.629  16.647 -0.0289 -0.0037  0.3980
 9104TIP3   OH248802   6.032   2.770  14.133 -0.0764  0.2280  0.5405
 9104TIP3    H148803   6.013   2.676  14.136  0.1602  0.1983  1.6173
 9104TIP3    H248804   6.125   2.775  14.109 -0.2636  0.2149 -0.1964
 9105TIP3   OH248805   5.976   0.361   4.593  0.0288 -0.0298 -0.1384
 9105TIP3    H148806   5.967   0.298   4.522 -2.3232  0.7530 -0.6134
 9105TIP3    H248807   5.888   0.370   4.630  0.5509  1.9796  0.7719
 9106TIP3   OH248808   1.335   1.623   3.184  0.4753 -0.1932 -0.4860
 9106TIP3    H148809   1.358   1.621   3.277 -0.4922 -0.7839 -0.2543
 9106TIP3    H248810   1.418   1.643   3.139  1.0387 -0.3719  0.4605
 9107TIP3   OH248811   3.066   4.519  16.495  0.3841  0.0527 -0.2801
 9107TIP3    H148812   3.110   4.605  16.502  1.9103 -0.7990  2.7723
 9107TIP3    H248813   3.035   4.515  16.405  1.7328  3.1078 -1.0308
 9108TIP3   OH248814   1.223   1.568  13.164 -0.6770  0.3138  0.0786
 9108TIP3    H148815   1.274   1.555  13.244 -1.0855 -2.0757  0.0183
 9108TIP3    H248816   1.257   1.650  13.127  3.0049 -0.9773  0.1485
 9109TIP3   OH248817   1.359   5.573  11.776 -0.3523 -0.3781  0.5136
 9109TIP3    H148818   1.363   5.560  11.870  0.7531 -0.5169  0.4528
 9109TIP3    H248819   1.363   5.668  11.765 -0.5438 -0.3590  0.6076
 9110TIP3   OH248820   1.448   3.100   5.828  0.1649  0.0615 -0.0630
 9110TIP3    H148821   1.381   3.124   5.892  2.2153  1.0092  1.8473
 9110TIP3    H248822   1.511   3.047   5.877  2.1924  1.4298 -1.0504
 9111TIP3   OH248823   3.670   4.766  11.508 -0.0658  0.0061 -0.0017
 9111TIP3    H148824   3.602   4.811  11.458  0.7449  0.9273 -0.3005
 9111TIP3    H248825   3.708   4.834  11.563  0.0938 -0.6704  0.7437
 9112TIP3   OH248826   1.335   0.211  12.266 -0.2056  0.0862 -0.1021
 9112TIP3    H148827   1.418   0.259  12.270 -0.9884  1.4472  0.6257
 9112TIP3    H248828   1.284   0.244  12.340 -1.0682 -1.3764 -0.0083
 9113TIP3   OH248829   2.792   2.784   0.162  0.4183  0.4252 -0.6278
 9113TIP3    H148830   2.856   2.751   0.225  1.6193  1.5968 -1.2110
 9113TIP3    H248831   2.719   2.815   0.217  0.5624 -0.4136  0.0676
 9114TIP3   OH248832   1.591   1.242   1.584  0.0654  0.2110 -0.0295
 9114TIP3    H148833   1.585   1.156   1.625  0.1209  0.4340  0.4452
 9114TIP3    H248834   1.657   1.288   1.635 -0.9028  0.9960  0.5386
 9115TIP3   OH248835   0.707   1.555   5.582 -0.0683 -0.1808 -0.2498
 9115TIP3    H148836   0.681   1.610   5.656 -0.1058 -0.7023  0.1316
 9115TIP3    H248837   0.769   1.608   5.533  1.5076 -0.5277  1.2514
 9116TIP3   OH248838   2.446   2.782  10.465  0.0451 -0.0184 -0.3149
 9116TIP3    H148839   2.437   2.871  10.500  0.9773 -0.0313 -0.0318
 9116TIP3    H248840   2.358   2.744  10.474  0.2303 -0.0264  2.0331
 9117TIP3   OH248841   5.414   6.049   3.763  0.2107  0.5788 -0.4912
 9117TIP3    H148842   5.331   6.086   3.792 -0.3629  0.3098 -1.7554
 9117TIP3    H248843   5.440   6.102   3.688 -0.0205 -0.8062 -1.5756
 9118TIP3   OH248844   1.805   6.750  14.104  0.0408  0.2200  1.2892
 9118TIP3    H148845   1.849   6.666  14.111  0.7833  0.6962  3.0051
 9118TIP3    H248846   1.712   6.731  14.117  0.3659 -0.1854  3.2778
 9119TIP3   OH248847   0.236   3.594  16.063  0.7154 -0.1365 -0.1001
 9119TIP3    H148848   0.155   3.624  16.104  0.5770  1.0043 -1.1303
 9119TIP3    H248849   0.207   3.528  16.000  0.6925 -0.4313  0.2212
 9120TIP3   OH248850   6.048   6.304  14.790 -0.3446 -0.0392  0.0856
 9120TIP3    H148851   6.078   6.391  14.763  1.5354 -0.5993  0.2149
 9120TIP3    H248852   6.115   6.273  14.851 -0.9587 -1.6041  0.0305
 9121TIP3   OH248853   0.530   0.002   1.047 -0.1576  0.3265  0.0086
 9121TIP3    H148854   0.436   0.004   1.027 -0.3808 -1.2215  0.8255
 9121TIP3    H248855   0.550   0.093   1.072 -1.2927  0.8126 -0.7250
 9122TIP3   OH248856   0.172   4.646  15.437 -0.4969  0.0407  0.1096
 9122TIP3    H148857   0.235   4.644  15.509 -0.7264  1.8269  0.3998
 9122TIP3    H248858   0.100   4.699  15.470 -2.1277 -1.8211 -0.2841
 9123TIP3   OH248859   5.904   0.916  15.936  0.3549  0.0954  0.3431
 9123TIP3    H148860   5.838   0.847  15.930  0.3181  0.1004  0.6879
 9123TIP3    H248861   5.866   0.981  15.995  1.1526 -0.4548  1.4961
 9124TIP3   OH248862   5.264   5.912  15.805 -0.1899  0.3050 -0.0127
 9124TIP3    H148863   5.242   5.898  15.713 -0.4619 -2.8218  0.4207
 9124TIP3    H248864   5.338   5.853  15.821 -0.7494  0.0859  1.9918
 9125TIP3   OH248865   1.291   1.724  15.810  0.2384 -0.9334 -0.3910
 9125TIP3    H148866   1.327   1.741  15.897 -2.6013  1.7457  0.4567
 9125TIP3    H248867   1.349   1.772  15.750  0.1349  0.3005  0.4763
 9126TIP3   OH248868   6.079   4.707   3.754  0.0012 -0.0781  0.6729
 9126TIP3    H148869   5.999   4.687   3.707  0.1484  1.6471 -0.3873
 9126TIP3    H248870   6.128   4.625   3.754 -1.3048 -0.8853  0.4575
 9127TIP3   OH248871   6.538   6.669   0.957 -0.3744  0.0161 -0.2474
 9127TIP3    H148872   6.610   6.666   0.894  0.3334  0.4618  0.5289
 9127TIP3    H248873   6.552   6.594   1.014 -1.8352 -1.2520 -1.4538
 9128TIP3   OH248874   0.643   5.579   0.422 -0.3840  0.9963 -0.3023
 9128TIP3    H148875   0.609   5.493   0.447  0.3384  1.1588  1.3470
 9128TIP3    H248876   0.573   5.618   0.370 -1.2032 -0.1277 -0.0714
 9129TIP3   OH248877   2.470   5.800   1.905  0.0434  0.2941 -0.5319
 9129TIP3    H148878   2.477   5.851   1.824  1.0248  0.6979 -0.2050
 9129TIP3    H248879   2.556   5.759   1.916  0.3776  1.2935  0.9724
 9130TIP3   OH248880   1.072   1.882   4.906 -0.2504 -0.0451 -0.2086
 9130TIP3    H148881   1.022   1.810   4.944 -0.2246 -1.0795 -2.0174
 9130TIP3    H248882   1.006   1.948   4.884 -0.1852  0.9434  2.2464
 9131TIP3   OH248883   1.543   3.863   1.798  0.2627  0.1231  0.0342
 9131TIP3    H148884   1.587   3.909   1.727 -0.9676  1.5322  0.1434
 9131TIP3    H248885   1.524   3.776   1.762  1.7013  0.0234 -0.5398
 9132TIP3   OH248886   4.371   6.495  12.622 -0.0399 -0.0761  0.0059
 9132TIP3    H148887   4.353   6.404  12.644  1.5640 -0.3331  0.3648
 9132TIP3    H248888   4.340   6.505  12.532  1.4908 -1.5356 -0.7382
 9133TIP3   OH248889   4.129   5.082  10.696  0.2460 -0.0153 -0.1933
 9133TIP3    H148890   4.051   5.063  10.644 -1.1212  3.5030  0.3229
 9133TIP3    H248891   4.162   4.996  10.722 -2.0235 -1.7124 -2.4474
 9134TIP3   OH248892   6.780   3.232  13.987  0.3573  0.3152  0.0692
 9134TIP3    H148893   6.830   3.280  13.921  0.8948 -0.4374 -0.0875
 9134TIP3    H248894   6.838   3.229  14.063 -0.1860  1.0160  0.5312
 9135TIP3   OH248895   0.321   4.566  14.909  0.5167  0.6867  0.2507
 9135TIP3    H148896   0.320   4.594  15.001  0.6401 -1.0191  0.8059
 9135TIP3    H248897   0.236   4.593  14.875  0.4633  1.3303  0.8651
 9136TIP3   OH248898   1.531   4.537  16.942  0.0641 -0.1059 -0.1667
 9136TIP3    H148899   1.535   4.447  16.976  0.8909 -0.4473 -1.1085
 9136TIP3    H248900   1.599   4.540  16.875  0.9481  1.6152  0.7465
 9137TIP3   OH248901   0.724   3.731  16.763 -0.2547 -0.0120 -0.4009
 9137TIP3    H148902   0.763   3.697  16.683 -2.6385 -1.3698 -1.0997
 9137TIP3    H248903   0.740   3.663  16.829  3.1950  1.8164  0.9217
 9138TIP3   OH248904   0.229   4.128   3.627 -0.8454  0.1069 -0.2960
 9138TIP3    H148905   0.304   4.134   3.686 -0.2070 -2.4222 -0.7631
 9138TIP3    H248906   0.224   4.215   3.586  1.0174  0.7337  0.7013
 9139TIP3   OH248907   4.467   2.601   3.648  0.5865 -0.3372 -0.3758
 9139TIP3    H148908   4.451   2.694   3.633  0.2890 -0.4923 -1.0689
 9139TIP3    H248909   4.545   2.581   3.597 -1.1461 -1.1506 -2.9387
 9140TIP3   OH248910   0.871   6.634   6.291  0.3406  0.0984 -0.2312
 9140TIP3    H148911   0.800   6.698   6.295 -0.0742 -0.3921  0.4111
 9140TIP3    H248912   0.888   6.610   6.382 -0.7281 -1.9953 -0.5307
 9141TIP3   OH248913   2.103   5.871  13.140  0.2453  0.0784  0.2495
 9141TIP3    H148914   2.158   5.943  13.111  0.1180  0.1419  0.1651
 9141TIP3    H248915   2.163   5.798  13.153  0.4565  0.3546  0.8705
 9142TIP3   OH248916   2.351   0.152  16.859  0.3644 -0.2728 -0.0761
 9142TIP3    H148917   2.338   0.065  16.899 -1.1036 -0.3879 -0.7312
 9142TIP3    H248918   2.272   0.200  16.881  0.7418  0.5815 -0.5487
 9143TIP3   OH248919   4.331   0.663  12.248 -0.3059 -0.3179  0.3749
 9143TIP3    H148920   4.321   0.686  12.156 -0.2812 -0.0461  0.4406
 9143TIP3    H248921   4.408   0.712  12.278 -0.8669  0.3263  0.7799
 9144TIP3   OH248922   2.608   4.215   0.607  0.5594 -0.5784  0.5463
 9144TIP3    H148923   2.685   4.238   0.659 -0.1827 -1.1252  1.9459
 9144TIP3    H248924   2.586   4.126   0.634  0.6479 -1.2391 -1.3690
 9145TIP3   OH248925   6.234   1.402  11.182 -1.2038 -0.1515 -0.1633
 9145TIP3    H148926   6.318   1.419  11.223 -0.8187 -0.8646 -0.6433
 9145TIP3    H248927   6.247   1.323  11.130 -2.2831 -0.5111  0.0774
 9146TIP3   OH248928   3.082   5.399  15.729  0.1120  0.1115 -0.4616
 9146TIP3    H148929   3.033   5.363  15.655 -0.9519  0.7490 -0.0921
 9146TIP3    H248930   3.174   5.392  15.703  0.0149 -3.0815 -0.3075
 9147TIP3   OH248931   1.550   3.377  11.256  0.1390  0.5078  0.1869
 9147TIP3    H148932   1.561   3.327  11.337 -1.1623  1.2569  0.8595
 9147TIP3    H248933   1.506   3.316  11.196 -0.3079  0.4498  0.5727
 9148TIP3   OH248934   4.602   1.587   3.977 -0.1545 -0.2999 -0.1283
 9148TIP3    H148935   4.608   1.623   4.066  4.2924  0.5091 -0.5498
 9148TIP3    H248936   4.596   1.664   3.921  1.7372 -0.4896 -0.6635
 9149TIP3   OH248937   1.467   1.546   5.107 -0.4643 -0.2888 -0.3648
 9149TIP3    H148938   1.549   1.589   5.135 -1.4155  0.7616  0.9222
 9149TIP3    H248939   1.398   1.593   5.154 -1.7202 -2.0785 -0.3244
 9150TIP3   OH248940   6.431   0.952  14.637 -0.0804  0.6874  0.0342
 9150TIP3    H148941   6.434   0.962  14.732 -2.2631  2.3109  0.0097
 9150TIP3    H248942   6.348   0.906  14.620 -0.0771  1.0577 -1.0927
 9151TIP3   OH248943   1.157   5.716  12.846  0.6840  0.1638 -0.1964
 9151TIP3    H148944   1.084   5.725  12.908 -2.0984 -3.7534 -2.4005
 9151TIP3    H248945   1.141   5.784  12.781  0.1184  0.5452  0.3224
 9152TIP3   OH248946   5.071   3.209  16.907  0.4544  0.8003 -0.3789
 9152TIP3    H148947   5.017   3.262  16.966  0.0001  0.5916 -0.6017
 9152TIP3    H248948   5.023   3.209  16.824  1.5636  1.9090 -1.0641
 9153TIP3   OH248949   4.280   5.236  16.702 -0.3141 -0.0231 -0.9448
 9153TIP3    H148950   4.220   5.278  16.763  2.4819  0.7393  1.4706
 9153TIP3    H248951   4.292   5.148  16.737  0.9185  0.2458 -0.6722
 9154TIP3   OH248952   2.126   0.076  13.497  0.3834 -0.5139  0.0611
 9154TIP3    H148953   2.211   0.034  13.485 -0.0365 -1.3611  0.0154
 9154TIP3    H248954   2.063   0.004  13.495 -0.5445  0.2824 -1.9038
 9155TIP3   OH248955   4.542   0.149  10.757  0.1686  0.2195  0.1337
 9155TIP3    H148956   4.470   0.097  10.720  1.5299 -0.5590 -1.5940
 9155TIP3    H248957   4.611   0.085  10.775  0.5402  0.9733  1.5431
 9156TIP3   OH248958   4.106   3.233   2.049 -0.2207  0.2534  0.1571
 9156TIP3    H148959   4.122   3.217   2.142  0.3762 -0.5745 -0.0773
 9156TIP3    H248960   4.114   3.328   2.039 -0.7461  0.4004  1.0289
 9157TIP3   OH248961   3.961   2.554   2.331  0.0819 -0.6804 -0.3595
 9157TIP3    H148962   3.879   2.583   2.293 -0.5134 -0.8329  0.7565
 9157TIP3    H248963   4.026   2.616   2.298 -0.8581  0.8693  0.5496
 9158TIP3   OH248964   0.016   5.079   3.573  0.1873  0.2519 -0.0651
 9158TIP3    H148965   0.093   5.042   3.615  0.7405  0.0124 -1.2384
 9158TIP3    H248966   0.000   5.162   3.618  0.3993 -0.2628  0.9791
 9159TIP3   OH248967   4.458   0.251   3.227  0.2251  0.1423  0.3687
 9159TIP3    H148968   4.478   0.177   3.170 -1.9433 -1.1736  1.1963
 9159TIP3    H248969   4.457   0.213   3.315 -1.6103  0.9810  0.7358
 9160TIP3   OH248970   0.875   6.225  11.872 -0.0753  0.2313  0.9772
 9160TIP3    H148971   0.813   6.155  11.895  0.4050  0.2484  2.4309
 9160TIP3    H248972   0.841   6.262  11.791 -2.0282  0.2707  1.7551
 9161TIP3   OH248973   3.198   6.614  12.118  0.0966 -0.1002 -0.0058
 9161TIP3    H148974   3.151   6.548  12.170 -1.5720  1.1596  0.1842
 9161TIP3    H248975   3.155   6.613  12.033  1.4850 -0.7210 -0.7371
 9162TIP3   OH248976   3.616   2.110  13.750  0.4159  0.1312 -0.1869
 9162TIP3    H148977   3.548   2.114  13.682  0.0995  0.4266  0.1418
 9162TIP3    H248978   3.573   2.144  13.829  0.5684 -0.8533  0.3319
 9163TIP3   OH248979   2.916   0.900  13.594 -0.6311  0.0858  0.1260
 9163TIP3    H148980   2.873   0.977  13.559 -0.8909  0.7892  1.9275
 9163TIP3    H248981   2.900   0.903  13.688 -0.6984 -2.2011  0.2454
 9164TIP3   OH248982   5.498   4.764  17.029  0.4454 -0.7330  0.0151
 9164TIP3    H148983   5.587   4.800  17.024  0.5472 -1.1101 -1.0847
 9164TIP3    H248984   5.497   4.716  17.112  1.6968 -1.8166 -0.5491
 9165TIP3   OH248985   0.028   2.508   0.173  0.2665  0.5434 -0.2908
 9165TIP3    H148986   0.111   2.555   0.175  1.4885 -1.3297 -2.4314
 9165TIP3    H248987  -0.038   2.576   0.161  1.9533  1.8276 -3.3761
 9166TIP3   OH248988   3.505   2.729  10.976 -0.2724  0.2726  0.1201
 9166TIP3    H148989   3.494   2.634  10.971 -2.0837  0.4437  0.2164
 9166TIP3    H248990   3.593   2.741  11.012 -0.2541 -1.3850  0.7171
 9167TIP3   OH248991   3.816   5.741   0.168 -0.3903 -0.4079  0.2045
 9167TIP3    H148992   3.895   5.702   0.204 -0.1658 -1.0009 -0.9078
 9167TIP3    H248993   3.746   5.714   0.227  0.2110  0.0569  1.1498
 9168TIP3   OH248994   4.014   3.703   3.654  0.2293 -0.9198  0.0128
 9168TIP3    H148995   3.954   3.680   3.583  3.2163 -1.1575 -2.6276
 9168TIP3    H248996   3.996   3.796   3.672 -0.6592 -0.8915 -0.9497
 9169TIP3   OH248997   5.138   0.639   5.020  0.1720  0.2156  0.2467
 9169TIP3    H148998   5.110   0.618   4.931  1.0294 -0.9460  0.2249
 9169TIP3    H248999   5.060   0.676   5.062 -1.0114 -1.6874 -0.1804
 9170TIP3   OH249000   6.079   3.710  16.409 -0.4774  0.0206  0.3637
 9170TIP3    H149001   6.133   3.772  16.457  0.1059  0.4621 -0.8220
 9170TIP3    H249002   6.141   3.655  16.362 -0.9964 -1.2681  1.1236
 9171TIP3   OH249003   5.970   5.170   0.120  0.6276 -0.4967  0.1651
 9171TIP3    H149004   5.902   5.228   0.086  0.9778  0.6247  1.3112
 9171TIP3    H249005   6.044   5.183   0.061  0.2221 -0.9128 -0.4495
 9172TIP3   OH249006   2.465   3.281   5.992 -0.5268 -0.5374  0.2130
 9172TIP3    H149007   2.469   3.337   6.069  0.1123  0.0385 -0.2303
 9172TIP3    H249008   2.487   3.339   5.919  2.0132 -1.7433 -0.0679
 9173TIP3   OH249009   3.762   1.858   3.416  0.0565  0.7958  0.5945
 9173TIP3    H149010   3.790   1.894   3.500  0.0057  3.2084 -0.3204
 9173TIP3    H249011   3.840   1.817   3.380  0.9363  2.4059  0.5663
 9174TIP3   OH249012   3.448   1.899   4.964 -0.6712 -0.4103  0.4055
 9174TIP3    H149013   3.378   1.901   5.029 -0.8114 -2.9180  0.3976
 9174TIP3    H249014   3.508   1.831   4.995  0.3874 -0.1589 -0.9857
 9175TIP3   OH249015   0.394   0.074  16.992  0.5227  0.5422 -0.0425
 9175TIP3    H149016   0.455   0.109  16.927 -1.8465  2.1665 -1.5576
 9175TIP3    H249017   0.321   0.040  16.940 -0.5105 -0.0431  1.7075
 9176TIP3   OH249018   1.647   1.433   4.196  0.4331 -0.6255 -0.3719
 9176TIP3    H149019   1.665   1.398   4.109 -1.6158 -0.7926 -0.7848
 9176TIP3    H249020   1.698   1.378   4.255  0.5765 -1.5636 -1.3389
 9177TIP3   OH249021   2.100   0.946  15.551  0.4911  0.2093  0.1494
 9177TIP3    H149022   2.096   0.867  15.496  3.2963  0.8860 -1.2215
 9177TIP3    H249023   2.033   1.004  15.515 -0.3501 -0.8311 -0.0150
 9178TIP3   OH249024   1.759   1.351   1.117  0.3422 -0.3406  0.3895
 9178TIP3    H149025   1.686   1.408   1.144 -1.6210 -1.7711 -1.5488
 9178TIP3    H249026   1.797   1.396   1.041  0.3203 -0.4744  0.2996
 9179TIP3   OH249027   0.345   2.372   5.127 -0.1099 -0.2574  0.2438
 9179TIP3    H149028   0.410   2.303   5.114  0.8120  0.2988  1.6327
 9179TIP3    H249029   0.384   2.430   5.192 -1.1205  1.2597 -0.4345
 9180TIP3   OH249030   5.740   1.883   4.934 -0.1660 -0.1356  0.4321
 9180TIP3    H149031   5.686   1.810   4.905  0.5897 -0.9870  1.1312
 9180TIP3    H249032   5.709   1.904   5.022  0.2838 -0.2778  0.6277
 9181TIP3   OH249033   4.688   5.324   5.460 -0.2562 -0.0848 -0.2211
 9181TIP3    H149034   4.619   5.258   5.469  0.2308 -0.6948 -0.8978
 9181TIP3    H249035   4.768   5.280   5.489  0.3836 -0.3776 -2.2958
 9182TIP3   OH249036   6.278   3.391  12.616 -0.1247 -0.2647 -1.2200
 9182TIP3    H149037   6.230   3.346  12.686 -0.5168 -0.4229 -1.5840
 9182TIP3    H249038   6.345   3.328  12.588 -0.1643 -0.3195 -1.1913
 9183TIP3   OH249039   6.361   5.261   5.477  0.0611 -0.6174  0.1216
 9183TIP3    H149040   6.379   5.228   5.389 -1.3240 -0.6181 -0.1869
 9183TIP3    H249041   6.417   5.209   5.535  0.6106 -0.9596 -0.6990
 9184TIP3   OH249042   0.561   3.370  13.861 -0.0434 -0.0049  0.6367
 9184TIP3    H149043   0.555   3.386  13.766 -0.1905  0.4590  0.7220
 9184TIP3    H249044   0.538   3.278  13.871  0.9628 -0.3207  0.1213
 9185TIP3   OH249045   0.676   3.646  11.507  0.0476  0.1200  0.2799
 9185TIP3    H149046   0.673   3.740  11.522  0.7799  0.4145 -1.2075
 9185TIP3    H249047   0.732   3.613  11.578  1.0324  1.0291 -0.0290
 9186TIP3   OH249048   2.743   1.640   5.372 -0.0509 -0.2729  0.0791
 9186TIP3    H149049   2.726   1.657   5.279  2.4834  1.3798 -0.1793
 9186TIP3    H249050   2.710   1.718   5.417 -0.5584 -0.7273  0.5201
 9187TIP3   OH249051   2.054   4.301   5.567  0.2372 -0.0304 -0.2018
 9187TIP3    H149052   2.143   4.304   5.603 -0.4460  0.3862  1.5247
 9187TIP3    H249053   2.036   4.207   5.558  1.0808 -0.1222 -1.2566
 9188TIP3   OH249054   0.380   3.793  17.108  0.3515 -0.2557 -0.2944
 9188TIP3    H149055   0.332   3.860  17.060 -0.2459 -1.7171 -1.8421
 9188TIP3    H249056   0.344   3.797  17.197 -1.4969 -0.2008 -0.9922
 9189TIP3   OH249057   0.510   0.851   4.962  0.0185  0.3768 -0.1012
 9189TIP3    H149058   0.496   0.912   5.034 -2.1021  2.7592 -2.3405
 9189TIP3    H249059   0.588   0.884   4.917  0.0138  0.2586 -0.1973
 9190TIP3   OH249060   2.974   2.130  16.125 -0.0068  0.0743  0.0262
 9190TIP3    H149061   3.040   2.176  16.178  1.4876  1.0620 -2.5155
 9190TIP3    H249062   2.936   2.199  16.071  0.0857 -1.1747 -1.7032
 9191TIP3   OH249063   6.349   0.665   2.790 -0.6603  0.1718  0.3751
 9191TIP3    H149064   6.291   0.697   2.859 -1.7371 -0.4161 -0.2231
 9191TIP3    H249065   6.339   0.569   2.794  2.5761 -0.2357  2.2282
 9192TIP3   OH249066   6.777   5.298   1.208 -0.3373  0.4964  0.3848
 9192TIP3    H149067   6.866   5.263   1.212  0.5053  2.6191  2.8021
 9192TIP3    H249068   6.755   5.319   1.299 -3.6520 -0.6266 -0.0251
 9193TIP3   OH249069   6.504   2.859   3.641  0.1580 -0.1312 -0.2211
 9193TIP3    H149070   6.567   2.806   3.592  0.2471  1.2080 -1.6365
 9193TIP3    H249071   6.494   2.939   3.589 -3.0267 -0.4302 -0.2785
 9194TIP3   OH249072   1.449   4.419   3.994  0.1446 -0.0282  0.5018
 9194TIP3    H149073   1.520   4.447   3.936  0.3290  1.6562  1.4634
 9194TIP3    H249074   1.487   4.348   4.046 -0.0895 -1.7023 -1.5102
 9195TIP3   OH249075   5.488   0.883   3.610  0.5624  0.0620 -0.2143
 9195TIP3    H149076   5.409   0.907   3.562  0.5931  0.6095  0.0047
 9195TIP3    H249077   5.558   0.929   3.564  0.5968  0.5604  0.3305
 9196TIP3   OH249078   5.351   1.460  14.308 -0.1010  0.1576  0.2217
 9196TIP3    H149079   5.328   1.413  14.389 -1.8242  0.7374  0.1212
 9196TIP3    H249080   5.273   1.511  14.288  0.2642 -0.0357 -1.8733
 9197TIP3   OH249081   6.320   3.046  14.949  0.3462 -0.2796 -0.0335
 9197TIP3    H149082   6.305   2.955  14.976 -0.1827 -0.9704 -2.3650
 9197TIP3    H249083   6.317   3.096  15.030 -3.4559 -1.8273  1.0465
 9198TIP3   OH249084   3.532   3.303  16.667  0.6425 -0.1562  0.3405
 9198TIP3    H149085   3.625   3.282  16.653  0.7606 -0.7145  1.8184
 9198TIP3    H249086   3.532   3.366  16.739 -0.2274 -2.1054  2.1509
 9199TIP3   OH249087   4.697   2.472  15.385 -0.0385  0.5480 -0.4637
 9199TIP3    H149088   4.640   2.548  15.377 -0.3822  0.2548 -0.9221
 9199TIP3    H249089   4.647   2.401  15.345  0.0489 -0.0436  0.4490
 9200TIP3   OH249090   1.616   1.061   3.647 -0.1310 -0.2173 -0.0880
 9200TIP3    H149091   1.522   1.079   3.654 -0.4111 -1.0598 -1.4172
 9200TIP3    H249092   1.637   1.017   3.729 -1.3805 -1.9571 -0.6441
 9201TIP3   OH249093   3.362   1.555  15.703 -0.0604 -0.6582  0.6138
 9201TIP3    H149094   3.290   1.612  15.678  0.4656 -0.1193  0.2911
 9201TIP3    H249095   3.414   1.545  15.623  0.8310 -0.1218  1.1065
 9202TIP3   OH249096   4.702   3.832   4.949 -0.1965  0.3040 -0.5818
 9202TIP3    H149097   4.770   3.880   4.901  1.7017 -1.4451  0.2376
 9202TIP3    H249098   4.673   3.764   4.888  0.8965 -0.7590  0.0495
 9203TIP3   OH249099   5.981   3.028  13.245 -0.4958  0.1911 -0.1833
 9203TIP3    H149100   6.062   3.037  13.195 -0.6713  1.6643 -0.2297
 9203TIP3    H249101   5.923   2.978  13.187 -0.3246  0.9318 -1.0177
 9204TIP3   OH249102   4.087   0.617  14.121 -0.5385 -0.2522 -0.6077
 9204TIP3    H149103   4.063   0.676  14.193  1.0122 -0.7370  0.3475
 9204TIP3    H249104   4.131   0.674  14.057  0.6072 -0.2836  0.1331
 9205TIP3   OH249105   3.354   2.381   3.299 -0.7665 -0.1792  0.3974
 9205TIP3    H149106   3.276   2.332   3.272  0.3601 -1.4051 -0.8297
 9205TIP3    H249107   3.406   2.317   3.349  1.1443 -0.6023 -1.9683
 9206TIP3   OH249108   5.458   4.479  16.722  0.6320 -0.5767  0.4336
 9206TIP3    H149109   5.458   4.397  16.770 -1.1066 -0.7810  0.1467
 9206TIP3    H249110   5.549   4.509  16.726  1.0963 -2.0010  1.3848
 9207TIP3   OH249111   3.782   3.554   4.987 -0.4420  0.2923  0.4425
 9207TIP3    H149112   3.876   3.545   5.001 -0.8387 -0.4294  3.3724
 9207TIP3    H249113   3.772   3.562   4.892  2.3649 -2.1291 -0.1999
 9208TIP3   OH249114   2.159   1.206  12.348  0.0350 -0.4115 -0.2289
 9208TIP3    H149115   2.193   1.250  12.426  0.6087  1.9786 -1.7144
 9208TIP3    H249116   2.232   1.210  12.285 -1.3651  0.4857 -1.8765
 9209TIP3   OH249117   3.941   1.329  13.294  0.0666 -0.3583 -0.4118
 9209TIP3    H149118   3.852   1.296  13.282 -0.4809  0.7168  0.4708
 9209TIP3    H249119   3.952   1.333  13.389  0.2668  1.5116 -0.4762
 9210TIP3   OH249120   2.309   2.116   3.988  0.3661  0.0795 -0.0878
 9210TIP3    H149121   2.352   2.031   3.998  0.2788  0.0412 -0.0434
 9210TIP3    H249122   2.287   2.142   4.078 -0.5769 -0.3447 -0.1850
 9211TIP3   OH249123   1.164   1.333   0.983  0.2983 -0.2361 -0.2265
 9211TIP3    H149124   1.151   1.361   1.073 -0.6950 -0.6039 -0.2399
 9211TIP3    H249125   1.077   1.339   0.943 -0.0974 -3.5023 -0.1731
 9212TIP3   OH249126   4.387   0.721   5.571  0.2838  0.2861 -0.1989
 9212TIP3    H149127   4.419   0.787   5.510 -0.5874  1.6911  0.8123
 9212TIP3    H249128   4.427   0.639   5.541  2.0865  1.3939 -0.9790
 9213TIP3   OH249129   0.592   4.170   2.788 -0.2941  0.0335 -0.2226
 9213TIP3    H149130   0.502   4.199   2.772  0.0435  0.5468 -1.2610
 9213TIP3    H249131   0.636   4.248   2.821 -0.5638 -0.5885  1.7826
 9214TIP3   OH249132   1.252   6.463   4.029  0.7924  0.1057 -0.1576
 9214TIP3    H149133   1.244   6.489   3.937  0.7662  0.8736  0.0578
 9214TIP3    H249134   1.343   6.434   4.038  0.5377 -0.8999 -0.6521
 9215TIP3   OH249135   1.581   4.642   5.486 -0.4440  0.2307  0.5948
 9215TIP3    H149136   1.491   4.610   5.482 -0.9054  1.5334 -3.4643
 9215TIP3    H249137   1.634   4.563   5.476 -1.3157 -0.1455 -1.4465
 9216TIP3   OH249138   3.628   2.508   3.487  0.0968  0.0558  0.1412
 9216TIP3    H149139   3.630   2.455   3.407 -1.7613 -0.9245  0.6902
 9216TIP3    H249140   3.718   2.541   3.496  0.0766  1.2871 -3.0148
 9217TIP3   OH249141   2.288   2.079  12.877 -0.1886  0.2569  0.1791
 9217TIP3    H149142   2.212   2.113  12.829  0.1349 -1.1147 -1.3963
 9217TIP3    H249143   2.344   2.043  12.809  0.9926 -0.4563  1.5036
 9218TIP3   OH249144   5.142   0.826   0.219 -0.3762  0.0205 -0.3449
 9218TIP3    H149145   5.108   0.902   0.172 -0.7065 -0.2535 -0.5566
 9218TIP3    H249146   5.093   0.824   0.301 -0.4564 -0.0347 -0.3939
 9219TIP3   OH249147   5.792   1.385   0.232 -0.2070  0.3974  0.0511
 9219TIP3    H149148   5.805   1.400   0.326  0.3172  1.5734 -0.1840
 9219TIP3    H249149   5.703   1.350   0.225  0.3133 -1.2704  1.1133
 9220TIP3   OH249150   0.149   4.357   4.500 -0.5554 -0.4014  0.0878
 9220TIP3    H149151   0.127   4.320   4.586 -0.3035  1.1879  0.8810
 9220TIP3    H249152   0.200   4.289   4.457 -1.3209 -1.5224  0.8891
 9221TIP3   OH249153   4.614   6.706   5.583  0.5840  0.1158 -0.2240
 9221TIP3    H149154   4.678   6.636   5.590  0.4755 -0.0249 -0.6382
 9221TIP3    H249155   4.535   6.672   5.625  0.2350 -0.3700 -1.2393
 9222TIP3   OH249156   5.652   3.593  16.506  0.0184 -0.4647 -0.1862
 9222TIP3    H149157   5.620   3.609  16.417  1.4247 -0.1212 -0.6542
 9222TIP3    H249158   5.581   3.625  16.563  0.6893  3.2600 -1.1380
 9223TIP3   OH249159   0.695   4.148  16.978 -0.1272 -0.1335  0.1144
 9223TIP3    H149160   0.748   4.072  16.955 -0.2256 -0.3632  0.6292
 9223TIP3    H249161   0.674   4.136  17.071 -1.8551 -0.5285 -0.2779
 9224TIP3   OH249162   5.777   2.723  15.819  0.0844 -0.3778  0.7902
 9224TIP3    H149163   5.719   2.757  15.751  1.1286  0.8917  0.5064
 9224TIP3    H249164   5.861   2.709  15.775  0.4496 -0.6669  1.5579
 9225TIP3   OH249165   4.141   1.293  16.876 -0.3593  0.4272  0.0621
 9225TIP3    H149166   4.116   1.201  16.885  0.7098  0.1826  0.7129
 9225TIP3    H249167   4.232   1.296  16.906 -0.4536  1.7414  0.2684
 9226TIP3   OH249168   6.784   1.623   5.769  0.5073  0.2717 -0.1856
 9226TIP3    H149169   6.834   1.645   5.848  0.9537 -1.4079  0.0404
 9226TIP3    H249170   6.693   1.642   5.791  0.8212  1.5354  0.0808
 9227TIP3   OH249171   1.983   0.584  16.978 -0.5035 -0.4615  0.3435
 9227TIP3    H149172   1.890   0.576  16.956 -0.1732 -0.3075 -1.2278
 9227TIP3    H249173   1.989   0.556  17.069 -2.0287 -0.8571  0.3432
 9228TIP3   OH249174   4.879   1.726  14.385  0.6683 -0.0760  0.0438
 9228TIP3    H149175   4.861   1.685  14.301  0.5029  0.4510 -0.1809
 9228TIP3    H249176   4.961   1.774  14.372 -0.7951  2.3963 -0.7053
 9229TIP3   OH249177   5.022   5.318   6.421  0.2707 -0.1197 -0.2347
 9229TIP3    H149178   5.008   5.413   6.422  1.0556  0.1557  3.8209
 9229TIP3    H249179   5.109   5.307   6.383 -0.3271  0.5818 -1.9269
 9230TIP3   OH249180   1.875   4.610  13.524  0.0263  0.4243  0.6185
 9230TIP3    H149181   1.967   4.587  13.538  0.5124 -0.1551 -2.6794
 9230TIP3    H249182   1.827   4.533  13.555  0.8576 -0.3217  0.1143
 9231TIP3   OH249183   1.298   4.455  16.366  0.3221  0.8651  0.4536
 9231TIP3    H149184   1.263   4.528  16.316 -1.4604 -0.3151 -0.1190
 9231TIP3    H249185   1.362   4.494  16.425  1.0744  2.5648 -1.3928
 9232TIP3   OH249186   4.558   6.129   1.514  0.4610  0.5656 -0.1996
 9232TIP3    H149187   4.613   6.189   1.565  0.0263  0.6539  0.1755
 9232TIP3    H249188   4.617   6.059   1.487  0.8256  0.8195 -0.0667
 9233TIP3   OH249189   3.851   6.249   1.027  0.1764 -0.1559  0.0837
 9233TIP3    H149190   3.795   6.246   1.105 -0.1059  1.7497  0.0105
 9233TIP3    H249191   3.934   6.286   1.059  1.2257 -2.3309  0.0605
 9234TIP3   OH249192   2.884   5.458  14.217  0.2076  0.0046 -0.1563
 9234TIP3    H149193   2.916   5.399  14.149  1.4171 -0.5249  0.8428
 9234TIP3    H249194   2.803   5.418  14.248  0.0470 -0.1461 -0.7690
 9235TIP3   OH249195   3.573   3.366   1.161 -0.0636  0.0686 -0.7376
 9235TIP3    H149196   3.651   3.407   1.123  0.7407 -1.5094 -0.8628
 9235TIP3    H249197   3.580   3.273   1.136 -1.6789 -0.2173 -0.2460
 9236TIP3   OH249198   2.383   6.171   1.250  0.3197 -0.0348  0.4931
 9236TIP3    H149199   2.432   6.143   1.172  1.2220 -1.1025  1.3931
 9236TIP3    H249200   2.349   6.089   1.287  0.7183  0.3373  1.7310
 9237TIP3   OH249201   5.272   0.959  16.789 -0.5810 -0.1696  0.1797
 9237TIP3    H149202   5.222   0.907  16.726  1.7031 -0.5921 -1.4211
 9237TIP3    H249203   5.289   0.898  16.861  0.4340 -1.1290 -0.8093
 9238TIP3   OH249204   3.195   5.212  12.239  0.0765  0.4343 -0.5907
 9238TIP3    H149205   3.202   5.308  12.233 -1.2799  0.5637 -0.3489
 9238TIP3    H249206   3.285   5.182  12.229  0.6334  1.7762 -0.0108
 9239TIP3   OH249207   1.953   1.255  17.180 -0.4415 -0.0905 -0.0098
 9239TIP3    H149208   1.866   1.224  17.205 -0.1560 -1.5259 -0.7197
 9239TIP3    H249209   2.012   1.187  17.211  0.3345  0.3195 -0.5573
 9240TIP3   OH249210   0.740   1.096   4.525  0.1221 -0.5514  0.2963
 9240TIP3    H149211   0.814   1.148   4.495  0.7832 -1.9509 -0.6072
 9240TIP3    H249212   0.766   1.066   4.613  0.4733 -0.7344  0.1318
 9241TIP3   OH249213   4.087   1.239   5.893  0.0023 -0.0428 -0.1668
 9241TIP3    H149214   4.172   1.283   5.902 -1.3869  2.5407  1.5440
 9241TIP3    H249215   4.084   1.210   5.802  2.2687  0.7511 -0.5587
 9242TIP3   OH249216   3.001   4.247   1.293 -0.3250  0.1288 -0.3503
 9242TIP3    H149217   3.093   4.240   1.317 -0.5933  0.1186  0.7618
 9242TIP3    H249218   3.000   4.250   1.198  0.7457 -0.9010 -0.4059
 9243TIP3   OH249219   1.785   1.223  16.702  0.3933  0.6544 -0.2521
 9243TIP3    H149220   1.758   1.304  16.747  1.4120  0.4608  0.7435
 9243TIP3    H249221   1.769   1.154  16.766 -0.3282  0.0660 -1.0444
 9244TIP3   OH249222   0.601   5.276   4.608 -0.2897  0.1790  0.3276
 9244TIP3    H149223   0.673   5.304   4.552  1.6908 -0.4748  2.3572
 9244TIP3    H249224   0.582   5.352   4.663 -1.0126  0.2813 -0.0592
 9245TIP3   OH249225   3.727   2.320  11.736 -0.3413  0.3478 -0.2160
 9245TIP3    H149226   3.710   2.317  11.830  0.3175 -1.6114 -0.1129
 9245TIP3    H249227   3.684   2.242  11.701  1.0679 -0.0202 -1.2285
 9246TIP3   OH249228   6.572   5.875  16.153 -0.0318 -0.1161 -0.3808
 9246TIP3    H149229   6.617   5.867  16.068  1.0857 -2.2611  0.3239
 9246TIP3    H249230   6.479   5.873  16.131  0.2338 -1.3426 -1.5454
 9247TIP3   OH249231   4.847   5.155   3.755  0.3750 -0.3241 -0.6328
 9247TIP3    H149232   4.913   5.163   3.823  1.1253  1.0636 -1.4885
 9247TIP3    H249233   4.886   5.096   3.690 -0.7771 -2.5464  0.5764
 9248TIP3   OH249234   4.077   3.817  13.963 -0.0494  0.4474 -0.3318
 9248TIP3    H149235   3.997   3.866  13.985 -1.3522 -2.0935  0.9990
 9248TIP3    H249236   4.049   3.752  13.898  0.7820 -0.8482  0.5576
 9249TIP3   OH249237   6.606   2.177   6.090  0.2470  0.0824  0.1995
 9249TIP3    H149238   6.596   2.086   6.116 -0.0417 -0.7244 -2.4081
 9249TIP3    H249239   6.698   2.185   6.066  0.0422  0.1607 -0.5786
 9250TIP3   OH249240   3.723   2.118  12.220  0.1422 -0.5235  0.2051
 9250TIP3    H149241   3.746   2.090  12.309 -3.4061 -1.6701  0.8907
 9250TIP3    H249242   3.718   2.037  12.170 -1.0628 -0.2261 -0.1843
 9251TIP3   OH249243   5.755   5.011  10.196  0.1326 -0.4263  0.1413
 9251TIP3    H149244   5.743   5.103  10.222  1.4463  0.2886 -1.5963
 9251TIP3    H249245   5.849   4.997  10.201 -0.1619 -2.2311  1.9383
 9252TIP3   OH249246   3.843   5.167  14.572 -0.0449 -0.5840  0.0346
 9252TIP3    H149247   3.825   5.194  14.661 -0.6503  0.9452 -0.5243
 9252TIP3    H249248   3.844   5.071  14.576  1.0594 -0.5406  1.8658
 9253TIP3   OH249249   3.579   6.587   5.817 -0.7518 -0.2857 -0.2147
 9253TIP3    H149250   3.581   6.683   5.820  0.2716 -0.3045 -0.0459
 9253TIP3    H249251   3.612   6.559   5.902  2.6625 -0.7603 -1.5742
 9254TIP3   OH249252   0.466   5.513  11.352 -0.1664 -0.0703 -0.0750
 9254TIP3    H149253   0.473   5.418  11.357  1.1879  0.0831  1.5500
 9254TIP3    H249254   0.556   5.544  11.343 -0.4646  1.1093  0.6839
 9255TIP3   OH249255   1.782   5.724   4.331  0.0740  0.3614  0.9479
 9255TIP3    H149256   1.737   5.642   4.310  2.8785 -0.5592 -2.5275
 9255TIP3    H249257   1.837   5.702   4.406 -2.5870  0.5725  3.0935
 9256TIP3   OH249258   4.525   0.391  11.522  0.2848  0.1111 -0.4961
 9256TIP3    H149259   4.545   0.441  11.601 -0.2591  0.5030 -0.5951
 9256TIP3    H249260   4.600   0.406  11.464  0.5947 -0.0199 -0.1269
 9257TIP3   OH249261   6.418   1.459  12.991 -0.5466 -0.0492 -0.0225
 9257TIP3    H149262   6.510   1.480  13.004 -0.8852  1.2167  0.3951
 9257TIP3    H249263   6.391   1.417  13.072 -1.0946  2.3609  1.1251
 9258TIP3   OH249264   1.967   4.881   5.058  0.1463 -0.7296 -0.1181
 9258TIP3    H149265   2.032   4.865   5.127  1.0171 -0.9840 -0.9864
 9258TIP3    H249266   2.007   4.948   5.002 -0.7720 -0.1522 -0.1144
 9259TIP3   OH249267   6.614   6.220  15.113  0.0624 -0.4573  0.2301
 9259TIP3    H149268   6.591   6.300  15.161 -1.5876  0.2291 -1.5591
 9259TIP3    H249269   6.664   6.251  15.038 -0.9547 -1.0090 -0.7089
 9260TIP3   OH249270   1.730   0.119   3.278  0.1638 -0.1078  0.4277
 9260TIP3    H149271   1.765   0.179   3.213 -0.2867 -0.3873 -0.0797
 9260TIP3    H249272   1.791   0.045   3.279  0.8925  0.4810  1.2794
 9261TIP3   OH249273   0.471   2.037   1.932  0.0758 -0.1715  0.5618
 9261TIP3    H149274   0.562   2.018   1.907 -0.2916 -2.7268  0.8693
 9261TIP3    H249275   0.445   2.109   1.876  2.4855  1.0628  0.9112
 9262TIP3   OH249276   0.102   1.434  12.487 -0.1815  0.2065 -0.2279
 9262TIP3    H149277   0.188   1.405  12.516  0.3356  0.5525 -1.3723
 9262TIP3    H249278   0.040   1.389  12.546  0.8030  0.8850  1.3957
 9263TIP3   OH249279   1.935   6.704  13.525 -0.0368 -0.0253  0.3625
 9263TIP3    H149280   1.860   6.689  13.583  0.5100  0.6831  1.2879
 9263TIP3    H249281   1.988   6.625  13.533 -1.0383 -0.8725 -0.9052
 9264TIP3   OH249282   5.045   6.248  13.443  0.5992 -0.2913 -0.5393
 9264TIP3    H149283   5.042   6.310  13.516  0.3683 -0.6501 -0.2390
 9264TIP3    H249284   5.033   6.302  13.365 -0.3747 -0.0335 -0.2296
 9265TIP3   OH249285   6.322   5.782   0.466  0.3637 -0.2925 -0.1248
 9265TIP3    H149286   6.269   5.761   0.389 -0.8027 -1.2839  0.9094
 9265TIP3    H249287   6.279   5.859   0.504  1.0846  0.3489 -0.5785
 9266TIP3   OH249288   1.058   1.942   6.870  0.0227  0.7414  0.3529
 9266TIP3    H149289   1.013   2.010   6.820 -1.9726 -1.4983 -1.0878
 9266TIP3    H249290   1.122   1.906   6.809  0.5469  0.8218  0.8535
 9267TIP3   OH249291   1.107   4.775   0.614  0.6283  0.8137  0.0600
 9267TIP3    H149292   1.022   4.820   0.613  0.4382  0.4727  0.2485
 9267TIP3    H249293   1.169   4.839   0.579  0.3741  1.2345  0.3604
 9268TIP3   OH249294   0.333   2.827  16.454 -0.1479 -0.0707  0.0351
 9268TIP3    H149295   0.359   2.818  16.362 -0.2039 -0.4733  0.0564
 9268TIP3    H249296   0.408   2.871  16.495 -0.5571  1.0781 -0.4108
 9269TIP3   OH249297   5.761   5.080   0.385  0.3956 -0.2888 -0.2584
 9269TIP3    H149298   5.807   5.128   0.454 -0.0349 -0.3218  0.0542
 9269TIP3    H249299   5.829   5.063   0.319  0.3165  1.7409 -0.9395
 9270TIP3   OH249300   6.600   6.148  13.534  0.3594  0.3274  0.5642
 9270TIP3    H149301   6.640   6.086  13.474  1.4283 -0.2183  1.7981
 9270TIP3    H249302   6.649   6.138  13.616 -0.8814  1.2156  1.4620
 9271TIP3   OH249303   3.290   2.057   3.799  0.1118 -0.1349 -0.1157
 9271TIP3    H149304   3.310   1.974   3.755  0.2449  1.7574 -4.1519
 9271TIP3    H249305   3.195   2.066   3.791 -0.2008 -0.7867  2.2817
 9272TIP3   OH249306   4.679   5.647   6.201  0.0567  0.0107  0.0290
 9272TIP3    H149307   4.766   5.686   6.203  0.4497 -0.7767  2.2629
 9272TIP3    H249308   4.619   5.721   6.197  0.8210  0.7484  1.3362
 9273TIP3   OH249309   2.532   1.057  16.681  0.2799  0.7068  0.1939
 9273TIP3    H149310   2.534   1.011  16.764  0.9697  0.6317  0.1411
 9273TIP3    H249311   2.508   0.991  16.617 -1.3270  0.9887  0.4606
 9274TIP3   OH249312   6.110   4.437  16.253 -0.0035  0.2187  0.3559
 9274TIP3    H149313   6.085   4.372  16.188 -0.4902  0.7883 -0.0396
 9274TIP3    H249314   6.029   4.482  16.276  0.1794  0.1010  1.2834
 9275TIP3   OH249315   0.238   5.425   1.443  0.5667  0.1552  0.7652
 9275TIP3    H149316   0.170   5.454   1.505  1.7401  1.7218  1.3928
 9275TIP3    H249317   0.313   5.405   1.498  0.7894 -1.1002  0.0326
 9276TIP3   OH249318   5.085   1.720  13.984 -0.0893 -0.1739  0.4681
 9276TIP3    H149319   5.127   1.785  14.040  0.8564  1.0272 -1.5593
 9276TIP3    H249320   5.002   1.761  13.958 -0.1432 -0.3834  0.3085
 9277TIP3   OH249321   6.514   0.353  12.172  0.2612 -0.4566 -0.7447
 9277TIP3    H149322   6.540   0.282  12.231 -0.1197 -0.1593 -0.2106
 9277TIP3    H249323   6.420   0.339  12.158  0.5224 -1.0695 -2.0381
 9278TIP3   OH249324   4.172   6.343   5.024  1.1294 -0.1823  0.0736
 9278TIP3    H149325   4.135   6.430   5.039 -0.5397 -0.4200 -2.1641
 9278TIP3    H249326   4.264   6.352   5.050  0.6241  1.7497  1.4499
 9279TIP3   OH249327   6.305   5.524  11.029 -0.4614  0.0986 -0.4527
 9279TIP3    H149328   6.215   5.494  11.022 -1.2791  2.5117 -1.0504
 9279TIP3    H249329   6.323   5.568  10.947  1.1120  0.1008 -0.1449
 9280TIP3   OH249330   6.396   1.448   4.963  0.2861  0.1374 -0.4462
 9280TIP3    H149331   6.310   1.410   4.945  0.9123 -2.6054  1.6651
 9280TIP3    H249332   6.393   1.475   5.054  2.3066 -2.2868  0.4488
 9281TIP3   OH249333   2.833   5.144  12.659 -0.2801  0.1995 -0.0046
 9281TIP3    H149334   2.889   5.155  12.582 -0.8645 -0.9329 -0.6183
 9281TIP3    H249335   2.767   5.213  12.651 -0.6686 -0.2539 -0.8324
 9282TIP3   OH249336   3.320   4.194  15.825 -0.4868  0.4245  0.4234
 9282TIP3    H149337   3.371   4.255  15.879 -0.6332  0.7510  0.1950
 9282TIP3    H249338   3.375   4.116  15.818  0.2248  0.9748 -0.2773
 9283TIP3   OH249339   1.221   2.804   0.236  0.0346  0.3330 -0.1898
 9283TIP3    H149340   1.241   2.772   0.324  1.2644  3.0316  0.6247
 9283TIP3    H249341   1.305   2.803   0.191 -0.3671  0.1207 -0.9493
 9284TIP3   OH249342   1.148   2.240   6.059 -0.2084  0.2724  0.1499
 9284TIP3    H149343   1.189   2.323   6.083 -0.2676  0.9015 -1.7477
 9284TIP3    H249344   1.071   2.235   6.116 -0.6331  1.9166 -0.2114
 9285TIP3   OH249345   2.247   2.832   0.262  0.6165 -0.6124 -0.6103
 9285TIP3    H149346   2.323   2.881   0.229  0.1854  1.6448  1.4345
 9285TIP3    H249347   2.173   2.890   0.247 -0.0180 -0.8287  1.4336
 9286TIP3   OH249348   1.929   0.897  13.624  0.0058  0.3223 -0.0027
 9286TIP3    H149349   1.846   0.883  13.580 -0.5650 -0.0818  1.1669
 9286TIP3    H249350   1.985   0.825  13.593 -0.2629  0.2560 -0.3359
 9287TIP3   OH249351   1.178   4.404  14.464  0.7930  0.7404  0.3426
 9287TIP3    H149352   1.106   4.340  14.462  2.0188 -0.6831 -0.5190
 9287TIP3    H249353   1.171   4.450  14.381  1.7214 -0.4186 -0.4036
 9288TIP3   OH249354   3.078   4.143   2.071 -0.0214  0.2980 -0.0001
 9288TIP3    H149355   3.072   4.238   2.058  1.8654  0.4094 -0.3578
 9288TIP3    H249356   2.989   4.111   2.056 -0.3829  1.8329 -1.3947
 9289TIP3   OH249357   2.948   2.296   2.328 -0.3662 -0.1956  0.5359
 9289TIP3    H149358   2.930   2.374   2.382  1.3639  0.7264 -0.1327
 9289TIP3    H249359   3.033   2.265   2.359  1.1709  0.9353 -2.2102
 9290TIP3   OH249360   2.288   3.754  13.221  0.6132  0.1921 -0.2384
 9290TIP3    H149361   2.286   3.685  13.287 -0.0484 -0.6423 -1.0942
 9290TIP3    H249362   2.197   3.765  13.194  0.9345  0.0206 -1.4854
 9291TIP3   OH249363   6.566   2.773   0.720  0.6062 -0.1955  0.4953
 9291TIP3    H149364   6.532   2.698   0.673  1.1477  0.5421 -1.1339
 9291TIP3    H249365   6.637   2.737   0.775 -0.1784 -1.0908  0.9439
 9292TIP3   OH249366   3.357   1.266  11.391  0.1961  0.2156  0.0392
 9292TIP3    H149367   3.267   1.266  11.427 -0.1956  0.2449 -0.9232
 9292TIP3    H249368   3.346   1.243  11.299  1.2320 -0.2131  0.0161
 9293TIP3   OH249369   1.720   4.489  16.500 -0.3200  0.0251  0.0850
 9293TIP3    H149370   1.775   4.560  16.467 -0.6110  0.4966  0.5928
 9293TIP3    H249371   1.727   4.420  16.434 -0.3767  0.6946 -0.6295
 9294TIP3   OH249372   3.350   2.413   6.389  0.1991 -0.0041 -0.4918
 9294TIP3    H149373   3.335   2.401   6.483 -1.4139  1.5288 -0.5049
 9294TIP3    H249374   3.407   2.490   6.385 -1.1428  1.0175 -0.7718
 9295TIP3   OH249375   0.983   3.350  16.620 -0.0671 -0.2548 -0.3150
 9295TIP3    H149376   0.925   3.343  16.695  2.7792 -3.0309  1.9149
 9295TIP3    H249377   1.021   3.438  16.626 -0.9435  0.0748  0.6347
 9296TIP3   OH249378   4.627   5.430   1.108 -0.4252  0.1562 -0.4963
 9296TIP3    H149379   4.555   5.476   1.064 -1.3239 -0.5912  0.1506
 9296TIP3    H249380   4.606   5.437   1.201 -0.4319 -1.3065 -0.3766
 9297TIP3   OH249381   1.167   3.004  14.489 -0.2506  0.0872  0.1892
 9297TIP3    H149382   1.192   3.096  14.494  0.1470  0.1018 -1.5410
 9297TIP3    H249383   1.241   2.961  14.445  0.2647 -1.3791  2.2884
 9298TIP3   OH249384   5.615   2.290  13.251  0.3520  0.0791  0.1206
 9298TIP3    H149385   5.579   2.374  13.223  1.0624  0.0749 -0.8702
 9298TIP3    H249386   5.541   2.245  13.293 -0.4219  0.6238 -0.6231
 9299TIP3   OH249387   0.501   2.555  15.847  0.9048 -0.2139  0.0863
 9299TIP3    H149388   0.436   2.493  15.881  0.9833 -0.9290 -1.0283
 9299TIP3    H249389   0.490   2.552  15.752  1.1047  1.2903 -0.0080
 9300TIP3   OH249390   3.439   0.443  15.606  0.4391 -0.3220  0.1612
 9300TIP3    H149391   3.461   0.351  15.623  0.4783 -0.2654  0.4136
 9300TIP3    H249392   3.461   0.456  15.513 -0.1805 -0.7499 -0.0564
 9301TIP3   OH249393   0.007   2.739  17.035 -0.5453 -0.0674 -0.2972
 9301TIP3    H149394   0.084   2.686  17.014 -0.8430 -0.8023  0.4416
 9301TIP3    H249395  -0.024   2.768  16.949 -0.1323 -0.7386 -0.6916
 9302TIP3   OH249396   5.263   0.601  12.653  0.7266  0.6027 -0.1516
 9302TIP3    H149397   5.302   0.662  12.591  1.3749  3.1284  2.5198
 9302TIP3    H249398   5.308   0.619  12.736 -0.8141 -1.8283  1.3600
 9303TIP3   OH249399   2.876   0.277   2.720 -0.1868 -0.0241  0.1474
 9303TIP3    H149400   2.952   0.297   2.775  0.2577  2.8760 -1.3500
 9303TIP3    H249401   2.912   0.263   2.632 -1.2465 -0.4134 -0.2483
 9304TIP3   OH249402   5.390   1.282   3.681  0.2153 -0.1166 -0.0197
 9304TIP3    H149403   5.344   1.201   3.704 -0.7907  1.0852  2.7259
 9304TIP3    H249404   5.480   1.256   3.665 -0.0922 -1.7930  0.8047
 9305TIP3   OH249405   2.089   2.111  13.074  0.0561 -0.8087 -0.6771
 9305TIP3    H149406   2.169   2.121  13.022 -0.1277 -0.2702 -0.8611
 9305TIP3    H249407   2.110   2.149  13.159 -0.2661  0.1014 -0.9956
 9306TIP3   OH249408   3.540   4.124   1.206 -0.1774  0.4016  0.3801
 9306TIP3    H149409   3.465   4.080   1.247 -0.3843 -1.2945 -1.6461
 9306TIP3    H249410   3.606   4.055   1.195  1.3403  1.6560  1.2323
 9307TIP3   OH249411   5.042   0.440   4.448 -0.2486  0.0805  0.3132
 9307TIP3    H149412   5.080   0.526   4.464  0.1849 -0.4335  2.3516
 9307TIP3    H249413   5.037   0.399   4.534 -0.8413 -1.7842 -0.5384
 9308TIP3   OH249414   0.784   1.670  16.061  0.6236  0.3979 -0.2158
 9308TIP3    H149415   0.826   1.723  15.994  4.9834 -3.3672 -1.0118
 9308TIP3    H249416   0.809   1.711  16.144  1.1057  1.3577 -0.8257
 9309TIP3   OH249417   3.193   5.642  10.931 -0.0102  0.6411 -1.2354
 9309TIP3    H149418   3.282   5.625  10.898  1.5934  1.7827  2.0097
 9309TIP3    H249419   3.157   5.556  10.949  0.7433  0.1691 -1.8903
 9310TIP3   OH249420   3.918   1.423  16.509 -0.0628 -0.8379 -0.1027
 9310TIP3    H149421   3.961   1.342  16.537  2.0126  0.1363 -0.3262
 9310TIP3    H249422   3.938   1.486  16.578 -2.5120 -0.7064  0.5852
 9311TIP3   OH249423   2.250   5.609  13.154 -0.6416 -0.2229 -0.1646
 9311TIP3    H149424   2.298   5.531  13.182 -0.7203 -0.2553 -0.1206
 9311TIP3    H249425   2.315   5.662  13.108  0.0021  0.7457  1.7642
 9312TIP3   OH249426   1.409   4.038   2.687 -0.1089  0.1003  0.1554
 9312TIP3    H149427   1.396   4.127   2.720  0.6694 -0.0607  0.9275
 9312TIP3    H249428   1.336   3.988   2.723  0.6026 -0.0215  1.4810
 9313TIP3   OH249429   0.641   6.555   3.973  0.0701 -0.3547  0.1592
 9313TIP3    H149430   0.636   6.608   3.893  0.6311  1.0492  1.0215
 9313TIP3    H249431   0.569   6.492   3.964 -0.2217  0.1387 -1.1983
 9314TIP3   OH249432   2.813   2.603   1.212  0.5879 -0.2101  0.6191
 9314TIP3    H149433   2.854   2.666   1.153  0.6183  0.7245  1.5995
 9314TIP3    H249434   2.885   2.552   1.247  0.5108 -1.2436 -0.6383
 9315TIP3   OH249435   2.008   5.280  12.934  0.3048  0.0026 -0.0042
 9315TIP3    H149436   1.960   5.229  12.999  0.1526  0.0905 -0.0468
 9315TIP3    H249437   2.049   5.215  12.876  1.4531 -0.1158  0.8933
 9316TIP3   OH249438   0.528   5.898  15.265  0.0521  0.1595 -0.2057
 9316TIP3    H149439   0.570   5.875  15.182  0.7452 -2.1406  0.6957
 9316TIP3    H249440   0.499   5.814  15.301 -0.2659  1.0969  1.8651
 9317TIP3   OH249441   3.623   2.546   5.620 -0.4977 -0.1344 -0.2506
 9317TIP3    H149442   3.628   2.535   5.715  1.3934 -2.2182 -0.5093
 9317TIP3    H249443   3.710   2.578   5.595 -0.5113 -0.9707 -1.4099
 9318TIP3   OH249444   3.066   3.502  13.523  0.4313  0.2993  0.0165
 9318TIP3    H149445   3.021   3.470  13.601 -0.6187  1.1559 -0.2210
 9318TIP3    H249446   3.060   3.429  13.460  0.7983 -0.1828  0.5324
 9319TIP3   OH249447   5.584   2.531  16.733  0.0081  0.4333  0.6222
 9319TIP3    H149448   5.500   2.487  16.747 -0.3498  0.6035 -0.8175
 9319TIP3    H249449   5.596   2.587  16.810 -1.3366  0.6075  0.7192
 9320TIP3   OH249450   4.484   3.396   1.216 -0.5202  0.5967 -0.4455
 9320TIP3    H149451   4.533   3.380   1.135 -2.8879  1.3592 -2.1715
 9320TIP3    H249452   4.393   3.377   1.191 -1.2655  0.3208  2.2391
 9321TIP3   OH249453   5.992   0.100  11.117  0.1421  0.2234 -0.3199
 9321TIP3    H149454   5.980   0.010  11.148 -1.7499  0.1377 -1.2039
 9321TIP3    H249455   6.064   0.093  11.053 -0.9062 -0.9600 -1.4363
 9322TIP3   OH249456   5.019   5.911   2.764  0.3962  0.5241  0.3571
 9322TIP3    H149457   4.966   5.851   2.816  1.1855  1.4192  2.2706
 9322TIP3    H249458   5.064   5.855   2.701  1.7343 -1.0511  2.5862
 9323TIP3   OH249459   6.553   2.140  13.605  0.2174 -0.3056 -0.4643
 9323TIP3    H149460   6.462   2.109  13.600  0.2546 -0.2380 -2.3620
 9323TIP3    H249461   6.599   2.090  13.537  1.5349 -0.1032  0.2509
 9324TIP3   OH249462   3.051   5.676  14.140  0.4297 -0.2646  0.0570
 9324TIP3    H149463   3.014   5.606  14.194 -0.7430  0.0332 -0.3412
 9324TIP3    H249464   3.028   5.652  14.050  0.1407  0.5468 -0.0934
 9325TIP3   OH249465   4.873   3.962  10.702  0.4459  0.3902 -0.2978
 9325TIP3    H149466   4.862   3.907  10.624  0.2435 -1.3273  0.8947
 9325TIP3    H249467   4.870   3.901  10.775  1.2468  1.8904  1.0450
 9326TIP3   OH249468   0.674   5.441  16.844 -0.3103  0.2558 -0.4292
 9326TIP3    H149469   0.592   5.413  16.802  0.4299 -1.0841 -1.0556
 9326TIP3    H249470   0.659   5.425  16.937 -1.1756  1.1532 -0.3970
 9327TIP3   OH249471   0.785   5.007   6.235 -0.0534  0.4524  0.1232
 9327TIP3    H149472   0.691   4.986   6.240 -0.1491  0.3902 -1.4196
 9327TIP3    H249473   0.822   4.967   6.313 -1.1389 -0.5409  0.1626
 9328TIP3   OH249474   1.190   2.867   6.486 -0.5750 -0.1403 -0.5386
 9328TIP3    H149475   1.229   2.785   6.517 -0.4129  0.2590  0.3295
 9328TIP3    H249476   1.103   2.841   6.455 -0.4919 -0.6599 -0.3487
 9329TIP3   OH249477   2.688   5.864  11.098  0.4913  0.3604  0.0539
 9329TIP3    H149478   2.603   5.908  11.102  0.4062  0.1276  1.2158
 9329TIP3    H249479   2.751   5.930  11.127  0.7722  0.6477 -1.1619
 9330TIP3   OH249480   6.539   3.741  13.547  0.6796  0.2310  0.0302
 9330TIP3    H149481   6.521   3.648  13.549  1.0913  0.1416 -0.2341
 9330TIP3    H249482   6.455   3.783  13.563  1.0412 -0.1924  3.8131
 9331TIP3   OH249483   1.661   1.305  12.439  0.1005 -0.0767 -0.6060
 9331TIP3    H149484   1.579   1.343  12.468  1.2437  2.0256  0.1068
 9331TIP3    H249485   1.708   1.285  12.520  0.6669 -0.3544 -0.9977
 9332TIP3   OH249486   4.977   1.413   2.795 -0.1847 -0.4288  0.0988
 9332TIP3    H149487   5.070   1.398   2.810  0.6570  1.6814 -2.4165
 9332TIP3    H249488   4.961   1.384   2.706 -1.8391 -0.2782  0.3021
 9333TIP3   OH249489   0.246   2.988  12.015 -0.1728  0.0543 -0.1944
 9333TIP3    H149490   0.255   2.962  12.106  0.1639 -1.1590 -0.5571
 9333TIP3    H249491   0.226   2.907  11.968 -2.3661  0.9706 -0.9440
 9334TIP3   OH249492   0.921   2.900  14.169 -0.1435  0.1855 -0.2426
 9334TIP3    H149493   0.966   2.984  14.164 -1.1366  0.7457 -0.0722
 9334TIP3    H249494   0.961   2.847  14.100  1.3390  0.3660  0.4337
 9335TIP3   OH249495   0.748   4.442  12.643 -0.1703 -0.3735 -0.0998
 9335TIP3    H149496   0.750   4.502  12.717 -1.9292  1.3331 -1.3249
 9335TIP3    H249497   0.829   4.461  12.595  0.6094 -0.9613  0.9603
 9336TIP3   OH249498   5.743   2.736   0.422 -0.5039 -0.0459  0.4998
 9336TIP3    H149499   5.826   2.715   0.379  0.5762 -0.3573  2.6135
 9336TIP3    H249500   5.757   2.821   0.462 -1.5549  0.3260  0.1195
 9337TIP3   OH249501   0.211   6.119  16.416  0.5933 -0.2897 -0.0963
 9337TIP3    H149502   0.125   6.140  16.378  0.5139  0.8768  0.6709
 9337TIP3    H249503   0.268   6.191  16.387  0.6560  0.3542  1.5212
 9338TIP3   OH249504   3.778   4.799  14.085 -0.4683  0.2480 -0.1445
 9338TIP3    H149505   3.765   4.820  14.177  1.6533  0.3414  0.1903
 9338TIP3    H249506   3.804   4.707  14.085 -2.6577 -0.4550 -0.9243
 9339TIP3   OH249507   5.355   3.669  13.038  0.1840  0.0018 -0.3463
 9339TIP3    H149508   5.377   3.733  13.106  1.5147 -0.5473 -0.2355
 9339TIP3    H249509   5.413   3.691  12.965 -0.7344  0.1357 -1.0608
 9340TIP3   OH249510   5.456   3.568  17.056  0.1399  0.2054 -0.0731
 9340TIP3    H149511   5.481   3.612  17.136  0.5854 -1.2709  0.6455
 9340TIP3    H249512   5.405   3.492  17.085  0.1662 -0.2655 -1.1840
 9341TIP3   OH249513   1.729   3.193   2.033 -0.9203  0.0978  0.1447
 9341TIP3    H149514   1.809   3.242   2.015  0.3138 -1.2301  1.7028
 9341TIP3    H249515   1.728   3.124   1.966 -1.3462  0.7436 -0.5257
 9342TIP3   OH249516   3.466   6.717  13.110  0.4717 -0.4664  0.0330
 9342TIP3    H149517   3.518   6.686  13.184  2.5556 -1.9023 -1.8963
 9342TIP3    H249518   3.523   6.706  13.034 -1.3126  1.5517 -1.7502
 9343TIP3   OH249519   6.295   2.251   0.960 -0.0696  0.3599  0.5618
 9343TIP3    H149520   6.294   2.191   1.034 -1.5248 -0.0066  0.2815
 9343TIP3    H249521   6.248   2.328   0.992 -0.8527  0.1329 -0.0194
 9344TIP3   OH249522   1.213   3.513   2.328 -0.4636  0.3912 -0.0019
 9344TIP3    H149523   1.229   3.578   2.396  0.0538 -0.2214  0.4720
 9344TIP3    H249524   1.196   3.565   2.249  1.8137  1.1351 -0.0859
 9345TIP3   OH249525   6.391   3.196  15.167 -0.1146  0.2649 -0.3965
 9345TIP3    H149526   6.428   3.179  15.254  1.5594  0.3836 -1.0463
 9345TIP3    H249527   6.420   3.285  15.146 -0.1646  0.0893 -1.2389
 9346TIP3   OH249528   2.924   4.111  15.958  0.5662 -0.4026 -0.3167
 9346TIP3    H149529   3.018   4.101  15.969  0.4815 -1.1019 -0.1856
 9346TIP3    H249530   2.885   4.053  16.024  0.0428  0.2729 -0.0268
 9347TIP3   OH249531   1.333   1.798   0.450  0.1849 -0.0824  0.2128
 9347TIP3    H149532   1.426   1.802   0.472  0.1995  1.7356 -0.0372
 9347TIP3    H249533   1.297   1.880   0.483 -1.2553 -0.5618 -0.0978
 9348TIP3   OH249534   3.446   6.396   3.351  0.3537  0.1962  0.0374
 9348TIP3    H149535   3.506   6.322   3.340 -0.7078 -0.6688 -0.1767
 9348TIP3    H249536   3.359   6.357   3.343 -0.2292  1.5414 -0.4233
 9349TIP3   OH249537   5.016   4.499  15.759 -0.1471  0.2918  0.5013
 9349TIP3    H149538   4.923   4.479  15.774 -0.0141 -2.4650 -1.6111
 9349TIP3    H249539   5.026   4.497  15.664  1.5650  3.6211  0.4622
 9350TIP3   OH249540   4.244   5.731  15.767 -0.1214 -0.1987 -0.2505
 9350TIP3    H149541   4.295   5.808  15.741  0.9912 -0.8381 -0.0359
 9350TIP3    H249542   4.282   5.705  15.851  0.1572 -1.5367 -0.7736
 9351TIP3   OH249543   4.287   3.241  14.354  0.0471  0.5200  1.0545
 9351TIP3    H149544   4.333   3.255  14.271 -1.2569 -0.6996  0.0967
 9351TIP3    H249545   4.349   3.273  14.421  1.7436  0.1278 -0.2611
 9352TIP3   OH249546   6.257   5.922  11.839 -0.6174  0.2126 -0.0321
 9352TIP3    H149547   6.268   5.827  11.831 -0.8509  0.0712  1.0875
 9352TIP3    H249548   6.343   5.958  11.817 -0.6147 -0.2284 -0.7731
 9353TIP3   OH249549   4.339   3.667   2.025 -0.0680 -0.1284 -0.7741
 9353TIP3    H149550   4.413   3.613   1.995 -1.1231 -1.4448 -1.1246
 9353TIP3    H249551   4.361   3.756   1.997  1.7858 -0.3308 -0.0781
 9354TIP3   OH249552   4.112   3.036  16.080 -0.1044  0.3483  0.0002
 9354TIP3    H149553   4.205   3.047  16.058 -0.0751  2.2170  0.8603
 9354TIP3    H249554   4.067   3.037  15.996  0.6647 -1.1728 -0.4740
 9355TIP3   OH249555   1.856   5.205   2.555  0.0338 -0.0187 -0.1598
 9355TIP3    H149556   1.769   5.237   2.582 -0.1007 -0.5588  0.0533
 9355TIP3    H249557   1.916   5.244   2.619 -0.0075  0.5936 -0.4779
 9356TIP3   OH249558   5.519   5.183  15.095 -0.0703 -0.0670  0.0306
 9356TIP3    H149559   5.433   5.144  15.111  0.7108 -1.4012  1.2016
 9356TIP3    H249560   5.535   5.238  15.171 -0.1433  0.7147 -0.5004
 9357TIP3   OH249561   4.788   0.874   4.896 -0.0365  0.3065  0.0654
 9357TIP3    H149562   4.706   0.907   4.933  0.2468 -0.6575  1.6490
 9357TIP3    H249563   4.793   0.783   4.926  1.0321 -0.0371 -1.0349
 9358TIP3   OH249564   0.643   2.827   4.631  0.3861  0.2275 -0.0670
 9358TIP3    H149565   0.579   2.866   4.691 -1.9570 -1.7235 -1.1199
 9358TIP3    H249566   0.643   2.885   4.555  0.7440  0.8509  0.4025
 9359TIP3   OH249567   1.148   5.291  11.922 -0.5013 -0.0938 -0.7542
 9359TIP3    H149568   1.098   5.330  11.850 -2.3440  0.1783  0.6007
 9359TIP3    H249569   1.081   5.257  11.981  0.9950 -2.2807 -0.2074
 9360TIP3   OH249570   5.196   5.662   0.837  0.0506 -0.4605 -0.1159
 9360TIP3    H149571   5.276   5.622   0.803  0.1543  1.2827 -2.1488
 9360TIP3    H249572   5.222   5.751   0.860 -1.1229 -0.1203 -0.0363
 9361TIP3   OH249573   0.071   4.907  14.013 -0.7651  0.2311 -0.7248
 9361TIP3    H149574   0.136   4.848  14.051 -0.8385 -0.8308 -2.1528
 9361TIP3    H249575  -0.011   4.884  14.058 -0.6483 -0.2607 -0.7540
 9362TIP3   OH249576   1.027   1.036  13.923 -0.1407  0.8174  0.5027
 9362TIP3    H149577   0.978   1.059  13.844 -0.0391 -0.8461 -0.0814
 9362TIP3    H249578   0.972   1.067  13.995 -2.0284 -0.8708 -0.1307
 9363TIP3   OH249579   6.638   0.205  14.877  0.1144  0.2642 -0.4930
 9363TIP3    H149580   6.697   0.130  14.889 -0.2616  0.0094 -0.2334
 9363TIP3    H249581   6.602   0.222  14.963 -0.6636  0.0281 -0.7685
 9364TIP3   OH249582   0.839   1.933   3.993  0.4746  0.3273  0.0093
 9364TIP3    H149583   0.755   1.899   3.961  0.3993  0.6749 -0.1583
 9364TIP3    H249584   0.834   1.922   4.088 -0.2608  1.4726  0.1138
 9365TIP3   OH249585   0.318   2.034  12.517  0.1253  0.3364  0.5864
 9365TIP3    H149586   0.242   2.081  12.549 -0.5557  0.5453 -1.2094
 9365TIP3    H249587   0.350   2.087  12.444  0.6617 -0.8519 -0.0715
 9366TIP3   OH249588   0.323   1.035  11.423  0.0479  0.3518  0.6982
 9366TIP3    H149589   0.351   0.948  11.393 -1.0667 -0.4829  1.9691
 9366TIP3    H249590   0.260   1.063  11.357  1.4760  0.8945 -0.5135
 9367TIP3   OH249591   1.160   5.641  16.005  0.0985 -0.7641 -0.4770
 9367TIP3    H149592   1.131   5.557  15.969 -0.6053 -1.5092  1.6335
 9367TIP3    H249593   1.155   5.702  15.932 -2.2910 -1.9012 -1.3753
 9368TIP3   OH249594   1.136   4.056   0.620  0.1186  0.4224 -0.3707
 9368TIP3    H149595   1.061   4.066   0.560  0.3320  2.2691 -0.3875
 9368TIP3    H249596   1.099   4.011   0.696 -1.2258  1.9592 -0.0553
 9369TIP3   OH249597   1.814   1.829  13.841 -0.1940  0.3321  0.0457
 9369TIP3    H149598   1.787   1.785  13.922 -0.6877  1.0745  0.2917
 9369TIP3    H249599   1.892   1.879  13.865  0.0788 -0.0146 -0.1140
 9370TIP3   OH249600   3.188   5.674  16.803 -0.4639 -0.0309  0.1146
 9370TIP3    H149601   3.259   5.614  16.781 -1.2205 -0.6707 -0.6397
 9370TIP3    H249602   3.125   5.621  16.851 -0.3182  0.5943  1.0171
 9371TIP3   OH249603   1.662   3.793  12.187  0.1924 -0.2344 -0.6463
 9371TIP3    H149604   1.610   3.792  12.106 -1.5411 -2.6427  0.3841
 9371TIP3    H249605   1.719   3.716  12.180 -2.2181 -2.4493  1.6144
 9372TIP3   OH249606   5.275   4.021  14.198  0.3095  0.4372 -0.2647
 9372TIP3    H149607   5.234   4.046  14.116 -1.5657 -1.1501  0.1412
 9372TIP3    H249608   5.343   3.958  14.174 -1.5850 -1.6137 -0.5131
 9373TIP3   OH249609   5.199   2.584  11.706 -0.0929  0.5628  0.1917
 9373TIP3    H149610   5.169   2.671  11.729  0.0215  0.9477 -1.0297
 9373TIP3    H249611   5.174   2.573  11.614 -0.3017 -0.7772  0.3873
 9374TIP3   OH249612   4.461   5.670  14.379  0.2101 -0.0229  0.5044
 9374TIP3    H149613   4.396   5.621  14.429  0.6341 -1.9471 -0.7303
 9374TIP3    H249614   4.418   5.752  14.357 -2.7521 -2.0614 -2.1650
 9375TIP3   OH249615   5.536   4.844   3.223  0.2979 -0.1850  0.0087
 9375TIP3    H149616   5.628   4.844   3.250 -0.0754  0.5176  1.3450
 9375TIP3    H249617   5.507   4.754   3.236  0.9170 -0.5443 -0.9359
 9376TIP3   OH249618   0.764   2.419  11.579 -0.5621  0.1990  0.5568
 9376TIP3    H149619   0.768   2.369  11.660 -1.8146  0.6539  0.9328
 9376TIP3    H249620   0.680   2.465  11.584 -0.6658  0.2309 -1.0038
 9377TIP3   OH249621   5.931   6.087  15.573 -0.1770 -0.2884  0.4063
 9377TIP3    H149622   5.950   5.994  15.567  0.1866 -0.1539 -0.5927
 9377TIP3    H249623   5.877   6.095  15.652 -1.6901 -1.5756 -0.4313
 9378TIP3   OH249624   3.792   2.333   2.222 -0.3047  0.1430  0.2289
 9378TIP3    H149625   3.765   2.254   2.268  0.5159 -0.0042  0.4662
 9378TIP3    H249626   3.755   2.405   2.274 -2.3818 -0.0928 -0.8379
 9379TIP3   OH249627   4.279   2.983  12.493 -0.1807  0.1654 -0.2731
 9379TIP3    H149628   4.226   2.938  12.559  0.9550 -0.1789  0.4142
 9379TIP3    H249629   4.253   3.075  12.500 -0.9857 -0.0583 -0.2358
 9380TIP3   OH249630   4.365   4.173  14.091 -0.1518  0.1639  0.2053
 9380TIP3    H149631   4.391   4.087  14.060  0.2580  0.4218 -0.1769
 9380TIP3    H249632   4.380   4.231  14.016 -1.5950  0.3599  0.0406
 9381TIP3   OH249633   3.643   2.257  16.218  0.7001  0.6135  0.4328
 9381TIP3    H149634   3.622   2.348  16.197 -1.0890  0.3513  0.9632
 9381TIP3    H249635   3.729   2.261  16.261 -0.2107  2.2949  2.2307
 9382TIP3   OH249636   4.704   4.550  14.666  0.2038 -0.2193 -0.2430
 9382TIP3    H149637   4.796   4.531  14.647 -0.0859  0.9757 -3.2631
 9382TIP3    H249638   4.680   4.483  14.731  3.2249 -0.3780  0.8992
 9383TIP3   OH249639   1.646   5.431  14.977  0.5801  0.2913 -0.0434
 9383TIP3    H149640   1.644   5.477  15.061 -0.0685 -1.1699  0.7780
 9383TIP3    H249641   1.562   5.454  14.935  0.1263 -0.3458  0.4946
 9384TIP3   OH249642   4.279   5.178  12.164  0.3329 -0.2210 -0.1105
 9384TIP3    H149643   4.335   5.110  12.200  0.6384  0.7678  1.3586
 9384TIP3    H249644   4.190   5.150  12.187  0.5088  0.2784  1.2814
 9385TIP3   OH249645   1.692   3.213  14.647  0.1432 -0.5940 -0.6554
 9385TIP3    H149646   1.608   3.256  14.659 -0.5956 -2.5137  2.0088
 9385TIP3    H249647   1.677   3.151  14.575 -0.0916  0.4242 -1.5066
 9386TIP3   OH249648   4.087   1.355   2.040 -0.2903 -0.1495  0.1944
 9386TIP3    H149649   4.083   1.432   1.983  1.4057  1.0262  1.5684
 9386TIP3    H249650   4.147   1.295   1.995  0.1616  0.3083  0.1686
 9387TIP3   OH249651   5.636   2.467   0.382  0.4643  0.1104  0.8770
 9387TIP3    H149652   5.676   2.467   0.295  0.4906  1.5260  0.8603
 9387TIP3    H249653   5.583   2.547   0.384  0.0984 -0.1325  2.0081
 9388TIP3   OH249654   3.299   4.758   1.771  0.0299  0.1265 -0.9069
 9388TIP3    H149655   3.358   4.817   1.724  2.5062 -1.8575 -0.4903
 9388TIP3    H249656   3.310   4.674   1.727 -1.6342 -0.5866 -0.0369
 9389TIP3   OH249657   3.502   2.383   1.303  0.1103  0.4761 -0.4526
 9389TIP3    H149658   3.423   2.337   1.273 -0.6352  1.2198  0.3212
 9389TIP3    H249659   3.556   2.315   1.343 -1.1707  0.2909  1.0674
 9390TIP3   OH249660   1.963   4.780   4.533 -0.3189 -0.4312 -0.4164
 9390TIP3    H149661   1.940   4.808   4.444  0.2327  0.5543 -0.2603
 9390TIP3    H249662   1.975   4.861   4.581 -0.8194 -0.9576  0.6296
 9391TIP3   OH249663   0.916   5.546  15.670  0.0624 -0.7853  0.4791
 9391TIP3    H149664   0.952   5.562  15.583  0.8424  2.3607  1.2833
 9391TIP3    H249665   0.823   5.532  15.655  0.4791 -2.3847 -0.9992
 9392TIP3   OH249666   5.250   4.981   1.004 -0.4057  0.4096 -1.0696
 9392TIP3    H149667   5.237   4.902   1.057 -1.1876 -0.7287 -2.8365
 9392TIP3    H249668   5.345   4.993   1.002 -0.1041 -1.6769 -2.3110
 9393TIP3   OH249669   0.395   3.172  14.665 -0.7285  0.8862  0.0535
 9393TIP3    H149670   0.341   3.112  14.717  0.0821 -0.6447 -0.8294
 9393TIP3    H249671   0.346   3.183  14.583 -0.9667  1.6349  0.2773
 9394TIP3   OH249672   4.754   0.027  12.873 -0.1210 -0.1970  0.4824
 9394TIP3    H149673   4.760  -0.046  12.934  1.0881  1.2341  2.2158
 9394TIP3    H249674   4.701   0.092  12.919  0.6280  0.8412 -0.0732
 9395TIP3   OH249675   6.323   4.584  17.140 -0.2075 -0.0414  0.2310
 9395TIP3    H149676   6.234   4.576  17.108 -0.1970 -2.8797  0.6672
 9395TIP3    H249677   6.376   4.597  17.062 -0.9191  1.0604 -0.0848
 9396TIP3   OH249678   2.917   2.827   3.552 -0.4817  0.3089 -0.3728
 9396TIP3    H149679   2.833   2.789   3.577  0.3228 -1.4840 -0.2314
 9396TIP3    H249680   2.969   2.752   3.523  1.2940  1.2853  0.1654
 9397TIP3   OH249681   5.537   2.674  11.450  0.6432 -0.5359  0.4341
 9397TIP3    H149682   5.473   2.745  11.458  0.6657 -0.3667 -0.6146
 9397TIP3    H249683   5.547   2.663  11.355  0.9416 -1.6751  0.5935
 9398TIP3   OH249684   3.120   4.611   0.770 -0.2783  0.2159  0.2139
 9398TIP3    H149685   3.065   4.559   0.829 -0.1718 -0.3236 -0.1555
 9398TIP3    H249686   3.123   4.697   0.811 -1.4761  0.2891  0.1987
 9399TIP3   OH249687   2.874   0.889   5.111  0.0179  0.0321 -0.2887
 9399TIP3    H149688   2.855   0.981   5.132  1.6331 -0.0937  2.0061
 9399TIP3    H249689   2.966   0.888   5.087 -0.5568 -0.6821 -2.8476
 9400TIP3   OH249690   1.146   0.066  14.977 -0.2728  0.4092  0.3921
 9400TIP3    H149691   1.078  -0.001  14.971 -0.5416  0.7794 -2.4725
 9400TIP3    H249692   1.206   0.046  14.905  0.9853  1.8519  0.9764
 9401TIP3   OH249693   5.234   1.948  13.532  0.2919 -0.0141 -0.1134
 9401TIP3    H149694   5.185   1.877  13.575 -1.2111  0.0068 -1.6358
 9401TIP3    H249695   5.229   1.926  13.439  3.6549 -0.2248 -0.3672
 9402TIP3   OH249696   1.182   3.865  16.651 -0.0407  0.0252  0.0743
 9402TIP3    H149697   1.254   3.874  16.713 -0.6070  0.8922  0.6434
 9402TIP3    H249698   1.182   3.948  16.604  0.3004 -0.5790 -1.0145
 9403TIP3   OH249699   0.910   6.448  14.858 -0.1446  0.0162 -0.2559
 9403TIP3    H149700   0.840   6.418  14.800  0.1814 -0.1601 -0.5560
 9403TIP3    H249701   0.946   6.367  14.895 -0.2818  0.1218  0.1119
 9404TIP3   OH249702   3.705   0.655  13.000  0.6862 -0.6749 -0.6434
 9404TIP3    H149703   3.621   0.697  13.014  1.1369  0.0035  0.1057
 9404TIP3    H249704   3.745   0.703  12.927  0.0958 -1.5313 -1.5634
 9405TIP3   OH249705   4.305   1.917  14.901 -0.2477 -0.5677  0.1196
 9405TIP3    H149706   4.286   1.860  14.827  0.5889 -2.1060  1.0211
 9405TIP3    H249707   4.259   1.876  14.975  0.3277 -0.0560  0.7738
 9406TIP3   OH249708   6.161   1.419   2.563  0.2374 -0.1138  0.1325
 9406TIP3    H149709   6.208   1.499   2.539  0.1060  0.0671  0.4689
 9406TIP3    H249710   6.218   1.348   2.533  0.1218  0.1003 -0.6097
 9407TIP3   OH249711   2.238   1.148   2.339 -0.1118  0.1797 -0.2548
 9407TIP3    H149712   2.187   1.076   2.301  0.3490  0.8529 -2.2653
 9407TIP3    H249713   2.240   1.215   2.270  0.8838  1.4320  0.9407
 9408TIP3   OH249714   0.528   0.570  17.050 -0.4467  0.3966  0.1185
 9408TIP3    H149715   0.444   0.526  17.035 -0.3269  0.7057 -1.7288
 9408TIP3    H249716   0.579   0.551  16.971  0.7970  1.1437  0.7185
 9409TIP3   OH249717   4.527   1.927  12.131  0.0221  0.1417  0.4113
 9409TIP3    H149718   4.497   1.983  12.202 -0.1302 -0.5635  0.9169
 9409TIP3    H249719   4.453   1.924  12.070 -0.4552 -0.5179  1.0034
 9410TIP3   OH249720   5.528   6.636   3.821  0.2439  0.2321 -0.0700
 9410TIP3    H149721   5.523   6.710   3.761  0.6306  0.4768  0.1903
 9410TIP3    H249722   5.620   6.633   3.848  0.6373 -1.3908 -1.3927
 9411TIP3   OH249723   4.015   2.457  13.607 -0.1937 -1.2007 -0.3834
 9411TIP3    H149724   4.017   2.548  13.638  1.0910 -1.5458  0.6404
 9411TIP3    H249725   3.930   2.449  13.563 -0.1852  0.5884 -0.8276
 9412TIP3   OH249726   1.173   4.597  13.849 -0.1752 -0.0853  0.6309
 9412TIP3    H149727   1.085   4.559  13.854  0.1110 -0.9786 -0.6903
 9412TIP3    H249728   1.195   4.616  13.940 -1.4187 -0.5831  1.0675
 9413TIP3   OH249729   1.608   6.714  16.498  0.2956  0.0482  0.3776
 9413TIP3    H149730   1.568   6.793  16.463  0.5720  0.6845  1.4614
 9413TIP3    H249731   1.592   6.647  16.431  1.4946  1.3968 -1.3447
 9414TIP3   OH249732   2.677   1.395  13.218 -0.4437 -0.1711 -0.4172
 9414TIP3    H149733   2.614   1.364  13.283  0.9931 -0.4734  0.8707
 9414TIP3    H249734   2.749   1.332  13.223  0.2481  0.5110 -1.4432
 9415TIP3   OH249735   2.972   1.358   0.823  0.5260  0.3463  0.6378
 9415TIP3    H149736   2.913   1.357   0.898 -0.6501  0.8391 -0.2530
 9415TIP3    H249737   3.029   1.433   0.838 -0.2127  0.9104  0.6606
 9416TIP3   OH249738   1.441   3.525  16.179  0.1300  0.3382  0.3605
 9416TIP3    H149739   1.397   3.499  16.099  1.0409 -0.4741  0.1075
 9416TIP3    H249740   1.371   3.555  16.237 -0.4185  2.3705 -1.2478
 9417TIP3   OH249741   0.210   4.748   5.289 -0.2683 -0.1779 -0.1599
 9417TIP3    H149742   0.236   4.800   5.214 -0.5895  1.6500  0.9378
 9417TIP3    H249743   0.146   4.686   5.255  0.6149 -0.3190 -1.6298
 9418TIP3   OH249744   0.578   5.827   4.008 -0.0192 -0.2858 -0.0232
 9418TIP3    H149745   0.621   5.790   4.085 -0.6276 -0.5305  0.2114
 9418TIP3    H249746   0.582   5.758   3.942  0.5345 -0.0626 -0.2273
 9419TIP3   OH249747   0.993   2.820   4.450  0.1412 -0.0191  0.1186
 9419TIP3    H149748   0.958   2.848   4.365  1.0775 -2.8464 -1.3292
 9419TIP3    H249749   1.064   2.882   4.468 -1.4809  1.9803  0.0168
 9420TIP3   OH249750   5.052   1.912   2.541 -0.3258 -0.5791 -0.3397
 9420TIP3    H149751   5.069   1.991   2.594 -0.4961  0.6699 -2.0683
 9420TIP3    H249752   5.099   1.843   2.587 -0.6565  0.3935  1.5675
 9421TIP3   OH249753   5.331   6.124  16.739  0.1342  0.1672  0.7040
 9421TIP3    H149754   5.257   6.139  16.680 -0.0855  0.1343  0.9738
 9421TIP3    H249755   5.320   6.189  16.808  1.5460  1.6619 -0.3774
 9422TIP3   OH249756   2.479   6.249  16.901  0.0263 -0.3596  0.4389
 9422TIP3    H149757   2.423   6.314  16.944  0.0684  1.3683 -1.8618
 9422TIP3    H249758   2.524   6.205  16.972 -2.1086  0.1868  2.2423
 9423TIP3   OH249759   5.042   1.152  14.791 -0.3810 -0.2228 -0.2912
 9423TIP3    H149760   4.975   1.138  14.724 -0.0261 -0.1350 -0.6705
 9423TIP3    H249761   5.125   1.139  14.745 -0.1407 -2.2818  0.6073
 9424TIP3   OH249762   1.589   3.957  10.917  0.1401 -0.5411 -0.3876
 9424TIP3    H149763   1.540   4.029  10.957  0.1199 -1.1346  0.7274
 9424TIP3    H249764   1.524   3.887  10.907  0.7564 -1.4257  1.3428
 9425TIP3   OH249765   4.760   1.132  15.641 -0.5688 -0.4604  0.5764
 9425TIP3    H149766   4.854   1.128  15.658 -0.1511  0.7446 -1.2129
 9425TIP3    H249767   4.721   1.145  15.727  0.8764 -1.0217  1.3585
 9426TIP3   OH249768   1.721   0.701  12.628 -0.0112 -0.0278 -0.7131
 9426TIP3    H149769   1.653   0.669  12.687  1.2386  0.1240  0.8618
 9426TIP3    H249770   1.756   0.622  12.587  0.0702 -0.2657 -0.1894
 9427TIP3   OH249771   5.951   5.465   4.007 -0.0563 -0.2822  0.0558
 9427TIP3    H149772   6.047   5.455   4.009 -0.0518 -0.4343 -0.6799
 9427TIP3    H249773   5.923   5.410   3.934 -0.5425  1.0093 -0.7603
 9428TIP3   OH249774   5.524   0.516   4.548 -0.1259  0.2311  0.3425
 9428TIP3    H149775   5.458   0.494   4.482 -1.6902  0.4347  1.7574
 9428TIP3    H249776   5.586   0.443   4.546 -1.3741 -0.8593  0.1568
 9429TIP3   OH249777   2.013   3.551  16.242 -0.1278  0.1989 -0.7751
 9429TIP3    H149778   2.026   3.571  16.335 -0.1927 -1.2485 -0.4331
 9429TIP3    H249779   1.920   3.527  16.236  0.2031 -1.1187 -0.9180
 9430TIP3   OH249780   2.081   0.984  16.632 -0.5721  0.1887  0.8415
 9430TIP3    H149781   1.986   0.994  16.637 -0.7510 -0.8412 -0.2173
 9430TIP3    H249782   2.100   0.909  16.689 -0.7305 -1.2872 -0.9792
 9431TIP3   OH249783   2.850   5.109   4.096 -0.2542  0.3297  0.0305
 9431TIP3    H149784   2.883   5.047   4.032 -0.4238  0.9444 -0.6579
 9431TIP3    H249785   2.805   5.054   4.161  0.1778 -0.3151 -0.2066
 9432TIP3   OH249786   4.187   6.108  15.188 -0.6773  0.5543  0.6154
 9432TIP3    H149787   4.106   6.156  15.205 -0.3578  2.2005 -1.9399
 9432TIP3    H249788   4.236   6.164  15.127  0.2217 -2.5249 -1.7835
 9433TIP3   OH249789   2.689   5.784   1.222  0.5140  0.4006  0.3302
 9433TIP3    H149790   2.605   5.757   1.185  1.0046  0.0447 -0.5498
 9433TIP3    H249791   2.675   5.785   1.317  0.1818 -1.9795  0.3515
 9434TIP3   OH249792   3.969   4.220   5.576  0.3302  0.5997 -0.1219
 9434TIP3    H149793   3.954   4.297   5.630 -1.3451  0.2569 -0.0587
 9434TIP3    H249794   4.063   4.220   5.560  0.6200  1.6362  1.3924
 9435TIP3   OH249795   5.646   5.986   5.075  0.1950  0.7595  0.1756
 9435TIP3    H149796   5.674   6.046   5.006  2.6675  0.1913  0.6131
 9435TIP3    H249797   5.636   5.902   5.031 -1.7785  1.0880 -0.1271
 9436TIP3   OH249798   1.878   0.717   0.510  0.0956  0.0686  0.3174
 9436TIP3    H149799   1.859   0.803   0.547 -0.6805 -0.5588  1.4437
 9436TIP3    H249800   1.843   0.721   0.421  0.3380  0.9996  0.2502
 9437TIP3   OH249801   4.014   0.476  13.155 -0.6668 -0.1654 -0.4317
 9437TIP3    H149802   4.057   0.398  13.191  1.0560  0.9994  0.1619
 9437TIP3    H249803   4.032   0.471  13.061 -1.7378 -1.1503 -0.6086
 9438TIP3   OH249804   4.378   0.595  12.698 -0.2023 -0.1701 -0.4372
 9438TIP3    H149805   4.309   0.530  12.707  0.0391 -0.4210 -0.3882
 9438TIP3    H249806   4.443   0.553  12.642  0.8437 -0.6955  1.1235
 9439TIP3   OH249807   0.133   6.698  17.116  0.2078  0.7475 -0.6243
 9439TIP3    H149808   0.190   6.669  17.187  0.0794  0.7557 -0.5168
 9439TIP3    H249809   0.050   6.653  17.132  1.1351 -1.8946 -2.6382
 9440TIP3   OH249810   4.391   1.286  17.012 -0.1222 -0.2334  0.0748
 9440TIP3    H149811   4.466   1.254  16.962 -0.5762 -0.6114 -0.3656
 9440TIP3    H249812   4.421   1.370  17.047  1.4071 -1.5008  2.0061
 9441TIP3   OH249813   0.440   1.513  14.634  0.1940 -0.5480 -0.3505
 9441TIP3    H149814   0.380   1.578  14.597  0.0281 -1.9746 -2.8341
 9441TIP3    H249815   0.387   1.466  14.699  0.4575  1.9599  1.8471
 9442TIP3   OH249816   2.138   2.022   4.850 -0.0371 -0.0023 -0.0666
 9442TIP3    H149817   2.159   1.948   4.792  0.9021  0.7036 -0.6574
 9442TIP3    H249818   2.049   2.004   4.880  0.3029 -1.5621  0.0977
 9443TIP3   OH249819   6.200   2.378   5.856 -0.1296 -0.2438 -0.3200
 9443TIP3    H149820   6.139   2.363   5.928  0.0932 -0.1903 -0.1183
 9443TIP3    H249821   6.169   2.458   5.814  0.3942  0.3659  0.4145
 9444TIP3   OH249822   1.664   3.308  12.549  0.1715  0.0145 -0.0987
 9444TIP3    H149823   1.574   3.326  12.576 -0.0423 -0.3553 -0.5509
 9444TIP3    H249824   1.657   3.236  12.487  0.7841 -0.0333 -0.1242
 9445TIP3   OH249825   2.840   2.672  14.228 -0.4648 -0.0033  0.4287
 9445TIP3    H149826   2.924   2.651  14.187 -1.0752  2.9262 -2.7602
 9445TIP3    H249827   2.862   2.694  14.318  2.1427  0.3286 -0.2055
 9446TIP3   OH249828   4.602   1.509  12.986  0.1783 -0.3283  0.1538
 9446TIP3    H149829   4.563   1.456  12.916  0.1436  2.3465 -2.0338
 9446TIP3    H249830   4.673   1.455  13.020  1.1263 -1.2525 -2.9696
 9447TIP3   OH249831   3.373   2.495  14.180  0.7930  0.8114  0.2998
 9447TIP3    H149832   3.422   2.437  14.238  0.3906  1.5551  1.4249
 9447TIP3    H249833   3.433   2.567  14.161  0.8980  0.6079 -0.1756
 9448TIP3   OH249834   0.367   3.151   4.544  0.8444 -0.1583  0.2288
 9448TIP3    H149835   0.340   3.231   4.589  2.4902  0.3054  0.4949
 9448TIP3    H249836   0.429   3.182   4.477 -0.0201 -1.0352 -1.0126
 9449TIP3   OH249837   0.399   2.809   5.690  0.2218  0.2578 -0.3119
 9449TIP3    H149838   0.442   2.727   5.668 -0.5860 -0.4875  0.8010
 9449TIP3    H249839   0.307   2.786   5.704  0.3763  0.8855  2.3274
 9450TIP3   OH249840   3.005   0.674   5.767 -0.0170 -0.3238 -0.1276
 9450TIP3    H149841   3.014   0.584   5.799  0.6946  0.3493  1.7100
 9450TIP3    H249842   3.069   0.723   5.817 -1.6404  1.5406  0.2483
 9451TIP3   OH249843   1.128   1.300   2.301  0.6914  0.2480 -0.8249
 9451TIP3    H149844   1.169   1.358   2.365 -1.1533 -0.9915  1.6503
 9451TIP3    H249845   1.177   1.218   2.308 -1.4800 -0.9947  1.6101
 9452TIP3   OH249846   4.693   2.780   5.201 -0.4234  0.2423 -0.2809
 9452TIP3    H149847   4.723   2.840   5.270 -3.2296  1.5132 -0.0499
 9452TIP3    H249848   4.671   2.837   5.127  0.4544 -0.9103 -1.4644
 9453TIP3   OH249849   1.780   4.124  16.782 -0.2793  0.5172  0.9004
 9453TIP3    H149850   1.851   4.121  16.846  0.5409  0.5847  0.0287
 9453TIP3    H249851   1.728   4.046  16.800  1.1630 -0.6284  0.3212
 9454TIP3   OH249852   2.600   3.434   1.415 -0.1732 -0.4744 -0.5964
 9454TIP3    H149853   2.587   3.418   1.508 -3.4064 -2.9159 -1.2975
 9454TIP3    H249854   2.531   3.496   1.391  1.2055  0.8724 -1.2769
 9455TIP3   OH249855   1.302   2.588   3.102 -0.1443 -0.3717 -0.1896
 9455TIP3    H149856   1.361   2.567   3.175 -0.8361 -1.4786  0.0756
 9455TIP3    H249857   1.223   2.621   3.144 -0.2314 -0.2153 -0.4773
 9456TIP3   OH249858   5.812   6.150   1.760 -0.2894  0.0949 -0.2216
 9456TIP3    H149859   5.848   6.149   1.672  1.9481 -0.8738  0.6433
 9456TIP3    H249860   5.840   6.067   1.799  0.6960  1.4061  2.0782
 9457TIP3   OH249861   4.980   3.367  14.835  0.0491 -0.0093 -0.4481
 9457TIP3    H149862   5.034   3.417  14.774 -0.7987  1.5949  0.0625
 9457TIP3    H249863   4.901   3.419  14.846 -0.7309 -1.3037  0.4084
 9458TIP3   OH249864   2.030   5.402   2.773  0.6307  0.6525  0.1079
 9458TIP3    H149865   2.091   5.347   2.823 -0.4532 -0.7381 -0.0296
 9458TIP3    H249866   1.945   5.386   2.814 -0.1970 -0.0784 -1.8127
 9459TIP3   OH249867   4.267   3.654   5.175  0.0289 -0.3166  0.3344
 9459TIP3    H149868   4.173   3.655   5.158  0.1054 -3.2873 -0.8799
 9459TIP3    H249869   4.307   3.647   5.088  1.0223 -4.5382  0.9219
 9460TIP3   OH249870   5.816   0.133   5.654  0.2740  0.7521 -0.4973
 9460TIP3    H149871   5.746   0.198   5.658 -1.0629 -0.4717 -2.2812
 9460TIP3    H249872   5.780   0.063   5.600  1.7148 -1.4252  1.2154
 9461TIP3   OH249873   1.420   4.550  10.977 -0.6332 -0.2474  0.5575
 9461TIP3    H149874   1.357   4.553  11.050 -0.0688 -1.2941  1.1145
 9461TIP3    H249875   1.367   4.568  10.899 -1.7952 -1.7741  0.9336
 9462TIP3   OH249876   3.497   4.224   1.615 -0.6820 -0.2103 -0.4981
 9462TIP3    H149877   3.483   4.129   1.611 -0.1581 -0.2712 -1.1859
 9462TIP3    H249878   3.552   4.243   1.538 -0.7943  0.6512 -0.3754
 9463TIP3   OH249879   5.431   3.424  13.814 -0.1690 -0.0017 -0.3958
 9463TIP3    H149880   5.371   3.411  13.741 -1.2602  0.3188  0.4149
 9463TIP3    H249881   5.514   3.388  13.784 -0.3356  0.9512 -2.1394
 9464TIP3   OH249882   2.378   4.549   0.853 -0.1893 -0.2825  0.6864
 9464TIP3    H149883   2.467   4.525   0.829 -0.2054 -0.7837  1.1080
 9464TIP3    H249884   2.371   4.529   0.946 -1.1697 -1.6523  0.3604
 9465TIP3   OH249885   5.338   2.544   0.546 -0.0451 -0.0132  0.6568
 9465TIP3    H149886   5.309   2.454   0.532  1.1937 -0.4809  0.9943
 9465TIP3    H249887   5.364   2.574   0.459 -2.7249  0.9049  0.0594
 9466TIP3   OH249888   4.106   6.449   1.158 -0.8613  0.0366  0.5092
 9466TIP3    H149889   4.069   6.517   1.215  0.1332  0.8982  0.1763
 9466TIP3    H249890   4.096   6.485   1.070 -2.1589 -1.1744  0.1350
 9467TIP3   OH249891   4.482   0.278  11.164  0.1653  0.1433  0.2105
 9467TIP3    H149892   4.577   0.284  11.154  0.0747  0.0533 -0.7695
 9467TIP3    H249893   4.468   0.197  11.213  0.5982  0.1556  0.3541
 9468TIP3   OH249894   6.059   5.461  11.718 -0.3625 -0.2339 -0.5639
 9468TIP3    H149895   5.987   5.417  11.672 -0.9847  0.7331 -0.5296
 9468TIP3    H249896   6.029   5.467  11.809 -0.2468  0.1762 -0.5514
 9469TIP3   OH249897   2.719   0.845   3.558 -0.1328 -0.3074 -0.6499
 9469TIP3    H149898   2.623   0.846   3.563 -0.0784  1.0058  0.6839
 9469TIP3    H249899   2.746   0.800   3.638  0.3850  0.6398 -0.2868
 9470TIP3   OH249900   5.648   3.265   1.564 -0.0988 -0.5023  0.4198
 9470TIP3    H149901   5.694   3.273   1.480  1.1212 -1.0820  1.0140
 9470TIP3    H249902   5.589   3.341   1.566  2.2143  1.3995  0.4542
 9471TIP3   OH249903   0.773   1.800   2.744 -0.2928 -0.4987  0.3950
 9471TIP3    H149904   0.868   1.813   2.740 -0.2116 -1.2068 -0.2001
 9471TIP3    H249905   0.740   1.882   2.779  0.4439  0.2194 -0.5106
 9472TIP3   OH249906   5.392   4.368  12.812  0.0097 -0.5152 -0.4420
 9472TIP3    H149907   5.455   4.400  12.747  0.6221  1.7414  1.1072
 9472TIP3    H249908   5.320   4.431  12.809 -0.0679 -0.5043  0.8365
 9473TIP3   OH249909   3.411   4.766  12.837  0.0793  0.3746 -0.0621
 9473TIP3    H149910   3.457   4.719  12.768  0.1641 -0.3541  0.4832
 9473TIP3    H249911   3.320   4.736  12.830 -1.1221  3.9402 -3.0440
 9474TIP3   OH249912   0.151   5.537  12.656 -0.1270 -0.7829  0.7151
 9474TIP3    H149913   0.139   5.618  12.607  1.1477 -0.2298  1.2739
 9474TIP3    H249914   0.171   5.472  12.589 -1.6178 -0.7734  0.2160
 9475TIP3   OH249915   0.853   6.317   4.350 -0.6529 -0.0675  0.2343
 9475TIP3    H149916   0.914   6.316   4.424 -0.7952 -1.4230  0.3622
 9475TIP3    H249917   0.893   6.377   4.287 -0.6441  1.3001  1.4705
 9476TIP3   OH249918   5.877   4.844   4.162  0.0227 -0.0730 -0.7119
 9476TIP3    H149919   5.812   4.846   4.091 -0.7379  1.1391 -0.0243
 9476TIP3    H249920   5.926   4.925   4.152  1.7665 -1.1592 -1.4673
 9477TIP3   OH249921   3.562   3.295   4.628 -0.4188 -0.3400 -0.2056
 9477TIP3    H149922   3.616   3.295   4.708 -0.6588 -1.5233 -0.0279
 9477TIP3    H249923   3.475   3.268   4.658 -0.1078 -2.5438 -1.0901
 9478TIP3   OH249924   0.223   0.067   5.123  0.4121  0.1656 -0.0269
 9478TIP3    H149925   0.189   0.109   5.202 -0.0344  2.0253 -1.1389
 9478TIP3    H249926   0.230   0.138   5.060  0.3977 -1.3368 -1.7925
 9479TIP3   OH249927   2.094   4.002   3.307  0.1582 -0.8650  0.0161
 9479TIP3    H149928   2.127   4.067   3.369  0.3196 -1.6331  0.7525
 9479TIP3    H249929   2.173   3.968   3.264  0.1103 -0.9013 -0.0427
 9480TIP3   OH249930   3.139   4.732   4.712  0.4476 -0.1922 -0.0277
 9480TIP3    H149931   3.165   4.823   4.720  1.5530 -0.5214  0.4045
 9480TIP3    H249932   3.045   4.734   4.695  0.2232  0.9940  1.2279
 9481TIP3   OH249933   1.136   6.534   0.321  0.3210 -0.1590 -0.1862
 9481TIP3    H149934   1.059   6.481   0.298 -0.2434  0.2749  0.6460
 9481TIP3    H249935   1.167   6.495   0.403  0.0330  0.6352  0.3182
 9482TIP3   OH249936   3.556   5.649  16.526  0.0389  0.2017 -0.1059
 9482TIP3    H149937   3.538   5.628  16.435  1.1498 -1.0345 -0.0772
 9482TIP3    H249938   3.509   5.731  16.542  1.8523  1.8290 -2.4947
 9483TIP3   OH249939   6.701   1.381   0.877  0.3725 -0.2642 -0.3969
 9483TIP3    H149940   6.646   1.311   0.842  0.4802  0.1910 -1.4957
 9483TIP3    H249941   6.775   1.387   0.816 -0.4362  1.8625 -1.2347
 9484TIP3   OH249942   3.257   4.510   4.827 -0.1712 -0.6263 -0.2998
 9484TIP3    H149943   3.316   4.492   4.755 -0.1212 -2.0962  0.0785
 9484TIP3    H249944   3.216   4.594   4.804  1.8343  0.3018 -0.6796
 9485TIP3   OH249945   4.138   3.343  15.291 -0.5682  1.2357  0.3332
 9485TIP3    H149946   4.201   3.415  15.282  0.5692  0.2101 -0.3389
 9485TIP3    H249947   4.140   3.299  15.206 -1.6159  0.7153  0.5690
 9486TIP3   OH249948   0.284   0.018   2.113 -0.9155  0.9173  0.2388
 9486TIP3    H149949   0.311  -0.027   2.194  1.2073  0.3274 -0.7195
 9486TIP3    H249950   0.233  -0.047   2.065 -0.3685  0.5308  0.1737
 9487TIP3   OH249951   1.030   2.791  13.945 -0.2943 -0.4283  0.4874
 9487TIP3    H149952   0.947   2.774  13.899 -0.7575  0.9626  0.7584
 9487TIP3    H249953   1.059   2.875  13.910  1.0461 -0.9257  0.3682
 9488TIP3   OH249954   0.220   4.562  11.488  0.5662 -0.3750  0.8973
 9488TIP3    H149955   0.226   4.500  11.415 -0.3203 -1.5523  1.7888
 9488TIP3    H249956   0.214   4.648  11.446  0.7287 -0.9643 -0.3890
 9489TIP3   OH249957   1.333   5.075   5.735 -0.5068  0.2645  0.1044
 9489TIP3    H149958   1.266   5.143   5.728 -0.1073  0.6059 -0.4996
 9489TIP3    H249959   1.349   5.047   5.644 -2.2299 -2.2085  0.4606
 9490TIP3   OH249960   0.682   4.768   5.178  0.3055 -0.1817 -0.4207
 9490TIP3    H149961   0.649   4.685   5.212  2.7548 -1.8283 -1.7659
 9490TIP3    H249962   0.652   4.770   5.087  1.7995 -0.5380 -0.9408
 9491TIP3   OH249963   2.907   5.204   1.071 -0.4499  0.2115 -0.1151
 9491TIP3    H149964   2.860   5.212   0.987 -1.2728  0.8847  0.3846
 9491TIP3    H249965   2.998   5.224   1.049 -0.3768 -1.0601 -1.1018
 9492TIP3   OH249966   5.730   5.407  14.421 -0.2011  0.0412 -0.0426
 9492TIP3    H149967   5.710   5.477  14.483  0.3796  0.7109 -0.6081
 9492TIP3    H249968   5.773   5.450  14.348  2.2748 -1.1574  0.5860
 9493TIP3   OH249969   4.919   2.032  13.543 -0.5516  0.4081  0.2275
 9493TIP3    H149970   4.989   2.095  13.562 -0.7418  0.4639  0.7631
 9493TIP3    H249971   4.935   1.959  13.602 -0.1338 -0.2114 -0.6287
 9494TIP3   OH249972   3.619   0.103   5.067  0.5713  0.4921  0.0599
 9494TIP3    H149973   3.528   0.117   5.042 -0.6751 -0.9098  3.2984
 9494TIP3    H249974   3.636   0.012   5.044  1.0231  0.6112 -0.0871
 9495TIP3   OH249975   3.006   4.204   6.461  0.0160  0.0690  0.0088
 9495TIP3    H149976   3.060   4.170   6.532 -1.7717 -0.6740  1.0789
 9495TIP3    H249977   2.954   4.274   6.502 -2.1061 -1.3477 -0.1301
 9496TIP3   OH249978   0.861   4.403  11.397 -0.5866 -0.4066 -0.2721
 9496TIP3    H149979   0.946   4.447  11.404 -0.3689 -0.6271 -1.3310
 9496TIP3    H249980   0.834   4.418  11.307 -0.8476 -1.8325 -0.4549
 9497TIP3   OH249981   5.823   5.163  10.852  0.2944 -0.1422 -0.1112
 9497TIP3    H149982   5.897   5.217  10.827  0.0943  0.7376  1.1183
 9497TIP3    H249983   5.829   5.086  10.795  2.3608 -0.2824  0.2218
 9498TIP3   OH249984   2.896   0.034  12.894 -0.1283  0.6223 -0.7333
 9498TIP3    H149985   2.971   0.041  12.952  1.8750 -4.3889 -2.2024
 9498TIP3    H249986   2.828  -0.007  12.947  0.5384 -0.8340 -0.9513
 9499TIP3   OH249987   3.050   1.369  12.362  0.3805  0.0031  0.4225
 9499TIP3    H149988   2.974   1.394  12.310 -2.9235  0.2228  4.8080
 9499TIP3    H249989   3.062   1.276  12.345 -0.8264 -0.0238 -0.3726
 9500TIP3   OH249990   0.364   3.683  13.675  0.5591  0.1335 -0.4899
 9500TIP3    H149991   0.399   3.732  13.600  0.1123  0.1935 -0.6601
 9500TIP3    H249992   0.295   3.629  13.637 -2.0768  2.6512  0.3747
 9501TIP3   OH249993   1.403   6.129   1.031 -0.7184  0.3911 -0.0622
 9501TIP3    H149994   1.356   6.075   0.967  2.0583 -3.3051  0.6952
 9501TIP3    H249995   1.455   6.190   0.977 -1.5003  0.1783 -1.1006
 9502TIP3   OH249996   1.860   1.856  16.443 -0.4092  0.1985  0.0012
 9502TIP3    H149997   1.913   1.849  16.363  0.7368  0.2760  0.7349
 9502TIP3    H249998   1.879   1.776  16.492 -0.7288  0.3744  0.4179
 9503TIP3   OH249999   4.433   6.801   0.556 -0.0637 -0.3249  0.2172
 9503TIP3    H150000   4.513   6.753   0.577 -0.4414 -0.2498  2.0108
 9503TIP3    H250001   4.446   6.832   0.466  2.3333  0.5260  0.7836
 9504TIP3   OH250002   2.697   3.241   5.146 -0.2670 -0.6400 -0.3051
 9504TIP3    H150003   2.700   3.305   5.075  0.9573 -0.1874  0.1208
 9504TIP3    H250004   2.614   3.257   5.190 -0.1269  0.4399 -0.4109
 9505TIP3   OH250005   4.924   5.554  10.362  0.4986 -0.2008  0.1077
 9505TIP3    H150006   4.938   5.564  10.268 -1.0179  0.7268 -0.0477
 9505TIP3    H250007   5.008   5.523  10.396  1.6780  1.3569 -1.2634
 9506TIP3   OH250008   5.562   4.237   0.206  0.5737 -0.3684  0.1662
 9506TIP3    H150009   5.503   4.215   0.278  0.3011 -1.2524 -0.2956
 9506TIP3    H250010   5.565   4.156   0.154 -0.0132  0.5325 -1.3371
 9507TIP3   OH250011   5.533   1.848   3.769  0.0901  0.1599  0.0447
 9507TIP3    H150012   5.463   1.892   3.816 -0.0922 -1.0095  0.9229
 9507TIP3    H250013   5.499   1.760   3.752  1.7526 -0.8658  1.6022
 9508TIP3   OH250014   0.576   4.226  12.586 -0.0657  0.5486 -0.1960
 9508TIP3    H150015   0.481   4.234  12.590 -0.1925 -0.9943  1.2042
 9508TIP3    H250016   0.608   4.292  12.648 -0.1724  1.4804 -1.1147
 9509TIP3   OH250017   4.582   4.660  12.451  0.1409 -0.1477 -0.4235
 9509TIP3    H150018   4.669   4.621  12.460 -0.2699 -1.4313 -1.5975
 9509TIP3    H250019   4.591   4.723  12.379 -0.1787 -1.2798 -1.4948
 9510TIP3   OH250020   0.075   1.517  14.404 -0.3074 -0.1781  0.0252
 9510TIP3    H150021   0.093   1.606  14.434 -2.4247  0.0847  0.6477
 9510TIP3    H250022   0.123   1.510  14.322 -0.3779  1.6703 -0.2259
 9511TIP3   OH250023   4.477   3.244  11.879  0.2315  0.7823  0.7900
 9511TIP3    H150024   4.513   3.320  11.834  0.7207 -0.2141 -0.5728
 9511TIP3    H250025   4.514   3.169  11.833 -0.5376 -0.2911  1.8494
 9512TIP3   OH250026   1.056   3.728   1.015  0.3738  0.0402 -0.8568
 9512TIP3    H150027   1.147   3.710   0.992  0.2171  1.3580 -2.7652
 9512TIP3    H250028   1.012   3.738   0.930 -0.9550  2.2025  0.0130
 9513TIP3   OH250029   6.159   4.997   2.710 -0.1743  0.0441  0.2346
 9513TIP3    H150030   6.086   4.952   2.753 -0.0268  1.3579  1.9458
 9513TIP3    H250031   6.200   4.929   2.656 -1.3735 -1.2610  0.8860
 9514TIP3   OH250032   2.006   3.779  12.339  0.7416  0.4594 -0.6025
 9514TIP3    H150033   2.091   3.821  12.349  0.6740  0.7232 -1.1107
 9514TIP3    H250034   1.998   3.762  12.245  1.4850 -2.2139 -0.2586
 9515TIP3   OH250035   4.387   2.740  10.657 -0.0069 -0.5257  0.5531
 9515TIP3    H150036   4.311   2.780  10.699  0.4262  0.3039  0.5799
 9515TIP3    H250037   4.366   2.740  10.563  0.4018  0.7345  0.4440
 9516TIP3   OH250038   1.193   5.443   3.712  0.7711 -0.2402  0.0763
 9516TIP3    H150039   1.253   5.426   3.639  1.8749  0.8853  0.6801
 9516TIP3    H250040   1.242   5.417   3.790 -0.0175 -0.4804  0.5016
 9517TIP3   OH250041   0.825   6.533   5.510  0.0143  0.2834 -0.2336
 9517TIP3    H150042   0.817   6.446   5.548  1.2025  0.4522  0.4443
 9517TIP3    H250043   0.773   6.529   5.429  0.4711 -1.2106 -0.4827
 9518TIP3   OH250044   3.431   6.810   3.224 -0.0578  0.3643 -0.4983
 9518TIP3    H150045   3.376   6.731   3.223 -0.0104  0.2535  1.5653
 9518TIP3    H250046   3.454   6.824   3.132  1.0022 -2.7834 -0.8208
 9519TIP3   OH250047   4.807   4.298   2.729 -0.3831 -0.4239  0.6079
 9519TIP3    H150048   4.795   4.233   2.799 -2.2645 -2.4581 -1.4756
 9519TIP3    H250049   4.868   4.256   2.668 -2.4680 -0.8183 -1.3224
 9520TIP3   OH250050   1.474   5.883   1.556  0.2627  0.1837 -0.6137
 9520TIP3    H150051   1.382   5.910   1.549  0.3231  0.8743  0.7557
 9520TIP3    H250052   1.522   5.966   1.560  0.6697 -0.0958  1.4225
 9521TIP3   OH250053   5.160   2.162   4.209 -0.3117  0.4144  0.3095
 9521TIP3    H150054   5.184   2.077   4.172 -1.9033  0.4070 -0.7721
 9521TIP3    H250055   5.216   2.224   4.163  0.3650  0.0423  0.6079
 9522TIP3   OH250056   2.408   2.355   5.124 -0.4749 -0.3357 -0.1563
 9522TIP3    H150057   2.499   2.384   5.119 -0.6860  0.1914 -1.3841
 9522TIP3    H250058   2.413   2.259   5.119  0.0181 -0.3204 -0.0064
 9523TIP3   OH250059   3.164   5.229   0.551  0.0777  0.2316 -0.6378
 9523TIP3    H150060   3.160   5.142   0.591 -1.1919  0.1145 -1.0033
 9523TIP3    H250061   3.163   5.213   0.457  2.2334  0.5534 -0.7713
 9524TIP3   OH250062   2.160   5.479  13.623  0.0666 -0.0401 -0.1429
 9524TIP3    H150063   2.228   5.450  13.562  0.0454  1.0322 -0.6896
 9524TIP3    H250064   2.160   5.412  13.692  0.6365 -0.8458 -0.9029
 9525TIP3   OH250065   4.059   3.808  16.022  0.3413  0.4060 -0.4987
 9525TIP3    H150066   4.009   3.798  16.104 -0.0198 -1.0698 -0.8539
 9525TIP3    H250067   4.149   3.822  16.051  0.3097 -0.6339  0.1889
 9526TIP3   OH250068   1.986   4.459   3.212 -0.8272  0.4346  0.1703
 9526TIP3    H150069   1.916   4.394   3.202  0.1897 -0.7617  0.5366
 9526TIP3    H250070   1.983   4.484   3.304 -1.1642  0.8606  0.0477
 9527TIP3   OH250071   1.540   1.552  12.192 -0.4181 -0.5767  0.0158
 9527TIP3    H150072   1.461   1.558  12.139 -0.3642 -0.0101 -0.0086
 9527TIP3    H250073   1.572   1.463  12.178 -0.0467 -0.2388 -1.4219
 9528TIP3   OH250074   4.835   1.097  13.009 -0.3484 -0.0748 -0.0181
 9528TIP3    H150075   4.753   1.112  12.963  0.7045  1.8094 -1.4247
 9528TIP3    H250076   4.888   1.175  12.991  1.4348 -0.8188  1.5657
 9529TIP3   OH250077   6.363   5.000  11.229 -0.4138 -0.1937  0.1507
 9529TIP3    H150078   6.416   4.924  11.206  0.2886  0.6076 -0.9625
 9529TIP3    H250079   6.414   5.046  11.296  0.2600  0.5030 -0.8209
 9530TIP3   OH250080   2.092   1.899   0.562 -0.1475 -0.2912 -0.0718
 9530TIP3    H150081   2.027   1.959   0.598 -0.9585 -0.8072 -0.6351
 9530TIP3    H250082   2.083   1.819   0.613 -0.3286 -0.5418 -0.4848
 9531TIP3   OH250083   1.592   1.049   3.277 -0.2229  0.1432 -0.0428
 9531TIP3    H150084   1.531   0.991   3.322  0.1855 -1.2676 -1.2458
 9531TIP3    H250085   1.623   1.109   3.345 -1.0652 -0.7033  1.1131
 9532TIP3   OH250086   6.753   1.603   3.173  0.1249 -0.2158 -0.0953
 9532TIP3    H150087   6.822   1.553   3.131 -1.0682 -0.8318 -1.4278
 9532TIP3    H250088   6.720   1.546   3.243 -0.6199 -0.9528 -1.0223
 9533TIP3   OH250089   2.261   5.232  14.793 -0.3406  0.0457 -0.2823
 9533TIP3    H150090   2.231   5.322  14.780  0.9124  0.3705 -1.1213
 9533TIP3    H250091   2.354   5.234  14.770 -0.5451 -1.6944 -1.5235
 9534TIP3   OH250092   0.631   6.379   1.933 -0.4348 -0.3225  0.1262
 9534TIP3    H150093   0.542   6.383   1.968  0.2888 -1.1186  2.1640
 9534TIP3    H250094   0.624   6.419   1.846 -2.3821  1.4074  1.0054
 9535TIP3   OH250095   2.198   4.492  14.758 -0.2056 -0.2359  0.4691
 9535TIP3    H150096   2.114   4.454  14.787 -1.4977  0.3180 -2.2459
 9535TIP3    H250097   2.182   4.586  14.757  0.6393 -0.0909  0.4212
 9536TIP3   OH250098   2.615   1.066   3.289  0.5194 -0.4953  0.3024
 9536TIP3    H150099   2.609   1.108   3.375 -0.5661 -0.0470  0.0255
 9536TIP3    H250100   2.631   0.973   3.309 -1.4601 -0.7108  1.0544
 9537TIP3   OH250101   2.211   2.269   4.470  0.0746 -0.4191 -0.3402
 9537TIP3    H150102   2.187   2.194   4.524  1.2421 -0.3302  0.3477
 9537TIP3    H250103   2.288   2.239   4.421  0.6619  0.3655  0.0776
 9538TIP3   OH250104   4.501   4.914  16.637 -0.3501 -0.0555  0.3054
 9538TIP3    H150105   4.522   4.856  16.711  0.4716  0.3975  0.4359
 9538TIP3    H250106   4.432   4.971  16.670  0.5167  0.6303  0.9780
 9539TIP3   OH250107   6.585   1.867  14.446  0.4364 -0.2633 -0.2459
 9539TIP3    H150108   6.525   1.812  14.497 -0.5387 -0.0919 -1.1855
 9539TIP3    H250109   6.581   1.953  14.489  0.2471 -0.3303 -0.1285
 9540TIP3   OH250110   3.101   4.720   3.343  0.4296 -0.1443 -1.1917
 9540TIP3    H150111   3.090   4.812   3.366  0.0385 -0.0621 -1.6877
 9540TIP3    H250112   3.011   4.685   3.338  0.6030 -0.8646  0.2022
 9541TIP3   OH250113   2.056   5.535   1.998  0.8443  0.2003  0.2709
 9541TIP3    H150114   2.074   5.492   2.082 -0.2329  0.2137  0.5280
 9541TIP3    H250115   2.135   5.585   1.979  0.8508  0.7713  1.6504
 9542TIP3   OH250116   1.440   2.083   1.019 -0.0505  0.0754 -0.0780
 9542TIP3    H150117   1.415   2.012   1.077  0.3320 -0.4247 -0.5123
 9542TIP3    H250118   1.524   2.113   1.053 -0.1588  0.2513  0.0385
 9543TIP3   OH250119   6.317   5.808  16.139 -0.2776 -0.7616 -0.3161
 9543TIP3    H150120   6.256   5.750  16.185 -0.3402 -0.1154  0.4499
 9543TIP3    H250121   6.285   5.810  16.049  0.6999 -3.2110 -0.7915
 9544TIP3   OH250122   1.403   0.810   4.881  0.0469  0.5973  0.1051
 9544TIP3    H150123   1.480   0.850   4.841 -0.6844  1.2768 -0.6678
 9544TIP3    H250124   1.329   0.853   4.839 -0.7693  1.0629  1.9206
 9545TIP3   OH250125   2.242   0.189   2.980  0.5171 -0.1002  0.2600
 9545TIP3    H150126   2.272   0.270   2.939  0.6482 -0.3429 -0.1293
 9545TIP3    H250127   2.235   0.210   3.074 -0.3847  0.6411  0.0463
 9546TIP3   OH250128   5.353   5.911   2.064 -0.2240 -0.3615  0.5919
 9546TIP3    H150129   5.343   5.909   2.159 -0.3201 -0.8631  0.5763
 9546TIP3    H250130   5.263   5.914   2.031 -0.3884 -3.3984  0.4765
 9547TIP3   OH250131   5.125   6.768  13.899 -0.3554 -0.0399  0.1318
 9547TIP3    H150132   5.186   6.695  13.907  0.0598  0.0427 -1.7433
 9547TIP3    H250133   5.045   6.738  13.942  0.3145 -0.9850  0.7488
 9548TIP3   OH250134   2.284   3.257  12.024  0.9345  0.1639 -0.1015
 9548TIP3    H150135   2.354   3.192  12.017  0.4152 -0.3538 -0.4942
 9548TIP3    H250136   2.331   3.341  12.030  1.5991 -0.2193  0.1591
 9549TIP3   OH250137   0.554   5.963   1.900  0.3042 -0.2286 -0.4387
 9549TIP3    H150138   0.639   5.935   1.933 -0.4639 -0.9698  1.0133
 9549TIP3    H250139   0.533   5.901   1.831  0.1308 -1.2052  0.4665
 9550TIP3   OH250140   0.220   0.072   1.086 -0.2828 -0.5517 -0.4503
 9550TIP3    H150141   0.138   0.095   1.131  0.4399  2.2057 -0.3659
 9550TIP3    H250142   0.247   0.153   1.043  1.4299 -1.9139 -2.0937
 9551TIP3   OH250143   1.281   3.171   0.905 -0.1705 -0.3369 -0.2915
 9551TIP3    H150144   1.193   3.138   0.885  0.4155 -0.6430 -2.7072
 9551TIP3    H250145   1.278   3.263   0.881  0.0545 -0.2504  0.0106
 9552TIP3   OH250146   1.956   6.384  12.023  0.2655 -0.5346  0.2053
 9552TIP3    H150147   1.989   6.447  12.087 -1.4051 -0.2440  0.8542
 9552TIP3    H250148   1.974   6.299  12.061  0.6755 -0.3979  0.3203
 9553TIP3   OH250149   0.612   5.490   4.220  0.3630  0.3780  0.2594
 9553TIP3    H150150   0.611   5.416   4.159  0.0586 -0.4482  1.2424
 9553TIP3    H250151   0.521   5.517   4.227  0.0121 -1.0634  2.1140
 9554TIP3   OH250152   2.092   1.292  15.305  0.6017  0.0534  0.7273
 9554TIP3    H150153   2.181   1.274  15.335  0.6438 -1.3339 -0.1400
 9554TIP3    H250154   2.092   1.386  15.285  1.7963  0.1119  0.9196
 9555TIP3   OH250155   6.268   6.102   0.548  0.4200 -0.1148  0.2631
 9555TIP3    H150156   6.183   6.126   0.584  1.0990  0.0167  1.8206
 9555TIP3    H250157   6.332   6.147   0.602  1.4995  0.3176 -1.2879
 9556TIP3   OH250158   0.630   6.336   0.133 -0.0289 -0.1088 -0.2510
 9556TIP3    H150159   0.719   6.309   0.109 -1.2350 -2.3942 -2.5308
 9556TIP3    H250160   0.573   6.292   0.070 -2.7711  1.9483  0.5991
 9557TIP3   OH250161   6.002   1.407   0.647 -0.2536  0.2596 -0.4229
 9557TIP3    H150162   6.032   1.348   0.578  0.7771  2.2919 -1.8249
 9557TIP3    H250163   5.910   1.425   0.625 -0.1455  0.3000 -0.8541
 9558TIP3   OH250164   2.108   6.112  13.860  0.1894  0.0045  1.2981
 9558TIP3    H150165   2.200   6.100  13.837  0.3263 -1.9326  2.6414
 9558TIP3    H250166   2.073   6.168  13.791  2.8703  2.7576  1.9446
 9559TIP3   OH250167   5.708   1.985  15.419 -0.2764 -0.0482  0.2436
 9559TIP3    H150168   5.738   2.003  15.329  1.4058  2.0433  1.1458
 9559TIP3    H250169   5.645   2.054  15.437  0.2190  0.2031  1.0364
 9560TIP3   OH250170   2.594   4.413  16.819  0.3798  0.4053 -0.2857
 9560TIP3    H150171   2.535   4.443  16.888  0.8846 -1.8314  1.2148
 9560TIP3    H250172   2.553   4.334  16.784  1.0552  0.4695 -1.2674
 9561TIP3   OH250173   3.460   6.043  13.578  0.4086 -0.5788  0.2337
 9561TIP3    H150174   3.382   6.061  13.630 -0.2142 -0.9273 -0.5543
 9561TIP3    H250175   3.474   5.948  13.587  1.0265 -0.4521  0.7407
 9562TIP3   OH250176   2.992   0.477   1.490  0.6543  0.1425 -0.4882
 9562TIP3    H150177   3.028   0.518   1.569  0.3882  0.8551 -0.7326
 9562TIP3    H250178   2.956   0.394   1.521  0.6068  0.3903  0.1370
 9563TIP3   OH250179   3.328   4.826  10.534 -0.3428  0.4785  0.2684
 9563TIP3    H150180   3.336   4.883  10.610  1.2632  0.3194  0.2473
 9563TIP3    H250181   3.391   4.755  10.550 -0.7520 -0.1360 -0.7105
 9564TIP3   OH250182   2.186   1.968   0.117 -1.0530  0.0658  0.1163
 9564TIP3    H150183   2.280   1.984   0.126 -1.0258 -0.4602  0.8884
 9564TIP3    H250184   2.150   2.052   0.088 -0.4415  0.4908  0.5596
 9565TIP3   OH250185   4.875   3.461   2.200 -0.0407 -0.1028 -0.2849
 9565TIP3    H150186   4.935   3.423   2.135 -0.5504  0.0420 -0.8533
 9565TIP3    H250187   4.863   3.551   2.171  0.0267  0.0748  0.2350
 9566TIP3   OH250188   5.215   5.241   0.455 -0.2097 -0.1557 -0.5757
 9566TIP3    H150189   5.126   5.259   0.424  0.1966  1.0326 -1.1127
 9566TIP3    H250190   5.258   5.199   0.381  0.0099  0.3296 -0.7248
 9567TIP3   OH250191   2.559   0.338  12.262 -0.1980  0.1094  0.1982
 9567TIP3    H150192   2.569   0.383  12.178 -0.1416 -0.1453  0.0690
 9567TIP3    H250193   2.483   0.380  12.302 -0.8073 -0.4141 -0.3964
 9568TIP3   OH250194   3.106   4.171   6.070 -0.6816  0.3811 -0.5878
 9568TIP3    H150195   3.164   4.130   6.007  0.2615  0.9785 -0.1372
 9568TIP3    H250196   3.150   4.161   6.155 -1.3499  0.6216 -0.1977
 9569TIP3   OH250197   6.675   4.253  11.923 -0.4495  0.4840 -0.2511
 9569TIP3    H150198   6.652   4.163  11.902  1.4087 -0.1115  0.0556
 9569TIP3    H250199   6.636   4.268  12.009 -0.0614 -0.3373  0.0807
 9570TIP3   OH250200   4.511   1.546  16.654 -0.7861  0.9011  0.3362
 9570TIP3    H150201   4.418   1.571  16.654 -1.3353 -0.9417  0.3477
 9570TIP3    H250202   4.549   1.596  16.583 -2.4975 -0.4937 -1.7009
 9571TIP3   OH250203   0.897   4.484   4.662  0.6576 -0.0567  0.1545
 9571TIP3    H150204   0.960   4.491   4.591 -0.1305 -0.2489 -0.5773
 9571TIP3    H250205   0.889   4.390   4.677  1.7759  0.0143  1.3867
 9572TIP3   OH250206   1.689   1.445  16.841 -0.0751 -0.0968 -0.0577
 9572TIP3    H150207   1.707   1.480  16.929  0.5327 -1.8731  0.5705
 9572TIP3    H250208   1.684   1.522  16.785 -0.3429  1.0812  1.5106
 9573TIP3   OH250209   6.393   2.682   3.312 -0.2426  0.3109  0.2700
 9573TIP3    H150210   6.375   2.680   3.218 -0.5116  3.2277  0.1633
 9573TIP3    H250211   6.314   2.720   3.351  1.1574  2.4868  1.1984
 9574TIP3   OH250212   5.381   1.629  14.577 -1.0748  0.6275 -0.8121
 9574TIP3    H150213   5.287   1.631  14.593 -0.8065  3.5860  1.1208
 9574TIP3    H250214   5.411   1.547  14.617 -2.4613  1.0269  1.1927
 9575TIP3   OH250215   4.295   4.065   2.918  0.2813 -0.2459  0.2110
 9575TIP3    H150216   4.373   4.034   2.965 -0.2442  0.0702  1.3116
 9575TIP3    H250217   4.323   4.148   2.878  1.0668 -1.0694 -1.0051
 9576TIP3   OH250218   6.794   1.628  11.832 -0.6474 -0.4463  0.0550
 9576TIP3    H150219   6.707   1.618  11.793 -0.2268 -0.3349 -0.9555
 9576TIP3    H250220   6.785   1.701  11.893 -1.6933 -1.5875  1.3093
 9577TIP3   OH250221   6.232   3.869   4.599  0.3428 -0.0948 -0.2728
 9577TIP3    H150222   6.156   3.875   4.657 -0.1111 -3.1332 -0.3922
 9577TIP3    H250223   6.302   3.913   4.647 -0.5614 -0.5812  1.6176
 9578TIP3   OH250224   4.794   0.169   6.039 -0.3298 -0.0052  0.6056
 9578TIP3    H150225   4.830   0.253   6.066  0.1124 -0.2411  0.7597
 9578TIP3    H250226   4.827   0.107   6.104 -0.4656 -0.3310  0.3647
 9579TIP3   OH250227   4.860   2.840  16.457 -0.5906 -0.1678  0.4639
 9579TIP3    H150228   4.826   2.927  16.480 -0.6875  0.1175 -0.7015
 9579TIP3    H250229   4.795   2.779  16.492  0.1805  0.1101  2.5799
 9580TIP3   OH250230   0.262   3.355  16.525 -0.2075  0.6987  0.1053
 9580TIP3    H150231   0.291   3.265  16.538 -0.9229  0.1927 -1.5093
 9580TIP3    H250232   0.313   3.407  16.588  2.7492 -0.3569 -1.2403
 9581TIP3   OH250233   0.440   6.054   4.463  0.4904  0.5277 -0.2938
 9581TIP3    H150234   0.458   5.961   4.481 -2.1667 -0.2049 -1.0354
 9581TIP3    H250235   0.418   6.091   4.548 -2.1459 -0.4947 -0.4514
 9582TIP3   OH250236   2.353   5.012  16.556 -0.1022  0.2204 -0.1372
 9582TIP3    H150237   2.328   5.101  16.581 -0.2758 -0.0774  0.8018
 9582TIP3    H250238   2.307   4.996  16.474 -1.3835  0.4184  0.5105
 9583TIP3   OH250239   4.191   4.427   4.958  0.1394 -0.3134 -0.1248
 9583TIP3    H150240   4.235   4.463   5.035 -2.0063 -1.3491  1.6939
 9583TIP3    H250241   4.200   4.332   4.967 -2.7222 -0.6064  0.6029
 9584TIP3   OH250242   6.510   6.722   3.020 -0.2572 -0.0370 -0.2056
 9584TIP3    H150243   6.488   6.731   3.113 -1.1799  0.1153 -0.4367
 9584TIP3    H250244   6.597   6.763   3.013  1.2941 -2.8457  1.1630
 9585TIP3   OH250245   0.804   0.869  15.091  0.0245  0.7790 -0.0173
 9585TIP3    H150246   0.818   0.954  15.051  0.8284  1.0312  0.7637
 9585TIP3    H250247   0.885   0.821  15.074 -0.1716  0.4019  0.0997
 9586TIP3   OH250248   1.868   0.449   6.214  1.0097  0.4897  0.7812
 9586TIP3    H150249   1.895   0.360   6.239 -2.0570 -0.8566 -0.2091
 9586TIP3    H250250   1.950   0.496   6.202  2.7978 -2.3826  0.7240
 9587TIP3   OH250251   3.422   4.133   0.330  0.6700 -0.0979 -0.0308
 9587TIP3    H150252   3.372   4.100   0.405  2.3607 -1.0679  0.7255
 9587TIP3    H250253   3.446   4.222   0.354  0.2029  0.0074  0.0508
 9588TIP3   OH250254   5.253   1.326   2.727 -0.2502 -0.5416  0.1376
 9588TIP3    H150255   5.207   1.246   2.703 -1.1901 -0.3413  1.1621
 9588TIP3    H250256   5.273   1.369   2.644  0.9081 -2.1595 -0.4604
 9589TIP3   OH250257   2.883   1.997   5.678 -0.2692  0.2894  0.1896
 9589TIP3    H150258   2.836   1.918   5.652 -1.6089  1.0999  0.0815
 9589TIP3    H250259   2.912   1.979   5.767 -2.9777  0.6677  1.2434
 9590TIP3   OH250260   6.174   0.196   1.552 -0.2704 -0.4113 -0.2824
 9590TIP3    H150261   6.147   0.263   1.615  0.6500 -1.0177  0.7905
 9590TIP3    H250262   6.210   0.126   1.605 -2.9084 -2.6779 -1.2248
 9591TIP3   OH250263   2.293   0.922   4.444  0.7256 -0.2402  0.0338
 9591TIP3    H150264   2.331   1.007   4.424  0.4323 -0.1095  0.0306
 9591TIP3    H250265   2.239   0.901   4.367 -1.9197  1.1080  1.3785
 9592TIP3   OH250266   1.819   5.290   2.914  0.3354 -0.0534 -0.1523
 9592TIP3    H150267   1.750   5.328   2.860  1.5094 -1.6141 -2.9596
 9592TIP3    H250268   1.797   5.197   2.919 -0.9041  0.2593  4.0910
 9593TIP3   OH250269   0.446   5.703   1.516  0.6733  0.0846 -0.6195
 9593TIP3    H150270   0.527   5.747   1.492  0.8644  0.3611  0.4669
 9593TIP3    H250271   0.436   5.720   1.610 -0.4704 -0.2198 -0.6667
 9594TIP3   OH250272   2.256   3.094   5.589 -0.1311  0.5799  0.0456
 9594TIP3    H150273   2.304   3.110   5.508  1.3302  0.8783  0.9412
 9594TIP3    H250274   2.205   3.174   5.603  0.3593  0.9182 -0.0834
 9595TIP3   OH250275   5.082   2.236  12.568  0.7110  0.5505 -0.3481
 9595TIP3    H150276   5.120   2.319  12.540  1.3261 -0.0347 -1.3021
 9595TIP3    H250277   5.144   2.202  12.633  0.9144  0.4252 -0.6072
 9596TIP3   OH250278   4.149   6.302  14.781  0.4702  0.3788  0.1237
 9596TIP3    H150279   4.236   6.326  14.748  1.1400  0.5351  1.9215
 9596TIP3    H250280   4.156   6.208  14.799  0.6906  0.6342  1.4529
 9597TIP3   OH250281   5.893   2.677  14.534 -0.2249  0.6221 -0.2603
 9597TIP3    H150282   5.889   2.769  14.560 -1.3963  0.6383 -0.4461
 9597TIP3    H250283   5.985   2.653  14.542  0.0843  1.8110 -0.2108
 9598TIP3   OH250284   5.142   2.961   2.376 -0.0848 -0.1385  0.1061
 9598TIP3    H150285   5.149   2.868   2.398  1.5142 -0.1989 -0.5133
 9598TIP3    H250286   5.186   2.969   2.291 -2.4030  0.7807 -1.0894
 9599TIP3   OH250287   6.348   6.153   3.924  0.1161  0.1217 -0.0907
 9599TIP3    H150288   6.331   6.082   3.862  0.3303 -0.6393  0.7046
 9599TIP3    H250289   6.313   6.121   4.007  0.4446  0.8519  0.3351
 9600TIP3   OH250290   3.144   5.553   4.526 -0.1391  0.1651 -0.4221
 9600TIP3    H150291   3.060   5.507   4.520 -0.4211  0.5396  0.4597
 9600TIP3    H250292   3.208   5.491   4.492 -0.6334 -0.5437 -0.0838
 9601TIP3   OH250293   0.595   5.728  15.559  0.2006 -0.3207  0.2948
 9601TIP3    H150294   0.580   5.780  15.639 -2.0477 -0.5394  0.0565
 9601TIP3    H250295   0.622   5.642  15.592  0.7327  0.0132  0.7647
 9602TIP3   OH250296   2.103   3.661  15.415  0.0160 -0.2943  0.0648
 9602TIP3    H150297   2.173   3.679  15.477 -0.2029  0.9504 -0.0194
 9602TIP3    H250298   2.024   3.654  15.470 -0.2796  1.4214 -0.0854
 9603TIP3   OH250299   4.536   6.185   1.258  0.0718  0.1190  0.1626
 9603TIP3    H150300   4.489   6.264   1.233  0.7653  0.3163 -0.5586
 9603TIP3    H250301   4.537   6.186   1.354 -0.6222  0.5560  0.1685
 9604TIP3   OH250302   4.559   2.713   3.068 -0.2967  0.1788  0.0339
 9604TIP3    H150303   4.602   2.637   3.029  0.9787  0.3690  1.0189
 9604TIP3    H250304   4.587   2.712   3.160 -1.2786  1.1284  0.3620
 9605TIP3   OH250305   4.135   2.299   4.655  0.1940  0.0018 -0.0953
 9605TIP3    H150306   4.145   2.342   4.570  2.7004  0.3451  0.3070
 9605TIP3    H250307   4.192   2.223   4.650  0.8278  0.3372  1.4533
 9606TIP3   OH250308   5.796   0.678   3.129 -0.5605  0.3610 -0.0071
 9606TIP3    H150309   5.800   0.596   3.079 -3.3470  0.6141 -0.8441
 9606TIP3    H250310   5.706   0.681   3.163 -0.3652  2.7994  0.4963
 9607TIP3   OH250311   5.546   3.287   4.904 -1.2273 -0.3147 -0.1001
 9607TIP3    H150312   5.496   3.364   4.932  0.8829  0.6941  1.1151
 9607TIP3    H250313   5.519   3.272   4.814 -2.1488  1.4724 -0.1634
 9608TIP3   OH250314   3.766   5.672   3.503  0.0898 -0.6073 -0.0593
 9608TIP3    H150315   3.853   5.712   3.499  0.6102 -1.6284  0.5415
 9608TIP3    H250316   3.749   5.642   3.413  0.7984 -1.2818  0.0244
 9609TIP3   OH250317   2.440   4.753  11.043 -0.3862 -0.4717 -0.1306
 9609TIP3    H150318   2.392   4.777  10.963 -0.3873 -0.9273 -0.2668
 9609TIP3    H250319   2.519   4.710  11.011 -0.1219 -0.1686  0.1067
 9610TIP3   OH250320   1.460   1.986   0.033  0.7096  0.1756 -0.2878
 9610TIP3    H150321   1.385   1.986   0.092  0.2669  0.5853 -0.8338
 9610TIP3    H250322   1.479   2.079   0.018  0.3647  0.0920 -1.3398
 9611TIP3   OH250323   3.261   5.997  15.225 -0.3797  0.1719 -0.4543
 9611TIP3    H150324   3.229   6.086  15.216  0.2042  0.5011  0.6612
 9611TIP3    H250325   3.306   5.995  15.309  0.3581 -0.9477 -0.8513
 9612TIP3   OH250326   2.993   2.992   2.628 -0.1141  0.1856  0.0702
 9612TIP3    H150327   3.075   2.987   2.677  0.5106 -0.0485 -0.9662
 9612TIP3    H250328   2.989   3.083   2.598  0.6511 -0.2005 -1.3078
 9613TIP3   OH250329   4.955   2.837   4.247 -0.0107 -0.1567 -0.0492
 9613TIP3    H150330   4.914   2.887   4.176  0.6381 -0.1285 -0.4081
 9613TIP3    H250331   5.024   2.895   4.280  1.8470 -1.4093 -1.5377
 9614TIP3   OH250332   0.084   6.404  14.083  0.1348 -0.6267 -0.1919
 9614TIP3    H150333   0.124   6.374  14.165 -1.0024  0.7287  0.8926
 9614TIP3    H250334   0.062   6.496  14.099 -0.9004 -0.5773 -1.7198
 9615TIP3   OH250335   0.465   2.780   2.592  0.3496  0.2104  0.0293
 9615TIP3    H150336   0.524   2.750   2.523  0.0869 -1.2210  0.4056
 9615TIP3    H250337   0.387   2.809   2.545  0.2551 -0.5533 -0.2978
 9616TIP3   OH250338   0.105   6.191  15.285  0.2147  0.1776  0.4925
 9616TIP3    H150339   0.081   6.242  15.362 -2.6801  2.0770 -1.4236
 9616TIP3    H250340   0.055   6.110  15.292  3.0014 -1.5158  2.3914
 9617TIP3   OH250341   4.071   0.324  14.934 -0.9768 -0.3995  0.0984
 9617TIP3    H150342   3.989   0.373  14.934 -0.8971 -0.2583  0.7728
 9617TIP3    H250343   4.105   0.335  14.845 -0.8534  0.9477  0.3008
 9618TIP3   OH250344   0.809   1.427   3.426  0.3428 -0.5677 -0.1011
 9618TIP3    H150345   0.778   1.510   3.389  1.6429 -0.3867 -0.8509
 9618TIP3    H250346   0.890   1.450   3.470 -1.0781 -0.8058  2.8637
 9619TIP3   OH250347   4.141   4.616   0.091 -0.2518 -0.1869 -0.2928
 9619TIP3    H150348   4.195   4.561   0.035 -0.3537  0.7212 -1.3182
 9619TIP3    H250349   4.071   4.558   0.122 -1.3281 -0.2702 -2.6887
 9620TIP3   OH250350   2.836   3.997  11.336  0.4746  0.1068 -0.1154
 9620TIP3    H150351   2.851   4.091  11.335 -0.3240  0.2435 -0.5336
 9620TIP3    H250352   2.904   3.961  11.279 -0.9096  0.7333 -2.2666
 9621TIP3   OH250353   5.220   2.848   0.250 -0.3599  0.0999  0.1701
 9621TIP3    H150354   5.139   2.894   0.268 -0.4986  0.0812 -0.3946
 9621TIP3    H250355   5.281   2.879   0.318 -1.6173 -2.0174  2.4463
 9622TIP3   OH250356   6.043   0.630   4.589  0.5376 -0.6382 -0.0048
 9622TIP3    H150357   6.009   0.672   4.510 -1.5061  0.1910  1.2348
 9622TIP3    H250358   6.018   0.538   4.580  0.1238 -0.5063 -0.2485
 9623TIP3   OH250359   3.598   4.972   0.813  0.2135  0.9860 -0.1610
 9623TIP3    H150360   3.578   5.040   0.877  0.4357  0.2895  0.6710
 9623TIP3    H250361   3.615   5.020   0.732  0.4867  1.9316  0.4370
 9624TIP3   OH250362   2.686   1.287   2.582  0.5364 -0.4449  0.3678
 9624TIP3    H150363   2.611   1.231   2.564  1.7702 -1.8521 -0.5344
 9624TIP3    H250364   2.670   1.366   2.529 -0.2724 -0.7425  0.1534
 9625TIP3   OH250365   5.330   5.937   5.020  0.5119 -0.5213  0.1549
 9625TIP3    H150366   5.275   5.954   5.097  0.0615 -1.9575  0.1884
 9625TIP3    H250367   5.418   5.924   5.056  0.6651  0.6144  0.2241
 9626TIP3   OH250368   5.648   4.585  15.401  0.0626 -0.4075 -0.2275
 9626TIP3    H150369   5.581   4.632  15.351  0.9505 -1.3434 -2.4542
 9626TIP3    H250370   5.619   4.493  15.399 -0.5351 -0.3263  2.1745
 9627TIP3   OH250371   4.524   2.935  17.031  0.1756 -0.7114  0.1210
 9627TIP3    H150372   4.557   2.940  17.121  2.1195  0.1178 -0.6005
 9627TIP3    H250373   4.591   2.886  16.983 -0.0517  0.2297 -1.2163
 9628TIP3   OH250374   0.455   1.255   2.603 -0.7962 -0.4797 -0.2627
 9628TIP3    H150375   0.397   1.327   2.578 -0.9673 -0.6236 -0.2831
 9628TIP3    H250376   0.400   1.197   2.654 -0.9740 -1.1938 -1.2367
 9629TIP3   OH250377   0.102   2.300   5.199 -0.3886  0.4005 -0.5041
 9629TIP3    H150378   0.197   2.304   5.188 -0.3913 -0.4934 -0.8813
 9629TIP3    H250379   0.070   2.255   5.122 -0.9551 -0.7837  0.3989
 9630TIP3   OH250380   6.479   3.613  11.598  0.2384  0.7233 -0.0940
 9630TIP3    H150381   6.544   3.673  11.561 -2.1389  2.3295 -1.9531
 9630TIP3    H250382   6.475   3.541  11.535  0.3796  0.4856  0.1639
 9631TIP3   OH250383   6.618   2.184   1.062  0.0451 -0.3720  0.2238
 9631TIP3    H150384   6.662   2.267   1.079  3.5739 -2.1680  0.9015
 9631TIP3    H250385   6.590   2.154   1.149 -0.3786 -0.3425  0.1006
 9632TIP3   OH250386   2.562   1.999  16.399 -0.2174  0.0847 -0.4948
 9632TIP3    H150387   2.656   1.984  16.410 -0.4471 -0.1433  1.5789
 9632TIP3    H250388   2.556   2.090  16.369  0.6385  0.5744  0.7399
 9633TIP3   OH250389   4.820   1.134  16.652  0.5268  0.0560  0.2175
 9633TIP3    H150390   4.903   1.125  16.606  0.3733 -0.8297  0.0912
 9633TIP3    H250391   4.828   1.215  16.701  1.6201 -0.2183  0.5219
 9634TIP3   OH250392   4.342   1.520   0.847 -0.3882 -0.4512  0.3081
 9634TIP3    H150393   4.283   1.519   0.772 -0.6507 -1.6800  0.5123
 9634TIP3    H250394   4.406   1.589   0.827 -0.8793 -0.2764 -0.6975
 9635TIP3   OH250395   1.759   6.789  15.064  0.3801  0.1605 -0.3991
 9635TIP3    H150396   1.830   6.844  15.097  0.5999 -1.0732  1.3327
 9635TIP3    H250397   1.683   6.846  15.060  0.8726  0.8701  0.2323
 9636TIP3   OH250398   3.733   1.137  11.529  0.1062  0.2841  0.4661
 9636TIP3    H150399   3.807   1.138  11.468 -0.1944  0.1615  0.0930
 9636TIP3    H250400   3.769   1.168  11.612  0.6513 -0.1008  0.3741
 9637TIP3   OH250401   5.907   1.591   0.000  0.6730 -0.0828 -0.0326
 9637TIP3    H150402   5.897   1.516   0.059 -0.7640  0.0127 -0.1180
 9637TIP3    H250403   5.931   1.664   0.058  1.3229 -0.4290  0.1470
 9638TIP3   OH250404   1.811   0.566   1.557 -0.1414  0.1318  0.3489
 9638TIP3    H150405   1.727   0.587   1.600  0.0353 -1.1950  1.3935
 9638TIP3    H250406   1.786   0.513   1.481 -0.1851 -2.7424  2.2166
 9639TIP3   OH250407   2.171   3.118  12.345  0.2008  0.2668  0.3854
 9639TIP3    H150408   2.216   3.202  12.334  0.0742  0.2752 -0.1008
 9639TIP3    H250409   2.231   3.066  12.398 -0.0194  0.8918  1.2717
 9640TIP3   OH250410   4.981   4.606   5.200  0.4876  0.6757  0.1100
 9640TIP3    H150411   4.982   4.613   5.105  0.1493  0.1416  0.0650
 9640TIP3    H250412   5.074   4.601   5.225  0.5575 -1.0928 -0.3493
 9641TIP3   OH250413   6.796   4.335   0.375  0.0029  0.4590 -0.4345
 9641TIP3    H150414   6.774   4.286   0.454 -1.6214  4.3122  1.7867
 9641TIP3    H250415   6.712   4.367   0.341  0.8635  0.8365 -2.3771
 9642TIP3   OH250416   4.398   5.717  10.400  0.0665  0.0499  0.7092
 9642TIP3    H150417   4.394   5.801  10.445  0.4894 -0.5968  2.0159
 9642TIP3    H250418   4.309   5.681  10.410  0.0223  0.1246  0.5855
 9643TIP3   OH250419   3.864   0.759   1.495  0.2698  0.6170  0.4666
 9643TIP3    H150420   3.771   0.765   1.516  0.6100  1.6865  1.8688
 9643TIP3    H250421   3.887   0.667   1.509 -0.3229  0.5936  1.3096
 9644TIP3   OH250422   4.257   0.378   0.394  0.7294  0.0804 -0.1258
 9644TIP3    H150423   4.315   0.355   0.321  2.4646 -0.2925  1.3126
 9644TIP3    H250424   4.274   0.312   0.460 -3.2626 -1.6193 -0.5119
 9645TIP3   OH250425   6.431   1.754  16.039  0.4379  0.2481 -0.0134
 9645TIP3    H150426   6.455   1.801  15.959  1.4703 -0.4167 -0.1246
 9645TIP3    H250427   6.337   1.741  16.032  0.7677 -1.8028 -2.3027
 9646TIP3   OH250428   4.595   1.203   2.278  0.2195 -0.1371  0.3214
 9646TIP3    H150429   4.586   1.298   2.267 -0.5441  0.3940  4.0723
 9646TIP3    H250430   4.506   1.169   2.270  0.2897 -0.3334  0.3569
 9647TIP3   OH250431   6.015   3.550  14.149 -0.4487 -0.0820 -0.2613
 9647TIP3    H150432   6.050   3.594  14.227  0.3237  0.2797 -0.7973
 9647TIP3    H250433   5.997   3.460  14.178  0.0012 -0.0025  0.2823
 9648TIP3   OH250434   5.442   4.882  14.249  0.4624  0.7682  0.4949
 9648TIP3    H150435   5.522   4.863  14.298  0.6504  1.0693  0.3045
 9648TIP3    H250436   5.373   4.889  14.315  0.7211  1.2094  0.7133
 9649TIP3   OH250437   2.348   0.360  13.851 -0.6167  0.5029  0.0244
 9649TIP3    H150438   2.408   0.287  13.865  1.8536  2.3918 -0.0725
 9649TIP3    H250439   2.290   0.331  13.781  0.1698 -1.4146  0.1139
 9650TIP3   OH250440   2.645   2.893   0.390  0.3157  0.4069 -0.2649
 9650TIP3    H150441   2.584   2.961   0.418  0.2380  0.7751 -1.2639
 9650TIP3    H250442   2.597   2.811   0.404 -0.6436  0.7189 -1.5366
 9651TIP3   OH250443   6.324   4.523  12.261  0.1420  0.3311 -0.0196
 9651TIP3    H150444   6.288   4.601  12.219  0.8703  0.3747 -0.5847
 9651TIP3    H250445   6.300   4.533  12.353  0.1249  1.1645 -0.1000
 9652TIP3   OH250446   3.950   5.191   0.277  0.1049 -0.3331 -0.5988
 9652TIP3    H150447   3.909   5.200   0.363 -1.0213  2.2910 -1.3114
 9652TIP3    H250448   4.043   5.183   0.296 -0.0089  1.2466  0.8893
 9653TIP3   OH250449   4.658   0.591   1.498 -0.3003  0.1973 -0.6018
 9653TIP3    H150450   4.627   0.635   1.419  0.8605  2.4821  0.1266
 9653TIP3    H250451   4.679   0.502   1.469 -1.5931  0.4375 -2.4354
 9654TIP3   OH250452   3.911   0.168   4.160  0.3568 -0.3469  0.2023
 9654TIP3    H150453   3.927   0.209   4.075  1.1837 -0.8172  0.1233
 9654TIP3    H250454   3.820   0.190   4.180  0.8757  1.8825  0.3651
 9655TIP3   OH250455   0.903   6.645  15.343 -0.3731 -0.2400  0.1065
 9655TIP3    H150456   0.825   6.598  15.312 -0.8221  0.0880  0.7184
 9655TIP3    H250457   0.872   6.734  15.361 -0.0311 -0.3088  1.0943
 9656TIP3   OH250458   3.954   2.978  11.187 -0.3017  0.0171  0.1147
 9656TIP3    H150459   3.938   3.051  11.246  1.8880  0.2981  0.4299
 9656TIP3    H250460   3.969   2.903  11.245 -1.6131 -0.5163 -0.1932
 9657TIP3   OH250461   1.532   4.507  12.778 -0.4286 -0.4655 -0.5271
 9657TIP3    H150462   1.559   4.464  12.859 -0.6121 -1.2266 -0.8597
 9657TIP3    H250463   1.551   4.600  12.792 -0.7710 -0.5418  0.5094
 9658TIP3   OH250464   5.382   0.446  11.466 -0.7402  0.3581 -0.3597
 9658TIP3    H150465   5.467   0.408  11.491 -1.3687 -0.0569  1.3234
 9658TIP3    H250466   5.374   0.428  11.373  0.9250  0.2225 -0.5115
 9659TIP3   OH250467   0.467   6.028  16.350  0.0553  1.3579 -0.5417
 9659TIP3    H150468   0.375   6.012  16.372  0.6150 -0.0398  1.0468
 9659TIP3    H250469   0.511   6.034  16.435  1.5225  1.3605 -1.2694
 9660TIP3   OH250470   0.392   5.589   3.761  0.0663 -0.1821 -0.3253
 9660TIP3    H150471   0.388   5.682   3.740 -0.6818 -0.1996 -0.2763
 9660TIP3    H250472   0.485   5.568   3.757  0.3710  0.8433  0.9104
 9661TIP3   OH250473   3.866   0.381   3.348  0.3456 -0.0078 -0.1851
 9661TIP3    H150474   3.864   0.296   3.391  3.3341  0.0187  0.2039
 9661TIP3    H250475   3.797   0.432   3.392  0.8753 -1.1164  2.0605
 9662TIP3   OH250476   0.369   1.749   5.356  0.1866 -0.0897 -0.4320
 9662TIP3    H150477   0.450   1.784   5.318 -0.6532  0.6955 -1.5438
 9662TIP3    H250478   0.309   1.823   5.355 -0.3940 -0.5184  0.8932
 9663TIP3   OH250479   1.694   6.023  11.458 -0.1756  0.2060  0.2275
 9663TIP3    H150480   1.606   5.995  11.482  0.2581 -1.2393  0.1944
 9663TIP3    H250481   1.746   5.943  11.455  0.9273  0.9124 -0.7162
 9664TIP3   OH250482   1.811   3.812   5.086 -0.1785  0.2832  0.2457
 9664TIP3    H150483   1.717   3.813   5.067  0.0978  0.1787 -1.3135
 9664TIP3    H250484   1.820   3.865   5.165 -1.4785  0.7950  0.0843
 9665TIP3   OH250485   2.076   3.257   4.298  0.5619 -0.0215 -0.0647
 9665TIP3    H150486   2.051   3.165   4.302 -1.9418  0.5612 -0.4468
 9665TIP3    H250487   2.114   3.276   4.384 -2.2747 -0.5639  1.4155
 9666TIP3   OH250488   4.691   1.125  15.967  0.4617 -0.5642  0.2660
 9666TIP3    H150489   4.726   1.052  16.019 -1.0142  0.3735  2.7270
 9666TIP3    H250490   4.596   1.119  15.979  0.2691  1.2544 -0.2006
 9667TIP3   OH250491   3.233   6.176  11.732 -0.9336 -0.5009  0.3672
 9667TIP3    H150492   3.221   6.232  11.656 -0.0595  0.7808  1.1405
 9667TIP3    H250493   3.193   6.092  11.707  0.1583 -0.4277 -1.8426
 9668TIP3   OH250494   6.266   4.931  15.265  0.4704 -0.6132  0.0415
 9668TIP3    H150495   6.194   4.992  15.251  0.7353 -0.0709  0.9861
 9668TIP3    H250496   6.226   4.844  15.252 -0.2627 -0.3071  0.1912
 9669TIP3   OH250497   3.072   2.109  13.943 -0.7288  0.2893 -0.2577
 9669TIP3    H150498   3.104   2.198  13.933  0.9226 -0.1518  0.7224
 9669TIP3    H250499   3.151   2.055  13.943 -1.4910 -0.9228  1.6230
 9670TIP3   OH250500   4.453   5.714   1.597 -0.0776  0.5741 -0.2375
 9670TIP3    H150501   4.415   5.642   1.547  2.9989 -0.6571 -0.9846
 9670TIP3    H250502   4.389   5.785   1.588 -3.2097 -1.8962  0.4320
 9671TIP3   OH250503   0.137   0.801   5.445  0.0473 -0.3621 -0.2701
 9671TIP3    H150504   0.229   0.785   5.423 -0.0278 -0.8044 -0.2691
 9671TIP3    H250505   0.103   0.716   5.473 -0.2451 -0.1118  0.1660
 9672TIP3   OH250506   6.428   0.310   0.145  0.2525 -0.2594 -0.3964
 9672TIP3    H150507   6.356   0.258   0.111 -0.0420 -0.4970  0.5796
 9672TIP3    H250508   6.507   0.264   0.116  0.1292  0.9865 -3.0811
 9673TIP3   OH250509   5.214   6.214  13.997 -0.7234  0.1379 -0.2867
 9673TIP3    H150510   5.242   6.303  14.016 -2.1463  0.3923  0.7547
 9673TIP3    H250511   5.120   6.219  13.985 -0.6704 -1.0470 -1.4533
 9674TIP3   OH250512   1.623   0.497  12.839 -0.1590 -0.1491  0.0295
 9674TIP3    H150513   1.599   0.454  12.920  1.2061 -0.4718  0.2933
 9674TIP3    H250514   1.691   0.440  12.801 -2.1087 -1.1031 -2.3618
 9675TIP3   OH250515   5.581   0.723   5.577  0.0617 -0.3431  0.3077
 9675TIP3    H150516   5.623   0.684   5.501  1.1748  0.0355  0.7182
 9675TIP3    H250517   5.556   0.811   5.548  0.7964 -0.0748  0.4805
 9676TIP3   OH250518   0.008   2.185  14.664 -0.1330  0.1970  0.7528
 9676TIP3    H150519  -0.078   2.144  14.672 -0.6863  0.6719 -1.8695
 9676TIP3    H250520  -0.011   2.279  14.666  0.7186  0.3995  2.9894
 9677TIP3   OH250521   6.569   0.045   5.582 -0.5844 -0.5658  0.3301
 9677TIP3    H150522   6.655   0.053   5.542  0.1910  1.2798  2.2163
 9677TIP3    H250523   6.581  -0.020   5.651 -1.5746 -2.6801 -1.3455
 9678TIP3   OH250524   5.076   5.903  16.214  0.4331  0.5036  0.2420
 9678TIP3    H150525   5.068   5.915  16.119 -1.1650 -0.1188  0.2631
 9678TIP3    H250526   5.093   5.809  16.224 -0.4960  0.3622  0.5969
 9679TIP3   OH250527   5.014   0.318  12.755 -0.1044 -0.1577  0.3484
 9679TIP3    H150528   4.940   0.329  12.815  0.8633 -0.6433  1.6984
 9679TIP3    H250529   4.992   0.371  12.679 -1.5346  0.2239  0.9928
 9680TIP3   OH250530   5.428   5.999  13.367 -0.6826 -0.5195 -0.4225
 9680TIP3    H150531   5.396   5.915  13.401  0.5679 -1.7605 -2.2158
 9680TIP3    H250532   5.491   6.029  13.433 -0.2422 -1.5918 -0.3373
 9681TIP3   OH250533   6.548   3.285   4.375  0.5424  0.5444  0.1913
 9681TIP3    H150534   6.535   3.193   4.353 -0.2793  0.6627  0.1449
 9681TIP3    H250535   6.476   3.330   4.331  0.6179  1.1387  0.6701
 9682TIP3   OH250536   6.039   5.706  11.563  0.1694 -0.3242 -0.5901
 9682TIP3    H150537   6.075   5.622  11.594 -0.8018 -0.8742 -0.9081
 9682TIP3    H250538   6.112   5.748  11.518  0.8819 -0.6640  0.2077
 9683TIP3   OH250539   1.875   2.644   5.265 -0.3343 -0.3463 -0.0322
 9683TIP3    H150540   1.831   2.573   5.311 -2.9590  0.2345 -1.4549
 9683TIP3    H250541   1.910   2.605   5.186 -0.4420 -0.3222 -0.0907
 9684TIP3   OH250542   1.384   3.140  12.386  0.1831  0.2099  0.2102
 9684TIP3    H150543   1.369   3.080  12.459 -0.4990 -0.6780 -0.6467
 9684TIP3    H250544   1.478   3.135  12.369  0.0172 -1.2322 -0.3659
 9685TIP3   OH250545   1.066   0.079  12.149  0.0050 -0.1984 -0.1056
 9685TIP3    H150546   1.030   0.005  12.199 -1.0029  1.0257  1.0414
 9685TIP3    H250547   1.122   0.125  12.211  0.2825  0.2648 -0.6906
 9686TIP3   OH250548   6.195   1.178   5.326  0.3253 -0.3429 -0.3872
 9686TIP3    H150549   6.152   1.254   5.287  0.9056 -0.1156 -0.5986
 9686TIP3    H250550   6.144   1.103   5.295 -0.7193 -0.0006  0.4453
 9687TIP3   OH250551   4.748   0.789  12.070 -0.7343  0.4583 -0.5436
 9687TIP3    H150552   4.741   0.867  12.015 -0.0263  0.8578 -0.0766
 9687TIP3    H250553   4.777   0.720  12.010  0.3422  0.9654 -0.6206
 9688TIP3   OH250554   5.009   3.841  16.156 -0.3239  0.1642 -0.0244
 9688TIP3    H150555   5.059   3.921  16.144 -2.8290  1.6423 -1.5011
 9688TIP3    H250556   4.919   3.865  16.136 -1.3155 -2.8931  0.1266
 9689TIP3   OH250557   5.445   2.690  12.878  0.3195 -0.0057  0.0597
 9689TIP3    H150558   5.361   2.666  12.919  0.1284  1.1498  0.3833
 9689TIP3    H250559   5.472   2.769  12.924  1.1582  0.1291 -0.6476
 9690TIP3   OH250560   5.584   3.000   5.170  0.0977 -0.2720  0.2085
 9690TIP3    H150561   5.513   2.995   5.234 -0.2696  1.3949 -0.0266
 9690TIP3    H250562   5.643   3.067   5.205 -1.3036  2.4464 -2.2528
 9691TIP3   OH250563   4.229   0.676   3.038 -0.2571  0.2540  0.5831
 9691TIP3    H150564   4.160   0.733   3.004  0.4872  0.1663 -1.2026
 9691TIP3    H250565   4.182   0.605   3.081 -1.2890  0.4317 -0.2028
 9692TIP3   OH250566   1.204   3.820  16.280 -0.6258  0.1612  0.3956
 9692TIP3    H150567   1.240   3.805  16.192  1.0744  0.0768  1.0834
 9692TIP3    H250568   1.137   3.887  16.266 -0.3262  0.2135 -0.9648
 9693TIP3   OH250569   6.322   2.359   2.219 -0.1291  0.0375  0.5792
 9693TIP3    H150570   6.332   2.454   2.229  1.1180  0.1357 -1.2223
 9693TIP3    H250571   6.343   2.324   2.306 -0.6321  1.3843  1.2819
 9694TIP3   OH250572   0.200   3.653  12.412 -0.1288 -0.5553 -0.1913
 9694TIP3    H150573   0.177   3.661  12.319  1.6750 -0.4309 -0.6623
 9694TIP3    H250574   0.274   3.712  12.423 -1.9041  1.4841  1.9806
 9695TIP3   OH250575   6.044   0.250   3.629 -0.3062  0.1769  0.3238
 9695TIP3    H150576   6.040   0.295   3.545 -0.0733  0.7394  0.6142
 9695TIP3    H250577   6.057   0.319   3.694 -0.9400 -0.2000  0.8745
 9696TIP3   OH250578   3.212   1.076   2.885 -0.2503  0.7760  0.1929
 9696TIP3    H150579   3.185   0.994   2.843  1.8748 -0.5911  1.3061
 9696TIP3    H250580   3.143   1.095   2.948 -1.2177  0.3649 -0.7128
 9697TIP3   OH250581   0.129   4.951  16.658  0.0085  0.4469 -0.2118
 9697TIP3    H150582   0.192   5.019  16.636  0.7543  0.0212  0.5423
 9697TIP3    H250583   0.182   4.881  16.698 -0.9273  0.0505  0.3675
 9698TIP3   OH250584   0.010   2.238  14.120  0.2997 -0.2585 -0.6812
 9698TIP3    H150585  -0.037   2.239  14.203  2.9757  0.8614  0.9534
 9698TIP3    H250586   0.052   2.152  14.117  0.0659 -0.3659 -0.9887
 9699TIP3   OH250587   3.186   3.686  10.656  0.0706 -0.1918 -0.4245
 9699TIP3    H150588   3.183   3.778  10.682  2.2462 -0.7103  2.0646
 9699TIP3    H250589   3.094   3.663  10.637 -0.7401  2.0471  0.4764
 9700TIP3   OH250590   4.192   6.571   2.207  0.6296 -0.4156  0.3070
 9700TIP3    H150591   4.198   6.531   2.293 -0.6097 -1.5085 -0.0721
 9700TIP3    H250592   4.114   6.627   2.212  0.1531 -1.0007 -0.2723
 9701TIP3   OH250593   1.379   2.717  13.028  0.3406 -0.1346  0.2268
 9701TIP3    H150594   1.313   2.780  13.000 -3.0748 -2.2697  2.6960
 9701TIP3    H250595   1.395   2.664  12.950 -0.7477  0.5524 -0.4887
 9702TIP3   OH250596   6.104   4.397  17.012 -0.0102  0.8157  0.8535
 9702TIP3    H150597   6.072   4.328  17.070  0.8915  0.7005  1.2351
 9702TIP3    H250598   6.035   4.463  17.012 -0.8662 -0.0555  0.5236
 9703TIP3   OH250599   3.042   1.588   0.061 -0.1337  0.0806  0.7643
 9703TIP3    H150600   2.998   1.659   0.106 -0.5075 -0.4315  1.2207
 9703TIP3    H250601   3.005   1.508   0.099 -0.7684 -0.3679 -0.7371
 9704TIP3   OH250602   1.409   1.690  16.065  0.4292 -0.2076  0.1078
 9704TIP3    H150603   1.325   1.645  16.068 -0.3845  1.1196 -1.2716
 9704TIP3    H250604   1.473   1.621  16.045 -0.4611 -1.0880  0.2494
 9705TIP3   OH250605   3.762   4.066  16.940  0.2928 -0.1416  0.2575
 9705TIP3    H150606   3.754   4.154  16.902  0.5011 -0.2449 -0.0315
 9705TIP3    H250607   3.690   4.017  16.900  1.1781 -0.5555 -0.8813
 9706TIP3   OH250608   0.185   3.124   5.254 -0.1429 -0.1486  0.0967
 9706TIP3    H150609   0.244   3.098   5.325  0.5101  0.6061 -0.1581
 9706TIP3    H250610   0.231   3.102   5.174  0.8379  2.4730 -0.1631
 9707TIP3   OH250611   6.398   5.511   5.152 -0.0539 -0.3632 -0.1665
 9707TIP3    H150612   6.355   5.426   5.144  0.0692 -0.2477 -2.8392
 9707TIP3    H250613   6.339   5.573   5.110 -0.0835  0.9010  1.6285
 9708TIP3   OH250614   1.216   4.434  12.124  0.4142  0.2930  0.9517
 9708TIP3    H150615   1.138   4.383  12.105  0.8372  0.1606 -0.5280
 9708TIP3    H250616   1.284   4.369  12.141  1.1613  0.2501 -1.7585
 9709TIP3   OH250617   0.362   3.370   5.543  0.1941  0.1561  0.2733
 9709TIP3    H150618   0.384   3.459   5.516 -1.2008  0.7992  1.1300
 9709TIP3    H250619   0.339   3.325   5.462 -0.3907  0.9820 -0.0255
 9710TIP3   OH250620   1.901   4.423  15.321 -0.5676 -0.2807  0.1706
 9710TIP3    H150621   1.946   4.505  15.337  1.2006 -1.3287  0.7656
 9710TIP3    H250622   1.813   4.436  15.358 -0.1430  1.1383  0.7247
 9711TIP3   OH250623   5.051   6.229  12.312  0.0440 -0.2828 -0.0865
 9711TIP3    H150624   5.100   6.151  12.286  0.8351  0.1637  0.0112
 9711TIP3    H250625   5.095   6.259  12.392  0.2314  0.6943 -0.5443
 9712TIP3   OH250626   3.750   2.231  13.245 -0.0425 -0.0946  0.5226
 9712TIP3    H150627   3.660   2.224  13.212 -0.4434  1.4811  1.1864
 9712TIP3    H250628   3.803   2.245  13.166 -0.3803 -0.8760  0.1407
 9713TIP3   OH250629   6.741   3.994   4.756  0.1442  0.1402  0.7156
 9713TIP3    H150630   6.759   3.925   4.819 -1.0121 -1.2594 -0.4190
 9713TIP3    H250631   6.749   3.953   4.670 -1.3721  1.1629  0.0212
 9714TIP3   OH250632   3.519   4.935   0.108 -0.8344 -0.3517 -0.5331
 9714TIP3    H150633   3.555   4.937   0.020 -1.8920  1.1191 -0.9788
 9714TIP3    H250634   3.489   5.025   0.124  0.3709 -0.2777  1.7852
 9715TIP3   OH250635   5.306   1.363   0.786  0.6332  0.0391  0.5957
 9715TIP3    H150636   5.345   1.402   0.708 -1.7029  1.6735  0.1439
 9715TIP3    H250637   5.246   1.296   0.752  0.6077 -0.1726  1.0527
 9716TIP3   OH250638   3.373   3.773  10.935 -0.4635  0.2360 -0.6847
 9716TIP3    H150639   3.334   3.686  10.930 -0.1895  0.1645 -1.7643
 9716TIP3    H250640   3.321   3.826  10.874  1.3517  0.0360 -2.5139
 9717TIP3   OH250641   3.900   6.021   4.956 -0.1955 -0.1038  0.3539
 9717TIP3    H150642   3.847   6.097   4.933 -0.3991 -0.7874 -1.6218
 9717TIP3    H250643   3.837   5.951   4.971  0.0694 -0.3783  0.2009
 9718TIP3   OH250644   4.808   1.321  12.381 -0.1854 -0.1903 -0.3710
 9718TIP3    H150645   4.722   1.360  12.398  0.0962  0.3567 -0.1591
 9718TIP3    H250646   4.797   1.271  12.301 -0.7211 -0.1779 -0.3064
 9719TIP3   OH250647   1.051   4.141   2.105  0.0321 -0.0461  0.2078
 9719TIP3    H150648   1.051   4.157   2.199  3.1429  1.0304  0.1465
 9719TIP3    H250649   1.109   4.065   2.094  0.4633  0.4167 -0.8758
 9720TIP3   OH250650   3.818   3.405  15.917  0.4442  0.0537  0.1066
 9720TIP3    H150651   3.771   3.381  15.997 -0.8093  0.3482 -0.5076
 9720TIP3    H250652   3.770   3.361  15.847  1.8368 -0.6362 -0.4625
 9721TIP3   OH250653   5.772   1.284  14.551 -0.1557 -0.1270 -0.0973
 9721TIP3    H150654   5.864   1.271  14.574 -0.3449 -1.0743  0.1892
 9721TIP3    H250655   5.760   1.231  14.473 -0.6136 -0.5584  0.2568
 9722TIP3   OH250656   0.486   1.244  14.004 -0.2785  0.0098  0.1972
 9722TIP3    H150657   0.457   1.168  14.055  2.7529 -1.4451 -0.0325
 9722TIP3    H250658   0.442   1.234  13.919 -0.2046 -1.3205  0.2923
 9723TIP3   OH250659   2.443   1.910   1.012  0.3701  0.2109 -0.0225
 9723TIP3    H150660   2.422   1.818   1.026 -0.9374  0.3063 -1.1265
 9723TIP3    H250661   2.400   1.956   1.085  0.7349 -0.0175  0.3373
 9724TIP3   OH250662   0.971   1.965   6.463  0.1988 -0.2345 -0.5969
 9724TIP3    H150663   1.009   1.881   6.490 -0.9126 -0.1154  1.5116
 9724TIP3    H250664   1.009   2.029   6.524 -0.8688  0.3850 -0.5593
 9725TIP3   OH250665   0.137   1.984  15.382  0.4494 -0.1992 -0.0262
 9725TIP3    H150666   0.220   1.963  15.339  1.4117 -0.4380  1.8559
 9725TIP3    H250667   0.124   1.914  15.446 -0.4400  0.6299  0.7422
 9726TIP3   OH250668   4.837   0.107  11.592 -0.0022 -0.0265 -0.1390
 9726TIP3    H150669   4.888   0.144  11.521  0.3421  0.5680  0.4133
 9726TIP3    H250670   4.848   0.012  11.582 -0.3312  0.0325 -1.1413
 9727TIP3   OH250671   4.616   6.618   2.960 -0.0064  0.1017  0.5678
 9727TIP3    H150672   4.567   6.668   2.895 -0.7899 -0.1168  0.9829
 9727TIP3    H250673   4.636   6.535   2.916 -0.1378  0.1313  0.4523
 9728TIP3   OH250674   6.653   1.747   2.950 -0.3744 -0.5273 -0.0751
 9728TIP3    H150675   6.648   1.713   3.039 -0.9346 -0.4929 -0.0902
 9728TIP3    H250676   6.667   1.669   2.895  0.9051 -0.4541  0.1165
 9729TIP3   OH250677   6.563   3.377  11.509 -0.6156 -0.1262  0.2231
 9729TIP3    H150678   6.599   3.385  11.421 -1.2443 -0.0580 -0.0368
 9729TIP3    H250679   6.622   3.316  11.554  0.5463  0.9815  0.2281
 9730TIP3   OH250680   6.188   6.440   3.464  0.0507  0.7523 -0.4825
 9730TIP3    H150681   6.231   6.367   3.420  0.1739  1.1104 -0.9678
 9730TIP3    H250682   6.187   6.415   3.556  0.9184  0.5503 -0.5191
 9731TIP3   OH250683   0.862   3.423  12.790 -0.5344 -0.1159 -0.4100
 9731TIP3    H150684   0.819   3.383  12.865 -1.1281 -0.0259 -0.6982
 9731TIP3    H250685   0.890   3.509  12.820  0.7198 -0.7177  0.2068
 9732TIP3   OH250686   2.486   6.561   0.635 -0.7264  0.5498 -0.3169
 9732TIP3    H150687   2.505   6.491   0.698  2.6293  1.1221 -0.5113
 9732TIP3    H250688   2.502   6.642   0.682 -0.6643  1.0643 -1.1929
 9733TIP3   OH250689   6.217   3.351   2.418 -0.1763  0.7643  0.1149
 9733TIP3    H150690   6.184   3.439   2.432 -0.9106  0.6220 -0.6454
 9733TIP3    H250691   6.146   3.305   2.372  0.6863  0.1688 -0.6730
 9734TIP3   OH250692   2.079   6.628  16.044 -0.0616  0.6732 -0.0008
 9734TIP3    H150693   2.011   6.668  16.099  1.6346  2.4368  0.8976
 9734TIP3    H250694   2.156   6.683  16.056  1.2107 -0.5644 -1.9560
 9735TIP3   OH250695   4.511   0.756   2.128 -0.0640  0.2490  0.1260
 9735TIP3    H150696   4.464   0.677   2.154  0.4254 -0.0858  0.0146
 9735TIP3    H250697   4.444   0.812   2.089 -0.5160  0.1139  0.6865
 9736TIP3   OH250698   5.651   0.198  15.124 -0.1921 -0.1851 -0.0758
 9736TIP3    H150699   5.661   0.113  15.166 -0.4777  0.3310  1.0678
 9736TIP3    H250700   5.582   0.241  15.173 -1.2975  0.0473 -1.7554
 9737TIP3   OH250701   6.250   1.792   2.865 -0.3168 -0.0359 -0.0250
 9737TIP3    H150702   6.289   1.806   2.951  0.1653  0.6403 -0.3395
 9737TIP3    H250703   6.309   1.730   2.821 -0.3535 -0.0882  0.0004
 9738TIP3   OH250704   2.417   0.757   3.203 -0.6708 -0.6269  0.2696
 9738TIP3    H150705   2.508   0.748   3.233  0.0002  0.7659 -1.1917
 9738TIP3    H250706   2.425   0.778   3.110 -2.4841 -0.0580  0.2068
 9739TIP3   OH250707   2.740   2.975  17.010  0.1180  0.2837  0.3156
 9739TIP3    H150708   2.835   2.966  17.015 -0.0904 -1.4977  1.9413
 9739TIP3    H250709   2.705   2.895  17.048 -2.0633  0.8336 -0.3494
 9740TIP3   OH250710   0.258   1.409  12.239 -0.0518 -0.2916 -0.3016
 9740TIP3    H150711   0.232   1.489  12.194  0.0624 -0.3755 -0.5173
 9740TIP3    H250712   0.240   1.427  12.331 -0.7897 -0.3139 -0.4356
 9741TIP3   OH250713   3.086   6.222   5.472  0.1974  0.0330  0.0912
 9741TIP3    H150714   3.039   6.166   5.411 -2.6587  0.9742  1.2381
 9741TIP3    H250715   3.051   6.198   5.558  0.2394  2.2418  0.7952
 9742TIP3   OH250716   3.097   6.692   2.345 -0.1308 -0.0951 -0.2541
 9742TIP3    H150717   3.076   6.599   2.343 -0.0176 -0.1916  1.6272
 9742TIP3    H250718   3.189   6.697   2.321  0.1592 -0.5848  0.7353
 9743TIP3   OH250719   6.148   0.076   4.221 -0.0206  0.7144 -0.5190
 9743TIP3    H150720   6.109   0.163   4.234  1.9721  1.9143 -1.8720
 9743TIP3    H250721   6.233   0.082   4.264  0.5240 -0.2341 -1.4268
 9744TIP3   OH250722   3.536   6.097  13.109  0.0906  0.2864  0.2110
 9744TIP3    H150723   3.537   6.014  13.061 -0.1906  1.3431 -1.7599
 9744TIP3    H250724   3.627   6.110  13.136 -0.0028 -1.0128  1.2611
 9745TIP3   OH250725   2.798   4.739  16.430 -0.1283  0.2254 -1.2427
 9745TIP3    H150726   2.848   4.674  16.381 -0.1694  1.1991 -2.6570
 9745TIP3    H250727   2.864   4.793  16.474 -0.0532 -0.1625 -0.8800
 9746TIP3   OH250728   4.321   4.194   3.161  0.1867 -0.1053 -0.1151
 9746TIP3    H150729   4.240   4.186   3.110  0.5742 -1.7842 -0.5086
 9746TIP3    H250730   4.300   4.153   3.245  0.8745 -1.3506 -0.5338
 9747TIP3   OH250731   0.410   6.629  11.146 -0.3658  0.2316  0.3772
 9747TIP3    H150732   0.415   6.691  11.074 -1.4578 -1.2978 -1.1127
 9747TIP3    H250733   0.394   6.544  11.104 -0.6241 -0.7989  2.3933
 9748TIP3   OH250734   4.410   0.185   0.897  0.9374  0.2513 -0.2772
 9748TIP3    H150735   4.402   0.279   0.883 -2.0422  0.0855 -0.1699
 9748TIP3    H250736   4.401   0.173   0.991 -2.7086 -0.2962 -0.5383
 9749TIP3   OH250737   1.700   5.888  15.545 -0.5176  0.5133  0.3730
 9749TIP3    H150738   1.726   5.980  15.546  1.4683  0.0158  0.9324
 9749TIP3    H250739   1.769   5.844  15.596 -1.3587 -1.2869  0.0302
 9750TIP3   OH250740   1.095   0.928   2.622  0.1735  0.0559 -0.4586
 9750TIP3    H150741   1.132   1.014   2.603 -0.6559  0.3795 -0.6453
 9750TIP3    H250742   1.033   0.912   2.552 -1.4483  0.3817  0.8325
 9751TIP3   OH250743   2.293   2.087   1.162 -0.6313  0.1219  0.4965
 9751TIP3    H150744   2.214   2.060   1.210 -0.9548 -0.4619 -0.3482
 9751TIP3    H250745   2.273   2.175   1.131 -0.1344  0.8150  2.0266
 9752TIP3   OH250746   0.904   3.744  11.688 -0.5373 -0.2207 -0.4159
 9752TIP3    H150747   0.881   3.662  11.731  2.1851 -0.3825  1.0089
 9752TIP3    H250748   0.875   3.812  11.749 -1.1082 -0.2164 -0.6928
 9753TIP3   OH250749   4.929   1.420  13.749  0.6543  0.7277 -0.0042
 9753TIP3    H150750   4.871   1.350  13.779  0.6572  0.8677  0.3291
 9753TIP3    H250751   4.889   1.450  13.667  0.8876  0.0494 -0.3838
 9754TIP3   OH250752   3.514   1.293  16.251 -0.2431  0.5811  0.0104
 9754TIP3    H150753   3.586   1.267  16.308  0.0335 -0.3587 -0.7315
 9754TIP3    H250754   3.553   1.357  16.191 -0.8843  2.6991  1.7368
 9755TIP3   OH250755   6.386   4.062   4.813 -0.2322  0.0469  0.0925
 9755TIP3    H150756   6.456   4.003   4.842 -0.6167 -0.5665 -0.2044
 9755TIP3    H250757   6.365   4.114   4.890  0.8534  0.5532  0.0676
 9756TIP3   OH250758   2.954   2.848   5.337 -0.1001  0.1720 -0.1070
 9756TIP3    H150759   2.949   2.938   5.306  0.6507  0.3290  0.2012
 9756TIP3    H250760   2.899   2.798   5.277  2.3052  0.2440 -2.5270
 9757TIP3   OH250761   6.549   2.770  13.456 -0.5613 -0.5941  0.1388
 9757TIP3    H150762   6.499   2.822  13.519  2.2260  1.1288  1.1108
 9757TIP3    H250763   6.518   2.680  13.469 -1.8503  0.0766  2.1480
 9758TIP3   OH250764   2.343   3.708   3.403  0.8093 -0.0398 -0.6079
 9758TIP3    H150765   2.266   3.663   3.368 -0.1033 -0.3170  1.5922
 9758TIP3    H250766   2.331   3.706   3.498  2.0141  2.6101 -0.3036
 9759TIP3   OH250767   0.218   1.996  14.035 -0.4541  0.3507 -0.5107
 9759TIP3    H150768   0.281   1.932  14.003 -1.3420 -0.4630 -0.6893
 9759TIP3    H250769   0.213   1.979  14.129 -0.3466  0.4647 -0.4853
 9760TIP3   OH250770   3.587   5.506  14.812 -0.0404  0.1351  0.1280
 9760TIP3    H150771   3.589   5.586  14.759  0.9763  1.5215  2.1457
 9760TIP3    H250772   3.538   5.530  14.891 -0.3774 -1.4789  0.4442
 9761TIP3   OH250773   4.135   5.298   6.200 -0.3579 -0.1234 -0.0749
 9761TIP3    H150774   4.113   5.377   6.151 -0.1770 -0.3345 -0.5070
 9761TIP3    H250775   4.054   5.248   6.203 -1.0449  0.9958  2.0001
 9762TIP3   OH250776   5.422   1.835  14.361 -0.0765 -0.9691 -0.0414
 9762TIP3    H150777   5.476   1.856  14.437  0.2575 -2.3188  0.1180
 9762TIP3    H250778   5.438   1.742  14.345  1.7708 -0.2753 -3.2533
 9763TIP3   OH250779   2.370   0.892  13.133  0.2062  0.4910 -0.4984
 9763TIP3    H150780   2.435   0.878  13.064  0.9811  2.2916 -0.1924
 9763TIP3    H250781   2.366   0.987  13.143 -0.4368  0.3007  1.4362
 9764TIP3   OH250782   2.293   6.071  14.792  0.1688 -0.5056  0.4180
 9764TIP3    H150783   2.298   6.132  14.866  1.3372  1.8858 -1.4748
 9764TIP3    H250784   2.206   6.087  14.755  1.1734  1.6977 -1.2630
 9765TIP3   OH250785   1.814   1.402  16.136  0.4588  0.6625  0.4829
 9765TIP3    H150786   1.775   1.391  16.049 -0.0914  0.9881  0.6846
 9765TIP3    H250787   1.821   1.496  16.148  1.5031  0.6079  0.3750
 9766TIP3   OH250788   6.387   6.128   5.412  0.3073  0.3349  0.3912
 9766TIP3    H150789   6.402   6.217   5.444 -0.6782  0.2111  1.2401
 9766TIP3    H250790   6.294   6.112   5.426  0.1174 -0.2459 -1.3062
 9767TIP3   OH250791   6.743   2.839   0.026 -0.4260  0.1012 -0.0300
 9767TIP3    H150792   6.817   2.871   0.077  0.0698  2.0803 -1.8555
 9767TIP3    H250793   6.776   2.831  -0.063 -1.6416 -1.8459 -0.3584
 9768TIP3   OH250794   0.205   1.558  12.002  0.2494 -0.0821 -0.3262
 9768TIP3    H150795   0.181   1.521  11.917  1.5017 -0.8380 -0.3743
 9768TIP3    H250796   0.218   1.652  11.985  2.1014 -0.4868 -1.3617
 9769TIP3   OH250797   3.222   2.821  12.851  0.0872 -0.3509 -0.0444
 9769TIP3    H150798   3.277   2.899  12.855 -0.7780  0.2899 -0.3599
 9769TIP3    H250799   3.225   2.795  12.759 -1.1301  0.4296 -0.3202
 9770TIP3   OH250800   1.063   4.406  16.495  0.2662  0.0974  0.4629
 9770TIP3    H150801   1.131   4.423  16.429  0.4063  1.8317  0.9884
 9770TIP3    H250802   1.033   4.493  16.520 -3.6460 -0.5679 -1.1943
 9771TIP3   OH250803   1.356   5.478   1.563  0.2456  0.2874  0.6765
 9771TIP3    H150804   1.270   5.447   1.592  0.7614 -1.3411  0.6101
 9771TIP3    H250805   1.376   5.551   1.621 -0.7489  0.0515  1.3442
 9772TIP3   OH250806   3.618   5.901   3.142  0.1958 -0.0225 -0.2554
 9772TIP3    H150807   3.548   5.965   3.133  1.0070  0.9031 -0.2305
 9772TIP3    H250808   3.698   5.953   3.136  0.9067 -1.1952 -1.6336
 9773TIP3   OH250809   3.351   6.685  15.316 -0.6396  0.4469  0.2016
 9773TIP3    H150810   3.294   6.753  15.281 -1.3358 -1.4142 -2.6424
 9773TIP3    H250811   3.433   6.695  15.267 -0.8312 -0.8439 -0.4279
 9774TIP3   OH250812   4.456   2.944  16.526  0.5627 -0.0405 -0.3077
 9774TIP3    H150813   4.409   2.964  16.446  1.1657  2.5081 -0.0976
 9774TIP3    H250814   4.431   3.014  16.587  2.8904  0.1595  0.5200
 9775TIP3   OH250815   4.602   5.561  13.605  0.3833  0.1004 -0.3023
 9775TIP3    H150816   4.644   5.508  13.672 -0.9973 -2.3092 -1.2024
 9775TIP3    H250817   4.509   5.562  13.630  0.1686  0.8913 -1.0841
 9776TIP3   OH250818   0.085   6.618  15.422  0.6075 -0.2624  0.3080
 9776TIP3    H150819   0.022   6.679  15.382 -0.2309 -1.5580 -0.4192
 9776TIP3    H250820   0.063   6.620  15.516  1.3109  1.3370  0.4750
 9777TIP3   OH250821   4.857   1.685  15.413  0.4956  0.9574  0.1630
 9777TIP3    H150822   4.933   1.685  15.354 -1.2260 -1.9509 -2.3858
 9777TIP3    H250823   4.872   1.611  15.471  0.2906  1.2806  0.6312
 9778TIP3   OH250824   3.105   1.571   3.312 -0.2671 -0.3368  0.1186
 9778TIP3    H150825   3.142   1.483   3.307  2.1868  0.4537  2.2359
 9778TIP3    H250826   3.120   1.608   3.224 -0.3532 -1.6522 -0.4666
 9779TIP3   OH250827   3.511   0.398   0.536  0.2706  0.0597  0.5501
 9779TIP3    H150828   3.559   0.317   0.517 -0.8597 -0.3933 -0.5445
 9779TIP3    H250829   3.572   0.451   0.588  0.9412 -1.5998  1.5402
 9780TIP3   OH250830   0.705   3.882  13.995  0.1082  0.1501  0.2617
 9780TIP3    H150831   0.735   3.839  14.075  1.1504  1.1289  0.4200
 9780TIP3    H250832   0.703   3.812  13.929 -0.7747 -0.6597  1.1268
 9781TIP3   OH250833   1.600   0.291  13.099 -0.5349  0.2914 -0.2325
 9781TIP3    H150834   1.620   0.369  13.151 -2.0351  0.7347 -0.2787
 9781TIP3    H250835   1.511   0.268  13.122 -0.1526 -1.3983 -0.2776
 9782TIP3   OH250836   5.807   6.050  15.324  0.5256 -0.1791  0.2341
 9782TIP3    H150837   5.773   5.969  15.286 -0.9996  0.6929 -0.3526
 9782TIP3    H250838   5.814   6.031  15.417  0.6691 -1.1466  0.0381
 9783TIP3   OH250839   4.261   5.677  12.473  0.0864  0.4444 -0.6146
 9783TIP3    H150840   4.319   5.674  12.549 -1.6575 -0.7487  0.7430
 9783TIP3    H250841   4.307   5.627  12.405  0.7433 -0.2976  0.3518
 9784TIP3   OH250842   1.094   6.697  13.334 -0.2844  0.3021  0.2581
 9784TIP3    H150843   1.146   6.735  13.406 -1.1289  1.3499  0.3297
 9784TIP3    H250844   1.074   6.609  13.364  2.0747 -0.4419 -0.0909
 9785TIP3   OH250845   4.035   3.847  15.416 -0.2704  0.1951 -0.5692
 9785TIP3    H150846   4.071   3.936  15.417 -1.2262  0.5857  0.0850
 9785TIP3    H250847   4.024   3.825  15.509 -0.3305 -0.4851 -0.7361
 9786TIP3   OH250848   5.322   2.532  13.629  0.0077  1.2791  0.4738
 9786TIP3    H150849   5.312   2.446  13.671  0.4668  1.4873  1.0123
 9786TIP3    H250850   5.233   2.569  13.630  0.1143  1.5547  1.8634
 9787TIP3   OH250851   5.571   2.956  15.716 -0.0067 -0.0384 -0.4455
 9787TIP3    H150852   5.496   2.991  15.669  1.0487  0.9111 -1.5152
 9787TIP3    H250853   5.642   2.956  15.651  0.4993 -2.6302 -0.0140
 9788TIP3   OH250854   1.287   4.580  11.922 -0.8203 -0.0699  0.0074
 9788TIP3    H150855   1.274   4.540  12.008 -2.2386  1.8513  0.7601
 9788TIP3    H250856   1.204   4.566  11.876 -0.2931 -0.5206 -0.8425
 9789TIP3   OH250857   0.469   0.553   3.869  0.2160  0.2381 -0.5764
 9789TIP3    H150858   0.392   0.547   3.813  1.2432  0.1101 -2.0414
 9789TIP3    H250859   0.481   0.647   3.884  0.6233  0.3607 -1.6016
 9790TIP3   OH250860   3.407   3.365   0.599 -0.1850  0.1020  0.3917
 9790TIP3    H150861   3.445   3.289   0.642  0.0545  1.4305  2.6788
 9790TIP3    H250862   3.324   3.381   0.644  0.2694  1.8002  0.7236
 9791TIP3   OH250863   4.393   2.669  15.432  0.0590  0.5023 -0.2514
 9791TIP3    H150864   4.431   2.597  15.381 -1.6744 -1.0083  0.5146
 9791TIP3    H250865   4.402   2.745  15.374  1.1241 -0.4860 -1.4595
 9792TIP3   OH250866   6.508   0.420   4.596  0.0583 -0.0305 -0.0386
 9792TIP3    H150867   6.484   0.490   4.658  1.3754  1.0133 -0.6614
 9792TIP3    H250868   6.598   0.397   4.620 -0.7293 -2.4065  0.9182
 9793TIP3   OH250869   5.593   3.970   5.484  0.1499 -0.3681 -0.7254
 9793TIP3    H150870   5.630   3.882   5.485  1.2984  0.0859 -1.1373
 9793TIP3    H250871   5.500   3.958   5.505  0.9035 -1.3403  2.6232
 9794TIP3   OH250872   3.546   5.180   3.170  0.0757 -0.2698 -0.7838
 9794TIP3    H150873   3.524   5.124   3.245  0.1856 -0.3163 -0.7874
 9794TIP3    H250874   3.602   5.248   3.207  2.7651 -2.0155 -1.3613
 9795TIP3   OH250875   6.694   2.013   3.358  0.2287  0.0949  0.4483
 9795TIP3    H150876   6.621   2.074   3.365 -1.6258 -2.0814  1.1533
 9795TIP3    H250877   6.700   1.995   3.264  0.5396  1.0037  0.2771
 9796TIP3   OH250878   4.485   3.798  13.477  0.4805  0.0511  0.4565
 9796TIP3    H150879   4.440   3.855  13.416  1.2358  0.1879  0.0109
 9796TIP3    H250880   4.421   3.729  13.498 -0.3090  0.8573  0.7313
 9797TIP3   OH250881   1.596   4.291   4.805 -0.2259  0.1375 -0.1593
 9797TIP3    H150882   1.625   4.201   4.820  2.0736  0.6321 -1.1832
 9797TIP3    H250883   1.506   4.282   4.772  0.0039 -1.7957 -0.3937
 9798TIP3   OH250884   4.473   4.740   0.771 -0.1896  0.1548 -0.1560
 9798TIP3    H150885   4.452   4.830   0.748  1.7793  0.1523 -2.2069
 9798TIP3    H250886   4.533   4.710   0.703  1.7557 -1.6767  2.1814
 9799TIP3   OH250887   4.281   6.102  12.020 -0.0531  0.5137  0.1168
 9799TIP3    H150888   4.240   6.143  11.944  2.7441  2.3650 -0.5503
 9799TIP3    H250889   4.333   6.031  11.984  0.2476  0.5525  0.4716
 9800TIP3   OH250890   4.302   4.805   3.920  0.5465  0.7073  0.0234
 9800TIP3    H150891   4.299   4.728   3.978  3.2120 -0.1084 -0.7828
 9800TIP3    H250892   4.359   4.867   3.966  1.4736  0.6487 -1.0111
 9801TIP3   OH250893   2.045   0.736  12.173  0.1907  0.1622 -0.0969
 9801TIP3    H150894   2.004   0.759  12.257 -0.8803 -0.9290 -0.3004
 9801TIP3    H250895   2.099   0.660  12.193  0.4076  0.2633 -0.2897
 9802TIP3   OH250896   3.324   2.137   5.843 -0.1595 -0.3666  0.0121
 9802TIP3    H150897   3.255   2.076   5.815 -1.9949  0.9080  1.4887
 9802TIP3    H250898   3.404   2.101   5.805 -1.5308 -2.2289 -1.3456
 9803TIP3   OH250899   6.365   3.321  15.591 -0.0096  0.2987 -0.0127
 9803TIP3    H150900   6.302   3.320  15.519 -1.0430 -0.0958  0.8699
 9803TIP3    H250901   6.441   3.272  15.558  0.3430  1.7342 -1.4969
 9804TIP3   OH250902   6.301   5.264   5.194 -0.0561  0.1828 -0.1338
 9804TIP3    H150903   6.214   5.301   5.185  0.2734  1.3044  0.9705
 9804TIP3    H250904   6.296   5.179   5.151 -2.1586 -0.5169  1.3434
 9805TIP3   OH250905   0.792   3.726  13.461 -0.1022 -0.5121 -0.1430
 9805TIP3    H150906   0.724   3.686  13.406 -0.7394 -0.4749  0.5981
 9805TIP3    H250907   0.760   3.814  13.478  0.6051 -0.1619 -0.5718
 9806TIP3   OH250908   2.998   6.247   2.781  0.3623 -0.4912 -0.1276
 9806TIP3    H150909   3.084   6.289   2.791  0.4533 -0.7628  0.2452
 9806TIP3    H250910   2.953   6.266   2.863  0.4058 -1.1235  0.0509
 9807TIP3   OH250911   4.851   3.787   6.408 -0.1998  0.0157  0.2294
 9807TIP3    H150912   4.945   3.795   6.425 -0.0273 -1.1228 -0.1162
 9807TIP3    H250913   4.842   3.810   6.315 -0.3378  0.5725  0.3751
 9808TIP3   OH250914   3.733   6.726   2.992  0.0488 -0.1290 -0.0999
 9808TIP3    H150915   3.681   6.777   2.931  1.3331  1.6780  0.2500
 9808TIP3    H250916   3.787   6.790   3.038  0.3655 -1.6108  1.7197
 9809TIP3   OH250917   2.117   4.815  15.759 -0.3665  0.3787  0.4091
 9809TIP3    H150918   2.211   4.801  15.770 -0.4121  0.3625  0.7966
 9809TIP3    H250919   2.108   4.909  15.746 -0.3426  0.4561  0.9149
 9810TIP3   OH250920   3.325   4.734  11.447  0.6243  0.2632  0.0908
 9810TIP3    H150921   3.272   4.805  11.481  1.3822  0.8000  0.1804
 9810TIP3    H250922   3.388   4.776  11.389  1.4254 -0.2606  0.5561
 9811TIP3   OH250923   0.672   5.049  13.815 -0.4302 -0.0584 -0.4027
 9811TIP3    H150924   0.585   5.046  13.774 -0.8548 -1.9641  0.5301
 9811TIP3    H250925   0.678   5.138  13.850 -2.1657  0.0060 -0.1495
 9812TIP3   OH250926   6.424   5.776  14.670  0.2183 -0.1101  0.1403
 9812TIP3    H150927   6.356   5.728  14.718 -0.6081  0.5690 -0.3372
 9812TIP3    H250928   6.382   5.858  14.645  0.7066 -0.3427 -1.5218
 9813TIP3   OH250929   0.755   2.209  12.763 -0.1978  0.4105 -0.0499
 9813TIP3    H150930   0.808   2.270  12.814 -2.4178  3.3327 -0.9439
 9813TIP3    H250931   0.813   2.136  12.745  2.6270  2.1668  1.2758
 9814TIP3   OH250932   4.742   3.925   1.729  0.0495 -0.2092 -0.0836
 9814TIP3    H150933   4.725   3.984   1.656 -0.6268 -0.4303 -0.1142
 9814TIP3    H250934   4.665   3.933   1.785  0.7016  0.1914  0.7763
 9815TIP3   OH250935   1.576   2.399   4.158  0.1909 -0.2496 -0.2103
 9815TIP3    H150936   1.539   2.453   4.088 -1.8073 -0.9082  0.2833
 9815TIP3    H250937   1.670   2.418   4.155 -0.3141  2.6349 -0.5511
 9816TIP3   OH250938   1.781   1.461   1.979  0.2623  0.0019 -0.0542
 9816TIP3    H150939   1.850   1.397   1.963  1.1912  1.1661 -1.0046
 9816TIP3    H250940   1.700   1.411   1.978  1.0614 -1.3565  0.7644
 9817TIP3   OH250941   5.952   3.225   6.409 -0.4809 -0.8805  0.1053
 9817TIP3    H150942   5.969   3.153   6.469 -1.2634 -0.9603  0.2511
 9817TIP3    H250943   6.028   3.227   6.351 -0.3624 -1.7026  0.2176
 9818TIP3   OH250944   3.935   3.866   0.404  0.6587 -0.1173 -0.0070
 9818TIP3    H150945   3.938   3.902   0.492 -0.5689  1.4366 -0.5709
 9818TIP3    H250946   3.842   3.859   0.383  0.8773 -2.2068 -0.5257
 9819TIP3   OH250947   6.314   3.742   0.088 -0.0380 -0.0853  0.4721
 9819TIP3    H150948   6.317   3.837   0.092 -1.7333  0.0606 -0.4282
 9819TIP3    H250949   6.343   3.721  -0.001  1.7636 -0.5386  1.1398
 9820TIP3   OH250950   1.623   5.663  14.556 -0.1478  0.1379 -0.5338
 9820TIP3    H150951   1.704   5.676  14.605 -0.6781  0.2815  0.3347
 9820TIP3    H250952   1.635   5.580  14.510  0.0150 -0.4850  0.5934
 9821TIP3   OH250953   2.533   1.945  12.774  0.0102 -0.6385 -0.2897
 9821TIP3    H150954   2.573   1.991  12.700  0.4325  0.6421  0.7103
 9821TIP3    H250955   2.576   1.981  12.852 -1.1220 -1.2441  0.6549
 9822TIP3   OH250956   0.758   2.348   1.623  0.7152  0.3310  0.1939
 9822TIP3    H150957   0.840   2.372   1.665 -0.0367  0.4400  1.6735
 9822TIP3    H250958   0.690   2.387   1.679 -0.3352  0.9437 -1.4323
 9823TIP3   OH250959   3.991   4.124   0.905 -0.7981 -0.0468  0.1914
 9823TIP3    H150960   4.054   4.052   0.911 -0.3855  0.2739 -0.2148
 9823TIP3    H250961   4.045   4.203   0.908 -1.2220  0.2437  0.3062
 9824TIP3   OH250962   0.399   5.941  10.817 -0.2940 -0.2056  0.4797
 9824TIP3    H150963   0.464   5.875  10.842  2.0018  1.1288 -1.4843
 9824TIP3    H250964   0.431   6.022  10.856 -1.2891  0.3231  0.2320
 9825TIP3   OH250965   0.157   4.928   5.942 -0.4652 -0.0617  0.0664
 9825TIP3    H150966   0.135   4.856   6.001 -0.3568 -0.2332 -0.1007
 9825TIP3    H250967   0.221   4.891   5.881  0.5240  0.5111  0.7359
 9826TIP3   OH250968   0.654   5.812  13.133  0.2328 -0.1099 -0.7149
 9826TIP3    H150969   0.624   5.731  13.092 -1.5291 -0.8328  1.7924
 9826TIP3    H250970   0.750   5.804  13.133  0.0955 -2.6960  0.3375
 9827TIP3   OH250971   2.782   1.279   2.133  0.0206  0.0919 -0.2700
 9827TIP3    H150972   2.749   1.274   2.044  1.1918 -0.2439 -0.7010
 9827TIP3    H250973   2.872   1.312   2.124  0.6317 -1.2247  0.6591
 9828TIP3   OH250974   6.098   1.493   1.347  1.4437 -0.1993 -0.1580
 9828TIP3    H150975   6.037   1.478   1.419 -0.0190 -0.9077 -1.4631
 9828TIP3    H250976   6.064   1.571   1.302  1.8331 -0.2702 -0.5887
 9829TIP3   OH250977   4.493   6.070  12.970  0.0296 -0.4471  0.1350
 9829TIP3    H150978   4.582   6.042  12.947 -0.3770 -1.0857 -0.6805
 9829TIP3    H250979   4.490   6.162  12.943  1.3623  0.5139  2.8143
 9830TIP3   OH250980   6.183   1.641   0.401  0.3826 -0.1183  0.5612
 9830TIP3    H150981   6.199   1.583   0.476 -1.1839 -1.0013  0.2474
 9830TIP3    H250982   6.118   1.595   0.349 -2.1218  2.5653  1.0691
 9831TIP3   OH250983   3.591   4.375   2.119  0.2446  0.0321  0.2552
 9831TIP3    H150984   3.607   4.340   2.031 -0.6716  0.0882  0.0598
 9831TIP3    H250985   3.529   4.313   2.158 -0.4342  0.7562  0.3484
 9832TIP3   OH250986   2.905   5.520  13.145  0.3319  0.3234 -0.8606
 9832TIP3    H150987   2.894   5.611  13.173  1.3066  0.2634 -0.2540
 9832TIP3    H250988   2.829   5.474  13.180  1.1924  0.3781  1.1714
 9833TIP3   OH250989   0.587   4.711   0.479  0.5825  0.7515 -0.2157
 9833TIP3    H150990   0.606   4.630   0.431  0.3346  0.3490  0.3640
 9833TIP3    H250991   0.651   4.773   0.446 -0.5836  0.9625 -2.2800
 9834TIP3   OH250992   3.666   2.606  14.431  0.4377 -0.0239  0.4146
 9834TIP3    H150993   3.672   2.523  14.384  0.8727  1.1379 -1.7244
 9834TIP3    H250994   3.757   2.635  14.440  0.2336  0.6934  0.2257
 9835TIP3   OH250995   5.660   5.940   0.144 -0.0153  0.2063 -0.2493
 9835TIP3    H150996   5.646   5.986   0.062  2.1330  0.5310 -0.4769
 9835TIP3    H250997   5.753   5.951   0.163 -0.1593 -1.0949  1.4885
 9836TIP3   OH250998   0.175   2.843   2.818 -0.1445 -0.4665  0.7870
 9836TIP3    H150999   0.218   2.824   2.735 -1.9816 -1.1880 -0.0489
 9836TIP3    H251000   0.230   2.800   2.884  0.8755 -0.6135 -0.1287
 9837TIP3   OH251001   1.088   5.477  14.789 -0.4158  0.2537  0.3079
 9837TIP3    H151002   1.059   5.386  14.785  1.6766 -0.5463  1.3927
 9837TIP3    H251003   1.026   5.525  14.735 -0.5777 -2.0988 -1.7681
 9838TIP3   OH251004   1.282   5.193  14.428  0.5550  0.4010 -0.4121
 9838TIP3    H151005   1.314   5.141  14.354 -2.7652  1.6706 -3.0156
 9838TIP3    H251006   1.310   5.283  14.408  0.0747  0.6839  0.1526
 9839TIP3   OH251007   1.624   5.431   5.875  0.9463  0.3193  0.3164
 9839TIP3    H151008   1.612   5.413   5.782  1.5420  0.1045  0.2796
 9839TIP3    H251009   1.589   5.353   5.919 -1.9051  1.5362  0.4173
 9840TIP3   OH251010   1.663   3.686  13.263  0.3716 -0.0534 -0.0248
 9840TIP3    H151011   1.707   3.610  13.226 -0.0276 -0.1531 -0.3067
 9840TIP3    H251012   1.580   3.651  13.297  1.3365 -0.2564  2.3386
 9841TIP3   OH251013   0.914   1.398   2.164  0.0643  0.3375 -0.2048
 9841TIP3    H151014   0.988   1.399   2.224  0.2905 -1.3745 -0.4034
 9841TIP3    H251015   0.910   1.486   2.128 -0.0497  1.4086  2.2654
 9842TIP3   OH251016   4.873   5.540   0.410  0.0334  0.5100 -0.4541
 9842TIP3    H151017   4.900   5.590   0.333  0.0367  1.7697  0.3439
 9842TIP3    H251018   4.949   5.540   0.468 -0.0065 -0.3277 -0.3846
 9843TIP3   OH251019   0.944   1.997  12.813 -0.3039  0.0508 -0.2570
 9843TIP3    H151020   0.961   1.917  12.763  0.9513 -0.2944  0.6737
 9843TIP3    H251021   0.950   1.970  12.904 -0.7374  1.0440  0.0794
 9844TIP3   OH251022   1.596   6.504   1.062 -0.3551 -0.4362 -0.3093
 9844TIP3    H151023   1.631   6.582   1.018  1.1029 -1.6792 -1.4515
 9844TIP3    H251024   1.603   6.524   1.155 -0.5573  1.0066 -0.5780
 9845TIP3   OH251025   5.167   4.520  12.285  0.0409  0.3239 -0.3640
 9845TIP3    H151026   5.205   4.577  12.218  0.3526 -0.0029 -0.4720
 9845TIP3    H251027   5.094   4.477  12.241  0.5433 -0.2530 -0.6456
 9846TIP3   OH251028   0.793   2.591   2.707  0.4489 -0.2801 -0.5556
 9846TIP3    H151029   0.856   2.647   2.662 -1.4633  1.8617 -0.7522
 9846TIP3    H251030   0.767   2.641   2.784 -1.7340 -0.6226 -1.0122
 9847TIP3   OH251031   1.224   1.921  14.591  0.4411 -0.0727  0.2945
 9847TIP3    H151032   1.316   1.920  14.567  0.6911 -0.5407  1.2003
 9847TIP3    H251033   1.178   1.947  14.512  1.3576  0.2534 -0.1408
 9848TIP3   OH251034   1.028   1.678   3.926 -0.1252 -0.3410 -0.1002
 9848TIP3    H151035   1.033   1.735   4.003  1.7442  0.8660 -1.0445
 9848TIP3    H251036   0.957   1.717   3.873 -0.8473 -0.6777  0.6016
 9849TIP3   OH251037   6.498   0.403   3.159  0.3308 -0.1757 -0.0132
 9849TIP3    H151038   6.527   0.467   3.224 -0.9147  0.3043  0.1070
 9849TIP3    H251039   6.476   0.325   3.211  1.3974 -0.5541 -0.1093
 9850TIP3   OH251040   3.038   4.480   0.397 -0.9439 -0.1911  0.3383
 9850TIP3    H151041   3.015   4.411   0.335 -1.0457 -0.8241  1.0652
 9850TIP3    H251042   3.105   4.531   0.351 -1.1696 -0.5134 -0.3734
 9851TIP3   OH251043   0.636   6.275  15.141 -0.0810 -0.0569 -0.4517
 9851TIP3    H151044   0.591   6.273  15.057 -1.4715  2.5274  0.1340
 9851TIP3    H251045   0.576   6.230  15.201  0.3001 -0.7004 -0.5344
 9852TIP3   OH251046   1.440   5.770   2.783  0.2179 -1.2847 -0.3609
 9852TIP3    H151047   1.460   5.810   2.867  1.7831 -1.2064 -0.7348
 9852TIP3    H251048   1.345   5.782   2.772  0.4275  1.3196  0.0549
 9853TIP3   OH251049   0.410   4.535  11.671 -0.0140 -0.2489  0.3560
 9853TIP3    H151050   0.393   4.494  11.756  0.2281 -0.3654  0.3487
 9853TIP3    H251051   0.323   4.555  11.636 -0.0896  0.5951  1.0159
 9854TIP3   OH251052   4.696   6.626   0.770 -0.1073  0.2675 -0.0676
 9854TIP3    H151053   4.786   6.621   0.803 -0.4780  1.3334  1.1994
 9854TIP3    H251054   4.662   6.709   0.805 -0.8612  1.0474 -2.4368
 9855TIP3   OH251055   0.556   0.582  16.373  0.3489  0.0523 -0.3288
 9855TIP3    H151056   0.605   0.648  16.323  2.3790 -1.3470 -0.3186
 9855TIP3    H251057   0.509   0.533  16.306 -0.5694  0.9907 -0.4037
 9856TIP3   OH251058   2.064   6.671  14.392 -0.0806  0.1333 -0.0167
 9856TIP3    H151059   2.118   6.727  14.336  1.4455 -1.0658  0.1668
 9856TIP3    H251060   2.020   6.612  14.330 -2.7330  2.2624 -0.3247
 9857TIP3   OH251061   3.719   5.468   1.938  0.3549  0.0568 -0.5585
 9857TIP3    H151062   3.634   5.480   1.980  0.2244 -0.2942 -0.7173
 9857TIP3    H251063   3.725   5.540   1.875 -0.1463 -0.3170 -1.0583
 9858TIP3   OH251064   2.825   5.841   3.898  0.1222  0.7913  0.6718
 9858TIP3    H151065   2.782   5.926   3.904  1.5477  1.4691  2.5859
 9858TIP3    H251066   2.915   5.862   3.873 -0.0514 -0.3910 -1.1024
 9859TIP3   OH251067   5.073   1.026   4.438 -0.2974 -0.1606 -0.2410
 9859TIP3    H151068   5.130   0.983   4.503  0.0344 -0.2512 -0.5906
 9859TIP3    H251069   4.986   0.993   4.458 -0.3125  0.3521  0.6137
 9860TIP3   OH251070   5.846   6.705  14.129 -0.6480  0.1460  0.1121
 9860TIP3    H151071   5.880   6.770  14.191  0.7812 -2.2627  2.0336
 9860TIP3    H251072   5.769   6.669  14.172 -2.0042  1.1226 -1.3724
 9861TIP3   OH251073   1.581   3.964  15.120 -0.2465  0.3026 -0.1015
 9861TIP3    H151074   1.510   4.027  15.132  0.0439  0.9587 -1.5611
 9861TIP3    H251075   1.647   3.989  15.185 -0.2518  1.3498 -0.4858
 9862TIP3   OH251076   2.376   0.006   3.553 -0.0266 -0.2356 -0.4137
 9862TIP3    H151077   2.353  -0.084   3.577  0.1931 -1.0240 -2.8509
 9862TIP3    H251078   2.301   0.059   3.579  0.6233 -0.6949  2.8996
 9863TIP3   OH251079   1.958   0.507  15.273 -0.5527 -0.2266 -0.5621
 9863TIP3    H151080   2.013   0.428  15.272  2.3961  1.6357  0.1153
 9863TIP3    H251081   1.904   0.498  15.351  2.2570 -0.1513  1.5585
 9864TIP3   OH251082   6.034   2.365  15.676  0.0276 -0.3042  0.4170
 9864TIP3    H151083   6.050   2.283  15.723  0.4930  0.2486  1.2409
 9864TIP3    H251084   6.029   2.431  15.744 -2.5664  0.0748 -0.0369
 9865TIP3   OH251085   4.466   2.139  13.939 -0.2052  0.2531  0.2154
 9865TIP3    H151086   4.445   2.230  13.917 -0.4201  0.1979  0.1844
 9865TIP3    H251087   4.507   2.144  14.025 -0.3634  0.3652  0.2857
 9866TIP3   OH251088   5.606   5.535  13.559 -0.5133 -0.0152 -0.4374
 9866TIP3    H151089   5.595   5.449  13.518  0.1172 -0.5777  0.5432
 9866TIP3    H251090   5.517   5.562  13.582 -0.7007 -0.4747 -0.6198
 9867TIP3   OH251091   3.553   0.634  17.194 -0.0599  0.7302 -0.1088
 9867TIP3    H151092   3.550   0.727  17.172 -2.4414  0.9493  0.8226
 9867TIP3    H251093   3.642   0.620  17.227 -0.6310  3.5921  3.2376
 9868TIP3   OH251094   0.294   3.199  15.679  0.1517 -0.4313  0.3292
 9868TIP3    H151095   0.355   3.195  15.753  0.7488  0.0244 -0.1371
 9868TIP3    H251096   0.210   3.170  15.717  0.6368 -1.0389  0.9781
 9869TIP3   OH251097   5.256   4.874   5.732  0.2648 -0.0013  0.1669
 9869TIP3    H151098   5.195   4.885   5.659  0.4515 -0.8294 -0.1245
 9869TIP3    H251099   5.304   4.957   5.736 -2.0014  1.3517  1.4882
 9870TIP3   OH251100   6.156   3.288  17.199 -0.0750  0.7428  0.1183
 9870TIP3    H151101   6.229   3.302  17.259  0.1765  0.6662 -0.1613
 9870TIP3    H251102   6.101   3.223  17.242 -0.5928  1.6502  0.8512
 9871TIP3   OH251103   6.809   2.688   2.989  0.1099 -0.1755  0.2194
 9871TIP3    H151104   6.862   2.764   2.966 -2.0691  1.3545 -0.0988
 9871TIP3    H251105   6.739   2.724   3.044  0.0348 -2.2792  1.6120
 9872TIP3   OH251106   4.250   0.912   4.906 -0.0489 -0.0436 -0.5367
 9872TIP3    H151107   4.212   0.986   4.952  1.0243  0.0369  0.2593
 9872TIP3    H251108   4.326   0.949   4.861  0.2157 -0.5649 -0.5237
 9873TIP3   OH251109   5.169   1.127   4.184 -0.2592 -0.0552 -0.2604
 9873TIP3    H151110   5.109   1.197   4.159 -0.4690 -0.7112 -1.6973
 9873TIP3    H251111   5.127   1.085   4.260 -1.9368 -0.8520 -1.5669
 9874TIP3   OH251112   3.177   3.878   5.733 -0.1783  0.3932  0.3403
 9874TIP3    H151113   3.097   3.860   5.782 -0.9421 -0.5092 -1.1563
 9874TIP3    H251114   3.244   3.826   5.777 -1.0327 -1.0975 -0.0322
 9875TIP3   OH251115   2.279   1.760   3.744 -0.4212 -0.5164  0.0975
 9875TIP3    H151116   2.230   1.843   3.743 -0.4672 -0.5290  0.8033
 9875TIP3    H251117   2.213   1.694   3.764 -0.9715 -1.1544 -3.2423
 9876TIP3   OH251118   4.668   6.113  12.209 -0.1331 -0.6268  0.2852
 9876TIP3    H151119   4.678   6.018  12.203 -0.9882 -0.7270  0.3064
 9876TIP3    H251120   4.599   6.125  12.274 -0.6196 -0.0200 -0.3396
 9877TIP3   OH251121   4.000   1.772  13.358  0.7393  0.0170  0.3758
 9877TIP3    H151122   3.956   1.847  13.318 -2.5085 -1.0619  1.6112
 9877TIP3    H251123   4.012   1.710  13.286  1.4211  0.8086 -0.2139
 9878TIP3   OH251124   2.681   1.184  12.397 -0.5302 -0.0577  0.0009
 9878TIP3    H151125   2.662   1.091  12.409  0.7661 -0.3403  0.0001
 9878TIP3    H251126   2.717   1.191  12.309 -1.0604  0.5266 -0.1771
 9879TIP3   OH251127   5.475   3.265   3.865 -0.1561 -0.2350  0.1744
 9879TIP3    H151128   5.521   3.246   3.783 -1.2447 -1.2050 -0.2408
 9879TIP3    H251129   5.389   3.225   3.854 -1.4700  2.3057  0.5692
 9880TIP3   OH251130   3.132   0.165   2.952 -0.2001 -0.0400  0.0402
 9880TIP3    H151131   3.053   0.114   2.967 -0.6816  0.3588 -1.0271
 9880TIP3    H251132   3.141   0.220   3.030 -1.5179  0.5960 -0.2240
 9881TIP3   OH251133   4.690   3.116   3.881 -0.5371 -0.2553  0.2557
 9881TIP3    H151134   4.642   3.188   3.840  1.9697  1.1387 -0.4152
 9881TIP3    H251135   4.778   3.122   3.845 -0.5920 -4.8054 -1.2195
 9882TIP3   OH251136   5.903   2.406   3.484 -0.4147 -0.4542 -0.2769
 9882TIP3    H151137   5.830   2.466   3.468  0.3343  0.5482 -0.0607
 9882TIP3    H251138   5.917   2.410   3.579  0.2752 -0.2034 -0.3849
 9883TIP3   OH251139   1.397   2.447   3.799  0.5559 -0.4859 -0.2821
 9883TIP3    H151140   1.368   2.538   3.804 -0.4624 -0.6531 -2.1035
 9883TIP3    H251141   1.488   2.449   3.829  1.3429  1.5815 -2.4631
 9884TIP3   OH251142   5.062   3.794   0.591  0.3370  0.6059 -0.2176
 9884TIP3    H151143   4.997   3.731   0.623 -0.8985  1.4676 -0.9289
 9884TIP3    H251144   5.054   3.868   0.650 -0.2408  1.2210 -1.0377
 9885TIP3   OH251145   2.053   2.585  15.802  0.2770 -0.8300 -0.6705
 9885TIP3    H151146   1.972   2.627  15.774 -0.9676 -1.9688  0.9823
 9885TIP3    H251147   2.024   2.500  15.837  2.1865 -1.2456 -0.0021
 9886TIP3   OH251148   1.732   1.868   3.937 -0.3252  0.3414 -0.2526
 9886TIP3    H151149   1.666   1.867   4.006 -1.8281  1.9471 -1.5747
 9886TIP3    H251150   1.740   1.960   3.913  1.5133  0.0344 -1.0067
 9887TIP3   OH251151   0.614   6.144   5.540  0.5019 -0.3889  0.1014
 9887TIP3    H151152   0.627   6.050   5.555 -0.8383 -0.4445  1.0911
 9887TIP3    H251153   0.532   6.164   5.584 -0.3964  0.8004 -1.9899
 9888TIP3   OH251154   5.169   4.544   5.811  0.4001  0.0704 -0.6609
 9888TIP3    H151155   5.156   4.451   5.833 -0.9601 -0.0688 -1.8777
 9888TIP3    H251156   5.136   4.591   5.887  2.1310 -0.4161  0.4495
 9889TIP3   OH251157   5.102   0.416   4.111 -0.3844 -0.0851  0.1136
 9889TIP3    H151158   5.162   0.376   4.174 -0.3475 -0.4637 -0.1593
 9889TIP3    H251159   5.072   0.496   4.154  1.6874  1.0625 -0.4406
 9890TIP3   OH251160   1.707   5.036   3.134 -0.0193 -0.0081 -0.3774
 9890TIP3    H151161   1.737   5.099   3.199  0.0063  0.5958 -0.9680
 9890TIP3    H251162   1.787   4.994   3.102  0.0656  0.4784 -0.8114
 9891TIP3   OH251163   1.860   4.514  12.378  0.3469  0.4390  0.0424
 9891TIP3    H151164   1.783   4.540  12.429  0.4325  1.3914 -0.2928
 9891TIP3    H251165   1.888   4.432  12.418  0.1054  0.9001  1.2049
 9892TIP3   OH251166   2.502   5.777  13.100  0.5609 -0.2358  0.1921
 9892TIP3    H151167   2.560   5.800  13.027  1.6079  0.8782  1.3195
 9892TIP3    H251168   2.449   5.856  13.113 -0.6103 -0.9260 -0.2394
 9893TIP3   OH251169   4.208   1.317  11.351 -0.2610 -0.2601  0.4533
 9893TIP3    H151170   4.202   1.378  11.425 -1.1819 -1.0984  1.0859
 9893TIP3    H251171   4.302   1.309  11.334 -0.1211  1.5555  0.1510
 9894TIP3   OH251172   4.805   4.228  10.794  0.5126 -0.3934  0.3448
 9894TIP3    H151173   4.869   4.162  10.765 -1.0418 -1.6661 -0.3282
 9894TIP3    H251174   4.736   4.224  10.728  1.2588  3.4181 -0.9176
 9895TIP3   OH251175   2.309   2.196  13.503  0.1725 -0.3684 -0.0641
 9895TIP3    H151176   2.349   2.270  13.457 -2.0510  0.3215 -1.0240
 9895TIP3    H251177   2.216   2.218  13.507 -0.8884 -3.8644 -1.9104
 9896TIP3   OH251178   3.040   5.101   1.653  0.0778  0.9102 -0.6000
 9896TIP3    H151179   3.134   5.085   1.660  0.2330  1.9934 -0.1088
 9896TIP3    H251180   3.006   5.085   1.741  0.0343  1.9062 -0.4232
 9897TIP3   OH251181   6.095   5.126  15.174  0.3956  0.2453  0.1331
 9897TIP3    H151182   5.999   5.126  15.180  0.4249  2.2424  1.5889
 9897TIP3    H251183   6.114   5.178  15.096  0.2409  2.2033  1.3138
 9898TIP3   OH251184   4.270   3.214  11.482  0.6982  0.5754 -0.3693
 9898TIP3    H151185   4.279   3.150  11.411  2.6659  0.7320 -0.3284
 9898TIP3    H251186   4.324   3.287  11.454  1.4783  0.6578  1.2581
 9899TIP3   OH251187   5.036   5.537   0.640  0.5379 -0.1898 -0.5763
 9899TIP3    H151188   5.050   5.444   0.657  2.5282 -0.0195 -1.0336
 9899TIP3    H251189   5.083   5.581   0.711  1.1708  0.4553 -1.3785
 9900TIP3   OH251190   1.445   1.928  14.418  0.2397  0.5993 -1.3247
 9900TIP3    H151191   1.494   1.883  14.349 -1.4395  0.8864 -2.7722
 9900TIP3    H251192   1.449   2.020  14.394 -1.7705  0.5389 -2.0305
 9901TIP3   OH251193   0.840   1.187  11.467 -0.3972  0.0808  0.1561
 9901TIP3    H151194   0.825   1.123  11.398 -1.9039 -2.0855  2.3355
 9901TIP3    H251195   0.919   1.156  11.511  2.3077  3.0399 -2.0929
 9902TIP3   OH251196   6.621   0.257  14.582 -0.5020 -0.3374  0.1706
 9902TIP3    H151197   6.622   0.201  14.660 -2.1096  1.3354  1.4701
 9902TIP3    H251198   6.705   0.303  14.584 -0.2680 -0.7742  0.5292
 9903TIP3   OH251199   4.186   6.285  15.861  0.6732 -0.6446  0.0232
 9903TIP3    H151200   4.161   6.207  15.812  0.7853  0.4604 -1.8895
 9903TIP3    H251201   4.253   6.327  15.807  1.4124  0.2265  1.5370
 9904TIP3   OH251202   3.701   2.857   5.668  0.2811  0.5304  0.3614
 9904TIP3    H151203   3.622   2.907   5.690  0.3954  0.3264  1.2821
 9904TIP3    H251204   3.689   2.833   5.576 -0.9662  0.1009  0.6111
 9905TIP3   OH251205   2.172   2.647  15.259  0.2772  0.1432  0.6156
 9905TIP3    H151206   2.234   2.677  15.192  0.8982 -0.4138  0.9271
 9905TIP3    H251207   2.089   2.687  15.234  0.5600  0.1722 -0.3352
 9906TIP3   OH251208   0.160   0.179   5.401 -0.5113 -0.2237 -0.5835
 9906TIP3    H151209   0.100   0.213   5.467 -1.3868 -0.8480 -1.0305
 9906TIP3    H251210   0.234   0.145   5.451 -0.2572  1.0693 -0.0586
 9907TIP3   OH251211   1.205   0.200  10.885 -0.1777  0.0932  0.1394
 9907TIP3    H151212   1.278   0.144  10.856 -0.7028 -0.9337  0.7290
 9907TIP3    H251213   1.221   0.213  10.979 -0.6903 -0.0449  0.2493
 9908TIP3   OH251214   6.459   4.829   0.791  0.1252  0.3372 -0.1539
 9908TIP3    H151215   6.445   4.736   0.806  0.2298  0.3244 -0.1353
 9908TIP3    H251216   6.439   4.842   0.698 -0.9703  0.5015  0.0864
 9909TIP3   OH251217   1.836   2.481   3.424  0.0229  0.0206  0.2320
 9909TIP3    H151218   1.803   2.460   3.337 -0.3447 -0.5206  0.4947
 9909TIP3    H251219   1.779   2.433   3.483  1.3037 -0.9581  0.7134
 9910TIP3   OH251220   4.836   5.495  14.248 -0.3204  0.1793  0.0307
 9910TIP3    H151221   4.798   5.467  14.332 -1.9304  0.9984 -0.3782
 9910TIP3    H251222   4.895   5.424  14.224 -1.2529 -0.9672  0.9452
 9911TIP3   OH251223   3.512   3.068  11.626  0.2824 -0.4320 -0.3236
 9911TIP3    H151224   3.430   3.111  11.601 -0.5647 -1.8154 -0.0076
 9911TIP3    H251225   3.565   3.071  11.547 -0.4513 -0.3961 -0.8268
 9912TIP3   OH251226   3.186   1.172   6.148  0.6526  0.1457 -0.3453
 9912TIP3    H151227   3.130   1.214   6.213 -0.0891 -0.2173 -0.7346
 9912TIP3    H251228   3.178   1.078   6.167  1.9710  0.1297  0.2609
 9913TIP3   OH251229   4.870   5.140  15.358 -0.0222  0.3961 -0.7148
 9913TIP3    H151230   4.891   5.197  15.432 -0.5359  0.2172 -0.4291
 9913TIP3    H251231   4.879   5.197  15.281  0.9917  0.4564 -0.5631
 9914TIP3   OH251232   1.542   5.254  11.530 -0.0366 -0.1967  0.1078
 9914TIP3    H151233   1.463   5.297  11.500  0.6343  0.5127 -0.6950
 9914TIP3    H251234   1.528   5.161  11.512 -0.0377  0.1063 -1.5653
 9915TIP3   OH251235   6.406   2.752   4.525  0.3746 -0.1783 -0.0668
 9915TIP3    H151236   6.375   2.842   4.517 -1.2578 -0.7465 -0.4067
 9915TIP3    H251237   6.362   2.717   4.602 -0.0656 -1.0773 -0.7004
 9916TIP3   OH251238   6.801   2.832   3.650  0.3390 -0.5687  0.0058
 9916TIP3    H151239   6.763   2.812   3.735  0.5039  3.4734  1.2573
 9916TIP3    H251240   6.763   2.768   3.590 -2.0578 -1.7460  2.5919
 9917TIP3   OH251241   2.912   3.942   3.332 -0.0017  0.1522 -0.2290
 9917TIP3    H151242   2.987   3.993   3.363  1.8637 -2.0294 -0.8982
 9917TIP3    H251243   2.916   3.861   3.383 -1.2086 -0.4692 -1.0878
 9918TIP3   OH251244   0.386   3.018  12.861  0.2427  0.2866 -0.4498
 9918TIP3    H151245   0.445   3.064  12.920  1.8542 -0.7193 -1.1982
 9918TIP3    H251246   0.310   2.995  12.915  1.6267 -0.5650  1.2534
 9919TIP3   OH251247   2.583   2.451   5.404 -0.1813  0.2326 -0.1688
 9919TIP3    H151248   2.607   2.543   5.402  1.2301 -0.0064  1.8335
 9919TIP3    H251249   2.559   2.435   5.496 -1.3100 -1.1935 -0.6725
 9920TIP3   OH251250   2.753   2.080  16.691 -0.2756 -0.2791 -0.4546
 9920TIP3    H151251   2.762   1.989  16.662 -0.1845 -0.7235  0.8698
 9920TIP3    H251252   2.769   2.076  16.786  2.5343  1.5201 -0.7232
 9921TIP3   OH251253   0.973   1.652   6.294  0.3702 -0.2060  0.0895
 9921TIP3    H151254   1.016   1.731   6.259 -0.2923 -0.2363 -0.8078
 9921TIP3    H251255   0.991   1.584   6.229 -0.6604 -0.3283 -0.0746
 9922TIP3   OH251256   3.521   6.116  12.232 -0.4148 -0.4086 -0.0263
 9922TIP3    H151257   3.581   6.181  12.195  0.4198 -0.9387  0.3658
 9922TIP3    H251258   3.513   6.141  12.324 -0.5186 -0.5470  0.0025
 9923TIP3   OH251259   3.911   1.705  15.141  0.4800 -0.1581 -0.3301
 9923TIP3    H151260   3.860   1.757  15.204 -0.7408 -3.1270  1.3836
 9923TIP3    H251261   3.848   1.683  15.072  0.3074 -1.1673  0.1299
 9924TIP3   OH251262   6.593   1.005  16.630 -0.1665 -0.0194 -0.3265
 9924TIP3    H151263   6.681   1.039  16.613  0.1688  0.1620  1.5714
 9924TIP3    H251264   6.571   1.038  16.717 -2.2459  0.1632 -0.8742
 9925TIP3   OH251265   1.874   3.164  14.853  0.1977 -0.0678  0.4253
 9925TIP3    H151266   1.808   3.168  14.784  0.5165 -1.6090 -0.0183
 9925TIP3    H251267   1.824   3.174  14.934 -0.2759  1.0481  0.0068
 9926TIP3   OH251268   6.274   6.620   0.706  0.0130  0.7160  0.1085
 9926TIP3    H151269   6.331   6.555   0.746 -0.2495  0.9791  0.9299
 9926TIP3    H251270   6.185   6.589   0.723 -0.0988  0.5337 -0.7794
 9927TIP3   OH251271   4.948   1.626   3.132  0.2328 -0.5337  0.3744
 9927TIP3    H151272   4.855   1.617   3.150  0.3059 -0.9852  0.5433
 9927TIP3    H251273   4.979   1.692   3.195  0.3435 -1.5761  1.4538
 9928TIP3   OH251274   0.198   1.496  15.066  0.3993 -0.4267  0.6657
 9928TIP3    H151275   0.121   1.511  15.012 -0.2888 -1.1151  1.4146
 9928TIP3    H251276   0.190   1.559  15.138 -0.0042 -1.1726  1.2829
 9929TIP3   OH251277   1.882   5.274   3.992  0.1170 -0.1022 -0.2421
 9929TIP3    H151278   1.932   5.227   3.926  0.2515 -0.5977  0.2010
 9929TIP3    H251279   1.881   5.365   3.962  0.6164 -0.2289 -0.6507
 9930TIP3   OH251280   4.102   2.508  15.842  0.5512  0.1430 -0.0190
 9930TIP3    H151281   4.183   2.552  15.816  0.9874  0.6161  1.9748
 9930TIP3    H251282   4.032   2.562  15.804  1.0780  2.5311  2.1156
 9931TIP3   OH251283   2.103   2.713   4.312 -0.9826  0.1839 -0.5041
 9931TIP3    H151284   2.196   2.711   4.287 -0.7566  0.7364  0.2695
 9931TIP3    H251285   2.097   2.782   4.378 -2.0820  0.6551 -1.0669
 9932TIP3   OH251286   4.623   1.215   5.138 -0.3323 -0.1556 -0.9788
 9932TIP3    H151287   4.589   1.296   5.099 -0.9335  0.8188  1.3929
 9932TIP3    H251288   4.675   1.245   5.212 -1.0185 -1.9723  0.2939
 9933TIP3   OH251289   4.482   3.272   3.685 -0.7693 -0.6526 -0.2555
 9933TIP3    H151290   4.567   3.299   3.651 -0.7700  0.5453  0.6254
 9933TIP3    H251291   4.421   3.286   3.613 -0.1829 -1.8646 -1.0148
 9934TIP3   OH251292   1.439   0.128   1.889  0.3572 -0.1544  0.1235
 9934TIP3    H151293   1.435   0.170   1.803 -1.1260 -2.0371 -0.8322
 9934TIP3    H251294   1.406   0.193   1.950  0.4505  0.8739 -0.8980
 9935TIP3   OH251295   2.864   5.082  11.959 -0.4217  0.2312 -0.2301
 9935TIP3    H151296   2.825   5.083  12.047  0.6575  2.2254  0.2786
 9935TIP3    H251297   2.953   5.114  11.972  0.1769 -0.6865 -1.8943
 9936TIP3   OH251298   3.011   5.603  15.076  0.3503 -0.5659  0.0530
 9936TIP3    H151299   3.076   5.561  15.132  0.6950 -0.5831 -0.3540
 9936TIP3    H251300   3.017   5.696  15.098 -1.1054 -0.8042  1.6697
 9937TIP3   OH251301   0.999   2.704  16.938  0.3594  0.4278 -0.0392
 9937TIP3    H151302   1.087   2.704  16.975  0.0359 -0.8036  0.8006
 9937TIP3    H251303   0.972   2.612  16.943 -0.2202  0.4368 -2.1168
 9938TIP3   OH251304   2.621   4.730   1.056 -0.6512 -0.0967  0.2861
 9938TIP3    H151305   2.621   4.672   1.131  2.6830 -0.9313 -0.2170
 9938TIP3    H251306   2.660   4.812   1.088 -1.0797  0.2627 -0.0877
 9939TIP3   OH251307   4.183   0.948  15.249 -0.7497  0.4582 -0.1843
 9939TIP3    H151308   4.208   0.935  15.340 -1.5340  0.3845  0.0352
 9939TIP3    H251309   4.138   1.033  15.250 -1.3399  0.1533 -0.3696
 9940TIP3   OH251310   6.032   4.004  16.187 -0.0323 -0.4292  0.1282
 9940TIP3    H151311   6.101   4.050  16.234 -0.5622 -0.7096  1.2185
 9940TIP3    H251312   5.990   3.949  16.253 -0.2122 -1.5474 -0.8747
 9941TIP3   OH251313   1.142   0.887   4.473 -0.0129 -0.1042 -0.0599
 9941TIP3    H151314   1.142   0.968   4.424  0.3694 -0.0794 -0.0251
 9941TIP3    H251315   1.133   0.914   4.565  1.5401 -0.0035  0.0808
 9942TIP3   OH251316   4.422   0.177   2.885 -0.1438  0.6367 -0.1077
 9942TIP3    H151317   4.500   0.193   2.832 -0.1214 -0.6809 -0.5110
 9942TIP3    H251318   4.390   0.092   2.855 -0.6439  0.2733  1.3872
 9943TIP3   OH251319   6.604   0.280  11.552 -0.4747  0.0425 -0.1464
 9943TIP3    H151320   6.589   0.330  11.632 -3.0006  0.0978 -0.5681
 9943TIP3    H251321   6.621   0.346  11.485  0.2050  0.0829  0.0650
 9944TIP3   OH251322   1.530   5.762   5.646  0.0016 -0.9261  0.1423
 9944TIP3    H151323   1.609   5.815   5.635 -0.5849 -0.3717 -1.7596
 9944TIP3    H251324   1.496   5.786   5.732  1.6225 -0.8035  0.7689
 9945TIP3   OH251325   1.863   5.644  11.373  0.3371 -0.3939 -0.1519
 9945TIP3    H151326   1.812   5.584  11.427 -2.0144  1.4771 -0.1261
 9945TIP3    H251327   1.798   5.688  11.318  1.4268  4.0044  1.6438
 9946TIP3   OH251328   6.570   1.737   2.029  0.0114  0.1769  0.0809
 9946TIP3    H151329   6.527   1.658   1.996  1.5728 -0.0985 -1.4633
 9946TIP3    H251330   6.598   1.784   1.951  0.5603  1.4321  0.9944
 9947TIP3   OH251331   0.187   4.509  11.185 -0.4065  0.2155  0.5203
 9947TIP3    H151332   0.268   4.548  11.153 -0.3972  2.0941  2.5471
 9947TIP3    H251333   0.140   4.481  11.106  2.5044 -1.7259 -0.6914
 9948TIP3   OH251334   1.062   3.312  13.503 -0.2862 -0.3410 -0.1528
 9948TIP3    H151335   1.047   3.260  13.423 -0.3869 -0.5968  0.0305
 9948TIP3    H251336   1.135   3.268  13.546 -0.3646 -0.3249 -0.0026
 9949TIP3   OH251337   5.692   3.842   0.684  0.8853 -0.4735 -0.2712
 9949TIP3    H151338   5.773   3.809   0.645  0.4155 -2.9755  0.6646
 9949TIP3    H251339   5.696   3.815   0.775  0.5397  2.5124  0.7474
 9950TIP3   OH251340   5.232   6.106  12.793 -0.5238  0.0105 -0.3241
 9950TIP3    H151341   5.147   6.084  12.756 -1.2191 -0.7773  1.5880
 9950TIP3    H251342   5.245   6.041  12.863  0.4773  1.6438  1.0877
 9951TIP3   OH251343   4.623   1.332   6.878 -0.6482  0.0489 -0.3610
 9951TIP3    H151344   4.605   1.269   6.808  0.4859  0.3267 -0.9265
 9951TIP3    H251345   4.631   1.416   6.833 -0.4712  0.3176  0.1683
 9952TIP3   OH251346   1.642   0.082  12.701  0.6833 -0.4797  0.3929
 9952TIP3    H151347   1.712   0.067  12.637 -1.0584 -0.1294 -1.7277
 9952TIP3    H251348   1.592  -0.000  12.701  0.7332 -0.5119  1.3978
 9953TIP3   OH251349   6.534   3.453   0.510 -0.3168 -0.1142 -0.0851
 9953TIP3    H151350   6.529   3.363   0.541 -0.2404  0.0024  0.2702
 9953TIP3    H251351   6.560   3.446   0.418 -2.0833 -0.5283 -0.5893
 9954TIP3   OH251352   2.606   2.573  11.657 -0.4919 -0.3969  0.2212
 9954TIP3    H151353   2.601   2.577  11.752  0.4506 -3.3742  0.5082
 9954TIP3    H251354   2.515   2.578  11.628 -1.0042 -1.7229  1.4772
 9955TIP3   OH251355   4.978   5.436  16.184  0.3634  0.6385 -0.1830
 9955TIP3    H151356   4.957   5.369  16.250  0.5574  0.4579 -0.3028
 9955TIP3    H251357   5.032   5.390  16.120  2.3188  1.4153  0.8441
 9956TIP3   OH251358   4.793   0.428  12.378  0.1201  0.5617 -0.2430
 9956TIP3    H151359   4.811   0.497  12.315  0.2288  0.9174  0.1775
 9956TIP3    H251360   4.862   0.435  12.444 -0.0850  0.2971  0.0074
 9957TIP3   OH251361   1.258   0.725   3.251  0.0925  0.0734 -0.2460
 9957TIP3    H151362   1.173   0.768   3.261  0.1291 -0.1056  1.0275
 9957TIP3    H251363   1.317   0.775   3.307  0.0283 -1.8956  1.7174
 9958TIP3   OH251364   1.838   0.057   3.652 -0.2947  0.3798  0.4788
 9958TIP3    H151365   1.786   0.084   3.728 -2.1755 -1.7285  0.0504
 9958TIP3    H251366   1.781   0.074   3.577  0.8817  0.8456 -0.3404
 9959TIP3   OH251367   2.517   4.061   1.079 -0.0886  0.1560  0.4604
 9959TIP3    H151368   2.593   4.101   1.037 -1.7006  1.3043 -1.5363
 9959TIP3    H251369   2.519   3.970   1.050  0.1321  0.3652 -0.2155
 9960TIP3   OH251370   5.323   3.412  11.870  0.0232 -1.1596  0.1415
 9960TIP3    H151371   5.229   3.422  11.853 -0.2876  1.9808  2.7024
 9960TIP3    H251372   5.327   3.347  11.941 -0.6727  1.0687  2.3660
 9961TIP3   OH251373   3.651   6.793  12.041  0.0029  0.0316  0.6731
 9961TIP3    H151374   3.684   6.734  11.973 -1.3927  0.0809 -0.0830
 9961TIP3    H251375   3.621   6.735  12.111 -3.5993 -0.4263 -1.0490
 9962TIP3   OH251376   2.743   3.956  12.047 -0.0782  0.1895  0.4165
 9962TIP3    H151377   2.789   3.998  11.973 -0.7464  1.6891  0.8094
 9962TIP3    H251378   2.651   3.980  12.035 -0.1841  0.5567  1.7790
 9963TIP3   OH251379   1.364   1.341   1.479 -0.2959 -0.5839  0.0261
 9963TIP3    H151380   1.318   1.298   1.407 -0.8410 -1.3591  0.8175
 9963TIP3    H251381   1.443   1.290   1.492  0.0300 -0.1712 -0.3184
 9964TIP3   OH251382   0.583   6.154  13.466 -0.1541 -0.0719 -0.1585
 9964TIP3    H151383   0.625   6.099  13.532 -0.7221  0.0402  0.3023
 9964TIP3    H251384   0.656   6.193  13.417  0.3278 -2.9502 -1.9987
 9965TIP3   OH251385   1.597   3.039   4.568  0.1738 -0.0052  0.4703
 9965TIP3    H151386   1.671   3.081   4.525  0.0371 -0.5267 -0.2818
 9965TIP3    H251387   1.523   3.053   4.509  0.0515 -1.0072  0.3716
 9966TIP3   OH251388   4.915   0.954   2.292 -0.2473 -0.4730  0.1425
 9966TIP3    H151389   5.005   0.972   2.320  0.1011 -0.4537 -0.9599
 9966TIP3    H251390   4.866   0.943   2.374  1.1309 -2.4286  0.7572
 9967TIP3   OH251391   3.090   0.013  13.115  0.3882 -0.2869  0.5919
 9967TIP3    H151392   3.048   0.089  13.155  0.6949 -0.4657  1.2635
 9967TIP3    H251393   3.182   0.038  13.105 -0.1237  0.7805 -2.5159
 9968TIP3   OH251394   2.015   3.820   2.468 -0.2199 -0.7333  0.2235
 9968TIP3    H151395   2.088   3.876   2.442 -0.6516 -0.3395 -0.1529
 9968TIP3    H251396   1.957   3.819   2.392 -1.8809  1.0612  1.3498
 9969TIP3   OH251397   5.527   0.708   0.997  0.1523 -0.1330 -0.0996
 9969TIP3    H151398   5.609   0.712   1.045  1.4231 -0.5053 -2.1171
 9969TIP3    H251399   5.472   0.649   1.049  1.8162 -1.3272  0.4043
 9970TIP3   OH251400   6.752   1.339   3.498 -0.3933 -0.0224 -0.0638
 9970TIP3    H151401   6.687   1.401   3.464  0.1468  0.5363 -0.1005
 9970TIP3    H251402   6.768   1.369   3.588  1.0163  0.8693 -0.5724
 9971TIP3   OH251403   5.835   5.734  14.127 -0.7136  0.1083  0.0258
 9971TIP3    H151404   5.889   5.742  14.048 -1.4194 -0.3067 -0.5029
 9971TIP3    H251405   5.832   5.823  14.163  0.9003  0.0233  0.4615
 9972TIP3   OH251406   1.017   6.533   4.901 -0.1024 -0.0501 -0.4937
 9972TIP3    H151407   0.940   6.533   4.957 -0.6290 -0.6936 -1.2022
 9972TIP3    H251408   1.084   6.487   4.952  0.1445  1.3827  0.5336
 9973TIP3   OH251409   3.231   1.859   5.835 -0.5461 -0.1747  1.0111
 9973TIP3    H151410   3.221   1.909   5.916  0.7939 -0.2409  1.2435
 9973TIP3    H251411   3.201   1.771   5.858  0.4540 -0.3700  1.6587
 9974TIP3   OH251412   0.061   2.075   3.554 -0.4415 -0.1173 -0.5832
 9974TIP3    H151413   0.014   2.064   3.472  0.8143  1.8642 -1.6652
 9974TIP3    H251414   0.135   2.132   3.532  0.9009 -0.8722  1.5895
 9975TIP3   OH251415   2.582   1.295  13.437 -0.3517  0.1389 -0.2166
 9975TIP3    H151416   2.526   1.284  13.514 -0.6750  0.0739 -0.4637
 9975TIP3    H251417   2.663   1.248  13.459 -0.5784 -0.1752 -0.0612
 9976TIP3   OH251418   3.511   2.582   3.205 -0.2219  0.2787 -0.6874
 9976TIP3    H151419   3.597   2.542   3.218 -0.3146  0.8240  2.1657
 9976TIP3    H251420   3.449   2.512   3.222 -0.4343 -0.1206 -2.7702
 9977TIP3   OH251421   5.627   0.027  16.964  0.0230 -0.3318  0.0353
 9977TIP3    H151422   5.645   0.118  16.988  0.6388 -0.4840  0.1702
 9977TIP3    H251423   5.533   0.018  16.974  0.0619  0.0625  0.8484
 9978TIP3   OH251424   5.857   3.679   3.825  0.0981 -0.6449 -0.7836
 9978TIP3    H151425   5.903   3.627   3.759  0.1239 -0.5383 -0.8493
 9978TIP3    H251426   5.779   3.627   3.846  0.2619 -0.8387 -0.6510
 9979TIP3   OH251427   1.117   2.571   1.101  0.4480 -0.2011  0.1468
 9979TIP3    H151428   1.202   2.528   1.095  0.7558  0.2759  0.9476
 9979TIP3    H251429   1.131   2.644   1.163 -0.4902 -0.0121  0.1496
 9980TIP3   OH251430   6.099   5.637   5.587  0.4483 -0.5061 -0.4543
 9980TIP3    H151431   6.055   5.553   5.598  1.4884 -1.1953 -1.4097
 9980TIP3    H251432   6.187   5.615   5.556  0.7115  0.9391 -0.8270
 9981TIP3   OH251433   3.595   4.753   1.216  0.6077  0.3013  0.5857
 9981TIP3    H151434   3.535   4.814   1.172  1.4052  0.7557  0.1049
 9981TIP3    H251435   3.659   4.809   1.259  1.4951 -0.1895 -0.0569
 9982TIP3   OH251436   2.383   1.139   1.056  0.5939  0.0276 -0.1399
 9982TIP3    H151437   2.352   1.219   1.098  1.9976  1.1463 -1.1285
 9982TIP3    H251438   2.342   1.068   1.105 -0.0321  1.3288  1.2895
 9983TIP3   OH251439   3.956   2.374   5.991  0.5287  0.1432  0.0888
 9983TIP3    H151440   3.876   2.396   6.040  0.1053 -0.5534 -0.2814
 9983TIP3    H251441   4.024   2.425   6.034  0.0286  0.1202  0.9369
 9984TIP3   OH251442   3.177   4.673  14.276 -1.0798  0.1228 -0.1717
 9984TIP3    H151443   3.259   4.624  14.266 -0.9874  0.6380 -2.6068
 9984TIP3    H251444   3.186   4.718  14.359  0.0761 -1.6855  0.7507
 9985TIP3   OH251445   3.731   5.757  15.641 -0.1590 -0.2626  0.4414
 9985TIP3    H151446   3.690   5.784  15.559  0.4765 -0.3035  0.0984
 9985TIP3    H251447   3.668   5.697  15.681  0.3552 -1.8556 -1.0018
 9986TIP3   OH251448   0.148   1.079   6.023 -0.1601 -0.1721 -0.2757
 9986TIP3    H151449   0.231   1.063   5.977  0.4240 -0.7529  0.9310
 9986TIP3    H251450   0.162   1.161   6.070  0.3953 -1.1286  1.3094
 9987TIP3   OH251451   3.191   0.174   1.314  0.1716  0.0089 -0.2919
 9987TIP3    H151452   3.157   0.218   1.235  0.7711 -1.0073 -1.1327
 9987TIP3    H251453   3.113   0.140   1.358 -0.0476 -1.2150 -1.5528
 9988TIP3   OH251454   2.037   1.348   0.263  0.3854 -0.2431 -0.2824
 9988TIP3    H151455   2.067   1.310   0.180  0.0063  2.2399 -1.6550
 9988TIP3    H251456   1.949   1.379   0.244  0.7784  1.5295  0.6430
 9989TIP3   OH251457   0.354   1.771  13.987 -0.6707 -0.3672  0.0151
 9989TIP3    H151458   0.411   1.766  14.064 -0.2505  1.8643 -0.0821
 9989TIP3    H251459   0.356   1.683  13.949  0.5384 -1.0345  1.5387
 9990TIP3   OH251460   1.025   2.925   0.082  0.3019 -0.0811  0.4836
 9990TIP3    H151461   1.087   2.890   0.146 -0.4559 -0.5064  1.0092
 9990TIP3    H251462   1.059   3.012   0.060  0.8963 -0.1747  1.0177
 9991TIP3   OH251463   2.797   6.588  15.836  0.3583  0.9379 -0.1739
 9991TIP3    H151464   2.867   6.625  15.783  1.7066  1.1137  1.6190
 9991TIP3    H251465   2.841   6.525  15.893 -1.2324 -0.2332 -0.1707
 9992TIP3   OH251466   1.201   0.635   5.898  0.0056 -0.0843 -0.3284
 9992TIP3    H151467   1.295   0.619   5.897  0.6276  2.7518  1.0317
 9992TIP3    H251468   1.183   0.678   5.815  0.0710  0.0987 -0.2479
 9993TIP3   OH251469   3.407   3.995   1.442 -0.2826  0.0164  0.2094
 9993TIP3    H151470   3.444   3.909   1.465 -1.5675 -0.7007 -0.3372
 9993TIP3    H251471   3.314   3.986   1.460 -0.3744  1.4455  0.5097
 9994TIP3   OH251472   0.669   3.884   1.577 -0.2079  0.0376  0.4138
 9994TIP3    H151473   0.732   3.905   1.508  1.6394  1.3158  2.3589
 9994TIP3    H251474   0.623   3.806   1.544  1.1128  0.1221 -1.8822
 9995TIP3   OH251475   6.348   0.738   0.651  0.3029  0.3299  0.1336
 9995TIP3    H151476   6.290   0.669   0.683 -0.6623  0.8263 -0.4923
 9995TIP3    H251477   6.427   0.692   0.621 -0.6105 -0.5874 -0.9314
 9996TIP3   OH251478   0.832   6.311   3.303  0.3512  0.3158  0.2532
 9996TIP3    H151479   0.872   6.349   3.225  1.4717  1.1143  1.1897
 9996TIP3    H251480   0.738   6.329   3.293  0.4885  0.5275 -0.8297
 9997TIP3   OH251481   3.901   1.360  12.920  0.7435 -0.0516  0.3646
 9997TIP3    H151482   3.975   1.405  12.879  0.8421 -1.1445 -0.7175
 9997TIP3    H251483   3.862   1.310  12.849 -1.0730  0.5214  0.9073
 9998TIP3   OH251484   4.735   0.994  11.886 -0.5514  0.4333  0.0769
 9998TIP3    H151485   4.757   1.068  11.829 -0.9356  0.2672 -0.2912
 9998TIP3    H251486   4.717   0.922  11.826 -2.3799  0.6369  0.3236
 9999TIP3   OH251487   1.154   0.990   5.924  0.4011 -0.3571 -0.3182
 9999TIP3    H151488   1.207   0.935   5.982 -0.8227 -1.7487 -0.4553
 9999TIP3    H251489   1.114   1.055   5.982  0.8675 -0.4042  0.0603
10000TIP3   OH251490   3.388   1.039  13.989 -0.0748  0.5094  0.1812
10000TIP3    H151491   3.346   1.118  13.957  0.4350  0.9427  0.5569
10000TIP3    H251492   3.428   1.065  14.072 -0.7067 -0.3892  0.7853
10001TIP3   OH251493   1.611   3.232   3.016 -0.5705  0.5633  0.7844
10001TIP3    H151494   1.572   3.263   2.934 -1.1836 -0.6569  0.5936
10001TIP3    H251495   1.550   3.258   3.084  1.4206  4.4496  1.3540
10002TIP3   OH251496   4.975   3.212   4.879 -0.1408 -0.0425 -0.1506
10002TIP3    H151497   4.891   3.200   4.924  0.0170  0.5072  0.3065
10002TIP3    H251498   5.020   3.279   4.930  0.8555 -0.8026 -0.0190
10003TIP3   OH251499   5.383   0.132  12.788 -0.2411  0.4061 -0.7610
10003TIP3    H151500   5.353   0.223  12.795  0.3218  0.6198 -1.0266
10003TIP3    H251501   5.416   0.111  12.875 -0.7106  0.3267 -0.5972
10004TIP3   OH251502   4.045   2.697   2.779 -0.3188  0.4174 -0.3536
10004TIP3    H151503   4.071   2.784   2.748 -1.6006  0.8778 -0.2259
10004TIP3    H251504   4.084   2.690   2.866 -0.0806  0.8040 -0.4249
10005TIP3   OH251505   0.772   2.867   4.935 -0.1786  0.3766  0.7150
10005TIP3    H151506   0.858   2.889   4.970 -0.4135 -0.6216  1.9968
10005TIP3    H251507   0.790   2.802   4.867 -0.0344 -1.9949  2.8909
10006TIP3   OH251508   3.495   1.609  13.958 -0.3155  0.2796  0.1039
10006TIP3    H151509   3.451   1.668  13.896 -1.7637 -2.9077 -2.1816
10006TIP3    H251510   3.432   1.539  13.973  0.6917 -0.0222  3.9533
10007TIP3   OH251511   1.011   1.409  12.054 -0.0588 -0.0673 -1.0896
10007TIP3    H151512   0.963   1.491  12.069  0.0274  0.0955 -1.7035
10007TIP3    H251513   0.946   1.349  12.020 -0.1831 -0.3418 -0.3763
10008TIP3   OH251514   3.019   1.629   5.537 -0.3429  0.1458  0.0354
10008TIP3    H151515   2.990   1.576   5.462  1.2818 -0.8402  0.0599
10008TIP3    H251516   3.110   1.604   5.550 -0.7416 -0.1936  2.7698
10009TIP3   OH251517   1.770   5.867  10.826  0.3378  0.0126  0.8770
10009TIP3    H151518   1.698   5.927  10.807  1.0537  0.7725  0.4840
10009TIP3    H251519   1.841   5.924  10.856  0.8228 -0.7090  1.1157
10010TIP3   OH251520   1.247   1.865  13.813 -0.0110 -0.8978  0.3433
10010TIP3    H151521   1.327   1.889  13.766  1.1170  0.1656  2.6255
10010TIP3    H251522   1.271   1.870  13.906 -2.6555 -0.8487  1.1191
10011TIP3   OH251523   4.365   6.300   4.214  0.0405  0.0994  0.4066
10011TIP3    H151524   4.424   6.306   4.289 -0.9872  1.1201  1.1582
10011TIP3    H251525   4.412   6.345   4.143  0.2727  0.7026  0.9316
10012TIP3   OH251526   4.285   1.897   1.431  0.1111 -0.2359 -0.2676
10012TIP3    H151527   4.378   1.912   1.450 -0.1551  0.6616  0.3628
10012TIP3    H251528   4.283   1.809   1.392  1.0954 -0.7657  0.7942
10013TIP3   OH251529   3.223   5.042  12.574  0.3866 -0.4359 -0.7818
10013TIP3    H151530   3.226   5.038  12.669  0.0111  1.2888 -0.6795
10013TIP3    H251531   3.302   4.996  12.546  0.7956 -0.4707  0.3719
10014TIP3   OH251532   5.024   5.557   3.529 -0.2157 -0.1989 -0.2331
10014TIP3    H151533   5.005   5.490   3.463 -1.0618 -1.8101  1.5738
10014TIP3    H251534   5.119   5.553   3.539 -0.1929 -0.6800 -0.5823
10015TIP3   OH251535   5.643   4.206  13.307  0.0855  0.3352  0.2863
10015TIP3    H151536   5.638   4.151  13.230 -0.4917 -0.9945  1.2335
10015TIP3    H251537   5.736   4.212  13.327  0.2051  0.3784 -0.2834
10016TIP3   OH251538   6.063   5.534  10.868  0.1125 -0.0096 -0.1251
10016TIP3    H151539   6.117   5.469  10.821 -0.0332 -0.7878  0.7600
10016TIP3    H251540   5.973   5.510  10.846  0.0446 -0.3610  0.5084
10017TIP3   OH251541   6.754   5.925   1.199  0.2405  0.2691 -0.0441
10017TIP3    H151542   6.667   5.965   1.194 -0.5085 -1.2310  0.2491
10017TIP3    H251543   6.759   5.870   1.121 -1.1309 -3.4125  2.1907
10018TIP3   OH251544   2.083   5.116   2.154 -0.1865  0.4953  0.3176
10018TIP3    H151545   2.002   5.099   2.106 -0.1531 -0.4052  0.5489
10018TIP3    H251546   2.153   5.089   2.094 -0.1510 -0.8031  0.8961
10019TIP3   OH251547   4.314   4.978   1.768 -0.3354  0.4729 -0.2628
10019TIP3    H151548   4.240   5.037   1.782 -1.2427  0.2489 -3.3575
10019TIP3    H251549   4.274   4.892   1.754  0.6751 -0.0302 -0.1889
10020TIP3   OH251550   6.450   0.414  16.174  0.4964  0.3865  0.1642
10020TIP3    H151551   6.374   0.446  16.125  0.8737 -0.4174 -0.9838
10020TIP3    H251552   6.514   0.485  16.167  0.0461  0.8691  0.7357
10021TIP3   OH251553   3.213   0.284   0.695  0.2493  0.1379 -0.0815
10021TIP3    H151554   3.229   0.191   0.684  0.8809  0.3942 -1.6444
10021TIP3    H251555   3.143   0.304   0.633  0.1589  0.7164  0.1912
10022TIP3   OH251556   6.254   0.977   6.036  0.1962 -0.2641  0.1812
10022TIP3    H151557   6.305   0.903   6.002 -1.7421 -1.3294 -0.5317
10022TIP3    H251558   6.253   0.963   6.131  1.4675 -0.0458  0.2443
10023TIP3   OH251559   1.687   4.226  14.111 -0.7400  0.1549 -0.2351
10023TIP3    H151560   1.615   4.255  14.056 -1.5840  0.2562  0.8793
10023TIP3    H251561   1.695   4.295  14.178 -2.7166 -1.9894  2.4103
10024TIP3   OH251562   4.745   6.316   3.527  0.3996  0.0919  0.1953
10024TIP3    H151563   4.810   6.373   3.487  0.2823 -0.9354 -1.5360
10024TIP3    H251564   4.769   6.228   3.500 -0.2468 -0.5688  1.6436
10025TIP3   OH251565   2.730   3.821  11.025  0.2081  0.2450 -0.5421
10025TIP3    H151566   2.761   3.759  10.959  3.1477 -0.8774  1.6666
10025TIP3    H251567   2.768   3.905  10.998  2.9331 -0.5418  0.4956
10026TIP3   OH251568   2.908   5.108  11.143 -0.0692 -0.3399 -0.5907
10026TIP3    H151569   2.863   5.048  11.084 -0.1164 -0.8437 -0.0560
10026TIP3    H251570   2.976   5.054  11.184  1.3426  0.5056 -1.7197
10027TIP3   OH251571   5.527   2.826  16.316  0.1069  0.4999 -0.2627
10027TIP3    H151572   5.442   2.814  16.358  0.0153 -0.7457 -0.7616
10027TIP3    H251573   5.588   2.777  16.371  0.0757 -0.6853 -1.2556
10028TIP3   OH251574   2.870   0.890   1.649 -0.1338 -0.3059  0.4929
10028TIP3    H151575   2.809   0.822   1.680 -0.0038 -0.1885  1.0202
10028TIP3    H251576   2.850   0.900   1.556  1.4317 -2.7533 -0.1926
10029TIP3   OH251577   1.476   0.508  16.588  0.1110 -0.3943  0.3187
10029TIP3    H151578   1.546   0.543  16.642 -0.6083  0.0723  0.9809
10029TIP3    H251579   1.517   0.486  16.504  1.1427 -0.6479  0.8809
10030TIP3   OH251580   1.199   4.010   0.878  0.1184  0.0425  0.3245
10030TIP3    H151581   1.287   3.975   0.865  0.1181  0.5034 -1.1869
10030TIP3    H251582   1.160   3.955   0.945  1.0091 -1.1971 -0.1441
10031TIP3   OH251583   4.421   0.801  15.443 -0.4452  0.0549 -0.0144
10031TIP3    H151584   4.484   0.774  15.510 -2.4054 -1.3888  1.3837
10031TIP3    H251585   4.448   0.756  15.364  0.7153  0.1167  0.3318
10032TIP3   OH251586   3.417   1.004   1.149  0.2470 -0.1465 -0.1303
10032TIP3    H151587   3.336   1.009   1.201  0.1766 -0.1597 -0.2372
10032TIP3    H251588   3.417   0.915   1.113  1.4672 -0.9360  1.7082
10033TIP3   OH251589   3.302   2.736  13.192 -0.9567  0.1156  0.2722
10033TIP3    H151590   3.349   2.733  13.275 -0.4450  1.1793  0.0332
10033TIP3    H251591   3.216   2.698  13.212 -1.0376  0.8494  1.4254
10034TIP3   OH251592   2.630   4.240   2.081 -0.4992 -0.1531  0.1723
10034TIP3    H151593   2.688   4.316   2.080 -0.5111 -0.1301 -2.1537
10034TIP3    H251594   2.653   4.191   2.003 -2.2969 -1.1642  0.2303
10035TIP3   OH251595   0.387   0.922   4.232 -0.2348 -0.5163  0.8268
10035TIP3    H151596   0.427   0.839   4.255  1.6673 -0.2540 -1.1912
10035TIP3    H251597   0.408   0.934   4.139 -2.5125  1.0951  0.4187
10036TIP3   OH251598   5.713   4.834   6.000  0.1976 -0.3082  0.0336
10036TIP3    H151599   5.639   4.895   6.007  0.9550  0.5660  0.6146
10036TIP3    H251600   5.716   4.809   5.908 -0.3412  0.2507 -0.1363
10037TIP3   OH251601   5.498   1.225  11.277  0.1749  0.4956  0.2869
10037TIP3    H151602   5.451   1.179  11.346 -0.0151  0.1006 -0.1029
10037TIP3    H251603   5.542   1.156  11.228 -0.8072  0.6306 -0.8332
10038TIP3   OH251604   3.498   5.760  12.360  0.6043  0.1260  0.4240
10038TIP3    H151605   3.499   5.747  12.265 -0.6028  2.2985  0.0431
10038TIP3    H251606   3.581   5.804  12.378  1.0771 -0.7648  0.4879
10039TIP3   OH251607   2.263   5.844   0.614  0.5584  0.3375 -0.1569
10039TIP3    H151608   2.338   5.891   0.649 -0.2096  0.2606  1.6830
10039TIP3    H251609   2.203   5.912   0.585  0.4217  0.4580  0.3936
10040TIP3   OH251610   4.936   3.665   4.715  0.3197  0.5094  0.4176
10040TIP3    H151611   4.962   3.753   4.744  0.4906  0.6354 -0.1117
10040TIP3    H251612   4.840   3.668   4.716  0.3114  1.0208 -0.5190
10041TIP3   OH251613   4.299   6.288   0.402 -0.4647 -0.4253  0.0156
10041TIP3    H151614   4.229   6.331   0.451 -1.8974 -2.1736 -0.4107
10041TIP3    H251615   4.361   6.359   0.381 -1.4228  0.9203  1.5370
10042TIP3   OH251616   1.512   1.528  14.372  0.1776 -0.0204 -0.1050
10042TIP3    H151617   1.573   1.455  14.376 -2.0592 -2.1351 -1.5869
10042TIP3    H251618   1.484   1.531  14.281 -0.8289  1.8259  0.2101
10043TIP3   OH251619   5.011   6.637   5.716 -0.3005 -0.6147 -0.7806
10043TIP3    H151620   4.967   6.561   5.678 -0.1692 -0.7809 -0.6016
10043TIP3    H251621   4.949   6.672   5.780 -0.1781 -0.8365 -0.5431
10044TIP3   OH251622   4.236   6.795   0.963 -0.0442  0.1064  0.3177
10044TIP3    H151623   4.303   6.843   0.915  0.5387  0.2701  1.2634
10044TIP3    H251624   4.280   6.764   1.042 -1.1004  0.2955  1.0138
10045TIP3   OH251625   4.241   2.357  13.508 -0.0825 -0.6912 -0.1701
10045TIP3    H151626   4.148   2.381  13.509 -0.0094 -0.4127 -0.1469
10045TIP3    H251627   4.285   2.430  13.549  0.0602 -1.2008  0.6054
10046TIP3   OH251628   5.377   0.749   4.937 -0.4066 -0.3598 -0.1008
10046TIP3    H151629   5.306   0.725   4.997 -0.3134 -0.0217  0.1497
10046TIP3    H251630   5.353   0.708   4.854 -0.3894 -1.0867  0.2404
10047TIP3   OH251631   5.361   2.988  15.490  0.7863 -0.2150 -0.0631
10047TIP3    H151632   5.349   2.898  15.459  1.7630 -0.0155 -1.1021
10047TIP3    H251633   5.272   3.019  15.507  0.4273 -1.3152  0.1514
10048TIP3   OH251634   4.743   0.955   5.181 -0.4140  0.2730 -0.3824
10048TIP3    H151635   4.676   0.888   5.181 -0.3453  0.1885  0.4563
10048TIP3    H251636   4.698   1.034   5.152 -0.6371  0.0005 -0.7832
10049TIP3   OH251637   5.934   1.000  11.883 -0.1351 -0.1432  0.2635
10049TIP3    H151638   6.010   1.055  11.866  0.5520 -1.3963 -0.9061
10049TIP3    H251639   5.953   0.956  11.966 -0.1915  0.5379  0.6388
10050TIP3   OH251640   4.623   4.660  15.182  0.4745 -0.3868  0.6001
10050TIP3    H151641   4.642   4.747  15.218  0.0293 -0.7733  1.8454
10050TIP3    H251642   4.558   4.624  15.242 -2.2936 -0.1321 -2.0482
10051TIP3   OH251643   6.227   6.313  15.040  0.5250  0.1204 -0.3097
10051TIP3    H151644   6.265   6.373  14.975  1.4886  1.3836  1.3308
10051TIP3    H251645   6.268   6.229  15.022  1.6914  0.7245 -0.6197
10052TIP3   OH251646   0.993   0.149  13.017 -0.3414 -0.0541  0.2902
10052TIP3    H151647   1.011   0.106  13.100 -1.2397  0.7391  0.9256
10052TIP3    H251648   0.959   0.235  13.042 -1.9159 -0.2967 -0.8495
10053TIP3   OH251649   4.172   5.064   3.286  0.0699 -0.3328 -0.9247
10053TIP3    H151650   4.171   4.982   3.336  1.1085  1.5573  2.5463
10053TIP3    H251651   4.222   5.043   3.207 -0.0280 -3.1153 -0.3510
10054TIP3   OH251652   5.927   5.812   0.092  0.1681  0.4603  0.0591
10054TIP3    H151653   5.964   5.724   0.093  1.1104  0.7751 -2.0334
10054TIP3    H251654   5.983   5.862   0.151  1.2947  0.2414 -0.7836
10055TIP3   OH251655   2.234   6.473  15.444 -0.0255  0.3499  0.8034
10055TIP3    H151656   2.259   6.461  15.535 -0.1191  0.0336  0.7891
10055TIP3    H251657   2.169   6.405  15.428 -1.8460  1.9225  1.1899
10056TIP3   OH251658   0.368   1.232  12.866 -0.4486 -0.1697  0.0591
10056TIP3    H151659   0.405   1.317  12.841 -0.6721  0.1767  0.8733
10056TIP3    H251660   0.277   1.236  12.836  0.1712 -1.1270 -2.1912
10057TIP3   OH251661   1.398   4.305  10.353 -0.6310  0.3872  0.6931
10057TIP3    H151662   1.412   4.223  10.306 -0.1495  2.1127 -2.4338
10057TIP3    H251663   1.471   4.310  10.415  0.4759 -0.6167 -0.4787
10058TIP3   OH251664   5.921   4.855   1.488 -0.4086 -0.3656  0.2672
10058TIP3    H151665   5.915   4.945   1.520 -0.9314 -0.1835 -0.3363
10058TIP3    H251666   6.015   4.839   1.478 -0.2552 -0.2437  1.3513
10059TIP3   OH251667   1.270   4.555   5.073  0.3905  0.5210 -0.5502
10059TIP3    H151668   1.222   4.529   5.151  0.4184  1.6861 -0.1183
10059TIP3    H251669   1.362   4.539   5.095  0.4329  1.2478 -0.1681
10060TIP3   OH251670   5.518   3.707   6.125  0.2178  0.0009  0.5339
10060TIP3    H151671   5.544   3.757   6.202  0.4657  0.4772  0.1503
10060TIP3    H251672   5.586   3.725   6.060 -0.5211  0.4549 -0.1420
10061TIP3   OH251673   4.907   4.347   4.301 -0.5047 -0.3249  0.2038
10061TIP3    H151674   4.885   4.396   4.222 -2.5909 -0.1814  0.8210
10061TIP3    H251675   4.910   4.413   4.371  0.0822 -0.6207  0.4664
10062TIP3   OH251676   0.153   2.231   2.052 -0.5149 -0.2184 -0.7770
10062TIP3    H151677   0.137   2.159   2.112  0.1907  2.1535  2.5167
10062TIP3    H251678   0.073   2.284   2.057  0.6201  1.4611  0.3431
10063TIP3   OH251679   4.592   0.285  12.961  0.4543  0.1840  0.8477
10063TIP3    H151680   4.506   0.325  12.948  0.0382 -0.0224  2.6841
10063TIP3    H251681   4.654   0.350  12.929 -0.3751 -0.0720 -1.4447
10064TIP3   OH251682   4.216   5.182   1.087 -0.5036 -0.4731 -0.0813
10064TIP3    H151683   4.166   5.109   1.051  0.4926 -0.8667 -0.6932
10064TIP3    H251684   4.266   5.216   1.013  1.8761 -1.5281  0.9297
10065TIP3   OH251685   6.038   3.831   1.696  0.3367 -0.0560  0.0256
10065TIP3    H151686   6.036   3.756   1.637 -0.2202  0.6570 -0.8736
10065TIP3    H251687   6.130   3.837   1.723  0.3575 -1.1736  0.2879
10066TIP3   OH251688   6.692   6.541  14.882 -0.3302 -0.8081  0.1831
10066TIP3    H151689   6.723   6.462  14.926 -1.8795 -2.0750 -0.9043
10066TIP3    H251690   6.629   6.579  14.944  0.6422 -0.2249  0.8380
10067TIP3   OH251691   0.322   3.360   2.602  0.0804 -0.0037 -0.2220
10067TIP3    H151692   0.253   3.299   2.625 -0.0079  0.5597  1.0814
10067TIP3    H251693   0.361   3.324   2.522 -0.3655 -1.4158  0.1797
10068TIP3   OH251694   3.319   2.167   0.272 -0.4095 -0.0627 -1.0538
10068TIP3    H151695   3.284   2.090   0.316  1.5068  0.3072  1.2803
10068TIP3    H251696   3.396   2.134   0.224  1.3696  0.5326  1.2215
10069TIP3   OH251697   4.622   1.153  11.109 -0.0191  0.1373 -0.0864
10069TIP3    H151698   4.628   1.058  11.122  2.3166  0.1044 -1.0110
10069TIP3    H251699   4.607   1.164  11.015  0.9565  0.6702 -0.1967
10070TIP3   OH251700   5.442   2.557   1.011 -0.3248  0.0548  0.2233
10070TIP3    H151701   5.513   2.605   1.052 -0.2280  0.7210 -0.6889
10070TIP3    H251702   5.362   2.602   1.040 -0.2904  0.1677  0.1432
10071TIP3   OH251703   6.123   2.265  13.918  0.4052  0.8752  0.0434
10071TIP3    H151704   6.209   2.300  13.894  0.0492  2.0272  0.3809
10071TIP3    H251705   6.079   2.250  13.834  0.8450  0.4957 -0.1256
10072TIP3   OH251706   6.005   1.515  15.215 -0.1376 -0.4800 -0.2030
10072TIP3    H151707   5.992   1.430  15.257 -0.6909 -0.2656  0.0629
10072TIP3    H251708   5.934   1.569  15.248  1.2723  0.6569  1.1053
10073TIP3   OH251709   0.307   5.303   2.580 -0.5702 -0.2008  0.1755
10073TIP3    H151710   0.318   5.236   2.647 -2.1646 -0.6323  0.0432
10073TIP3    H251711   0.225   5.347   2.603 -1.0334 -0.2125 -1.3273
10074TIP3   OH251712   2.681   0.362  16.133 -0.3108 -0.4772  0.1872
10074TIP3    H151713   2.764   0.349  16.178 -0.5583  0.0345  0.8140
10074TIP3    H251714   2.615   0.347  16.201 -0.7030 -0.0517 -0.0972
10075TIP3   OH251715   2.771   5.630   6.399 -0.2311  0.2343  0.3097
10075TIP3    H151716   2.761   5.579   6.479 -2.4974 -0.9637 -0.6502
10075TIP3    H251717   2.832   5.700   6.422  0.4132 -0.9926  2.5987
10076TIP3   OH251718   4.366   2.239  16.533 -0.0364 -0.5674 -0.6050
10076TIP3    H151719   4.362   2.330  16.503 -0.3113 -0.9851 -1.9294
10076TIP3    H251720   4.458   2.216  16.526  0.0913 -0.2950  0.0831
10077TIP3   OH251721   6.095   3.076   3.378  0.3050  0.0184  0.2718
10077TIP3    H151722   6.156   3.145   3.406  0.2860  0.0037  0.3507
10077TIP3    H251723   6.139   3.033   3.305  1.2834 -1.2638  1.5417
10078TIP3   OH251724   1.330   0.543   6.216  0.6164  0.1542 -0.9364
10078TIP3    H151725   1.317   0.633   6.248  0.5739  0.4578 -1.7915
10078TIP3    H251726   1.385   0.502   6.283 -1.2675  0.0899  0.6619
10079TIP3   OH251727   1.719   6.270  13.310 -0.7495 -0.5297  0.5503
10079TIP3    H151728   1.813   6.251  13.305 -0.8754 -1.0495  0.1060
10079TIP3    H251729   1.700   6.274  13.404  0.1212  1.6602  0.7074
10080TIP3   OH251730   2.037   6.013   1.411  0.1193  0.4492  0.0419
10080TIP3    H151731   2.117   5.972   1.379 -0.1809 -0.4924  0.4729
10080TIP3    H251732   2.052   6.026   1.505 -0.7938 -1.1263  0.4328
10081TIP3   OH251733   3.907   3.469   2.257  0.0152  0.3785 -0.4110
10081TIP3    H151734   3.959   3.447   2.180  1.4785 -0.5401  0.7764
10081TIP3    H251735   3.961   3.443   2.331 -0.9776  2.0003  0.9775
10082TIP3   OH251736   6.604   0.462   2.447  0.1588  0.3688  0.2319
10082TIP3    H151737   6.699   0.452   2.438  0.1108 -0.5021  0.5987
10082TIP3    H251738   6.593   0.529   2.515  0.4951  2.3078 -1.5048
10083TIP3   OH251739   3.795   3.037   0.085  0.1148 -0.5078 -0.6905
10083TIP3    H151740   3.801   3.132   0.071  0.8886 -0.4605 -0.1124
10083TIP3    H251741   3.884   3.005   0.069  1.0635 -0.5136  3.3383
10084TIP3   OH251742   2.722   4.190  17.159 -0.2619 -0.1185  0.3470
10084TIP3    H151743   2.782   4.231  17.097 -0.1328  0.1656  0.6584
10084TIP3    H251744   2.667   4.133  17.105 -0.3288  0.3335 -0.0708
10085TIP3   OH251745   0.492   1.785   0.226  0.2715 -0.1006 -0.5428
10085TIP3    H151746   0.551   1.758   0.297 -1.0767 -1.7179  0.0146
10085TIP3    H251747   0.544   1.847   0.175  1.4846  0.7002  1.5231
10086TIP3   OH251748   0.946   6.069   3.405 -0.7135 -0.7895  0.3952
10086TIP3    H151749   0.896   6.055   3.485 -1.3580 -0.2092  0.1012
10086TIP3    H251750   0.898   6.137   3.358 -0.1989 -0.9363 -0.3632
10087TIP3   OH251751   6.087   0.931   0.987  0.4504  0.7704 -0.0069
10087TIP3    H151752   6.180   0.910   0.995  0.5517  0.1642 -2.1208
10087TIP3    H251753   6.041   0.852   1.015  0.5534  1.0058  0.8591
10088TIP3   OH251754   6.036   3.971   3.233  0.5637 -0.7789 -0.1504
10088TIP3    H151755   6.025   3.975   3.328  1.2222  0.8367 -0.0965
10088TIP3    H251756   6.080   3.888   3.217 -0.1891 -1.3934  0.8812
10089TIP3   OH251757   5.508   3.008   1.635 -0.4633 -0.2108  0.2687
10089TIP3    H151758   5.527   2.959   1.555  1.2215  1.5490 -0.4910
10089TIP3    H251759   5.520   3.099   1.611 -1.6629  0.4917  2.1146
10090TIP3   OH251760   0.931   1.136  16.783  0.7210 -0.0236  0.3910
10090TIP3    H151761   0.926   1.049  16.821 -0.4180 -0.0669  0.1788
10090TIP3    H251762   0.859   1.184  16.824 -0.0518  0.1537 -1.1275
10091TIP3   OH251763   3.910   0.178  11.844  0.2412 -0.2306  0.4301
10091TIP3    H151764   3.971   0.150  11.776 -0.6054  0.4434 -0.6353
10091TIP3    H251765   3.946   0.260  11.877 -0.4327  0.5330 -0.6899
10092TIP3   OH251766   0.282   5.234  17.044 -0.1121  0.1312  0.0191
10092TIP3    H151767   0.377   5.247  17.048  0.0797 -1.2000 -0.0222
10092TIP3    H251768   0.271   5.142  17.022 -1.4270  0.2202  0.2462
10093TIP3   OH251769   0.251   5.174   5.160  0.2577  0.3009  0.1235
10093TIP3    H151770   0.180   5.199   5.219  1.2297 -1.7773  2.3828
10093TIP3    H251771   0.304   5.254   5.151 -0.6431  1.0222  0.9976
10094TIP3   OH251772   0.895   1.734   0.481 -0.3667 -0.2801 -0.3180
10094TIP3    H151773   0.901   1.641   0.457  1.7216 -0.2590 -0.1108
10094TIP3    H251774   0.952   1.779   0.418 -0.3967  0.6923  0.3297
10095TIP3   OH251775   4.141   1.663  14.004  0.0208  0.0982  0.0283
10095TIP3    H151776   4.060   1.710  13.983  0.6124  2.0530  1.8078
10095TIP3    H251777   4.204   1.732  14.022  1.5690 -1.4152  0.5635
10096TIP3   OH251778   4.122   3.004  13.532  0.1400 -0.1776 -0.0330
10096TIP3    H151779   4.041   2.966  13.500 -0.0490 -1.5667  1.8947
10096TIP3    H251780   4.191   2.946  13.501  0.0274 -1.0662  1.2970
10097TIP3   OH251781   6.606   4.440  15.838  0.2107  0.4944  0.0269
10097TIP3    H151782   6.677   4.457  15.778  0.6292 -1.0034  0.0420
10097TIP3    H251783   6.527   4.440  15.783  0.4283  0.4841 -0.2857
10098TIP3   OH251784   3.079   3.328  11.001  0.4227 -0.2671 -0.6132
10098TIP3    H151785   3.041   3.240  11.007  3.3312 -1.5696  0.9299
10098TIP3    H251786   3.021   3.375  10.941 -1.2148 -3.2482 -1.6029
10099TIP3   OH251787   5.592   4.920   1.751 -0.1766  0.2845  0.0035
10099TIP3    H151788   5.587   4.940   1.844  3.3317  1.2690  0.1273
10099TIP3    H251789   5.649   4.844   1.746 -0.2653  0.2817 -1.3382
10100TIP3   OH251790   3.362   2.583   0.990 -0.2935  0.0853 -0.4845
10100TIP3    H151791   3.327   2.525   0.922  0.4377 -1.2531  0.2334
10100TIP3    H251792   3.316   2.557   1.069 -0.0035  0.5448 -0.1623
10101TIP3   OH251793   2.269   5.080  13.048 -0.4232 -0.2956  0.5222
10101TIP3    H151794   2.329   5.006  13.058  0.5979  0.6809  2.0913
10101TIP3    H251795   2.286   5.112  12.960 -2.3132 -3.0591 -0.9930
10102TIP3   OH251796   3.899   4.866   1.886 -0.3726  0.2319  0.0179
10102TIP3    H151797   3.882   4.798   1.821  0.1588  0.3083 -0.2074
10102TIP3    H251798   3.812   4.897   1.912 -0.5834  0.3964 -0.8596
10103TIP3   OH251799   6.089   5.103  13.972 -0.2056  0.5825  0.2434
10103TIP3    H151800   6.012   5.103  13.915 -0.0869 -0.2831  0.0567
10103TIP3    H251801   6.163   5.113  13.912  0.0850 -2.4902 -0.1014
10104TIP3   OH251802   1.055   0.381   1.603 -0.3456  0.0142  0.3969
10104TIP3    H151803   1.131   0.391   1.545 -0.6145 -1.1558 -0.1793
10104TIP3    H251804   0.997   0.452   1.578  0.6451  1.0807  1.0107
10105TIP3   OH251805   4.571   3.992   1.983 -0.0988 -0.1683  0.2810
10105TIP3    H151806   4.489   3.962   1.945 -0.3150 -1.1399  1.4264
10105TIP3    H251807   4.569   4.087   1.975 -1.2739 -0.1900  0.1793
10106TIP3   OH251808   1.752   5.216  11.171  0.0388 -0.0708 -0.1851
10106TIP3    H151809   1.803   5.196  11.092 -0.7162  0.3521 -0.7913
10106TIP3    H251810   1.763   5.139  11.226  1.6270  0.1516 -0.1356
10107TIP3   OH251811   5.709   6.459  15.809  0.0444  0.2076 -0.6272
10107TIP3    H151812   5.789   6.442  15.858  0.1521 -1.9562 -1.4539
10107TIP3    H251813   5.714   6.552  15.786  1.4436  0.5273  0.8243
10108TIP3   OH251814   0.445   0.899  16.157 -0.2145 -0.2926  0.6373
10108TIP3    H151815   0.409   0.981  16.121 -0.7641 -1.1842 -0.9308
10108TIP3    H251816   0.401   0.830  16.108 -0.7296 -1.6023  2.8437
10109TIP3   OH251817   6.762   1.712  14.062  0.1830  0.2393  0.4143
10109TIP3    H151818   6.799   1.771  14.127 -0.8808  0.7862  0.5300
10109TIP3    H251819   6.675   1.690  14.095 -0.8876  1.4919 -1.3755
10110TIP3   OH251820   2.906   5.536   3.676  0.3146 -0.4966  0.3150
10110TIP3    H151821   2.945   5.599   3.615  1.3506  0.3416  1.7513
10110TIP3    H251822   2.824   5.510   3.635 -0.7846  2.7470  0.1785
10111TIP3   OH251823   3.535   0.205  15.299 -0.8586  0.1787 -0.2048
10111TIP3    H151824   3.517   0.126  15.249 -1.0847  0.6166 -0.8275
10111TIP3    H251825   3.493   0.190  15.384  1.1493 -1.3621  0.5866
10112TIP3   OH251826   2.773   6.145   3.632  0.2382  0.3870  0.4323
10112TIP3    H151827   2.798   6.146   3.724  0.1889 -0.3956  0.4600
10112TIP3    H251828   2.712   6.072   3.624  0.3047  0.3965 -0.2394
10113TIP3   OH251829   3.999   0.349  11.213  0.9045  0.1885 -0.5352
10113TIP3    H151830   4.087   0.376  11.189  2.0621 -3.0869 -0.5835
10113TIP3    H251831   3.965   0.306  11.135 -0.2126  0.2366 -0.0958
10114TIP3   OH251832   5.458   1.425  13.026  0.1909  0.5514  0.3815
10114TIP3    H151833   5.400   1.358  12.990 -0.6919  1.1422  0.6684
10114TIP3    H251834   5.545   1.386  13.021  0.2672  0.8666 -3.0774
10115TIP3   OH251835   2.396   6.282   1.650 -0.0768 -0.1967  0.4169
10115TIP3    H151836   2.321   6.329   1.614  1.4978  1.2386 -1.1534
10115TIP3    H251837   2.360   6.200   1.682 -2.2465  0.2941 -0.6338
10116TIP3   OH251838   4.015   3.977   3.357 -0.9352 -0.0172  0.3583
10116TIP3    H151839   3.929   3.950   3.388 -0.4901 -0.9104  0.8385
10116TIP3    H251840   4.001   4.065   3.320 -2.1457 -0.3784 -0.0676
10117TIP3   OH251841   4.076   0.867   4.047  0.1467 -0.1206  0.5326
10117TIP3    H151842   4.041   0.821   3.971 -2.9301 -0.2363  1.8528
10117TIP3    H251843   4.120   0.800   4.099  0.8967 -0.3396 -0.3671
10118TIP3   OH251844   5.622   6.023  10.534  0.2685 -0.3215 -0.7562
10118TIP3    H151845   5.645   5.983  10.450  1.4282 -1.6461  0.1529
10118TIP3    H251846   5.548   5.970  10.566 -0.8173  0.7925 -1.3689
10119TIP3   OH251847   0.054   6.144  11.044  0.0720 -0.0493  0.5741
10119TIP3    H151848   0.078   6.227  11.086 -0.1559 -0.7256  2.1103
10119TIP3    H251849   0.019   6.169  10.959  0.3497  1.4055  0.8640
10120TIP3   OH251850   1.756   4.363  13.593  0.4862 -0.1580 -0.3012
10120TIP3    H151851   1.756   4.269  13.612 -0.0509  0.1280  1.2355
10120TIP3    H251852   1.765   4.368  13.498  2.1909 -1.7299 -0.2897
10121TIP3   OH251853   4.305   3.075  12.059  0.1419  0.1796  0.3434
10121TIP3    H151854   4.357   3.137  12.008  1.1453 -1.1443 -0.3221
10121TIP3    H251855   4.348   3.074  12.145  0.0207  0.5172  0.4108
10122TIP3   OH251856   1.927   1.865   2.344  0.6192 -0.0413  0.2529
10122TIP3    H151857   1.909   1.817   2.425  0.1346  0.0683  0.2105
10122TIP3    H251858   2.015   1.901   2.356  0.5025  0.0719  0.7786
10123TIP3   OH251859   1.166   6.652  13.034  0.0563  0.3539 -0.5806
10123TIP3    H151860   1.182   6.691  13.120 -1.0814  0.5255 -0.4365
10123TIP3    H251861   1.222   6.574  13.032  0.6953  0.7878 -0.0126
10124TIP3   OH251862   5.687   3.005  12.669 -0.3280  0.9278 -0.4125
10124TIP3    H151863   5.707   3.075  12.731 -0.8133  0.1810  0.6271
10124TIP3    H251864   5.761   2.944  12.678 -1.5067 -0.3559  1.2342
10125TIP3   OH251865   4.054   0.236  16.568 -0.0136 -0.1148 -0.7416
10125TIP3    H151866   4.000   0.209  16.643  0.9675 -0.1340 -0.0328
10125TIP3    H251867   4.076   0.154  16.523 -1.6991 -0.0199 -1.8632
10126TIP3   OH251868   4.796   6.398   6.446 -0.0699  0.4131  0.0182
10126TIP3    H151869   4.791   6.378   6.353  1.6303  1.5479 -0.3725
10126TIP3    H251870   4.824   6.489   6.450 -2.7010  1.2732  1.6826
10127TIP3   OH251871   5.487   5.814  17.015  0.1743  0.5173  0.0092
10127TIP3    H151872   5.418   5.772  17.067  0.1430  0.7475  0.1519
10127TIP3    H251873   5.444   5.833  16.931  0.6953 -1.4480 -0.7688
10128TIP3   OH251874   4.674   0.988   2.103 -0.0458  0.6444  0.9461
10128TIP3    H151875   4.677   1.052   2.174  1.6860  0.7327  0.8340
10128TIP3    H251876   4.613   1.026   2.039  0.1127  1.6423  1.3720
10129TIP3   OH251877   4.054   4.344  11.567 -0.0505  0.0969 -0.5802
10129TIP3    H151878   4.037   4.322  11.658  2.0854 -0.7753 -0.3582
10129TIP3    H251879   4.017   4.432  11.557 -1.7566 -0.4343  0.6423
10130TIP3   OH251880   2.382   4.420  14.584 -0.7266  0.4773  0.1816
10130TIP3    H151881   2.421   4.505  14.564 -1.0770  0.5608 -0.1701
10130TIP3    H251882   2.301   4.441  14.629 -1.8058  0.4235 -1.6070
10131TIP3   OH251883   3.849   6.564   4.757 -0.0193  0.3537  0.1051
10131TIP3    H151884   3.897   6.638   4.795  0.9014 -0.2737  0.1824
10131TIP3    H251885   3.916   6.499   4.738 -0.6024  0.1474 -1.4512
10132TIP3   OH251886   0.047   2.099   6.024  0.4310  0.3464  0.6782
10132TIP3    H151887   0.088   2.098   6.111  3.0165  2.2654 -0.3834
10132TIP3    H251888   0.117   2.071   5.964 -1.5332 -1.7941 -0.7932
10133TIP3   OH251889   1.477   5.184  12.688  0.2112 -0.0701 -0.2960
10133TIP3    H151890   1.513   5.176  12.600 -1.3271 -1.5841 -0.8455
10133TIP3    H251891   1.385   5.158  12.678  0.3807 -1.8706  2.0339
10134TIP3   OH251892   0.609   2.137  10.641  0.2942  0.1212 -0.8307
10134TIP3    H151893   0.559   2.146  10.560 -0.0193  1.4330 -0.5196
10134TIP3    H251894   0.547   2.162  10.710  0.3136 -1.7367 -0.0823
10135TIP3   OH251895   5.095   0.821   5.971 -0.3358  0.0160  0.1097
10135TIP3    H151896   5.012   0.788   5.935 -0.5294  0.3435  0.2441
10135TIP3    H251897   5.126   0.751   6.028 -0.4244 -0.1886 -0.0929
10136TIP3   OH251898   0.606   2.067  11.901  0.1432  0.5880 -0.1236
10136TIP3    H151899   0.546   2.081  11.974  0.2711  1.6018 -0.1925
10136TIP3    H251900   0.677   2.014  11.938  0.2133  1.1080  0.5073
10137TIP3   OH251901   2.086   2.694  14.846 -0.4414 -0.2130  0.1217
10137TIP3    H151902   2.003   2.742  14.844  0.1465  0.9838  1.9328
10137TIP3    H251903   2.153   2.762  14.837  0.3892 -1.1103 -0.8047
10138TIP3   OH251904   2.471   3.782   6.457 -0.3420  0.1565  0.6540
10138TIP3    H151905   2.502   3.797   6.546  1.0251  0.9809  0.0808
10138TIP3    H251906   2.550   3.757   6.408 -1.0988 -0.4833 -0.2865
10139TIP3   OH251907   6.467   2.453  13.150  0.3783 -0.4167  0.8579
10139TIP3    H151908   6.393   2.494  13.195  0.4711 -0.5900  1.1703
10139TIP3    H251909   6.495   2.383  13.209  1.5031  0.3565  1.2624
10140TIP3   OH251910   4.564   2.312  13.464 -0.1541  0.2291  0.0489
10140TIP3    H151911   4.564   2.230  13.514  1.9124  1.3198  2.0285
10140TIP3    H251912   4.472   2.335  13.455 -0.6780 -1.1603  1.4590
10141TIP3   OH251913   5.054   3.687   5.563  0.1203  0.3851 -0.6558
10141TIP3    H151914   5.010   3.749   5.621  1.6006  0.8186  0.0476
10141TIP3    H251915   4.984   3.652   5.508 -1.0129  1.4044  0.0863
10142TIP3   OH251916   4.916   4.811  12.405 -0.0258 -0.4346 -0.0029
10142TIP3    H151917   4.879   4.873  12.468 -0.3397 -0.3677 -0.2480
10142TIP3    H251918   5.010   4.819  12.416 -0.0582  0.2206 -0.1579
10143TIP3   OH251919   5.447   1.113  14.168  0.5188 -0.4078  0.2169
10143TIP3    H151920   5.427   1.091  14.077 -0.8393 -1.8173  0.8054
10143TIP3    H251921   5.361   1.119  14.210  1.1405 -0.4055  1.5430
10144TIP3   OH251922   0.403   5.904   3.051  0.0544  0.4153  0.9752
10144TIP3    H151923   0.476   5.957   3.020  0.2689  2.2939  4.3096
10144TIP3    H251924   0.327   5.937   3.002  0.6779  1.8138  0.9191
10145TIP3   OH251925   6.442   5.707  13.090 -0.4034 -0.0151 -0.3431
10145TIP3    H151926   6.368   5.719  13.150 -0.1759  1.4885 -0.3400
10145TIP3    H251927   6.403   5.706  13.003 -0.4623  0.5343 -0.3267
10146TIP3   OH251928   5.539   0.762   3.156  0.3003  0.1364 -0.2013
10146TIP3    H151929   5.528   0.821   3.231 -0.6069 -1.1837  0.7631
10146TIP3    H251930   5.456   0.714   3.152  0.6983 -0.4726 -1.4837
10147TIP3   OH251931   5.350   6.720  16.139 -0.3473  0.7372 -0.3370
10147TIP3    H151932   5.369   6.665  16.214 -0.9645  0.2034 -0.5526
10147TIP3    H251933   5.304   6.662  16.078 -1.5356  1.6340 -0.3301
10148TIP3   OH251934   2.746   3.749   0.812 -0.2385 -0.0661 -0.2002
10148TIP3    H151935   2.822   3.718   0.763  0.0607 -0.5836  0.5718
10148TIP3    H251936   2.671   3.709   0.768 -0.0580  0.2950 -0.8502
10149TIP3   OH251937   4.101   6.330  13.323 -0.5389 -0.6932 -0.7771
10149TIP3    H151938   4.093   6.238  13.347  1.2976 -0.0359  3.0763
10149TIP3    H251939   4.031   6.375  13.370 -1.2316 -0.0089 -2.3706
10150TIP3   OH251940   4.165   2.206  15.637 -0.7895 -0.3239 -0.0862
10150TIP3    H151941   4.261   2.207  15.632 -0.7576 -1.1954  0.2413
10150TIP3    H251942   4.141   2.114  15.623 -1.3906 -0.7516  3.1190
10151TIP3   OH251943   0.194   0.813  14.318  0.1735  0.8821 -0.4222
10151TIP3    H151944   0.224   0.780  14.403  0.7864  0.1606 -0.9069
10151TIP3    H251945   0.203   0.908  14.324  1.1811  0.7755 -0.0247
10152TIP3   OH251946   5.597   0.041   4.175 -0.0877  0.4989  0.4384
10152TIP3    H151947   5.687   0.073   4.181  0.0613  0.2444 -0.4054
10152TIP3    H251948   5.572   0.026   4.266  0.4507  1.3148  0.7371
10153TIP3   OH251949   5.479   5.114  16.816  0.8983  0.2590 -0.0803
10153TIP3    H151950   5.417   5.118  16.888 -0.1558 -1.1695 -0.8536
10153TIP3    H251951   5.438   5.056  16.752  3.1375 -0.9473 -0.5294
10154TIP3   OH251952   4.204   6.026  16.346  0.1015 -0.5569 -0.3575
10154TIP3    H151953   4.174   6.087  16.279 -1.9392  1.1165  1.9008
10154TIP3    H251954   4.228   6.081  16.420  0.1640 -2.4178  1.0927
10155TIP3   OH251955   4.593   4.308  13.051 -0.2571 -0.1883 -0.2530
10155TIP3    H151956   4.545   4.390  13.046  0.0151  0.0468  0.6687
10155TIP3    H251957   4.568   4.271  13.136  0.0635 -0.7733 -0.4092
10156TIP3   OH251958   3.613   3.230   2.388  0.2574 -0.2242  0.1248
10156TIP3    H151959   3.651   3.267   2.468 -1.3690 -1.9699  1.8087
10156TIP3    H251960   3.546   3.169   2.419 -3.4861  2.0883 -2.6050
10157TIP3   OH251961   5.764   3.848   1.799  0.1123  0.3817  0.3006
10157TIP3    H151962   5.858   3.829   1.798  0.4004  1.2172  3.2545
10157TIP3    H251963   5.759   3.943   1.808 -0.8894  0.1763  2.6524
10158TIP3   OH251964   1.213   4.849  16.558  0.0668  0.1132  0.0892
10158TIP3    H151965   1.227   4.861  16.652 -0.8430 -2.4581  0.6268
10158TIP3    H251966   1.295   4.809  16.526 -0.3253 -0.7815  0.1868
10159TIP3   OH251967   1.704   0.580   4.319  0.6194  0.0828  0.1970
10159TIP3    H151968   1.629   0.603   4.374  1.1414 -0.7884  1.3046
10159TIP3    H251969   1.672   0.510   4.263  0.8162 -0.8710  1.2471
10160TIP3   OH251970   1.057   6.152  15.815  0.4492  0.4317 -0.3888
10160TIP3    H151971   0.962   6.142  15.809  0.4939 -1.7503  1.2390
10160TIP3    H251972   1.091   6.064  15.798  2.4224  1.6486 -3.5678
10161TIP3   OH251973   0.526   3.451  16.664  0.1045  0.0123  0.3483
10161TIP3    H151974   0.596   3.385  16.674 -0.1136 -0.0944  1.2982
10161TIP3    H251975   0.524   3.470  16.571  0.3529 -1.1410  0.0935
10162TIP3   OH251976   0.541   5.057   5.463  0.4666  0.0890  0.4887
10162TIP3    H151977   0.585   5.036   5.545 -0.3466 -0.3487  0.8259
10162TIP3    H251978   0.601   5.116   5.417  1.1558 -0.0845  1.1633
10163TIP3   OH251979   0.848   2.695   1.528 -0.2314  0.4128 -0.3440
10163TIP3    H151980   0.860   2.677   1.621  0.3579 -1.2253 -0.7011
10163TIP3    H251981   0.775   2.757   1.525 -0.3193  0.4326  1.1897
10164TIP3   OH251982   5.166   2.214  13.249 -0.1854  0.1914 -0.2467
10164TIP3    H151983   5.132   2.125  13.245  0.9755 -0.2894  0.0389
10164TIP3    H251984   5.251   2.205  13.293 -0.5791  1.6091  0.8451
10165TIP3   OH251985   1.760   5.197   5.103  0.2241  0.4501  0.0931
10165TIP3    H151986   1.826   5.131   5.084  0.8580  1.3184 -0.8069
10165TIP3    H251987   1.808   5.269   5.143 -0.4195  0.4934  0.8147
10166TIP3   OH251988   5.328   4.869   2.712  0.5586 -0.0455 -0.4835
10166TIP3    H151989   5.264   4.815   2.758  0.1912 -0.1208 -1.0686
10166TIP3    H251990   5.295   4.872   2.622  0.3552  1.4831 -0.3733
10167TIP3   OH251991   5.182   5.581   5.353 -0.0667  0.0507  0.0043
10167TIP3    H151992   5.235   5.577   5.433  1.1495 -0.3412 -0.7977
10167TIP3    H251993   5.097   5.616   5.382  0.4228  0.1196  1.4193
10168TIP3   OH251994   6.213   4.759   5.339  0.0776  0.4310  0.8717
10168TIP3    H151995   6.215   4.828   5.404  0.9673  0.7721  0.4937
10168TIP3    H251996   6.220   4.804   5.255  1.5478 -0.1555  0.6557
10169TIP3   OH251997   6.197   5.985   2.969 -0.0279 -0.6223  0.4874
10169TIP3    H151998   6.243   5.969   2.887 -1.2223  1.3952 -0.6540
10169TIP3    H251999   6.119   5.930   2.964 -0.2783 -0.2387  0.0849
10170TIP3   OH252000   0.840   4.605   2.141 -0.9673 -0.1354  0.3228
10170TIP3    H152001   0.817   4.531   2.086 -1.2849  0.2625 -0.0928
10170TIP3    H252002   0.857   4.567   2.227 -2.2307 -0.5789  0.4017
10171TIP3   OH252003   5.737   6.813   0.240 -0.1676 -0.5280  0.0435
10171TIP3    H152004   5.711   6.851   0.157  1.1321  1.1946  0.3853
10171TIP3    H252005   5.656   6.814   0.293 -0.1763  1.9355  0.0759
10172TIP3   OH252006   1.755   5.209  14.012  0.3441  0.5349 -0.3702
10172TIP3    H152007   1.698   5.196  13.936 -2.2382 -1.0601  1.6572
10172TIP3    H252008   1.709   5.274  14.066  0.7386 -0.2789  1.0004
10173TIP3   OH252009   5.435   1.385   2.910 -0.2651  0.7874  0.5071
10173TIP3    H152010   5.355   1.385   2.859  0.7068  0.6305 -1.0658
10173TIP3    H252011   5.418   1.325   2.982 -1.1125 -0.2505 -0.5315
10174TIP3   OH252012   5.713   5.044   3.366 -0.2010  0.5801 -0.1487
10174TIP3    H152013   5.797   5.031   3.410 -0.6144 -0.6117  0.3025
10174TIP3    H252014   5.732   5.109   3.299  0.5755  2.0201  1.3880
10175TIP3   OH252015   3.541   3.391   6.122 -0.3510 -0.3649  0.6761
10175TIP3    H152016   3.517   3.451   6.193  0.0985  1.5040 -0.6824
10175TIP3    H252017   3.458   3.362   6.086 -0.5753 -0.1829  1.0408
10176TIP3   OH252018   1.529   0.301  16.037 -0.0033 -0.0080 -0.3656
10176TIP3    H152019   1.562   0.279  15.951 -0.2033 -0.0763 -0.4249
10176TIP3    H252020   1.434   0.292  16.030 -0.0820  0.7340 -0.3556
10177TIP3   OH252021   3.175   6.469   6.708  0.3133  0.3212 -0.1301
10177TIP3    H152022   3.142   6.521   6.781  0.3688  0.4742 -0.2119
10177TIP3    H252023   3.098   6.426   6.671  0.1041  1.1738 -0.7155
10178TIP3   OH252024   0.349   2.707  14.018 -0.3278 -0.4697 -0.1770
10178TIP3    H152025   0.427   2.657  13.993  1.0561  1.5976 -0.2027
10178TIP3    H252026   0.353   2.712  14.113  0.6887  1.2547 -0.2700
10179TIP3   OH252027   0.715   2.330   2.969  0.0541  0.3278  0.2042
10179TIP3    H152028   0.779   2.398   2.949 -1.0153  1.3011 -0.0317
10179TIP3    H252029   0.656   2.371   3.033 -0.7659 -0.2781 -0.1518
10180TIP3   OH252030   5.201   6.363   5.065 -0.0191  0.4090  0.1385
10180TIP3    H152031   5.221   6.446   5.021  0.8081 -0.5908 -1.4764
10180TIP3    H252032   5.286   6.327   5.089  0.0862 -2.0276 -3.2273
10181TIP3   OH252033   0.418   5.025  15.356  0.2522 -0.3490 -0.0691
10181TIP3    H152034   0.329   5.060  15.357  0.3040 -0.1484 -1.1230
10181TIP3    H252035   0.472   5.095  15.394  0.2670  0.4986 -1.5711
10182TIP3   OH252036   1.278   0.916  11.020  0.4380 -0.2957  0.1753
10182TIP3    H152037   1.244   0.838  11.064  2.0342 -0.8618  0.4997
10182TIP3    H252038   1.247   0.908  10.930  2.4337 -2.6079 -0.4372
10183TIP3   OH252039   0.525   6.153   3.735  0.2531  0.2929  0.4053
10183TIP3    H152040   0.568   6.126   3.817  1.3683 -0.0674 -0.2790
10183TIP3    H252041   0.558   6.242   3.720  1.8557 -0.4661 -0.8111
10184TIP3   OH252042   2.373   4.101  12.029 -0.1150 -0.2891  0.1285
10184TIP3    H152043   2.462   4.134  12.022  0.1477 -0.7987  0.9116
10184TIP3    H252044   2.361   4.084  12.122 -0.1842 -2.4922 -0.2183
10185TIP3   OH252045   4.003   3.364  12.105 -0.6950 -0.1859  0.4349
10185TIP3    H152046   4.003   3.454  12.072  0.0835 -0.8720 -1.6444
10185TIP3    H252047   3.945   3.366  12.181 -0.8758  2.0138  0.3055
10186TIP3   OH252048   0.867   6.115   0.002  0.7469  0.5678 -0.5871
10186TIP3    H152049   0.955   6.143   0.027  2.0221 -1.6764 -2.1973
10186TIP3    H252050   0.835   6.185  -0.056  0.7877  2.1129  1.1499
10187TIP3   OH252051   2.842   5.267  11.349  0.3529 -0.5858 -0.1992
10187TIP3    H152052   2.875   5.352  11.321 -0.2019  0.2865  1.6608
10187TIP3    H252053   2.878   5.205  11.285  2.7106  0.7256 -0.2526
10188TIP3   OH252054   1.974   5.859   0.218  0.0049  0.1721  0.6490
10188TIP3    H152055   1.908   5.789   0.215  1.2824 -1.0873 -2.5968
10188TIP3    H252056   1.931   5.933   0.174  0.3858 -0.3622 -0.6740
10189TIP3   OH252057   6.784   4.677  16.708 -0.2487 -0.2379 -0.1000
10189TIP3    H152058   6.818   4.758  16.670  0.0972 -0.0479  0.5910
10189TIP3    H252059   6.738   4.633  16.636 -1.7563  1.2962 -0.1426
10190TIP3   OH252060   2.321   6.544   1.579  0.1007  0.1768 -0.3333
10190TIP3    H152061   2.314   6.639   1.592  0.6875  0.3497 -1.2043
10190TIP3    H252062   2.399   6.519   1.628  0.4435  0.2919 -0.8151
10191TIP3   OH252063   4.083   5.887   5.947  0.2089 -0.0327  0.0940
10191TIP3    H152064   4.021   5.822   5.982 -0.2689  0.8671  0.9980
10191TIP3    H252065   4.168   5.858   5.979 -0.0999  0.2080  1.2050
10192TIP3   OH252066   1.403   5.120   5.077  0.0458  0.0846  0.0870
10192TIP3    H152067   1.420   5.061   5.004  0.9114 -0.3845  0.6535
10192TIP3    H252068   1.466   5.095   5.144  0.3445  1.5587  0.3963
10193TIP3   OH252069   0.494   4.274   4.213  0.7784 -0.0346 -0.2104
10193TIP3    H152070   0.523   4.187   4.185 -0.8986 -0.7977  0.3377
10193TIP3    H252071   0.499   4.327   4.134 -0.8716 -1.3617 -1.2671
10194TIP3   OH252072   4.861   3.355  15.930  0.3322 -0.1986 -0.5399
10194TIP3    H152073   4.893   3.396  16.010  0.5732 -1.4471  0.0313
10194TIP3    H252074   4.930   3.293  15.906 -0.1209 -0.4496 -1.2409
10195TIP3   OH252075   4.125   6.220  14.053  0.6920  0.5777 -0.0752
10195TIP3    H152076   4.171   6.256  13.977  0.0094 -0.3999 -0.9763
10195TIP3    H252077   4.187   6.230  14.125  1.6895  0.7564 -0.9274
10196TIP3   OH252078   4.991   3.170   4.572  0.0848 -0.3014  0.1140
10196TIP3    H152079   4.966   3.262   4.570 -0.0294 -0.3329  0.1046
10196TIP3    H252080   4.962   3.139   4.658 -0.1324 -0.4010  0.0062
10197TIP3   OH252081   0.980   2.340  12.960  0.2293  0.4082 -0.6315
10197TIP3    H152082   1.057   2.326  13.015  0.8836  1.4306 -1.2352
10197TIP3    H252083   1.014   2.335  12.870 -0.1497  2.0203 -0.9058
10198TIP3   OH252084   6.509   0.415  15.107 -0.0900 -0.2904  0.0443
10198TIP3    H152085   6.417   0.439  15.108  0.1514  0.6588  1.5897
10198TIP3    H252086   6.518   0.352  15.178  0.3627 -0.7976 -0.4489
10199TIP3   OH252087   1.361   4.901   3.294 -0.2988  0.1894 -0.1376
10199TIP3    H152088   1.404   4.927   3.212 -0.3693  0.2511 -0.1553
10199TIP3    H252089   1.274   4.942   3.289  0.2422  1.5074  0.6545
10200TIP3   OH252090   0.871   2.009   5.999 -0.2214  0.1676  0.0754
10200TIP3    H152091   0.867   1.991   6.093  0.3231 -0.8360 -0.0816
10200TIP3    H252092   0.827   2.093   5.989 -0.4012  0.2243  1.2121
10201TIP3   OH252093   6.510   5.859   4.212  0.5464  0.1110 -1.0328
10201TIP3    H152094   6.550   5.944   4.227 -1.7443  1.0371  0.2993
10201TIP3    H252095   6.466   5.867   4.128  0.5530  0.1485 -1.0325
10202TIP3   OH252096   6.263   4.772   2.546  0.1262  0.9752 -0.7524
10202TIP3    H152097   6.255   4.693   2.599 -0.0401  0.5463 -1.3994
10202TIP3    H252098   6.357   4.792   2.546  0.2381  0.4707 -1.0127
10203TIP3   OH252099   3.606   5.993  12.830  0.6376  0.1833 -0.1413
10203TIP3    H152100   3.562   5.944  12.761 -2.4806 -1.0723  2.4591
10203TIP3    H252101   3.580   6.084  12.814 -0.3710 -0.1414 -0.4780
10204TIP3   OH252102   3.205   2.328   1.441  0.2929 -0.5706 -0.2004
10204TIP3    H152103   3.266   2.338   1.514  0.7168 -0.2374 -0.6016
10204TIP3    H252104   3.217   2.407   1.388 -0.1036 -0.7540 -0.5689
10205TIP3   OH252105   1.572   1.560   3.076  0.2063  0.4473 -0.3867
10205TIP3    H152106   1.662   1.529   3.080  0.7913  2.1157  2.3833
10205TIP3    H252107   1.519   1.481   3.080  1.5202 -0.4979 -0.8476
10206TIP3   OH252108   6.036   6.652   1.687  0.1054 -0.2441  0.0071
10206TIP3    H152109   6.097   6.714   1.727 -0.8610  1.6705 -1.3216
10206TIP3    H252110   5.962   6.648   1.748  0.2816 -0.3302  0.2195
10207TIP3   OH252111   5.018   3.593  15.201  0.1440  0.2373 -0.6150
10207TIP3    H152112   5.096   3.558  15.158  0.6186  0.9294 -0.3245
10207TIP3    H252113   4.969   3.515  15.228  1.0264 -0.2058 -0.2548
10208TIP3   OH252114   6.077   1.741  11.823 -0.0743 -0.0955  0.1375
10208TIP3    H152115   6.053   1.675  11.758 -2.0598  1.5056 -0.8481
10208TIP3    H252116   5.995   1.786  11.845  0.5904 -0.1804  3.3931
10209TIP3   OH252117   3.427   5.122   0.331  0.1512 -0.4826 -0.2641
10209TIP3    H152118   3.342   5.087   0.305 -1.4329  2.0325  1.0815
10209TIP3    H252119   3.469   5.050   0.379 -1.3163 -1.7196 -0.7508
10210TIP3   OH252120   6.764   2.394   2.161  0.2572  0.1106 -0.1595
10210TIP3    H152121   6.735   2.484   2.145 -0.4276 -0.1765 -0.6036
10210TIP3    H252122   6.725   2.370   2.245 -1.0515 -0.3644 -0.8805
10211TIP3   OH252123   1.914   5.880  14.423  0.1625 -0.0987  0.1628
10211TIP3    H152124   1.998   5.890  14.379 -0.7893 -0.1659 -1.7583
10211TIP3    H252125   1.861   5.827  14.363 -1.1379 -0.3793  1.4967
10212TIP3   OH252126   4.470   2.094  11.721 -0.2233 -0.3539  0.2521
10212TIP3    H152127   4.537   2.144  11.675 -0.1525 -1.3058 -0.6971
10212TIP3    H252128   4.392   2.100  11.665 -0.4101 -0.7495  0.4657
10213TIP3   OH252129   4.598   2.636  12.238 -0.6398 -0.1068 -0.4537
10213TIP3    H152130   4.554   2.719  12.217 -0.2811  0.4407  0.8130
10213TIP3    H252131   4.690   2.661  12.251 -0.2799 -0.9347 -1.3024
10214TIP3   OH252132   1.248   2.994  12.171 -0.4197 -0.1058  0.4041
10214TIP3    H152133   1.296   3.019  12.092  1.6139 -0.7535  1.3710
10214TIP3    H252134   1.285   3.048  12.240 -2.0409  0.3131  1.0057
10215TIP3   OH252135   4.450   4.999  15.748  0.3493 -0.2333  0.1264
10215TIP3    H152136   4.534   5.005  15.702  0.5260 -1.3773  0.2727
10215TIP3    H252137   4.465   5.040  15.833  0.1873  1.3592 -0.5851
10216TIP3   OH252138   5.968   0.305  11.913  0.3611  0.4451 -0.5269
10216TIP3    H152139   5.960   0.397  11.888 -2.4712  0.4428  0.0236
10216TIP3    H252140   5.912   0.258  11.851  1.6477 -0.9591 -0.7105
10217TIP3   OH252141   0.803   0.375   4.621  0.0081 -0.2509 -0.1757
10217TIP3    H152142   0.779   0.283   4.608 -0.1921  0.0426 -2.3445
10217TIP3    H252143   0.720   0.421   4.627  0.0929 -0.0664 -0.4152
10218TIP3   OH252144   3.726   1.716  14.913  0.5390  0.2351 -0.5837
10218TIP3    H152145   3.777   1.779  14.862  1.0173 -0.0968 -0.5157
10218TIP3    H252146   3.654   1.692  14.855  0.8123  0.2211 -0.9198
10219TIP3   OH252147   6.604   5.222  14.379 -0.1326 -0.1314  0.0993
10219TIP3    H152148   6.602   5.138  14.425 -0.0831  0.0365  0.4130
10219TIP3    H252149   6.512   5.245  14.367 -0.1514 -0.4958 -0.4825
10220TIP3   OH252150   0.826   5.713  12.825  0.4116 -0.5092  0.6311
10220TIP3    H152151   0.860   5.742  12.910  1.1260 -2.4431  1.0731
10220TIP3    H252152   0.758   5.649  12.847 -0.0115 -0.3833 -0.2671
10221TIP3   OH252153   4.014   4.549   3.274  0.3945  0.1979 -0.3777
10221TIP3    H152154   4.078   4.527   3.342  0.5399  3.6627  0.8050
10221TIP3    H252155   3.930   4.528   3.314  0.5054  1.7551  0.7716
10222TIP3   OH252156   0.419   5.863   3.710  0.3403  0.2424  0.2664
10222TIP3    H152157   0.335   5.874   3.664  0.1758 -0.1973  0.4608
10222TIP3    H252158   0.425   5.940   3.766 -0.2553 -0.0494  0.7471
10223TIP3   OH252159   0.476   4.898  16.472  0.1468  0.5408 -0.4002
10223TIP3    H152160   0.531   4.849  16.532 -1.6888 -2.0138 -0.6509
10223TIP3    H252161   0.429   4.961  16.528  0.1557 -0.2209  0.4772
10224TIP3   OH252162   2.103   3.060  14.327  0.4377  0.2508 -0.1785
10224TIP3    H152163   2.176   3.005  14.298  0.2892 -0.7378  1.2421
10224TIP3    H252164   2.137   3.150  14.324  1.0537 -0.0074 -1.4285
10225TIP3   OH252165   3.880   1.601  11.974  0.2353 -0.4053 -0.3241
10225TIP3    H152166   3.813   1.633  11.913  0.2190 -0.9715 -0.6082
10225TIP3    H252167   3.912   1.520  11.934  1.5788  0.2020 -0.5392
10226TIP3   OH252168   5.925   2.179   3.925  0.7615  0.4948 -0.1004
10226TIP3    H152169   5.931   2.131   3.843 -2.4210  0.5426 -0.4892
10226TIP3    H252170   5.998   2.147   3.978  1.4439 -1.3258 -2.0423
10227TIP3   OH252171   2.581   3.464  14.836 -0.4131  0.1446  0.0762
10227TIP3    H152172   2.508   3.512  14.874  0.3628  1.1893  0.2943
10227TIP3    H252173   2.659   3.514  14.862  0.4209 -1.2059  0.2501
10228TIP3   OH252174   5.293   4.896   2.452  0.4278  0.3194  0.0820
10228TIP3    H152175   5.212   4.931   2.414  1.2279  1.9375 -0.1940
10228TIP3    H252176   5.336   4.851   2.378 -0.0835 -0.3253  0.1686
10229TIP3   OH252177   0.631   5.835  11.474  0.2626 -0.0373  0.2046
10229TIP3    H152178   0.634   5.875  11.387 -2.3929  1.3358  0.6284
10229TIP3    H252179   0.630   5.908  11.535  1.3860 -0.9628  1.3970
10230TIP3   OH252180   6.548   5.835   2.559 -0.2180  0.4777 -0.1793
10230TIP3    H152181   6.492   5.776   2.508 -0.2680  0.6719 -0.3464
10230TIP3    H252182   6.587   5.893   2.495  0.3237  0.2255 -0.0861
10231TIP3   OH252183   6.226   5.263  16.337  0.0526 -0.1662  0.3502
10231TIP3    H152184   6.238   5.353  16.366 -1.7529  0.0238  0.6397
10231TIP3    H252185   6.281   5.211  16.396  1.2950  0.7291  0.0262
10232TIP3   OH252186   6.801   0.773  13.962  0.6092  0.1218 -0.0788
10232TIP3    H152187   6.769   0.683  13.956  0.8398 -0.0112  0.5544
10232TIP3    H252188   6.738   0.817  14.019  0.4542  0.3853 -0.4494
10233TIP3   OH252189   3.198   6.312  11.480  0.0584  0.2202  0.3589
10233TIP3    H152190   3.173   6.372  11.410  1.4424  0.1333 -0.2361
10233TIP3    H252191   3.207   6.227  11.438  2.8885  0.5354  0.1524
10234TIP3   OH252192   1.766   6.131  14.626 -0.4653 -0.1022  0.0871
10234TIP3    H152193   1.687   6.078  14.613  0.2333 -0.4893 -3.8861
10234TIP3    H252194   1.733   6.220  14.641 -1.6214 -0.6774  1.1255
10235TIP3   OH252195   3.516   0.945  13.228 -0.0298  0.6011  0.1243
10235TIP3    H152196   3.565   0.892  13.291 -0.2110  0.5995  0.2666
10235TIP3    H252197   3.471   0.881  13.173  0.6606  0.5940 -0.4373
10236TIP3   OH252198   6.131   5.269  11.050  0.1848  0.3726 -0.0932
10236TIP3    H152199   6.122   5.280  10.956 -1.3692 -1.2694 -0.1966
10236TIP3    H252200   6.076   5.194  11.071  0.9781  0.3050  2.0457
10237TIP3   OH252201   5.589   1.518  12.409 -0.3091 -0.3649 -0.8089
10237TIP3    H152202   5.554   1.504  12.321 -2.2229  0.5617 -0.2445
10237TIP3    H252203   5.541   1.594  12.443  1.0465 -0.1085  0.7069
10238TIP3   OH252204   6.406   1.739   0.271 -0.2623  0.0280 -0.5269
10238TIP3    H152205   6.334   1.702   0.323 -0.7375 -1.1329 -1.9536
10238TIP3    H252206   6.485   1.707   0.315 -0.6591 -1.7347 -1.0215
10239TIP3   OH252207   0.995   0.499   5.677 -0.9405 -0.2432  0.0428
10239TIP3    H152208   1.040   0.444   5.741  0.1119  0.8518  0.2792
10239TIP3    H252209   1.043   0.486   5.595 -0.1991  0.8733  0.2791
10240TIP3   OH252210   1.164   3.486  10.528 -0.3711  0.2085  0.3269
10240TIP3    H152211   1.119   3.570  10.525 -0.6678  0.1207  1.7867
10240TIP3    H252212   1.121   3.438  10.598  1.3618 -0.2404  1.1404
10241TIP3   OH252213   1.974   0.281   4.038  0.1684 -0.0733  0.0670
10241TIP3    H152214   2.009   0.357   3.991 -2.1180  2.0506  1.5383
10241TIP3    H252215   1.938   0.318   4.119  0.4580 -3.0153  1.6589
10242TIP3   OH252216   1.783   0.565   3.993 -0.4098  0.0467  0.0864
10242TIP3    H152217   1.714   0.571   3.927 -0.2166  0.3562 -0.0869
10242TIP3    H252218   1.849   0.508   3.953 -1.5587 -2.1461  1.1311
10243TIP3   OH252219   4.483   0.568  16.691 -0.2645 -0.1421  0.5640
10243TIP3    H152220   4.457   0.647  16.740  1.5172  0.7188  0.2320
10243TIP3    H252221   4.452   0.583  16.602  0.9327  0.7149  0.2525
10244TIP3   OH252222   4.376   2.812  12.152 -0.0584  0.5285  0.1492
10244TIP3    H152223   4.342   2.899  12.134  0.9342  1.1794  1.2400
10244TIP3    H252224   4.410   2.781  12.067 -0.6880  1.0715 -0.3074
10245TIP3   OH252225   0.661   6.822   0.404 -0.1570  0.3336 -0.5631
10245TIP3    H152226   0.608   6.742   0.399 -0.5727  0.6222 -0.8305
10245TIP3    H252227   0.605   6.890   0.366  0.4922  0.6012 -1.0467
10246TIP3   OH252228   0.619   5.142   6.432 -0.2391 -0.2040 -0.0107
10246TIP3    H152229   0.543   5.141   6.491  0.0423  0.4895  0.3800
10246TIP3    H252230   0.584   5.172   6.349 -0.0835  2.0670  0.6708
10247TIP3   OH252231   1.329   3.526   1.115 -0.4766  0.0959  0.1717
10247TIP3    H152232   1.390   3.593   1.145 -0.4623 -0.2123  0.8491
10247TIP3    H252233   1.353   3.448   1.166 -0.1780 -0.5611 -0.9398
10248TIP3   OH252234   3.016   2.082   4.472  0.0732  0.5431 -0.3721
10248TIP3    H152235   2.971   2.117   4.549 -0.6853  0.1316 -0.6146
10248TIP3    H252236   3.095   2.135   4.464 -0.1996  1.0604  0.2677
10249TIP3   OH252237   6.006   2.409   3.014 -0.2398 -0.0230  0.7113
10249TIP3    H152238   6.008   2.483   3.074 -3.8462  1.5905 -0.8924
10249TIP3    H252239   6.088   2.415   2.965 -0.2116  2.6613  0.9678
10250TIP3   OH252240   6.079   1.228   0.426  0.5292 -1.3190 -0.2523
10250TIP3    H152241   6.015   1.172   0.383  0.3627  0.0655 -1.9184
10250TIP3    H252242   6.142   1.167   0.464 -0.8904 -2.6668  0.0401
10251TIP3   OH252243   0.614   3.621  15.316  0.3695 -0.1433  0.0964
10251TIP3    H152244   0.593   3.711  15.289  1.9235  0.0996 -0.3915
10251TIP3    H252245   0.531   3.587  15.349 -1.1215  0.3590 -2.7503
10252TIP3   OH252246   5.473   6.123   5.343  0.8028 -0.0816 -0.4170
10252TIP3    H152247   5.547   6.114   5.404  0.8206 -2.4828 -0.7072
10252TIP3    H252248   5.396   6.100   5.395  0.4594  0.5723 -0.6170
10253TIP3   OH252249   0.079   1.004   3.162 -0.2913  0.2260 -0.3052
10253TIP3    H152250   0.012   1.053   3.210  0.8055  1.3209  0.1862
10253TIP3    H252251   0.049   0.913   3.164 -1.4608  0.6034  0.3841
10254TIP3   OH252252   6.659   0.845   2.442 -0.5556  0.3318 -0.0819
10254TIP3    H152253   6.626   0.834   2.353 -0.3553  0.2450 -0.1484
10254TIP3    H252254   6.608   0.784   2.495  2.1530 -2.9458 -0.8370
10255TIP3   OH252255   4.422   4.904   5.708  0.3913 -0.3950  0.0292
10255TIP3    H152256   4.392   4.903   5.798 -0.3300 -1.4161 -0.1996
10255TIP3    H252257   4.508   4.862   5.711  0.9013  0.6604  0.4001
10256TIP3   OH252258   0.950   6.669  17.078  0.1127  0.0509  0.2997
10256TIP3    H152259   0.968   6.753  17.119 -2.1977  2.4795 -3.0944
10256TIP3    H252260   0.872   6.637  17.123 -0.8809  1.3878 -0.4052
10257TIP3   OH252261   6.807   3.351  11.816 -1.2579 -0.3440 -0.0756
10257TIP3    H152262   6.843   3.394  11.894 -3.2167  1.8733 -0.2753
10257TIP3    H252263   6.877   3.294  11.786  0.9998  1.5946  1.1125
10258TIP3   OH252264   2.851   1.758   1.543  0.8442  0.9559 -0.4282
10258TIP3    H152265   2.885   1.813   1.472 -0.6668 -0.1848 -2.1421
10258TIP3    H252266   2.758   1.750   1.524  1.1323 -3.0827 -1.0317
10259TIP3   OH252267   4.633   5.509  10.979  0.1454  0.3167 -0.4080
10259TIP3    H152268   4.643   5.422  10.940 -3.2858 -0.5005  0.2233
10259TIP3    H252269   4.582   5.559  10.916  0.6934  1.3611 -0.0543
10260TIP3   OH252270   0.146   6.020  13.420  0.4100 -0.8217  0.2352
10260TIP3    H152271   0.105   6.039  13.336  0.3254  0.2149  0.4876
10260TIP3    H252272   0.202   5.945  13.404 -0.0824 -1.0242 -0.5939
10261TIP3   OH252273   1.731   3.149  10.709 -0.2180 -0.2195  0.2788
10261TIP3    H152274   1.820   3.123  10.687  0.2105  1.6209 -0.3490
10261TIP3    H252275   1.687   3.067  10.731  2.0393 -1.0363  2.2072
10262TIP3   OH252276   6.580   0.513  11.446 -0.7190 -0.1539 -0.4746
10262TIP3    H152277   6.509   0.576  11.437 -0.4807 -0.1383 -3.3075
10262TIP3    H252278   6.642   0.537  11.376  1.4641 -0.9382  1.0728
10263TIP3   OH252279   3.580   2.076   1.465  0.1013 -0.2062 -0.1783
10263TIP3    H152280   3.612   1.998   1.510  1.9603 -0.6476 -2.0619
10263TIP3    H252281   3.608   2.064   1.374  0.1496  2.4965 -0.6105
10264TIP3   OH252282   6.407   5.793  10.730 -0.0256 -0.3301  0.1060
10264TIP3    H152283   6.326   5.830  10.695  0.1524 -0.0941 -0.0615
10264TIP3    H252284   6.396   5.698  10.723 -0.6269 -0.3237  0.8530
10265TIP3   OH252285   3.269   3.192  16.012  0.1931  0.2779  0.5009
10265TIP3    H152286   3.363   3.179  16.022  0.9910  1.9406 -3.0369
10265TIP3    H252287   3.241   3.123  15.952 -0.4043  0.8958  0.0500
10266TIP3   OH252288   2.421   2.830   4.234 -0.2951  0.1079  0.0122
10266TIP3    H152289   2.400   2.850   4.325 -0.1920 -0.1254  0.0869
10266TIP3    H252290   2.511   2.798   4.236 -0.7607 -1.2964  0.0382
10267TIP3   OH252291   5.933   2.509  11.434  0.4786  0.3350  0.4999
10267TIP3    H152292   5.925   2.417  11.409  2.7677  0.1067  0.3879
10267TIP3    H252293   5.866   2.522  11.501 -0.5563 -1.1319 -0.2033
10268TIP3   OH252294   4.104   3.837  12.270 -0.4991 -1.0348  0.5168
10268TIP3    H152295   4.165   3.768  12.296 -0.7213 -1.6450 -0.5408
10268TIP3    H252296   4.122   3.851  12.177  0.7320  1.5610  1.0379
10269TIP3   OH252297   3.819   1.026  15.262  0.1249 -0.1731  0.5616
10269TIP3    H152298   3.885   1.095  15.265 -0.3923  0.3032  1.1432
10269TIP3    H252299   3.858   0.954  15.313 -0.0258  0.3166  1.3891
10270TIP3   OH252300   2.871   0.450   0.941 -0.1634  0.4867 -0.1766
10270TIP3    H152301   2.859   0.528   0.887  3.3311  1.5363  0.3148
10270TIP3    H252302   2.827   0.470   1.023 -1.1814  0.9700 -0.8190
10271TIP3   OH252303   0.211   4.827  12.554 -0.1382 -0.0917 -0.3309
10271TIP3    H152304   0.157   4.841  12.477 -1.3931 -0.5461  0.4361
10271TIP3    H252305   0.149   4.823  12.627  1.0048  0.2091  0.6928
10272TIP3   OH252306   1.962   2.073  16.707 -0.3306 -0.6971  0.1798
10272TIP3    H152307   1.931   2.151  16.662 -0.3114 -0.8088 -0.0255
10272TIP3    H252308   1.923   2.079  16.794 -0.3024 -0.4430  0.1745
10273TIP3   OH252309   4.106   3.292   3.075  0.1259 -0.0095 -0.1539
10273TIP3    H152310   4.183   3.277   3.130  0.3575  1.0029 -0.1693
10273TIP3    H252311   4.115   3.384   3.048 -1.0326  0.0879 -0.2323
10274TIP3   OH252312   1.744   0.455  17.198  0.0555 -0.0025  0.0354
10274TIP3    H152313   1.792   0.383  17.155 -0.0892  0.7366 -1.4490
10274TIP3    H252314   1.812   0.504  17.245  0.2360 -0.8059  0.6199
10275TIP3   OH252315   4.420   3.963  11.843 -0.0121  0.1553 -0.6967
10275TIP3    H152316   4.441   3.955  11.750  1.5461 -1.3049 -0.2711
10275TIP3    H252317   4.408   3.873  11.873  0.3505  0.5338  0.6708
10276TIP3   OH252318   3.014   1.947  12.361 -0.3582  0.9463 -0.3268
10276TIP3    H152319   3.102   1.912  12.373 -0.1592  1.5585  0.0438
10276TIP3    H252320   2.958   1.870  12.354  0.1814  0.5549 -0.3936
10277TIP3   OH252321   3.217   3.083   0.304 -0.1551  0.0025  0.1814
10277TIP3    H152322   3.160   3.045   0.371 -0.7050  0.2224 -0.1559
10277TIP3    H252323   3.161   3.143   0.256  0.6556  1.1091  0.5781
10278TIP3   OH252324   4.485   3.360  16.170 -0.3901 -0.2435 -0.0807
10278TIP3    H152325   4.571   3.356  16.212 -0.0035  2.9500 -0.3155
10278TIP3    H252326   4.435   3.421  16.224 -2.4825 -1.8715 -0.0798
10279TIP3   OH252327   5.296   5.340   1.079 -0.8993 -0.0808 -0.5952
10279TIP3    H152328   5.382   5.323   1.042 -0.7096  0.2415 -0.3019
10279TIP3    H252329   5.307   5.328   1.173 -0.3416  3.1744 -0.1418
10280TIP3   OH252330   1.820   2.333   3.893  0.5654  0.0995 -0.1794
10280TIP3    H152331   1.861   2.334   3.980  0.1837 -5.1405  0.3358
10280TIP3    H252332   1.894   2.341   3.832  1.2297  0.2574  0.6252
10281TIP3   OH252333   0.374   6.195   5.697 -0.7911 -0.1374  0.0674
10281TIP3    H152334   0.306   6.253   5.665 -1.7221 -2.1418 -1.8487
10281TIP3    H252335   0.345   6.170   5.785  0.0448  2.7781  1.2900
10282TIP3   OH252336   2.356   6.023  13.129 -0.2620 -0.2798 -0.2365
10282TIP3    H152337   2.443   6.055  13.108 -0.2538 -0.9150 -1.2402
10282TIP3    H252338   2.363   5.992  13.220  0.0791  1.2425  0.2878
10283TIP3   OH252339   4.446   3.305   0.522  0.1075  0.4820 -0.5734
10283TIP3    H152340   4.432   3.298   0.616  0.5493 -0.2414 -0.5503
10283TIP3    H252341   4.367   3.345   0.488 -0.1489  0.5366  0.0810
10284TIP3   OH252342   4.624   5.465  14.781  0.3270 -0.8643 -0.1562
10284TIP3    H152343   4.614   5.469  14.877 -1.6135 -0.4900 -0.3139
10284TIP3    H252344   4.649   5.374  14.763 -1.0021 -1.4218  0.6241
10285TIP3   OH252345   4.441   6.415   5.132 -0.0056  1.1603  0.2668
10285TIP3    H152346   4.522   6.433   5.180 -0.9066  0.6309  2.1118
10285TIP3    H252347   4.436   6.320   5.129 -0.3458  1.1917 -0.2033
10286TIP3   OH252348   1.441   4.649  10.548 -0.0509 -0.1260  0.4722
10286TIP3    H152349   1.531   4.618  10.559  0.0241  0.3038  1.1359
10286TIP3    H252350   1.437   4.729  10.601 -0.8655 -0.2166  0.5545
10287TIP3   OH252351   3.546   0.872  12.514  0.1989 -0.2937 -0.3468
10287TIP3    H152352   3.519   0.787  12.479 -0.3215  0.3790 -1.6153
10287TIP3    H252353   3.486   0.935  12.474 -0.0945  0.5782  1.3800
10288TIP3   OH252354   1.910   5.253  14.372  0.7099 -0.2618 -0.2706
10288TIP3    H152355   1.926   5.233  14.464  0.2730 -1.9963 -0.5340
10288TIP3    H252356   1.996   5.279  14.338  0.7649  0.9731  0.7329
10289TIP3   OH252357   2.428   5.609   2.305  0.3396 -0.7334 -0.0761
10289TIP3    H152358   2.367   5.681   2.319  0.8070 -0.4706  0.7252
10289TIP3    H252359   2.392   5.560   2.232 -0.1079  0.1898 -0.4889
10290TIP3   OH252360   1.552   4.930   0.856  0.2090 -0.9303  0.2926
10290TIP3    H152361   1.523   4.852   0.904 -0.6318 -1.6587 -1.3195
10290TIP3    H252362   1.622   4.967   0.910  0.3057 -2.5389  1.3285
10291TIP3   OH252363   6.214   2.701  11.915  0.0758  0.5002  0.4658
10291TIP3    H152364   6.143   2.735  11.859 -0.0829  0.3324  0.5645
10291TIP3    H252365   6.256   2.779  11.950 -0.7420  0.5951  1.2653
10292TIP3   OH252366   2.384   1.921  11.927  0.6473  0.4001 -0.3916
10292TIP3    H152367   2.398   1.834  11.889 -0.4123 -0.0723  0.2591
10292TIP3    H252368   2.409   1.912  12.019  0.9552  0.9093 -0.4205
10293TIP3   OH252369   3.573   1.105  14.195 -0.2831 -0.8146  0.0660
10293TIP3    H152370   3.570   1.195  14.227 -0.2349 -1.0315  0.6975
10293TIP3    H252371   3.528   1.054  14.263  0.6459 -1.4145  0.2502
10294TIP3   OH252372   1.645   3.984   4.690  0.5625  0.7032  0.9147
10294TIP3    H152373   1.651   3.889   4.691 -0.6214  0.5801 -0.4403
10294TIP3    H252374   1.646   4.009   4.783  0.8389 -0.6235  1.2874
10295TIP3   OH252375   6.727   4.510   5.729 -0.6866  0.2116  0.2081
10295TIP3    H152376   6.692   4.497   5.817 -1.7602 -0.4928 -0.3027
10295TIP3    H252377   6.764   4.425   5.705  1.1288  0.8522  0.6042
10296TIP3   OH252378   6.694   3.132  16.958  0.0962  0.5562  0.1869
10296TIP3    H152379   6.699   3.164  17.048  0.3450 -2.3230  1.2957
10296TIP3    H252380   6.746   3.195  16.908  1.3044  1.3699  2.3312
10297TIP3   OH252381   3.525   0.793   1.916  0.6471  0.2314  0.4478
10297TIP3    H152382   3.450   0.750   1.876  1.7780 -0.2838 -1.2077
10297TIP3    H252383   3.501   0.803   2.008 -2.1724  1.7502 -0.3579
10298TIP3   OH252384   1.158   4.449  16.760  0.5429  0.1281  0.0306
10298TIP3    H152385   1.100   4.413  16.693  1.4621  2.4536 -2.1633
10298TIP3    H252386   1.117   4.531  16.786  0.6627 -0.3159  1.7174
10299TIP3   OH252387   2.320   0.252   2.166 -0.0146 -0.3357  0.5152
10299TIP3    H152388   2.370   0.298   2.098 -0.2539 -0.1617  0.4563
10299TIP3    H252389   2.305   0.165   2.129  0.1754 -0.3631  0.4999
10300TIP3   OH252390   5.842   5.464  14.175  0.2017  0.2932  0.8490
10300TIP3    H152391   5.935   5.478  14.157  0.0817  0.3745  0.2404
10300TIP3    H252392   5.802   5.551  14.165 -0.1682  0.0067 -0.4679
10301TIP3   OH252393   3.999   2.105   1.031 -0.1414  0.0414 -0.1743
10301TIP3    H152394   4.061   2.114   0.959  0.0595  0.9462  0.1000
10301TIP3    H252395   4.050   2.065   1.102 -0.1549 -0.1957 -0.2975
10302TIP3   OH252396   4.034   4.763  13.555  0.1370  0.2010  0.6399
10302TIP3    H152397   4.047   4.730  13.466  0.3789  1.3392  0.2251
10302TIP3    H252398   3.966   4.829  13.546  1.0682  1.2543  1.0461
10303TIP3   OH252399   4.665   0.802   3.143  0.0442 -0.1957 -0.5620
10303TIP3    H152400   4.737   0.762   3.192 -1.5022 -1.6499  0.6773
10303TIP3    H252401   4.698   0.810   3.054  2.7098  1.8269  0.4549
10304TIP3   OH252402   0.888   2.382   5.450  0.2331 -0.1839 -0.2648
10304TIP3    H152403   0.899   2.303   5.397  0.1642  0.4212 -1.2162
10304TIP3    H252404   0.834   2.440   5.396  0.1423  0.4500  0.4834
10305TIP3   OH252405   3.774   1.483  17.002 -0.2197 -0.3934  0.1028
10305TIP3    H152406   3.830   1.560  16.988  0.0014 -0.6162 -0.2879
10305TIP3    H252407   3.793   1.427  16.927  0.4008 -1.2956  0.9105
10306TIP3   OH252408   4.477   4.807   0.060 -0.3623 -0.3611 -0.5060
10306TIP3    H152409   4.384   4.829   0.055 -0.7713 -1.7775  0.3852
10306TIP3    H252410   4.490   4.742  -0.009 -0.1159 -0.4397 -0.3848
10307TIP3   OH252411   1.205   6.278  13.312 -0.1053 -0.6359 -0.6119
10307TIP3    H152412   1.199   6.301  13.219 -0.1037  0.2816 -0.3974
10307TIP3    H252413   1.259   6.347  13.350  1.3468 -1.9366 -0.2272
10308TIP3   OH252414   5.339   6.327  11.084 -0.1123  0.3423 -0.2285
10308TIP3    H152415   5.335   6.258  11.018 -1.0265  1.2069 -1.1196
10308TIP3    H252416   5.292   6.291  11.159  0.2555 -0.3561 -0.3283
10309TIP3   OH252417   5.365   6.821   5.044  0.1108 -0.1433  0.2095
10309TIP3    H152418   5.357   6.799   5.137  0.5560 -1.0489  0.0491
10309TIP3    H252419   5.308   6.758   5.000  0.5460 -0.2664 -0.1869
10310TIP3   OH252420   5.514   0.912   5.295 -0.0345  0.3761  0.2578
10310TIP3    H152421   5.540   0.850   5.228 -1.4246  0.8394 -0.7639
10310TIP3    H252422   5.595   0.954   5.323  0.5797  0.1003 -1.0772
10311TIP3   OH252423   2.791   3.251   0.974  0.1958 -0.2321  0.0136
10311TIP3    H152424   2.752   3.286   0.894  2.1744  0.4723 -0.6950
10311TIP3    H252425   2.778   3.319   1.039 -1.1283 -0.6702  0.2353
10312TIP3   OH252426   4.839   2.893   4.716  0.2472 -0.3035 -0.1640
10312TIP3    H152427   4.932   2.876   4.736 -0.4916 -3.3430  1.3765
10312TIP3    H252428   4.808   2.811   4.679 -1.5358  1.1991 -2.2409
10313TIP3   OH252429   2.056   3.876  15.712 -0.0888 -0.4024 -0.1048
10313TIP3    H152430   1.967   3.910  15.706 -0.2606 -0.8281 -0.0049
10313TIP3    H252431   2.082   3.891  15.803  0.5839  1.2857 -0.5458
10314TIP3   OH252432   5.271   0.355  12.895  0.9113  0.1136  0.9258
10314TIP3    H152433   5.179   0.374  12.878  0.8440  0.2141  1.3912
10314TIP3    H252434   5.313   0.441  12.900  0.9831  0.0755  0.9780
10315TIP3   OH252435   1.091   4.654   1.857 -0.0460  0.2639 -0.1998
10315TIP3    H152436   1.146   4.576   1.857  0.0843  0.3092 -2.0664
10315TIP3    H252437   1.077   4.674   1.949  0.1064 -1.8282  0.3194
10316TIP3   OH252438   0.608   5.014  15.998 -0.2019  0.1752 -0.2527
10316TIP3    H152439   0.653   5.070  16.061 -3.4452  2.1687  0.5110
10316TIP3    H252440   0.652   5.032  15.915  1.9495  0.0912  0.8030
10317TIP3   OH252441   6.808   1.267  17.235 -0.3864 -0.2407 -1.0621
10317TIP3    H152442   6.881   1.274  17.175 -1.0354  1.7294 -1.7212
10317TIP3    H252443   6.812   1.178  17.269  1.4612 -0.6060 -2.1319
10318TIP3   OH252444   5.685   5.363   5.755 -0.4152  0.0271 -0.3409
10318TIP3    H152445   5.674   5.310   5.834  0.1771  1.3758  0.6846
10318TIP3    H252446   5.596   5.386   5.730 -0.6131 -0.4931 -0.1389
10319TIP3   OH252447   3.980   5.633  11.872 -0.6537 -0.1935 -0.4718
10319TIP3    H152448   3.969   5.603  11.962  1.5628  0.7419  0.1688
10319TIP3    H252449   4.061   5.591  11.842 -0.3063  1.0556 -1.3352
10320TIP3   OH252450   0.268   4.252  17.095 -0.1660 -0.1228  0.6298
10320TIP3    H152451   0.188   4.246  17.044  0.8934 -2.1889 -0.9431
10320TIP3    H252452   0.336   4.277  17.032  1.0374 -1.9697  1.0968
10321TIP3   OH252453   6.139   2.054   1.444 -0.0080  0.2825 -0.0892
10321TIP3    H152454   6.076   2.116   1.481  1.4835  2.2367 -0.6500
10321TIP3    H252455   6.152   1.988   1.512 -1.6390  0.5680  0.5320
10322TIP3   OH252456   0.565   4.713   3.906  0.3622  0.1453 -0.1456
10322TIP3    H152457   0.504   4.770   3.953  1.7846 -0.1370  2.1937
10322TIP3    H252458   0.640   4.769   3.887 -0.1257  0.2237 -2.1027
10323TIP3   OH252459   3.444   2.005  13.188  0.1309  0.5066 -0.1244
10323TIP3    H152460   3.446   1.987  13.094 -2.0991 -1.6993  0.1586
10323TIP3    H252461   3.371   2.066  13.198  0.4757  0.8748  0.1934
10324TIP3   OH252462   0.295   4.154  16.500  0.0684 -0.0921 -0.1402
10324TIP3    H152463   0.378   4.200  16.505  0.2062 -0.2910 -0.5310
10324TIP3    H252464   0.319   4.063  16.480 -0.2396 -0.1433 -0.2899
10325TIP3   OH252465   3.772   4.664   0.118  0.0892 -0.2869 -0.4765
10325TIP3    H152466   3.822   4.744   0.101 -1.3409  0.5791 -0.7334
10325TIP3    H252467   3.807   4.631   0.202  1.9978 -0.4780 -1.2849
10326TIP3   OH252468   4.405   0.223   5.417  0.6178  0.2406  0.1127
10326TIP3    H152469   4.463   0.270   5.357  1.5773 -0.1798  0.6911
10326TIP3    H252470   4.354   0.166   5.361  1.7216 -0.3749 -0.2962
10327TIP3   OH252471   1.353   4.910   5.952 -0.7187  0.0744  0.2348
10327TIP3    H152472   1.349   4.960   5.871  1.6444  1.5398  0.9156
10327TIP3    H252473   1.332   4.974   6.021  1.4126 -0.0445  1.0549
10328TIP3   OH252474   6.652   4.859   3.598 -0.0927 -0.0031  0.1889
10328TIP3    H152475   6.613   4.939   3.633 -0.6178  0.3408 -1.1503
10328TIP3    H252476   6.746   4.871   3.609 -0.1394  1.0350 -0.4858
10329TIP3   OH252477   4.761   5.190  13.324  0.1120 -0.2712 -0.1935
10329TIP3    H152478   4.742   5.147  13.407 -0.2833  2.3825  1.1789
10329TIP3    H252479   4.698   5.153  13.262  0.4429 -2.3187  0.6305
10330TIP3   OH252480   6.127   3.166  13.995  0.3601  0.4978 -0.0239
10330TIP3    H152481   6.166   3.140  14.079 -0.8347  0.3529  0.5058
10330TIP3    H252482   6.130   3.262  13.997  0.5750  0.4906  0.0638
10331TIP3   OH252483   5.789   2.781   3.299  0.0530 -0.3789 -0.6382
10331TIP3    H152484   5.791   2.724   3.376  0.7063 -0.2127 -0.5205
10331TIP3    H252485   5.882   2.796   3.279 -0.1135  0.4710 -0.7950
10332TIP3   OH252486   0.467   3.845   4.605  0.0209  0.0485  0.4046
10332TIP3    H152487   0.426   3.894   4.534 -1.9645 -1.1744  0.6309
10332TIP3    H252488   0.447   3.753   4.586  2.9228 -0.7078  0.4327
10333TIP3   OH252489   0.653   4.638  13.191  0.7184 -1.1620  0.2844
10333TIP3    H152490   0.563   4.671  13.191  0.5409 -1.6056  1.2981
10333TIP3    H252491   0.696   4.683  13.263  1.0426 -1.6397  0.3981
10334TIP3   OH252492   3.505   0.769   0.206 -0.2595 -0.4014 -0.0054
10334TIP3    H152493   3.580   0.718   0.238  0.4497  0.0539 -0.8905
10334TIP3    H252494   3.447   0.777   0.282  0.5321 -0.8568  0.6683
10335TIP3   OH252495   5.529   0.701  12.773  0.6704  0.4582  0.1404
10335TIP3    H152496   5.556   0.713  12.682 -1.3789 -0.3710 -0.6473
10335TIP3    H252497   5.555   0.782  12.817 -0.0715  1.7514 -1.6663
10336TIP3   OH252498   6.185   5.963   0.088 -0.2053 -0.0962  0.7404
10336TIP3    H152499   6.134   5.962   0.169  0.2121 -0.9007  0.9950
10336TIP3    H252500   6.238   5.884   0.091 -0.7013 -0.5102 -0.6513
10337TIP3   OH252501   4.614   5.010  16.904 -0.0698  0.6171 -0.2280
10337TIP3    H152502   4.582   5.069  16.973 -1.2392  0.8980 -0.9967
10337TIP3    H252503   4.708   5.030  16.898 -0.0829  1.0705  0.8062
10338TIP3   OH252504   5.280   1.535   4.499 -0.1288  0.6456 -0.2610
10338TIP3    H152505   5.263   1.444   4.521  0.6114  0.7783  1.0124
10338TIP3    H252506   5.277   1.581   4.584  1.3495  1.4705 -0.6109
10339TIP3   OH252507   2.764   6.101   3.961  0.0647  0.2853 -0.3896
10339TIP3    H152508   2.831   6.122   4.026  0.5842  1.2868 -1.2196
10339TIP3    H252509   2.684   6.142   3.995  0.5614  1.6914 -0.8547
10340TIP3   OH252510   2.156   0.563  14.894  0.0989  0.1904  0.6904
10340TIP3    H152511   2.073   0.561  14.943 -0.7594 -0.0808 -0.7336
10340TIP3    H252512   2.157   0.650  14.854  0.0247 -0.1579 -0.0798
10341TIP3   OH252513   3.055   4.182  11.378 -0.4264  0.5525  0.0573
10341TIP3    H152514   3.046   4.162  11.285  0.1669  1.2500 -0.1516
10341TIP3    H252515   3.086   4.272  11.381  0.5772  0.2027  0.8937
10342TIP3   OH252516   5.313   5.679  11.367  0.0426 -0.1745  0.3146
10342TIP3    H152517   5.237   5.737  11.357  0.0703 -0.1753  0.1181
10342TIP3    H252518   5.380   5.717  11.311 -0.0939 -0.6630 -0.1891
10343TIP3   OH252519   0.005   0.382  13.435  0.4633  0.0331 -0.7677
10343TIP3    H152520   0.079   0.348  13.487  1.0201  0.8472 -1.0011
10343TIP3    H252521  -0.069   0.381  13.496  0.7365 -0.5328 -0.4384
10344TIP3   OH252522   0.942   4.819   5.907  0.3111 -0.7591 -0.6102
10344TIP3    H152523   0.988   4.825   5.991 -0.0198  3.6903 -0.4731
10344TIP3    H252524   0.852   4.798   5.930  0.2094  0.4832  0.2611
10345TIP3   OH252525   4.095   6.020  13.822 -0.2952  0.3295  0.1824
10345TIP3    H152526   4.181   6.052  13.849 -0.0534 -0.5881  0.5547
10345TIP3    H252527   4.033   6.084  13.856 -0.1659 -1.4989  4.4635
10346TIP3   OH252528   2.908   6.453  16.539  0.5369  0.1213 -0.3124
10346TIP3    H152529   3.003   6.457  16.527  0.8949  0.4891  2.2009
10346TIP3    H252530   2.894   6.390  16.609 -1.1685 -0.5930 -1.2312
10347TIP3   OH252531   0.573   5.087  15.068 -0.0643  0.3678  0.2168
10347TIP3    H152532   0.536   5.053  15.149 -1.7144 -0.0580 -0.6738
10347TIP3    H252533   0.511   5.153  15.038  0.9617  1.1490 -0.2790
10348TIP3   OH252534   0.986   1.125  12.444  0.5301 -0.3308  0.2102
10348TIP3    H152535   1.066   1.151  12.488 -0.7581 -0.3708  2.7461
10348TIP3    H252536   0.942   1.208  12.423  0.3699 -0.3297  0.5440
10349TIP3   OH252537   6.291   2.114  13.582 -0.1837 -0.3201 -0.5144
10349TIP3    H152538   6.248   2.175  13.522  0.0558  1.0035  0.6085
10349TIP3    H252539   6.253   2.029  13.560 -0.5589  0.2147 -2.0966
10350TIP3   OH252540   0.828   3.140  16.433  0.5767 -0.3352 -0.7382
10350TIP3    H152541   0.834   3.216  16.491  1.3489 -0.5330 -0.5555
10350TIP3    H252542   0.815   3.178  16.346 -0.0234 -0.0249 -0.5255
10351TIP3   OH252543   3.645   4.685  16.372 -0.4564 -0.8968 -0.6388
10351TIP3    H152544   3.720   4.743  16.362 -0.2760 -0.9631  0.2449
10351TIP3    H252545   3.569   4.744  16.375 -0.1808 -0.5729  1.4090
10352TIP3   OH252546   5.896   1.129   5.545 -0.1421 -0.0611  0.0822
10352TIP3    H152547   5.974   1.078   5.566 -0.8694 -1.3243 -0.1876
10352TIP3    H252548   5.823   1.078   5.581 -0.8037  1.4991  1.0840
10353TIP3   OH252549   2.723   1.870   0.382 -0.2313  0.1268 -0.2920
10353TIP3    H152550   2.703   1.901   0.293  1.0754 -0.2134 -0.7333
10353TIP3    H252551   2.759   1.782   0.369 -1.9319 -0.7700  0.7705
10354TIP3   OH252552   0.814   1.876  14.031 -0.0231 -0.2063  0.0005
10354TIP3    H152553   0.722   1.892  14.050 -0.3695 -0.3218 -1.4698
10354TIP3    H252554   0.826   1.783  14.047 -0.7165 -0.6436 -1.8396
10355TIP3   OH252555   0.670   5.480   3.202 -0.5594  0.2636 -0.5139
10355TIP3    H152556   0.715   5.418   3.144  1.2988  1.5340 -0.5414
10355TIP3    H252557   0.741   5.527   3.245 -1.9209  0.6364  1.4153
10356TIP3   OH252558   4.960   6.683  16.847  0.1039  0.5056 -0.4856
10356TIP3    H152559   4.925   6.605  16.803  0.7440 -0.3821  0.5318
10356TIP3    H252560   4.962   6.660  16.939 -1.2804  2.3597  0.0644
10357TIP3   OH252561   0.745   6.701   1.303  0.3677  0.2751 -0.0618
10357TIP3    H152562   0.691   6.632   1.266 -0.4728  1.0534 -0.3334
10357TIP3    H252563   0.684   6.753   1.356  1.0643  0.5773  0.4573
10358TIP3   OH252564   5.232   4.474   1.842  0.1315  0.0261 -0.1238
10358TIP3    H152565   5.187   4.496   1.923 -0.7354  1.1299 -0.8764
10358TIP3    H252566   5.205   4.384   1.822 -0.6519  0.1926  0.1569
10359TIP3   OH252567   5.582   5.065   1.324 -0.7394 -0.2410  0.1926
10359TIP3    H152568   5.667   5.022   1.319 -0.2667  0.6099  0.7526
10359TIP3    H252569   5.530   5.007   1.380 -0.2870 -0.3755  0.4836
10360TIP3   OH252570   6.429   6.325   5.795 -0.1917  0.5252 -1.1223
10360TIP3    H152571   6.351   6.323   5.851  0.6212 -1.3870  0.0726
10360TIP3    H252572   6.502   6.316   5.857  1.1524  3.5986 -2.0619
10361TIP3   OH252573   5.143   1.480  13.899  0.4261  0.0841 -0.6219
10361TIP3    H152574   5.131   1.569  13.932 -0.3401  0.3949 -1.7155
10361TIP3    H252575   5.060   1.458  13.858  0.2681 -1.5035  0.4538
10362TIP3   OH252576   4.426   4.843   4.309  0.0377 -0.2230  0.2147
10362TIP3    H152577   4.518   4.866   4.301 -0.2362  0.7925 -0.2797
10362TIP3    H252578   4.382   4.898   4.244 -0.7984 -1.4770 -0.3262
10363TIP3   OH252579   3.261   2.301   3.612 -0.4822  0.5570  0.3804
10363TIP3    H152580   3.207   2.271   3.686 -0.1604 -0.2568  0.3001
10363TIP3    H252581   3.299   2.220   3.576 -0.3774  0.9752 -0.4746
10364TIP3   OH252582   4.100   4.697  14.122 -0.1274 -0.0218 -0.1635
10364TIP3    H152583   4.162   4.624  14.118 -0.0450  0.1063 -2.1456
10364TIP3    H252584   4.110   4.731  14.211  1.2663 -1.1835  0.1795
10365TIP3   OH252585   4.268   3.598   0.567  0.2747 -0.1436 -0.1832
10365TIP3    H152586   4.247   3.514   0.526 -0.3591 -1.0728  1.8762
10365TIP3    H252587   4.289   3.575   0.658  1.0888  1.8323  0.1680
10366TIP3   OH252588   6.443   6.820  15.216 -0.5666 -0.1458  0.1069
10366TIP3    H152589   6.419   6.907  15.248 -0.3810 -0.5248  1.3123
10366TIP3    H252590   6.367   6.766  15.236 -0.7018 -0.2643 -0.6877
10367TIP3   OH252591   3.778   4.021   4.894  0.7133  0.0628 -0.2283
10367TIP3    H152592   3.696   4.071   4.900  0.7735  0.0062  3.1003
10367TIP3    H252593   3.751   3.936   4.857 -0.9170 -0.1778  1.3420
10368TIP3   OH252594   3.080   3.026  13.960  0.4854 -0.1937  0.2493
10368TIP3    H152595   3.081   3.084  14.037 -1.5661  1.2393 -0.7101
10368TIP3    H252596   3.132   3.073  13.894 -2.0824  1.2682 -0.8997
10369TIP3   OH252597   3.906   4.490   6.455  0.1778 -0.4607  0.1325
10369TIP3    H152598   3.914   4.581   6.425  0.4099 -0.9814 -1.4827
10369TIP3    H252599   3.821   4.461   6.423 -0.6233 -0.3634  2.0330
10370TIP3   OH252600   3.653   5.784  14.713 -0.2591 -0.5493 -0.5850
10370TIP3    H152601   3.695   5.825  14.638  2.3410 -0.7891  0.6366
10370TIP3    H252602   3.644   5.854  14.777 -0.5041 -0.7955 -0.3493
10371TIP3   OH252603   5.350   1.022  13.632  0.0005  0.5520 -0.3170
10371TIP3    H152604   5.422   0.982  13.583 -1.5753 -1.0345 -1.4682
10371TIP3    H252605   5.281   0.956  13.631 -1.0116  1.4578  1.9492
10372TIP3   OH252606   6.245   6.330   6.007  0.1373 -0.8672  0.7488
10372TIP3    H152607   6.239   6.423   6.029  1.2610 -0.9446  1.4879
10372TIP3    H252608   6.157   6.306   5.980 -0.6555 -0.0390  2.4399
10373TIP3   OH252609   6.158   5.620   2.908 -0.1779 -0.4237  0.2225
10373TIP3    H152610   6.184   5.540   2.862 -0.0960 -1.5186  2.0617
10373TIP3    H252611   6.078   5.595   2.956 -0.0553  0.5438  0.9660
10374TIP3   OH252612   0.439   4.353   0.979  0.3013 -0.3078 -0.0661
10374TIP3    H152613   0.396   4.359   1.065  0.8640  2.2480  0.1404
10374TIP3    H252614   0.413   4.268   0.944 -2.7291 -0.0236  1.1984
10375TIP3   OH252615   4.161   2.939   5.683  0.4313 -0.1864 -0.2064
10375TIP3    H152616   4.198   3.025   5.666 -0.2585  0.3519  0.9167
10375TIP3    H252617   4.191   2.885   5.610  1.1609  0.9085 -0.7378
10376TIP3   OH252618   5.777   0.351   0.677  0.4305 -0.0867 -0.2000
10376TIP3    H152619   5.718   0.280   0.703 -1.8011  2.0575  1.0817
10376TIP3    H252620   5.764   0.360   0.583 -1.5337  0.4083  0.0600
10377TIP3   OH252621   4.453   4.631   3.392  0.3313 -0.2359 -0.1511
10377TIP3    H152622   4.474   4.613   3.301 -2.7422  1.2265 -1.2793
10377TIP3    H252623   4.383   4.569   3.414 -0.1801  0.5840  0.6223
10378TIP3   OH252624   3.836   2.093  14.581  1.2512 -0.0092 -0.1395
10378TIP3    H152625   3.809   2.053  14.498 -4.2050 -1.5431  1.8864
10378TIP3    H252626   3.795   2.179  14.580 -2.7877 -1.6073  2.2596
10379TIP3   OH252627   0.844   1.737  16.931  0.1479  0.0769 -0.1877
10379TIP3    H152628   0.890   1.691  17.001  1.1376  0.6066 -0.4774
10379TIP3    H252629   0.782   1.794  16.977  0.0061 -0.3933  0.2174
10380TIP3   OH252630   3.586   4.707  12.556 -0.0065 -0.1597  0.3394
10380TIP3    H152631   3.678   4.690  12.535  0.0023 -0.5915  0.7083
10380TIP3    H252632   3.544   4.622  12.551 -0.2667 -0.0589  0.7685
10381TIP3   OH252633   3.675   1.976  15.524 -0.3283  0.4385  0.4727
10381TIP3    H152634   3.646   2.055  15.570  1.4554  1.4023  0.0353
10381TIP3    H252635   3.737   1.935  15.584  1.7837  1.5405 -0.8168
10382TIP3   OH252636   6.747   0.923   3.998  0.3400  0.4695 -0.2975
10382TIP3    H152637   6.689   0.848   3.987  0.5997  0.1620  0.3815
10382TIP3    H252638   6.788   0.935   3.912 -2.0140  1.8008 -1.3390
10383TIP3   OH252639   1.515   5.841   1.289 -0.6726  0.0578 -0.5370
10383TIP3    H152640   1.508   5.832   1.384 -3.4145 -1.3617 -0.7419
10383TIP3    H252641   1.566   5.920   1.275 -0.3280  0.3898  2.1067
10384TIP3   OH252642   6.455   3.586   3.646 -0.1392 -0.0920 -0.2881
10384TIP3    H152643   6.486   3.651   3.709 -1.6950  1.1055 -0.6967
10384TIP3    H252644   6.500   3.608   3.565  0.9683 -0.8973  0.0904
10385TIP3   OH252645   4.496   4.682   2.567  0.3177  0.1938  0.1871
10385TIP3    H152646   4.522   4.729   2.646  2.8457  1.3777 -1.2189
10385TIP3    H252647   4.527   4.593   2.581 -0.2746  0.0962  0.9577
10386TIP3   OH252648   2.113   5.729   1.792  0.6113 -0.2057 -0.0706
10386TIP3    H152649   2.167   5.721   1.713  1.4836  1.6625  0.2621
10386TIP3    H252650   2.038   5.673   1.776  1.4793 -0.9999 -1.6033
10387TIP3   OH252651   3.669   1.387   2.582 -0.0793  0.1374  0.1831
10387TIP3    H152652   3.742   1.449   2.588 -1.6643  1.9375  1.9440
10387TIP3    H252653   3.700   1.309   2.628  2.0657 -0.6452 -2.3366
10388TIP3   OH252654   3.037   0.063   0.373  0.5603 -0.7368 -0.7025
10388TIP3    H152655   2.985  -0.015   0.352  1.3438 -1.2780 -0.6876
10388TIP3    H252656   3.109   0.030   0.427  0.2470  0.1913  0.3102
10389TIP3   OH252657   6.123   3.962  11.207  0.3391  0.4796  0.2763
10389TIP3    H152658   6.164   3.889  11.254  0.9821  1.1268  0.7678
10389TIP3    H252659   6.102   3.927  11.121  0.4978 -0.3258  0.5527
10390TIP3   OH252660   1.116   2.378  13.837 -0.3590 -0.2842  0.2421
10390TIP3    H152661   1.109   2.421  13.923  1.2122  1.0065 -0.2299
10390TIP3    H252662   1.207   2.348  13.833  0.2110  1.5385 -1.7875
10391TIP3   OH252663   5.252   2.054  15.512  0.7723  0.4050 -0.2487
10391TIP3    H152664   5.169   2.069  15.466 -1.1596 -0.0928  2.7897
10391TIP3    H252665   5.305   2.004  15.450 -1.0455  1.0069 -2.4211
10392TIP3   OH252666   4.034   2.634   1.407 -0.0414  0.7511 -0.0834
10392TIP3    H152667   4.003   2.673   1.324 -0.3462  0.3052 -0.1798
10392TIP3    H252668   3.982   2.677   1.474 -1.5533 -0.6272 -0.3029
10393TIP3   OH252669   6.766   1.708  15.744 -0.3076 -0.7671 -0.3772
10393TIP3    H152670   6.799   1.718  15.655  0.7646 -2.9028 -0.2764
10393TIP3    H252671   6.672   1.695  15.734 -0.7897  2.2569 -0.8894
10394TIP3   OH252672   3.065   1.075  15.720 -0.0883  0.0445 -0.6080
10394TIP3    H152673   3.077   1.140  15.650  2.4244  0.4363  0.0863
10394TIP3    H252674   3.042   0.994  15.674 -1.5166  0.9549 -1.6175
10395TIP3   OH252675   5.649   3.964   2.826 -0.0904 -0.2697 -0.2331
10395TIP3    H152676   5.664   3.879   2.786 -1.0008 -0.8406  0.5946
10395TIP3    H252677   5.721   3.973   2.889  0.4785 -0.0401 -0.8990
10396TIP3   OH252678   2.850   4.007   1.993  0.4202  0.3758  0.1403
10396TIP3    H152679   2.795   4.055   1.931  1.2102  0.5276 -0.4607
10396TIP3    H252680   2.799   3.929   2.015 -0.4321  0.9791  0.3303
10397TIP3   OH252681   5.453   6.301  13.885  0.6304 -0.3051 -0.1186
10397TIP3    H152682   5.392   6.343  13.824  0.5557  0.5519  0.5403
10397TIP3    H252683   5.396   6.254  13.946  0.6340  0.2152  0.2911
10398TIP3   OH252684   0.878   4.863  12.395  0.7102  0.1005 -0.1993
10398TIP3    H152685   0.863   4.818  12.311  1.7199  0.0479 -0.3680
10398TIP3    H252686   0.973   4.858  12.408  0.3813 -2.0158  2.1285
10399TIP3   OH252687   5.059   3.567   1.842 -0.0525  0.5821 -0.1641
10399TIP3    H152688   5.082   3.496   1.902 -0.6458  0.3621 -0.1883
10399TIP3    H252689   5.118   3.556   1.768 -0.8952 -0.5964 -0.6937
10400TIP3   OH252690   2.688   5.447  14.594  0.2772  0.2362 -0.1004
10400TIP3    H152691   2.609   5.445  14.540 -0.0654 -0.4342  0.4253
10400TIP3    H252692   2.661   5.489  14.675  0.2171 -0.9027  0.4703
10401TIP3   OH252693   0.349   0.438  16.176  0.5420  0.2002 -0.6743
10401TIP3    H152694   0.331   0.459  16.085  0.5896 -2.4188 -1.3701
10401TIP3    H252695   0.363   0.343  16.177  2.4504  0.3877  1.7468
10402TIP3   OH252696   6.278   3.234  11.922 -0.2448  0.1409 -0.4757
10402TIP3    H152697   6.372   3.249  11.924 -0.6029  2.9678 -0.0424
10402TIP3    H252698   6.258   3.192  12.006  0.5167  0.4825 -0.1177
10403TIP3   OH252699   3.787   1.224   2.847 -0.4056 -0.2680 -0.0755
10403TIP3    H152700   3.750   1.307   2.817 -0.2997 -0.3728 -0.5053
10403TIP3    H252701   3.819   1.242   2.936 -0.8913 -0.0010  0.0472
10404TIP3   OH252702   3.586   2.087  11.675  0.2891 -0.5533  0.6307
10404TIP3    H152703   3.573   2.080  11.769 -1.3292 -0.2416  0.4511
10404TIP3    H252704   3.498   2.094  11.638  0.9267  2.2987 -0.6752
10405TIP3   OH252705   2.666   3.612  13.856 -0.0851 -1.2746 -0.4955
10405TIP3    H152706   2.644   3.555  13.783 -0.3547 -0.7152 -0.8521
10405TIP3    H252707   2.586   3.617  13.908 -0.2955 -0.6238 -0.8696
10406TIP3   OH252708   3.698   0.990   1.824  0.4330  0.4819 -0.7288
10406TIP3    H152709   3.645   0.924   1.870  2.3426 -0.4823  0.1890
10406TIP3    H252710   3.723   1.052   1.892  1.8376 -0.0019 -0.7702
10407TIP3   OH252711   6.747   3.060   2.455 -0.0667  0.5352  0.0743
10407TIP3    H152712   6.776   3.056   2.364 -0.0874  1.5292  0.0161
10407TIP3    H252713   6.661   3.103   2.450 -1.0070 -1.2022  0.3668
10408TIP3   OH252714   3.501   4.450  12.486 -0.2395 -0.6984  0.3064
10408TIP3    H152715   3.435   4.387  12.515  1.6443 -2.4681  1.0381
10408TIP3    H252716   3.583   4.400  12.485  0.9725  1.1401 -1.4450
10409TIP3   OH252717   3.032   6.375   0.431 -0.3510 -0.1771  0.3146
10409TIP3    H152718   3.010   6.312   0.363 -0.1608 -0.1254  0.2054
10409TIP3    H252719   3.128   6.378   0.432 -0.3524  1.1153 -0.6252
10410TIP3   OH252720   1.936   1.048  12.420  0.2487  0.0883  0.0685
10410TIP3    H152721   1.857   1.058  12.366 -1.2633  2.1460  2.4722
10410TIP3    H252722   1.995   1.117  12.389  0.5332 -0.5051 -0.7439
10411TIP3   OH252723   5.871   1.491   4.148 -0.4759  0.1052 -0.9046
10411TIP3    H152724   5.797   1.538   4.110 -0.5254 -0.1100 -1.0812
10411TIP3    H252725   5.846   1.477   4.240  0.2892  1.9393 -0.3728
10412TIP3   OH252726   5.595   6.668  15.654 -0.8238  0.0234  0.0752
10412TIP3    H152727   5.545   6.588  15.671  0.2757 -0.5893  0.5719
10412TIP3    H252728   5.601   6.673  15.559 -0.1773 -0.9752  0.0463
10413TIP3   OH252729   4.464   3.765   5.847  0.6382  0.0300  1.5516
10413TIP3    H152730   4.514   3.841   5.878  1.4564  0.0177  0.3417
10413TIP3    H252731   4.525   3.692   5.856  1.2867  0.1784 -0.9179
10414TIP3   OH252732   0.679   6.466   0.504  1.4955 -0.2304 -0.1555
10414TIP3    H152733   0.757   6.411   0.510  1.9050  0.1170 -1.6885
10414TIP3    H252734   0.620   6.417   0.445  0.6732 -0.3436  0.7368
10415TIP3   OH252735   6.566   4.059   6.836  0.0408  0.1236 -0.1856
10415TIP3    H152736   6.585   4.149   6.861  0.2698  0.0737 -0.1797
10415TIP3    H252737   6.577   4.058   6.741 -2.0594  0.6223 -0.4934
10416TIP3   OH252738   1.117   6.264   0.918 -0.1289 -0.1430 -0.2973
10416TIP3    H152739   1.213   6.261   0.928 -0.0732  2.3627  0.5153
10416TIP3    H252740   1.103   6.266   0.824  0.6504 -0.0681 -0.4251
10417TIP3   OH252741   4.949   2.816   2.147  0.2232  0.1504  0.9650
10417TIP3    H152742   5.020   2.778   2.198  0.0161  0.0756  1.1976
10417TIP3    H252743   4.878   2.830   2.210 -1.2330 -2.8639  0.1927
10418TIP3   OH252744   2.945   6.799  10.865  0.7055 -0.0218  0.1201
10418TIP3    H152745   3.000   6.876  10.880 -0.5501  0.8264  0.4922
10418TIP3    H252746   2.866   6.814  10.917 -0.1921 -0.8879 -0.9212
10419TIP3   OH252747   5.247   4.502  15.378 -0.3018  0.1004  0.2766
10419TIP3    H152748   5.293   4.587  15.381 -1.6213  0.8233  0.9292
10419TIP3    H252749   5.195   4.506  15.299 -2.3726  1.0442  1.5963
10420TIP3   OH252750   5.248   3.249   1.218  0.0959  0.5726 -0.3592
10420TIP3    H152751   5.258   3.213   1.306  2.1100 -0.3259 -0.8858
10420TIP3    H252752   5.185   3.320   1.227 -0.7937 -0.3997  1.5332
10421TIP3   OH252753   0.085   5.430   2.681 -0.0632 -0.0723  0.1420
10421TIP3    H152754   0.030   5.507   2.692  0.1241  0.1497 -0.4569
10421TIP3    H252755   0.096   5.395   2.770 -0.8045  0.1284  0.3177
10422TIP3   OH252756   3.621   2.504   2.396 -0.5668  0.2174  0.2324
10422TIP3    H152757   3.552   2.500   2.463 -2.0837 -1.3401 -1.2923
10422TIP3    H252758   3.595   2.577   2.339  0.0749  0.7951  0.6687
10423TIP3   OH252759   2.379   0.403  14.253  0.0006 -0.3741  0.1666
10423TIP3    H152760   2.410   0.374  14.339 -0.5523 -1.3514  0.0520
10423TIP3    H252761   2.382   0.499  14.257 -0.5132 -0.4007  1.4535
10424TIP3   OH252762   1.746   4.689   4.694  0.1924  0.1683 -0.4038
10424TIP3    H152763   1.676   4.662   4.634  0.6527  1.2651 -1.4892
10424TIP3    H252764   1.818   4.715   4.637 -0.1333  3.4348  0.4308
10425TIP3   OH252765   1.811   1.221  15.611  0.0509 -0.1937 -0.1591
10425TIP3    H152766   1.726   1.223  15.566 -0.5046  1.2884  0.8584
10425TIP3    H252767   1.829   1.313  15.630  2.0349 -0.4612 -0.5755
10426TIP3   OH252768   2.570   5.209  15.984 -0.0423 -0.5320  0.0723
10426TIP3    H152769   2.636   5.255  15.932 -1.3182  0.5578 -0.6277
10426TIP3    H252770   2.540   5.275  16.048 -2.0026 -0.2730 -1.0404
10427TIP3   OH252771   2.854   6.576  14.257  0.2817  0.3139 -0.1030
10427TIP3    H152772   2.768   6.540  14.280  0.4367 -0.9410 -1.4247
10427TIP3    H252773   2.884   6.617  14.338 -0.2239 -1.8846  1.2804
10428TIP3   OH252774   3.396   4.331  17.093 -0.3818  0.0365 -0.1096
10428TIP3    H152775   3.313   4.303  17.132 -0.2743 -1.0187 -0.6080
10428TIP3    H252776   3.433   4.392  17.157 -1.6355  0.6974  0.0085
10429TIP3   OH252777   1.259   1.275   0.279 -0.3334  0.0361  0.2467
10429TIP3    H152778   1.167   1.252   0.270 -0.5654  1.3757 -1.2762
10429TIP3    H252779   1.260   1.348   0.342 -0.3674  0.3346 -0.0984
10430TIP3   OH252780   3.728   1.187  16.385 -0.5739  0.0875  0.0389
10430TIP3    H152781   3.780   1.108  16.373 -0.2892 -0.3368  3.2809
10430TIP3    H252782   3.791   1.254  16.409 -1.1911  0.2537  1.2794
10431TIP3   OH252783   5.841   3.122  15.000 -0.3446  0.2754  0.4998
10431TIP3    H152784   5.776   3.116  14.930 -0.0791  0.7304  0.2079
10431TIP3    H252785   5.892   3.200  14.979  1.8629 -1.3728 -0.6067
10432TIP3   OH252786   4.890   2.284  11.122 -0.5946  0.4776  0.1082
10432TIP3    H152787   4.978   2.308  11.149 -1.0108  0.5499  1.5178
10432TIP3    H252788   4.900   2.243  11.036  0.8920 -0.2098  0.5833
10433TIP3   OH252789   6.692   1.916  10.952  0.2989 -0.5868 -0.0213
10433TIP3    H152790   6.729   1.855  10.888  0.4784 -1.8755  1.2667
10433TIP3    H252791   6.725   1.886  11.037  1.4702  2.1081  0.5873
10434TIP3   OH252792   0.961   5.250  16.289 -0.1796  0.0043  0.5502
10434TIP3    H152793   1.056   5.259  16.297 -0.2598  2.2934 -0.3198
10434TIP3    H252794   0.927   5.277  16.374 -0.1130  2.5237 -0.1276
10435TIP3   OH252795   0.567   5.956   2.307 -0.0467 -0.5049 -0.1661
10435TIP3    H152796   0.524   5.871   2.302  0.3952 -0.6647 -2.5746
10435TIP3    H252797   0.658   5.938   2.285  0.4384  0.3823  1.0104
10436TIP3   OH252798   1.396   2.199  14.651  0.3100  0.3189 -0.0447
10436TIP3    H152799   1.334   2.164  14.716 -0.5128 -0.5658 -1.2529
10436TIP3    H252800   1.348   2.269  14.607  0.6025  0.4289 -0.1940
10437TIP3   OH252801   2.063   0.801   5.974  0.4171 -0.6892 -0.1153
10437TIP3    H152802   2.064   0.715   6.016  2.8828  0.0052  1.4171
10437TIP3    H252803   2.064   0.863   6.047 -1.9102  0.7341 -1.1732
10438TIP3   OH252804   2.765   1.180  17.120 -0.0059 -0.1396 -0.3004
10438TIP3    H152805   2.779   1.193  17.026 -0.3764  0.9272 -0.2138
10438TIP3    H252806   2.689   1.234  17.141 -0.1586 -0.6716  0.5447
10439TIP3   OH252807   2.417   3.529   4.492 -0.2612  0.6077 -0.1299
10439TIP3    H152808   2.497   3.572   4.460  0.7452 -1.3514 -0.4191
10439TIP3    H252809   2.385   3.480   4.417 -1.2915  0.7055  0.2331
10440TIP3   OH252810   2.305   1.018  13.602  0.5430 -0.4171  0.5587
10440TIP3    H152811   2.339   0.981  13.683  0.8844 -1.7212 -0.1458
10440TIP3    H252812   2.332   1.109  13.604 -0.8397  0.0091  2.6413
10441TIP3   OH252813   0.580   6.385   5.931  0.6003  0.1132 -0.0330
10441TIP3    H152814   0.616   6.302   5.899 -0.8350 -0.4499 -0.2984
10441TIP3    H252815   0.654   6.429   5.972  2.4447  0.6385 -3.5806
10442TIP3   OH252816   2.754   3.447   4.636 -0.2905  0.0444  0.8768
10442TIP3    H152817   2.781   3.535   4.611  1.0983 -0.1010  1.7491
10442TIP3    H252818   2.782   3.392   4.562 -3.6295  0.6032 -0.9727
10443TIP3   OH252819   6.053   5.765  11.012  0.3163 -0.3827 -0.3862
10443TIP3    H152820   6.118   5.818  10.966  0.3596 -0.3236 -0.2576
10443TIP3    H252821   6.066   5.676  10.977 -0.5454 -0.1014 -1.4582
10444TIP3   OH252822   5.216   6.024  15.422  0.2953  0.7009 -0.4700
10444TIP3    H152823   5.240   6.116  15.414 -0.6639  0.9115 -1.0953
10444TIP3    H252824   5.183   6.000  15.335 -2.2223  0.5989  0.4262
10445TIP3   OH252825   1.695   6.461  17.050 -0.5504  0.4409 -0.4967
10445TIP3    H152826   1.678   6.453  17.144  1.1121 -1.4603 -0.2901
10445TIP3    H252827   1.731   6.549  17.040  0.2116  0.3122  0.8274
10446TIP3   OH252828   4.653   5.068  10.460  0.0181  0.2907 -0.1707
10446TIP3    H152829   4.574   5.123  10.462 -1.5124 -1.7939 -0.5878
10446TIP3    H252830   4.722   5.128  10.430 -1.7002  1.8346 -1.3051
10447TIP3   OH252831   4.800   0.290   0.158 -0.8524  0.3843  0.3417
10447TIP3    H152832   4.727   0.237   0.127 -0.8815  0.7616 -0.2612
10447TIP3    H252833   4.786   0.376   0.118 -0.3524  0.6016  0.6209
10448TIP3   OH252834   2.180   4.035   3.013 -0.1772  0.6268  0.1030
10448TIP3    H152835   2.157   4.086   2.935 -0.0447  2.0465  0.9564
10448TIP3    H252836   2.197   4.101   3.080  0.5695 -0.5520  1.1008
10449TIP3   OH252837   6.107   4.780   0.826  0.0308 -0.3062  0.5101
10449TIP3    H152838   6.097   4.870   0.855 -1.2444 -0.8657  1.9612
10449TIP3    H252839   6.071   4.778   0.737 -0.9961  0.3929  0.8976
10450TIP3   OH252840   4.610   5.042  13.097  0.0710 -0.2650 -0.5304
10450TIP3    H152841   4.678   5.057  13.031  0.3218 -0.5129 -0.3328
10450TIP3    H252842   4.602   4.947  13.103  0.5204 -0.2687  0.2582
10451TIP3   OH252843   3.070   4.881  11.291 -0.0730  0.4945  0.2317
10451TIP3    H152844   3.012   4.814  11.326 -1.1128  1.3025  0.1028
10451TIP3    H252845   3.131   4.901  11.362  0.7051 -1.0759  0.0317
10452TIP3   OH252846   4.723   3.434   5.095  0.4248  0.2662  0.0548
10452TIP3    H152847   4.751   3.346   5.070  0.1890 -0.3685  1.8586
10452TIP3    H252848   4.797   3.469   5.146  0.4534  1.0546 -0.5226
10453TIP3   OH252849   2.098   3.391  12.589 -0.1498  0.4293 -0.3678
10453TIP3    H152850   2.032   3.459  12.603 -0.7664 -0.2541  0.0924
10453TIP3    H252851   2.049   3.315  12.560  0.4334 -0.1020  0.0087
10454TIP3   OH252852   2.420   0.309  16.041 -0.0002  0.0161  0.2844
10454TIP3    H152853   2.514   0.295  16.046  0.0874  1.0091  1.9448
10454TIP3    H252854   2.382   0.239  16.094 -0.1369  0.2673  0.5175
10455TIP3   OH252855   4.485   2.589   1.718  0.1384  0.4364  0.0791
10455TIP3    H152856   4.540   2.513   1.739  0.9769  0.4867 -1.7577
10455TIP3    H252857   4.436   2.562   1.641 -0.0642  1.5305 -0.1792
10456TIP3   OH252858   2.046   3.276   5.556  0.4079  0.0857 -0.1319
10456TIP3    H152859   2.019   3.316   5.639 -0.2748 -0.6229  0.0024
10456TIP3    H252860   2.033   3.345   5.491  0.0084  0.3399  0.2079
10457TIP3   OH252861   2.448   0.689   3.553 -0.0203  0.4414 -0.6968
10457TIP3    H152862   2.390   0.652   3.486  0.5127  1.3198 -1.6595
10457TIP3    H252863   2.391   0.745   3.606 -0.2967  0.3172 -0.8608
10458TIP3   OH252864   4.634   1.626   1.902 -0.0673  0.0924  0.3478
10458TIP3    H152865   4.689   1.703   1.918  0.2565 -0.3299  1.3388
10458TIP3    H252866   4.614   1.630   1.809  0.7144  0.8632  0.1997
10459TIP3   OH252867   1.989   6.610  15.556  0.1362 -0.5094 -0.7387
10459TIP3    H152868   2.046   6.686  15.563  0.1600  0.0523 -4.8307
10459TIP3    H252869   2.045   6.536  15.580  0.6231  0.4800  1.5058
10460TIP3   OH252870   0.914   1.204   3.311  0.1059  0.2401  0.3096
10460TIP3    H152871   0.891   1.296   3.321  1.6714  0.6347  0.5555
10460TIP3    H252872   0.924   1.192   3.216  0.7194  0.5456  0.3322
10461TIP3   OH252873   4.288   0.490   4.440  0.1899 -0.1951  0.6592
10461TIP3    H152874   4.351   0.463   4.373 -0.0018 -3.0090  1.4594
10461TIP3    H252875   4.205   0.497   4.392  0.5334  0.4770  0.1475
10462TIP3   OH252876   2.104   4.207   1.830 -0.2750 -0.1871  0.1281
10462TIP3    H152877   2.135   4.248   1.749 -0.3453 -0.3559  0.0172
10462TIP3    H252878   2.127   4.271   1.899  0.9212 -0.5955  0.1303
10463TIP3   OH252879   1.738   3.785   5.676 -0.5960 -0.1709 -0.5184
10463TIP3    H152880   1.744   3.804   5.770 -0.0805  0.3590 -0.6519
10463TIP3    H252881   1.815   3.732   5.657  0.5266  1.5550 -1.0538
10464TIP3   OH252882   6.413   4.212  10.338  0.5498 -0.3140 -0.4666
10464TIP3    H152883   6.435   4.120  10.352 -0.0646 -0.3656  0.2331
10464TIP3    H252884   6.320   4.218  10.359 -0.0560 -0.0293 -2.9100
10465TIP3   OH252885   6.186   3.301   5.355  0.1503  0.1908 -0.7003
10465TIP3    H152886   6.122   3.336   5.418  1.0374 -0.9405  0.9088
10465TIP3    H252887   6.135   3.286   5.276 -1.4999 -0.1901  0.3693
10466TIP3   OH252888   4.151   2.902   5.970 -0.3122 -0.2245  0.1932
10466TIP3    H152889   4.141   2.939   5.882 -2.6870  0.6627  0.7527
10466TIP3    H252890   4.225   2.950   6.007  0.1386  0.0414 -0.9799
10467TIP3   OH252891   2.818   4.219  12.584  0.4030  0.5478  0.0887
10467TIP3    H152892   2.851   4.296  12.538  1.6421  0.2399  0.4188
10467TIP3    H252893   2.870   4.146  12.550  0.9418  0.2301  1.5124
10468TIP3   OH252894   6.397   4.863  14.100  0.0816  0.4308 -0.1031
10468TIP3    H152895   6.327   4.896  14.156 -0.3107  0.6448 -0.7041
10468TIP3    H252896   6.367   4.882  14.011 -1.0460 -3.2073 -0.6512
10469TIP3   OH252897   0.599   1.986   0.705 -0.5639  0.1741 -0.4625
10469TIP3    H152898   0.586   2.069   0.660  0.0017  0.5081 -0.0198
10469TIP3    H252899   0.665   2.005   0.772 -2.6838  0.1542  1.7530
10470TIP3   OH252900   5.894   4.839  15.455 -0.1140 -0.3103  0.1056
10470TIP3    H152901   5.881   4.816  15.547  1.5223 -1.1145  0.1796
10470TIP3    H252902   5.929   4.929  15.458  1.8052 -1.0200  0.4496
10471TIP3   OH252903   6.307   5.646  11.799 -0.0872  0.1894  0.5812
10471TIP3    H152904   6.366   5.641  11.723 -0.9709  1.8867 -0.2700
10471TIP3    H252905   6.267   5.559  11.803  2.4301 -1.0453  1.2062
10472TIP3   OH252906   6.060   3.700  12.099  0.2288  0.3075  0.2585
10472TIP3    H152907   6.067   3.608  12.074  1.5104  0.4079  0.1535
10472TIP3    H252908   6.151   3.729  12.108 -0.1422  1.8067 -0.5807
10473TIP3   OH252909   0.346   4.106   3.341 -0.6023  0.6880 -0.5747
10473TIP3    H152910   0.395   4.031   3.308 -1.6999 -0.0688 -0.5625
10473TIP3    H252911   0.302   4.073   3.419 -3.0962  0.5503 -1.9287
10474TIP3   OH252912   0.569   2.166   5.356 -0.3597  0.4577 -0.5475
10474TIP3    H152913   0.549   2.143   5.446 -0.2479 -1.6876 -1.0331
10474TIP3    H252914   0.526   2.251   5.343 -0.1236  0.9456  1.5812
10475TIP3   OH252915   4.820   3.688   0.384  0.2107  0.3226 -0.3136
10475TIP3    H152916   4.764   3.662   0.311 -1.2248 -1.4735  1.3101
10475TIP3    H252917   4.791   3.633   0.457  1.5661  2.0397  1.6292
10476TIP3   OH252918   4.725   3.914   5.225  0.2798 -0.0905 -0.4429
10476TIP3    H152919   4.728   3.874   5.138  2.2355 -0.8267 -0.0963
10476TIP3    H252920   4.639   3.892   5.259  0.7570 -2.9379 -0.8156
10477TIP3   OH252921   2.489   6.543   1.144 -0.3820 -0.3520 -0.1153
10477TIP3    H152922   2.555   6.588   1.197 -1.9362 -0.1967  1.8243
10477TIP3    H252923   2.413   6.602   1.146 -1.4787 -1.7169  0.0171
10478TIP3   OH252924   5.089   2.093   5.624  0.3175 -0.1556 -0.4984
10478TIP3    H152925   5.154   2.157   5.653 -1.6047  1.6939  0.0694
10478TIP3    H252926   5.136   2.035   5.564  2.9752 -0.3237  1.5714
10479TIP3   OH252927   1.804   3.627  14.140 -0.2622  0.6635  0.7655
10479TIP3    H152928   1.719   3.622  14.184 -0.4381  1.9022  0.6045
10479TIP3    H252929   1.848   3.701  14.181 -0.3038  1.6662 -0.9177
10480TIP3   OH252930   2.674   5.637   3.961  0.2919 -0.4870  0.1791
10480TIP3    H152931   2.626   5.635   3.878 -1.4348 -1.7707  1.1360
10480TIP3    H252932   2.737   5.708   3.950  2.3890 -2.5444 -3.3910
10481TIP3   OH252933   0.992   3.566   5.408 -0.1251 -0.2200 -0.1918
10481TIP3    H152934   0.954   3.619   5.338 -0.8591 -0.8192 -0.2614
10481TIP3    H252935   0.926   3.569   5.478  0.8909  0.9268  0.7553
10482TIP3   OH252936   3.194   2.714  15.170  0.2215 -0.3287  1.0820
10482TIP3    H152937   3.159   2.722  15.259  0.9326 -0.5033  1.3843
10482TIP3    H252938   3.285   2.687  15.182 -0.0645 -1.7596  0.2620
10483TIP3   OH252939   6.446   2.954   2.680 -0.0123  0.2143  0.4386
10483TIP3    H152940   6.541   2.967   2.690  0.0107  0.6822 -0.2696
10483TIP3    H252941   6.434   2.860   2.691  0.5471  0.1376  0.4623
10484TIP3   OH252942   4.717   0.557   2.210  0.7139  0.3489 -0.1584
10484TIP3    H152943   4.659   0.522   2.143  1.1647 -0.6682 -0.0364
10484TIP3    H252944   4.757   0.480   2.250  0.4669  0.9380  1.2814
10485TIP3   OH252945   6.633   5.559   3.760  0.6333  0.3752  0.4006
10485TIP3    H152946   6.572   5.536   3.830  1.0054 -0.9848  0.3103
10485TIP3    H252947   6.701   5.610   3.804  1.0369 -0.7384  1.1152
10486TIP3   OH252948   1.145   3.150  14.941 -0.2340 -0.0358  0.4275
10486TIP3    H152949   1.174   3.223  14.994  1.5009 -0.2553 -0.1665
10486TIP3    H252950   1.135   3.186  14.852  0.8595 -0.5424  0.0823
10487TIP3   OH252951   2.493   3.518  11.928 -0.2384  0.3771 -0.1340
10487TIP3    H152952   2.558   3.461  11.888  0.0924  0.7351 -0.1096
10487TIP3    H252953   2.539   3.560  12.000 -0.5030  0.6162 -0.1026
10488TIP3   OH252954   1.066   1.267  16.324  0.0779 -0.5371 -0.3182
10488TIP3    H152955   1.119   1.187  16.319 -0.5265 -1.0075  0.4448
10488TIP3    H252956   1.121   1.335  16.285  1.3709 -0.9378  0.7293
10489TIP3   OH252957   1.052   4.978   4.806 -0.0951  0.9351  0.3846
10489TIP3    H152958   1.125   4.923   4.835  0.4476  1.9807  1.0866
10489TIP3    H252959   0.974   4.928   4.827  0.3997 -0.7487 -1.4666
10490TIP3   OH252960   6.540   2.737  15.462  0.3501  0.2977 -0.3872
10490TIP3    H152961   6.458   2.774  15.427  1.1809  0.5113 -2.2248
10490TIP3    H252962   6.512   2.681  15.535 -1.3768  0.8046 -0.6133
10491TIP3   OH252963   4.959   5.211   1.366  0.1423 -0.0503  0.2705
10491TIP3    H152964   4.914   5.224   1.282  0.1316  0.6349  0.3739
10491TIP3    H252965   4.995   5.123   1.361  0.5728  0.1660 -0.6570
10492TIP3   OH252966   5.792   4.286  13.536 -0.1312 -0.1347 -1.0250
10492TIP3    H152967   5.824   4.232  13.608 -1.4763  1.4330  0.8601
10492TIP3    H252968   5.871   4.313  13.489  1.4393  2.5615  2.6641
10493TIP3   OH252969   1.623   4.965   4.616 -0.0545  0.5276  0.3243
10493TIP3    H152970   1.653   5.056   4.621  1.3614  0.0782  0.5649
10493TIP3    H252971   1.695   4.915   4.653 -1.3164 -0.6061  1.3262
10494TIP3   OH252972   4.194   5.453  11.837 -0.3788  0.4979 -0.0126
10494TIP3    H152973   4.238   5.453  11.753 -1.6611 -0.7474 -0.7300
10494TIP3    H252974   4.264   5.447  11.902  0.5878 -4.3824 -1.1343
10495TIP3   OH252975   5.485   3.478   1.420  0.2837  0.6843  0.1079
10495TIP3    H152976   5.398   3.518   1.425 -0.5517 -0.9175 -0.5266
10495TIP3    H252977   5.521   3.509   1.337  0.1128  0.9801  0.1430
10496TIP3   OH252978   4.756   4.055  15.511  0.1361 -0.1870 -0.5138
10496TIP3    H152979   4.673   4.016  15.483 -0.4518  0.1455  0.6889
10496TIP3    H252980   4.758   4.040  15.606  0.1266  2.2352 -0.0753
10497TIP3   OH252981   5.652   1.920  12.260 -0.3279 -0.1163 -0.1935
10497TIP3    H152982   5.739   1.950  12.232  0.4241 -0.4950  1.5979
10497TIP3    H252983   5.593   1.951  12.191  1.1791  0.4082 -1.3111
10498TIP3   OH252984   6.108   2.219  15.330 -0.3658 -0.1130 -0.1697
10498TIP3    H152985   6.049   2.288  15.362  0.5556  0.8649 -0.5259
10498TIP3    H252986   6.157   2.192  15.407 -0.6675 -0.3128 -0.0464
10499TIP3   OH252987   4.845   1.030  13.490 -0.0687 -0.1045 -0.2869
10499TIP3    H152988   4.920   0.987  13.449 -0.7932 -0.0204 -1.7625
10499TIP3    H252989   4.851   1.005  13.582  2.4463  0.8969 -0.0903
10500TIP3   OH252990   2.604   5.170   6.018 -0.7434 -0.1259 -0.8794
10500TIP3    H152991   2.555   5.099   5.978 -3.6440 -0.5520  2.8992
10500TIP3    H252992   2.653   5.128   6.089 -1.5445  1.4172  0.6507
10501TIP3   OH252993   1.495   0.891   4.424 -0.2920 -0.2994 -0.3407
10501TIP3    H152994   1.451   0.833   4.362 -1.0587 -0.8450  0.6803
10501TIP3    H252995   1.424   0.933   4.473  0.2728 -0.9481  1.1170
10502TIP3   OH252996   3.737   1.407  15.282 -0.2633  0.0474 -0.6666
10502TIP3    H152997   3.707   1.318  15.264  0.2621 -0.4416  0.7106
10502TIP3    H252998   3.677   1.463  15.233 -1.6361 -1.0062 -0.2499
10503TIP3   OH252999   2.106   3.092  11.641  0.1255  0.1239  0.1420
10503TIP3    H153000   2.140   3.002  11.644 -1.8000 -0.6887 -0.4264
10503TIP3    H253001   2.071   3.107  11.728  0.0666  0.1652  0.1107
10504TIP3   OH253002   4.838   0.489  13.384 -0.0620  0.0241  0.4005
10504TIP3    H153003   4.809   0.399  13.368 -1.0829  0.5190 -0.7421
10504TIP3    H253004   4.917   0.480  13.436 -0.2868 -1.5278  0.5289
10505TIP3   OH253005   3.421   3.647   0.901  0.1503  0.2148 -0.0242
10505TIP3    H153006   3.386   3.734   0.885 -1.0731  0.2918  2.6255
10505TIP3    H253007   3.376   3.616   0.980  1.9191 -2.0561  0.2207
10506TIP3   OH253008   1.140   1.007   1.273  0.1178  0.1660 -0.1333
10506TIP3    H153009   1.203   0.943   1.239  1.2979  0.1136  1.9941
10506TIP3    H253010   1.055   0.965   1.264  0.4668 -0.2275 -2.0313
10507TIP3   OH253011   1.830   2.087   3.085  0.3372 -0.1783 -0.0396
10507TIP3    H153012   1.907   2.034   3.103  0.8432  0.9248  1.2516
10507TIP3    H253013   1.835   2.106   2.992  3.0874  1.9513  0.3966
10508TIP3   OH253014   1.208   2.656   1.706 -0.0649 -0.3048 -0.2572
10508TIP3    H153015   1.179   2.576   1.664 -0.9457  0.1053 -0.4705
10508TIP3    H253016   1.147   2.723   1.675  1.7890  0.8559 -1.5953
10509TIP3   OH253017   6.411   3.000  15.700 -0.2311  0.2736 -0.1649
10509TIP3    H153018   6.318   3.007  15.722  0.0360 -0.8390  1.6013
10509TIP3    H253019   6.435   2.913  15.730  1.5440  0.8134  0.0748
10510TIP3   OH253020   5.218   4.067  13.380  0.1533 -0.5551  0.4775
10510TIP3    H153021   5.191   4.118  13.456 -0.9966 -0.8734  0.3098
10510TIP3    H253022   5.175   3.982  13.392  1.0533 -1.0794  0.1459
10511TIP3   OH253023   2.445   3.030   2.016  0.9137 -0.1007 -0.7534
10511TIP3    H153024   2.540   3.023   2.008  1.0690 -0.7252  1.0527
10511TIP3    H253025   2.429   3.035   2.111 -0.8176  0.6692 -1.0395
10512TIP3   OH253026   0.419   5.391   5.133 -0.0842  0.0678  0.2984
10512TIP3    H153027   0.359   5.436   5.073 -1.4035  2.2263  2.9766
10512TIP3    H253028   0.502   5.438   5.123 -0.0560 -0.1297 -0.4132
10513TIP3   OH253029   4.741   6.375   4.049  0.4693  0.0435 -0.2743
10513TIP3    H153030   4.777   6.462   4.028 -0.8605  0.5069 -0.7517
10513TIP3    H253031   4.667   6.365   3.988 -0.4478 -0.6961  0.9304
10514TIP3   OH253032   1.141   6.048   4.176 -0.0818  0.2629  0.3531
10514TIP3    H153033   1.156   6.081   4.088  0.6321 -0.1278  0.3270
10514TIP3    H253034   1.218   5.996   4.197  0.1802  1.0701  1.5518
10515TIP3   OH253035   3.944   4.625  15.289 -0.3762  0.5994  0.3546
10515TIP3    H153036   3.987   4.649  15.207 -0.1066  3.6434  1.2598
10515TIP3    H253037   3.876   4.563  15.263  1.9671 -1.3640 -1.6252
10516TIP3   OH253038   4.734   2.426   0.588  0.0214  0.7814  0.1458
10516TIP3    H153039   4.680   2.358   0.629  0.2010  2.0321  2.6631
10516TIP3    H253040   4.822   2.388   0.584 -0.7425 -0.9747 -3.2617
10517TIP3   OH253041   1.908   2.754   0.141  0.0506  0.5952  0.0940
10517TIP3    H153042   1.978   2.800   0.095  2.4187 -2.0174  0.8053
10517TIP3    H253043   1.897   2.672   0.092 -0.5012 -0.3019  1.6409
10518TIP3   OH253044   6.536   1.085  15.276 -0.1709 -0.3425 -0.0153
10518TIP3    H153045   6.597   1.073  15.350 -1.2846  0.2607  1.0412
10518TIP3    H253046   6.593   1.097  15.200  1.0318  0.1417  0.9239
10519TIP3   OH253047   6.689   0.638   0.348  0.6786  0.0975  0.4393
10519TIP3    H153048   6.729   0.553   0.369  0.0657  0.1934  2.1669
10519TIP3    H253049   6.759   0.701   0.361  0.0736  0.2826  3.6149
10520TIP3   OH253050   4.720   6.404   2.471 -0.3628  0.2349 -0.6326
10520TIP3    H153051   4.652   6.388   2.406  0.5895 -0.8654 -1.4009
10520TIP3    H253052   4.795   6.352   2.441  0.5271  0.7103  0.6609
10521TIP3   OH253053   6.181   4.451  15.752 -0.4968  0.0783 -0.3267
10521TIP3    H153054   6.206   4.486  15.838 -0.3698  1.4661 -0.9055
10521TIP3    H253055   6.264   4.425  15.712 -0.6343 -1.4119  0.2974
10522TIP3   OH253056   1.432   4.931  14.326  0.4534  0.5369  0.6000
10522TIP3    H153057   1.477   4.849  14.346  1.1409  0.6843 -0.2797
10522TIP3    H253058   1.503   4.995  14.318  0.1783  0.6577 -1.3914
10523TIP3   OH253059   1.462   6.080   2.617 -0.0108 -0.1861 -0.2636
10523TIP3    H153060   1.508   6.021   2.558 -1.6056 -0.0806 -1.7032
10523TIP3    H253061   1.405   6.023   2.669  0.9728 -0.2212  0.8030
10524TIP3   OH253062   2.540   3.523   3.623  0.3847  0.1487  0.4225
10524TIP3    H153063   2.619   3.481   3.657  0.3822 -0.0222  0.2220
10524TIP3    H253064   2.572   3.594   3.567  0.4130  2.3461  3.0166
10525TIP3   OH253065   0.974   4.539  11.612  0.0829  0.2068 -0.2804
10525TIP3    H153066   0.988   4.632  11.628  0.8987  0.1382 -0.5481
10525TIP3    H253067   0.879   4.530  11.603  0.1169  1.4537 -2.9034
10526TIP3   OH253068   0.476   2.476  13.520 -0.4006  0.0160  0.2438
10526TIP3    H153069   0.569   2.475  13.498 -0.2311  1.0938  0.8265
10526TIP3    H253070   0.466   2.552  13.577 -1.5938 -0.2463  0.4116
10527TIP3   OH253071   1.411   5.834  15.592 -0.7676 -0.7336  0.1000
10527TIP3    H153072   1.413   5.746  15.628 -0.5625 -0.6466  0.3019
10527TIP3    H253073   1.492   5.875  15.623 -1.8822  0.2635  1.8569
10528TIP3   OH253074   4.478   6.143  14.517 -0.5473  0.3833 -0.0083
10528TIP3    H153075   4.483   6.158  14.422 -2.2733 -0.7278 -0.3181
10528TIP3    H253076   4.556   6.092  14.538 -0.8220 -0.5234 -1.0965
10529TIP3   OH253077   4.376   6.526   5.678 -0.1733  0.0882  0.0877
10529TIP3    H153078   4.332   6.515   5.593 -3.8448 -2.0967  2.0018
10529TIP3    H253079   4.427   6.446   5.690 -1.2044 -0.5115  0.6558
10530TIP3   OH253080   4.882   6.485  12.666  0.6946  0.1536 -0.1944
10530TIP3    H153081   4.800   6.497  12.714  1.0116  0.3390  0.3027
10530TIP3    H253082   4.909   6.574  12.643  1.1822  0.1515  0.3584
10531TIP3   OH253083   2.207   3.966   5.929  0.1910 -0.1739 -0.4815
10531TIP3    H153084   2.236   3.887   5.974 -0.6708  0.6252  1.5906
10531TIP3    H253085   2.274   4.031   5.949 -0.3795  0.2837 -0.0353
10532TIP3   OH253086   5.829   3.325   1.307  0.4350  0.1344 -1.1457
10532TIP3    H153087   5.777   3.286   1.237  0.6274 -0.9080 -0.7172
10532TIP3    H253088   5.901   3.370   1.262  1.2693 -1.5752 -1.5860
10533TIP3   OH253089   4.592   2.267   0.822  0.3709  0.5806  0.2027
10533TIP3    H153090   4.497   2.253   0.826  0.2331  1.1940 -0.6282
10533TIP3    H253091   4.611   2.322   0.898 -0.4488  3.0407 -1.2813
10534TIP3   OH253092   1.386   4.595   2.770 -0.0598 -0.6003 -0.5344
10534TIP3    H153093   1.357   4.618   2.682 -0.5850 -1.1681 -0.5218
10534TIP3    H253094   1.429   4.674   2.804 -3.0487  0.8998  0.0661
10535TIP3   OH253095   0.115   6.663  13.594  0.0290  0.1931  0.3386
10535TIP3    H153096   0.177   6.736  13.600 -0.2579  0.4160  0.5602
10535TIP3    H253097   0.171   6.585  13.584  0.3429  0.3962  0.5064
10536TIP3   OH253098   3.830   6.786  11.119  0.1366  0.1449 -0.1314
10536TIP3    H153099   3.893   6.726  11.077  0.6077 -0.8084  1.8434
10536TIP3    H253100   3.884   6.841  11.176 -0.7338 -0.3182  1.1732
10537TIP3   OH253101   3.366   2.223  10.690 -0.3366  0.9271  0.3859
10537TIP3    H153102   3.351   2.137  10.729 -1.4488  1.7237  1.8351
10537TIP3    H253103   3.399   2.205  10.602  0.2879 -0.9635  0.9727
10538TIP3   OH253104   2.568   4.042  16.967  0.1135 -0.2216 -0.9213
10538TIP3    H153105   2.510   3.979  17.010  0.7619 -1.1400 -1.3783
10538TIP3    H253106   2.512   4.086  16.903 -0.5579  0.2956 -0.0142
10539TIP3   OH253107   0.722   1.684   6.117 -0.3383  0.3074  0.2944
10539TIP3    H153108   0.665   1.643   6.182 -1.4782  0.4789 -0.5589
10539TIP3    H253109   0.751   1.765   6.159 -1.2707  0.5474  0.5070
10540TIP3   OH253110   2.875   2.051  14.845  0.4234  0.3713  0.1361
10540TIP3    H153111   2.821   2.035  14.922 -0.0274  0.6370 -0.1232
10540TIP3    H253112   2.824   2.111  14.791  0.6450  0.0202 -0.4743
10541TIP3   OH253113   0.206   4.534   2.145 -0.1924 -0.1920  0.0760
10541TIP3    H153114   0.150   4.541   2.222  2.8796 -0.3006  2.5456
10541TIP3    H253115   0.160   4.583   2.076 -2.9034  0.2509  2.0391
10542TIP3   OH253116   3.871   5.574   0.667 -0.0537  0.4425  0.4246
10542TIP3    H153117   3.818   5.495   0.679 -0.0395  0.6313  1.8848
10542TIP3    H253118   3.809   5.646   0.676  0.3217  0.6471  1.4317
10543TIP3   OH253119   1.738   3.818  13.504 -0.3706 -0.1093 -0.1004
10543TIP3    H153120   1.786   3.899  13.484 -0.8712  0.3219  0.3833
10543TIP3    H253121   1.703   3.789  13.420 -0.9124  0.6612 -0.1490
10544TIP3   OH253122   0.710   1.089   0.570  0.0096 -0.2660 -0.4272
10544TIP3    H153123   0.725   1.063   0.479 -1.1749  3.0462 -1.6985
10544TIP3    H253124   0.795   1.117   0.602  0.0254  0.8665 -1.3913
10545TIP3   OH253125   6.619   0.612  16.307  0.5806 -0.0123 -0.3232
10545TIP3    H153126   6.589   0.590  16.395  0.6533 -1.2003 -0.5863
10545TIP3    H253127   6.637   0.706  16.311  0.8525 -0.1042  1.0052
10546TIP3   OH253128   0.622   6.764   2.974  0.2091  0.3905  0.0683
10546TIP3    H153129   0.623   6.668   2.977 -0.5140  0.3796  0.2084
10546TIP3    H253130   0.565   6.789   3.047 -1.6720  0.8380 -1.4842
10547TIP3   OH253131   1.509   1.153   4.083  0.4907  0.3875 -0.2327
10547TIP3    H153132   1.466   1.212   4.145 -0.6522 -0.2726 -0.3768
10547TIP3    H253133   1.559   1.211   4.026  0.9338  1.0616  0.8095
10548TIP3   OH253134   3.232   0.571   5.949 -0.1467  0.0462  0.9458
10548TIP3    H153135   3.260   0.518   5.874 -2.3525 -0.8292  0.6522
10548TIP3    H253136   3.276   0.531   6.024  1.0212  0.0815  0.3042
10549TIP3   OH253137   6.263   1.625  14.699  0.1266 -0.4089  0.2622
10549TIP3    H153138   6.323   1.575  14.643  1.4359  0.3208  0.9788
10549TIP3    H253139   6.309   1.635  14.782 -0.8374  0.4989  0.7171
10550TIP3   OH253140   4.298   1.436   5.894 -0.2364  0.2059  0.5792
10550TIP3    H153141   4.351   1.464   5.820 -0.1657 -1.0740  0.1091
10550TIP3    H253142   4.278   1.516   5.942 -0.1339  1.0339 -0.7228
10551TIP3   OH253143   6.554   0.951   0.113  0.2471  0.6545  0.1041
10551TIP3    H153144   6.470   0.910   0.094  0.7946 -0.5774  0.2517
10551TIP3    H253145   6.540   0.996   0.197 -0.7582  1.9684 -0.7366
10552TIP3   OH253146   5.001   0.740   3.880 -0.5963  0.3220 -0.5298
10552TIP3    H153147   4.932   0.741   3.946  0.2327 -1.1863  0.4189
10552TIP3    H253148   5.081   0.720   3.929  0.4155  1.3145 -1.7075
10553TIP3   OH253149   4.252   4.156   2.157  0.3422 -0.5480  0.2542
10553TIP3    H153150   4.198   4.200   2.222  0.4108 -1.5501  1.0239
10553TIP3    H253151   4.269   4.222   2.090 -2.7608 -0.4982 -0.6059
10554TIP3   OH253152   4.721   3.043  16.171 -0.2803 -0.1538  0.1624
10554TIP3    H153153   4.732   3.134  16.146 -2.7648 -0.2140 -1.4238
10554TIP3    H253154   4.715   3.045  16.267  1.7611  1.0211  0.3202
10555TIP3   OH253155   4.606   2.702   1.469 -0.4234 -0.0704 -0.5973
10555TIP3    H153156   4.537   2.636   1.478 -0.2673 -0.1663 -0.0958
10555TIP3    H253157   4.674   2.659   1.418  0.0559 -0.5973  0.4636
10556TIP3   OH253158   0.668   1.914   4.972 -0.4388 -0.3441 -0.1579
10556TIP3    H153159   0.589   1.945   4.927 -0.0590  1.9830  0.6102
10556TIP3    H253160   0.740   1.959   4.927  0.2284 -0.6017  0.6289
10557TIP3   OH253161   0.343   2.758  16.758  0.1918 -0.4682 -0.3883
10557TIP3    H153162   0.389   2.817  16.818  0.5835 -1.9179  0.7924
10557TIP3    H253163   0.267   2.809  16.729  0.8480  0.8431  0.0767
10558TIP3   OH253164   0.750   2.570   5.290 -0.8862  0.2984  0.3709
10558TIP3    H153165   0.796   2.640   5.335 -1.2288  0.1611  0.9446
10558TIP3    H253166   0.791   2.566   5.204  1.0675 -0.7060  1.2991
10559TIP3   OH253167   3.593   3.646  15.721 -0.6717  0.5828  0.3535
10559TIP3    H153168   3.567   3.615  15.807 -2.0702 -0.0117 -0.2655
10559TIP3    H253169   3.529   3.608  15.660 -1.5366  3.3341 -0.6226
10560TIP3   OH253170   2.315   3.660  11.043  0.3362 -0.4349  0.1287
10560TIP3    H153171   2.230   3.671  11.084 -0.6191  1.8052 -2.2038
10560TIP3    H253172   2.330   3.742  10.995  4.0944 -0.4829  0.9139
10561TIP3   OH253173   2.706   3.216  12.839  0.3249  0.5737  0.6165
10561TIP3    H153174   2.680   3.254  12.755  2.0363 -0.0782 -0.2367
10561TIP3    H253175   2.730   3.291  12.893  0.8579  0.9007 -0.0668
10562TIP3   OH253176   4.805   4.941   2.162  0.0623  0.0760 -0.2620
10562TIP3    H153177   4.891   4.980   2.181  0.9977 -0.2489 -3.2223
10562TIP3    H253178   4.756   5.010   2.118 -0.5624 -0.2636 -0.1168
10563TIP3   OH253179   2.498   6.623   4.518  0.0276 -0.1880 -0.0411
10563TIP3    H153180   2.497   6.551   4.581 -0.3921  1.0050  1.3860
10563TIP3    H253181   2.411   6.622   4.478  0.2211 -0.8140 -0.4638
10564TIP3   OH253182   0.844   2.081   1.199  0.4198 -0.4177  0.1606
10564TIP3    H153183   0.885   2.166   1.182  2.9168 -1.6885 -0.5502
10564TIP3    H253184   0.792   2.095   1.279  1.6468  1.4872  0.6802
10565TIP3   OH253185   3.813   6.310  11.394 -0.0481 -0.0723 -0.3228
10565TIP3    H153186   3.856   6.224  11.397 -1.4338 -0.8067 -0.6464
10565TIP3    H253187   3.811   6.333  11.301 -0.0158  0.1349 -0.2728
10566TIP3   OH253188   1.263   4.733   1.650  0.2237  0.1323 -0.1459
10566TIP3    H153189   1.350   4.760   1.679 -0.3024  0.6197  1.0850
10566TIP3    H253190   1.213   4.725   1.731 -1.2953  1.3833 -0.8951
10567TIP3   OH253191   4.395   1.849   4.163  0.3961  0.1295  0.4586
10567TIP3    H153192   4.387   1.790   4.088 -0.4503  1.2717 -0.3892
10567TIP3    H253193   4.470   1.815   4.212 -0.4901 -2.0444  0.4080
10568TIP3   OH253194   6.730   3.477   2.492 -0.1744  0.2350  0.3692
10568TIP3    H153195   6.645   3.437   2.472 -0.0329  0.1012  0.0203
10568TIP3    H253196   6.759   3.433   2.572  0.0507 -0.4859 -0.0923
10569TIP3   OH253197   4.754   6.491   5.661 -0.0911 -0.1657  0.5959
10569TIP3    H153198   4.776   6.478   5.568 -1.0505  0.0301  0.3286
10569TIP3    H253199   4.700   6.416   5.683 -0.0259 -0.1082  0.9476
10570TIP3   OH253200   2.642   1.758   0.868  0.0110 -0.2812  0.2825
10570TIP3    H153201   2.564   1.724   0.823  0.7709 -1.9239  0.1499
10570TIP3    H253202   2.619   1.849   0.889 -2.1052 -0.8303  0.6204
10571TIP3   OH253203   6.564   2.714  13.805  0.6184  0.4196  0.1074
10571TIP3    H153204   6.591   2.792  13.853  0.5644  0.5777 -0.1163
10571TIP3    H253205   6.500   2.746  13.742  1.0694  0.3022 -0.4209
10572TIP3   OH253206   0.928   0.837   1.241 -0.1340  0.4974  0.4622
10572TIP3    H153207   0.902   0.891   1.166 -1.0008  0.6168  0.8406
10572TIP3    H253208   0.985   0.770   1.204  0.9289  1.6378 -0.0364
10573TIP3   OH253209   4.159   0.024  11.419 -0.0484  0.2028 -0.0835
10573TIP3    H153210   4.197   0.111  11.431 -1.2595  0.5525  1.5615
10573TIP3    H253211   4.131  -0.001  11.507 -1.0885 -1.2127 -0.7978
10574TIP3   OH253212   3.172   5.372  16.735 -0.0099  0.1495 -0.2838
10574TIP3    H153213   3.085   5.356  16.699 -0.3614 -0.8981  0.9264
10574TIP3    H253214   3.232   5.335  16.670 -0.5808 -0.8621 -0.2683
10575TIP3   OH253215   4.794   3.376   6.155 -0.0014 -0.5578  0.1224
10575TIP3    H153216   4.719   3.427   6.187  0.1516  1.1364 -1.9964
10575TIP3    H253217   4.814   3.316   6.227 -2.8411 -0.5042  1.1048
10576TIP3   OH253218   0.964   2.752   2.308 -0.1915 -0.7225  0.5592
10576TIP3    H153219   1.048   2.796   2.296  0.4953 -1.0373  3.3991
10576TIP3    H253220   0.907   2.790   2.241  2.2910 -0.8378 -1.7699
10577TIP3   OH253221   2.132   0.499   0.683  0.4755 -0.3930 -0.2067
10577TIP3    H153222   2.053   0.492   0.630  1.5349 -1.2757 -1.7378
10577TIP3    H253223   2.120   0.435   0.753 -1.1813  1.1724  1.0370
10578TIP3   OH253224   0.828   0.355  13.414  0.9873 -0.0173  0.0787
10578TIP3    H153225   0.757   0.299  13.447  0.6362 -0.1288 -0.8340
10578TIP3    H253226   0.908   0.307  13.437  0.8079  0.2782  1.4268
10579TIP3   OH253227   6.202   0.582   5.904 -0.1319 -0.0703  0.6274
10579TIP3    H153228   6.135   0.544   5.960 -1.7263  0.5072 -0.8284
10579TIP3    H253229   6.278   0.525   5.917 -1.1892 -1.3329  1.5635
10580TIP3   OH253230   6.311   6.552   4.829 -0.5884 -0.5315  0.2017
10580TIP3    H153231   6.271   6.469   4.803 -0.4455 -0.1778 -1.2609
10580TIP3    H253232   6.373   6.529   4.898 -1.2443 -1.4911  0.4822
10581TIP3   OH253233   2.732   0.663   0.818 -0.1638 -0.6735  0.1237
10581TIP3    H153234   2.662   0.657   0.752  0.1565 -0.7151 -0.2180
10581TIP3    H253235   2.813   0.654   0.767  0.0837 -0.8208  0.5406
10582TIP3   OH253236   5.874   1.147   1.139 -0.7849  0.2324 -0.6680
10582TIP3    H153237   5.968   1.142   1.122 -0.5856 -0.4961  0.5129
10582TIP3    H253238   5.835   1.081   1.081 -0.3872 -0.5438 -0.0720
10583TIP3   OH253239   0.710   0.030  10.935  0.2576  0.1016 -0.4581
10583TIP3    H153240   0.789   0.083  10.920  0.1290  0.9405  1.4212
10583TIP3    H253241   0.731  -0.021  11.014 -0.2601 -1.4190 -1.2627
10584TIP3   OH253242   3.072   1.741   4.503 -0.0656 -0.4451  0.0184
10584TIP3    H153243   3.096   1.788   4.583  1.7715  0.1881 -0.8703
10584TIP3    H253244   2.995   1.788   4.470  0.5637  0.7450  0.1923
10585TIP3   OH253245   4.835   2.602  16.228 -0.1282  0.2371  0.5358
10585TIP3    H153246   4.740   2.599  16.242  0.0031  0.3938  1.5041
10585TIP3    H253247   4.871   2.549  16.299  0.4619 -0.6081 -0.3772
10586TIP3   OH253248   3.483   6.741   2.799 -0.3804 -0.2114 -0.4896
10586TIP3    H153249   3.388   6.743   2.785 -0.6405 -0.8083  0.9528
10586TIP3    H253250   3.496   6.787   2.882  0.6394  0.1402 -0.8272
10587TIP3   OH253251   1.485   1.131  10.903  0.0535 -0.0127  0.1071
10587TIP3    H153252   1.486   1.052  10.848  1.4228  0.0356  0.0414
10587TIP3    H253253   1.520   1.200  10.847 -0.9102  0.6182  0.2478
10588TIP3   OH253254   3.400   2.274  12.512  0.3255  0.5626 -0.4402
10588TIP3    H153255   3.466   2.314  12.569  1.7926 -2.1710 -0.0406
10588TIP3    H253256   3.448   2.255  12.431 -0.4801  0.1761 -0.8327
10589TIP3   OH253257   1.127   6.580  12.666  0.3404 -0.8867  0.2200
10589TIP3    H153258   1.221   6.594  12.670  0.0894  1.4827 -0.6689
10589TIP3    H253259   1.091   6.629  12.740 -0.4386  1.8170 -1.8024
10590TIP3   OH253260   4.077   0.519  11.489 -0.3275 -0.1250 -0.7036
10590TIP3    H153261   4.070   0.441  11.434 -0.9307 -0.4986 -0.1169
10590TIP3    H253262   4.118   0.489  11.569 -1.6112 -0.1106 -0.0077
10591TIP3   OH253263   4.423   1.243  13.781 -0.3834  0.6083 -0.3280
10591TIP3    H153264   4.451   1.255  13.871 -0.6623 -1.4387  0.0843
10591TIP3    H253265   4.359   1.312  13.765 -0.7052  0.6912  1.2178
10592TIP3   OH253266   1.091   4.445   5.725  0.7178 -0.1583  0.7428
10592TIP3    H153267   1.112   4.537   5.742  2.0716 -0.3670  0.3304
10592TIP3    H253268   0.998   4.444   5.705  1.0308  1.4045 -1.0404
10593TIP3   OH253269   4.400   3.050  14.958  0.5582  0.4165 -0.4576
10593TIP3    H153270   4.475   2.992  14.944  0.7708  0.6180 -0.1614
10593TIP3    H253271   4.376   3.037  15.050 -0.3165 -0.2868 -0.7689
10594TIP3   OH253272   3.443   3.260  13.499 -0.1820 -0.3721  0.1812
10594TIP3    H153273   3.456   3.226  13.588 -0.1532 -0.6485  0.0707
10594TIP3    H253274   3.363   3.217  13.469  0.7926 -1.7034 -0.6114
10595TIP3   OH253275   1.278   5.165  11.114  0.3728  0.3159  0.6194
10595TIP3    H153276   1.324   5.243  11.144 -1.0384  0.9348  1.2300
10595TIP3    H253277   1.220   5.197  11.044 -0.0685 -0.2136  0.7370
10596TIP3   OH253278   6.165   0.233   1.254 -0.0378  0.0239 -0.4717
10596TIP3    H153279   6.145   0.203   1.343 -0.2547  1.8257  0.1344
10596TIP3    H253280   6.260   0.230   1.248 -0.0291 -0.2201 -0.2195
10597TIP3   OH253281   5.124   5.762   2.505  0.1062  0.1475  0.1359
10597TIP3    H153282   5.105   5.739   2.415 -0.9138  0.6120  0.2181
10597TIP3    H253283   5.133   5.857   2.504 -0.8651  0.2624  0.6724
10598TIP3   OH253284   4.689   6.798   3.963 -0.0228 -0.0312  0.2586
10598TIP3    H153285   4.597   6.826   3.967 -0.2516 -0.6393 -0.5246
10598TIP3    H253286   4.725   6.847   3.889 -0.1392 -0.9624 -0.4309
10599TIP3   OH253287   0.264   4.303  14.952  0.1828 -0.6933 -0.6775
10599TIP3    H153288   0.301   4.384  14.987 -0.1742 -0.3536 -1.0818
10599TIP3    H253289   0.240   4.324  14.862 -2.3863 -0.4332 -0.0081
10600TIP3   OH253290   2.368   3.648   2.001 -0.1906  1.2232 -0.4233
10600TIP3    H153291   2.341   3.738   2.019 -1.7060  0.4362  1.4915
10600TIP3    H253292   2.378   3.607   2.087  3.5544  0.3366 -1.0571
10601TIP3   OH253293   0.696   6.155  12.396  0.3604 -0.1907  0.1751
10601TIP3    H153294   0.776   6.146  12.447 -0.1605 -0.5503  0.9576
10601TIP3    H253295   0.715   6.112  12.313  0.3432 -2.1261  1.1008
10602TIP3   OH253296   0.432   2.765   5.353 -0.5362 -0.0572 -0.2811
10602TIP3    H153297   0.411   2.858   5.364 -0.6046 -0.0235 -0.6874
10602TIP3    H253298   0.379   2.721   5.420 -0.5412  0.1886 -0.1190
10603TIP3   OH253299   1.948   1.909  13.168  0.5260 -0.5951 -0.0264
10603TIP3    H153300   1.990   1.980  13.120 -0.9968 -1.2875 -2.6012
10603TIP3    H253301   1.997   1.831  13.144  0.8789 -0.7247  1.0719
10604TIP3   OH253302   5.722   3.236   4.072  0.5835  0.2963  0.0965
10604TIP3    H153303   5.747   3.148   4.044  1.3061  0.8947 -1.2223
10604TIP3    H253304   5.674   3.222   4.154  1.5644 -1.2378  0.4625
10605TIP3   OH253305   5.864   0.387  13.935 -0.6318  0.4544 -0.5252
10605TIP3    H153306   5.785   0.414  13.889 -0.5453  1.1123 -0.2937
10605TIP3    H253307   5.919   0.465  13.938  0.7314 -0.3833 -2.0770
10606TIP3   OH253308   4.712   1.521  11.238  0.3063 -0.6236 -0.1346
10606TIP3    H153309   4.623   1.527  11.272  0.2253  0.2159 -0.4531
10606TIP3    H253310   4.763   1.580  11.295  0.6743 -1.1679  0.1035
10607TIP3   OH253311   2.217   1.816   0.344 -0.2631 -0.2822  0.0624
10607TIP3    H153312   2.209   1.877   0.417 -0.5169  0.6565 -0.7147
10607TIP3    H253313   2.183   1.865   0.269 -0.4222 -1.3760 -0.5997
10608TIP3   OH253314   0.343   2.723  12.998  0.2752 -0.2340 -0.2758
10608TIP3    H153315   0.376   2.637  13.024 -1.0835 -0.0143  2.5590
10608TIP3    H253316   0.421   2.773  12.974  1.4801 -1.2260  1.4156
10609TIP3   OH253317   3.901   0.578   2.388  0.5420  0.5594 -0.0475
10609TIP3    H153318   3.905   0.527   2.308  1.7888  0.7586 -0.1248
10609TIP3    H253319   3.938   0.520   2.455 -1.9111 -0.2159  0.7586
10610TIP3   OH253320   6.111   5.652   0.288  0.0618 -0.2541  0.6217
10610TIP3    H153321   6.168   5.575   0.284  0.2423 -0.0818 -1.6035
10610TIP3    H253322   6.038   5.625   0.343  0.9319 -1.4328  1.2435
10611TIP3   OH253323   3.789   1.348  13.598  0.0561  0.4610 -0.4143
10611TIP3    H153324   3.766   1.438  13.621  0.1713  0.8679 -1.8151
10611TIP3    H253325   3.743   1.332  13.516  1.3614 -0.1911 -1.0425
10612TIP3   OH253326   3.747   2.031  13.425  0.0890 -1.2263  0.5118
10612TIP3    H153327   3.764   2.115  13.380  1.1113 -1.7730 -0.1658
10612TIP3    H253328   3.803   2.033  13.502 -0.5896 -0.9027  1.0085
10613TIP3   OH253329   4.247   0.142  11.020  0.5103  0.1579  0.1500
10613TIP3    H153330   4.211   0.175  10.937 -1.4599  1.7670  1.5429
10613TIP3    H253331   4.322   0.199  11.038 -0.9838  1.9819  0.9749
10614TIP3   OH253332   4.610   4.786  14.548  0.1361 -0.1198  0.0815
10614TIP3    H153333   4.571   4.718  14.603  2.1034  0.6693  2.6825
10614TIP3    H253334   4.704   4.768  14.550  0.6156  2.1016  0.1233
10615TIP3   OH253335   5.913   4.212  13.989  0.7099 -0.1588 -0.5549
10615TIP3    H153336   5.861   4.241  14.064  0.5716  1.0361 -1.0896
10615TIP3    H253337   5.993   4.265  13.994  0.4980  0.2795 -1.4986
10616TIP3   OH253338   4.993   6.348  15.659  0.0602  0.3852  0.1770
10616TIP3    H153339   4.923   6.355  15.724 -0.4975  0.1768 -0.3917
10616TIP3    H253340   5.073   6.362  15.709 -0.3554  0.1667  0.9219
10617TIP3   OH253341   6.210   1.525  15.020  0.2099  0.2586  0.5123
10617TIP3    H153342   6.125   1.536  15.061 -0.8148 -0.8594 -1.1898
10617TIP3    H253343   6.231   1.432  15.031  1.3096  0.5529  1.0564
10618TIP3   OH253344   2.558   1.719  12.413 -0.4324  0.0733 -0.6990
10618TIP3    H153345   2.608   1.792  12.451 -0.6443  0.1317 -0.5320
10618TIP3    H253346   2.624   1.652  12.395 -0.3112  0.0890 -0.3329
10619TIP3   OH253347   1.575   6.233   6.272 -0.3318 -0.1107  0.0337
10619TIP3    H153348   1.495   6.181   6.281  0.3836 -1.3766 -0.6817
10619TIP3    H253349   1.640   6.186   6.323  0.4686 -0.2397 -1.0678
10620TIP3   OH253350   4.651   2.336   2.400 -0.4043  0.2977  0.2371
10620TIP3    H153351   4.570   2.309   2.356  0.1395  0.1840 -0.7065
10620TIP3    H253352   4.634   2.425   2.429 -1.8296 -0.5927  2.4176
10621TIP3   OH253353   6.762   4.323   1.492  0.2629 -0.0281  0.2117
10621TIP3    H153354   6.791   4.256   1.430  0.1046 -0.0532  0.1649
10621TIP3    H253355   6.843   4.369   1.517  0.6404 -1.3215  1.5274
10622TIP3   OH253356   5.082   1.519   5.448  0.1632 -0.4579  0.3473
10622TIP3    H153357   5.145   1.479   5.389  1.3172  0.0049  1.2380
10622TIP3    H253358   5.122   1.514   5.534  0.5792  2.8948  0.5071
10623TIP3   OH253359   0.486   2.130   0.245 -0.2443  0.4576 -0.5205
10623TIP3    H153360   0.456   2.094   0.162  0.1649 -1.6770  0.2038
10623TIP3    H253361   0.536   2.208   0.221 -0.8722  0.3829 -2.1862
10624TIP3   OH253362   6.698   4.047   1.063 -0.0352  0.0765  0.1041
10624TIP3    H153363   6.777   4.088   1.096  0.4873 -1.1246  0.4122
10624TIP3    H253364   6.721   3.954   1.055 -1.1279 -0.1456 -0.6640
10625TIP3   OH253365   2.789   2.313  16.544  0.1426  0.0945 -0.4153
10625TIP3    H153366   2.780   2.274  16.631  1.6807 -0.4690 -0.4884
10625TIP3    H253367   2.727   2.265  16.489 -0.1810 -0.1613  0.1678
10626TIP3   OH253368   2.848   5.634  10.704 -0.1426  0.0962 -0.1787
10626TIP3    H153369   2.925   5.687  10.682  0.5495 -0.2151  1.4017
10626TIP3    H253370   2.787   5.649  10.631  1.5669  0.0156 -1.6891
10627TIP3   OH253371   6.123   4.478   1.225  0.8084 -0.1085  0.5890
10627TIP3    H153372   6.137   4.421   1.149  0.2448 -0.5622  0.8144
10627TIP3    H253373   6.181   4.553   1.210  1.3543 -0.6099  0.1507
10628TIP3   OH253374   3.621   6.768   3.668  0.0194  0.0950 -0.1591
10628TIP3    H153375   3.612   6.747   3.576  0.5409  0.9314 -0.4144
10628TIP3    H253376   3.567   6.847   3.681 -2.2028 -1.4760  0.8532
10629TIP3   OH253377   2.805   6.346  11.312  0.6559  0.1123  0.1490
10629TIP3    H153378   2.781   6.381  11.398  0.6228  0.8340 -0.1480
10629TIP3    H253379   2.747   6.390  11.251 -0.5983 -1.7444 -0.0966
10630TIP3   OH253380   0.460   5.834   0.098  0.2119 -1.1930 -0.1114
10630TIP3    H153381   0.419   5.904   0.049 -2.2780 -2.0636  0.5823
10630TIP3    H253382   0.549   5.866   0.116  0.0828  0.5388 -2.1839
10631TIP3   OH253383   2.784   4.502   1.158 -0.9947 -0.1471 -0.2097
10631TIP3    H153384   2.779   4.504   1.253  0.3118  0.6069 -0.1407
10631TIP3    H253385   2.707   4.452   1.131 -0.6036 -1.6297  1.3008
10632TIP3   OH253386   5.171   4.751   4.347  0.6689 -0.4540  0.6696
10632TIP3    H153387   5.220   4.782   4.270  0.7649  1.1672  1.3349
10632TIP3    H253388   5.229   4.770   4.421 -0.3501  0.1038  1.3368
10633TIP3   OH253389   4.409   2.427  13.089 -0.6129 -0.3348  0.4581
10633TIP3    H153390   4.424   2.335  13.067  1.2605  0.0048  0.1313
10633TIP3    H253391   4.493   2.469  13.071 -0.5835  0.9540  3.1411
10634TIP3   OH253392   2.314   2.041   0.497 -0.4602 -0.0715 -0.0787
10634TIP3    H153393   2.225   2.010   0.514  0.0123 -1.1523  0.4389
10634TIP3    H253394   2.368   2.001   0.565  0.1868  1.8944  0.6295
10635TIP3   OH253395   2.172   6.519   4.202 -0.5985 -0.2575 -0.5165
10635TIP3    H153396   2.207   6.464   4.132  1.5911 -0.3580  0.5750
10635TIP3    H253397   2.225   6.599   4.198 -1.1077  0.1322  0.3899
10636TIP3   OH253398   5.371   1.227   6.218 -0.0757  0.3800 -0.3799
10636TIP3    H153399   5.326   1.304   6.181 -0.8583 -0.4354 -1.1774
10636TIP3    H253400   5.452   1.262   6.254 -2.0749  2.2804  2.7860
10637TIP3   OH253401   3.254   4.880   4.442  0.2737 -0.0195 -0.3043
10637TIP3    H153402   3.350   4.877   4.435  0.3170 -1.7827  0.6191
10637TIP3    H253403   3.233   4.816   4.510 -1.5504  0.6571 -0.1853
10638TIP3   OH253404   2.223   2.302   5.627  0.7409 -0.1607  0.3948
10638TIP3    H153405   2.259   2.378   5.674  0.3951 -0.5479  1.3200
10638TIP3    H253406   2.140   2.284   5.671  1.1403 -1.4931  0.6521
10639TIP3   OH253407   1.436   3.776  14.838 -0.0146  0.2154  0.3824
10639TIP3    H153408   1.529   3.776  14.818  0.0690  2.6348  0.4130
10639TIP3    H253409   1.396   3.829  14.769 -1.7518 -2.4532 -0.8389
10640TIP3   OH253410   0.211   1.851  11.945  0.0640 -0.6500 -0.4370
10640TIP3    H153411   0.260   1.894  11.876  0.2529  2.0292  1.2155
10640TIP3    H253412   0.119   1.872  11.926  0.0566 -0.5763 -0.3249
10641TIP3   OH253413   1.810   2.524  13.995  0.3748 -0.4522  0.3549
10641TIP3    H153414   1.895   2.554  14.026  0.3795  0.0709 -0.1466
10641TIP3    H253415   1.821   2.514  13.900 -0.3860  0.5723  0.1356
10642TIP3   OH253416   2.000   1.655   5.881 -0.0233 -0.2828  0.4587
10642TIP3    H153417   1.982   1.678   5.972 -0.3054 -2.0065  0.8682
10642TIP3    H253418   2.064   1.583   5.886 -0.5792 -0.8820 -0.6702
10643TIP3   OH253419   2.657   0.422   2.841  0.0228  0.1369  0.0873
10643TIP3    H153420   2.695   0.508   2.857 -0.2772  0.3332 -0.2315
10643TIP3    H253421   2.730   0.370   2.806 -0.1139  0.6719 -1.0664
10644TIP3   OH253422   1.071   1.945  11.027 -0.5743  0.5945  0.5543
10644TIP3    H153423   0.995   1.943  10.968 -0.6589 -1.0573  0.6720
10644TIP3    H253424   1.085   1.853  11.051  0.0882  1.1109  2.3116
10645TIP3   OH253425   0.973   3.779   4.249  0.0969  0.2651 -0.0473
10645TIP3    H153426   0.994   3.855   4.194 -0.7409  0.6127  0.1089
10645TIP3    H253427   1.038   3.783   4.320  1.3083 -0.2931 -1.0709
10646TIP3   OH253428   4.939   2.176   4.627  0.1805 -0.4668 -0.1078
10646TIP3    H153429   4.847   2.154   4.607  0.4513 -0.8886 -0.9526
10646TIP3    H253430   4.962   2.117   4.699 -0.0244 -0.8158 -0.3201
10647TIP3   OH253431   6.546   2.997   1.189 -0.3330  0.0208  0.4656
10647TIP3    H153432   6.606   3.028   1.258 -0.9202 -1.9893  1.9901
10647TIP3    H253433   6.604   2.971   1.117  0.3946  0.9339  0.6973
10648TIP3   OH253434   3.016   4.412  16.742 -0.3692 -0.0636 -0.2489
10648TIP3    H153435   3.109   4.419  16.763 -0.3263 -0.9421 -0.1103
10648TIP3    H253436   3.011   4.429  16.648  0.2092 -1.9857 -0.6677
10649TIP3   OH253437   3.557   4.398   5.952 -0.0384  0.1328 -0.0695
10649TIP3    H153438   3.533   4.346   5.875  0.6883  0.3713 -0.4707
10649TIP3    H253439   3.634   4.353   5.988 -0.4817 -0.0804  0.6296
10650TIP3   OH253440   0.550   2.820   3.224  0.0614  0.0372  0.2230
10650TIP3    H153441   0.561   2.758   3.296 -0.1619  1.9865  2.0537
10650TIP3    H253442   0.584   2.903   3.259  1.2034  0.7870 -2.4212
10651TIP3   OH253443   2.031   2.154  11.949  0.0462 -0.1354  0.2932
10651TIP3    H153444   2.020   2.059  11.947 -0.3102 -0.1431  1.5139
10651TIP3    H253445   1.941   2.188  11.950  0.1732  0.2146 -0.0382
10652TIP3   OH253446   2.303   3.047   4.633  0.0504  0.0710 -0.3988
10652TIP3    H153447   2.252   3.116   4.677 -0.0174 -0.0570 -0.2755
10652TIP3    H253448   2.336   3.089   4.554  1.6040  0.8223  0.6086
10653TIP3   OH253449   5.293   0.041   5.339  0.0589  0.3024 -0.4658
10653TIP3    H153450   5.326   0.126   5.366  1.6887 -0.3013 -0.4628
10653TIP3    H253451   5.354  -0.022   5.378 -1.4628 -0.9163  0.0590
10654TIP3   OH253452   0.085   0.276  15.145  0.6042 -0.1164 -0.1715
10654TIP3    H153453   0.134   0.235  15.074  3.7112 -1.7293  2.6343
10654TIP3    H253454   0.009   0.219  15.158  1.1620 -1.0350 -0.8151
10655TIP3   OH253455   3.536   1.647   3.570  0.0705 -0.4442  0.2665
10655TIP3    H153456   3.547   1.718   3.633 -2.4762  0.1314  0.1473
10655TIP3    H253457   3.591   1.672   3.496  1.7570 -0.2803  1.5047
10656TIP3   OH253458   0.687   4.313   3.865  0.3812  0.3443  0.0221
10656TIP3    H153459   0.761   4.372   3.849  1.9670 -1.4708  0.2993
10656TIP3    H253460   0.633   4.359   3.929  0.5352  2.2699 -1.1301
10657TIP3   OH253461   2.853   0.197   4.428 -0.2318  0.2315  0.2894
10657TIP3    H153462   2.801   0.122   4.456 -0.9674  0.7102  0.2337
10657TIP3    H253463   2.789   0.267   4.416  0.2403  0.4449 -1.1686
10658TIP3   OH253464   0.663   3.316   0.412  0.6454 -0.0269 -0.2081
10658TIP3    H153465   0.581   3.344   0.373  0.6061 -1.2297 -1.0529
10658TIP3    H253466   0.723   3.307   0.338  0.4248 -2.8789 -0.1490
10659TIP3   OH253467   0.586   1.171   0.212 -0.4226  0.5719 -0.0773
10659TIP3    H153468   0.508   1.156   0.266  0.1240  1.2986  0.9516
10659TIP3    H253469   0.620   1.256   0.243  1.3890 -0.2398  0.2715
10660TIP3   OH253470   1.649   0.137   4.517 -0.6053 -0.2832  0.2664
10660TIP3    H153471   1.578   0.074   4.505  0.1828 -0.9723 -0.8664
10660TIP3    H253472   1.607   0.222   4.504 -1.3020 -0.6527  0.0114
10661TIP3   OH253473   6.637   0.857  14.166  0.3617  0.0201 -0.4253
10661TIP3    H153474   6.604   0.943  14.141 -1.2543 -0.2105  0.7445
10661TIP3    H253475   6.590   0.835  14.246  0.4101 -2.1380 -0.9121
10662TIP3   OH253476   5.196   4.812  10.282 -0.6784 -0.2580  0.2372
10662TIP3    H153477   5.228   4.761  10.207 -1.1224 -2.0490  1.1906
10662TIP3    H253478   5.103   4.789  10.287 -1.0307  1.1385  0.3690
10663TIP3   OH253479   4.737   1.248  14.154  0.0906 -0.5922  0.4284
10663TIP3    H153480   4.832   1.246  14.148  0.1119 -0.6807  0.7419
10663TIP3    H253481   4.715   1.173  14.210 -0.1601 -0.5589  0.3755
10664TIP3   OH253482   0.071   0.031   0.315  0.3904 -0.2114 -0.0964
10664TIP3    H153483   0.043  -0.030   0.247 -1.7873  0.6240 -0.0190
10664TIP3    H253484   0.019   0.006   0.391  0.0999  1.1991  0.1789
10665TIP3   OH253485   5.400   1.435   4.237 -0.5686  0.4250  0.3054
10665TIP3    H153486   5.367   1.455   4.325  0.0406 -0.8953  0.8752
10665TIP3    H253487   5.469   1.370   4.252 -0.0213  0.6381 -1.1108
10666TIP3   OH253488   2.468   6.152   4.191 -0.4677  0.1325  0.6099
10666TIP3    H153489   2.553   6.143   4.236 -0.9432  0.8549  1.7185
10666TIP3    H253490   2.425   6.067   4.204 -0.4732  0.2290  1.2888
10667TIP3   OH253491   2.577   3.226  17.147 -0.4507 -0.1027  0.5846
10667TIP3    H153492   2.640   3.179  17.202 -0.9768 -0.5569  0.8107
10667TIP3    H253493   2.631   3.283  17.092 -0.0018  2.0819  3.1058
10668TIP3   OH253494   5.026   1.234   6.488  0.3394 -0.2697 -0.3284
10668TIP3    H153495   4.936   1.224   6.456 -0.0141 -0.2650  0.6178
10668TIP3    H253496   5.030   1.177   6.565  1.4035 -0.8989 -0.8394
10669TIP3   OH253497   1.197   4.454  11.142 -0.0306 -0.5854 -0.1072
10669TIP3    H153498   1.219   4.403  11.220  1.3046 -0.6303 -0.4880
10669TIP3    H253499   1.204   4.545  11.171 -1.2900 -0.5874  0.2700
10670TIP3   OH253500   2.721   1.720  16.906 -0.1356 -0.1578 -0.2074
10670TIP3    H153501   2.764   1.759  16.830 -0.0901  0.4561  0.1264
10670TIP3    H253502   2.783   1.733  16.978  0.6517 -2.3599 -0.3995
10671TIP3   OH253503   5.541   1.505  11.288 -0.1353  0.1834 -0.1239
10671TIP3    H153504   5.525   1.410  11.291 -0.3206  0.1188 -1.9180
10671TIP3    H253505   5.625   1.516  11.332 -1.0118 -0.5461  1.8586
10672TIP3   OH253506   4.160   0.287  13.674 -0.2769 -0.0139 -0.1305
10672TIP3    H153507   4.104   0.328  13.608  0.1007 -0.6258 -0.8423
10672TIP3    H253508   4.225   0.354  13.695 -0.3256  0.1405 -0.4621
10673TIP3   OH253509   0.981   2.048  13.152 -0.2642 -0.2157  0.4136
10673TIP3    H153510   0.906   2.105  13.169 -1.1155 -0.7168 -1.4379
10673TIP3    H253511   1.056   2.108  13.151 -0.7418  0.4175  1.4271
10674TIP3   OH253512   3.434   0.732   2.188 -0.3433  0.2097  0.5475
10674TIP3    H153513   3.509   0.722   2.246 -0.2060 -0.1828  0.3145
10674TIP3    H253514   3.364   0.683   2.231  0.1905 -1.4298 -0.3510
10675TIP3   OH253515   3.950   0.407   4.961 -0.0920  0.5449 -0.2788
10675TIP3    H153516   3.894   0.484   4.955  1.2209  1.8017  2.0778
10675TIP3    H253517   3.897   0.343   5.010 -0.8311  0.2555 -1.4145
10676TIP3   OH253518   5.184   0.304   5.605 -0.3520  0.3781  0.0730
10676TIP3    H153519   5.258   0.282   5.548 -0.3553  1.5771 -0.4083
10676TIP3    H253520   5.163   0.221   5.648  1.4388  0.0637  0.4398
10677TIP3   OH253521   0.122   1.858   1.725  0.0057 -0.6173  0.0395
10677TIP3    H153522   0.102   1.766   1.707 -0.1032 -0.3082 -1.6641
10677TIP3    H253523   0.147   1.894   1.639  0.7752  0.7642  0.8033
10678TIP3   OH253524   5.582   6.449   5.311 -0.6483 -0.9148  0.5881
10678TIP3    H153525   5.559   6.402   5.231  0.8558  0.2751 -0.6006
10678TIP3    H253526   5.678   6.448   5.313 -0.6421 -1.4133  2.7099
10679TIP3   OH253527   2.117   2.231  12.357  0.0800 -0.1358  0.4872
10679TIP3    H153528   2.094   2.303  12.415 -0.1740 -1.2978  1.9007
10679TIP3    H253529   2.212   2.236  12.348 -0.1666  2.1558 -1.9395
10680TIP3   OH253530   6.753   5.457  14.325  0.0527 -0.2727 -0.3347
10680TIP3    H153531   6.705   5.378  14.351 -0.9507  0.9361  1.7716
10680TIP3    H253532   6.685   5.518  14.297  0.1999  1.4627  2.6755
10681TIP3   OH253533   2.974   5.792  10.934  0.3950 -0.5868  0.2075
10681TIP3    H153534   3.035   5.854  10.893  1.3138 -1.0491  0.8432
10681TIP3    H253535   3.025   5.711  10.943  0.3383 -0.4331  2.4724
10682TIP3   OH253536   2.527   2.086   2.079 -0.4271 -0.0175 -0.4708
10682TIP3    H153537   2.574   2.144   2.138 -0.8838 -0.4941  0.3855
10682TIP3    H253538   2.587   2.073   2.006  0.8572 -0.7208  0.6559
10683TIP3   OH253539   4.758   3.906  16.134  0.2580  0.5459 -0.4716
10683TIP3    H153540   4.669   3.936  16.115  0.0898 -0.1545 -0.8410
10683TIP3    H253541   4.754   3.871  16.223 -0.4888 -1.7778 -1.3295
10684TIP3   OH253542   0.121   0.738   4.521  0.0658 -0.1347 -0.5046
10684TIP3    H153543   0.108   0.828   4.490 -0.3949 -0.0804 -0.1781
10684TIP3    H253544   0.037   0.715   4.560  1.1454  0.4768  2.4302
10685TIP3   OH253545   4.572   4.140   2.565  0.2696 -0.2947  0.7027
10685TIP3    H153546   4.578   4.158   2.472 -0.3804 -2.0305  0.2891
10685TIP3    H253547   4.659   4.106   2.589 -0.5070 -3.1016 -0.0866
10686TIP3   OH253548   0.266   6.124   0.246  0.2842 -0.1560  0.6596
10686TIP3    H153549   0.353   6.085   0.245  1.3201  2.0112  0.4935
10686TIP3    H253550   0.209   6.056   0.211  1.9238 -1.5603  0.5782
10687TIP3   OH253551   5.357   2.245  10.586 -0.4305 -0.2696  0.3295
10687TIP3    H153552   5.340   2.338  10.571  1.1189 -0.0729 -0.3734
10687TIP3    H253553   5.359   2.206  10.498  0.1115 -0.7446  0.5454
10688TIP3   OH253554   2.831   0.607  13.320 -0.2902  0.2901 -0.1245
10688TIP3    H153555   2.849   0.653  13.238 -0.9686  0.1604 -0.3557
10688TIP3    H253556   2.914   0.606  13.366  0.0794  0.4362 -0.7808
10689TIP3   OH253557   0.132   0.488   3.557 -0.7012 -0.3074  0.0746
10689TIP3    H153558   0.225   0.497   3.578 -0.3188  0.1892 -1.7010
10689TIP3    H253559   0.089   0.553   3.613  0.1703  0.3898 -0.0389
10690TIP3   OH253560   3.348   2.871  14.750  0.0951 -0.7620 -0.7516
10690TIP3    H153561   3.262   2.912  14.758  0.6383  0.3900 -0.5270
10690TIP3    H253562   3.361   2.860  14.655 -0.6896 -1.8379 -0.7442
10691TIP3   OH253563   4.437   2.738  12.488 -0.3189  0.4063  0.1238
10691TIP3    H153564   4.346   2.733  12.459  0.1156  0.3453 -1.2988
10691TIP3    H253565   4.453   2.832  12.502 -0.2988  0.5268 -0.6728
10692TIP3   OH253566   3.950   6.707  13.033 -0.3334  0.2775  0.1531
10692TIP3    H153567   4.004   6.641  13.075  1.1389  0.8397 -0.7576
10692TIP3    H253568   4.007   6.745  12.966 -1.8707  0.9105 -0.8530
10693TIP3   OH253569   6.371   0.236   5.517 -0.0479 -0.3841  0.0812
10693TIP3    H153570   6.423   0.157   5.532  1.5859  0.7222  0.5688
10693TIP3    H253571   6.324   0.219   5.436 -0.5706 -2.2628  0.7388
10694TIP3   OH253572   1.537   0.172  15.109  0.7633  0.4796  0.3996
10694TIP3    H153573   1.474   0.226  15.157 -1.7345 -1.4391 -0.4891
10694TIP3    H253574   1.528   0.198  15.018  1.1746  0.1226  0.2519
10695TIP3   OH253575   5.244   5.316   5.523  0.0489 -0.3775 -0.2103
10695TIP3    H153576   5.295   5.351   5.450 -1.5907  2.0188 -0.3440
10695TIP3    H253577   5.282   5.358   5.601 -0.1037 -0.5739 -0.0301
10696TIP3   OH253578   3.291   0.906  11.584  0.6289  0.2628 -0.4381
10696TIP3    H153579   3.243   0.898  11.501  2.0266 -0.9921 -1.1742
10696TIP3    H253580   3.365   0.963  11.563  2.0887 -1.6067 -0.6396
10697TIP3   OH253581   6.740   5.683   2.657  0.1619 -0.3201 -0.4568
10697TIP3    H153582   6.704   5.681   2.746  2.1639  0.5916  0.4306
10697TIP3    H253583   6.689   5.752   2.613 -0.5725 -0.4892  0.0978
10698TIP3   OH253584   4.035   0.513  13.561 -0.0303 -0.3667  0.6296
10698TIP3    H153585   3.942   0.494  13.549 -0.8564  2.1202  2.3218
10698TIP3    H253586   4.052   0.588  13.504  0.7296 -0.2752  0.9580
10699TIP3   OH253587   1.853   1.624  13.019 -0.0159  0.4513 -0.1024
10699TIP3    H153588   1.793   1.583  13.081  1.8060  1.2710  2.3784
10699TIP3    H253589   1.938   1.584  13.038  0.7991  1.5363 -1.3289
10700TIP3   OH253590   5.909   2.749   0.802 -0.6367 -0.0166 -0.1279
10700TIP3    H153591   5.814   2.746   0.789 -0.5692 -1.3885 -0.4321
10700TIP3    H253592   5.936   2.831   0.759 -1.4724 -0.4621 -1.5562
10701TIP3   OH253593   1.472   3.011  12.807 -0.3247 -0.1146  0.3010
10701TIP3    H153594   1.441   2.995  12.718 -2.5697  0.8701  0.8377
10701TIP3    H253595   1.480   2.924  12.846  2.5718 -0.7192 -1.3553
10702TIP3   OH253596   6.769   2.647   0.534 -0.4629 -0.4007  0.3839
10702TIP3    H153597   6.805   2.639   0.446 -1.1467 -0.4428  0.1036
10702TIP3    H253598   6.777   2.558   0.571 -0.9854 -0.5939  0.0422
10703TIP3   OH253599   0.675   3.193   5.563 -0.4078 -0.2268  0.5903
10703TIP3    H153600   0.606   3.136   5.596  0.7257  0.4672  4.7191
10703TIP3    H253601   0.640   3.282   5.573 -0.2284  0.0519 -0.9088
10704TIP3   OH253602   6.192   6.728   1.184  0.4503  0.4262 -0.1320
10704TIP3    H153603   6.250   6.767   1.119 -0.8707 -0.5099 -1.9741
10704TIP3    H253604   6.104   6.751   1.154 -0.3464 -2.7372 -0.5892
10705TIP3   OH253605   1.194   5.796   2.366 -0.2641 -0.2667  0.5904
10705TIP3    H153606   1.249   5.776   2.443 -0.3006  0.5349  0.8413
10705TIP3    H253607   1.111   5.752   2.384 -0.1627 -0.3536  0.8613
10706TIP3   OH253608   1.104   4.959  10.947  0.3616 -0.2589  0.0719
10706TIP3    H153609   1.119   4.915  10.864 -0.8480  0.4123 -0.5210
10706TIP3    H253610   1.143   5.046  10.935 -1.2485  0.4248 -0.4071
10707TIP3   OH253611   2.289   0.364   0.109 -0.2812 -0.2236  0.1017
10707TIP3    H153612   2.272   0.285   0.058 -2.9028  0.2227  0.1207
10707TIP3    H253613   2.379   0.355   0.139 -0.3162 -2.9193 -0.3726
10708TIP3   OH253614   6.790   4.532   6.529 -1.2024 -0.2377 -0.1039
10708TIP3    H153615   6.738   4.456   6.503 -1.7707 -0.3634  1.3657
10708TIP3    H253616   6.726   4.599   6.552 -0.7277  1.0348 -2.2005
10709TIP3   OH253617   1.900   0.267  17.098  0.2177  0.1500  0.0965
10709TIP3    H153618   1.901   0.185  17.048 -0.5501 -0.0222  0.3493
10709TIP3    H253619   1.960   0.251  17.171  2.5059  0.9054 -1.4954
10710TIP3   OH253620   0.419   0.400  11.834  0.1099  0.3245 -0.3616
10710TIP3    H153621   0.461   0.402  11.748  3.6304 -0.8070  1.1572
10710TIP3    H253622   0.383   0.311  11.841 -0.8071  0.6389 -0.8688
10711TIP3   OH253623   0.212   1.964  15.787  0.1219  0.1240  0.7335
10711TIP3    H153624   0.232   1.906  15.714  0.7631  1.5867 -0.3067
10711TIP3    H253625   0.297   2.000  15.813 -0.1760  0.0787  1.8120
10712TIP3   OH253626   1.035   3.813  11.275 -0.2199 -0.0778 -0.0347
10712TIP3    H153627   0.981   3.832  11.198  0.8527  0.0971 -0.7619
10712TIP3    H253628   1.124   3.833  11.247  0.1113  0.7644  1.5119
10713TIP3   OH253629   6.395   6.371   5.519 -0.5537 -0.0051 -0.0480
10713TIP3    H153630   6.330   6.439   5.537  0.4219  0.6286  1.3190
10713TIP3    H253631   6.412   6.332   5.604 -0.0431 -0.9954 -0.5938
10714TIP3   OH253632   6.203   2.794   1.875  0.1784  0.0322 -0.1429
10714TIP3    H153633   6.170   2.799   1.965  0.5736  0.3294 -0.0127
10714TIP3    H253634   6.172   2.709   1.843  2.4204 -1.4056  1.2426
10715TIP3   OH253635   4.498   6.025   3.393 -0.6530 -0.3181  0.1864
10715TIP3    H153636   4.578   6.067   3.425 -0.8889 -0.1451  0.5577
10715TIP3    H253637   4.430   6.092   3.403 -1.5715 -1.5560  3.2084
10716TIP3   OH253638   6.583   4.589   3.666 -0.0060  0.2704 -0.6581
10716TIP3    H153639   6.634   4.648   3.611  0.8606 -1.2188 -1.5211
10716TIP3    H253640   6.610   4.610   3.755  0.2792  1.1656 -0.9442
10717TIP3   OH253641   4.250   4.726   0.950  0.1295 -0.2830 -0.1181
10717TIP3    H153642   4.320   4.730   0.885  1.1120  2.1280  0.9563
10717TIP3    H253643   4.268   4.647   1.001  1.8201  0.0555 -0.1589
10718TIP3   OH253644   5.700   0.253  14.822  0.0240 -0.2377 -0.3911
10718TIP3    H153645   5.606   0.263  14.805  0.2580 -0.2631 -1.7985
10718TIP3    H253646   5.705   0.238  14.916 -1.4804 -1.5015 -0.4668
10719TIP3   OH253647   4.911   0.429  16.572  1.1271  0.1303  0.4278
10719TIP3    H153648   4.855   0.352  16.582  2.5493 -0.8262  1.5566
10719TIP3    H253649   4.865   0.499  16.619 -0.0242 -0.0906 -0.3254
10720TIP3   OH253650   0.502   4.547   3.223 -0.2704  0.3990  0.6475
10720TIP3    H153651   0.499   4.465   3.174  1.5269  0.9382 -0.4651
10720TIP3    H253652   0.542   4.522   3.307 -0.9836 -0.0820  0.8532
10721TIP3   OH253653   1.607   4.402   2.556 -0.2960  0.2224  0.7710
10721TIP3    H153654   1.572   4.423   2.470  0.6999  0.5412  0.4319
10721TIP3    H253655   1.542   4.437   2.617 -1.1680 -0.2930  0.1584
10722TIP3   OH253656   1.048   4.802  14.385 -0.2718 -0.1486 -1.0788
10722TIP3    H153657   1.067   4.855  14.308  0.3310 -0.1384 -0.9224
10722TIP3    H253658   1.128   4.804  14.437  0.4261 -2.6573 -1.9114
10723TIP3   OH253659   2.331   5.799   1.566  0.2596 -0.0132  0.1292
10723TIP3    H153660   2.365   5.734   1.627 -0.8689  0.5613  1.4163
10723TIP3    H253661   2.265   5.753   1.515  2.1502 -0.8677 -1.6999
10724TIP3   OH253662   3.208   4.735  11.861  0.2812 -0.6989  0.1347
10724TIP3    H153663   3.134   4.710  11.805  1.8341 -3.1671 -0.9716
10724TIP3    H253664   3.202   4.675  11.935  0.5285 -0.1125  0.6349
10725TIP3   OH253665   0.284   0.889  13.120  0.1620  0.0529 -0.2752
10725TIP3    H153666   0.188   0.889  13.117  0.1691  0.5667 -0.7856
10725TIP3    H253667   0.308   0.799  13.142 -0.4774  0.2787  1.4811
10726TIP3   OH253668   3.961   3.849   4.008  0.0669  0.3809 -0.2729
10726TIP3    H153669   4.023   3.917   3.980  0.1618  0.1937 -0.5216
10726TIP3    H253670   4.004   3.767   3.986 -0.5790  0.2537 -1.1169
10727TIP3   OH253671   4.345   2.517  11.157 -0.1116 -0.3151  0.0486
10727TIP3    H153672   4.258   2.540  11.126 -0.6041 -0.8311  0.9813
10727TIP3    H253673   4.385   2.600  11.182 -1.3057 -0.2617  1.9869
10728TIP3   OH253674   5.236   3.030  10.489  0.3994  0.2613 -0.1988
10728TIP3    H153675   5.162   3.075  10.530  1.7614  1.2825  1.2714
10728TIP3    H253676   5.277   3.098  10.435  0.5919 -0.1481 -0.5726
10729TIP3   OH253677   6.312   3.638   2.699 -0.4963  0.3847 -0.4807
10729TIP3    H153678   6.231   3.657   2.652 -0.5287 -0.7688 -0.9275
10729TIP3    H253679   6.380   3.682   2.649 -0.6186 -0.2574 -1.2214
10730TIP3   OH253680   0.632   4.206   5.594  0.0979 -0.0702  0.0665
10730TIP3    H153681   0.619   4.119   5.556  0.7290  0.1297 -0.6307
10730TIP3    H253682   0.543   4.237   5.613 -0.1759 -0.5373 -0.4297
10731TIP3   OH253683   6.549   4.106   0.133  0.5368 -0.4062  0.0419
10731TIP3    H153684   6.602   4.043   0.182  0.1416 -1.6697 -1.0986
10731TIP3    H253685   6.502   4.054   0.068  1.4069  1.2322 -2.0321
10732TIP3   OH253686   5.658   1.295   6.254  0.4712 -0.1429 -0.3076
10732TIP3    H153687   5.743   1.307   6.297  0.3165 -3.0926  1.0445
10732TIP3    H253688   5.677   1.242   6.177  0.0716  0.8114 -1.0780
10733TIP3   OH253689   0.814   0.861  11.847  0.5897 -0.8347  0.3188
10733TIP3    H153690   0.868   0.936  11.872  0.6251 -0.6267 -0.3679
10733TIP3    H253691   0.738   0.866  11.905  1.8241 -1.7888  2.0931
10734TIP3   OH253692   2.638   2.165   5.329 -0.2596 -0.4119 -0.0425
10734TIP3    H153693   2.632   2.132   5.239  0.5963 -0.6112 -0.0350
10734TIP3    H253694   2.607   2.256   5.323 -0.9078 -0.6439 -0.3953
10735TIP3   OH253695   5.586   5.875   1.188 -0.3842 -0.4177 -0.0644
10735TIP3    H153696   5.659   5.840   1.239 -0.2054  0.0052 -0.0272
10735TIP3    H253697   5.514   5.813   1.204 -0.1208 -0.6768  0.1285
10736TIP3   OH253698   6.518   0.634   1.699 -0.5256 -0.3200 -0.1332
10736TIP3    H153699   6.475   0.568   1.753 -0.2312  0.2508  0.8123
10736TIP3    H253700   6.602   0.650   1.743  0.9379 -1.7858 -2.1928
10737TIP3   OH253701   6.469   2.388  17.239  0.3384  0.6853 -0.2684
10737TIP3    H153702   6.557   2.425  17.229  0.1343  1.3880  0.3821
10737TIP3    H253703   6.466   2.358  17.330  0.6164 -1.3243 -0.8770
10738TIP3   OH253704   1.770   1.668  16.241  0.4102  0.0413  0.3539
10738TIP3    H153705   1.694   1.715  16.274 -0.5705 -0.8496 -0.5572
10738TIP3    H253706   1.766   1.583  16.285  0.6565 -0.1437  0.0240
10739TIP3   OH253707   3.923   0.464   0.445 -0.0499  0.4235 -0.1124
10739TIP3    H153708   4.019   0.465   0.446 -0.0041 -0.2838 -1.1654
10739TIP3    H253709   3.899   0.378   0.480 -0.2803  0.4456 -0.2112
10740TIP3   OH253710   2.780   4.887   4.243 -0.3051  0.5879 -0.2202
10740TIP3    H153711   2.766   4.792   4.246 -1.6304  0.5760 -3.2094
10740TIP3    H253712   2.829   4.906   4.322 -2.2471 -2.1941  1.8648
10741TIP3   OH253713   6.615   3.926   4.182 -0.0632 -0.1989  0.8117
10741TIP3    H153714   6.525   3.892   4.175  0.6746 -2.1120 -0.3762
10741TIP3    H253715   6.618   3.998   4.120 -0.7148 -0.2217  0.7388
10742TIP3   OH253716   5.494   0.407  15.845  0.2638 -0.0697 -0.0321
10742TIP3    H153717   5.444   0.489  15.839  0.0463 -0.2021 -0.0313
10742TIP3    H253718   5.508   0.381  15.753  0.0268 -0.2147 -0.0300
10743TIP3   OH253719   6.516   1.611  14.156  0.0976  0.0905 -0.2178
10743TIP3    H153720   6.479   1.571  14.235 -0.4884  0.1298 -0.4641
10743TIP3    H253721   6.439   1.629  14.101  0.5563 -0.7161 -1.1608
10744TIP3   OH253722   3.375   0.974  14.362  0.2091 -0.0270 -0.4541
10744TIP3    H153723   3.286   0.971  14.325 -0.0969 -1.4266  0.3591
10744TIP3    H253724   3.369   1.038  14.433 -0.2047 -0.3036 -0.2403
10745TIP3   OH253725   6.725   4.487   3.041 -0.5271  0.9881  0.0318
10745TIP3    H153726   6.808   4.450   3.013 -0.7676 -0.4058  1.0687
10745TIP3    H253727   6.743   4.524   3.128 -1.1533 -0.0474  0.6223
10746TIP3   OH253728   6.266   3.811   4.993 -0.8868  0.5651  0.1095
10746TIP3    H153729   6.198   3.877   4.978 -1.2806 -0.0881 -1.0468
10746TIP3    H253730   6.229   3.729   4.961 -0.3019 -0.1926  1.2941
10747TIP3   OH253731   4.141   0.641   4.887  0.4172  0.3864 -0.4686
10747TIP3    H153732   4.071   0.626   4.950 -0.3648  2.1211 -0.8918
10747TIP3    H253733   4.178   0.726   4.911  4.4928 -1.6666  1.6452
10748TIP3   OH253734   2.433   4.460   5.181 -0.6563 -0.2512  0.0463
10748TIP3    H153735   2.467   4.370   5.189 -1.9085 -0.7124  0.3786
10748TIP3    H253736   2.429   4.492   5.270  2.5401  1.2677 -0.2048
10749TIP3   OH253737   6.061   3.757  14.990 -0.4391 -0.0948 -0.1973
10749TIP3    H153738   6.086   3.755  14.897  2.4070  1.4420  0.4275
10749TIP3    H253739   6.122   3.696  15.032 -0.0926  1.0050  0.9555
10750TIP3   OH253740   2.639   2.523   3.484  0.8075 -0.2720 -0.1525
10750TIP3    H153741   2.734   2.525   3.469  0.5517  0.4391 -1.9983
10750TIP3    H253742   2.630   2.519   3.579  2.6994  2.7928  0.3213
10751TIP3   OH253743   4.557   3.875  11.107 -0.3571 -0.0216 -0.5960
10751TIP3    H153744   4.551   3.847  11.198 -1.4226  1.9724  0.0027
10751TIP3    H253745   4.519   3.802  11.057 -2.8290  0.1518  0.8543
10752TIP3   OH253746   4.755   1.033   2.962 -0.0847  0.3008 -0.6329
10752TIP3    H153747   4.798   1.065   2.882 -0.4761  0.6720 -0.6996
10752TIP3    H253748   4.685   0.975   2.930  1.2163 -1.4295 -0.4924
10753TIP3   OH253749   0.913   4.611  16.617  0.0559 -0.4074 -0.1055
10753TIP3    H153750   0.825   4.648  16.619 -0.6515 -1.7140 -2.8272
10753TIP3    H253751   0.953   4.641  16.699 -1.1765  4.3923 -0.9551
10754TIP3   OH253752   4.490   3.832   5.323 -0.5270  0.2353  0.1177
10754TIP3    H153753   4.479   3.799   5.413  0.1736  0.9485  0.4772
10754TIP3    H253754   4.441   3.770   5.269  2.1219 -2.4739  0.5508
10755TIP3   OH253755   2.344   2.498   4.214  0.2580  0.2942  0.0482
10755TIP3    H153756   2.415   2.542   4.167  0.1809  0.3719  0.0006
10755TIP3    H253757   2.376   2.410   4.232  0.3075  0.2802 -0.1087
10756TIP3   OH253758   1.466   5.755  13.809 -0.5902  0.4144  0.6376
10756TIP3    H153759   1.460   5.816  13.736  0.4421  0.1746  0.3351
10756TIP3    H253760   1.397   5.691  13.793 -0.6695  0.6309  0.1225
10757TIP3   OH253761   2.765   1.786   2.417  0.2908 -0.6366  0.6579
10757TIP3    H153762   2.755   1.736   2.335 -0.0883 -1.4225  1.1698
10757TIP3    H253763   2.843   1.749   2.458 -0.1196 -0.9821  1.1460
10758TIP3   OH253764   0.636   6.413   3.674  0.2480  0.6638  0.3162
10758TIP3    H153765   0.642   6.499   3.717  1.9117  1.4960 -1.4593
10758TIP3    H253766   0.649   6.432   3.581  1.2342 -1.5937 -0.0590
10759TIP3   OH253767   5.380   3.712  14.900  0.4714 -0.2504  0.4269
10759TIP3    H153768   5.423   3.788  14.939  0.1205  0.9123 -1.3633
10759TIP3    H253769   5.304   3.747  14.854  0.8114 -1.5268 -1.2354
10760TIP3   OH253770   5.421   4.183  10.514 -0.3411  0.3682  0.6110
10760TIP3    H153771   5.379   4.159  10.431 -0.0653 -3.3120  1.3628
10760TIP3    H253772   5.434   4.277  10.507  0.0634  0.2214 -3.7188
10761TIP3   OH253773   5.322   2.009  12.044  0.0909  0.2961 -0.3811
10761TIP3    H153774   5.416   2.031  12.040  0.1135  0.1752 -0.5432
10761TIP3    H253775   5.301   1.979  11.955  0.2139 -0.9476 -0.0162
10762TIP3   OH253776   6.428   2.630  16.109 -0.2924  0.0012 -0.5657
10762TIP3    H153777   6.424   2.685  16.188 -1.2665 -1.0049  0.1039
10762TIP3    H253778   6.493   2.563  16.130  0.9808  0.9090 -1.4278
10763TIP3   OH253779   2.978   4.069   0.026  0.1241 -0.3004 -0.0192
10763TIP3    H153780   2.912   4.059  -0.043  0.0319  0.1799 -0.0010
10763TIP3    H253781   2.999   3.979   0.051  0.3575 -0.4843 -0.8603
10764TIP3   OH253782   5.320   1.142  11.484  0.3642  0.1558 -0.2735
10764TIP3    H153783   5.227   1.159  11.468  0.4410  0.3129 -0.5538
10764TIP3    H253784   5.328   1.047  11.485  0.1507  0.1387  0.0386
10765TIP3   OH253785   4.482   6.438   1.846 -0.0939 -0.1421 -0.2741
10765TIP3    H153786   4.450   6.485   1.923 -0.1811  2.2399 -1.6689
10765TIP3    H253787   4.470   6.346   1.868  0.5607  0.4007  2.8176
10766TIP3   OH253788   2.314   3.248  11.732  0.0787  0.3783 -0.7563
10766TIP3    H153789   2.284   3.260  11.822  0.3859 -1.2084 -0.4051
10766TIP3    H253790   2.235   3.225  11.683  0.2947 -1.6241 -0.2690
10767TIP3   OH253791   6.431   1.843  13.848 -0.0806 -0.2650  0.0639
10767TIP3    H153792   6.366   1.842  13.777  0.5934 -0.2599 -0.5720
10767TIP3    H253793   6.388   1.801  13.922 -1.8724  2.2849  0.6144
10768TIP3   OH253794   0.077   2.670  16.466 -0.3719  0.2966 -0.1127
10768TIP3    H153795   0.173   2.668  16.467 -0.3231  0.1386 -2.0912
10768TIP3    H253796   0.055   2.759  16.491  0.0585 -0.6209  4.5859
10769TIP3   OH253797   6.429   0.724  12.456  0.7611  0.0049  0.0855
10769TIP3    H153798   6.337   0.701  12.441  0.6050  1.1229 -0.7711
10769TIP3    H253799   6.476   0.641  12.449  0.0097 -0.3439 -1.0531
10770TIP3   OH253800   1.140   1.083  13.129 -0.0120  0.0799  0.4209
10770TIP3    H153801   1.125   1.064  13.037  1.5789  1.5635 -0.1963
10770TIP3    H253802   1.087   1.018  13.176 -0.0257 -1.3922 -1.5090
10771TIP3   OH253803   0.139   3.372  15.906 -0.0954 -0.1886  0.2583
10771TIP3    H153804   0.121   3.313  15.833  2.1123  0.1003 -0.5850
10771TIP3    H253805   0.097   3.331  15.981 -0.7900 -1.4852 -0.8003
10772TIP3   OH253806   1.114   5.180  16.584 -0.5672 -0.4035 -0.3148
10772TIP3    H153807   1.183   5.138  16.636 -1.4803 -1.2386  0.2672
10772TIP3    H253808   1.063   5.229  16.648  0.3562  1.4948 -0.9600
10773TIP3   OH253809   4.312   1.553  15.940  0.1710  0.5462 -0.3714
10773TIP3    H153810   4.270   1.502  16.009 -1.1063  1.1216 -0.6898
10773TIP3    H253811   4.309   1.643  15.972  4.2743  0.3341  1.1435
10774TIP3   OH253812   5.113   5.395  14.344  0.1347  0.0706 -0.5177
10774TIP3    H153813   5.193   5.448  14.350 -0.3397  0.6419  2.9601
10774TIP3    H253814   5.141   5.307  14.369 -0.3462  0.4197  1.4208
10775TIP3   OH253815   4.343   2.529  16.064  0.4048 -0.1001  0.9102
10775TIP3    H153816   4.378   2.577  15.988  3.0860  0.6479  2.4645
10775TIP3    H253817   4.329   2.596  16.131 -2.8604 -0.6083  0.9001
10776TIP3   OH253818   1.899   5.950   3.707  0.5682  0.0806 -0.3780
10776TIP3    H153819   1.867   5.878   3.761  1.7775  0.2563  0.6165
10776TIP3    H253820   1.842   5.950   3.630  0.0610 -1.4363 -0.0250
10777TIP3   OH253821   3.363   5.178   2.925  0.3619  0.3856  0.1804
10777TIP3    H153822   3.368   5.082   2.927 -2.1413  0.1956 -0.1991
10777TIP3    H253823   3.401   5.205   3.009  0.5937 -0.9496  0.5369
10778TIP3   OH253824   4.815   5.747  10.507  0.7044  0.0070 -0.1238
10778TIP3    H153825   4.847   5.682  10.445 -2.4584 -2.5197  0.6138
10778TIP3    H253826   4.872   5.736  10.583  0.3150 -1.9596 -0.0478
10779TIP3   OH253827   6.601   4.332  15.232 -0.3221 -0.1499  0.1766
10779TIP3    H153828   6.618   4.251  15.279  1.1521  0.6789  1.1451
10779TIP3    H253829   6.602   4.400  15.300  1.1064  0.9969 -0.9128
10780TIP3   OH253830   0.986   4.460  15.344  0.1297 -0.1450  0.3089
10780TIP3    H153831   1.047   4.389  15.322  0.4326  0.6155 -1.4080
10780TIP3    H253832   1.037   4.520  15.398 -0.7402 -2.2344  3.8208
10781TIP3   OH253833   6.305   0.059  15.705 -0.0522  0.2875 -0.3926
10781TIP3    H153834   6.361   0.022  15.772 -0.0737 -0.4979 -0.7977
10781TIP3    H253835   6.221   0.074  15.748  0.1868  0.5905 -0.0304
10782TIP3   OH253836   1.903   5.513  14.669  0.4701 -0.1832 -0.5932
10782TIP3    H153837   1.856   5.461  14.604  2.4487 -0.6279 -1.7533
10782TIP3    H253838   1.958   5.572  14.617  0.9718  0.5334  0.7029
10783TIP3   OH253839   0.751   1.168  13.317  0.1953  0.8811  0.9811
10783TIP3    H153840   0.715   1.170  13.228  0.3314 -0.4918  0.8885
10783TIP3    H253841   0.679   1.135  13.371  0.9676 -0.9663  0.9412
10784TIP3   OH253842   4.385   4.710   5.495  0.4954 -0.2404 -0.9549
10784TIP3    H153843   4.327   4.757   5.434 -0.7772 -1.8084 -1.0261
10784TIP3    H253844   4.375   4.756   5.578 -0.9287 -0.4802 -0.9591
10785TIP3   OH253845   5.788   4.323  14.927 -0.2985 -0.2260 -0.1332
10785TIP3    H153846   5.738   4.404  14.927 -0.1773 -0.1334  0.7458
10785TIP3    H253847   5.879   4.350  14.937 -0.0875 -0.4045 -1.4831
10786TIP3   OH253848   3.538   6.582  12.205 -0.0039 -0.4325 -0.1220
10786TIP3    H153849   3.520   6.502  12.155  0.4132 -1.2351  0.9684
10786TIP3    H253850   3.630   6.574  12.230  0.0816  0.4669 -0.1227
10787TIP3   OH253851   5.312   3.866  14.638  0.3027  0.6634 -0.0776
10787TIP3    H153852   5.338   3.953  14.669  1.0165 -0.6664  3.4961
10787TIP3    H253853   5.380   3.842  14.575 -0.6117  3.0750 -2.2114
10788TIP3   OH253854   6.635   3.868  12.387 -0.7659  0.1134  0.1206
10788TIP3    H153855   6.632   3.909  12.301 -1.2718 -0.2487 -0.0398
10788TIP3    H253856   6.588   3.930  12.444 -0.3200  0.4133  0.1668
10789TIP3   OH253857   6.620   4.561   1.593 -0.1345  0.1216  0.2290
10789TIP3    H153858   6.690   4.497   1.606  0.1587  0.4304  0.1726
10789TIP3    H253859   6.552   4.511   1.547  0.5648  0.1334 -0.8679
10790TIP3   OH253860   2.161   3.499   2.537 -0.1436 -0.1543  0.8333
10790TIP3    H153861   2.189   3.591   2.530 -1.0421  0.0597 -0.4964
10790TIP3    H253862   2.099   3.488   2.464  0.0077 -1.8454  0.9254
10791TIP3   OH253863   5.223   2.284  14.994  0.3678 -0.0158  0.1749
10791TIP3    H153864   5.129   2.269  14.983 -0.1551  1.3413  2.2948
10791TIP3    H253865   5.245   2.351  14.929  0.0297 -0.7387 -0.7132
10792TIP3   OH253866   6.681   4.578  13.675  0.0345  0.8233 -0.0625
10792TIP3    H153867   6.684   4.498  13.729  0.5535  1.3785  0.7596
10792TIP3    H253868   6.647   4.549  13.591  1.2003 -0.4808 -0.1300
10793TIP3   OH253869   5.637   0.770  13.976 -0.6662  0.1535  0.0610
10793TIP3    H153870   5.608   0.861  13.989 -2.6806 -0.1737 -1.5936
10793TIP3    H253871   5.590   0.721  14.043  1.1772  0.3861  1.6034
10794TIP3   OH253872   3.543   4.151   4.600  0.0245  0.2941  0.0647
10794TIP3    H153873   3.554   4.192   4.686  3.4076  2.4747 -1.1771
10794TIP3    H253874   3.576   4.217   4.538  0.5868 -2.3183 -2.6310
10795TIP3   OH253875   3.189   6.445  14.244 -0.5894  0.2098 -0.3062
10795TIP3    H153876   3.156   6.531  14.270 -0.6061  0.3068 -0.6429
10795TIP3    H253877   3.252   6.463  14.175 -0.0249  0.0010  0.1442
10796TIP3   OH253878   3.071   3.192  11.954 -0.0995  0.2680  0.3925
10796TIP3    H153879   3.091   3.188  12.047  1.4821  1.1280  0.1231
10796TIP3    H253880   3.115   3.271  11.923  1.6489 -1.3474 -1.5741
10797TIP3   OH253881   1.399   1.962  12.390  0.1422  0.5590 -0.2427
10797TIP3    H153882   1.469   1.897  12.379  0.2660  0.4332  1.1826
10797TIP3    H253883   1.332   1.935  12.327  1.1540  0.4103 -1.3073
10798TIP3   OH253884   2.928   6.614  12.651  0.0807 -0.1534  0.2749
10798TIP3    H153885   3.007   6.665  12.633 -0.1043 -0.3662 -1.2821
10798TIP3    H253886   2.935   6.589  12.743  0.9431  1.3385  0.6315
10799TIP3   OH253887   5.009   5.022   3.574  0.3800 -0.2474  0.1246
10799TIP3    H153888   5.034   5.005   3.483  1.4541 -2.2047  0.7407
10799TIP3    H253889   5.083   5.070   3.611  0.5677 -0.6779  0.3188
10800TIP3   OH253890   3.414   4.640  15.621  0.8864 -0.1052 -0.2519
10800TIP3    H153891   3.464   4.559  15.631 -0.0538 -0.3722  3.3387
10800TIP3    H253892   3.326   4.619  15.652 -1.0367  0.9829 -4.2694
10801TIP3   OH253893   6.080   5.957   6.237 -0.0038 -0.0214  0.3703
10801TIP3    H153894   6.128   5.928   6.315 -0.1637  1.6491  1.1478
10801TIP3    H253895   6.147   6.001   6.184  0.0936 -1.1096 -0.4425
10802TIP3   OH253896   6.654   0.049  12.859 -0.5024 -0.5346 -0.4918
10802TIP3    H153897   6.585  -0.004  12.899  0.1442 -2.0861 -1.3750
10802TIP3    H253898   6.732   0.031  12.912 -0.5465  0.5513 -0.0224
10803TIP3   OH253899   1.123   4.267   0.838  0.3991  0.0641 -0.2828
10803TIP3    H153900   1.138   4.174   0.858  0.8060  0.1387 -0.2212
10803TIP3    H253901   1.161   4.279   0.751 -0.8063 -0.1144 -0.8521
10804TIP3   OH253902   4.594   3.003   0.995 -0.1550  0.0906  0.1842
10804TIP3    H153903   4.580   2.969   0.907 -1.6384  1.3580 -0.1088
10804TIP3    H253904   4.522   2.968   1.047  1.1318 -1.2873  1.1457
10805TIP3   OH253905   2.054   6.289   1.072  0.0484  0.4174 -0.1970
10805TIP3    H153906   1.995   6.364   1.064 -0.4392  0.0497 -0.1426
10805TIP3    H253907   2.118   6.315   1.138 -0.8604  0.3170  0.7564
10806TIP3   OH253908   4.384   0.267   0.600  0.1131 -0.0550 -0.1050
10806TIP3    H153909   4.472   0.303   0.586  0.2907  0.0215  1.0994
10806TIP3    H253910   4.398   0.173   0.613  0.0696  0.0146  0.4762
10807TIP3   OH253911   3.090   1.323  14.717 -0.1968  0.4538  0.1594
10807TIP3    H153912   3.067   1.244  14.767 -0.3451  0.5348  0.2173
10807TIP3    H253913   3.144   1.374  14.776  0.5716  0.0253 -0.1519
10808TIP3   OH253914   0.816   3.662  16.488  0.6460 -0.1889 -0.0446
10808TIP3    H153915   0.803   3.746  16.442  0.6257 -0.8571 -1.2989
10808TIP3    H253916   0.911   3.653  16.493  0.6482 -0.2987 -0.2943
10809TIP3   OH253917   5.851   5.390   5.435  0.1589 -0.4954 -0.3111
10809TIP3    H153918   5.927   5.365   5.488 -0.1939 -1.5364 -0.2718
10809TIP3    H253919   5.812   5.307   5.408 -1.7907 -0.0245  0.8348
10810TIP3   OH253920   4.616   2.913   4.960 -0.1082 -0.2772 -0.1225
10810TIP3    H153921   4.544   2.855   4.936  0.7048 -2.0861  1.5055
10810TIP3    H253922   4.685   2.892   4.898 -0.0224 -0.6800  0.0981
10811TIP3   OH253923   1.816   4.236  11.188  0.3163  0.5703 -0.4754
10811TIP3    H153924   1.881   4.296  11.223 -1.2213  2.2781 -0.3700
10811TIP3    H253925   1.749   4.293  11.150 -1.8238 -1.0122  0.6657
10812TIP3   OH253926   1.270   5.520  11.243  0.6863 -0.1819  0.6940
10812TIP3    H153927   1.363   5.511  11.223  0.6360 -0.3192  0.5237
10812TIP3    H253928   1.261   5.610  11.276  0.9403 -0.2894  1.0531
10813TIP3   OH253929   3.445   2.035  12.637 -0.0359  0.0788 -0.0372
10813TIP3    H153930   3.411   2.112  12.592 -0.2520  0.5359  0.8825
10813TIP3    H253931   3.397   1.962  12.598  1.1048  0.2311 -1.8403
10814TIP3   OH253932   4.324   2.528  16.505  0.3574  0.0142 -0.3593
10814TIP3    H153933   4.320   2.585  16.428 -1.9835 -0.0417 -0.3528
10814TIP3    H253934   4.245   2.549  16.554  1.3647 -0.5664  1.6195
10815TIP3   OH253935   1.934   0.176   0.145  0.5392 -0.1118 -0.0642
10815TIP3    H153936   1.922   0.204   0.236  0.6858  3.5250 -1.0336
10815TIP3    H253937   1.845   0.157   0.115  0.3563 -0.1653  0.4967
10816TIP3   OH253938   4.677   0.772   1.900  0.5975  0.2024  0.0601
10816TIP3    H153939   4.627   0.769   1.982  0.2650  3.9027  0.1686
10816TIP3    H253940   4.613   0.796   1.834  1.7398  2.7650 -0.2103
10817TIP3   OH253941   6.779   0.374   0.654  0.1322 -0.2483 -0.0499
10817TIP3    H153942   6.781   0.363   0.559  2.1774  0.9746 -0.2043
10817TIP3    H253943   6.760   0.287   0.688 -3.2453 -0.2562 -1.5918
10818TIP3   OH253944   4.103   1.018  13.419  0.2518 -1.0384  0.2462
10818TIP3    H153945   4.179   1.046  13.471  0.7496 -3.2811  0.8216
10818TIP3    H253946   4.139   0.998  13.333 -0.0095 -0.4498 -0.0050
10819TIP3   OH253947   6.784   4.453   2.312  0.1966  0.1555  0.5857
10819TIP3    H153948   6.813   4.369   2.275  0.1111  0.9471 -1.3953
10819TIP3    H253949   6.695   4.436   2.343  0.5042 -0.7054  1.0407
10820TIP3   OH253950   4.095   6.507   1.941  0.6492 -0.1341 -0.3302
10820TIP3    H153951   4.037   6.583   1.936  1.1564  0.1928 -1.7156
10820TIP3    H253952   4.155   6.527   2.013  0.8395  0.8379 -0.7382
10821TIP3   OH253953   0.506   6.418   5.514 -0.1474  0.1513 -0.5985
10821TIP3    H153954   0.569   6.347   5.528 -0.3464  0.3300  1.5762
10821TIP3    H253955   0.444   6.408   5.586 -0.2853  2.4160 -0.3567
10822TIP3   OH253956   4.859   0.037   5.556 -0.6962 -0.3002 -0.5076
10822TIP3    H153957   4.765   0.024   5.567 -0.7830  0.0936 -0.7488
10822TIP3    H253958   4.883  -0.013   5.478 -0.1507 -2.7881  1.1368
10823TIP3   OH253959   5.670   6.381  16.333  0.2508  0.2689  0.8028
10823TIP3    H153960   5.745   6.343  16.378  0.7483 -0.0960 -0.3035
10823TIP3    H253961   5.657   6.325  16.256  0.6637  1.9839 -0.5787
10824TIP3   OH253962   5.894   6.195   0.752  0.3861  0.4463  0.9011
10824TIP3    H153963   5.933   6.244   0.824  0.3035  0.6054  0.8378
10824TIP3    H253964   5.845   6.261   0.702  1.4241  0.5682  0.0166
10825TIP3   OH253965   4.391   6.293  12.207 -0.5442 -0.0125  0.1634
10825TIP3    H153966   4.299   6.303  12.185 -0.4634 -0.4328 -0.3818
10825TIP3    H253967   4.430   6.252  12.130  0.3159  1.1683 -0.0550
10826TIP3   OH253968   2.271   3.765   6.101 -0.5946 -0.3568  0.3197
10826TIP3    H153969   2.341   3.714   6.061 -0.6203 -1.4355  1.5889
10826TIP3    H253970   2.222   3.702   6.154 -1.4388  0.7287  0.8805
10827TIP3   OH253971   4.763   2.514  11.521 -0.2295  0.1240 -0.0097
10827TIP3    H153972   4.839   2.472  11.481 -0.1926  1.0511 -0.9703
10827TIP3    H253973   4.695   2.446  11.521  0.7697 -0.9430  1.5240
10828TIP3   OH253974   5.376   4.315  10.245 -0.1951 -0.4330  0.3513
10828TIP3    H153975   5.416   4.373  10.309  1.0210 -1.2111  0.3445
10828TIP3    H253976   5.434   4.320  10.169 -0.7556 -0.7124 -0.1050
10829TIP3   OH253977   3.472   4.003  16.199 -0.2555 -0.0278  0.0870
10829TIP3    H153978   3.492   4.082  16.249  1.1116  0.3274 -0.9566
10829TIP3    H253979   3.397   4.028  16.145 -0.1093  0.4232  0.0854
10830TIP3   OH253980   6.569   5.741  11.017 -0.4350  0.2105 -0.3226
10830TIP3    H153981   6.536   5.658  11.050  1.0816 -0.7540 -1.1026
10830TIP3    H253982   6.547   5.805  11.085 -1.4224 -0.8517  0.3917
10831TIP3   OH253983   1.115   5.732   5.090  0.5080 -0.4563 -0.2867
10831TIP3    H153984   1.141   5.825   5.088 -1.1161  0.0313 -0.3595
10831TIP3    H253985   1.198   5.684   5.088  1.4092  0.9971  0.4192
10832TIP3   OH253986   6.298   1.851   3.169 -0.8136 -0.4587 -0.3465
10832TIP3    H153987   6.266   1.851   3.259 -0.5477 -0.6315 -0.2499
10832TIP3    H253988   6.248   1.920   3.125 -2.1787 -1.5032 -0.5113
10833TIP3   OH253989   4.334   3.864  13.021  0.1456  0.0731  0.1868
10833TIP3    H153990   4.388   3.786  13.027  0.3119  0.2057  0.4661
10833TIP3    H253991   4.276   3.858  13.098 -2.0195 -1.3779 -1.4399
10834TIP3   OH253992   2.863   3.929   1.064  0.5718  0.3972  0.5185
10834TIP3    H153993   2.792   3.883   1.109  0.1190  0.3263 -0.2464
10834TIP3    H253994   2.830   4.018   1.053  1.9965  1.4074  3.2680
10835TIP3   OH253995   2.583   1.258  12.924 -0.1529  0.7698 -0.2015
10835TIP3    H153996   2.622   1.342  12.899  0.2813  0.0696 -2.0351
10835TIP3    H253997   2.522   1.280  12.994  4.0428  1.8179  3.5845
10836TIP3   OH253998   4.679   4.837  10.316 -0.1207  0.0350 -0.1742
10836TIP3    H153999   4.589   4.805  10.323 -0.1473  0.1450 -0.0048
10836TIP3    H254000   4.672   4.931  10.333 -0.3087  0.4950 -2.4641
10837TIP3   OH254001   4.077   3.932   0.081 -0.0382 -0.1024  0.9611
10837TIP3    H154002   4.029   3.928  -0.002  1.4506  0.5876  0.0297
10837TIP3    H254003   4.053   4.017   0.118 -1.0010 -0.5704  1.4516
10838TIP3   OH254004   1.323   5.973  12.418  0.2518 -0.3723 -0.1333
10838TIP3    H154005   1.376   6.010  12.347  0.6774 -0.2514  0.2417
10838TIP3    H254006   1.248   6.032  12.426  1.5206  1.1262  1.2566
10839TIP3   OH254007   3.934   1.748  11.412 -0.2000 -0.0422  0.0741
10839TIP3    H154008   3.908   1.839  11.430 -0.3208  0.0163 -0.3919
10839TIP3    H254009   3.932   1.741  11.317  0.0262 -0.4729  0.1005
10840TIP3   OH254010   2.747   4.164   0.953 -0.3430 -0.3316 -0.2091
10840TIP3    H154011   2.802   4.191   0.880  1.2297 -0.4811  0.8668
10840TIP3    H254012   2.745   4.241   1.011 -1.2223 -0.3512 -0.2011
10841TIP3   OH254013   0.155   4.414   2.935 -0.5216  0.0867  0.6191
10841TIP3    H154014   0.203   4.336   2.906 -1.9137 -0.7696  0.5171
10841TIP3    H254015   0.212   4.455   3.000  1.2794  0.3011 -1.0131
10842TIP3   OH254016   1.896   0.471   0.574  0.5692 -0.1645  0.4909
10842TIP3    H154017   1.817   0.482   0.626  1.9756  1.4681  2.4705
10842TIP3    H254018   1.914   0.559   0.540  0.6525 -0.8511 -1.3300
10843TIP3   OH254019   4.996   2.040  15.347  0.5374 -0.3927  0.3635
10843TIP3    H154020   4.913   1.993  15.353  0.1745  0.1549 -0.2464
10843TIP3    H254021   5.028   2.021  15.259 -0.8848  2.5049 -0.9192
10844TIP3   OH254022   1.798   4.533   4.164  0.5110  0.0076  0.4700
10844TIP3    H154023   1.780   4.496   4.077  1.2434  0.0529  0.2976
10844TIP3    H254024   1.882   4.496   4.189  0.8594  0.9041  0.6628
10845TIP3   OH254025   2.606   2.695  12.899  0.0223  0.0877  0.4010
10845TIP3    H154026   2.629   2.787  12.913  0.3141 -0.1466  1.5079
10845TIP3    H254027   2.620   2.682  12.805  0.2357  1.1008  0.2735
10846TIP3   OH254028   2.891   0.852   0.980  0.5634 -0.3464  0.3430
10846TIP3    H154029   2.821   0.817   0.926 -1.6033  0.5169  2.4047
10846TIP3    H254030   2.913   0.936   0.941 -0.5635  0.0134  0.4714
10847TIP3   OH254031   0.856   1.344   4.433 -0.1609  0.1354 -0.3503
10847TIP3    H154032   0.824   1.429   4.462  0.3556  0.2508 -0.0987
10847TIP3    H254033   0.920   1.365   4.364  1.5383  0.0889  1.1429
10848TIP3   OH254034   0.414   1.344   4.452 -0.5633 -0.2319 -0.0864
10848TIP3    H154035   0.420   1.250   4.470  1.6759 -0.2752 -0.7882
10848TIP3    H254036   0.425   1.385   4.538 -1.8978 -0.5786  0.2781
10849TIP3   OH254037   1.357   1.589  16.396  0.1871  0.3785 -0.7096
10849TIP3    H154038   1.294   1.555  16.332  1.3957  0.0830 -1.7797
10849TIP3    H254039   1.442   1.567  16.359  0.9257  0.7604  0.7186
10850TIP3   OH254040   0.289   5.510   1.826  0.3475  0.4782  0.0547
10850TIP3    H154041   0.204   5.551   1.813 -0.2572 -0.6934  0.2556
10850TIP3    H254042   0.280   5.421   1.793  1.5587  0.3955 -0.1187
10851TIP3   OH254043   6.023   4.961   4.561 -0.5683 -0.7669 -0.2591
10851TIP3    H154044   5.963   5.011   4.505 -0.5641  0.5575  0.8624
10851TIP3    H254045   6.099   4.944   4.506 -0.0001  1.6481 -0.3207
10852TIP3   OH254046   1.486   2.836  15.551 -0.1948 -0.0248  0.0119
10852TIP3    H154047   1.576   2.827  15.582 -0.2885  1.6335  0.8889
10852TIP3    H254048   1.491   2.816  15.458  1.0676 -0.0018  0.0509
10853TIP3   OH254049   3.079   2.638   0.519 -0.6635 -0.1080  0.0872
10853TIP3    H154050   3.083   2.710   0.582 -1.3769 -0.6491  0.7658
10853TIP3    H254051   2.987   2.632   0.495 -0.1289  1.7285 -2.9781
10854TIP3   OH254052   5.694   1.340  12.829  0.8363 -0.2931  0.0449
10854TIP3    H154053   5.741   1.422  12.814  1.7799 -1.3160 -3.5841
10854TIP3    H254054   5.756   1.284  12.875  1.5414 -0.1251 -0.6902
10855TIP3   OH254055   3.497   2.114  11.975 -0.1522  0.3265  0.4825
10855TIP3    H154056   3.546   2.195  11.989  2.0937 -0.5671 -1.4722
10855TIP3    H254057   3.543   2.049  12.029  0.9086 -0.5248 -1.3551
10856TIP3   OH254058   2.804   6.620   0.777  0.0229  0.3740 -0.7953
10856TIP3    H154059   2.879   6.668   0.811 -1.1949  0.5880  1.8654
10856TIP3    H254060   2.838   6.533   0.756  0.8519  0.0665  1.5084
10857TIP3   OH254061   6.627   3.879  16.999 -0.2971 -0.5705 -0.5087
10857TIP3    H154062   6.708   3.927  16.982 -1.1310  1.2275  0.3355
10857TIP3    H254063   6.564   3.914  16.937 -1.4377  0.9253  1.3751
10858TIP3   OH254064   6.489   5.331  16.687  0.1039  0.2174  0.7069
10858TIP3    H154065   6.420   5.280  16.646  1.1747  0.2928 -1.3453
10858TIP3    H254066   6.518   5.392  16.619  2.3055  0.0393  1.3786
10859TIP3   OH254067   2.992   4.753  12.061  0.1255  0.5837 -0.0790
10859TIP3    H154068   3.014   4.735  12.152 -1.7528  0.6608  0.4220
10859TIP3    H254069   3.055   4.820  12.034  1.1396  0.0713  0.9309
10860TIP3   OH254070   4.839   6.538   5.028  0.8550 -0.5282  0.4945
10860TIP3    H154071   4.878   6.488   4.956 -0.0944 -1.2014  0.4401
10860TIP3    H254072   4.872   6.627   5.014 -1.1409 -0.0658 -2.2223
10861TIP3   OH254073   4.103   6.199  16.982 -0.7446 -0.3931  0.2495
10861TIP3    H154074   4.145   6.120  17.014  0.3323  0.0908  0.0741
10861TIP3    H254075   4.162   6.270  17.008 -1.8675  0.3970  0.7266
10862TIP3   OH254076   5.470   4.609   1.301 -0.1764  0.3130  0.0488
10862TIP3    H154077   5.472   4.556   1.381 -0.5890 -0.2657 -0.3152
10862TIP3    H254078   5.549   4.582   1.253  0.1548  0.7751  0.3281
10863TIP3   OH254079   1.724   1.360  13.491 -0.0490  0.3700 -0.1248
10863TIP3    H154080   1.642   1.403  13.516 -0.0143  0.8007 -0.7310
10863TIP3    H254081   1.696   1.273  13.461 -0.0387 -0.3537  1.8189
10864TIP3   OH254082   4.639   2.691  16.936  0.1350  0.0659  0.2708
10864TIP3    H154083   4.588   2.650  16.866  0.3505  1.0257 -0.4699
10864TIP3    H254084   4.585   2.679  17.014 -1.2208  0.9902 -0.4800
10865TIP3   OH254085   3.055   3.127   5.599 -0.0583  0.3952  0.1615
10865TIP3    H154086   3.129   3.106   5.657 -0.1129  0.7699  0.3736
10865TIP3    H254087   2.981   3.140   5.659 -0.0849  0.9228  0.0217
10866TIP3   OH254088   1.709   2.345   2.817  0.1332  0.1505  0.8388
10866TIP3    H154089   1.762   2.399   2.875  0.9811  0.7688 -0.4531
10866TIP3    H254090   1.667   2.407   2.758  1.7490 -0.5644 -1.1861
10867TIP3   OH254091   4.834   5.595   4.114  0.2215 -0.6347  0.3179
10867TIP3    H154092   4.926   5.619   4.106  0.8742 -3.2099 -1.2097
10867TIP3    H254093   4.790   5.644   4.044  0.6186 -0.2063  0.3633
10868TIP3   OH254094   4.947   3.959   5.659  0.2240 -0.3236 -0.3013
10868TIP3    H154095   4.852   3.943   5.659  0.6544 -3.3861  0.6792
10868TIP3    H254096   4.954   4.054   5.671 -2.6937  0.2221 -1.8332
10869TIP3   OH254097   2.749   5.524   6.124 -0.6800  0.0965 -0.0573
10869TIP3    H154098   2.838   5.492   6.140 -0.7140 -0.0040 -0.0652
10869TIP3    H254099   2.693   5.460   6.168 -0.7594  0.0150 -0.2767
10870TIP3   OH254100   5.474   1.433  13.303 -0.0274  0.0088 -0.1525
10870TIP3    H154101   5.406   1.474  13.356 -1.5933 -2.6598  0.1164
10870TIP3    H254102   5.429   1.401  13.225  1.4178  0.2578 -1.1393
10871TIP3   OH254103   5.915   1.567   5.599 -0.6764  0.1179  0.2464
10871TIP3    H154104   5.880   1.635   5.656  1.5469  1.1913  0.4166
10871TIP3    H254105   5.854   1.494   5.609 -2.9978  1.9296  0.2775
10872TIP3   OH254106   4.029   2.114   3.860  0.1418 -0.1837 -0.2570
10872TIP3    H154107   4.120   2.098   3.836  0.3737 -1.5409  1.3875
10872TIP3    H254108   4.025   2.208   3.878  1.0587 -0.0084 -0.8761
10873TIP3   OH254109   6.456   3.366   0.903 -0.0605  0.3643 -0.0235
10873TIP3    H154110   6.540   3.396   0.939 -1.3931  1.6826  2.2447
10873TIP3    H254111   6.432   3.292   0.960 -0.6989  0.3630 -0.2938
10874TIP3   OH254112   0.229   0.849  11.757 -0.1027  0.2866  0.2487
10874TIP3    H154113   0.137   0.832  11.738  0.3213 -0.2287 -1.5942
10874TIP3    H254114   0.232   0.941  11.782 -1.3493 -0.1708  2.2798
10875TIP3   OH254115   3.075   4.931  15.692  0.9431  0.3593 -0.4225
10875TIP3    H154116   3.039   4.986  15.762  1.2693  2.6298 -1.9249
10875TIP3    H254117   3.010   4.937  15.622  1.2446 -0.8016 -0.8265
10876TIP3   OH254118   5.093   3.170  15.465  0.1611 -0.0200 -0.3056
10876TIP3    H154119   5.034   3.187  15.391 -0.9032 -0.8134  0.3330
10876TIP3    H254120   5.097   3.075  15.471 -0.3480  0.0240  1.0829
10877TIP3   OH254121   6.077   5.371   0.319  0.2145  0.2246  0.2654
10877TIP3    H154122   6.039   5.305   0.262  0.4366 -0.5243  0.9689
10877TIP3    H254123   6.160   5.394   0.277 -0.5227  1.1550 -0.7561
10878TIP3   OH254124   1.969   4.702  15.287 -0.0613  0.3228 -0.4708
10878TIP3    H154125   1.875   4.717  15.289 -0.0509  0.3801 -0.4146
10878TIP3    H254126   2.008   4.790  15.294  0.0196  0.1796  1.1459
10879TIP3   OH254127   0.975   1.328   1.574 -0.5773  0.0739  0.3556
10879TIP3    H154128   0.981   1.370   1.660 -0.4823 -1.1919  0.9784
10879TIP3    H254129   0.886   1.348   1.544 -0.0196  2.0798 -0.1006
10880TIP3   OH254130   0.246   2.505   4.280 -0.3311  0.3528 -0.4225
10880TIP3    H154131   0.154   2.481   4.275 -0.5784  0.9814  0.7827
10880TIP3    H254132   0.259   2.533   4.371  1.0225  0.3689 -0.5984
10881TIP3   OH254133   2.212   0.488  13.508  0.7820 -0.2506  0.1657
10881TIP3    H154134   2.307   0.472  13.510  1.4635  2.9050 -1.2967
10881TIP3    H254135   2.201   0.570  13.554 -1.3515 -0.7255  0.5869
10882TIP3   OH254136   5.483   6.141   6.252 -0.3191  0.1145  0.1176
10882TIP3    H154137   5.412   6.119   6.312 -1.0993 -0.7435 -1.0710
10882TIP3    H254138   5.514   6.056   6.220  1.7633  0.4006  1.1298
10883TIP3   OH254139   0.987   0.576   4.120  0.3831  0.1329  0.3940
10883TIP3    H154140   1.000   0.499   4.065  2.4886  0.7839 -0.1369
10883TIP3    H254141   0.949   0.542   4.201 -2.4393 -0.9029 -1.2156
10884TIP3   OH254142   6.253   6.585   5.591  0.1181 -0.4249  0.2587
10884TIP3    H154143   6.293   6.611   5.673 -1.6965 -0.3742  1.1893
10884TIP3    H254144   6.222   6.667   5.552 -0.2592 -0.5771  0.2244
10885TIP3   OH254145   0.450   2.164   1.686  0.1684 -0.1707 -0.1657
10885TIP3    H154146   0.477   2.255   1.699  0.4783 -0.0793 -1.3842
10885TIP3    H254147   0.367   2.171   1.639 -2.3267 -0.4296  3.6945
10886TIP3   OH254148   5.568   0.225   2.192 -0.0605 -0.7613 -0.3567
10886TIP3    H154149   5.474   0.242   2.190 -0.0265 -0.5309  0.0796
10886TIP3    H254150   5.597   0.256   2.278  0.2684 -1.5875 -0.1560
10887TIP3   OH254151   4.750   5.871  13.213 -0.7332  0.2658 -0.4833
10887TIP3    H154152   4.675   5.923  13.241 -0.1100  0.6164  0.5837
10887TIP3    H254153   4.826   5.922  13.240 -0.1065 -1.1795  0.5894
10888TIP3   OH254154   3.122   1.338  14.433  0.0323 -0.2160 -0.5814
10888TIP3    H154155   3.106   1.355  14.526  0.9805  1.0975 -0.6305
10888TIP3    H254156   3.110   1.244  14.423  1.9375 -0.7503  1.3296
10889TIP3   OH254157   5.375   4.947  16.561  0.0075  0.0287  0.3923
10889TIP3    H154158   5.301   4.916  16.614  1.3102  0.1801  2.3950
10889TIP3    H254159   5.421   4.867  16.535 -0.8938 -0.0750 -0.9803
10890TIP3   OH254160   2.848   3.963  16.899  0.6268 -0.5653  0.6166
10890TIP3    H154161   2.877   3.907  16.971  3.4685  0.7052  0.6179
10890TIP3    H254162   2.754   3.971  16.911  0.4105 -3.6127  1.8069
10891TIP3   OH254163   0.194   4.968   3.352 -0.5547 -0.0445  0.4399
10891TIP3    H154164   0.276   4.963   3.302  0.7784  0.1079  2.4744
10891TIP3    H254165   0.190   5.059   3.381 -1.7736  0.0920 -0.0979
10892TIP3   OH254166   1.804   0.918  14.309 -0.0654  0.6103 -0.4753
10892TIP3    H154167   1.848   0.835  14.328 -2.1649 -0.5898 -0.5354
10892TIP3    H254168   1.764   0.905  14.222 -0.2641  1.7525 -0.5745
10893TIP3   OH254169   2.512   6.547  13.533 -0.4640 -0.0120  0.3709
10893TIP3    H154170   2.421   6.562  13.509 -0.6031 -0.2940  0.7133
10893TIP3    H254171   2.552   6.512  13.454 -0.6436  0.1364  0.2127
10894TIP3   OH254172   5.894   4.153   1.180  0.1377  0.1198  0.8345
10894TIP3    H154173   5.921   4.149   1.088 -0.4422 -0.1391  0.6712
10894TIP3    H254174   5.802   4.179   1.177 -0.5358 -1.9890  1.2278
10895TIP3   OH254175   1.791   6.565  11.703  0.1027 -0.0187  0.0830
10895TIP3    H154176   1.760   6.476  11.682 -1.1332  0.3486  0.2642
10895TIP3    H254177   1.886   6.559  11.697  0.0148 -0.3135 -4.2950
10896TIP3   OH254178   0.308   0.009   2.966 -1.1303 -0.3220  0.2212
10896TIP3    H154179   0.325  -0.080   2.938  1.0535 -0.2806  1.2588
10896TIP3    H254180   0.323   0.009   3.060 -0.3332  1.2890  0.1371
10897TIP3   OH254181   0.114   3.148   2.795 -0.3231  0.4707 -0.1438
10897TIP3    H154182   0.070   3.076   2.749  0.8254  0.8978 -2.0165
10897TIP3    H254183   0.117   3.120   2.886 -2.0700 -0.7431 -0.4093
10898TIP3   OH254184   1.641   5.783   4.626  0.0681 -0.5253 -0.2217
10898TIP3    H154185   1.717   5.803   4.572  0.0142  2.9931  0.7448
10898TIP3    H254186   1.674   5.787   4.716 -1.3289  2.2944  0.2760
10899TIP3   OH254187   3.193   1.459  16.083  0.2660 -0.1732 -0.4055
10899TIP3    H154188   3.130   1.485  16.150  0.9474  1.0113 -0.1930
10899TIP3    H254189   3.145   1.466  16.000  0.3890  1.8774 -0.3701
10900TIP3   OH254190   4.153   2.889   1.628  0.3588  0.3877 -0.2921
10900TIP3    H154191   4.169   2.805   1.671  0.3312  0.9570  0.8581
10900TIP3    H254192   4.058   2.897   1.625  0.3247 -0.3030 -1.7919
10901TIP3   OH254193   2.630   1.194   1.555 -0.5456 -0.0125 -0.0196
10901TIP3    H154194   2.650   1.106   1.521  1.3823  0.2948  0.2067
10901TIP3    H254195   2.622   1.248   1.476 -2.0853 -0.4212 -0.1771
10902TIP3   OH254196   2.938   4.449   1.463 -0.2612 -0.4800  0.3887
10902TIP3    H154197   2.937   4.376   1.401 -0.9713 -1.0340  1.0381
10902TIP3    H254198   3.019   4.496   1.443 -0.8129 -0.2302 -1.4277
10903TIP3   OH254199   0.485   5.177  14.173  0.3532  1.2157  0.1903
10903TIP3    H154200   0.393   5.178  14.145  0.5450  2.2654 -0.4704
10903TIP3    H254201   0.511   5.269  14.171  1.7210  0.8413 -0.7037
10904TIP3   OH254202   0.156   4.462  17.232 -0.0054 -0.3189  0.6198
10904TIP3    H154203   0.215   4.406  17.182  1.9626  0.0462  2.4219
10904TIP3    H254204   0.080   4.406  17.251  0.6798 -1.4767  0.0557
10905TIP3   OH254205   4.296   3.965  13.355  0.1031 -0.0480  0.7838
10905TIP3    H154206   4.221   3.935  13.304 -0.3546  0.6028  1.0567
10905TIP3    H254207   4.258   4.018  13.425  0.7665 -0.3488  1.3915
10906TIP3   OH254208   0.370   0.881  13.629 -0.7708  1.0961  0.0684
10906TIP3    H154209   0.384   0.848  13.540 -1.9976  1.4868 -0.2925
10906TIP3    H254210   0.292   0.835  13.660  0.4019 -0.0461  1.4859
10907TIP3   OH254211   4.223   5.273  11.369 -0.7012 -0.0196 -0.3940
10907TIP3    H154212   4.268   5.264  11.453  0.1602  0.3376 -0.8024
10907TIP3    H254213   4.282   5.232  11.306 -0.2136  1.7650 -1.1644
10908TIP3   OH254214   0.159   5.761  16.260  0.3503  0.8489 -0.6779
10908TIP3    H154215   0.230   5.701  16.239  0.3175  0.9177 -0.9880
10908TIP3    H254216   0.135   5.740  16.350  0.4346  0.4943 -0.7388
10909TIP3   OH254217   5.005   6.451   0.274 -0.1329 -0.4096 -0.2443
10909TIP3    H154218   5.028   6.521   0.211 -1.3062  1.1029  0.9322
10909TIP3    H254219   4.948   6.494   0.337 -0.7548 -2.4384  0.6396
10910TIP3   OH254220   2.068   0.163  14.406  0.6826 -0.0183  0.2061
10910TIP3    H154221   2.041   0.129  14.491  0.7762  0.2103  0.3282
10910TIP3    H254222   2.134   0.100  14.375 -0.2714 -0.7976 -0.2804
10911TIP3   OH254223   2.242   5.494   3.935  0.2701  0.3599 -0.0779
10911TIP3    H154224   2.329   5.468   3.964 -0.0472  1.0421  1.5498
10911TIP3    H254225   2.241   5.474   3.841  1.2425 -2.1926  0.3737
10912TIP3   OH254226   0.462   3.456  11.525  0.2026  0.2161  0.0187
10912TIP3    H154227   0.537   3.513  11.538  0.5785 -0.0273 -0.9951
10912TIP3    H254228   0.496   3.367  11.536 -0.4645  0.1595  2.0108
10913TIP3   OH254229   1.900   3.382  13.203  0.2569  0.1157 -0.3295
10913TIP3    H154230   1.944   3.335  13.274  0.1344 -1.1266 -1.0426
10913TIP3    H254231   1.837   3.319  13.168 -0.9189  1.2925 -0.4198
10914TIP3   OH254232   2.227   6.405   1.254 -0.4499 -0.1627 -0.4814
10914TIP3    H154233   2.301   6.349   1.230 -0.2359 -0.1138  0.0565
10914TIP3    H254234   2.267   6.488   1.279 -0.7804  0.3070 -1.4660
10915TIP3   OH254235   2.021   6.582   3.487  0.6194  0.4524 -0.4441
10915TIP3    H154236   2.066   6.570   3.571 -0.0459 -0.6019 -0.2167
10915TIP3    H254237   1.929   6.566   3.507  0.5982 -0.9997 -1.5971
10916TIP3   OH254238   3.413   2.400   0.411  0.5488  0.6045  0.3168
10916TIP3    H154239   3.330   2.448   0.414  0.3549  0.3210 -0.2254
10916TIP3    H254240   3.388   2.310   0.389  0.9223  0.2872  1.1291
10917TIP3   OH254241   4.963   0.488   2.983  0.5406 -0.6730 -0.5379
10917TIP3    H154242   4.878   0.443   2.976  0.7645 -1.0524 -0.8259
10917TIP3    H254243   4.956   0.537   3.066  0.2879 -1.2310 -0.2192
10918TIP3   OH254244   2.108   4.382  16.549 -0.2201 -0.3379 -0.1487
10918TIP3    H154245   2.040   4.371  16.483 -0.1848 -0.2719 -0.1978
10918TIP3    H254246   2.158   4.458  16.519 -0.2959 -0.2139  0.0340
10919TIP3   OH254247   5.442   4.898   1.502 -0.1298  0.2183  0.0780
10919TIP3    H154248   5.495   4.818   1.500 -1.3511 -0.6235  0.0148
10919TIP3    H254249   5.423   4.911   1.595  0.1728  0.5061  0.0987
10920TIP3   OH254250   1.317   1.445   3.916  0.5571  0.0306  0.1323
10920TIP3    H154251   1.326   1.524   3.863  0.7121  0.6722  1.0812
10920TIP3    H254252   1.248   1.395   3.874 -0.2526  1.1575  0.0766
10921TIP3   OH254253   0.545   4.326   5.121 -0.2369 -0.2355 -0.7411
10921TIP3    H154254   0.622   4.283   5.158 -1.4809 -0.2530  2.0743
10921TIP3    H254255   0.539   4.409   5.167 -0.8808  0.6047 -2.2638
10922TIP3   OH254256   2.288   3.037   2.524 -0.2445  0.4631  0.1024
10922TIP3    H154257   2.286   3.029   2.429  1.6219  2.9242 -0.2257
10922TIP3    H254258   2.304   3.130   2.541 -0.4385  0.0975  2.8406
10923TIP3   OH254259   3.143   3.819  14.094  0.0047  0.3947  0.2632
10923TIP3    H154260   3.154   3.786  14.183  2.0000  0.5500  0.1159
10923TIP3    H254261   3.067   3.772  14.060  0.0977 -0.7481  1.5595
10924TIP3   OH254262   2.683   0.952  15.182  0.3305  0.3543  0.0489
10924TIP3    H154263   2.673   1.047  15.190  0.3433  0.3210  0.5164
10924TIP3    H254264   2.667   0.919  15.271  1.6920  0.0388  0.2074
10925TIP3   OH254265   3.577   0.570  16.341  0.5189  0.1527 -0.4150
10925TIP3    H154266   3.592   0.592  16.433  0.4853 -0.4883 -0.2467
10925TIP3    H254267   3.665   0.564  16.303  0.5069  1.6432 -0.7403
10926TIP3   OH254268   4.831   2.043   5.116 -0.5529 -0.4409 -0.1402
10926TIP3    H154269   4.838   2.128   5.073 -1.2471  0.8384  2.1100
10926TIP3    H254270   4.918   2.027   5.153 -0.5946 -0.3839 -0.0159
10927TIP3   OH254271   2.802   5.098   5.773  0.1844 -0.2323 -0.0335
10927TIP3    H154272   2.721   5.122   5.819  0.2075  0.8748 -0.5358
10927TIP3    H254273   2.837   5.024   5.823 -0.6038 -0.0661  0.7960
10928TIP3   OH254274   5.456   4.533  12.361 -0.0110 -0.7979  0.2596
10928TIP3    H154275   5.475   4.499  12.274 -1.3670 -2.7929  0.6781
10928TIP3    H254276   5.360   4.532  12.367  0.0323 -0.0002  1.5149
10929TIP3   OH254277   5.041   2.506   5.181  0.7052 -0.5714  0.1509
10929TIP3    H154278   4.995   2.445   5.122 -0.2402 -0.9459  1.2340
10929TIP3    H254279   5.023   2.592   5.145 -1.5443 -0.6497  0.9527
10930TIP3   OH254280   6.039   0.799  14.274 -0.3079 -0.1510  0.2701
10930TIP3    H154281   6.006   0.741  14.206  0.0541 -2.0871  1.6509
10930TIP3    H254282   5.964   0.817  14.330  0.0474 -1.2190  1.1269
10931TIP3   OH254283   4.814   3.814  13.149  0.4071 -0.4765 -0.4315
10931TIP3    H154284   4.892   3.833  13.097  2.9251 -3.2896  1.9784
10931TIP3    H254285   4.824   3.866  13.228 -0.2675 -0.7746 -0.1394
10932TIP3   OH254286   5.084   4.156   0.384  0.2102 -0.2774 -1.0214
10932TIP3    H154287   5.046   4.191   0.464 -0.8596 -0.9982 -1.1944
10932TIP3    H254288   5.163   4.110   0.414 -0.0204 -0.2911 -0.4119
10933TIP3   OH254289   4.646   0.908   1.589  0.3409 -0.0177  0.3413
10933TIP3    H154290   4.730   0.934   1.550  1.0424 -1.3092  0.9219
10933TIP3    H254291   4.625   0.825   1.545 -0.9622  0.5862 -0.2339
10934TIP3   OH254292   3.674   4.132  16.381 -0.2510  0.3594 -0.4665
10934TIP3    H154293   3.766   4.118  16.361 -0.0221 -0.1993  0.8837
10934TIP3    H254294   3.657   4.223  16.356  0.9774  0.8340  0.3837
10935TIP3   OH254295   5.826   5.156  12.356  0.0685 -0.8793 -0.0482
10935TIP3    H154296   5.919   5.133  12.349 -0.0601 -1.4462  0.0582
10935TIP3    H254297   5.788   5.129  12.272  0.1289 -0.0130 -0.3614
10936TIP3   OH254298   6.609   6.212   5.948 -0.5016  0.3987  0.0244
10936TIP3    H154299   6.657   6.213   6.031 -2.5246 -0.6976  1.2961
10936TIP3    H254300   6.592   6.119   5.931 -2.0836  0.7347 -0.3770
10937TIP3   OH254301   6.416   1.382   4.042  0.3875  0.0614 -0.0552
10937TIP3    H154302   6.425   1.315   3.974  1.9576 -0.5747  0.7446
10937TIP3    H254303   6.471   1.454   4.011  1.7086 -0.5213  0.8532
10938TIP3   OH254304   5.601   3.071   3.115  0.0243 -0.5482  0.4346
10938TIP3    H154305   5.660   3.029   3.176  1.3903  1.3284  0.4868
10938TIP3    H254306   5.629   3.040   3.029 -1.2313 -2.3802  0.6398
10939TIP3   OH254307   5.787   4.202   5.540 -0.4607  0.4700 -0.1135
10939TIP3    H154308   5.745   4.173   5.459 -0.3643  1.0263 -0.3730
10939TIP3    H254309   5.783   4.127   5.598  0.6757 -0.3965 -1.1037
10940TIP3   OH254310   5.316   2.958  10.753 -0.5152 -0.5152  0.1439
10940TIP3    H154311   5.336   2.983  10.663 -0.8013 -1.6465 -0.2451
10940TIP3    H254312   5.221   2.948  10.755 -0.5160 -0.4524  0.5854
10941TIP3   OH254313   0.630   3.218   5.087  0.6127  0.0482 -0.2360
10941TIP3    H154314   0.581   3.147   5.045  0.6365 -0.6442  0.8568
10941TIP3    H254315   0.674   3.176   5.161  0.1916  1.2910  0.7642
10942TIP3   OH254316   4.332   0.949   3.189 -0.0722 -0.1255 -0.1326
10942TIP3    H154317   4.387   1.016   3.230 -1.3124  0.8823 -0.0537
10942TIP3    H254318   4.245   0.962   3.227 -1.2686  0.8129 -2.9465
10943TIP3   OH254319   1.990   1.080   5.134 -0.8397  0.7362  0.8719
10943TIP3    H154320   1.929   1.145   5.168 -1.3497  0.8638 -0.2494
10943TIP3    H254321   1.980   1.084   5.039  2.0641  1.8904  0.5236
10944TIP3   OH254322   5.049   1.984  11.150  0.2702 -0.3545 -0.1845
10944TIP3    H154323   5.051   1.989  11.054 -0.5025 -0.2628 -0.2081
10944TIP3    H254324   5.089   2.066  11.179  0.9811 -0.6138 -0.4208
10945TIP3   OH254325   3.335   1.384   0.437  0.4478  0.7001 -0.3955
10945TIP3    H154326   3.281   1.356   0.363  1.3605  0.1721 -0.8864
10945TIP3    H254327   3.301   1.471   0.459  0.7983  1.3345 -2.1268
10946TIP3   OH254328   3.235   2.097   3.254  0.4242  0.1251 -0.0247
10946TIP3    H154329   3.213   2.103   3.347  0.9445  0.8155  0.0614
10946TIP3    H254330   3.313   2.041   3.251  1.0887  1.0278  0.0742
10947TIP3   OH254331   4.934   2.492   2.782  0.2426 -0.1808  0.4682
10947TIP3    H154332   4.957   2.471   2.692 -0.1150  0.8781  0.1140
10947TIP3    H254333   5.018   2.496   2.828  0.4962  0.1340 -0.0161
10948TIP3   OH254334   2.062   0.435   4.527 -0.1176 -0.4116 -0.3879
10948TIP3    H154335   1.991   0.381   4.563 -0.2417 -0.3014 -0.4638
10948TIP3    H254336   2.027   0.525   4.531 -0.1240 -0.3973 -0.7660
10949TIP3   OH254337   5.560   4.894   0.414 -0.4061 -0.4769 -0.0357
10949TIP3    H154338   5.574   4.839   0.337 -0.1049 -2.4904  1.3768
10949TIP3    H254339   5.642   4.940   0.426 -0.1798 -0.7626 -0.4624
10950TIP3   OH254340   2.096   4.206  13.475  0.2169  0.1630 -0.8138
10950TIP3    H154341   2.067   4.166  13.393  1.2832 -1.8884 -0.2392
10950TIP3    H254342   2.015   4.221  13.524 -0.3062 -0.1338 -1.5661
10951TIP3   OH254343   1.974   1.175  15.943  0.0037  0.2740  0.0855
10951TIP3    H154344   2.031   1.202  15.871 -0.9338 -0.0179 -0.7867
10951TIP3    H254345   1.957   1.256  15.991  0.4969  0.5026 -0.1088
10952TIP3   OH254346   3.515   0.395  14.218  0.0017  0.2494 -0.2281
10952TIP3    H154347   3.526   0.490  14.214  0.8669  0.2155  0.9329
10952TIP3    H254348   3.599   0.360  14.187 -0.6202 -0.1637 -1.5222
10953TIP3   OH254349   1.717   5.076  15.313 -0.0822 -0.5933  0.5736
10953TIP3    H154350   1.643   5.129  15.342  1.3471  2.6532 -1.1504
10953TIP3    H254351   1.789   5.099  15.373  0.2918 -1.4342  0.4610
10954TIP3   OH254352   0.840   5.128  15.302 -0.0389  0.2372  0.1876
10954TIP3    H154353   0.828   5.074  15.224  0.8714 -1.4293  1.1523
10954TIP3    H254354   0.927   5.105  15.335  0.6175  2.6979  0.3795
10955TIP3   OH254355   1.060   5.226  14.221  0.2375  0.7749 -0.3096
10955TIP3    H154356   0.980   5.222  14.273  0.4594  1.1991  0.0626
10955TIP3    H254357   1.117   5.287  14.268  0.3780  1.2887 -1.1281
10956TIP3   OH254358   1.387   2.771  11.123 -0.6982 -0.0786 -0.2426
10956TIP3    H154359   1.419   2.753  11.212 -1.8547  0.1552  0.2373
10956TIP3    H254360   1.400   2.689  11.076  1.1706  0.1790 -0.2652
10957TIP3   OH254361   5.835   1.579  12.800  0.4179 -0.2637  0.0299
10957TIP3    H154362   5.749   1.620  12.793  0.1655 -0.8549 -0.3743
10957TIP3    H254363   5.870   1.611  12.884 -1.5200 -2.4568  1.7933
10958TIP3   OH254364   5.655   3.239  11.430  0.2616 -0.0974 -0.5345
10958TIP3    H154365   5.674   3.210  11.519  0.1877  0.6367 -0.2706
10958TIP3    H254366   5.605   3.168  11.391 -2.5710  0.8653  1.0830
10959TIP3   OH254367   1.444   5.003  10.967 -0.5713  0.1961 -0.3618
10959TIP3    H154368   1.394   5.035  11.042  0.6348  0.5972  0.3096
10959TIP3    H254369   1.469   5.083  10.920 -0.9912 -0.0319 -0.9726
10960TIP3   OH254370   3.508   1.388  13.425  0.5101 -0.2051 -0.1099
10960TIP3    H154371   3.544   1.467  13.465  1.1580  0.0815 -1.2198
10960TIP3    H254372   3.434   1.364  13.482 -0.1733  1.6277 -0.1476
10961TIP3   OH254373   1.709   6.474   0.092 -0.0516  0.1846  0.2721
10961TIP3    H154374   1.795   6.446   0.059 -0.2549  0.9515 -1.0031
10961TIP3    H254375   1.662   6.393   0.109 -0.0723 -0.2899 -1.7995
10962TIP3   OH254376   0.223   1.287   3.427  0.0010  0.5647  0.0015
10962TIP3    H154377   0.236   1.203   3.383  0.3252  0.7045 -0.1744
10962TIP3    H254378   0.141   1.321   3.390 -0.3479  0.1439  0.3702
10963TIP3   OH254379   2.012   2.914  12.525  0.1601 -0.1658  0.0880
10963TIP3    H154380   2.090   2.931  12.473  1.3697 -1.5772  1.3467
10963TIP3    H254381   1.997   2.995  12.574  2.8825 -0.8851  2.3420
10964TIP3   OH254382   5.984   6.282   5.739  0.0839  0.0889 -0.0748
10964TIP3    H154383   5.938   6.311   5.660  1.8121 -0.9802 -1.5540
10964TIP3    H254384   5.967   6.188   5.744 -1.6183  0.4249  2.0150
10965TIP3   OH254385   5.983   0.106   0.801 -0.2379 -0.3366  0.4739
10965TIP3    H154386   5.964   0.170   0.732  3.1002 -2.5598 -2.9013
10965TIP3    H254387   6.056   0.144   0.849 -1.4979  0.4734  1.8288
10966TIP3   OH254388   6.642   6.106   3.900  0.3701  0.1702  0.1592
10966TIP3    H154389   6.691   6.179   3.862 -2.2026  0.1449 -3.7909
10966TIP3    H254390   6.552   6.121   3.872 -0.9552 -2.6067  2.4351
10967TIP3   OH254391   4.192   1.146   3.997  0.1354 -0.1684  0.0802
10967TIP3    H154392   4.127   1.217   4.008  0.3602  0.0803 -0.1735
10967TIP3    H254393   4.139   1.067   3.990 -0.1147 -0.0412  0.5065
10968TIP3   OH254394   0.280   3.940   1.623  0.0286  0.0671  0.2633
10968TIP3    H154395   0.365   3.900   1.603 -1.1751 -2.7865  0.2602
10968TIP3    H254396   0.259   3.910   1.711 -1.1573  0.3549  0.1045
10969TIP3   OH254397   3.240   3.351   2.721  0.0003  0.1017  0.3117
10969TIP3    H154398   3.154   3.350   2.764  0.2933 -2.0671  0.9566
10969TIP3    H254399   3.220   3.373   2.629 -1.9688 -4.8189 -0.7438
10970TIP3   OH254400   6.687   6.653   3.655 -0.4778  0.1591 -0.2512
10970TIP3    H154401   6.766   6.632   3.605 -0.4173 -0.0218 -0.0787
10970TIP3    H254402   6.641   6.570   3.662 -0.8958  0.3422 -0.7178
10971TIP3   OH254403   1.985   6.082   5.714  0.3451 -0.3701 -0.2194
10971TIP3    H154404   2.012   6.098   5.804  0.7028  2.6597 -0.7522
10971TIP3    H254405   1.895   6.050   5.721  0.6496 -0.9423  1.2327
10972TIP3   OH254406   4.679   2.527  13.091 -0.2682 -0.2766 -0.1560
10972TIP3    H154407   4.754   2.491  13.044 -0.6078 -1.7871  0.3787
10972TIP3    H254408   4.690   2.495  13.181 -2.1767 -1.6596 -0.3382
10973TIP3   OH254409   2.858   2.187  12.263 -0.2876  0.4173 -0.4842
10973TIP3    H154410   2.906   2.150  12.337  0.2460 -0.8019 -1.4064
10973TIP3    H254411   2.920   2.183  12.190 -1.2517  0.3386 -1.3176
10974TIP3   OH254412   1.824   6.485  11.005 -0.6685 -0.6565  1.1652
10974TIP3    H154413   1.730   6.470  11.011 -0.7592 -0.8296 -0.3666
10974TIP3    H254414   1.842   6.491  10.911  0.6835  0.4614  1.4531
10975TIP3   OH254415   2.630   4.300  11.182  0.7691  0.6489 -0.3057
10975TIP3    H154416   2.644   4.378  11.129  1.6752  0.1252 -0.8579
10975TIP3    H254417   2.626   4.332  11.272 -2.4604  1.7783 -0.7171
10976TIP3   OH254418   3.715   0.177   0.226  0.4491 -0.0801  0.0188
10976TIP3    H154419   3.703   0.219   0.140  0.2507  2.2178  1.0776
10976TIP3    H254420   3.805   0.197   0.249  0.1263  0.4611  0.8657
10977TIP3   OH254421   3.506   6.621  16.423  1.0558  0.0928  0.1838
10977TIP3    H154422   3.466   6.649  16.341  3.3103 -0.6737 -1.2642
10977TIP3    H254423   3.489   6.527  16.428  1.3545  0.0451  0.3375
10978TIP3   OH254424   5.565   3.196  15.525 -0.1862 -0.0672  0.1400
10978TIP3    H154425   5.637   3.143  15.491 -1.1376  0.7458 -3.7261
10978TIP3    H254426   5.486   3.144  15.507 -0.8628  1.1078 -0.4909
10979TIP3   OH254427   5.582   4.580   4.767  1.1773 -0.4233 -0.0456
10979TIP3    H154428   5.656   4.570   4.707  1.1427 -4.4798  0.3399
10979TIP3    H254429   5.505   4.572   4.710  1.0742  0.1082  0.0169
10980TIP3   OH254430   6.103   4.450   2.462 -0.4117  0.2423 -0.0186
10980TIP3    H154431   6.018   4.495   2.466  0.2932  1.5807  1.2948
10980TIP3    H254432   6.153   4.488   2.535  1.1518 -0.8569 -0.4657
10981TIP3   OH254433   4.363   3.101  16.743 -0.4318 -0.6905 -0.2185
10981TIP3    H154434   4.448   3.107  16.788  0.5309 -0.8178 -1.9064
10981TIP3    H254435   4.301   3.080  16.812  0.8911 -0.4807  1.1017
10982TIP3   OH254436   0.981   5.571  12.046  0.5263 -0.9696  0.2672
10982TIP3    H154437   0.948   5.502  11.989  1.2401 -1.6520  0.6583
10982TIP3    H254438   0.980   5.650  11.992 -0.7587 -1.1737 -0.0318
10983TIP3   OH254439   5.570   0.261   4.675 -0.5466  0.0427 -0.5262
10983TIP3    H154440   5.504   0.194   4.687  0.3934 -0.6188  1.2220
10983TIP3    H254441   5.639   0.217   4.623 -0.6161  0.1411 -0.7027
10984TIP3   OH254442   5.201   6.474  15.903 -0.5733 -0.2080 -0.1893
10984TIP3    H154443   5.181   6.568  15.901 -0.6629 -0.1515  1.4983
10984TIP3    H254444   5.296   6.470  15.917 -0.5876 -0.3586 -0.1293
10985TIP3   OH254445   1.867   1.573   1.312 -0.1176  0.4778  0.2362
10985TIP3    H154446   1.780   1.604   1.336  1.7794  4.5007  3.3521
10985TIP3    H254447   1.894   1.630   1.240 -0.2377 -1.2310 -1.2126
10986TIP3   OH254448   3.886   0.939  16.313 -0.0758 -0.0864 -0.4855
10986TIP3    H154449   3.909   0.928  16.406 -0.8952  0.1358 -0.2505
10986TIP3    H254450   3.869   0.851  16.282 -0.4086 -0.1041 -0.2587
10987TIP3   OH254451   3.316   0.250   4.558 -0.2975  0.1046  0.6523
10987TIP3    H154452   3.274   0.181   4.506  1.3032 -0.4432  0.0060
10987TIP3    H254453   3.344   0.206   4.638 -0.0599  0.2202  0.6330
10988TIP3   OH254454   2.397   5.173   0.585 -0.0202 -0.2717 -0.2662
10988TIP3    H154455   2.350   5.246   0.625  0.8394  1.2894 -1.9372
10988TIP3    H254456   2.445   5.133   0.656 -0.7540  0.6119  0.7592
10989TIP3   OH254457   3.744   4.949   5.144 -1.0637 -0.2576  0.2272
10989TIP3    H154458   3.652   4.961   5.123 -1.1165 -0.2414  0.4751
10989TIP3    H254459   3.754   4.855   5.155 -1.0461 -0.2605  0.1893
10990TIP3   OH254460   1.891   6.703   5.320  0.1020 -0.5465 -0.5532
10990TIP3    H154461   1.820   6.697   5.383  0.0353 -1.9798 -0.7220
10990TIP3    H254462   1.851   6.739   5.241 -0.3117 -0.8010 -0.4637
10991TIP3   OH254463   1.337   6.576   2.570 -0.4580  0.4040  0.9124
10991TIP3    H154464   1.304   6.612   2.488  0.9955 -0.9208 -0.3220
10991TIP3    H254465   1.362   6.653   2.622 -0.0054  1.2485 -0.5114
10992TIP3   OH254466   1.395   0.450   4.798  0.4835 -0.3718 -0.3741
10992TIP3    H154467   1.369   0.385   4.732 -0.2582 -0.0579 -0.4044
10992TIP3    H254468   1.354   0.531   4.768  0.7077 -0.0790  0.1144
10993TIP3   OH254469   1.380   6.012   6.080  0.4729 -0.3209  1.1046
10993TIP3    H154470   1.451   5.975   6.132  1.0927 -0.3423  0.2631
10993TIP3    H254471   1.301   5.966   6.110  1.4180 -3.8303 -1.2033
10994TIP3   OH254472   4.488   6.382  11.310  0.3288  0.0503  0.0226
10994TIP3    H154473   4.457   6.366  11.399  0.0720  0.4168  0.0031
10994TIP3    H254474   4.571   6.335  11.304  1.0941  1.2156  0.9460
10995TIP3   OH254475   5.612   2.280  13.689  0.2715 -0.2251  0.1091
10995TIP3    H154476   5.644   2.249  13.773 -1.9127 -1.0171  0.7210
10995TIP3    H254477   5.634   2.373  13.687  1.3132 -0.4319  1.0578
10996TIP3   OH254478   1.549   2.122  15.812  0.5632  0.2098 -0.2859
10996TIP3    H154479   1.633   2.124  15.858 -0.3564 -0.1972  1.5162
10996TIP3    H254480   1.555   2.194  15.749  1.4559  1.6098  1.3053
10997TIP3   OH254481   1.393   6.123  11.725  0.2053 -0.9548 -0.0762
10997TIP3    H154482   1.380   6.042  11.676 -0.4715 -0.3513 -0.9222
10997TIP3    H254483   1.305   6.149  11.751  0.5871 -1.5498  1.9733
10998TIP3   OH254484   2.738   1.084  13.375 -1.0241  0.4946  0.3697
10998TIP3    H154485   2.687   1.071  13.296 -0.2196 -0.8461  0.0435
10998TIP3    H254486   2.828   1.065  13.349 -0.6390  0.7957  1.4207
10999TIP3   OH254487   0.568   1.924   5.240 -0.3767  0.2677  0.8825
10999TIP3    H154488   0.575   2.018   5.258  0.9943  0.2409  0.5609
10999TIP3    H254489   0.588   1.916   5.147 -1.1858 -0.2878  0.7439
11000TIP3   OH254490   5.575   2.893   2.449 -0.0527  0.4505  0.4281
11000TIP3    H154491   5.615   2.940   2.375  0.3031  0.1597  0.4342
11000TIP3    H254492   5.628   2.814   2.459  0.3975  0.8863  1.5222
11001TIP3   OH254493   5.242   2.004  15.802  0.0588  0.1792 -0.2134
11001TIP3    H154494   5.215   2.041  15.718 -1.7516 -0.0308  0.2361
11001TIP3    H254495   5.255   2.080  15.859 -1.9748  0.2520  0.2221
11002TIP3   OH254496   1.275   4.556  10.752  0.0830 -0.0715  0.5248
11002TIP3    H154497   1.195   4.585  10.708  0.0121 -0.7763  0.1784
11002TIP3    H254498   1.344   4.570  10.687  0.0026 -0.9539  0.2337
11003TIP3   OH254499   3.219   1.432   5.311 -0.1769 -0.0407  0.8518
11003TIP3    H154500   3.124   1.428   5.320 -0.3817 -1.2477 -1.2238
11003TIP3    H254501   3.250   1.466   5.395 -2.3400 -0.8647  2.0546
11004TIP3   OH254502   3.273   4.351  16.845 -0.2082  0.6080  0.2135
11004TIP3    H154503   3.284   4.360  16.939 -0.0535 -0.7628  0.3517
11004TIP3    H254504   3.226   4.269  16.834  0.0860  0.5740 -0.9204
11005TIP3   OH254505   3.655   0.726   1.241 -0.3400  0.3875 -0.0410
11005TIP3    H154506   3.711   0.756   1.169  0.4560  2.0300  1.2104
11005TIP3    H254507   3.613   0.647   1.206  0.5385  0.7287 -2.0531
11006TIP3   OH254508   1.899   4.851  13.750 -0.2489  0.0073 -0.0009
11006TIP3    H154509   1.837   4.887  13.686  0.2170  0.5504 -0.1528
11006TIP3    H254510   1.907   4.758  13.727 -1.3890 -0.1908  0.3362
11007TIP3   OH254511   5.049   0.024   2.168  0.1874  0.5436  0.5153
11007TIP3    H154512   5.093   0.094   2.217 -0.3723  1.4424 -0.2341
11007TIP3    H254513   5.091  -0.057   2.199  1.1278  1.2340  1.1041
11008TIP3   OH254514   4.029   1.905  12.774  0.7660 -0.5751 -0.0120
11008TIP3    H154515   4.064   1.942  12.693  0.2846 -0.6705 -0.2658
11008TIP3    H254516   4.038   1.810  12.763  0.6184 -0.5916  0.0094
11009TIP3   OH254517   3.909   4.279   4.034 -0.5904 -0.4374  0.3820
11009TIP3    H154518   3.923   4.281   3.939 -1.3621  0.0391  0.2652
11009TIP3    H254519   3.985   4.324   4.071 -2.2282  3.2741 -0.3031
11010TIP3   OH254520   6.693   3.144  12.791  0.4537 -0.8600 -0.1265
11010TIP3    H154521   6.773   3.176  12.749 -1.2895  2.7918 -1.1001
11010TIP3    H254522   6.715   3.140  12.884  1.5411  1.1688 -0.2369
11011TIP3   OH254523   5.104   1.487  13.455  0.1918 -0.5680  0.1843
11011TIP3    H154524   5.186   1.510  13.500 -0.4365  1.5869  0.3252
11011TIP3    H254525   5.036   1.503  13.520 -0.3856 -2.4069  0.0872
11012TIP3   OH254526   0.102   3.296   3.435  0.5669 -0.5684 -0.2890
11012TIP3    H154527   0.061   3.251   3.509 -1.3255  2.4713  0.7274
11012TIP3    H254528   0.060   3.258   3.358 -0.9565 -0.5934  0.5095
11013TIP3   OH254529   3.166   3.872  12.640 -0.3785 -0.5009 -0.0841
11013TIP3    H154530   3.258   3.850  12.624 -0.5667 -1.6985  0.3437
11013TIP3    H254531   3.149   3.949  12.586  1.0113  0.0409  0.2272
11014TIP3   OH254532   2.218   5.501   4.610 -0.0498  0.0966 -0.1806
11014TIP3    H154533   2.175   5.416   4.608 -0.9527  0.4576  2.0021
11014TIP3    H254534   2.287   5.492   4.675 -0.3697  1.1206  0.3197
11015TIP3   OH254535   1.949   5.736  10.979 -0.0297 -0.4116  0.0052
11015TIP3    H154536   1.869   5.788  10.979  0.6673  0.6756  0.1714
11015TIP3    H254537   1.918   5.645  10.980 -1.3300 -0.1227  3.7394
11016TIP3   OH254538   3.339   1.041   4.019  0.2062  0.1497 -0.1576
11016TIP3    H154539   3.392   1.032   3.940 -0.3854 -2.0777 -0.3436
11016TIP3    H254540   3.364   1.127   4.054  1.4580  0.6073 -2.0160
11017TIP3   OH254541   6.212   2.127   0.218  0.1777  0.4944  0.0137
11017TIP3    H154542   6.162   2.061   0.170 -1.3369  0.6748  1.2923
11017TIP3    H254543   6.289   2.081   0.250 -0.0101 -0.2116 -0.5371
11018TIP3   OH254544   0.913   4.481   0.247  0.2745  0.3114 -0.4096
11018TIP3    H154545   0.916   4.560   0.193  1.9294  1.2159  0.9016
11018TIP3    H254546   0.989   4.429   0.219 -2.2200 -2.2789 -3.1646
11019TIP3   OH254547   4.190   2.112  14.102  0.7127  0.5224  0.2620
11019TIP3    H154548   4.194   2.046  14.033 -0.3811  0.0473  0.6248
11019TIP3    H254549   4.136   2.072  14.170  1.0909  1.3044  1.0324
11020TIP3   OH254550   5.876   1.999  16.665  0.3728  0.5289  0.3987
11020TIP3    H154551   5.850   1.912  16.636  3.3300 -0.7481  1.1832
11020TIP3    H254552   5.885   2.049  16.584 -0.3359 -0.1971 -0.1448
11021TIP3   OH254553   1.641   4.194  15.679  0.8216  0.0702 -0.3041
11021TIP3    H154554   1.546   4.210  15.683  0.7975  0.0895 -0.9150
11021TIP3    H254555   1.676   4.271  15.635  1.0950 -0.0462 -0.2900
11022TIP3   OH254556   6.325   6.132  13.498 -0.5078  0.3842  0.0025
11022TIP3    H154557   6.417   6.136  13.523 -0.5151 -0.1469  0.1407
11022TIP3    H254558   6.306   6.038  13.492 -0.5662  0.4887 -1.8285
11023TIP3   OH254559   2.970   5.059  15.381  0.4788  0.6963 -0.4023
11023TIP3    H154560   2.881   5.034  15.356  0.0660  0.7758  0.8845
11023TIP3    H254561   3.021   4.979  15.372  0.0909  0.4436 -0.3615
11024TIP3   OH254562   6.123   0.967   3.159  0.2887 -0.6055  0.2614
11024TIP3    H154563   6.074   0.998   3.235  1.3169  0.7044  0.4132
11024TIP3    H254564   6.214   0.971   3.186  0.7613  0.9772 -1.4073
11025TIP3   OH254565   2.290   1.897  14.514  0.3861  0.9587 -0.2228
11025TIP3    H154566   2.347   1.821  14.503  1.7334  1.7189  1.0835
11025TIP3    H254567   2.252   1.913  14.427 -0.9428 -1.9238 -0.2850
11026TIP3   OH254568   5.027   3.332   3.272 -0.0758  0.6394 -0.1129
11026TIP3    H154569   5.068   3.419   3.269  1.5596 -0.1209 -0.8025
11026TIP3    H254570   5.052   3.291   3.190 -1.6782 -0.1520 -0.2387
11027TIP3   OH254571   1.895   2.395   6.272 -0.0796 -0.6127  0.0836
11027TIP3    H154572   1.869   2.486   6.255 -1.7486 -0.9577  0.6439
11027TIP3    H254573   1.890   2.387   6.368 -1.1280 -1.6170 -0.0413
11028TIP3   OH254574   1.464   0.414   3.889 -0.5530  0.2778  0.0011
11028TIP3    H154575   1.427   0.501   3.906  0.5289  0.5266  1.2512
11028TIP3    H254576   1.511   0.424   3.807 -1.0137  0.6799 -0.2230
11029TIP3   OH254577   5.416   6.269   1.897  0.4060  0.0031  0.7890
11029TIP3    H154578   5.493   6.214   1.908  0.0718 -0.5958  0.2046
11029TIP3    H254579   5.449   6.352   1.862  0.5514 -1.1096 -1.8918
11030TIP3   OH254580   3.331   1.873  16.576 -0.3263  0.0171 -0.0032
11030TIP3    H154581   3.335   1.779  16.560  1.0467 -0.0740  0.7001
11030TIP3    H254582   3.321   1.912  16.489  0.1420 -0.7327 -0.3995
11031TIP3   OH254583   2.855   2.319   3.932  0.7543  0.2069  0.5728
11031TIP3    H154584   2.884   2.345   4.020 -0.4471 -0.0862  1.0778
11031TIP3    H254585   2.783   2.258   3.948 -1.2474  2.1436 -0.5866
11032TIP3   OH254586   4.468   3.328  15.065 -0.0817 -0.1404 -0.4195
11032TIP3    H154587   4.464   3.235  15.043  0.3784 -0.0644 -0.8501
11032TIP3    H254588   4.438   3.372  14.985 -2.1618  0.0415  0.3889
11033TIP3   OH254589   4.493   0.994  15.670  0.1144  0.0313 -0.5397
11033TIP3    H154590   4.472   1.086  15.680 -1.5180 -0.4645  0.9513
11033TIP3    H254591   4.583   0.994  15.635  0.1970  2.1459 -0.4604
11034TIP3   OH254592   3.181   1.817  13.518  0.3777 -0.3201 -0.3927
11034TIP3    H154593   3.109   1.764  13.551  0.9480 -0.4641  0.6875
11034TIP3    H254594   3.182   1.801  13.424  1.2881 -3.2398  0.0043
11035TIP3   OH254595   3.994   2.718  15.309 -0.1396  0.3827  0.6914
11035TIP3    H154596   3.955   2.679  15.231 -1.6023  2.5432  0.2483
11035TIP3    H254597   4.074   2.667  15.325 -0.4044 -0.8228 -1.5200
11036TIP3   OH254598   5.231   1.946  13.237  0.1696 -0.0342  0.8581
11036TIP3    H154599   5.292   1.880  13.269  0.8243  0.3420  0.4191
11036TIP3    H254600   5.177   1.900  13.173 -0.8436 -0.6735  2.1353
11037TIP3   OH254601   5.591   4.449   1.764  0.2867 -0.2869 -0.3966
11037TIP3    H154602   5.679   4.486   1.756  0.0911  0.5448  0.9821
11037TIP3    H254603   5.591   4.405   1.849 -1.0119  0.8607  0.2270
11038TIP3   OH254604   5.130   6.668  11.537 -0.7318 -0.0666 -0.4886
11038TIP3    H154605   5.060   6.701  11.482  0.1775  4.2590  0.5789
11038TIP3    H254606   5.108   6.698  11.625  1.6031  0.0029  0.1527
11039TIP3   OH254607   6.706   2.750  11.267 -0.4568 -0.1431  0.3065
11039TIP3    H154608   6.751   2.678  11.223  0.9001  0.8812 -0.0561
11039TIP3    H254609   6.712   2.730  11.360 -0.7602 -0.8620  0.1744
11040TIP3   OH254610   1.100   4.406   2.484 -0.1190 -0.4657  0.0210
11040TIP3    H154611   1.041   4.453   2.425  0.4008  0.4947  0.2478
11040TIP3    H254612   1.042   4.367   2.550 -0.5747 -0.3060 -0.2851
11041TIP3   OH254613   3.828   4.574  11.561 -0.6800  0.2801  0.2174
11041TIP3    H154614   3.765   4.639  11.531 -0.9809  1.9532  3.8765
11041TIP3    H254615   3.895   4.625  11.608  0.4148 -1.8591  1.1384
11042TIP3   OH254616   1.211   4.839   1.197  0.5842  0.0051 -0.2283
11042TIP3    H154617   1.143   4.771   1.201  0.9754 -0.3776  0.0121
11042TIP3    H254618   1.162   4.921   1.188  0.0967 -0.2856 -0.2864
11043TIP3   OH254619   6.295   0.586   1.374  0.0205  0.3061 -0.0652
11043TIP3    H154620   6.302   0.658   1.437 -0.9439  0.1995  0.1805
11043TIP3    H254621   6.202   0.580   1.354 -0.1564 -1.8259  1.0832
11044TIP3   OH254622   1.078   1.766  16.421  0.0796 -0.3059  0.6356
11044TIP3    H154623   1.053   1.676  16.441 -0.6989  0.0513  1.3074
11044TIP3    H254624   1.006   1.819  16.454  1.1862  0.6779  1.5485
11045TIP3   OH254625   2.972   6.525  14.003 -0.6506 -0.7228  0.1849
11045TIP3    H154626   3.049   6.578  14.021 -0.5875 -0.8604  0.3199
11045TIP3    H254627   2.909   6.550  14.070 -0.8910 -0.2771 -0.1979
11046TIP3   OH254628   1.208   3.844   5.274 -0.1253 -0.1116 -0.5340
11046TIP3    H154629   1.215   3.900   5.351 -1.1112  0.4406 -0.8313
11046TIP3    H254630   1.293   3.852   5.231  0.5496 -0.6802  0.6441
11047TIP3   OH254631   0.850   4.549   3.971 -0.2672  0.3005  0.2495
11047TIP3    H154632   0.897   4.497   4.036  1.0406  1.5656  0.3586
11047TIP3    H254633   0.777   4.588   4.020 -0.1755  0.0458  0.5920
11048TIP3   OH254634   2.627   2.147   3.043 -0.1331  0.2528 -0.2436
11048TIP3    H154635   2.634   2.053   3.023  0.4342  0.1402  0.4465
11048TIP3    H254636   2.715   2.181   3.029  0.0926  0.3303  1.1694
11049TIP3   OH254637   1.796   3.265  15.928  0.2581 -0.0615  0.2997
11049TIP3    H154638   1.730   3.227  15.869  0.2012  0.2210  0.1821
11049TIP3    H254639   1.767   3.238  16.015 -0.5079  0.7821  0.3240
11050TIP3   OH254640   0.941   4.659   1.190  0.2097 -0.2400 -0.0210
11050TIP3    H154641   0.892   4.658   1.272 -0.1554  1.1817 -0.1816
11050TIP3    H254642   0.951   4.567   1.166 -0.7508 -0.6280  0.9832
11051TIP3   OH254643   0.289   2.649   4.537  0.1261  0.2746  0.5627
11051TIP3    H154644   0.321   2.635   4.626 -0.6291  0.5893  0.8899
11051TIP3    H254645   0.210   2.702   4.547 -0.9692 -1.1513 -0.1651
11052TIP3   OH254646   1.643   1.667  12.670  0.0588 -0.0623 -0.1776
11052TIP3    H154647   1.729   1.697  12.701  0.3082 -0.1875 -0.7210
11052TIP3    H254648   1.652   1.667  12.574  0.0676 -1.8193 -0.2039
11053TIP3   OH254649   4.037   3.585  16.786 -0.4176  0.0143 -0.1166
11053TIP3    H154650   4.039   3.569  16.880 -1.3588 -0.6559 -0.1929
11053TIP3    H254651   4.067   3.503  16.747  0.7875  0.5677 -0.3950
11054TIP3   OH254652   0.287   1.039   4.670 -0.1898 -0.1089  0.4057
11054TIP3    H154653   0.205   1.062   4.627  0.0687  0.3619  0.1627
11054TIP3    H254654   0.354   1.052   4.602  0.5399  2.9744  1.5762
11055TIP3   OH254655   0.460   1.065   4.456  0.2843  0.2531 -0.0097
11055TIP3    H154656   0.552   1.039   4.461 -0.0873 -0.9731  0.7461
11055TIP3    H254657   0.420   1.004   4.394 -0.1027  0.5205 -0.0306
11056TIP3   OH254658   4.256   1.290   5.233  0.4234  0.3607  0.6473
11056TIP3    H154659   4.312   1.355   5.275  0.3933 -0.7684  2.5612
11056TIP3    H254660   4.167   1.312   5.262  0.2931  0.0476  0.4971
11057TIP3   OH254661   1.921   5.679  14.223 -0.7871 -0.1765  0.1616
11057TIP3    H154662   1.964   5.652  14.142  0.6141 -0.6467  1.0353
11057TIP3    H254663   1.843   5.623  14.229 -1.0966  0.1091 -1.0244
11058TIP3   OH254664   0.303   1.503  17.008  0.8036 -0.6983 -0.4952
11058TIP3    H154665   0.227   1.543  17.051 -0.6025 -3.6193  0.0007
11058TIP3    H254666   0.378   1.552  17.042 -0.7479  1.8822 -0.4844
11059TIP3   OH254667   1.215   6.619  14.103 -0.5903  0.1189  0.1642
11059TIP3    H154668   1.285   6.564  14.067 -0.8235  0.0970 -0.2618
11059TIP3    H254669   1.227   6.614  14.198 -0.3704 -0.3524  0.1147
11060TIP3   OH254670   1.388   3.358   5.004 -0.2310 -0.1731  0.0177
11060TIP3    H154671   1.295   3.335   4.996 -0.0755 -0.6409 -0.5233
11060TIP3    H254672   1.430   3.278   5.034  0.0176  0.0147  0.1770
11061TIP3   OH254673   5.598   5.587  11.438 -0.2531  0.5291  0.1129
11061TIP3    H154674   5.662   5.606  11.369  1.6069  0.2456  1.6730
11061TIP3    H254675   5.629   5.507  11.479 -2.3455 -0.3221  0.1575
11062TIP3   OH254676   4.902   0.993   1.501 -0.0541 -0.0359  0.2304
11062TIP3    H154677   4.849   1.047   1.442  2.7625  0.0472 -2.4360
11062TIP3    H254678   4.961   1.055   1.544  1.1924 -0.6127 -0.6046
11063TIP3   OH254679   3.797   2.347  13.980  0.2170  0.4766  0.2176
11063TIP3    H154680   3.849   2.296  13.918  0.2106  0.3170  0.3438
11063TIP3    H254681   3.758   2.417  13.927 -0.0046  0.1850 -0.0069
11064TIP3   OH254682   1.261   4.576  13.589 -0.2656  0.1618 -0.5470
11064TIP3    H154683   1.344   4.529  13.591 -0.3699 -0.0186 -0.3954
11064TIP3    H254684   1.219   4.554  13.672 -0.7068 -0.1996 -0.8602
11065TIP3   OH254685   6.113   3.514   5.860 -0.0885 -0.4511 -0.1578
11065TIP3    H154686   6.144   3.427   5.885  1.6286  0.4472  0.9756
11065TIP3    H254687   6.192   3.567   5.851 -1.1429  1.2663  0.1998
11066TIP3   OH254688   3.424   5.426   4.690 -0.2132 -0.6380 -0.5191
11066TIP3    H154689   3.424   5.391   4.600 -1.1965  0.8253 -1.1206
11066TIP3    H254690   3.332   5.426   4.715 -0.0863  0.2352 -0.0310
11067TIP3   OH254691   1.885   2.024  12.605  0.1355 -0.4913  0.3774
11067TIP3    H154692   1.941   2.036  12.682 -1.1351  1.1084  1.1171
11067TIP3    H254693   1.829   1.950  12.627  2.7092 -2.9984 -0.9106
11068TIP3   OH254694   5.230   0.956   2.379  0.6751 -0.1595  0.0885
11068TIP3    H154695   5.260   0.867   2.400  0.6814  0.1333  1.3803
11068TIP3    H254696   5.216   0.954   2.284  1.1562 -1.3928  0.0189
11069TIP3   OH254697   6.166   2.048  11.774  0.1978 -0.2633 -0.4014
11069TIP3    H154698   6.159   1.960  11.810  1.0112  0.2045  0.9716
11069TIP3    H254699   6.170   2.105  11.851  1.4480  0.8296 -1.2332
11070TIP3   OH254700   1.036   2.862   4.033 -0.2632  0.0646 -0.3865
11070TIP3    H154701   1.045   2.876   3.938  0.0895 -1.7789 -0.6608
11070TIP3    H254702   1.099   2.793   4.053  1.3817  2.0051  1.6584
11071TIP3   OH254703   6.257   4.240   1.262  0.1940  0.7822  0.8255
11071TIP3    H154704   6.205   4.233   1.182 -0.8530  0.3753  1.5223
11071TIP3    H254705   6.227   4.168   1.317  0.2795  1.5586  1.9292
11072TIP3   OH254706   0.856   1.111   6.632 -0.2191 -0.2141  0.1589
11072TIP3    H154707   0.851   1.109   6.727 -0.5853  0.0015  0.1476
11072TIP3    H254708   0.933   1.164   6.612  0.8896 -1.6801  0.3408
11073TIP3   OH254709   1.357   3.004  14.200 -0.9030  0.0146 -0.3882
11073TIP3    H154710   1.357   2.964  14.113  0.7876  2.6836 -1.7645
11073TIP3    H254711   1.442   2.979  14.237 -1.2826 -0.4567  0.1712
11074TIP3   OH254712   3.168   5.025   0.284  0.0850  0.1443 -0.6715
11074TIP3    H154713   3.214   4.964   0.227  2.2289  0.4042  0.6937
11074TIP3    H254714   3.092   4.975   0.315 -0.6748 -0.2727 -3.0174
11075TIP3   OH254715   0.037   5.752  11.934  0.0527 -0.3147  0.3021
11075TIP3    H154716  -0.056   5.732  11.920  0.5798 -2.1062 -1.0030
11075TIP3    H254717   0.082   5.704  11.865  1.9590  0.7017  0.7777
11076TIP3   OH254718   3.648   6.557   6.078  0.2481 -0.2104 -0.3665
11076TIP3    H154719   3.643   6.470   6.117 -1.6437 -0.7333 -1.6413
11076TIP3    H254720   3.594   6.612   6.135  0.0874 -0.2498 -0.4806
11077TIP3   OH254721   5.387   2.381   1.987 -0.5588  0.2235  0.2634
11077TIP3    H154722   5.405   2.290   1.962  0.9778  0.7642 -0.7899
11077TIP3    H254723   5.296   2.396   1.962 -0.2130 -0.4296 -1.5330
11078TIP3   OH254724   6.017   0.778   4.346 -0.0721 -0.1421 -0.2624
11078TIP3    H154725   6.004   0.708   4.282  0.8586 -0.1087 -0.4989
11078TIP3    H254726   6.058   0.849   4.297  0.9483 -0.2306  0.4306
11079TIP3   OH254727   3.523   1.800   0.575 -0.6190 -0.2284  0.1619
11079TIP3    H154728   3.590   1.737   0.547 -1.5430 -1.2876  0.2737
11079TIP3    H254729   3.558   1.885   0.550  0.2969 -0.8499 -0.7300
11080TIP3   OH254730   0.384   4.819  15.521 -0.5185 -0.3869 -0.2525
11080TIP3    H154731   0.473   4.784  15.531 -0.4684 -0.6757 -1.5427
11080TIP3    H254732   0.396   4.899  15.469 -1.0406 -0.5948 -0.6960
11081TIP3   OH254733   1.934   0.476  12.602  0.2942  0.5266 -0.0467
11081TIP3    H154734   1.958   0.438  12.687 -0.3136 -0.5055 -0.3174
11081TIP3    H254735   2.010   0.529  12.577  1.4680 -1.0246  0.0600
11082TIP3   OH254736   2.086   5.867   4.160  0.1483  0.3853 -0.0093
11082TIP3    H154737   2.153   5.835   4.220 -0.4392  0.6286  0.7950
11082TIP3    H254738   2.127   5.941   4.115  1.3543 -1.1275 -1.5397
11083TIP3   OH254739   0.732   1.310   2.554 -0.0000  0.0369  0.2813
11083TIP3    H154740   0.722   1.301   2.459 -1.2596 -1.9528  0.5473
11083TIP3    H254741   0.648   1.344   2.584  0.5154  1.0024  0.6605
11084TIP3   OH254742   4.738   3.557   6.523 -0.4232 -0.0045 -0.3615
11084TIP3    H154743   4.822   3.529   6.558 -1.0087 -0.8078  0.4759
11084TIP3    H254744   4.747   3.651   6.511  0.8570 -0.1955 -1.0878
11085TIP3   OH254745   5.032   6.805   3.412  0.4289 -0.1767 -0.3284
11085TIP3    H154746   5.073   6.785   3.328 -1.4693  0.5780 -1.4977
11085TIP3    H254747   5.029   6.901   3.415 -0.7435 -0.2081 -0.0604
11086TIP3   OH254748   3.034   3.341   6.842  0.3523  0.5515  0.1358
11086TIP3    H154749   3.005   3.350   6.752 -0.7785  1.6435  0.5741
11086TIP3    H254750   3.130   3.348   6.838  0.4036 -0.5793 -1.0772
11087TIP3   OH254751   2.860   3.531   3.992 -0.8265 -0.3018  0.1673
11087TIP3    H154752   2.926   3.553   4.057 -0.9769 -0.4970  0.3872
11087TIP3    H254753   2.806   3.464   4.034 -0.8798 -0.4824 -0.1851
11088TIP3   OH254754   6.114   4.125  14.358 -0.7499  0.2357 -0.1054
11088TIP3    H154755   6.157   4.137  14.273  0.1477  0.6027  0.3761
11088TIP3    H254756   6.076   4.211  14.378 -1.1686  0.0827 -0.2471
11089TIP3   OH254757   1.298   5.161   2.122 -0.0403 -0.6341 -0.3114
11089TIP3    H154758   1.325   5.247   2.089  1.4641 -1.6650 -1.9327
11089TIP3    H254759   1.379   5.110   2.126 -0.8409 -1.8780  1.0201
11090TIP3   OH254760   2.060   5.489  15.753 -0.0100 -0.2552  0.1106
11090TIP3    H154761   1.966   5.473  15.746  0.0792 -2.9168  2.6251
11090TIP3    H254762   2.067   5.564  15.812 -0.5983 -0.7005  0.7715
11091TIP3   OH254763   2.391   2.578   0.846 -0.1859  0.1929 -0.3404
11091TIP3    H154764   2.321   2.587   0.910 -0.2138  0.1776 -0.3686
11091TIP3    H254765   2.354   2.521   0.779  0.2853 -0.8437  0.2634
11092TIP3   OH254766   2.184   6.131   5.277  0.2586 -0.5501  0.2647
11092TIP3    H154767   2.101   6.105   5.237  0.0454 -0.7952  0.8523
11092TIP3    H254768   2.161   6.157   5.366  0.7627 -0.2747  0.3185
11093TIP3   OH254769   1.554   4.550  12.479 -0.0685  0.2002  0.5671
11093TIP3    H154770   1.541   4.509  12.564 -1.2067  1.1023  0.8526
11093TIP3    H254771   1.526   4.484  12.415  2.4180 -1.1450  0.7445
11094TIP3   OH254772   5.366   2.224  16.367  0.1254  0.0496 -0.0091
11094TIP3    H154773   5.333   2.280  16.297 -1.3745  0.3137  0.8758
11094TIP3    H254774   5.292   2.168  16.390  1.3811 -1.8386 -0.3801
11095TIP3   OH254775   3.238   5.183  13.524  0.1446 -0.3492  0.3105
11095TIP3    H154776   3.242   5.215  13.434  1.7899  0.3870  0.6030
11095TIP3    H254777   3.295   5.243  13.573 -1.1567 -0.3860  1.9675
11096TIP3   OH254778   3.805   6.544   2.622 -0.1374 -0.4255  0.3669
11096TIP3    H154779   3.734   6.567   2.682 -1.3321 -0.5690 -0.9380
11096TIP3    H254780   3.814   6.450   2.631  2.0685 -0.1117  2.7978
11097TIP3   OH254781   4.749   2.293  13.729 -0.7013 -0.1008  0.4155
11097TIP3    H154782   4.757   2.260  13.819 -1.9447  0.8181  0.8945
11097TIP3    H254783   4.711   2.220  13.680  2.0797 -1.4287  0.0603
11098TIP3   OH254784   3.704   6.656  16.936  0.6821 -0.0215 -0.1979
11098TIP3    H154785   3.692   6.617  17.022 -1.2125  0.0640 -0.3895
11098TIP3    H254786   3.628   6.712  16.923  1.1492  0.3231 -1.7507
11099TIP3   OH254787   2.608   3.178  16.062 -0.0167  0.1890 -0.0311
11099TIP3    H154788   2.602   3.113  15.992  0.7022  1.6109 -1.4859
11099TIP3    H254789   2.691   3.158  16.106 -0.3494 -0.5547  0.2697
11100TIP3   OH254790   2.331   2.363   0.704 -0.0134 -0.4306 -0.0756
11100TIP3    H154791   2.403   2.325   0.754  0.3330  0.6120  0.2389
11100TIP3    H254792   2.258   2.303   0.718 -0.2566  0.3545  2.5829
11101TIP3   OH254793   5.367   2.456   4.493 -0.6695 -0.1469 -0.2399
11101TIP3    H154794   5.373   2.393   4.564 -2.3711 -1.2890 -1.0490
11101TIP3    H254795   5.373   2.403   4.413  1.8647  1.1630 -1.0212
11102TIP3   OH254796   3.202   0.225  11.596 -0.1549 -0.2660  0.0431
11102TIP3    H154797   3.218   0.228  11.501 -2.1575  0.5365 -0.3225
11102TIP3    H254798   3.107   0.215  11.604  0.0580 -1.2848  1.9918
11103TIP3   OH254799   0.236   3.328  12.845 -0.4575  1.0332  0.1793
11103TIP3    H154800   0.318   3.313  12.893 -0.3307  2.4822  0.4759
11103TIP3    H254801   0.171   3.276  12.892  0.2843 -0.1735 -0.0869
11104TIP3   OH254802   4.082   3.347  12.872  0.3368 -0.3548  0.0311
11104TIP3    H154803   4.014   3.391  12.922  1.8457  1.3627  0.6742
11104TIP3    H254804   4.051   3.256  12.864 -1.9353  0.3389  0.3632
11105TIP3   OH254805   6.591   4.872  13.360 -0.5468  0.5238  0.0382
11105TIP3    H154806   6.632   4.915  13.285 -1.7937  1.3449 -0.1998
11105TIP3    H254807   6.556   4.790  13.324 -1.8829  1.3008 -0.5114
11106TIP3   OH254808   6.488   5.322  11.468  0.1059 -0.1253  0.6613
11106TIP3    H154809   6.475   5.384  11.396 -0.7666 -0.6503  0.3490
11106TIP3    H254810   6.411   5.334  11.524  0.4259 -0.2272  1.1219
11107TIP3   OH254811   2.718   0.551   6.454 -0.1705  0.1454 -0.0029
11107TIP3    H154812   2.791   0.521   6.509 -0.5989  1.1226  1.1264
11107TIP3    H254813   2.742   0.640   6.429 -1.1089  0.5957  0.6468
11108TIP3   OH254814   6.125   4.506   4.995 -0.0748  0.0882 -0.3121
11108TIP3    H154815   6.034   4.536   5.003 -0.6780 -1.9559  1.3811
11108TIP3    H254816   6.154   4.495   5.086  0.5731 -2.8364 -0.7731
11109TIP3   OH254817   1.932   4.895  13.150 -0.0208  0.5852 -0.2493
11109TIP3    H154818   1.974   4.931  13.229  0.5436  0.3641 -0.4394
11109TIP3    H254819   1.912   4.804  13.173 -0.3449  0.6746 -0.1787
11110TIP3   OH254820   6.465   6.639  15.007 -0.3298 -0.3662 -0.5623
11110TIP3    H154821   6.463   6.560  15.062  0.2879 -0.2097 -0.3065
11110TIP3    H254822   6.459   6.712  15.069  0.4937 -0.1852 -0.6849
11111TIP3   OH254823   3.625   0.088  12.409 -0.1784  0.4896  0.7333
11111TIP3    H154824   3.613   0.180  12.431 -2.0339 -0.2328  3.1410
11111TIP3    H254825   3.553   0.068  12.349  1.0026  0.8519 -0.8823
11112TIP3   OH254826   4.541   2.956  15.500  0.1241  0.2722 -0.0217
11112TIP3    H154827   4.479   2.952  15.427 -0.9957  1.0922  0.8486
11112TIP3    H254828   4.621   2.915  15.466 -0.3679  0.6255 -1.6918
11113TIP3   OH254829   0.857   2.804  11.233  0.2059 -0.1669 -1.0976
11113TIP3    H154830   0.947   2.782  11.212  0.2149 -0.1165 -1.1113
11113TIP3    H254831   0.863   2.881  11.289  0.2491 -1.0096  0.1005
11114TIP3   OH254832   2.422   3.830   4.542  0.0140  0.1692 -0.1254
11114TIP3    H154833   2.388   3.849   4.455  0.7264 -0.1106 -0.4712
11114TIP3    H254834   2.343   3.816   4.596 -0.5126  2.3159 -0.2343
11115TIP3   OH254835   1.847   3.459  13.943  0.2136 -0.2014 -0.0585
11115TIP3    H154836   1.785   3.503  13.884 -1.6398 -1.2544  1.0218
11115TIP3    H254837   1.831   3.498  14.029  2.0098  0.4193  0.0522
11116TIP3   OH254838   4.306   3.754  12.098 -0.1397 -0.3603 -0.4822
11116TIP3    H154839   4.374   3.691  12.072  0.4831 -0.1577  0.6115
11116TIP3    H254840   4.350   3.813  12.159 -2.0896 -2.2458  3.0411
11117TIP3   OH254841   1.244   1.463  15.039 -0.5021 -0.2206 -0.4225
11117TIP3    H154842   1.295   1.430  14.965  1.0382  1.0851  0.0014
11117TIP3    H254843   1.289   1.430  15.117 -0.9478  0.0598 -0.0369
11118TIP3   OH254844   6.607   4.905  14.829  0.2502  0.1927 -0.4598
11118TIP3    H154845   6.687   4.901  14.777  0.3810  1.2830 -0.3668
11118TIP3    H254846   6.635   4.888  14.919  0.2158 -0.4345 -0.5642
11119TIP3   OH254847   5.306   0.339  12.549 -0.1763  0.7485 -0.1099
11119TIP3    H154848   5.263   0.423  12.565  0.2195  1.5794 -2.9574
11119TIP3    H254849   5.242   0.287  12.501  0.3468  0.2355 -0.2682
11120TIP3   OH254850   1.095   2.390  11.797 -0.0919  0.0558 -0.3057
11120TIP3    H154851   1.124   2.314  11.847  0.8388  0.5614 -0.0515
11120TIP3    H254852   1.076   2.356  11.710 -0.2093 -0.5534 -0.0507
11121TIP3   OH254853   5.167   0.903   1.631 -0.1032 -0.2537 -0.1859
11121TIP3    H154854   5.182   0.816   1.594  0.6452 -0.8561  1.4087
11121TIP3    H254855   5.073   0.906   1.649 -0.7300  0.5145 -3.0691
11122TIP3   OH254856   5.604   0.600   0.618  0.1372 -0.0775  0.0497
11122TIP3    H154857   5.659   0.599   0.696  0.2705 -0.4128 -0.0458
11122TIP3    H254858   5.539   0.531   0.632  0.0888 -0.0607 -0.0821
11123TIP3   OH254859   3.988   0.048   1.633 -0.3400  0.7630  0.4836
11123TIP3    H154860   4.031   0.094   1.705 -0.7365  1.0734  0.5256
11123TIP3    H254861   4.049  -0.022   1.609  0.3816  1.4640  0.2438
11124TIP3   OH254862   4.137   4.451  15.437  0.0910  0.2114  0.6749
11124TIP3    H154863   4.225   4.446  15.400 -0.2907 -2.0245 -0.1141
11124TIP3    H254864   4.087   4.502  15.374  0.1254 -1.1893 -0.5480
11125TIP3   OH254865   0.310   1.042   0.396 -0.3909 -0.1415 -0.0374
11125TIP3    H154866   0.277   1.054   0.485 -0.9399 -0.7492 -0.1518
11125TIP3    H254867   0.293   0.950   0.377  1.4587 -0.5323 -0.0636
11126TIP3   OH254868   2.973   2.424  14.689 -0.5031  0.7625  0.2600
11126TIP3    H154869   2.954   2.425  14.595 -0.4346 -0.7286  0.2045
11126TIP3    H254870   2.989   2.516  14.711 -1.6337  1.2876 -0.9433
11127TIP3   OH254871   2.964   2.840  16.603 -0.3471  0.0213 -0.2046
11127TIP3    H154872   2.935   2.749  16.597  0.4831 -0.3983  1.4929
11127TIP3    H254873   3.030   2.840  16.673  0.5970  1.7006 -1.0161
11128TIP3   OH254874   2.930   0.158  14.431  0.9660 -0.1049 -0.9821
11128TIP3    H154875   3.000   0.177  14.494 -0.3554 -2.2593  1.3338
11128TIP3    H254876   2.865   0.226  14.445  0.0132 -1.3662  1.1965
11129TIP3   OH254877   3.413   2.470  10.947 -0.0759 -0.1210 -0.3433
11129TIP3    H154878   3.486   2.440  10.895  0.5756 -0.0293  0.4958
11129TIP3    H254879   3.361   2.391  10.965 -0.7406 -0.0275 -1.7725
11130TIP3   OH254880   1.606   1.804   4.920  1.1501  0.0448 -0.3517
11130TIP3    H154881   1.603   1.898   4.938  1.8088  0.2779 -1.3944
11130TIP3    H254882   1.659   1.768   4.992 -0.0227  0.2921  0.6658
11131TIP3   OH254883   4.992   3.922   5.395  0.2908 -0.8171  0.3461
11131TIP3    H154884   4.981   3.929   5.490 -1.4553 -2.0382  0.2778
11131TIP3    H254885   4.917   3.871   5.366 -1.9284  3.3846 -2.3317
11132TIP3   OH254886   3.529   5.614  15.765  0.1806 -0.0113 -0.2491
11132TIP3    H154887   3.511   5.650  15.852 -0.2684  0.8190 -0.6740
11132TIP3    H254888   3.596   5.547  15.781 -0.6406 -0.6035  0.8707
11133TIP3   OH254889   2.890   2.401  14.427  0.3079  0.2321 -0.5673
11133TIP3    H154890   2.862   2.370  14.342  0.9039  0.7092 -0.9453
11133TIP3    H254891   2.810   2.403  14.480  0.1541 -1.3240 -0.7063
11134TIP3   OH254892   4.687   3.251   2.172 -0.2118 -0.0586  0.3452
11134TIP3    H154893   4.742   3.330   2.178 -0.9728  0.4595  0.7600
11134TIP3    H254894   4.733   3.195   2.110  0.2546  0.7913 -0.1048
11135TIP3   OH254895   6.702   0.815   4.925  0.5171 -0.2094 -0.1800
11135TIP3    H154896   6.704   0.771   5.010 -0.7546 -0.6824 -0.3789
11135TIP3    H254897   6.754   0.895   4.939 -0.3469  0.1443  1.2909
11136TIP3   OH254898   1.548   5.054   4.286 -0.3601  0.1218  0.3804
11136TIP3    H154899   1.555   5.058   4.191 -1.4883 -0.0978  0.2815
11136TIP3    H254900   1.580   4.967   4.309 -0.6461 -0.0446  0.1496
11137TIP3   OH254901   3.363   3.777  16.288 -0.5088 -0.0563  0.2992
11137TIP3    H154902   3.417   3.848  16.251 -1.0749 -0.0838 -0.6125
11137TIP3    H254903   3.379   3.782  16.382  0.1146  0.7455  0.1665
11138TIP3   OH254904   2.334   0.272  11.871 -0.5630  0.3213  0.1563
11138TIP3    H154905   2.390   0.350  11.861 -0.6011  0.4539  0.9210
11138TIP3    H254906   2.383   0.215  11.930  0.8672 -1.5780 -2.6339
11139TIP3   OH254907   0.865   0.076  15.546 -0.7622  0.2246  0.2575
11139TIP3    H154908   0.916   0.153  15.520 -0.7108  0.0754 -0.0859
11139TIP3    H254909   0.892   0.060  15.636  0.9398 -0.7425 -0.3738
11140TIP3   OH254910   0.143   3.324   4.687  0.5096  0.2215 -0.4912
11140TIP3    H154911   0.108   3.372   4.612 -1.7008  0.3667  0.5527
11140TIP3    H254912   0.095   3.241   4.686  1.8986 -0.6014 -0.3668
11141TIP3   OH254913   1.080   5.088   0.982 -0.2399  0.2073  0.0687
11141TIP3    H154914   1.056   5.093   1.075  2.4099  0.4518  0.8173
11141TIP3    H254915   1.050   5.001   0.954 -0.4056 -0.1620  1.3427
11142TIP3   OH254916   3.053   2.656   2.908  0.0240 -0.1979 -0.1986
11142TIP3    H154917   3.061   2.686   2.817  0.5338 -0.8753 -0.3834
11142TIP3    H254918   2.960   2.635   2.918 -0.1442  0.4339 -0.3796
11143TIP3   OH254919   2.752   2.062   1.508  0.4353  0.2529  0.3415
11143TIP3    H154920   2.826   2.015   1.473  0.5081 -0.3954  1.3279
11143TIP3    H254921   2.688   2.065   1.437  0.5443 -1.0951  0.1747
11144TIP3   OH254922   5.489   5.576   3.686  0.1617 -0.3520  0.1092
11144TIP3    H154923   5.433   5.630   3.741  0.9271  0.7640 -0.1734
11144TIP3    H254924   5.577   5.613   3.697  0.0933  1.2553 -3.3464
11145TIP3   OH254925   3.628   3.076   2.925  0.4315  0.5711  0.3709
11145TIP3    H154926   3.536   3.101   2.918  0.7377  1.4285 -1.0074
11145TIP3    H254927   3.661   3.127   2.999 -0.1151  0.5170  0.6557
11146TIP3   OH254928   1.793   6.121  14.343 -0.1882  0.0409  0.2209
11146TIP3    H154929   1.826   6.088  14.426 -0.2239 -2.1113 -0.5499
11146TIP3    H254930   1.869   6.118  14.284 -0.8054 -1.2701 -0.5542
11147TIP3   OH254931   0.290   6.697   0.140 -0.5986 -0.1973 -0.4378
11147TIP3    H154932   0.316   6.664   0.226 -0.1478  1.0151 -0.0828
11147TIP3    H254933   0.268   6.789   0.155 -0.0493  0.1680 -1.6923
11148TIP3   OH254934   3.437   1.056   3.023 -0.3037 -0.8736  0.2912
11148TIP3    H154935   3.435   1.151   3.035  1.6034 -0.6170 -0.9676
11148TIP3    H254936   3.361   1.037   2.969 -0.2796  0.0776 -0.1018
11149TIP3   OH254937   3.510   0.409  11.167  0.1250 -0.0690 -0.1177
11149TIP3    H154938   3.455   0.435  11.093 -0.5570  0.7889  0.6691
11149TIP3    H254939   3.584   0.364  11.127 -0.4823 -0.0638 -1.2887
11150TIP3   OH254940   0.451   5.265  11.756  0.3799  0.9286  0.1096
11150TIP3    H154941   0.373   5.277  11.810 -0.4978 -1.9933 -0.3295
11150TIP3    H254942   0.522   5.258  11.819 -0.3479 -0.4501  0.8255
11151TIP3   OH254943   1.192   3.401  17.006  0.0902 -0.1181 -0.0036
11151TIP3    H154944   1.246   3.411  16.927 -1.8240  1.5086 -1.1962
11151TIP3    H254945   1.232   3.462  17.068  0.9931 -0.6338 -0.0583
11152TIP3   OH254946   5.117   4.528   0.253 -0.4039  0.0385  0.0252
11152TIP3    H154947   5.202   4.528   0.209 -0.3206  0.9203  0.1727
11152TIP3    H254948   5.135   4.566   0.339 -0.8231 -0.3924  0.3069
11153TIP3   OH254949   5.114   1.532  13.173 -0.0080  0.2582 -0.4144
11153TIP3    H154950   5.131   1.531  13.268  0.8096  2.3915 -0.4662
11153TIP3    H254951   5.029   1.489  13.164  1.2690 -2.8462  0.8841
11154TIP3   OH254952   0.649   2.251  12.162 -0.1062 -0.1358 -1.0477
11154TIP3    H154953   0.644   2.334  12.209  1.7477 -1.4779  1.7135
11154TIP3    H254954   0.564   2.245  12.117 -2.5775  0.8154  2.9818
11155TIP3   OH254955   2.946   1.092   5.740 -0.3051 -0.5855 -0.3539
11155TIP3    H154956   3.035   1.067   5.764 -0.4590  0.0074  0.9259
11155TIP3    H254957   2.929   1.171   5.791 -2.0610 -1.4611  0.5269
11156TIP3   OH254958   2.258   4.620  16.422 -0.0609  0.5399 -0.0174
11156TIP3    H154959   2.324   4.656  16.363  0.6547  0.0988  0.5053
11156TIP3    H254960   2.287   4.645  16.509 -0.0442 -0.5225  0.2854
11157TIP3   OH254961   3.085   2.983  14.739  0.7753 -0.4540 -0.0146
11157TIP3    H154962   3.014   2.920  14.726 -0.0606  0.6920 -1.3103
11157TIP3    H254963   3.073   3.015  14.828 -1.5667  1.1041 -0.8080
11158TIP3   OH254964   4.576   2.569  16.296  0.3720  0.8776  0.0883
11158TIP3    H154965   4.546   2.479  16.280 -1.8620  1.9871 -2.8422
11158TIP3    H254966   4.499   2.623  16.281  1.8205  3.3870  1.0583
11159TIP3   OH254967   2.187   5.557   3.210  0.6459  0.0426  0.3050
11159TIP3    H154968   2.150   5.641   3.182  0.2230 -0.0891  0.4642
11159TIP3    H254969   2.115   5.495   3.200  0.2950  0.0930  2.2359
11160TIP3   OH254970   1.280   3.875   1.805 -0.6386 -0.3366 -0.2977
11160TIP3    H154971   1.374   3.860   1.809 -0.6688 -1.9671 -3.0317
11160TIP3    H254972   1.241   3.788   1.815 -1.7756  0.0850 -0.8073
11161TIP3   OH254973   4.631   1.924   5.769  0.3168  0.3142  0.2414
11161TIP3    H154974   4.560   1.949   5.711  0.9929 -0.1141 -0.8089
11161TIP3    H254975   4.708   1.918   5.712  1.2927  1.1781  1.4108
11162TIP3   OH254976   5.991   2.374   4.900  0.5205  0.2000 -0.4706
11162TIP3    H154977   5.923   2.344   4.960 -0.1850 -1.0607 -1.8459
11162TIP3    H254978   5.977   2.468   4.893  1.3995  0.6297  2.2432
11163TIP3   OH254979   2.147   3.357  16.559  0.0302  0.1291  0.5793
11163TIP3    H154980   2.137   3.375  16.466 -1.5927 -0.1287  0.6663
11163TIP3    H254981   2.233   3.316  16.566  0.2870  0.3780 -0.7668
11164TIP3   OH254982   0.736   0.921  10.688 -0.0858 -0.3327  0.4943
11164TIP3    H154983   0.699   0.851  10.742  0.7747 -0.3228  1.1109
11164TIP3    H254984   0.737   0.997  10.746  2.4607 -0.7331  1.0719
11165TIP3   OH254985   4.909   2.742   2.443  0.0491 -0.2109  0.3565
11165TIP3    H154986   4.912   2.668   2.504  1.9081 -0.8021 -0.3616
11165TIP3    H254987   4.871   2.813   2.493 -0.0586 -1.1521  1.6621
11166TIP3   OH254988   5.177   2.228  11.231  0.0818 -0.1538 -0.3893
11166TIP3    H154989   5.194   2.233  11.325 -0.1021 -0.9641 -0.2997
11166TIP3    H254990   5.259   2.255  11.190 -0.0077  0.7296 -0.0022
11167TIP3   OH254991   2.022   3.318  10.659  0.1609 -0.3781 -0.5738
11167TIP3    H154992   1.995   3.227  10.650 -1.1301 -0.1426  0.5961
11167TIP3    H254993   2.021   3.353  10.570  1.6538 -1.7390 -1.1621
11168TIP3   OH254994   5.504   1.231   6.615  0.2538  0.2598  0.3411
11168TIP3    H154995   5.592   1.220   6.650  0.3519  0.0932  0.0480
11168TIP3    H254996   5.508   1.314   6.566  1.1413 -1.2275 -2.3013
11169TIP3   OH254997   5.592   2.030  14.889  0.2602  0.2755 -0.1287
11169TIP3    H154998   5.666   2.034  14.950  0.2789 -1.7960  0.0696
11169TIP3    H254999   5.576   2.121  14.865  0.8237  1.1048  2.2901
11170TIP3   OH255000   0.046   6.200   1.133  0.5309 -0.7588  0.4069
11170TIP3    H155001   0.107   6.233   1.068 -0.3984  0.0515 -0.0858
11170TIP3    H255002  -0.009   6.138   1.085 -0.3884  0.1090  0.3016
11171TIP3   OH255003   0.251   3.720   3.851 -0.0739 -0.2136  0.3985
11171TIP3    H155004   0.293   3.641   3.886  1.7148  1.0659  1.3035
11171TIP3    H255005   0.316   3.758   3.793 -0.3795  1.2619  0.9634
11172TIP3   OH255006   2.144   2.014   3.712  0.1098 -0.3615 -0.1304
11172TIP3    H155007   2.075   1.978   3.767  0.6902 -0.2076  0.7346
11172TIP3    H255008   2.123   2.108   3.706  0.2642 -0.3062  0.1714
11173TIP3   OH255009   2.356   0.446  12.923  0.0050 -0.2851 -0.2029
11173TIP3    H155010   2.267   0.447  12.959  1.0042 -3.7826  2.9530
11173TIP3    H255011   2.408   0.496  12.985  0.7581 -1.1438 -0.1138
11174TIP3   OH255012   6.756   2.530  13.776  0.0105 -0.0212  0.3914
11174TIP3    H155013   6.836   2.566  13.737 -0.1917 -0.2850 -0.2792
11174TIP3    H255014   6.691   2.599  13.765  0.0507  0.0549  0.6176
11175TIP3   OH255015   2.290   4.452  17.235 -0.0527 -0.5037  0.1796
11175TIP3    H155016   2.245   4.512  17.175  0.7465 -1.4399 -1.4160
11175TIP3    H255017   2.224   4.387  17.259 -0.0634 -0.8100 -0.6640
11176TIP3   OH255018   1.359   4.279  15.800 -0.5996  0.4624  0.0733
11176TIP3    H155019   1.413   4.290  15.878  1.1351 -0.7076 -0.9048
11176TIP3    H255020   1.357   4.366  15.760 -1.0498  0.9434  1.1143
11177TIP3   OH255021   1.913   6.326  17.225 -0.4675  0.2267 -0.2396
11177TIP3    H155022   1.915   6.341  17.131  0.8263  1.8005 -0.0035
11177TIP3    H255023   2.005   6.328  17.252 -0.7172 -1.3446  0.9210
11178TIP3   OH255024   0.437   5.586   1.243 -0.0642  0.4267 -0.2245
11178TIP3    H155025   0.455   5.605   1.335  1.7077  0.4861 -0.5422
11178TIP3    H255026   0.478   5.658   1.195 -0.4504  0.0839 -1.0904
11179TIP3   OH255027   6.799   5.132  12.648  0.0414  0.2776  0.2143
11179TIP3    H155028   6.755   5.070  12.589  0.4962 -1.7562  1.8805
11179TIP3    H255029   6.860   5.179  12.591 -2.3047  1.3124 -1.6422
11180TIP3   OH255030   0.573   0.483   4.642  0.3734  0.3953 -0.0882
11180TIP3    H155031   0.555   0.528   4.724  3.1302  1.0398  0.2306
11180TIP3    H255032   0.509   0.520   4.581  0.9232  2.9607  0.7771
11181TIP3   OH255033   6.028   3.840   2.034  0.7960  0.2184 -0.0653
11181TIP3    H155034   5.986   3.926   2.023  1.5984  0.6123 -0.1385
11181TIP3    H255035   6.044   3.834   2.128  1.9457  0.7509 -0.2079
11182TIP3   OH255036   4.950   4.184   1.223 -0.1625 -0.3910  0.1246
11182TIP3    H155037   4.962   4.122   1.151  0.7750 -0.2674  0.1634
11182TIP3    H255038   4.961   4.132   1.302 -0.2287 -0.3416  0.1660
11183TIP3   OH255039   2.988   1.947  15.348 -0.6902  0.2707  0.3142
11183TIP3    H155040   3.026   1.980  15.430  1.4069  0.5421 -0.7133
11183TIP3    H255041   3.061   1.943  15.287 -2.1728 -0.0620 -1.5374
11184TIP3   OH255042   5.666   1.417  16.133  0.4276 -0.5792  0.4322
11184TIP3    H155043   5.606   1.363  16.184  0.8254 -0.1509  1.3947
11184TIP3    H255044   5.752   1.396  16.169  0.9550 -1.6561 -1.3569
11185TIP3   OH255045   5.482   6.426  11.828  0.3226  0.0263 -0.1596
11185TIP3    H155046   5.530   6.465  11.756 -0.0966 -0.8052 -0.9016
11185TIP3    H255047   5.391   6.453  11.813 -1.0535 -5.1472 -3.6667
11186TIP3   OH255048   6.098   5.341   2.332 -0.6562 -0.1605  0.0015
11186TIP3    H155049   6.120   5.335   2.425  1.0548  2.0835 -0.1499
11186TIP3    H255050   6.010   5.379   2.331 -0.9096 -0.7002  0.6806
11187TIP3   OH255051   6.321   5.427   3.164 -0.2621 -0.0767  0.4035
11187TIP3    H155052   6.361   5.351   3.123  3.4487  0.8522  1.8835
11187TIP3    H255053   6.279   5.394   3.243 -1.1710 -0.8853 -0.3923
11188TIP3   OH255054   1.002   4.496  15.771  0.2148  0.3060 -0.0997
11188TIP3    H155055   1.007   4.527  15.681 -0.3437 -0.5996 -0.4523
11188TIP3    H255056   0.913   4.518  15.800  0.7414  1.6085  0.6291
11189TIP3   OH255057   5.689   1.568   5.288  0.3205 -0.1086  0.5201
11189TIP3    H155058   5.653   1.486   5.324 -0.1865 -0.9610 -1.7475
11189TIP3    H255059   5.636   1.637   5.327 -1.3369 -1.1054  0.1304
11190TIP3   OH255060   0.784   5.880  12.615 -0.4497  0.2422  0.3724
11190TIP3    H155061   0.773   5.809  12.551 -0.1160  1.1265 -0.7042
11190TIP3    H255062   0.782   5.836  12.700  0.7377 -1.1954 -0.2945
11191TIP3   OH255063   3.430   0.159  16.088  0.2119  0.4840  0.2718
11191TIP3    H155064   3.388   0.216  16.153 -0.9486 -0.7235  0.6285
11191TIP3    H255065   3.364   0.149  16.019  0.1983 -0.7774  0.4398
11192TIP3   OH255066   0.791   0.242  13.936 -0.1577 -0.2728 -0.3343
11192TIP3    H155067   0.813   0.166  13.882  3.3311  1.0933 -1.1166
11192TIP3    H255068   0.760   0.307  13.874  0.1378  0.0256 -0.1747
11193TIP3   OH255069   1.433   1.863   3.386  0.1987 -0.4799  0.1223
11193TIP3    H155070   1.496   1.920   3.340 -0.3942  0.4095  0.3807
11193TIP3    H255071   1.366   1.845   3.320 -0.0488 -0.1768  0.2914
11194TIP3   OH255072   2.899   5.121  17.210 -0.2948  0.0423 -0.7122
11194TIP3    H155073   2.891   5.142  17.117 -1.4244 -0.1551 -0.6781
11194TIP3    H255074   2.885   5.205  17.254  0.9604  0.2723 -0.7297
11195TIP3   OH255075   4.742   2.121   6.211  0.1301  0.5056  0.8786
11195TIP3    H155076   4.670   2.158   6.261 -1.0542 -0.7032  0.1221
11195TIP3    H255077   4.700   2.069   6.143  1.6851 -1.4351  1.3035
11196TIP3   OH255078   3.185   0.858   1.451 -0.9211 -0.2182 -0.2510
11196TIP3    H155079   3.129   0.920   1.404  0.0238  0.7689 -0.1213
11196TIP3    H255080   3.227   0.807   1.382 -0.0284  0.7961 -0.5024
11197TIP3   OH255081   6.054   6.031   0.967  0.0344  0.3822  0.5391
11197TIP3    H155082   5.960   6.033   0.984  0.3217  1.3240  2.2185
11197TIP3    H255083   6.079   5.940   0.985 -0.6572 -0.0656 -0.6686
11198TIP3   OH255084   3.319   1.128  14.593 -0.5056 -0.0707 -0.2042
11198TIP3    H155085   3.250   1.185  14.627 -0.3119  0.1038 -0.0997
11198TIP3    H255086   3.400   1.178  14.606 -0.5507  0.5722 -2.1712
11199TIP3   OH255087   5.048   1.242  12.834 -0.2742  0.2620  0.4286
11199TIP3    H155088   5.044   1.235  12.739  2.5293  1.4335  0.1468
11199TIP3    H255089   5.033   1.335  12.852  1.2540  0.4449  0.9131
11200TIP3   OH255090   6.034   2.421  11.762 -0.2594  0.0559  0.4266
11200TIP3    H155091   6.092   2.389  11.693 -0.4213  0.3090  0.1706
11200TIP3    H255092   6.093   2.450  11.832 -0.0123  1.5158 -0.3473
11201TIP3   OH255093   3.466   0.393  12.949 -0.0453 -0.6735 -0.7288
11201TIP3    H155094   3.459   0.477  12.995 -0.1328 -0.8452 -0.4259
11201TIP3    H255095   3.549   0.356  12.979 -0.4685 -1.1434 -0.0942
11202TIP3   OH255096   5.644   3.735   4.644  0.7206 -0.0368 -0.4612
11202TIP3    H155097   5.726   3.775   4.615  0.4836  1.3407  0.6567
11202TIP3    H255098   5.671   3.653   4.687  1.7205  1.2085  1.4211
11203TIP3   OH255099   5.223   6.296  14.454 -0.0163  0.3115 -0.3861
11203TIP3    H155100   5.164   6.221  14.463 -1.0018  1.3195  2.2391
11203TIP3    H255101   5.298   6.275  14.510 -1.0335  1.9007  1.6805
11204TIP3   OH255102   2.868   3.210  17.118  0.0777  0.4165  0.2021
11204TIP3    H155103   2.890   3.150  17.190 -0.7384 -0.9638 -0.6421
11204TIP3    H255104   2.863   3.153  17.041  0.8344  1.8371 -0.9413
11205TIP3   OH255105   1.437   3.157  13.043 -0.2136 -0.0920  0.1230
11205TIP3    H155106   1.468   3.100  12.972  2.1635  1.5119 -0.2513
11205TIP3    H255107   1.465   3.113  13.123  1.4027  0.3866 -0.1513
11206TIP3   OH255108   5.423   0.402  16.810  0.4063  0.4584 -0.2034
11206TIP3    H155109   5.394   0.489  16.782  0.4241  0.4693 -0.1874
11206TIP3    H255110   5.493   0.379  16.749  1.3145  1.0228  0.6127
11207TIP3   OH255111   1.206   3.213   3.783 -0.7162 -0.1236  0.2864
11207TIP3    H155112   1.297   3.197   3.807 -0.5539 -1.3916 -1.0195
11207TIP3    H255113   1.188   3.302   3.814  0.9138  0.1091  0.6678
11208TIP3   OH255114   3.101   1.889   5.400  0.2693 -0.0193 -0.3019
11208TIP3    H155115   3.071   1.819   5.457 -1.4731  2.0602  1.5330
11208TIP3    H255116   3.021   1.927   5.363  1.0808  1.4813 -0.6334
11209TIP3   OH255117   2.116   4.591   5.807  0.6140  0.9480 -0.6329
11209TIP3    H155118   2.189   4.535   5.832  1.7932  3.2346  1.4318
11209TIP3    H255119   2.134   4.615   5.716  1.6441  0.3736 -0.5905
11210TIP3   OH255120   4.372   2.403  12.643 -0.5563 -0.2863 -0.5981
11210TIP3    H155121   4.290   2.362  12.670  1.2801 -2.5751  2.0528
11210TIP3    H255122   4.381   2.479  12.700 -0.9862  0.2192 -1.1870
11211TIP3   OH255123   4.875   3.109  13.995  0.2254 -0.1075  0.1078
11211TIP3    H155124   4.870   3.045  14.066 -0.1146  1.4079  1.5316
11211TIP3    H255125   4.838   3.189  14.033  2.4745  1.5245 -0.8902
11212TIP3   OH255126   2.297   4.939  17.046 -0.0133  0.4288 -0.8181
11212TIP3    H155127   2.242   5.015  17.028  1.2261  1.1841 -1.6296
11212TIP3    H255128   2.277   4.914  17.136 -2.3739  0.0337 -1.3828
11213TIP3   OH255129   1.975   6.705   4.575  0.2782  0.2295 -0.1721
11213TIP3    H155130   1.890   6.703   4.619 -0.1065  1.1017 -0.8540
11213TIP3    H255131   1.955   6.726   4.484  1.1102 -1.0245 -0.6775
11214TIP3   OH255132   4.813   4.054  12.805 -0.3149  1.0607  0.1387
11214TIP3    H155133   4.775   4.071  12.718  1.5055 -0.5783 -1.0679
11214TIP3    H255134   4.763   3.980  12.839 -0.3792  1.0658  0.0569
11215TIP3   OH255135   6.523   3.867   4.958 -0.1577 -0.0110 -0.3888
11215TIP3    H155136   6.431   3.852   4.982  0.1788  0.5821  1.4728
11215TIP3    H255137   6.533   3.823   4.874 -2.4528  0.9189 -1.2496
11216TIP3   OH255138   1.524   4.748  11.737 -0.0856 -0.2034 -0.0165
11216TIP3    H155139   1.531   4.826  11.683  2.4058 -0.0837  0.3384
11216TIP3    H255140   1.467   4.773  11.809 -1.3188  0.4678 -1.1893
11217TIP3   OH255141   5.359   1.458   2.035 -0.0240 -0.3724  0.0565
11217TIP3    H155142   5.299   1.454   1.961 -0.2441  2.3149  0.0079
11217TIP3    H255143   5.439   1.497   2.000  0.3218 -0.2422  0.9669
11218TIP3   OH255144   4.506   0.052  11.341  0.1617  0.3251  0.0644
11218TIP3    H155145   4.588   0.015  11.311  0.2796  0.3722  0.3256
11218TIP3    H255146   4.457  -0.022  11.376 -1.1038 -0.2313 -2.6546
11219TIP3   OH255147   5.939   0.514  13.642 -0.5027  0.7615  0.0143
11219TIP3    H155148   5.868   0.576  13.662 -1.0182  0.1262  0.1774
11219TIP3    H255149   5.963   0.535  13.551 -3.1444 -1.1256 -1.2472
11220TIP3   OH255150   5.422   4.741  13.476 -0.2586  0.2621  0.4920
11220TIP3    H155151   5.471   4.660  13.461 -0.5274 -0.1388  1.6694
11220TIP3    H255152   5.330   4.715  13.467 -0.3330  0.5274  0.4771
11221TIP3   OH255153   6.704   1.100   3.363  0.4706 -0.0515 -0.9713
11221TIP3    H155154   6.624   1.099   3.415 -0.3731  2.6831 -2.0288
11221TIP3    H255155   6.749   1.180   3.388  1.8296 -0.4620 -1.9295
11222TIP3   OH255156   6.239   6.084   4.709 -0.0994  0.5775 -0.5397
11222TIP3    H155157   6.208   5.993   4.706  0.4690  0.3876 -3.2725
11222TIP3    H255158   6.331   6.078   4.683  0.4248  1.7996  0.9346
11223TIP3   OH255159   6.806   3.492  12.075  0.2886 -0.1795  0.1589
11223TIP3    H155160   6.753   3.446  12.139 -0.0019 -1.3714 -0.8858
11223TIP3    H255161   6.743   3.541  12.022  0.6072  1.6333  1.3608
11224TIP3   OH255162   4.619   4.157   2.919 -0.1702  0.5223  0.8928
11224TIP3    H155163   4.607   4.065   2.943  1.8735 -0.2821 -0.8883
11224TIP3    H255164   4.540   4.179   2.870  0.3479 -1.0686 -0.7686
11225TIP3   OH255165   5.333   4.402  13.444  0.1713  0.0948 -0.1009
11225TIP3    H155166   5.264   4.371  13.503 -1.0086  1.6791 -0.5790
11225TIP3    H255167   5.296   4.481  13.404  1.5383 -0.0782 -1.8008
11226TIP3   OH255168   4.071   4.652  12.507 -0.0891 -0.4164 -0.0840
11226TIP3    H155169   4.067   4.675  12.600 -0.8253 -2.5827  0.4691
11226TIP3    H255170   4.148   4.699  12.475 -0.9217  1.9604  1.1080
11227TIP3   OH255171   2.586   4.241  12.412  0.5878 -0.1654  0.2355
11227TIP3    H155172   2.585   4.337  12.401 -1.4695 -0.2798 -1.1151
11227TIP3    H255173   2.624   4.228  12.499  1.8323  1.8149  0.0646
11228TIP3   OH255174   2.500   2.279  14.271  0.2628  0.5257  0.6257
11228TIP3    H155175   2.554   2.219  14.322 -0.1086  1.0464  1.6643
11228TIP3    H255176   2.412   2.270  14.308  0.0726  1.2208  0.3727
11229TIP3   OH255177   0.695   4.513  11.684 -0.1985  0.7433 -0.6696
11229TIP3    H155178   0.705   4.585  11.746 -1.2394  0.5930 -0.3039
11229TIP3    H255179   0.600   4.506  11.671  0.0182  1.3191 -2.9336
11230TIP3   OH255180   2.376   5.424   5.113 -0.4375  0.5811  0.5901
11230TIP3    H155181   2.296   5.470   5.089 -0.9134  0.4952  1.9389
11230TIP3    H255182   2.349   5.362   5.181  0.5878 -0.1792  0.3295
11231TIP3   OH255183   5.338   5.135  14.721 -0.0486 -0.1410 -0.6540
11231TIP3    H155184   5.282   5.191  14.774  0.5354 -0.5257  0.4110
11231TIP3    H255185   5.282   5.061  14.697 -0.1345 -0.3017  0.0204
11232TIP3   OH255186   6.089   6.491   0.299  0.5493 -0.5425  0.1672
11232TIP3    H155187   6.110   6.584   0.308 -1.1506 -0.1472  0.3170
11232TIP3    H255188   6.107   6.472   0.207 -0.2180  0.2547 -0.1643
11233TIP3   OH255189   0.724   4.594   1.379 -0.3821  0.3998 -0.3541
11233TIP3    H155190   0.778   4.518   1.403  0.1681  0.8495 -0.1556
11233TIP3    H255191   0.635   4.560   1.379 -0.0960 -0.3860 -0.8006
11234TIP3   OH255192   4.972   2.521   0.959  0.8063 -0.2046  0.2456
11234TIP3    H155193   4.884   2.557   0.962  0.1338 -1.4395 -2.0562
11234TIP3    H255194   4.984   2.479   1.044 -0.6615  0.3154  0.7321
11235TIP3   OH255195   0.596   6.781   4.887  0.4354  0.4699 -0.6228
11235TIP3    H155196   0.546   6.755   4.964  1.6466  0.9444  0.3602
11235TIP3    H255197   0.559   6.866   4.862 -1.0111 -0.4014 -1.5503
11236TIP3   OH255198   3.461   1.768   2.810 -0.3014  0.4038 -0.3098
11236TIP3    H155199   3.433   1.689   2.764  1.5318 -0.9834  0.7750
11236TIP3    H255200   3.495   1.825   2.741 -0.6437 -0.2260 -1.0171
11237TIP3   OH255201   0.138   2.718   5.722 -0.0271  0.3795  0.5363
11237TIP3    H155202   0.115   2.694   5.811 -0.4618  0.9665  0.5871
11237TIP3    H255203   0.077   2.669   5.667 -0.3204  0.6739  0.5990
11238TIP3   OH255204   1.950   3.633  13.610  0.4382  0.2140 -0.4794
11238TIP3    H155205   1.931   3.639  13.704  0.8675 -1.1247 -0.2947
11238TIP3    H255206   1.888   3.694  13.569  0.7301  1.3596  0.7206
11239TIP3   OH255207   2.082   4.406  16.260 -0.2358  0.0823 -0.0634
11239TIP3    H155208   2.057   4.405  16.167 -2.2703  0.5175  0.4386
11239TIP3    H255209   2.171   4.442  16.260 -0.0106 -0.3706 -1.8687
11240TIP3   OH255210   4.099   3.914  12.554 -0.7467 -0.4004 -0.5073
11240TIP3    H155211   4.118   3.882  12.465 -1.2002  0.9781 -1.1316
11240TIP3    H255212   4.163   3.870  12.609  0.1245 -0.6252 -1.6489
11241TIP3   OH255213   1.247   3.795  16.010  0.2009  0.0984  0.3278
11241TIP3    H155214   1.295   3.869  15.974 -1.7925  1.6750  0.6810
11241TIP3    H255215   1.268   3.722  15.952  2.0971  0.9596 -0.1443
11242TIP3   OH255216   1.523   1.282   4.776 -0.5779 -0.0071 -0.2438
11242TIP3    H155217   1.519   1.370   4.815  1.7521 -0.2081  0.6276
11242TIP3    H255218   1.554   1.298   4.687 -0.8566  0.1007 -0.3228
11243TIP3   OH255219   5.504   0.146   2.962 -0.3888 -0.0005 -0.4914
11243TIP3    H155220   5.567   0.165   2.892 -0.4676  1.3852 -0.2122
11243TIP3    H255221   5.419   0.156   2.920 -0.4323 -0.0157 -0.4057
11244TIP3   OH255222   3.094   2.080   1.567 -0.2363  0.2342  0.4454
11244TIP3    H155223   3.132   2.166   1.550 -0.7401  0.4642  0.4632
11244TIP3    H255224   3.133   2.023   1.500  1.0267  0.1999  1.1806
11245TIP3   OH255225   3.872   2.057  13.670 -0.0667  0.0798  0.5165
11245TIP3    H155226   3.950   2.105  13.698  0.7834 -1.0896  0.2432
11245TIP3    H255227   3.802   2.088  13.728  1.2824 -1.1402  2.9435
11246TIP3   OH255228   3.887   2.675  15.726  0.5512  0.5257  0.0588
11246TIP3    H155229   3.868   2.741  15.658  0.7911  1.1112  0.5479
11246TIP3    H255230   3.880   2.723  15.808 -0.1821 -0.2935  0.4837
11247TIP3   OH255231   3.289   2.562   5.448 -0.0314 -0.1093  0.6490
11247TIP3    H155232   3.255   2.479   5.482  1.0775 -1.1506 -0.6343
11247TIP3    H255233   3.359   2.535   5.388 -0.9830  1.6662 -1.3637
11248TIP3   OH255234   1.872   0.889   0.235  0.3464 -0.6949  0.1447
11248TIP3    H155235   1.780   0.891   0.211  0.1809  0.2387  0.7981
11248TIP3    H255236   1.905   0.807   0.198 -0.3478 -0.2685 -1.5079
11249TIP3   OH255237   0.135   5.570   4.491 -0.1763 -0.3800  0.0773
11249TIP3    H155238   0.154   5.663   4.506  0.1015 -0.8065  2.8850
11249TIP3    H255239   0.068   5.570   4.422 -0.1483  1.8877 -0.0222
11250TIP3   OH255240   4.025   5.388  15.043 -0.2422 -0.0915 -0.1059
11250TIP3    H155241   4.071   5.417  14.964 -0.4207 -0.6706 -0.4216
11250TIP3    H255242   4.088   5.334  15.089 -0.8500 -1.5688 -0.9455
11251TIP3   OH255243   0.179   4.930  11.695  0.9043  0.3188  0.0421
11251TIP3    H155244   0.094   4.918  11.652  1.8622  0.5728 -2.0687
11251TIP3    H255245   0.197   5.023  11.685  0.6285  0.6476  2.1733
11252TIP3   OH255246   6.187   0.648  13.652 -0.0149 -0.0823  0.3569
11252TIP3    H155247   6.160   0.725  13.602  0.7310 -0.5372 -0.7724
11252TIP3    H255248   6.104   0.604  13.674 -0.4549  1.0569  1.1020
11253TIP3   OH255249   1.763   2.210   1.385 -0.3507  0.1114 -0.0520
11253TIP3    H155250   1.713   2.163   1.319  0.8209 -2.2093  0.6090
11253TIP3    H255251   1.700   2.231   1.454 -0.7715 -1.2454 -0.0010
11254TIP3   OH255252   1.576   2.724   5.341 -0.6564 -0.0773 -0.3000
11254TIP3    H155253   1.489   2.698   5.370 -0.1729 -0.1879  1.1740
11254TIP3    H255254   1.604   2.790   5.405  1.2797 -1.8052  0.7688
11255TIP3   OH255255   0.730   1.947   1.892  0.4268 -0.7058  0.0638
11255TIP3    H155256   0.761   2.005   1.823 -1.2383  0.8119  0.5018
11255TIP3    H255257   0.693   1.872   1.845  1.3116 -0.7519 -0.5808
11256TIP3   OH255258   4.347   1.554  11.848  0.3312  0.2082  0.3965
11256TIP3    H155259   4.281   1.540  11.917  0.2416  0.0145  0.2727
11256TIP3    H255260   4.296   1.587  11.773  0.0064 -2.0671 -0.4649
11257TIP3   OH255261   1.054   2.545   2.449 -0.0431 -0.2820 -0.0431
11257TIP3    H155262   0.999   2.613   2.409  0.6497 -0.8339 -2.0462
11257TIP3    H255263   1.131   2.541   2.393  0.2544 -2.2550  0.4448
11258TIP3   OH255264   2.347   4.787   1.084 -0.2189  0.0671  0.0027
11258TIP3    H155265   2.284   4.722   1.051  0.0768  0.3575 -1.1736
11258TIP3    H255266   2.430   4.764   1.043  0.2386  0.2731  0.7883
11259TIP3   OH255267   3.546   3.104   1.123 -0.3833  0.4111  0.2621
11259TIP3    H155268   3.592   3.048   1.186 -0.2867  0.8868  0.6274
11259TIP3    H255269   3.458   3.067   1.117  0.2762 -1.0129 -1.0805
11260TIP3   OH255270   3.280   0.763  12.842 -0.0508  0.0436  0.2403
11260TIP3    H155271   3.360   0.813  12.826  0.2099 -0.9066 -1.8099
11260TIP3    H255272   3.297   0.715  12.922  1.8687 -0.8826 -0.6540
11261TIP3   OH255273   0.711   6.727   3.433  0.2649 -0.4837  0.5336
11261TIP3    H155274   0.637   6.722   3.372  0.0905 -1.0328  0.7902
11261TIP3    H255275   0.758   6.806   3.406  0.3249 -0.8425 -0.4644
11262TIP3   OH255276   3.156   4.825  15.358 -1.1031 -0.1664  0.0033
11262TIP3    H155277   3.194   4.748  15.399 -1.7434  0.3222  1.5865
11262TIP3    H255278   3.092   4.790  15.297  0.9576 -0.9610 -1.8414
11263TIP3   OH255279   4.313   6.165  16.579 -0.2801  0.3400 -0.0072
11263TIP3    H155280   4.378   6.108  16.620  0.3401  0.8632 -0.2515
11263TIP3    H255281   4.361   6.211  16.511 -1.1946 -0.1862 -1.0389
11264TIP3   OH255282   3.007   4.328  14.380  0.2769 -0.0682 -1.0966
11264TIP3    H155283   2.969   4.358  14.463 -1.0075  1.5799 -2.2032
11264TIP3    H255284   3.003   4.233  14.385  1.0469 -0.0514  1.0689
11265TIP3   OH255285   5.617   5.225  14.824  0.2167  0.0624  0.2288
11265TIP3    H155286   5.547   5.169  14.790 -0.4609  1.8831 -1.5812
11265TIP3    H255287   5.622   5.204  14.917 -1.1991 -1.6989 -0.0442
11266TIP3   OH255288   0.744   6.333  12.126 -0.1380 -0.3706  0.1824
11266TIP3    H155289   0.827   6.291  12.150 -0.0378 -0.2075  0.1184
11266TIP3    H255290   0.691   6.262  12.091  0.2786 -0.3223 -0.5689
11267TIP3   OH255291   0.291   4.919  14.602  0.3190  0.3667 -0.1352
11267TIP3    H155292   0.251   4.918  14.515 -1.1451  0.2343  0.5029
11267TIP3    H255293   0.288   4.827  14.629  0.5864  0.4365  0.1242
11268TIP3   OH255294   5.488   1.423   6.424  0.5720  0.2328 -0.2209
11268TIP3    H155295   5.433   1.491   6.384 -0.4384 -0.2605  0.2695
11268TIP3    H255296   5.548   1.396   6.354 -2.4316 -2.0348 -2.2108
11269TIP3   OH255297   6.744   5.497   0.646 -0.5459  0.4919 -0.1594
11269TIP3    H155298   6.747   5.501   0.550  1.7879 -1.5957 -0.2772
11269TIP3    H255299   6.835   5.489   0.672 -1.2819 -1.9815  2.0178
11270TIP3   OH255300   6.573   5.934   5.966  0.2486  0.5044 -0.0852
11270TIP3    H155301   6.661   5.910   5.939 -0.5549 -1.2503 -1.3604
11270TIP3    H255302   6.564   5.899   6.054 -0.8859 -4.6179 -1.8563
11271TIP3   OH255303   6.492   5.798  12.639  0.5046 -0.5066 -0.3650
11271TIP3    H155304   6.587   5.809  12.648  0.6061 -1.6507  0.1486
11271TIP3    H255305   6.467   5.858  12.569  1.5417  0.1107 -0.2277
11272TIP3   OH255306   5.462   3.860   4.491 -0.1380 -0.0037 -0.0865
11272TIP3    H155307   5.515   3.839   4.568  0.9059 -0.8565 -0.9969
11272TIP3    H255308   5.503   3.940   4.455 -0.4033  0.1922  0.0462
11273TIP3   OH255309   3.786   2.815   3.755  0.1229  0.1330  0.0984
11273TIP3    H155310   3.840   2.815   3.833  0.4224 -1.1862 -0.0874
11273TIP3    H255311   3.715   2.876   3.775 -0.6590 -1.2788  2.0262
11274TIP3   OH255312   0.799   0.768   4.075  0.1774  0.4762 -0.0527
11274TIP3    H155313   0.859   0.694   4.084 -1.7484 -1.0593  0.9697
11274TIP3    H255314   0.810   0.797   3.985  0.3245 -1.7142 -0.8161
11275TIP3   OH255315   3.998   0.222  13.439 -0.6107 -0.2566 -0.4991
11275TIP3    H155316   3.974   0.140  13.398 -0.1313 -0.3543 -0.5934
11275TIP3    H255317   3.915   0.264  13.460 -0.8564 -0.6177 -0.7417
11276TIP3   OH255318   1.441   5.074  12.378 -0.2588 -0.1296 -0.0028
11276TIP3    H155319   1.519   5.102  12.329 -0.3468 -0.9647 -0.6355
11276TIP3    H255320   1.466   4.991  12.418 -0.5801 -0.0224  0.4336
11277TIP3   OH255321   3.466   1.484   3.867 -0.5872  0.1531  0.7300
11277TIP3    H155322   3.466   1.449   3.956  2.2381  0.8351  1.0921
11277TIP3    H255323   3.491   1.576   3.877  0.6487  0.0257 -0.8134
11278TIP3   OH255324   4.089   3.478  16.477 -0.5508  0.6085 -0.6009
11278TIP3    H155325   4.141   3.436  16.546  0.5190  2.3271 -0.2983
11278TIP3    H255326   3.998   3.454  16.498 -0.1408  0.0902  0.7018
11279TIP3   OH255327   0.780   0.262  11.494 -0.1385  0.5461  0.3904
11279TIP3    H155328   0.780   0.167  11.501 -1.2490  0.5132  0.0543
11279TIP3    H255329   0.744   0.292  11.578 -0.9044  0.6209  0.0407
11280TIP3   OH255330   0.268   2.649   3.983  0.1332 -0.1897  0.2876
11280TIP3    H155331   0.261   2.590   3.908 -0.9187 -1.1811  1.1305
11280TIP3    H255332   0.267   2.591   4.059  0.7620  0.8203  1.0864
11281TIP3   OH255333   6.017   6.764  11.549 -0.0640  0.1806 -0.1458
11281TIP3    H155334   6.074   6.839  11.535 -2.1253  1.9587  0.4611
11281TIP3    H255335   6.069   6.689  11.521  2.0465  1.8127 -0.8776
11282TIP3   OH255336   2.902   6.316  17.026  0.0637 -0.0040  0.2549
11282TIP3    H155337   2.856   6.349  17.103 -1.0829 -0.6239 -0.1315
11282TIP3    H255338   2.963   6.251  17.060  0.8153  0.9732  0.8017
11283TIP3   OH255339   5.204   6.275   0.290 -0.5389  0.4309  0.4590
11283TIP3    H155340   5.120   6.320   0.284 -0.8641 -0.1134  0.8058
11283TIP3    H255341   5.224   6.271   0.383 -0.3097  0.2341  0.4053
11284TIP3   OH255342   6.230   0.815  15.061  0.1014 -0.2787 -0.3245
11284TIP3    H155343   6.234   0.767  15.143  0.3476 -1.0141 -0.7555
11284TIP3    H255344   6.207   0.750  14.995 -0.4931  0.3768 -0.7846
11285TIP3   OH255345   3.060   4.093   1.571 -0.3621 -0.1088 -0.5197
11285TIP3    H155346   3.117   4.016   1.580  0.2090  0.1660 -1.6235
11285TIP3    H255347   2.997   4.068   1.503 -0.5127  0.2002 -0.4958
11286TIP3   OH255348   0.827   1.374  16.313  0.2150 -0.3865 -0.3268
11286TIP3    H155349   0.917   1.343  16.303  0.3716  0.4205 -1.5666
11286TIP3    H255350   0.779   1.334  16.241 -0.1641  0.1025 -0.3535
11287TIP3   OH255351   5.215   5.900   5.702  0.1211  0.5327 -0.3926
11287TIP3    H155352   5.305   5.931   5.694  1.9403 -3.9505 -0.2444
11287TIP3    H255353   5.200   5.894   5.797  0.1147  0.1695 -0.4160
11288TIP3   OH255354   4.216   1.371  16.128 -0.8531  0.6010 -1.0258
11288TIP3    H155355   4.127   1.346  16.103 -1.5324 -1.0882  2.5077
11288TIP3    H255356   4.205   1.450  16.181 -0.0096  1.3156 -1.8614
11289TIP3   OH255357   3.627   6.763  15.239  0.5940  0.1196  0.2434
11289TIP3    H155358   3.691   6.735  15.173  1.2264  0.2403  0.7948
11289TIP3    H255359   3.664   6.735  15.322 -0.8180 -1.1737  0.4818
11290TIP3   OH255360   0.459   0.457   3.252  0.0791  0.4292  0.2536
11290TIP3    H155361   0.528   0.406   3.210  0.3983  0.5662  0.6056
11290TIP3    H255362   0.451   0.536   3.198 -1.6563 -0.7755 -1.3365
11291TIP3   OH255363   0.651   4.178  16.221  0.2481 -0.2089 -0.7645
11291TIP3    H155364   0.598   4.189  16.300  0.7463 -1.0527 -0.3026
11291TIP3    H255365   0.625   4.252  16.165 -1.7745 -0.8497 -0.7759
11292TIP3   OH255366   2.425   2.106  16.660 -0.0364 -0.4323  0.2957
11292TIP3    H155367   2.475   2.041  16.610 -0.9618 -0.8489 -0.1170
11292TIP3    H255368   2.356   2.135  16.599  0.1520  0.6891  0.5921
11293TIP3   OH255369   5.643   3.904   1.330  0.0039 -0.0614 -0.0636
11293TIP3    H155370   5.653   3.991   1.290  2.1065 -0.6538 -0.9705
11293TIP3    H255371   5.556   3.876   1.304 -0.0166  1.0461 -1.3280
11294TIP3   OH255372   2.708   0.990  14.287  0.4788 -0.0881  0.3897
11294TIP3    H155373   2.613   0.991  14.271  0.6240 -0.4707 -0.5295
11294TIP3    H255374   2.715   0.986  14.383 -0.4296  0.2421  0.4842
11295TIP3   OH255375   6.251   0.779  16.919 -0.4564  0.3220  0.0013
11295TIP3    H155376   6.167   0.796  16.878 -0.7510  1.0238  0.8535
11295TIP3    H255377   6.234   0.707  16.980 -0.1904 -0.2388 -0.5819
11296TIP3   OH255378   2.753   0.850  16.760  0.1350 -0.0422  0.4930
11296TIP3    H155379   2.764   0.759  16.789  1.8983  0.1143  0.4566
11296TIP3    H255380   2.688   0.887  16.820  0.7872 -0.8206  1.7272
11297TIP3   OH255381   1.408   1.327  14.839  0.2676  0.0899  0.6381
11297TIP3    H155382   1.337   1.264  14.823  1.1865 -1.0309  0.8079
11297TIP3    H255383   1.484   1.272  14.855  0.5777  1.2075  3.4157
11298TIP3   OH255384   1.753   6.168   4.284  0.2713 -0.1039 -0.1522
11298TIP3    H155385   1.827   6.228   4.298 -0.3436  1.0127 -1.4473
11298TIP3    H255386   1.677   6.219   4.310 -0.0455 -1.4871  1.8576
11299TIP3   OH255387   4.455   0.818   5.185 -0.5082 -0.3117  0.4275
11299TIP3    H155388   4.399   0.748   5.219  0.5917 -1.1871  0.4950
11299TIP3    H255389   4.416   0.898   5.220 -3.2368 -0.6045 -1.6124
11300TIP3   OH255390   1.246   6.519   4.322 -0.0467 -0.5138  1.1029
11300TIP3    H155391   1.272   6.437   4.364  1.0974 -0.9949 -0.4249
11300TIP3    H255392   1.266   6.505   4.229 -1.5962  0.8304  0.5305
11301TIP3   OH255393   6.127   3.712  14.726 -0.2995 -0.5830  0.5040
11301TIP3    H155394   6.100   3.798  14.691  1.1041  0.0115  0.8362
11301TIP3    H255395   6.082   3.649  14.670  1.5437  0.3303 -2.2133
11302TIP3   OH255396   3.356   3.713   5.871  0.6598  0.3921  0.0650
11302TIP3    H155397   3.353   3.753   5.957 -1.6205 -1.0297  0.7349
11302TIP3    H255398   3.387   3.624   5.887  3.4561  1.0351 -1.1026
11303TIP3   OH255399   0.559   4.420  14.917  0.8422 -0.4396 -0.4935
11303TIP3    H155400   0.621   4.484  14.951  2.0061 -1.9249  0.3381
11303TIP3    H255401   0.481   4.470  14.896  2.0485  1.3794 -0.8301
11304TIP3   OH255402   0.921   1.528  15.523  0.5293  0.2910 -0.5859
11304TIP3    H155403   0.863   1.452  15.518  0.8659  0.0645 -1.0698
11304TIP3    H255404   0.910   1.572  15.439  1.2399  0.1136 -0.7754
11305TIP3   OH255405   2.614   1.583   6.841 -0.0245 -0.0877  0.3878
11305TIP3    H155406   2.676   1.656   6.850  1.3135 -0.9356 -1.2917
11305TIP3    H255407   2.563   1.605   6.763  1.6398 -1.7435 -1.2505
11306TIP3   OH255408   0.481   6.567  16.867 -0.5304  0.0330  0.4210
11306TIP3    H155409   0.463   6.593  16.958  0.9333  0.1588  0.6976
11306TIP3    H255410   0.576   6.565  16.861 -0.5933  0.6116 -1.3005
11307TIP3   OH255411   2.490   0.104   0.036  0.3491  0.3592  0.1624
11307TIP3    H155412   2.488   0.015   0.073 -0.7792  0.3921  0.2173
11307TIP3    H255413   2.449   0.095  -0.050 -1.8288  1.1864  1.0529
11308TIP3   OH255414   2.055   4.679   3.455 -0.3463  0.4174 -0.0071
11308TIP3    H155415   2.137   4.706   3.497 -0.4029 -0.9584  1.0451
11308TIP3    H255416   2.002   4.759   3.454  0.1812  0.8146  1.3050
11309TIP3   OH255417   1.001   6.046   0.688 -0.7670 -0.1102 -0.2023
11309TIP3    H155418   1.025   5.993   0.764  0.9927  4.2052  2.6455
11309TIP3    H255419   1.085   6.076   0.652 -1.6373 -0.4305 -2.6501
11310TIP3   OH255420   2.378   5.892   3.922  0.5261  0.2200 -0.6584
11310TIP3    H155421   2.333   5.850   3.996  1.6637 -0.0191 -0.0916
11310TIP3    H255422   2.320   5.875   3.847 -0.8602  0.8235  0.2235
11311TIP3   OH255423   0.648   5.534   5.140 -0.1178 -0.2915 -0.1390
11311TIP3    H155424   0.714   5.556   5.206 -0.7406  1.3072  0.0035
11311TIP3    H255425   0.628   5.618   5.098 -1.9273 -0.7719 -0.3078
11312TIP3   OH255426   2.472   3.536   2.366 -0.0102 -0.1629  0.4851
11312TIP3    H155427   2.396   3.540   2.307  1.5322 -2.4436 -1.8949
11312TIP3    H255428   2.508   3.625   2.365 -0.7428  0.1530 -1.0585
11313TIP3   OH255429   5.698   1.971   3.548 -0.1903  0.0334  0.1355
11313TIP3    H155430   5.622   1.933   3.592 -1.0995  1.6369  0.0387
11313TIP3    H255431   5.672   2.061   3.529  0.7832 -0.0998 -2.2034
11314TIP3   OH255432   6.700   1.483   2.533  0.5524  0.0782  0.0790
11314TIP3    H155433   6.761   1.540   2.487  0.5247 -0.4309 -0.6059
11314TIP3    H255434   6.624   1.477   2.475  0.1228  0.1678  0.6186
11315TIP3   OH255435   4.512   1.505  11.462  0.5183 -0.3804  0.2689
11315TIP3    H155436   4.509   1.424  11.412  2.5887 -0.1193 -0.3723
11315TIP3    H255437   4.520   1.477  11.553 -0.2421 -0.8617  0.2012
11316TIP3   OH255438   0.777   4.656   6.273  0.3045 -0.1657 -0.0768
11316TIP3    H155439   0.799   4.599   6.347  0.0587  0.4912  0.5165
11316TIP3    H255440   0.709   4.713   6.307 -2.8497 -2.4776 -1.9968
11317TIP3   OH255441   3.077   3.693  10.976  0.5010 -0.2687 -0.1583
11317TIP3    H155442   3.088   3.772  10.923  0.9383 -0.7143 -0.7391
11317TIP3    H255443   2.991   3.659  10.953  0.9090 -0.7540 -0.9821
11318TIP3   OH255444   2.326   2.960  14.245  0.1775 -0.0161  0.1715
11318TIP3    H155445   2.393   2.971  14.312  0.4430  0.0231 -0.0989
11318TIP3    H255446   2.355   2.885  14.194  0.0078 -0.0085  0.0631
11319TIP3   OH255447   0.445   4.839  11.619  0.2088  0.6178 -0.7592
11319TIP3    H155448   0.357   4.846  11.658 -0.7329 -2.9342 -1.8635
11319TIP3    H255449   0.471   4.749  11.636  2.7584  0.9663 -2.3554
11320TIP3   OH255450   2.138   4.992  15.013  0.2876  0.6998  0.2780
11320TIP3    H155451   2.043   5.002  15.020  0.1589 -0.2950  0.0827
11320TIP3    H255452   2.163   5.051  14.941 -0.4817 -0.5656 -1.0941
11321TIP3   OH255453   4.060   0.805  11.747 -0.0285 -0.3334 -0.2524
11321TIP3    H155454   4.082   0.874  11.685  0.6985 -1.0832 -0.8415
11321TIP3    H255455   4.000   0.748  11.700 -0.9172  0.0742  0.3556
11322TIP3   OH255456   6.809   1.282   1.923 -0.4466  0.1741 -0.7528
11322TIP3    H155457   6.779   1.249   1.838 -1.0722  0.0147 -0.4727
11322TIP3    H255458   6.882   1.225   1.946 -0.6219 -0.1240 -0.9288
11323TIP3   OH255459   5.869   1.751   0.475 -0.3107  0.0479  0.2332
11323TIP3    H155460   5.888   1.750   0.381 -0.4753 -2.1005  0.1763
11323TIP3    H255461   5.819   1.831   0.488 -0.3287  0.3678 -1.5175
11324TIP3   OH255462   2.575   5.557  15.090 -0.1081 -0.0542 -0.3012
11324TIP3    H155463   2.564   5.575  15.183  4.0545 -0.8697  0.5427
11324TIP3    H255464   2.535   5.471  15.077  0.4333 -0.5332  1.0778
11325TIP3   OH255465   3.336   6.099  14.860 -0.3446 -0.2481  0.2902
11325TIP3    H155466   3.410   6.157  14.846 -0.0580 -0.6042  0.3015
11325TIP3    H255467   3.270   6.127  14.797  0.8614 -1.7374 -1.7533
11326TIP3   OH255468   3.705   0.135   1.724  0.2222  0.0346  0.0671
11326TIP3    H155469   3.733   0.047   1.750 -0.6966 -0.4317 -0.4469
11326TIP3    H255470   3.737   0.192   1.793 -0.4656 -0.9000  1.1881
11327TIP3   OH255471   3.030   1.778  16.891 -0.0381 -0.2102 -0.1801
11327TIP3    H155472   3.053   1.714  16.959 -0.1871  1.4743  1.5426
11327TIP3    H255473   3.110   1.828  16.877 -0.4555  0.5335  0.0123
11328TIP3   OH255474   1.111   3.988  13.404 -0.0330  0.0026  0.5468
11328TIP3    H155475   1.106   4.013  13.496 -1.5472  1.4947  0.0983
11328TIP3    H255476   1.094   3.893  13.404 -1.4020  0.2172  1.6978
11329TIP3   OH255477   5.935   5.920   2.622 -0.2204 -0.2151 -0.3583
11329TIP3    H155478   5.982   5.962   2.694 -1.1560 -1.7045  1.2124
11329TIP3    H255479   6.004   5.878   2.570  0.4121  0.1426  0.1776
11330TIP3   OH255480   5.943   0.716   3.914  0.3881 -0.7456  0.5603
11330TIP3    H155481   5.973   0.790   3.863 -0.1251 -1.1196 -0.3095
11330TIP3    H255482   5.852   0.703   3.887  0.2261 -1.1979  1.2786
11331TIP3   OH255483   4.662   6.316  13.242 -0.0225  0.0003 -0.3890
11331TIP3    H155484   4.571   6.306  13.269  0.4459 -0.2856  1.1649
11331TIP3    H255485   4.682   6.236  13.195 -0.5980  0.1160 -0.8442
11332TIP3   OH255486   5.355   2.129  16.028  0.0130  0.0575 -0.9239
11332TIP3    H155487   5.266   2.141  16.061  0.8421 -0.2494  1.6351
11332TIP3    H255488   5.370   2.034  16.036  0.3833  0.0236 -1.9235
11333TIP3   OH255489   6.162   1.077   3.458 -0.0114 -0.2334  0.7889
11333TIP3    H155490   6.073   1.045   3.442  0.2929 -0.7832  0.1296
11333TIP3    H255491   6.155   1.172   3.454 -0.2950 -0.2915 -0.9468
11334TIP3   OH255492   5.335   4.026  15.628 -0.1322  0.0384  0.5793
11334TIP3    H155493   5.409   4.008  15.570 -0.3762  1.8730 -0.3472
11334TIP3    H255494   5.340   4.120  15.645 -1.6090 -0.0071  1.4170
11335TIP3   OH255495   0.788   2.594  13.151  0.2423 -0.1468 -0.4834
11335TIP3    H155496   0.751   2.509  13.129  0.4482 -0.4680  0.3575
11335TIP3    H255497   0.712   2.651  13.164  0.0400 -0.6138  0.5068
11336TIP3   OH255498   1.694   3.712   0.659 -0.3163 -0.5692 -0.3791
11336TIP3    H155499   1.726   3.802   0.651 -1.4581 -0.1959 -1.0058
11336TIP3    H255500   1.768   3.663   0.695  0.7615  0.3601 -1.2606
11337TIP3   OH255501   0.490   4.827  15.182 -0.9054 -0.6380  0.5347
11337TIP3    H155502   0.563   4.767  15.199  0.0436  0.2497 -0.3293
11337TIP3    H255503   0.503   4.898  15.244  0.3246  0.6550 -1.0948
11338TIP3   OH255504   0.352   5.163  14.720 -0.0398 -0.1632 -0.4617
11338TIP3    H155505   0.342   5.075  14.685 -0.2103 -0.5251  0.4621
11338TIP3    H255506   0.338   5.221  14.645 -0.3864 -0.9042 -0.9768
11339TIP3   OH255507   5.347   1.491  16.244 -0.3283  0.2927 -0.4275
11339TIP3    H155508   5.378   1.402  16.226 -0.6325 -0.2684  1.6089
11339TIP3    H255509   5.402   1.522  16.315 -0.5040  1.5992 -0.8400
11340TIP3   OH255510   0.112   3.487  13.123  0.2369  0.2501 -0.1846
11340TIP3    H155511   0.163   3.487  13.042  0.2064 -0.0958 -0.2049
11340TIP3    H255512   0.021   3.478  13.093  0.1834  0.6231 -0.1368
11341TIP3   OH255513   2.390   2.931  12.824 -0.2639  0.1614 -0.1970
11341TIP3    H155514   2.305   2.901  12.857 -0.4730 -0.1786 -1.0075
11341TIP3    H255515   2.428   2.980  12.897 -0.8350 -0.3056  0.4315
11342TIP3   OH255516   1.043   6.261  12.758  0.0618 -0.0657 -0.3223
11342TIP3    H155517   1.125   6.281  12.805  0.0581  1.0429 -0.7490
11342TIP3    H255518   0.988   6.337  12.773 -0.2971 -0.1042 -1.3347
11343TIP3   OH255519   3.914   2.902  13.383 -0.2658 -0.0561 -0.2536
11343TIP3    H155520   3.969   2.961  13.331 -0.1898 -1.3092 -1.7005
11343TIP3    H255521   3.843   2.956  13.416  0.7600  1.1878 -0.0199
11344TIP3   OH255522   5.337   4.226  11.234  0.2726  0.0372 -0.1692
11344TIP3    H155523   5.255   4.242  11.188 -0.2191  0.6163  0.8688
11344TIP3    H255524   5.405   4.259  11.175 -0.3000  0.2838 -0.6954
11345TIP3   OH255525   3.584   4.386   1.149 -0.3167  0.4608 -0.2269
11345TIP3    H155526   3.565   4.295   1.172  1.4694  0.5319  1.9196
11345TIP3    H255527   3.530   4.438   1.208 -2.7056  0.9444 -2.6478
11346TIP3   OH255528   3.162   1.391  10.577  0.3871 -0.0866 -0.0009
11346TIP3    H155529   3.098   1.451  10.538  0.8378  0.3724 -0.0445
11346TIP3    H255530   3.232   1.448  10.610  1.6135 -0.6607 -1.4715
11347TIP3   OH255531   0.603   2.183   2.156  0.3503  0.0070 -0.4513
11347TIP3    H155532   0.560   2.125   2.093 -0.8704 -1.2334  1.4314
11347TIP3    H255533   0.538   2.251   2.174  0.2687 -0.2344  0.2118
11348TIP3   OH255534   3.266   2.562   3.501  0.1711 -0.3333 -0.1446
11348TIP3    H155535   3.232   2.503   3.568  0.8831 -0.6001 -0.0038
11348TIP3    H255536   3.300   2.504   3.433  1.5667 -0.1420  0.3384
11349TIP3   OH255537   5.309   3.779   0.183 -0.0396 -0.8423  0.2526
11349TIP3    H155538   5.310   3.719   0.109  0.0715  1.4216 -1.7217
11349TIP3    H255539   5.250   3.739   0.247  0.2636 -3.1189 -0.8135
11350TIP3   OH255540   0.508   1.579  14.098  0.2432  0.2194 -0.2663
11350TIP3    H155541   0.457   1.548  14.023  0.0058  0.0913 -0.0495
11350TIP3    H255542   0.477   1.527  14.172 -1.6424  2.3607  0.5446
11351TIP3   OH255543   5.913   0.776  13.984 -0.4626  0.1487  0.1142
11351TIP3    H155544   5.942   0.852  13.934  0.4470 -1.4516 -1.9649
11351TIP3    H255545   5.821   0.795  14.004  0.1351  2.4306  1.0656
11352TIP3   OH255546   4.410   0.071  14.849 -0.1714 -0.3545 -0.1565
11352TIP3    H155547   4.357   0.063  14.928 -0.9726 -0.5900 -0.7079
11352TIP3    H255548   4.368   0.013  14.785  1.2224 -1.1836 -0.3672
11353TIP3   OH255549   4.125   1.626   1.924 -0.2759 -0.1255 -0.6132
11353TIP3    H155550   4.206   1.623   1.874 -0.1010 -0.5952 -0.3144
11353TIP3    H255551   4.145   1.682   1.999  0.3741 -1.7185  0.4597
11354TIP3   OH255552   3.827   4.053   0.586  0.0667 -0.9611 -0.4398
11354TIP3    H155553   3.784   4.018   0.663 -0.3396 -0.7164 -0.5487
11354TIP3    H255554   3.897   4.110   0.620  0.2707 -1.3170 -0.2623
11355TIP3   OH255555   4.404   4.314   0.285 -0.3756  0.1246  0.2367
11355TIP3    H155556   4.453   4.283   0.362 -0.7517 -1.0038  0.0515
11355TIP3    H255557   4.349   4.385   0.318 -0.0182  0.1241  0.8562
11356TIP3   OH255558   2.634   6.619   5.021 -0.3583  0.3213  0.3099
11356TIP3    H155559   2.539   6.605   5.023 -1.1761  3.8469 -2.7769
11356TIP3    H255560   2.650   6.682   5.091 -1.0760  2.4024 -1.2632
11357TIP3   OH255561   5.704   4.824   4.393 -0.1437 -0.0017  1.1519
11357TIP3    H155562   5.766   4.884   4.434 -0.6157  2.1437 -1.0471
11357TIP3    H255563   5.752   4.787   4.319 -1.4545  2.0556 -0.8781
11358TIP3   OH255564   5.497   6.793   0.400 -0.5007 -0.4309  0.3783
11358TIP3    H155565   5.417   6.740   0.392 -0.0404 -1.2672  1.1504
11358TIP3    H255566   5.464   6.883   0.409 -1.3392 -0.6989  0.1371
11359TIP3   OH255567   3.395   6.651   3.793  0.4593  0.0254 -0.0928
11359TIP3    H155568   3.404   6.713   3.866  0.5049  0.3203 -0.3507
11359TIP3    H255569   3.469   6.670   3.736  1.0904 -0.9842  0.3602
11360TIP3   OH255570   0.931   2.684   3.563  0.2682 -0.6910 -0.2834
11360TIP3    H155571   0.895   2.655   3.647 -2.0400 -2.3071 -1.7510
11360TIP3    H255572   0.948   2.604   3.515  0.0646  0.2276 -1.9622
11361TIP3   OH255573   4.306   2.180  14.610 -0.3036 -0.5174  0.0186
11361TIP3    H155574   4.326   2.100  14.563  0.2001 -0.9482  0.9331
11361TIP3    H255575   4.217   2.204  14.582  0.4128 -0.0679 -2.0660
11362TIP3   OH255576   0.301   6.165  12.031  0.1793 -0.2134 -0.5472
11362TIP3    H155577   0.311   6.099  11.963  0.2482 -0.1296 -0.6174
11362TIP3    H255578   0.291   6.114  12.112 -1.2827 -0.3575 -0.7915
11363TIP3   OH255579   5.664   4.542   0.902  0.0055 -0.1963 -0.6259
11363TIP3    H155580   5.644   4.629   0.869 -0.8278 -0.4516 -0.8259
11363TIP3    H255581   5.739   4.513   0.851 -0.0047  0.2177 -0.8776
11364TIP3   OH255582   0.914   6.355   0.319  0.7371 -0.1519 -0.1822
11364TIP3    H155583   0.972   6.281   0.303  0.9896 -0.2806  1.1407
11364TIP3    H255584   0.827   6.315   0.328  1.0745 -0.5254  1.9671
11365TIP3   OH255585   3.459   4.921  11.751 -0.2207 -0.1012 -0.5002
11365TIP3    H155586   3.544   4.960  11.769 -0.1108 -0.2046 -0.7975
11365TIP3    H255587   3.397   4.994  11.758 -0.0219  0.1204 -0.9990
11366TIP3   OH255588   4.616   3.961   3.932  0.2291 -0.1215  0.1759
11366TIP3    H155589   4.660   3.995   3.854 -1.1596 -1.5128 -1.2953
11366TIP3    H255590   4.619   4.033   3.994  0.4154  1.4408 -1.5530
11367TIP3   OH255591   4.627   2.539  13.762  0.2890 -0.1497  0.4141
11367TIP3    H155592   4.624   2.595  13.684 -0.3927  0.1763  0.6676
11367TIP3    H255593   4.706   2.486  13.750  1.4166  1.4535  0.5778
11368TIP3   OH255594   1.517   3.839  15.677 -0.0200 -0.2380 -0.6017
11368TIP3    H155595   1.537   3.771  15.612  0.6288 -0.4838 -0.1539
11368TIP3    H255596   1.447   3.800  15.730  0.0964 -0.4121 -0.5743
11369TIP3   OH255597   5.429   1.105   0.630 -0.1189 -0.2853  0.0792
11369TIP3    H155598   5.479   1.033   0.670  0.1618 -0.1256  0.0138
11369TIP3    H255599   5.372   1.062   0.567 -1.1087 -0.6359  1.1658
11370TIP3   OH255600   3.937   5.501  16.780 -0.6791 -0.3084  0.4284
11370TIP3    H155601   3.899   5.580  16.818  1.2802  0.1690  1.4831
11370TIP3    H255602   3.908   5.503  16.688 -0.3934  1.8058  0.3380
11371TIP3   OH255603   5.110   1.942   1.524 -0.2738 -0.0364 -0.0380
11371TIP3    H155604   5.151   2.005   1.465 -1.0780  1.0562  0.5109
11371TIP3    H255605   5.157   1.954   1.607  1.0406 -1.7595 -0.4821
11372TIP3   OH255606   0.808   5.915  11.158 -0.4620  0.1188  0.0863
11372TIP3    H155607   0.738   5.966  11.198 -1.0313  2.0704 -3.0648
11372TIP3    H255608   0.885   5.932  11.213 -1.9573 -0.6415  2.5653
11373TIP3   OH255609   3.587   1.164  15.266  0.0158 -0.4881 -0.7411
11373TIP3    H155610   3.657   1.100  15.250 -0.0694 -1.0307  0.8775
11373TIP3    H255611   3.537   1.126  15.338 -0.3657  1.1517 -0.1109
11374TIP3   OH255612   4.687   1.214  15.370 -0.5429 -0.1211 -0.1624
11374TIP3    H155613   4.716   1.229  15.460 -0.6164 -0.3094 -0.1065
11374TIP3    H255614   4.622   1.143  15.377 -0.7611  0.0595 -0.3258
11375TIP3   OH255615   4.190   2.120   0.387 -0.2471  0.0836 -0.0962
11375TIP3    H155616   4.164   2.178   0.459 -1.1628  0.0597 -0.3864
11375TIP3    H255617   4.108   2.080   0.359  0.3719 -1.4623  0.1735
11376TIP3   OH255618   5.142   3.558   3.800 -0.1974  0.4962  0.3552
11376TIP3    H155619   5.135   3.618   3.726 -1.9244  0.9660  0.8454
11376TIP3    H255620   5.105   3.476   3.768 -0.7198  0.6288  0.6003
11377TIP3   OH255621   6.343   1.322   2.946 -1.2006 -0.0766  0.4263
11377TIP3    H155622   6.388   1.308   2.863 -0.3007 -1.1581  1.0680
11377TIP3    H255623   6.323   1.415   2.948  2.4490  0.8654  0.7857
11378TIP3   OH255624   1.831   6.424   1.753 -0.1655  0.3569  0.2850
11378TIP3    H155625   1.923   6.452   1.758 -0.1113 -0.0007  1.3480
11378TIP3    H255626   1.781   6.506   1.756  0.0501  0.4594  1.9574
11379TIP3   OH255627   6.114   1.369  13.839  0.4396 -0.2348 -0.7664
11379TIP3    H155628   6.101   1.360  13.933 -0.2719  1.1645 -0.7053
11379TIP3    H255629   6.188   1.311  13.819  1.3858  0.3463  0.8486
11380TIP3   OH255630   2.165   3.933  13.497 -0.0985  0.4515 -0.0471
11380TIP3    H155631   2.110   4.004  13.530  0.2362  0.6812  0.0220
11380TIP3    H255632   2.216   3.973  13.426 -0.1802  0.1839 -0.2575
11381TIP3   OH255633   6.399   3.012  13.328  0.3157 -0.6962  0.3201
11381TIP3    H155634   6.474   2.996  13.386  1.1495  0.7390 -0.2936
11381TIP3    H255635   6.437   3.057  13.252 -1.4697  2.5479  1.1762
11382TIP3   OH255636   0.250   1.397   0.140 -0.5446  0.5103  0.0883
11382TIP3    H155637   0.263   1.302   0.138 -0.9742  0.3963  1.5174
11382TIP3    H255638   0.219   1.419   0.052 -2.7446 -1.0295  0.3924
11383TIP3   OH255639   1.171   1.632   1.596  0.0998 -0.3641  0.3402
11383TIP3    H155640   1.266   1.627   1.609  0.2406  0.0536 -0.4377
11383TIP3    H255641   1.141   1.542   1.601  0.8262 -0.7437 -1.3355
11384TIP3   OH255642   1.988   3.400   5.307  0.2480  0.0911 -0.3068
11384TIP3    H155643   1.913   3.457   5.288  0.0612 -0.6369 -1.9799
11384TIP3    H255644   1.961   3.314   5.274  1.1501 -0.5888  0.6738
11385TIP3   OH255645   0.551   0.931  15.181  0.1929  0.1084  0.2050
11385TIP3    H155646   0.638   0.901  15.156  0.1589  0.0444  0.1639
11385TIP3    H255647   0.550   0.927  15.276  0.0223 -0.4851  0.1832
11386TIP3   OH255648   1.373   2.415  14.470 -0.3516  0.4700 -0.3989
11386TIP3    H155649   1.461   2.419  14.432  0.0598 -1.4290  0.2659
11386TIP3    H255650   1.314   2.414  14.394  0.0663  2.9689 -0.8494
11387TIP3   OH255651   0.815   4.987   1.970  0.2490 -0.4568 -0.3883
11387TIP3    H155652   0.905   5.019   1.968 -0.5958  2.1431 -1.7253
11387TIP3    H255653   0.799   4.967   2.062  2.1510 -0.9288 -0.1175
11388TIP3   OH255654   4.676   6.102   3.002 -0.5361 -0.0104  0.0744
11388TIP3    H155655   4.657   6.074   2.913  1.0124 -0.1345 -0.2472
11388TIP3    H255656   4.598   6.150   3.030 -1.6016 -1.1770 -0.8271
11389TIP3   OH255657   2.685   4.491  10.460 -0.1515 -0.1210 -1.0678
11389TIP3    H155658   2.769   4.469  10.500 -1.2192 -1.5915  0.5160
11389TIP3    H255659   2.624   4.497  10.533 -1.4973  0.6637 -2.2015
11390TIP3   OH255660   2.177   4.754   5.607  0.0474  0.0835  0.2002
11390TIP3    H155661   2.177   4.817   5.679 -0.8716  0.2603  0.0610
11390TIP3    H255662   2.255   4.777   5.556  0.3386  0.3835  0.7673
11391TIP3   OH255663   5.295   4.907   3.796  0.3020  0.4340  0.3293
11391TIP3    H155664   5.271   4.987   3.750 -0.6471 -0.6825 -1.2150
11391TIP3    H255665   5.229   4.899   3.866  0.3056  0.8976  0.3917
11392TIP3   OH255666   3.614   1.629   4.903  0.2700 -0.1815 -0.6955
11392TIP3    H155667   3.701   1.602   4.932  1.5060  1.2469 -2.7450
11392TIP3    H255668   3.556   1.558   4.930  2.0163 -1.0887  0.9065
11393TIP3   OH255669   4.826   4.443  13.480 -0.2649  0.3778  0.4368
11393TIP3    H155670   4.828   4.474  13.389  0.4676 -0.9399 -0.0154
11393TIP3    H255671   4.786   4.515  13.528  0.9535  1.8437 -0.6382
11394TIP3   OH255672   2.946   3.253  16.276 -0.3677  0.5241  0.0660
11394TIP3    H155673   2.881   3.258  16.345  0.3720  1.9528  0.7114
11394TIP3    H255674   3.029   3.240  16.322  0.0258  0.6069 -0.6025
11395TIP3   OH255675   3.538   5.784  11.766  0.1749 -0.0246  0.0990
11395TIP3    H155676   3.607   5.783  11.700 -1.2319  0.9234 -1.4720
11395TIP3    H255677   3.547   5.869  11.809  0.1905 -0.0265  0.0993
11396TIP3   OH255678   0.050   1.325   3.195 -0.2677  0.0958  0.0897
11396TIP3    H155679  -0.042   1.312   3.173 -0.1938  1.9679 -1.5702
11396TIP3    H255680   0.097   1.280   3.124  0.0183  1.9161 -0.9359
11397TIP3   OH255681   2.067   3.731   5.081 -0.0686  0.4020  0.2895
11397TIP3    H155682   2.070   3.668   5.010 -1.4141  0.0612  0.5243
11397TIP3    H255683   1.974   3.746   5.097  0.2221  1.5284  1.0468
11398TIP3   OH255684   6.383   3.378  14.077  0.0375 -0.1541  0.5807
11398TIP3    H155685   6.344   3.430  14.008  1.8710 -0.2538 -0.5986
11398TIP3    H255686   6.409   3.442  14.144  0.6786  0.2736 -0.0627
11399TIP3   OH255687   5.439   5.902   3.231  0.4023 -0.0810  0.6486
11399TIP3    H155688   5.413   5.983   3.189  1.7160 -0.3795 -0.8363
11399TIP3    H255689   5.494   5.930   3.305 -0.6969  0.4058  1.3011
11400TIP3   OH255690   1.388   1.198  13.238 -0.6005 -0.4250 -0.5083
11400TIP3    H155691   1.342   1.240  13.311 -0.0881 -0.6159 -0.0696
11400TIP3    H255692   1.334   1.122  13.217 -0.9603 -0.1476 -0.5916
11401TIP3   OH255693   0.107   4.594   1.337  0.0583 -0.5317  0.2575
11401TIP3    H155694   0.112   4.622   1.246 -0.2196  0.5276  0.5508
11401TIP3    H255695   0.088   4.500   1.333 -0.3909 -0.4025 -0.7711
11402TIP3   OH255696   0.466   6.552  12.613 -0.2560  0.8054 -0.3788
11402TIP3    H155697   0.372   6.567  12.625 -0.3624 -0.1932  0.0805
11402TIP3    H255698   0.473   6.463  12.578  0.3752  1.7862 -2.9682
11403TIP3   OH255699   4.561   6.003  15.917  0.0260  0.4231 -0.1783
11403TIP3    H155700   4.491   6.052  15.874 -0.0778  1.7802  1.4230
11403TIP3    H255701   4.629   5.995  15.850 -1.6920 -1.1408 -1.8520
11404TIP3   OH255702   5.362   3.045   4.207 -0.2296  0.3805 -0.3000
11404TIP3    H155703   5.282   3.038   4.259 -1.1671 -1.1560 -1.8323
11404TIP3    H255704   5.343   3.115   4.145 -0.3994  0.0532 -0.6269
11405TIP3   OH255705   4.149   0.683   1.019  0.0925  0.1295  0.1526
11405TIP3    H155706   4.190   0.694   1.105 -0.2088 -1.9185  0.6134
11405TIP3    H255707   4.059   0.657   1.039  0.2623 -1.2290 -0.7536
11406TIP3   OH255708   5.630   1.582   1.549  0.3466  0.4064  1.2041
11406TIP3    H155709   5.554   1.525   1.552  0.6319 -0.1522 -0.6965
11406TIP3    H255710   5.598   1.664   1.510  0.6895  0.1469  0.3354
11407TIP3   OH255711   0.145   5.054  12.852 -0.0568 -0.4733 -0.6319
11407TIP3    H155712   0.139   5.148  12.865 -0.8229 -0.0892 -3.2561
11407TIP3    H255713   0.084   5.035  12.781  0.2525 -2.9263 -0.3391
11408TIP3   OH255714   0.091   1.160  16.870 -0.4857  0.2142  0.4117
11408TIP3    H155715   0.135   1.217  16.807 -1.2216  0.4960  0.1434
11408TIP3    H255716   0.122   1.190  16.955 -0.3131  0.5386  0.2382
11409TIP3   OH255717   6.674   1.924  13.464 -0.5542 -0.0460 -0.5390
11409TIP3    H155718   6.692   1.874  13.544 -0.2346  0.5754 -0.2179
11409TIP3    H255719   6.636   1.860  13.404  2.3870 -1.3579 -1.1423
11410TIP3   OH255720   3.560   0.192  15.609 -0.0034  0.1444 -0.8007
11410TIP3    H155721   3.482   0.138  15.594 -0.4365  0.7549 -0.8080
11410TIP3    H255722   3.582   0.176  15.701 -0.2624  0.1155 -0.7417
11411TIP3   OH255723   0.743   6.611  12.036  0.3403  0.2832  0.1356
11411TIP3    H155724   0.730   6.663  12.116 -1.9209 -1.4697  1.0279
11411TIP3    H255725   0.726   6.521  12.064 -2.7582 -0.1977 -2.6866
11412TIP3   OH255726   6.100   5.151   6.353 -0.7661 -0.6039  0.0397
11412TIP3    H155727   6.061   5.088   6.414  1.7383 -0.1063  2.3875
11412TIP3    H255728   6.194   5.132   6.357 -0.2455  1.3424 -1.5420
11413TIP3   OH255729   1.968   1.570  15.956  0.0579 -0.2403 -0.4957
11413TIP3    H155730   2.035   1.530  16.012 -0.7214 -1.5432 -0.4607
11413TIP3    H255731   1.985   1.664  15.962  1.0977 -0.4707  0.5035
11414TIP3   OH255732   1.948   4.380  14.838  0.0609 -0.2748 -0.0909
11414TIP3    H155733   1.953   4.340  14.924 -0.4754  1.1514  0.6326
11414TIP3    H255734   1.907   4.465  14.853 -0.7226 -0.2919 -1.8571
11415TIP3   OH255735   3.638   4.232  13.680 -0.0322  0.3677 -0.0802
11415TIP3    H155736   3.651   4.325  13.663 -0.3523  0.5208  0.4824
11415TIP3    H255737   3.569   4.229  13.746  2.2133 -0.0924  2.4343
11416TIP3   OH255738   3.591   6.191  13.802  0.4139  0.0703  0.0413
11416TIP3    H155739   3.528   6.123  13.825  1.7233 -0.6302  1.7823
11416TIP3    H255740   3.635   6.212  13.884  1.6413  1.3722 -0.8941
11417TIP3   OH255741   6.349   2.261   2.479 -0.6577 -0.2243 -0.0753
11417TIP3    H155742   6.257   2.262   2.504 -0.5434 -1.2939  0.4348
11417TIP3    H255743   6.389   2.330   2.533 -0.9914 -0.3876  0.3915
11418TIP3   OH255744   3.005   5.774   5.476 -0.3501  0.0684 -0.0261
11418TIP3    H155745   2.952   5.727   5.412  0.3167  0.4498 -0.8758
11418TIP3    H255746   3.085   5.721   5.485  0.7613  1.3853 -1.5898
11419TIP3   OH255747   5.214   4.042  12.234  0.6065  0.1927  0.3801
11419TIP3    H155748   5.222   3.994  12.152 -0.3355  0.0586  0.3542
11419TIP3    H255749   5.177   3.978  12.295 -0.5472  0.8330  0.3778
11420TIP3   OH255750   2.438   4.067   6.701 -0.3468  0.5865 -0.5863
11420TIP3    H155751   2.508   4.009   6.730 -1.5424 -0.6821 -0.1403
11420TIP3    H255752   2.476   4.116   6.628  0.9178 -0.2421 -0.5129
11421TIP3   OH255753   5.663   4.835  11.185 -0.0162  0.3234  0.3434
11421TIP3    H155754   5.646   4.879  11.269  2.3060 -0.0405  1.0749
11421TIP3    H255755   5.602   4.876  11.124  0.1827  2.6534  1.5833
11422TIP3   OH255756   1.256   2.614  11.874 -0.4560 -0.2189 -0.5148
11422TIP3    H155757   1.166   2.583  11.881 -1.5345  2.5628 -0.6841
11422TIP3    H255758   1.283   2.629  11.964 -0.3117 -0.5921 -0.4919
11423TIP3   OH255759   1.240   5.614  10.898  0.3541 -0.1386 -0.4838
11423TIP3    H155760   1.279   5.587  10.816  0.7315 -0.3963 -0.2217
11423TIP3    H255761   1.167   5.553  10.912  0.2198 -0.0236 -0.6803
11424TIP3   OH255762   1.742   0.580  16.708 -0.0804 -0.2977  0.3786
11424TIP3    H155763   1.719   0.558  16.798 -0.9700  0.5513  0.3748
11424TIP3    H255764   1.745   0.676  16.707  0.6903 -0.3135 -0.3197
11425TIP3   OH255765   6.798   2.233   1.355 -0.2159  0.3216  0.2703
11425TIP3    H155766   6.825   2.317   1.317  4.0120 -0.4344  1.1115
11425TIP3    H255767   6.857   2.169   1.315 -1.3025 -1.7968  1.8946
11426TIP3   OH255768   0.735   0.979   0.087  0.6905  0.0539  0.5051
11426TIP3    H155769   0.764   1.032   0.012 -0.1487  0.8410  0.7148
11426TIP3    H255770   0.686   1.041   0.142 -1.1756 -1.1407  0.2738
11427TIP3   OH255771   1.074   0.650  13.189 -0.7233 -0.7343  0.2796
11427TIP3    H155772   1.040   0.694  13.267  0.7620  1.0871 -0.0293
11427TIP3    H255773   1.169   0.662  13.194 -0.6570  0.7083 -2.4996
11428TIP3   OH255774   0.814   0.848   4.707 -0.9911  0.3687  0.4788
11428TIP3    H155775   0.772   0.925   4.745 -1.1059 -0.0574  1.2148
11428TIP3    H255776   0.826   0.871   4.614  0.3182  1.8693  0.9780
11429TIP3   OH255777   5.628   3.451   4.521  0.4648  0.0554 -0.1767
11429TIP3    H155778   5.582   3.377   4.560  1.8635 -0.4328  0.5970
11429TIP3    H255779   5.559   3.500   4.475 -0.4764 -1.7885 -0.8564
11430TIP3   OH255780   4.392   4.459   4.330 -0.2054  0.3256 -0.0989
11430TIP3    H155781   4.478   4.459   4.373  0.5444  1.9043 -1.4662
11430TIP3    H255782   4.331   4.488   4.398  0.2778 -0.9825  0.9403
11431TIP3   OH255783   5.447   5.781  10.729  0.1850 -0.0787 -0.1301
11431TIP3    H155784   5.472   5.714  10.665  0.5404 -0.5047  0.4461
11431TIP3    H255785   5.352   5.790  10.718  0.1319 -0.6884 -0.2037
11432TIP3   OH255786   2.288   0.475   1.675 -0.4628 -0.2643  0.2524
11432TIP3    H155787   2.256   0.499   1.761 -1.9067  1.2288 -0.6351
11432TIP3    H255788   2.212   0.486   1.617  1.0704  1.2973 -1.6071
11433TIP3   OH255789   0.893   5.506  14.002 -0.1271  0.3217  0.0101
11433TIP3    H155790   0.983   5.478  14.019 -0.4461 -0.0601  1.1443
11433TIP3    H255791   0.900   5.600  13.984  0.8097 -0.1715 -2.6257
11434TIP3   OH255792   5.259   2.735  15.050 -0.3509 -0.2536 -0.2143
11434TIP3    H155793   5.321   2.805  15.071 -2.2974  1.1887  1.1289
11434TIP3    H255794   5.214   2.765  14.971  1.5991 -2.0291 -2.1316
11435TIP3   OH255795   3.867   4.924   4.325 -0.2703 -0.1171  0.2806
11435TIP3    H155796   3.819   4.870   4.262 -1.7073  0.7662  0.5537
11435TIP3    H255797   3.837   5.013   4.307  2.2861  0.6925 -0.3819
11436TIP3   OH255798   0.978   5.056   1.219  0.2929 -0.0882  0.0815
11436TIP3    H155799   1.010   5.107   1.294 -0.4109  0.1841  0.1995
11436TIP3    H255800   0.883   5.059   1.226  0.2317 -0.8894 -0.2768
11437TIP3   OH255801   1.932   2.250   0.988  0.6598  0.2129 -0.4179
11437TIP3    H155802   1.988   2.281   1.059  2.2051 -0.3181 -1.3451
11437TIP3    H255803   1.988   2.252   0.911 -0.7162 -0.0474 -1.4627
11438TIP3   OH255804   5.934   5.873  13.230 -0.4153  0.1058  0.6599
11438TIP3    H155805   5.954   5.795  13.282 -2.2427 -1.0028 -0.2067
11438TIP3    H255806   6.013   5.887  13.177  0.0617 -0.9723  1.0587
11439TIP3   OH255807   1.009   0.675   3.748  0.5411  0.3759  0.0124
11439TIP3    H155808   0.929   0.710   3.788 -0.6101 -0.6034 -1.3351
11439TIP3    H255809   1.034   0.603   3.805 -1.3008 -1.2571 -1.1224
11440TIP3   OH255810   6.811   2.190   4.975 -0.0117 -0.4545  0.4021
11440TIP3    H155811   6.859   2.107   4.978  0.3448 -0.3109 -0.8356
11440TIP3    H255812   6.719   2.166   4.980  0.1046 -0.9099  0.3621
11441TIP3   OH255813   3.853   2.574   4.110 -0.7852  0.0627 -0.2711
11441TIP3    H155814   3.831   2.657   4.067  0.1825 -0.5333 -2.0172
11441TIP3    H255815   3.949   2.571   4.110 -0.7287  0.0062  1.9759
11442TIP3   OH255816   6.092   5.693   2.533 -0.2545 -0.1751 -0.4944
11442TIP3    H155817   6.018   5.636   2.554  0.2044 -0.8513 -0.7065
11442TIP3    H255818   6.099   5.690   2.438 -0.9123  1.1108 -0.6044
11443TIP3   OH255819   0.703   1.875  12.060 -0.4647  0.3537  0.2174
11443TIP3    H155820   0.706   1.814  11.986  0.0416  0.7932 -0.1400
11443TIP3    H255821   0.668   1.824  12.133  0.0024 -0.3730 -0.0550
11444TIP3   OH255822   3.234   4.145  13.009 -0.9303 -0.3916 -0.0906
11444TIP3    H155823   3.205   4.054  13.020  0.4518 -0.9463 -0.7918
11444TIP3    H255824   3.180   4.179  12.938 -0.6882 -1.0405 -0.5970
11445TIP3   OH255825   1.014   1.122  15.287  0.3427  0.1253 -0.5233
11445TIP3    H155826   0.976   1.205  15.258 -0.8186 -0.3283 -0.3826
11445TIP3    H255827   1.072   1.096  15.216 -0.7221  0.1528 -1.4448
11446TIP3   OH255828   3.381   0.065   6.261 -0.7751  0.5423  0.1335
11446TIP3    H155829   3.316   0.059   6.331  0.5530  0.0369  1.4030
11446TIP3    H255830   3.413  -0.024   6.250  1.0881  1.0324  0.9955
11447TIP3   OH255831   3.883   5.111  16.700  0.2433 -0.4073 -0.5918
11447TIP3    H155832   3.884   5.153  16.786  0.8196 -0.8309 -0.3853
11447TIP3    H255833   3.913   5.022  16.716 -0.8745 -0.8864 -1.0320
11448TIP3   OH255834   0.441   5.821   0.534  0.6527  0.6078 -0.1667
11448TIP3    H155835   0.384   5.769   0.591 -0.7833  0.9260 -1.2591
11448TIP3    H255836   0.439   5.776   0.450 -0.1150  2.0265 -0.9542
11449TIP3   OH255837   0.027   0.459  11.669 -0.3126 -0.7265 -0.0159
11449TIP3    H155838  -0.013   0.521  11.609 -1.0357 -1.3731 -0.2168
11449TIP3    H255839   0.106   0.430  11.625  0.6706  0.9039  0.5790
11450TIP3   OH255840   3.898   5.012   2.947  0.4751 -0.1667  0.2003
11450TIP3    H155841   3.826   4.984   2.892  1.1193 -0.1650 -0.6605
11450TIP3    H255842   3.910   4.941   3.010  0.0412 -0.3812  0.0405
11451TIP3   OH255843   6.739   4.897   1.144  0.3373  0.0745 -0.8434
11451TIP3    H155844   6.818   4.843   1.148  0.5914  0.4913  2.3262
11451TIP3    H255845   6.673   4.846   1.191 -0.8184  0.4786 -1.9871
11452TIP3   OH255846   2.152   1.426   0.969  0.1159 -0.0101 -0.1404
11452TIP3    H155847   2.204   1.369   0.912 -1.1308 -2.7248  1.2383
11452TIP3    H255848   2.189   1.413   1.057 -1.0043  0.3439  0.4032
11453TIP3   OH255849   5.245   4.288  13.179  0.4915 -0.1899  0.6087
11453TIP3    H155850   5.260   4.265  13.271 -0.0106 -0.4512  0.6285
11453TIP3    H255851   5.298   4.225  13.130  0.6204 -0.1633  0.7115
11454TIP3   OH255852   6.287   1.622  14.018  0.0870 -0.0817 -0.0498
11454TIP3    H155853   6.211   1.679  14.006 -0.0683 -0.6631 -2.1139
11454TIP3    H255854   6.254   1.533  14.005  0.8906 -0.4386  0.2639
11455TIP3   OH255855   5.413   3.241  15.106 -0.0592 -0.4257  0.6298
11455TIP3    H155856   5.416   3.264  15.199  0.3182 -2.0124  1.0433
11455TIP3    H255857   5.325   3.266  15.078  0.7002  2.6754  0.6386
11456TIP3   OH255858   2.890   1.096  12.704  0.3871 -0.0817 -1.0841
11456TIP3    H155859   2.883   1.024  12.642 -1.6338 -0.3768 -0.5800
11456TIP3    H255860   2.805   1.140  12.700 -0.4821 -1.0474  2.5038
11457TIP3   OH255861   4.026   4.899  11.568 -0.4036  0.2941  0.3728
11457TIP3    H155862   3.950   4.915  11.625 -0.3109  1.7155  0.1496
11457TIP3    H255863   3.987   4.874  11.484 -0.5334 -2.4355  1.1533
11458TIP3   OH255864   4.400   3.939  12.284  0.6084 -0.3729 -0.1819
11458TIP3    H155865   4.481   3.990  12.275  0.1063  0.1266 -2.8262
11458TIP3    H255866   4.334   4.004  12.309  0.3316  0.0263 -1.7897
11459TIP3   OH255867   5.891   0.233  13.641  0.5693 -0.2896 -0.0425
11459TIP3    H155868   5.924   0.199  13.558 -0.8990  1.0883 -1.2836
11459TIP3    H255869   5.908   0.327  13.637 -0.4653 -0.0417  0.7310
11460TIP3   OH255870   2.450   4.476   2.063  0.5438  0.0833 -0.1063
11460TIP3    H155871   2.519   4.541   2.077  0.7295 -0.4813  1.8662
11460TIP3    H255872   2.486   4.394   2.098 -0.0170 -0.9189 -1.7558
11461TIP3   OH255873   3.919   2.286   5.727 -0.0764  0.0459  0.7823
11461TIP3    H155874   3.929   2.329   5.812 -0.9963 -0.7302  1.2980
11461TIP3    H255875   3.863   2.211   5.745 -0.6944  0.1533 -0.6049
11462TIP3   OH255876   1.985   0.671  13.880  0.0737  0.0527 -0.5494
11462TIP3    H155877   2.042   0.707  13.811  1.2107 -1.1886 -0.3011
11462TIP3    H255878   1.959   0.585  13.847 -1.7813  0.6263 -0.6916
11463TIP3   OH255879   4.546   3.656   1.147  0.1804  0.2577  0.2277
11463TIP3    H155880   4.524   3.710   1.223 -1.7305  0.7519 -0.6322
11463TIP3    H255881   4.578   3.574   1.185 -2.4340 -0.2208  1.6629
11464TIP3   OH255882   3.095   5.670   3.522 -0.0438 -0.4984 -0.0409
11464TIP3    H155883   3.168   5.686   3.583  0.1053  1.4430 -0.6683
11464TIP3    H255884   3.136   5.628   3.447  0.2085 -0.5555  0.1244
11465TIP3   OH255885   2.421   0.051  12.036  0.0831 -0.3171 -0.0513
11465TIP3    H155886   2.494   0.011  11.989  1.1764  1.3252  0.1511
11465TIP3    H255887   2.449   0.052  12.127 -0.7901 -0.8982  0.2284
11466TIP3   OH255888   4.942   0.817   6.356 -1.1332 -0.5801  0.1108
11466TIP3    H155889   4.984   0.902   6.367 -1.4116 -0.6246  1.6505
11466TIP3    H255890   4.875   0.813   6.424 -2.6920 -1.1156 -1.3704
11467TIP3   OH255891   2.100   4.951  15.294 -0.0825  0.2549 -0.2390
11467TIP3    H155892   2.108   5.039  15.329 -1.2795  1.4956 -2.8278
11467TIP3    H255893   2.122   4.960  15.201 -1.6506 -1.8570 -0.8988
11468TIP3   OH255894   4.136   1.087  12.838  0.1155 -0.1276 -0.0577
11468TIP3    H155895   4.053   1.130  12.817  1.6315  2.9029 -0.3257
11468TIP3    H255896   4.120   0.995  12.818 -3.0010  0.3980 -0.5726
11469TIP3   OH255897   4.103   1.593  16.261  0.5937 -0.6363  0.7007
11469TIP3    H155898   4.112   1.683  16.291 -3.6186 -0.2035  1.2183
11469TIP3    H255899   4.123   1.540  16.338  1.4392 -0.1136  0.8566
11470TIP3   OH255900   6.389   1.896  14.192  0.2282 -0.3125  0.2846
11470TIP3    H155901   6.309   1.936  14.225 -0.9744 -0.7069 -2.0151
11470TIP3    H255902   6.412   1.832  14.259 -1.6120 -0.4777  0.8105
11471TIP3   OH255903   6.004   3.124  14.715 -0.4524  0.3332 -0.2469
11471TIP3    H155904   5.998   3.181  14.792 -1.4973  0.4672 -0.4179
11471TIP3    H255905   6.068   3.168  14.658 -1.0624  1.2209 -0.2656
11472TIP3   OH255906   4.437   5.021   4.073  0.0297 -0.3366 -0.1841
11472TIP3    H155907   4.517   5.053   4.114  0.7365 -1.0283 -0.9776
11472TIP3    H255908   4.414   5.088   4.009  0.0084 -0.1707 -0.0045
11473TIP3   OH255909   1.125   6.174   4.971 -0.4903  0.4658 -0.5195
11473TIP3    H155910   1.064   6.104   4.949  0.1249  0.3940 -2.1800
11473TIP3    H255911   1.071   6.241   5.013 -1.4770 -0.1389 -0.7908
11474TIP3   OH255912   4.817   1.898  11.887  0.3449  0.3193 -0.1016
11474TIP3    H155913   4.795   1.988  11.912  0.7018  0.9401 -1.9245
11474TIP3    H255914   4.734   1.861  11.856  0.1548 -0.0819  0.8260
11475TIP3   OH255915   5.762   6.063  13.404 -0.5023 -0.1954 -0.3428
11475TIP3    H155916   5.708   6.067  13.482  0.3850 -1.5480  0.3742
11475TIP3    H255917   5.764   5.971  13.380 -0.4753  0.1499 -1.7733
11476TIP3   OH255918   5.082   1.735  11.918  0.0878  0.4204  0.5262
11476TIP3    H155919   5.073   1.671  11.989 -1.8649 -2.0338 -1.7343
11476TIP3    H255920   4.994   1.770  11.906  0.7391  2.1057  0.4006
11477TIP3   OH255921   3.307   4.502   3.140 -0.1300 -0.1466  0.0357
11477TIP3    H155922   3.232   4.497   3.081 -0.4898 -0.3821  0.5068
11477TIP3    H255923   3.272   4.541   3.221  0.0747 -0.9594  0.5310
11478TIP3   OH255924   0.350   0.389   5.625  0.5552  0.2547  0.8761
11478TIP3    H155925   0.283   0.321   5.617  1.4570 -0.5231 -0.4449
11478TIP3    H255926   0.325   0.455   5.560  1.8222 -0.7406 -0.6917
11479TIP3   OH255927   6.273   4.503   1.828  0.3398  0.1861 -0.2313
11479TIP3    H155928   6.289   4.596   1.816 -0.5101  0.2710 -0.7716
11479TIP3    H255929   6.246   4.472   1.741 -0.6426 -0.2929  0.2295
11480TIP3   OH255930   3.577   5.241  16.289 -0.6745  0.2345 -0.1268
11480TIP3    H155931   3.626   5.254  16.370 -0.9057  1.5246 -0.1719
11480TIP3    H255932   3.634   5.185  16.235 -0.3936 -0.3859  0.8006
11481TIP3   OH255933   0.871   6.785  13.834  0.4378 -0.2776  0.1020
11481TIP3    H155934   0.947   6.732  13.857 -0.9404 -3.4660 -1.9004
11481TIP3    H255935   0.852   6.762  13.743 -1.2131  2.6617 -0.4403
11482TIP3   OH255936   4.964   5.430   5.072 -0.1680  0.6223 -0.3057
11482TIP3    H155937   4.886   5.424   5.127 -0.6949 -0.3652 -1.1334
11482TIP3    H255938   5.014   5.502   5.110 -0.3085 -0.2673  1.7069
11483TIP3   OH255939   3.024   5.491  12.482  0.1423 -0.5169  0.1994
11483TIP3    H155940   3.010   5.399  12.460  1.7637 -0.8225  0.3320
11483TIP3    H255941   3.029   5.493  12.577  0.8355 -0.4218  0.1669
11484TIP3   OH255942   5.697   5.561   5.561  0.2406  0.2823 -0.0076
11484TIP3    H155943   5.687   5.511   5.642 -0.3788 -0.4855 -0.5434
11484TIP3    H255944   5.758   5.510   5.508  1.3069  1.2061  0.2864
11485TIP3   OH255945   0.557   4.582  16.013 -0.3447  0.1976 -0.0115
11485TIP3    H155946   0.553   4.671  16.047  0.0817  0.2587 -0.1189
11485TIP3    H255947   0.519   4.528  16.083  0.3510  0.3473  0.4944
11486TIP3   OH255948   5.393   3.843   1.244  0.0643  0.4229  0.0272
11486TIP3    H155949   5.386   3.762   1.194 -1.7877 -0.0072  0.9161
11486TIP3    H255950   5.386   3.913   1.178 -1.5497 -0.1348 -0.4321
11487TIP3   OH255951   2.180   6.026  11.248  0.3902  0.3473 -0.6764
11487TIP3    H155952   2.147   6.078  11.174 -1.0365 -0.3366 -0.5506
11487TIP3    H255953   2.102   5.994  11.292  1.1922  1.1310  1.4528
11488TIP3   OH255954   1.057   5.056   5.745  0.3500  0.6165  0.4349
11488TIP3    H155955   1.120   5.009   5.690  1.2841  2.4492 -0.1179
11488TIP3    H255956   0.983   4.995   5.753  0.9271 -0.4075 -1.3780
11489TIP3   OH255957   1.509   6.411   4.061 -0.2080  0.1001  0.8892
11489TIP3    H155958   1.540   6.501   4.054 -0.8895  0.2821  0.0200
11489TIP3    H255959   1.587   6.357   4.049 -0.2650  0.5203 -2.2659
11490TIP3   OH255960   2.715   2.154   6.506  0.3505  0.2742 -0.3364
11490TIP3    H155961   2.628   2.155   6.544  0.2505  1.1532 -0.5656
11490TIP3    H255962   2.703   2.189   6.417  1.1321  1.7321  0.0956
11491TIP3   OH255963   5.982   0.012  12.076  0.2278 -0.2684 -0.0311
11491TIP3    H155964   5.903   0.067  12.075 -1.1775 -2.1612 -1.7653
11491TIP3    H255965   5.995  -0.012  11.984  1.7988 -1.4460  0.4581
11492TIP3   OH255966   5.039   2.573   5.459 -0.4471  0.0004 -0.3720
11492TIP3    H155967   5.061   2.666   5.469  0.3294 -0.3114  1.1101
11492TIP3    H255968   5.053   2.555   5.366 -0.6768  1.3800 -0.6940
11493TIP3   OH255969   1.944   2.220  15.222  0.5153 -0.1064  0.1092
11493TIP3    H155970   1.896   2.174  15.154 -0.7000 -0.1883  0.9911
11493TIP3    H255971   1.877   2.250  15.283  1.4272  1.3840  0.4346
11494TIP3   OH255972   3.325   2.368  15.560 -0.3501 -0.0530  0.2927
11494TIP3    H155973   3.312   2.282  15.520 -0.0319 -0.8304  1.8102
11494TIP3    H255974   3.268   2.367  15.637  0.0970  0.8875  0.6428
11495TIP3   OH255975   6.002   5.979   0.279 -0.0418 -0.2955  0.3653
11495TIP3    H155976   5.984   5.944   0.366 -2.1395 -0.4046 -0.0592
11495TIP3    H255977   5.952   6.061   0.275  0.6000  0.0718 -0.4857
11496TIP3   OH255978   0.689   0.197   3.848 -0.1369 -0.9321 -0.2888
11496TIP3    H155979   0.617   0.142   3.818 -0.0938 -1.5787  0.7545
11496TIP3    H255980   0.768   0.145   3.829  0.2209  0.4224 -2.8820
11497TIP3   OH255981   4.315   1.783  16.078 -0.5119 -0.0504  0.0871
11497TIP3    H155982   4.245   1.844  16.053 -1.3238  0.2865  2.7886
11497TIP3    H255983   4.317   1.789  16.174  2.0118 -1.4395  0.1812
11498TIP3   OH255984   0.086   0.157  14.300 -0.9290 -0.0672 -0.6500
11498TIP3    H155985   0.055   0.161  14.210 -0.0309  0.1923 -0.9563
11498TIP3    H255986   0.145   0.232  14.309  0.8011 -1.3583 -0.5617
11499TIP3   OH255987   6.602   1.869  11.254 -0.7978  0.7189 -0.9735
11499TIP3    H155988   6.572   1.944  11.202  0.3751  2.3263  0.5436
11499TIP3    H255989   6.696   1.864  11.237 -0.7888 -0.1228 -0.7079
11500TIP3   OH255990   5.723   4.230   3.951  0.8022 -0.1400  0.2211
11500TIP3    H155991   5.798   4.207   3.897 -0.5719  0.2295 -1.9679
11500TIP3    H255992   5.660   4.159   3.936  0.1503  0.2923  0.8456
11501TIP3   OH255993   6.762   0.421   4.758 -0.1999  0.2168  0.3502
11501TIP3    H155994   6.722   0.455   4.838  0.2306  0.6486  0.3884
11501TIP3    H255995   6.848   0.463   4.754 -0.4136  0.5896 -0.6064
11502TIP3   OH255996   4.009   4.227  13.843 -0.6643 -0.6292 -0.5407
11502TIP3    H155997   3.981   4.316  13.822 -0.8470 -0.4045  0.5997
11502TIP3    H255998   4.054   4.235  13.927  0.2593 -1.4521 -0.9457
11503TIP3   OH255999   5.714   3.583  13.489 -0.7180 -0.1056  0.1349
11503TIP3    H156000   5.684   3.658  13.541  0.9112  1.4145 -0.9979
11503TIP3    H256001   5.779   3.619  13.430  0.7975 -2.6070  0.1316
11504TIP3   OH256002   0.326   5.939  11.864  0.2253  0.4770 -0.2130
11504TIP3    H156003   0.271   5.931  11.942 -1.4229  0.8594 -1.2888
11504TIP3    H256004   0.394   5.873  11.876 -0.3544  0.1149  1.2632
11505TIP3   OH256005   4.613   3.836  13.742 -0.2385  0.0367  0.0749
11505TIP3    H156006   4.566   3.874  13.667  0.8280 -0.6358 -0.9769
11505TIP3    H256007   4.589   3.743  13.741 -1.4117  0.2888  1.5274
11506TIP3   OH256008   1.757   0.005  14.760  0.6748  0.5238 -0.0001
11506TIP3    H156009   1.822  -0.055  14.724  2.7193  1.1308  2.4752
11506TIP3    H256010   1.682  -0.051  14.781  1.2522 -0.5815 -0.7972
11507TIP3   OH256011   5.544   4.248   3.197 -0.4044 -0.1082 -0.1712
11507TIP3    H156012   5.620   4.266   3.142  0.3029 -1.8363  0.1912
11507TIP3    H256013   5.471   4.242   3.136 -0.2438  1.3444 -0.5469
11508TIP3   OH256014   5.162   0.626  12.248 -0.0486  0.3852 -0.3719
11508TIP3    H156015   5.199   0.684  12.316 -0.2187 -1.0450  1.0028
11508TIP3    H256016   5.068   0.642  12.252  0.1263  2.3381 -2.2762
11509TIP3   OH256017   4.041   6.476   0.182 -0.2208  0.3165  0.0546
11509TIP3    H156018   4.029   6.475   0.087  0.2421 -0.3487 -0.0094
11509TIP3    H256019   4.136   6.466   0.194 -0.3818 -0.8149  0.5812
11510TIP3   OH256020   5.925   0.682   5.336 -0.2149 -0.1791 -0.2040
11510TIP3    H156021   5.939   0.726   5.252 -0.9809  3.0552  1.2097
11510TIP3    H256022   5.945   0.749   5.401  0.2755 -2.5410  2.2565
11511TIP3   OH256023   5.479   4.649   0.290  0.0041 -0.1909 -0.4478
11511TIP3    H156024   5.415   4.624   0.357  0.9369 -1.2133  0.1016
11511TIP3    H256025   5.428   4.695   0.224 -0.8797  1.2069  1.1483
11512TIP3   OH256026   0.554   6.315   3.369  0.0336  0.7454 -0.0726
11512TIP3    H156027   0.530   6.225   3.392 -1.4218  1.0198 -0.4430
11512TIP3    H256028   0.473   6.354   3.338  0.5797  2.2932  0.3766
11513TIP3   OH256029   0.858   3.921  11.913  0.0265 -0.0508  0.1010
11513TIP3    H156030   0.770   3.928  11.950 -0.2214 -1.3481 -0.1849
11513TIP3    H256031   0.908   3.875  11.980  0.9588  2.0969  0.9643
11514TIP3   OH256032   5.560   3.175  12.446  1.0326  0.3478  0.3633
11514TIP3    H156033   5.628   3.170  12.378  1.5289 -0.4226  0.8927
11514TIP3    H256034   5.602   3.137  12.523  0.3712  0.9334  1.0160
11515TIP3   OH256035   6.223   1.193   4.904 -0.1140 -0.4599  0.2882
11515TIP3    H156036   6.129   1.201   4.921 -0.3374 -0.8056 -0.7370
11515TIP3    H256037   6.230   1.127   4.836  0.8792 -0.4171  0.3295
11516TIP3   OH256038   2.404   5.491  15.591 -0.1116  0.3949 -0.4233
11516TIP3    H156039   2.337   5.454  15.534  1.4888 -0.8573 -1.5904
11516TIP3    H256040   2.403   5.435  15.669 -1.5030  1.3976  0.3190
11517TIP3   OH256041   5.789   4.736   3.251 -0.1024 -0.0971 -0.2497
11517TIP3    H156042   5.838   4.655   3.266 -1.5085 -0.7599  1.0624
11517TIP3    H256043   5.849   4.806   3.275  0.6383 -0.8216  0.0523
11518TIP3   OH256044   2.433   2.354   2.555 -0.2503  0.2690  0.0229
11518TIP3    H156045   2.524   2.325   2.551  0.7819  2.7345  2.5478
11518TIP3    H256046   2.396   2.308   2.630 -0.2187  1.2673  0.6767
11519TIP3   OH256047   1.985   3.619   2.931  0.1422 -0.5670  0.1971
11519TIP3    H156048   1.926   3.645   3.001  0.6340  0.4336  0.2626
11519TIP3    H256049   1.943   3.649   2.851  1.5535  2.2490  0.3940
11520TIP3   OH256050   5.864   4.338  16.626 -0.3155 -0.1732  0.3859
11520TIP3    H156051   5.770   4.352  16.617 -0.0077  0.4952 -2.8379
11520TIP3    H256052   5.895   4.413  16.676 -1.6355 -1.2783  3.0536
11521TIP3   OH256053   1.421   0.807   1.609 -0.5262 -0.1311 -0.5431
11521TIP3    H156054   1.476   0.819   1.531  0.1027 -0.2286 -0.1263
11521TIP3    H256055   1.334   0.788   1.574 -0.0641 -1.0607 -1.2392
11522TIP3   OH256056   4.887   5.966   3.703 -0.1608  0.8066  0.4672
11522TIP3    H156057   4.930   5.884   3.725 -1.3765  0.1113  0.3402
11522TIP3    H256058   4.858   6.003   3.787 -2.5971 -0.6120  0.3453
11523TIP3   OH256059   3.187   5.357  11.570 -0.4633  0.5203  0.3829
11523TIP3    H156060   3.228   5.432  11.529 -1.1325  1.4280  1.3236
11523TIP3    H256061   3.112   5.393  11.618 -1.7788 -0.9346 -0.4456
11524TIP3   OH256062   3.739   6.075   1.989 -0.2576  0.6400  0.3318
11524TIP3    H156063   3.774   6.094   1.902  1.1062 -1.9311  0.2206
11524TIP3    H256064   3.645   6.067   1.976 -0.0201 -0.2140 -1.0187
11525TIP3   OH256065   3.191   5.764   4.668  0.0851 -0.5122 -0.1749
11525TIP3    H156066   3.116   5.821   4.652  0.5366 -0.0251 -0.6230
11525TIP3    H256067   3.178   5.689   4.610  1.1817  0.7479 -2.1558
11526TIP3   OH256068   0.759   2.810   5.916 -0.4696 -0.0598  0.3728
11526TIP3    H156069   0.785   2.792   6.007  2.9636  1.4420 -0.1206
11526TIP3    H256070   0.765   2.725   5.872  2.6840 -0.1125  0.6598
11527TIP3   OH256071   1.207   2.276   2.721  0.1944  0.6121 -0.4216
11527TIP3    H156072   1.276   2.250   2.660  1.5422  2.7819  0.0388
11527TIP3    H256073   1.129   2.286   2.666  0.8107  0.3226 -1.3781
11528TIP3   OH256074   2.809   1.483  12.159 -0.1600 -0.1640 -0.1346
11528TIP3    H156075   2.723   1.516  12.134 -0.0472  0.5084  0.3551
11528TIP3    H256076   2.811   1.393  12.125 -1.7952 -0.8644  1.4555
11529TIP3   OH256077   5.009   4.999   3.076 -0.1702 -0.3344 -0.1406
11529TIP3    H156078   4.935   5.058   3.086 -1.3932 -1.9304  0.8310
11529TIP3    H256079   5.013   4.982   2.981  1.5091  2.7720 -0.7449
11530TIP3   OH256080   0.244   5.891   5.607 -0.3681  0.0031 -0.3802
11530TIP3    H156081   0.210   5.974   5.638  1.8284  0.2601  1.7518
11530TIP3    H256082   0.214   5.827   5.673 -0.9957 -0.6758 -1.3053
11531TIP3   OH256083   1.608   0.566  13.879 -0.4113  0.2083  0.1521
11531TIP3    H156084   1.570   0.582  13.965 -1.4115  0.0424 -0.2481
11531TIP3    H256085   1.672   0.497  13.893 -0.8227 -0.0640  0.7040
11532TIP3   OH256086   5.563   5.354  13.140  0.1576 -0.0436 -0.1396
11532TIP3    H156087   5.522   5.412  13.076 -0.0698  0.2051  0.2301
11532TIP3    H256088   5.653   5.385  13.146 -0.2497  1.0309  0.9137
11533TIP3   OH256089   3.343   0.484  13.539  0.7882  0.4181 -0.2273
11533TIP3    H156090   3.364   0.453  13.627  0.7984 -0.7042 -0.6212
11533TIP3    H256091   3.414   0.451  13.484  0.6528  0.9055 -0.7046
11534TIP3   OH256092   6.795   3.487   4.892 -0.6047  0.4243  0.3193
11534TIP3    H156093   6.883   3.461   4.921 -0.5659  0.7976  0.5379
11534TIP3    H256094   6.810   3.553   4.825 -0.7138  0.2501  0.1244
11535TIP3   OH256095   1.508   1.315   1.931  0.3542 -0.3138 -0.2650
11535TIP3    H156096   1.417   1.304   1.904  0.2475 -0.0756 -0.0051
11535TIP3    H256097   1.551   1.233   1.906  0.2815 -0.0632 -1.2482
11536TIP3   OH256098   3.677   5.147   4.051  0.7918 -0.1773  0.2792
11536TIP3    H156099   3.739   5.166   4.121  1.1068 -0.7467  0.1652
11536TIP3    H256100   3.723   5.084   3.995 -0.4262 -1.7433  0.9791
11537TIP3   OH256101   5.149   4.039  16.027  0.2117 -0.2069 -0.3054
11537TIP3    H156102   5.162   4.134  16.021 -1.2008 -0.0636 -2.0623
11537TIP3    H256103   5.237   4.004  16.039  0.9978  1.2327 -1.4179
11538TIP3   OH256104   3.210   5.919  16.233  0.2673  0.6650 -0.7228
11538TIP3    H156105   3.292   5.938  16.278  0.2663 -1.6788  0.4022
11538TIP3    H256106   3.142   5.940  16.296  0.2083 -1.1665 -0.1164
11539TIP3   OH256107   4.333   3.185  14.010 -0.4856 -0.0638  0.0104
11539TIP3    H156108   4.369   3.097  14.004 -2.8763 -1.1965  0.9935
11539TIP3    H256109   4.269   3.190  13.939 -2.3378 -0.1935  1.5874
11540TIP3   OH256110   3.224   2.702  12.065  1.3752  0.3460  0.1522
11540TIP3    H156111   3.273   2.660  11.995  2.5932 -1.6266  2.0927
11540TIP3    H256112   3.132   2.683  12.045  1.8010 -1.8445  0.0271
11541TIP3   OH256113   5.786   2.098   3.170 -0.5499  0.4529 -0.3462
11541TIP3    H156114   5.879   2.104   3.191 -1.2484 -0.6398  4.2703
11541TIP3    H256115   5.760   2.188   3.149  1.3855  0.8829 -1.0733
11542TIP3   OH256116   6.361   0.948  12.843 -0.5795  0.3708 -0.1556
11542TIP3    H156117   6.453   0.922  12.833 -0.4604  1.0832 -0.9711
11542TIP3    H256118   6.338   0.986  12.759 -1.9781 -0.8637 -0.3747
11543TIP3   OH256119   1.749   0.298  11.357  0.2479  0.2990 -0.0098
11543TIP3    H156120   1.657   0.300  11.382  0.6637 -0.1458  1.6945
11543TIP3    H256121   1.756   0.225  11.296 -0.6766  0.8842 -0.8319
11544TIP3   OH256122   0.967   6.320  14.064  0.3791 -0.4584  0.1975
11544TIP3    H156123   0.986   6.269  13.985  1.4053  0.2520 -0.0332
11544TIP3    H256124   1.020   6.399  14.055 -0.5893  0.3064  0.9139
11545TIP3   OH256125   6.540   2.922  14.572 -0.5956 -0.3924  0.3789
11545TIP3    H156126   6.560   2.853  14.636  1.4759  0.8134  1.1122
11545TIP3    H256127   6.535   3.002  14.624 -2.2276  0.1539 -0.5613
11546TIP3   OH256128   6.523   6.613  16.814 -0.3040  0.5250  0.5649
11546TIP3    H156129   6.459   6.630  16.745  0.2169 -0.5854 -0.2215
11546TIP3    H256130   6.569   6.534  16.785 -0.9354 -0.7593  2.7956
11547TIP3   OH256131   1.788   4.790  14.302 -0.3289 -0.1692  0.3618
11547TIP3    H156132   1.765   4.842  14.379  0.8165 -0.3151  0.8182
11547TIP3    H256133   1.769   4.848  14.228  0.4631  0.7260  0.8433
11548TIP3   OH256134   6.002   5.385  15.572 -0.5428 -0.4440 -0.0090
11548TIP3    H156135   6.070   5.442  15.535  0.0382 -0.0267  1.6428
11548TIP3    H256136   5.998   5.311  15.511 -0.4512  0.7438 -1.5372
11549TIP3   OH256137   0.251   1.479   2.520 -0.3544 -0.1748 -0.4316
11549TIP3    H156138   0.315   1.517   2.580 -1.0025 -0.2478  0.3289
11549TIP3    H256139   0.194   1.552   2.496 -0.8419 -0.3862  0.0397
11550TIP3   OH256140   4.621   4.904  15.355  0.5165  0.5431  0.3108
11550TIP3    H156141   4.665   4.937  15.277  0.5093 -0.2959 -0.0600
11550TIP3    H256142   4.691   4.870  15.410  0.3688 -0.6309 -0.2007
11551TIP3   OH256143   0.604   3.117   2.507 -0.6056 -0.3872 -0.2701
11551TIP3    H156144   0.661   3.085   2.437  1.3553  1.7917  0.1856
11551TIP3    H256145   0.612   3.052   2.577  1.8022  0.0651 -0.0441
11552TIP3   OH256146   2.433   3.830  12.198  0.6500 -0.2943  0.5780
11552TIP3    H156147   2.437   3.923  12.222  0.5843  0.0392 -0.6494
11552TIP3    H256148   2.472   3.826  12.111 -1.0421 -1.1228 -0.1786
11553TIP3   OH256149   5.156   0.691  16.998  0.0100  0.1436  0.1934
11553TIP3    H156150   5.125   0.776  17.028  2.1449  2.0380 -2.4815
11553TIP3    H256151   5.130   0.687  16.906  0.5968 -1.8146  0.0612
11554TIP3   OH256152   1.949   0.757   2.035 -0.5540 -0.2902 -0.2968
11554TIP3    H156153   1.916   0.770   2.123  1.5472  4.3466  0.1396
11554TIP3    H256154   1.885   0.801   1.978  0.2845  0.7507 -0.4735
11555TIP3   OH256155   3.046   3.108   1.891  0.2039 -0.0343  0.3426
11555TIP3    H156156   3.003   3.030   1.856  0.3063  0.9483 -2.1358
11555TIP3    H256157   3.135   3.104   1.857 -0.8425  3.1373 -3.5162
11556TIP3   OH256158   4.065   4.313  16.357  0.2015  0.4815 -0.1616
11556TIP3    H156159   4.034   4.250  16.293 -2.9183 -0.0853  1.6684
11556TIP3    H256160   4.133   4.267  16.406 -0.1857 -0.5105 -0.5313
11557TIP3   OH256161   1.575   3.184  11.440  0.1127  0.1642 -0.4045
11557TIP3    H156162   1.513   3.112  11.451 -1.5077  1.4728 -0.5349
11557TIP3    H256163   1.658   3.150  11.474 -1.2457 -0.8037  2.2206
11558TIP3   OH256164   0.736   6.406  14.273 -0.4140 -0.7054 -0.0874
11558TIP3    H156165   0.739   6.501  14.265 -1.0581 -0.6936 -0.2384
11558TIP3    H256166   0.792   6.374  14.203 -1.3067 -0.4613 -0.9369
11559TIP3   OH256167   2.649   3.782   4.865 -0.4224  0.2989  0.1220
11559TIP3    H156168   2.734   3.825   4.871  0.6718 -1.6429 -0.7507
11559TIP3    H256169   2.654   3.730   4.786 -1.9659 -0.8613  0.7411
11560TIP3   OH256170   4.222   2.146   3.274  0.3305 -0.1665  0.3773
11560TIP3    H156171   4.300   2.180   3.317 -0.2045 -0.5554  1.6914
11560TIP3    H256172   4.218   2.054   3.301 -0.1270 -0.3722 -0.3599
11561TIP3   OH256173   1.247   3.930  15.364  0.3868 -0.3382  0.3036
11561TIP3    H156174   1.321   3.985  15.389  2.1322 -1.8313 -1.2986
11561TIP3    H256175   1.195   3.922  15.444  0.9773  2.1967  1.0149
11562TIP3   OH256176   5.929   5.127   3.626  0.3527 -0.4213  0.6698
11562TIP3    H156177   5.874   5.052   3.649  0.5060 -0.3139  1.4045
11562TIP3    H256178   6.016   5.105   3.661  1.1772 -1.2090 -1.6554
11563TIP3   OH256179   0.432   6.005  14.837 -0.0532 -0.7235  0.0664
11563TIP3    H156180   0.387   5.945  14.777  0.3784 -0.5307 -0.4507
11563TIP3    H256181   0.515   6.024  14.795  0.9030 -1.7489  1.4007
11564TIP3   OH256182   4.806   2.859   5.635 -0.4984 -0.3081 -0.2456
11564TIP3    H156183   4.849   2.880   5.552 -0.6161  2.6187  0.3271
11564TIP3    H256184   4.869   2.886   5.702 -2.1373  1.6620  0.5842
11565TIP3   OH256185   3.687   0.938   3.599  0.4967 -0.3208  0.0927
11565TIP3    H156186   3.702   0.870   3.665  1.4778  0.7681  1.0179
11565TIP3    H256187   3.773   0.954   3.560  0.2738  0.3903 -0.1274
11566TIP3   OH256188   3.907   6.796   4.877  0.2168 -0.4175 -0.0128
11566TIP3    H156189   3.898   6.850   4.955  0.2018  0.6339 -0.7126
11566TIP3    H256190   3.939   6.857   4.810  0.3862 -1.3288 -0.7820
11567TIP3   OH256191   3.733   2.259   6.748 -0.0289  1.0004  0.3937
11567TIP3    H156192   3.640   2.256   6.728  0.0430  2.4852 -0.3380
11567TIP3    H256193   3.752   2.175   6.789 -1.4387  0.2144 -0.5017
11568TIP3   OH256194   3.495   6.196  11.320  0.0606 -0.1615  0.0468
11568TIP3    H156195   3.519   6.103  11.328  1.9477  0.3861  1.4780
11568TIP3    H256196   3.550   6.229  11.248  1.0420  0.3088  0.9886
11569TIP3   OH256197   6.051   3.418   6.173 -0.4005 -0.3318 -0.1391
11569TIP3    H156198   5.958   3.428   6.195  0.1792 -1.2635  3.5003
11569TIP3    H256199   6.057   3.330   6.134 -0.8469 -1.2824  1.7868
11570TIP3   OH256200   2.447   5.254   0.215  0.5478  0.6919  0.2182
11570TIP3    H156201   2.370   5.308   0.196  0.9112  1.0730 -0.2249
11570TIP3    H256202   2.413   5.166   0.228  0.0377  0.8584  0.0285
11571TIP3   OH256203   3.331   0.366  16.235 -0.5120 -0.3641  0.6497
11571TIP3    H156204   3.325   0.412  16.151 -1.2080 -2.3336 -0.4484
11571TIP3    H256205   3.241   0.357  16.264 -0.3179 -0.2551  1.2957
11572TIP3   OH256206   3.393   2.661  12.333  0.6744 -0.2301 -0.2599
11572TIP3    H156207   3.364   2.635  12.246  0.9069  0.2330 -0.4786
11572TIP3    H256208   3.454   2.733  12.318 -0.0961  0.5764  0.3231
11573TIP3   OH256209   5.551   4.549  14.635  0.3123  0.0931 -0.0207
11573TIP3    H156210   5.567   4.587  14.721 -0.4025 -3.5307  1.9167
11573TIP3    H256211   5.463   4.577  14.611  0.6835  1.4810  0.1526
11574TIP3   OH256212   3.610   2.395   0.011  0.4806 -0.1914 -0.3743
11574TIP3    H156213   3.635   2.473   0.061 -2.5747  0.8165 -0.1637
11574TIP3    H256214   3.517   2.408  -0.008  0.6171 -2.3148 -3.1558
11575TIP3   OH256215   4.522   5.576  14.135  0.2047  0.2145  0.3577
11575TIP3    H156216   4.511   5.608  14.225 -0.0982  1.5879 -0.1362
11575TIP3    H256217   4.616   5.582  14.119  0.3944 -1.0168  0.9077
11576TIP3   OH256218   1.661   2.539  15.081  0.6376  0.4033 -0.2092
11576TIP3    H156219   1.586   2.480  15.071  2.4580 -2.2901  0.7102
11576TIP3    H256220   1.639   2.593  15.156 -0.9956  0.7668 -0.9054
11577TIP3   OH256221   5.110   1.478  15.364 -0.2190 -0.1019  0.1932
11577TIP3    H156222   5.068   1.392  15.363 -0.4347 -0.0446  2.0305
11577TIP3    H256223   5.097   1.511  15.453  0.3596  1.5960 -0.3046
11578TIP3   OH256224   4.009   4.635   5.279  0.0777  0.1221 -0.1002
11578TIP3    H156225   4.019   4.691   5.356 -0.9548 -0.0142  0.1437
11578TIP3    H256226   3.966   4.556   5.312  1.8610 -1.0132 -0.3668
11579TIP3   OH256227   0.037   3.834  11.826  0.1931  0.1041 -0.1798
11579TIP3    H156228   0.007   3.750  11.791  0.1741 -0.5062  1.2591
11579TIP3    H256229   0.117   3.853  11.776  0.5648 -1.0999 -0.0912
11580TIP3   OH256230   3.574   6.227  14.318  0.1785 -0.2735  0.3042
11580TIP3    H156231   3.530   6.143  14.327  0.5842 -0.5194  0.0430
11580TIP3    H256232   3.525   6.287  14.374  0.8157 -1.0424  1.7334
11581TIP3   OH256233   0.758   1.426   5.192  0.1846 -0.2221 -0.2597
11581TIP3    H156234   0.716   1.399   5.110 -0.0117 -4.0378  0.8878
11581TIP3    H256235   0.688   1.421   5.257  1.2526 -1.6859  0.8378
11582TIP3   OH256236   5.657   0.495  12.217  0.1217 -0.2732 -0.0525
11582TIP3    H156237   5.585   0.558  12.223  0.3010 -0.1780  3.0717
11582TIP3    H256238   5.661   0.471  12.125 -1.9962  1.9119 -0.8165
11583TIP3   OH256239   3.627   3.539  15.265 -0.1797 -0.3688  0.0101
11583TIP3    H156240   3.604   3.630  15.285 -0.3621 -0.5122  0.4521
11583TIP3    H256241   3.719   3.531  15.289 -0.5190 -0.6688  1.2506
11584TIP3   OH256242   4.534   1.804  15.709 -0.2889 -0.0308  0.2251
11584TIP3    H156243   4.520   1.833  15.619  0.5922 -0.4496 -0.0554
11584TIP3    H256244   4.447   1.777  15.739 -0.4787 -0.4875 -0.7147
11585TIP3   OH256245   6.216   2.104   5.376  0.0810 -0.4803 -0.3215
11585TIP3    H156246   6.272   2.061   5.312 -1.3941 -0.5786 -1.6061
11585TIP3    H256247   6.148   2.147   5.324 -0.5886  0.2961  1.1271
11586TIP3   OH256248   5.618   2.192   2.855 -0.0731  0.0379  0.4516
11586TIP3    H156249   5.605   2.113   2.803 -1.6010 -0.3040  1.3125
11586TIP3    H256250   5.627   2.161   2.945  2.5622  0.6217  0.4692
11587TIP3   OH256251   1.954   6.028   2.789  0.1751  0.2020 -0.2031
11587TIP3    H156252   2.005   6.046   2.868  1.3198  1.1878 -1.1279
11587TIP3    H256253   1.967   6.106   2.734  1.4406 -1.4459 -2.4036
11588TIP3   OH256254   5.761   3.237  14.022 -0.3938  0.8049 -0.5347
11588TIP3    H156255   5.728   3.154  13.988  1.9584 -0.1373 -0.6982
11588TIP3    H256256   5.764   3.225  14.117 -0.2427  0.7701 -0.5434
11589TIP3   OH256257   3.987   3.610  15.794 -0.0817 -0.1877  0.2216
11589TIP3    H156258   4.016   3.678  15.854 -2.0438 -0.7913  1.9519
11589TIP3    H256259   3.938   3.548  15.848 -0.3973 -1.7425 -1.6942
11590TIP3   OH256260   4.547   5.650  16.672  0.4861 -0.5557  0.2506
11590TIP3    H156261   4.483   5.631  16.603  0.3793 -0.0784  0.2133
11590TIP3    H256262   4.560   5.566  16.716 -1.2850 -0.3942  1.2000
11591TIP3   OH256263   4.274   1.824  16.863 -0.5009 -0.5073  0.6506
11591TIP3    H156264   4.251   1.777  16.783 -0.5947 -0.9291  0.9231
11591TIP3    H256265   4.283   1.915  16.836  0.1590 -0.7463  0.0238
11592TIP3   OH256266   4.134   1.063  14.221 -0.4263 -0.2884  0.0649
11592TIP3    H156267   4.183   1.139  14.252  0.1368 -0.4995 -0.2877
11592TIP3    H256268   4.169   1.047  14.133 -0.2859 -1.1801  0.2801
11593TIP3   OH256269   4.583   6.725  15.065 -0.4833  0.2587 -0.2969
11593TIP3    H156270   4.561   6.662  15.133 -1.3419  1.5935  0.7174
11593TIP3    H256271   4.499   6.743  15.021 -0.1028  0.0969 -1.1136
11594TIP3   OH256272   0.807   5.318  12.283 -0.2326  0.0065  0.2019
11594TIP3    H156273   0.863   5.394  12.264  1.3525 -1.0516  0.4952
11594TIP3    H256274   0.825   5.257  12.212  0.8961 -1.3483  1.5742
11595TIP3   OH256275   2.390   0.506  15.853 -0.3929  0.4049  0.6429
11595TIP3    H156276   2.406   0.414  15.876 -1.8374  0.4287  1.9027
11595TIP3    H256277   2.464   0.553  15.889  0.5575 -0.2845 -0.3447
11596TIP3   OH256278   4.506   3.618   4.666 -0.5181  0.2249  0.1488
11596TIP3    H156279   4.570   3.573   4.721  0.4334  0.5114 -0.6968
11596TIP3    H256280   4.468   3.550   4.611 -1.0006  0.0428  0.7021
11597TIP3   OH256281   1.829   4.292   4.635 -0.0340  0.0312 -0.5191
11597TIP3    H156282   1.743   4.275   4.673 -0.4948  1.7985 -0.7186
11597TIP3    H256283   1.883   4.322   4.708 -0.6874  2.6106 -1.0021
11598TIP3   OH256284   5.557   3.437   2.706  0.0262 -0.0367 -0.2829
11598TIP3    H156285   5.561   3.357   2.655 -0.5126 -1.0797  1.2350
11598TIP3    H256286   5.490   3.420   2.773  0.3114  1.4583  0.4332
11599TIP3   OH256287   0.102   4.289  15.285 -0.2693  0.5906  0.0910
11599TIP3    H156288   0.112   4.354  15.215 -1.2716 -0.4251 -1.0400
11599TIP3    H256289   0.140   4.331  15.362 -1.1933  2.6509 -0.5106
11600TIP3   OH256290   0.663   0.615  12.676 -0.0573  0.4803 -0.3399
11600TIP3    H156291   0.724   0.686  12.694 -0.1906  0.1693  1.5749
11600TIP3    H256292   0.719   0.543  12.645  0.5719  0.2993  1.0977
11601TIP3   OH256293   4.727   0.504   3.282  0.4729  0.0673  0.3712
11601TIP3    H156294   4.713   0.482   3.374 -0.0464 -0.3420  0.2060
11601TIP3    H256295   4.821   0.518   3.274  0.8273 -1.8541  0.5727
11602TIP3   OH256296   6.144   0.234   0.987 -0.3610  0.1754  0.4934
11602TIP3    H156297   6.182   0.320   1.002  2.9894 -1.1447  0.6199
11602TIP3    H256298   6.145   0.192   1.073  0.2417 -0.7044  0.0877
11603TIP3   OH256299   1.200   3.581   1.892 -0.7435 -0.0662  0.1817
11603TIP3    H156300   1.169   3.618   1.975  2.2731 -1.1002  1.9233
11603TIP3    H256301   1.154   3.498   1.884 -0.5709 -0.2735  1.2188
11604TIP3   OH256302   1.695   2.245  15.341  0.3297 -0.4797 -0.3680
11604TIP3    H156303   1.648   2.163  15.354 -0.7526 -0.0450 -1.3867
11604TIP3    H256304   1.632   2.302  15.298  0.6688  1.2922  1.3338
11605TIP3   OH256305   3.206   6.272   3.352  0.0988  0.4675  0.2547
11605TIP3    H156306   3.171   6.232   3.432 -1.9513  1.4501 -0.1033
11605TIP3    H256307   3.131   6.279   3.294  1.2431  1.2085 -1.1920
11606TIP3   OH256308   2.492   0.089   2.372  0.5165  0.0540 -0.0456
11606TIP3    H156309   2.498   0.140   2.291 -1.4966 -0.7012 -0.7142
11606TIP3    H256310   2.486   0.156   2.441 -1.3113  0.7737 -0.8380
11607TIP3   OH256311   2.285   2.055   2.931 -0.6768 -0.3412 -0.7140
11607TIP3    H156312   2.363   2.033   2.982 -0.9436  0.1293 -0.0877
11607TIP3    H256313   2.318   2.071   2.842 -0.0361  0.0014 -0.4204
11608TIP3   OH256314   3.808   4.898   1.385 -0.1844 -0.4906  0.1101
11608TIP3    H156315   3.831   4.816   1.431 -0.9080 -1.5055 -1.2781
11608TIP3    H256316   3.885   4.918   1.332  0.6594  0.6932  1.6901
11609TIP3   OH256317   4.509   2.987  11.777  0.2710 -0.0322  0.3527
11609TIP3    H156318   4.435   2.943  11.819  0.1712  0.2413  0.4600
11609TIP3    H256319   4.501   2.964  11.685  0.1233 -0.1048  0.3842
11610TIP3   OH256320   4.957   1.611  10.531 -0.1590  0.5891 -0.3282
11610TIP3    H156321   4.877   1.655  10.559 -0.1580 -1.3033  3.1433
11610TIP3    H256322   5.026   1.653  10.582  0.4191 -0.6431 -0.0700
11611TIP3   OH256323   2.466   1.330  16.823 -0.1007  0.1416 -0.3585
11611TIP3    H156324   2.483   1.237  16.807  0.9593  0.1349  0.5966
11611TIP3    H256325   2.380   1.346  16.784 -0.7534 -1.4711  0.3102
11612TIP3   OH256326   1.347   1.104  13.960  0.1361  0.1989  0.0355
11612TIP3    H156327   1.318   1.196  13.962  0.0821  0.2118 -0.8293
11612TIP3    H256328   1.401   1.098  13.881  1.3563 -0.1664  0.8619
11613TIP3   OH256329   1.986   5.965  15.901 -0.0454  0.6661  0.7842
11613TIP3    H156330   2.050   5.895  15.886 -0.8043 -0.0253  0.6891
11613TIP3    H256331   1.909   5.919  15.935 -1.1555  1.2412 -0.8392
11614TIP3   OH256332   0.405   6.795  12.117 -0.2517  0.1068  0.0067
11614TIP3    H156333   0.425   6.874  12.066 -1.2445  0.1474 -0.3402
11614TIP3    H256334   0.485   6.778  12.167  0.6219  0.2868 -1.2711
11615TIP3   OH256335   0.031   5.649   5.495  0.0052  0.1458  0.4097
11615TIP3    H156336  -0.007   5.666   5.581 -0.0021 -0.3751  0.5127
11615TIP3    H256337  -0.017   5.706   5.436  0.9661  1.5902  0.9500
11616TIP3   OH256338   0.394   4.762   1.753 -0.1430 -0.1507 -0.5161
11616TIP3    H156339   0.467   4.772   1.691  0.2758 -1.6678 -0.3057
11616TIP3    H256340   0.330   4.709   1.707 -0.8939  0.7100 -0.4915
11617TIP3   OH256341   5.627   4.773   0.733  0.1452  0.0809 -0.4196
11617TIP3    H156342   5.676   4.855   0.737 -0.1979  0.3564 -1.4627
11617TIP3    H256343   5.545   4.796   0.689  0.0395 -0.8173 -0.7210
11618TIP3   OH256344   6.586   2.278  12.880  0.3318 -0.2791 -0.0297
11618TIP3    H156345   6.570   2.205  12.941 -0.3412  0.3655  0.5739
11618TIP3    H256346   6.664   2.321  12.915 -0.9432  1.0363  1.3257
11619TIP3   OH256347   5.723   4.229   4.233 -0.3854 -0.2090  0.6328
11619TIP3    H156348   5.788   4.186   4.177  0.1461 -0.7670  1.6302
11619TIP3    H256349   5.675   4.287   4.175  0.5522 -0.3092 -0.2741
11620TIP3   OH256350   5.793   0.316   3.826  0.2632  0.1876 -0.1061
11620TIP3    H156351   5.876   0.333   3.871  0.1175 -3.1071  1.6835
11620TIP3    H256352   5.731   0.377   3.865  1.2983  1.0593  0.2302
11621TIP3   OH256353   6.173   4.743  10.672  0.3816 -0.1668 -0.5282
11621TIP3    H156354   6.203   4.769  10.585  1.0641 -0.7111 -0.4630
11621TIP3    H256355   6.081   4.720  10.660  0.6344 -0.8276 -1.2369
11622TIP3   OH256356   0.334   1.286   4.155  0.2309 -0.2215 -0.2758
11622TIP3    H156357   0.409   1.331   4.115  0.1809  1.4982  1.4086
11622TIP3    H256358   0.344   1.301   4.249 -3.0913  1.5668 -0.0492
11623TIP3   OH256359   3.784   4.767   4.093 -0.3336 -0.2188  0.3298
11623TIP3    H156360   3.824   4.796   4.011 -3.7108 -1.0013 -1.7658
11623TIP3    H256361   3.777   4.672   4.083 -2.6721 -0.1057  0.5402
11624TIP3   OH256362   6.577   4.824  15.874  0.1095 -0.1444 -0.1850
11624TIP3    H156363   6.559   4.869  15.791  0.0707  1.4347  0.6440
11624TIP3    H256364   6.644   4.877  15.916 -0.4537 -0.4608  1.1583
11625TIP3   OH256365   6.055   3.779   6.435 -0.5265  0.6371  0.0937
11625TIP3    H156366   6.098   3.783   6.349  0.1721 -0.8856  0.3438
11625TIP3    H256367   6.092   3.854   6.483  2.1520 -0.7187  0.3716
11626TIP3   OH256368   6.233   2.502   2.813  0.0298 -0.2910  0.2846
11626TIP3    H156369   6.293   2.434   2.783  0.1136 -0.5582  1.0372
11626TIP3    H256370   6.279   2.544   2.886 -0.1471  0.3773  0.0191
11627TIP3   OH256371   3.055   5.164  13.306  0.2720  0.4015  0.2068
11627TIP3    H156372   3.068   5.123  13.392  0.0693  0.3776  0.2256
11627TIP3    H256373   2.970   5.206  13.312  0.7313  1.3322  0.3839
11628TIP3   OH256374   1.331   5.945  15.960 -0.0153 -0.3700  0.5203
11628TIP3    H156375   1.257   5.897  15.924 -0.1653 -0.9551  1.5451
11628TIP3    H256376   1.302   6.035  15.966 -0.3073 -0.4325  0.0460
11629TIP3   OH256377   1.856   3.326   0.189 -0.6065  0.1517  0.4777
11629TIP3    H156378   1.902   3.379   0.253 -2.0119 -0.4853  2.0921
11629TIP3    H256379   1.922   3.264   0.157  0.0583  0.2800  1.5552
11630TIP3   OH256380   5.837   0.911  16.367 -0.6366  0.1932 -0.5086
11630TIP3    H156381   5.853   0.928  16.460 -0.5500 -1.0509 -0.2788
11630TIP3    H256382   5.924   0.898  16.330 -0.5890  1.7486 -1.0064
11631TIP3   OH256383   2.031   5.624  11.564  0.4893  0.1133  0.1569
11631TIP3    H156384   2.105   5.684  11.557  0.8088 -0.1978  0.7808
11631TIP3    H256385   1.979   5.641  11.485 -0.1010  2.1059  0.8930
11632TIP3   OH256386   2.547   5.232  14.749  0.1329  0.0825  0.0199
11632TIP3    H156387   2.533   5.170  14.677  1.8259 -0.7050  0.3173
11632TIP3    H256388   2.632   5.272  14.730  0.2076  0.4884  1.1377
11633TIP3   OH256389   4.089   5.167   0.782 -0.0094 -0.1537 -0.3100
11633TIP3    H156390   4.182   5.176   0.760 -0.1169 -1.5731 -1.5130
11633TIP3    H256391   4.083   5.085   0.830 -0.6634 -0.1152 -0.3085
11634TIP3   OH256392   5.920   0.742   5.050 -0.0805  0.5346  0.1467
11634TIP3    H156393   5.841   0.701   5.014 -0.0041  0.5371 -0.0272
11634TIP3    H256394   5.989   0.718   4.989  0.1944 -0.0543  0.6783
11635TIP3   OH256395   4.613   5.456  13.039  0.1932  0.5198  0.1526
11635TIP3    H156396   4.540   5.396  13.023 -0.2334  1.0520  0.0684
11635TIP3    H256397   4.691   5.403  13.025 -0.1787 -0.1271  0.5081
11636TIP3   OH256398   5.858   5.285   3.844  0.5708  0.1057 -0.2470
11636TIP3    H156399   5.920   5.230   3.796  0.1635  0.0691 -0.7326
11636TIP3    H256400   5.787   5.302   3.782  0.1530  0.2551  0.2628
11637TIP3   OH256401   1.538   2.442   5.644 -0.0266 -0.0121 -0.3318
11637TIP3    H156402   1.600   2.500   5.690 -1.2547  1.5148 -0.5296
11637TIP3    H256403   1.521   2.372   5.707  1.2624 -0.0229  0.0397
11638TIP3   OH256404   6.224   4.120  14.976 -0.3610 -0.9030 -0.2888
11638TIP3    H156405   6.253   4.072  15.053 -0.2502  1.6568  1.3857
11638TIP3    H256406   6.305   4.148  14.933 -0.4097 -1.1766 -0.5573
11639TIP3   OH256407   4.339   2.344   0.923 -0.0796  0.3379 -1.0459
11639TIP3    H156408   4.292   2.271   0.884  0.1368  0.4171 -1.4654
11639TIP3    H256409   4.284   2.372   0.996 -0.1851 -0.2099 -0.9154
11640TIP3   OH256410   4.203   5.595   1.853 -0.5183  0.3725 -0.9466
11640TIP3    H156411   4.229   5.594   1.760 -0.2007  0.8421 -0.8634
11640TIP3    H256412   4.115   5.632   1.853 -0.0506  1.5023 -0.9460
11641TIP3   OH256413   3.943   0.351   3.915 -0.7271  0.4078  0.0745
11641TIP3    H156414   3.917   0.306   3.834 -2.5132  1.0955  0.2180
11641TIP3    H256415   3.968   0.438   3.887 -0.4338  0.3500  0.1582
11642TIP3   OH256416   1.473   2.731  15.932  0.0699  0.4234 -0.0694
11642TIP3    H156417   1.539   2.666  15.954 -0.3917 -0.0765 -0.1227
11642TIP3    H256418   1.412   2.729  16.006 -1.7092 -1.5531 -1.4782
11643TIP3   OH256419   2.642   5.059  14.358 -0.1256  0.4114  0.0413
11643TIP3    H156420   2.672   5.006  14.431 -0.7049  0.4951  0.3391
11643TIP3    H256421   2.578   5.005  14.313 -0.1753  0.5730 -0.0856
11644TIP3   OH256422   5.478   1.319  10.497 -0.4158 -0.1454 -0.7798
11644TIP3    H156423   5.409   1.312  10.432  0.9981 -1.6548 -2.2150
11644TIP3    H256424   5.517   1.405  10.482 -1.7094  0.5663 -0.1876
11645TIP3   OH256425   0.261   2.922  11.230 -0.2381  0.4622 -0.0357
11645TIP3    H156426   0.181   2.974  11.217 -0.6469  0.5477  2.3436
11645TIP3    H256427   0.229   2.833  11.246  0.1785  0.3325  0.0988
11646TIP3   OH256428   5.732   2.254   2.132  0.3298 -0.3986  0.1499
11646TIP3    H156429   5.713   2.224   2.221  2.0950 -1.6067  0.1710
11646TIP3    H256430   5.693   2.342   2.128  0.5858 -0.1292  2.2580
11647TIP3   OH256431   3.974   3.925  17.002  0.4385 -0.3513  0.4929
11647TIP3    H156432   3.942   3.835  16.990  1.9616 -0.8318 -0.2485
11647TIP3    H256433   3.896   3.979  16.988  0.1032 -1.3998 -2.5579
11648TIP3   OH256434   5.211   6.797   0.716 -0.2813  0.6353 -0.8404
11648TIP3    H156435   5.184   6.772   0.627 -0.8259 -1.3727 -0.1610
11648TIP3    H256436   5.210   6.893   0.715 -3.1204  0.7074 -2.1788
11649TIP3   OH256437   6.010   2.540  13.476  0.7534  0.4918 -0.2424
11649TIP3    H156438   5.979   2.625  13.508 -0.6057 -0.0387 -0.0749
11649TIP3    H256439   5.939   2.508  13.421  1.3941 -0.3921 -0.5773
11650TIP3   OH256440   0.009   3.734   2.949  0.7191 -0.3369 -0.2788
11650TIP3    H156441   0.051   3.820   2.941  0.7781 -0.3396 -0.0208
11650TIP3    H256442   0.040   3.701   3.034 -2.5615  1.1742  1.7308
11651TIP3   OH256443   2.045   4.027   2.223 -0.0828 -0.3896 -0.1811
11651TIP3    H156444   2.107   4.064   2.160 -2.4195  2.6622 -0.9253
11651TIP3    H256445   2.059   4.077   2.303  0.0461 -1.3808  0.4303
11652TIP3   OH256446   3.631   4.019  10.647 -0.2034  0.7876 -0.3431
11652TIP3    H156447   3.711   3.980  10.682 -0.2012  0.5524 -0.6004
11652TIP3    H256448   3.623   3.982  10.559 -1.2442 -0.1584  0.1187
11653TIP3   OH256449   3.219   5.735  15.322 -0.1438  0.2890  0.5882
11653TIP3    H156450   3.179   5.798  15.262  1.1057  0.4001 -0.1394
11653TIP3    H256451   3.236   5.786  15.402  2.6273  1.4763 -0.6281
11654TIP3   OH256452   4.282   3.195   1.321 -0.9642  0.2331 -0.7564
11654TIP3    H156453   4.252   3.108   1.346  2.6114 -0.5666  1.4554
11654TIP3    H256454   4.303   3.187   1.227  1.1894 -2.0376 -0.1865
11655TIP3   OH256455   0.509   6.298  12.526 -0.4703  0.4803 -0.1802
11655TIP3    H156456   0.579   6.247  12.485  0.0579  0.6956  0.4316
11655TIP3    H256457   0.431   6.244  12.516  0.1666 -0.6846  0.8759
11656TIP3   OH256458   2.530   5.922   0.659  0.2193 -0.0716  0.1442
11656TIP3    H156459   2.577   5.862   0.601  0.2033 -1.1829  1.2571
11656TIP3    H256460   2.587   5.932   0.735 -0.7188 -0.3556  0.9027
11657TIP3   OH256461   1.515   5.352   1.991  0.4716  0.1575 -0.0911
11657TIP3    H156462   1.528   5.279   2.052 -0.1425 -0.7008 -0.9698
11657TIP3    H256463   1.602   5.391   1.982  0.9692 -0.9500 -0.2099
11658TIP3   OH256464   0.897   3.539  14.126 -0.1272  0.3009  0.3838
11658TIP3    H156465   0.849   3.469  14.171  0.1331 -0.6993 -0.8252
11658TIP3    H256466   0.875   3.527  14.033  1.3141  0.7105 -0.0365
11659TIP3   OH256467   5.160   4.412   6.299  0.6933 -0.4525 -0.0376
11659TIP3    H156468   5.125   4.324   6.314  0.7169 -0.7475 -1.5847
11659TIP3    H256469   5.241   4.415   6.350  0.5123 -1.2002  0.3027
11660TIP3   OH256470   0.744   5.275  13.016  0.7589 -0.2839 -0.3891
11660TIP3    H156471   0.736   5.195  13.067  1.8296 -0.7670 -0.9509
11660TIP3    H256472   0.837   5.297  13.020  0.5515  0.6864 -0.6141
11661TIP3   OH256473   6.687   0.298   1.771 -0.5791 -0.5779  0.1756
11661TIP3    H156474   6.725   0.285   1.684  1.4845  1.4613  0.6803
11661TIP3    H256475   6.632   0.376   1.763  2.0830  1.5691  1.2713
11662TIP3   OH256476   6.276   4.117  15.665 -0.5821 -0.5027 -0.1603
11662TIP3    H156477   6.203   4.080  15.714 -1.6341  0.7781 -0.7279
11662TIP3    H256478   6.271   4.074  15.579  0.7007 -2.0493  0.4810
11663TIP3   OH256479   1.747   3.311  15.446 -0.4124  0.3024 -0.2102
11663TIP3    H156480   1.756   3.374  15.517  1.0614  1.2535 -1.1846
11663TIP3    H256481   1.803   3.237  15.472  0.3142  0.7511 -0.4587
11664TIP3   OH256482   4.325   5.663   5.842 -0.5437 -0.2791 -0.2317
11664TIP3    H156483   4.412   5.634   5.870 -0.5604 -0.8321 -0.7362
11664TIP3    H256484   4.284   5.697   5.921  0.2344  0.2480 -0.0470
11665TIP3   OH256485   1.733   4.229   1.266 -0.4097  0.3973 -0.4381
11665TIP3    H156486   1.692   4.276   1.338 -0.3953  0.0183 -0.1775
11665TIP3    H256487   1.717   4.284   1.189 -1.5571  0.1830 -0.3800
11666TIP3   OH256488   5.310   2.601   4.745 -0.0673 -0.1652 -0.3623
11666TIP3    H156489   5.357   2.641   4.818  1.0348  0.9943 -1.6472
11666TIP3    H256490   5.377   2.589   4.677 -1.2133 -0.4787 -1.4841
11667TIP3   OH256491   0.037   1.644   2.390  0.0933 -0.1567 -0.0456
11667TIP3    H156492   0.045   1.640   2.295  0.6397  0.8202 -0.0495
11667TIP3    H256493  -0.005   1.728   2.408 -0.7208 -0.6779  0.5389
11668TIP3   OH256494   4.429   2.670   1.966  0.3041 -0.0191  0.2074
11668TIP3    H156495   4.465   2.646   1.881 -0.7441  0.2377 -0.3225
11668TIP3    H256496   4.478   2.748   1.992  0.6329 -0.1070 -0.1540
11669TIP3   OH256497   0.748   1.056  15.969  0.1614 -0.0311 -0.4631
11669TIP3    H156498   0.677   1.034  15.909 -0.2310 -0.5967  0.1974
11669TIP3    H256499   0.824   1.009  15.935 -0.0486 -0.3148 -0.5390
11670TIP3   OH256500   4.935   3.238  11.349  0.0912 -0.4263 -0.8071
11670TIP3    H156501   4.986   3.271  11.423 -1.5973 -0.0126  0.2284
11670TIP3    H256502   4.885   3.314  11.318 -2.8558 -1.5333  0.7672
11671TIP3   OH256503   2.783   6.173   3.347  0.0772  0.2703 -0.1286
11671TIP3    H156504   2.807   6.172   3.440 -2.6267 -0.5556  0.6732
11671TIP3    H256505   2.783   6.265   3.323 -0.9993  0.6649  1.2726
11672TIP3   OH256506   0.993   1.736  12.757  0.1321 -0.3687 -0.0212
11672TIP3    H156507   0.968   1.676  12.687  0.5538 -0.5732 -0.0020
11672TIP3    H256508   1.070   1.695  12.797 -0.3468 -0.4598  0.8250
11673TIP3   OH256509   2.961   4.955   4.442  0.0138 -0.6241  0.0581
11673TIP3    H156510   2.938   4.915   4.526 -0.7324  2.9256  1.7076
11673TIP3    H256511   3.057   4.951   4.439 -0.0115 -2.1737  0.2359
11674TIP3   OH256512   2.159   2.861   1.510  0.1397  0.5467  0.0454
11674TIP3    H156513   2.219   2.901   1.574 -0.4075  1.2119  0.1584
11674TIP3    H256514   2.193   2.772   1.498  2.3196  1.4722 -1.3605
11675TIP3   OH256515   2.478   2.944  15.227 -0.2915 -0.0692  0.4570
11675TIP3    H156516   2.509   2.894  15.303 -0.7375 -0.1205  0.6092
11675TIP3    H256517   2.502   3.035  15.247 -0.1729 -0.1185  0.5386
11676TIP3   OH256518   4.558   5.403   3.828  0.2272 -0.2574 -0.2460
11676TIP3    H156519   4.604   5.363   3.902 -0.3093  1.1990  0.9202
11676TIP3    H256520   4.621   5.403   3.757  2.3446  2.2140  1.4472
11677TIP3   OH256521   4.530   6.093  11.169 -0.9722  0.4692  0.0041
11677TIP3    H156522   4.619   6.091  11.202 -1.4463  1.2083  1.4516
11677TIP3    H256523   4.524   6.019  11.109  0.3387 -0.1656  0.6151
11678TIP3   OH256524   3.126   2.032  15.576 -0.1184 -0.4412 -0.1269
11678TIP3    H156525   3.073   2.028  15.655  0.8035  2.7684  0.8295
11678TIP3    H256526   3.113   2.121  15.543  3.7145  0.1805 -0.4379
11679TIP3   OH256527   0.332   3.814  11.170  0.2575  0.0646 -0.1000
11679TIP3    H156528   0.319   3.734  11.119  1.7934 -1.0780  1.2096
11679TIP3    H256529   0.426   3.831  11.164  0.3803  0.2479  1.7649
11680TIP3   OH256530   5.872   2.358  14.032 -0.0874  0.3989  0.0411
11680TIP3    H156531   5.921   2.384  14.109  0.6467  0.1670 -0.3344
11680TIP3    H256532   5.939   2.341  13.965 -0.6361 -0.6205 -0.2729
11681TIP3   OH256533   1.115   1.906  13.528 -0.0532 -0.2058 -0.0884
11681TIP3    H156534   1.159   1.875  13.607 -0.7902  0.0049  0.4206
11681TIP3    H256535   1.026   1.871  13.535 -1.1393  2.4624  0.8474
11682TIP3   OH256536   2.286   3.936   2.361 -0.2804 -0.0777 -0.3799
11682TIP3    H156537   2.301   3.882   2.283  1.3943  1.0550 -0.9048
11682TIP3    H256538   2.320   4.022   2.337  0.2535  0.3089  1.5957
11683TIP3   OH256539   4.125   5.164   1.823  1.0654  0.3277  0.0992
11683TIP3    H156540   4.052   5.217   1.854  0.6682 -0.6301  0.8622
11683TIP3    H256541   4.094   5.124   1.741 -0.1710 -1.8389  1.5267
11684TIP3   OH256542   2.052   6.300  14.341  0.4119  0.5198  0.0580
11684TIP3    H156543   2.093   6.252  14.269 -1.4644  2.2437 -2.3744
11684TIP3    H256544   2.122   6.354  14.378  1.4074 -0.3261 -0.5603
11685TIP3   OH256545   4.905   2.228  14.474  0.0939 -0.5364  0.6078
11685TIP3    H156546   4.919   2.134  14.487 -0.4177 -1.0703 -2.0636
11685TIP3    H256547   4.823   2.233  14.424 -0.1399  1.3833  1.0918
11686TIP3   OH256548   5.693   1.378  12.018 -0.0745 -0.4656 -0.0618
11686TIP3    H156549   5.611   1.401  12.062  0.4394 -0.6997  1.0762
11686TIP3    H256550   5.667   1.327  11.942 -1.0187  0.1927 -0.2051
11687TIP3   OH256551   0.230   0.251  13.539 -0.5017 -0.2543  0.4050
11687TIP3    H156552   0.297   0.319  13.550 -0.8118 -0.0741  1.2873
11687TIP3    H256553   0.277   0.176  13.502 -0.4193  0.8726 -1.9013
11688TIP3   OH256554   6.631   0.657  11.970 -0.4819  0.2153  0.3254
11688TIP3    H156555   6.573   0.642  11.895  2.8597 -0.2104 -2.4895
11688TIP3    H256556   6.611   0.746  11.999 -2.0491  0.3298 -0.9504
11689TIP3   OH256557   5.695   2.537  11.598 -0.5967 -0.1169 -0.0545
11689TIP3    H156558   5.636   2.594  11.549 -0.4292  0.1910  0.1021
11689TIP3    H256559   5.658   2.534  11.686 -2.3938 -2.7260 -0.7532
11690TIP3   OH256560   4.330   6.795   2.382 -0.4313 -0.0046 -0.2877
11690TIP3    H156561   4.284   6.711   2.387 -1.7396  0.7127  0.1911
11690TIP3    H256562   4.417   6.773   2.347 -0.1702 -1.7769  1.2949
11691TIP3   OH256563   1.348   1.711   3.820 -0.4057 -0.2515 -0.2317
11691TIP3    H156564   1.352   1.708   3.724 -3.0793  0.5738 -0.4589
11691TIP3    H256565   1.342   1.805   3.840  1.0107 -0.3675  0.8261
11692TIP3   OH256566   6.040   1.334   3.404 -0.6411 -0.1394  0.5863
11692TIP3    H156567   6.006   1.420   3.431 -1.4300  0.0444 -0.8788
11692TIP3    H256568   6.051   1.341   3.309  1.2793 -1.0040  0.7120
11693TIP3   OH256569   6.112   3.600  10.891 -0.4167  0.0383  0.1670
11693TIP3    H156570   6.124   3.566  10.979 -0.2520 -3.6176 -1.1034
11693TIP3    H256571   6.020   3.624  10.886 -0.0087  2.3060  1.8403
11694TIP3   OH256572   1.897   6.513   1.115 -0.3379  0.2123  0.5687
11694TIP3    H156573   1.867   6.570   1.044  0.4117  0.8139  0.7148
11694TIP3    H256574   1.928   6.574   1.182 -0.1764 -0.3678  1.0243
11695TIP3   OH256575   5.075   1.773   1.156 -0.3203 -0.4611  0.3255
11695TIP3    H156576   5.134   1.737   1.221  0.7864  0.4559 -0.1326
11695TIP3    H256577   5.014   1.828   1.206 -0.2798 -0.7715  0.7144
11696TIP3   OH256578   6.030   1.081   2.332  0.5914 -0.2534  0.3543
11696TIP3    H156579   6.082   1.157   2.306  0.2418 -0.2545 -0.3679
11696TIP3    H256580   6.045   1.073   2.426  1.0094  0.4175  0.3524
11697TIP3   OH256581   0.006   6.198   2.931  0.5376 -0.1250 -0.4723
11697TIP3    H156582   0.010   6.221   2.838 -1.3260  0.2913 -0.4857
11697TIP3    H256583  -0.080   6.229   2.960 -0.2770 -3.1130  0.6115
11698TIP3   OH256584   3.333   4.363  13.227  0.2121  0.4068  0.2474
11698TIP3    H156585   3.352   4.423  13.155  1.0876  0.6742  0.6838
11698TIP3    H256586   3.378   4.402  13.303 -0.2130 -0.1722  0.8055
11699TIP3   OH256587   6.501   5.949  12.910 -0.4715 -0.4642 -0.4780
11699TIP3    H156588   6.543   6.035  12.905  0.0394 -0.6775  0.0367
11699TIP3    H256589   6.434   5.951  12.842 -0.3293  0.2689 -0.6024
11700TIP3   OH256590   4.856   3.449   5.503  0.2285  0.2254 -0.1638
11700TIP3    H156591   4.823   3.507   5.572 -1.5933  0.2559 -1.0114
11700TIP3    H256592   4.786   3.385   5.489  2.1903 -2.3609  0.8236
11701TIP3   OH256593   1.550   5.752  12.686 -0.2802 -0.2788 -0.0408
11701TIP3    H156594   1.629   5.703  12.663 -0.7376 -0.6827 -0.7902
11701TIP3    H256595   1.524   5.716  12.772  1.0840  0.8022  0.8593
11702TIP3   OH256596   1.965   0.432   4.259 -0.1733 -1.0683 -0.2123
11702TIP3    H156597   2.015   0.444   4.340 -1.6952 -0.5257  0.6868
11702TIP3    H256598   1.881   0.475   4.276 -0.5488 -0.9772 -2.0738
11703TIP3   OH256599   2.878   3.251  16.545  0.2008 -0.1717 -0.1096
11703TIP3    H156600   2.886   3.155  16.549  0.4538 -0.1078  1.0641
11703TIP3    H256601   2.863   3.278  16.635  0.2410  0.9175 -0.4178
11704TIP3   OH256602   5.007   2.678  13.402 -0.0292  0.2433 -0.9889
11704TIP3    H156603   5.047   2.603  13.358  0.0434  0.0768 -0.6517
11704TIP3    H256604   4.913   2.669  13.386  0.1179  1.1627 -2.5950
11705TIP3   OH256605   3.148   0.672   0.212 -0.6589  0.1013 -0.0104
11705TIP3    H156606   3.198   0.705   0.287 -0.8863  2.3225 -0.7667
11705TIP3    H256607   3.057   0.694   0.233 -0.7074  0.8621 -0.9902
11706TIP3   OH256608   5.280   2.766  10.495  0.2602  0.2733  1.1243
11706TIP3    H156609   5.364   2.763  10.541  1.2377 -2.7467 -0.5718
11706TIP3    H256610   5.265   2.860  10.479  4.3106  0.8993 -0.1920
11707TIP3   OH256611   6.205   3.560   5.165  0.0498  0.6515 -0.1428
11707TIP3    H156612   6.232   3.475   5.200 -2.2559  0.5319  1.5505
11707TIP3    H256613   6.199   3.546   5.070 -0.6587 -1.1878  0.1452
11708TIP3   OH256614   1.447   0.321   4.485  0.0580 -0.4539 -0.3593
11708TIP3    H156615   1.356   0.302   4.508 -0.4962  3.1890  1.2539
11708TIP3    H256616   1.442   0.361   4.398 -0.1071  0.6640  0.1370
11709TIP3   OH256617   1.993   0.136  15.031 -0.2437  0.2189 -0.0086
11709TIP3    H156618   1.960   0.190  14.961 -0.3286  0.9043  0.5492
11709TIP3    H256619   2.062   0.084  14.991  0.0095  0.9203 -0.4969
11710TIP3   OH256620   0.456   0.025   5.343  0.0627  0.4112  0.1734
11710TIP3    H156621   0.431   0.063   5.427  1.3785  1.3563  0.1542
11710TIP3    H256622   0.446  -0.070   5.355  2.8198  0.2834  2.3170
11711TIP3   OH256623   5.577   3.279  17.138  0.3367 -0.0819 -0.4025
11711TIP3    H156624   5.549   3.271  17.230  0.7324 -1.9727 -0.4112
11711TIP3    H256625   5.650   3.342  17.141  0.6857 -0.5137  0.6682
11712TIP3   OH256626   4.285   4.868  14.862 -0.3812  0.0072  0.3471
11712TIP3    H156627   4.331   4.892  14.943 -0.2629 -1.4598  0.7593
11712TIP3    H256628   4.349   4.817  14.812 -1.1817 -1.1778  0.4624
11713TIP3   OH256629   4.669   4.391   1.682  0.1152  0.5071 -0.0384
11713TIP3    H156630   4.705   4.370   1.768 -2.3847 -0.6374  0.8139
11713TIP3    H256631   4.583   4.429   1.700 -0.5572  0.0570 -2.0462
11714TIP3   OH256632   6.589   0.504  16.993  0.7375  0.1800 -0.4840
11714TIP3    H156633   6.606   0.518  17.086  0.6599 -0.0122 -0.4412
11714TIP3    H256634   6.644   0.569  16.948 -0.7409  1.6612 -0.2383
11715TIP3   OH256635   4.925   0.973  16.349 -0.8651 -0.1228 -0.2710
11715TIP3    H156636   5.012   1.004  16.323 -0.4263 -0.8360  0.3161
11715TIP3    H256637   4.936   0.941  16.439 -2.0266  0.9518  0.2941
11716TIP3   OH256638   6.755   3.167  16.302 -0.5827  0.4659  0.0043
11716TIP3    H156639   6.825   3.221  16.266 -1.0137  0.9707 -0.0893
11716TIP3    H256640   6.800   3.104  16.359  0.1727 -0.7307 -1.8356
11717TIP3   OH256641   6.719   5.518   2.434  0.4335  0.1940  0.3440
11717TIP3    H156642   6.758   5.579   2.496  1.3296  0.0124 -0.0327
11717TIP3    H256643   6.634   5.497   2.473  0.9995  0.0356  1.5571
11718TIP3   OH256644   6.008   0.124   1.845  0.3921  0.6416  0.0208
11718TIP3    H156645   5.978   0.099   1.757 -2.7791 -1.1298  1.4252
11718TIP3    H256646   5.934   0.171   1.883  1.2794  0.4828  2.0784
11719TIP3   OH256647   1.390   3.654   3.449 -0.0203 -0.4749  0.8938
11719TIP3    H156648   1.462   3.716   3.440  1.1918 -2.0436 -1.1425
11719TIP3    H256649   1.433   3.569   3.459 -1.5634 -1.3993  0.1014
11720TIP3   OH256650   2.318   4.558  16.945  0.0524 -0.4046  1.2140
11720TIP3    H156651   2.341   4.497  17.016 -1.1625 -1.4516  0.7402
11720TIP3    H256652   2.236   4.598  16.974 -0.8895 -1.4453  0.0583
11721TIP3   OH256653   6.719   0.302   1.505 -0.3579 -0.0426  0.3223
11721TIP3    H156654   6.657   0.229   1.501  0.1083 -0.3923 -2.6412
11721TIP3    H256655   6.675   0.373   1.458  0.5793  0.4576  0.1863
11722TIP3   OH256656   0.758   4.946  13.027 -0.0883  0.1768  0.1394
11722TIP3    H156657   0.696   4.882  12.991 -0.6420  0.5326  0.4371
11722TIP3    H256658   0.744   4.941  13.122 -1.2226  1.7898  0.0938
11723TIP3   OH256659   2.195   3.636   5.769  0.3095 -0.2236  0.0158
11723TIP3    H156660   2.196   3.729   5.746 -0.6349 -0.3241 -0.4822
11723TIP3    H256661   2.283   3.605   5.747  1.5762  1.1277  2.7666
11724TIP3   OH256662   0.126   4.013  12.349  0.3101  0.3486  0.6661
11724TIP3    H156663   0.035   4.000  12.322  0.1217 -0.3216  1.5851
11724TIP3    H256664   0.176   4.006  12.267 -0.5618  2.2044 -0.1038
11725TIP3   OH256665   6.337   6.128  11.591 -0.4094 -0.4706  0.0588
11725TIP3    H156666   6.355   6.182  11.668 -3.6209 -0.3065  0.8158
11725TIP3    H256667   6.253   6.161  11.558  0.0716 -1.6378 -2.5726
11726TIP3   OH256668   2.984   2.179  13.310  0.4322  0.3642  0.4802
11726TIP3    H156669   2.892   2.202  13.323  0.4718  0.3582  0.7810
11726TIP3    H256670   2.985   2.083  13.315  0.3669  0.3300 -0.1133
11727TIP3   OH256671   4.299   5.517  10.982  0.1723  0.5642 -0.3104
11727TIP3    H156672   4.301   5.523  10.887 -3.1636  1.0365 -0.4538
11727TIP3    H256673   4.323   5.427  11.001  1.4767  0.6145 -1.5011
11728TIP3   OH256674   3.514   3.576   5.373 -0.3419 -0.2674 -0.7560
11728TIP3    H156675   3.575   3.515   5.331  2.2725  1.5500  0.0742
11728TIP3    H256676   3.485   3.633   5.301 -0.4682 -0.7040 -1.0523
11729TIP3   OH256677   4.898   3.162   3.476 -0.0478 -0.1625  1.1750
11729TIP3    H156678   4.928   3.221   3.407 -0.1044 -1.0097  0.4040
11729TIP3    H256679   4.814   3.128   3.444  0.8368 -2.0501  0.7269
11730TIP3   OH256680   6.187   3.318  14.627  0.3233 -0.5485 -0.5502
11730TIP3    H156681   6.231   3.319  14.712 -0.7497  3.8417  0.1914
11730TIP3    H256682   6.258   3.321  14.563  1.1160 -1.2593  0.2723
11731TIP3   OH256683   2.394   2.767   2.347  0.0225 -0.5093  0.2184
11731TIP3    H156684   2.453   2.786   2.420  1.8683  0.3665 -1.3912
11731TIP3    H256685   2.325   2.833   2.354  0.6622  0.1336  0.6786
11732TIP3   OH256686   0.275   5.984  11.568 -0.2792  0.4110 -0.7866
11732TIP3    H156687   0.345   5.919  11.563  0.4116  1.0646  0.0541
11732TIP3    H256688   0.278   6.016  11.658 -1.4178  0.7266 -0.8436
11733TIP3   OH256689   2.432   5.422  14.389  0.2567  0.3604  0.1893
11733TIP3    H156690   2.447   5.508  14.350  0.0200 -0.2073 -1.1834
11733TIP3    H256691   2.343   5.399  14.364 -0.6236  0.7631  2.6521
11734TIP3   OH256692   3.618   3.318  15.041 -0.2341  0.0460  0.1338
11734TIP3    H156693   3.705   3.318  15.000 -0.1999 -1.3370  0.1616
11734TIP3    H256694   3.626   3.378  15.114 -0.1848  2.3122 -1.6225
11735TIP3   OH256695   4.660   2.473   5.171  0.3895  0.7172 -0.4803
11735TIP3    H156696   4.662   2.569   5.172  1.0869  0.7181  1.7183
11735TIP3    H256697   4.700   2.447   5.253 -2.0058 -1.4398  0.1209
11736TIP3   OH256698   4.631   0.500   2.896  0.4928 -0.2451  0.3959
11736TIP3    H156699   4.572   0.494   2.971  1.9466  0.9678  1.6788
11736TIP3    H256700   4.639   0.409   2.865  0.9279 -1.0010  2.5671
11737TIP3   OH256701   6.470   2.649   6.076  0.0447  0.1359 -0.0473
11737TIP3    H156702   6.498   2.562   6.045 -0.3611 -0.3726  0.9789
11737TIP3    H256703   6.552   2.695   6.094  0.3116 -1.0452  2.1267
11738TIP3   OH256704   0.312   2.642  10.855  0.2263 -0.4155  0.0565
11738TIP3    H156705   0.294   2.660  10.762  1.7654 -0.2625 -0.2415
11738TIP3    H256706   0.229   2.661  10.899 -0.5092 -0.3787 -1.2654
11739TIP3   OH256707   3.905   4.927   0.140  0.8042  0.0595  0.2189
11739TIP3    H156708   3.940   4.913   0.228  0.3890 -0.0295  0.3708
11739TIP3    H256709   3.847   5.002   0.148  0.2317 -0.3723  0.1694
11740TIP3   OH256710   3.313   2.399   2.109  0.3788  0.3241 -1.0661
11740TIP3    H156711   3.274   2.313   2.094 -0.1124  0.2285  0.5113
11740TIP3    H256712   3.407   2.382   2.111  0.2425 -0.4768  0.6323
11741TIP3   OH256713   1.071   4.533   4.441 -0.1776  0.1916  0.3199
11741TIP3    H156714   1.162   4.560   4.454 -0.6578  2.0792  0.0169
11741TIP3    H256715   1.044   4.578   4.361 -1.5392  0.0935  0.7071
11742TIP3   OH256716   1.539   6.573  16.228  0.6441 -0.0041 -0.1013
11742TIP3    H156717   1.550   6.659  16.188 -0.3748 -0.5114 -1.5216
11742TIP3    H256718   1.522   6.514  16.155  0.6623 -1.3080  0.9160
11743TIP3   OH256719   1.828   3.607  10.317 -0.4017  0.7826 -0.0989
11743TIP3    H156720   1.819   3.518  10.283  1.5931  0.5522 -0.1390
11743TIP3    H256721   1.747   3.621  10.366 -0.9008 -0.9382 -0.3308
11744TIP3   OH256722   3.935   2.121   1.808 -0.2210  0.3553  0.5352
11744TIP3    H156723   3.879   2.155   1.878 -0.5372 -0.3328  0.6272
11744TIP3    H256724   4.023   2.122   1.845 -0.0648  1.9784  0.1935
11745TIP3   OH256725   1.242   6.210   4.390  0.3677 -0.5448 -0.4796
11745TIP3    H156726   1.200   6.165   4.317  0.8196  1.2219 -1.8951
11745TIP3    H256727   1.242   6.145   4.461 -1.1897 -1.8997 -1.6349
11746TIP3   OH256728   6.128   0.178   0.292  0.2770 -0.1771  0.7280
11746TIP3    H156729   6.058   0.114   0.302 -0.1043 -0.3968 -2.3652
11746TIP3    H256730   6.089   0.248   0.240  2.2140 -0.2350 -0.9573
11747TIP3   OH256731   3.935   4.273   3.684  0.2235 -0.5785 -0.0392
11747TIP3    H156732   3.977   4.348   3.726 -0.4217 -0.5916  0.6459
11747TIP3    H256733   4.008   4.213   3.666  0.6093 -0.2574  0.4084
11748TIP3   OH256734   6.663   6.127   0.956  0.1792 -0.2142 -0.1113
11748TIP3    H156735   6.593   6.119   1.021 -0.8147  2.0815 -0.8071
11748TIP3    H256736   6.640   6.065   0.887 -0.4487 -0.4301  0.2910
11749TIP3   OH256737   6.805   3.632   2.084  0.3406  0.8056 -0.1636
11749TIP3    H156738   6.845   3.647   2.170  1.9638  0.2306 -0.7748
11749TIP3    H256739   6.863   3.677   2.023  0.2162 -0.2738 -1.1090
11750TIP3   OH256740   0.883   4.878  15.996  0.4004  0.4746  0.0833
11750TIP3    H156741   0.890   4.785  16.017 -3.2464 -0.1909 -1.0558
11750TIP3    H256742   0.872   4.921  16.081  0.0461 -0.3874  0.4832
11751TIP3   OH256743   3.820   5.448  16.270  0.1874  0.4433  0.4671
11751TIP3    H156744   3.896   5.396  16.295 -0.3765 -0.3607  0.5268
11751TIP3    H256745   3.830   5.462  16.176  0.3450  0.2398  0.4542
11752TIP3   OH256746   5.163   3.563  12.306  0.5699 -0.3143 -0.5121
11752TIP3    H156747   5.079   3.540  12.347 -0.3959  0.3511 -2.0201
11752TIP3    H256748   5.200   3.629  12.364 -0.6472  0.4370 -0.5474
11753TIP3   OH256749   4.604   4.419   4.933  0.5804  0.7238 -0.1423
11753TIP3    H156750   4.589   4.362   5.008  0.5571  0.1419 -0.5800
11753TIP3    H256751   4.522   4.417   4.884  1.3087 -0.8156 -1.4407
11754TIP3   OH256752   2.434   5.170   1.047  0.8303  0.2998  0.1216
11754TIP3    H156753   2.464   5.260   1.062  1.1240  0.0379  1.2060
11754TIP3    H256754   2.461   5.122   1.125 -1.5841 -0.1759  0.7582
11755TIP3   OH256755   1.048   2.263  14.560 -0.2782 -0.5809 -0.6173
11755TIP3    H156756   1.070   2.352  14.532  1.9292 -0.8512  0.0878
11755TIP3    H256757   0.964   2.272  14.604 -0.5610  0.9808 -1.4084
11756TIP3   OH256758   0.115   5.027   0.589 -0.2925  0.1398 -0.5676
11756TIP3    H156759   0.065   5.090   0.641  1.3404  0.3683  0.8228
11756TIP3    H256760   0.145   4.962   0.652  1.8513  0.4780 -1.1536
11757TIP3   OH256761   6.184   2.763   0.029  0.0511 -0.8562 -0.0185
11757TIP3    H156762   6.166   2.800  -0.057  1.1652 -1.9263 -0.7493
11757TIP3    H256763   6.276   2.738   0.025 -0.4423 -2.9454  0.7099
11758TIP3   OH256764   3.515   2.392  13.537  0.1897  0.3545 -0.0404
11758TIP3    H156765   3.498   2.298  13.537  0.4019  0.2516 -2.4704
11758TIP3    H256766   3.429   2.432  13.523  0.1325  0.5224  0.7627
11759TIP3   OH256767   1.322   3.227  15.407 -0.1467  0.1046  0.9573
11759TIP3    H156768   1.289   3.146  15.446 -2.5088  1.3304  1.6972
11759TIP3    H256769   1.339   3.285  15.481 -0.1761  0.8864  0.3732
11760TIP3   OH256770   6.319   0.826   1.885 -0.5387  0.3518  0.0843
11760TIP3    H156771   6.362   0.890   1.942 -0.8371 -0.2082  0.9715
11760TIP3    H256772   6.229   0.857   1.878 -0.4288  0.5825 -0.3388
11761TIP3   OH256773   0.174   2.538   2.238 -0.4210 -0.8978 -0.7781
11761TIP3    H156774   0.213   2.535   2.325 -1.4201 -1.0917 -0.3235
11761TIP3    H256775   0.110   2.466   2.237 -0.8260 -0.5447 -1.4688
11762TIP3   OH256776   0.312   3.841   2.329 -0.1790  0.0102 -0.2892
11762TIP3    H156777   0.239   3.780   2.323 -0.6224  0.3641  1.1815
11762TIP3    H256778   0.382   3.792   2.371 -0.6016  0.5338  1.0776
11763TIP3   OH256779   6.118   2.936   0.238 -0.1965  0.1041  0.6314
11763TIP3    H156780   6.067   2.975   0.167 -0.9021  0.8384  1.5159
11763TIP3    H256781   6.170   2.868   0.195 -2.5733 -1.3186 -0.2053
11764TIP3   OH256782   2.395   3.401   4.233 -0.4207  0.4124  0.0549
11764TIP3    H156783   2.319   3.437   4.186 -0.8882  0.5159  0.8746
11764TIP3    H256784   2.469   3.421   4.176 -1.0428 -0.0011 -0.9376
11765TIP3   OH256785   0.131   1.079  14.468  0.4064 -0.0853 -0.0868
11765TIP3    H156786   0.065   1.015  14.497  1.5283 -2.8477 -3.0288
11765TIP3    H256787   0.192   1.085  14.542 -1.8552  0.8303  1.8316
11766TIP3   OH256788   1.487   4.906  15.392 -0.2962 -0.2927 -0.0560
11766TIP3    H156789   1.564   4.920  15.447 -0.4034 -0.3089  0.0971
11766TIP3    H256790   1.445   4.992  15.388 -1.5989 -0.7951  1.8358
11767TIP3   OH256791   1.267   0.200   0.990 -0.0161  0.0270 -0.2078
11767TIP3    H156792   1.209   0.269   0.956  1.2539  0.4289 -1.6760
11767TIP3    H256793   1.257   0.129   0.927  0.5055 -0.1898 -0.0469
11768TIP3   OH256794   1.700   3.192   4.964  0.2528  0.0100 -0.0372
11768TIP3    H156795   1.685   3.270   4.911  2.3368  0.9234  0.6283
11768TIP3    H256796   1.626   3.190   5.024  1.4524  3.1460  1.7956
11769TIP3   OH256797   4.424   0.234  13.804  0.5760  0.3397  0.0151
11769TIP3    H156798   4.367   0.157  13.811  0.3077  0.3353 -1.7281
11769TIP3    H256799   4.376   0.303  13.851  0.7889 -0.4985  1.5359
11770TIP3   OH256800   4.282   3.866  13.740 -0.1926  0.1896 -0.3316
11770TIP3    H156801   4.331   3.785  13.736  0.0847  0.3761 -0.8985
11770TIP3    H256802   4.200   3.843  13.783  0.2756 -0.1834  0.3672
11771TIP3   OH256803   2.407   0.409   5.576 -0.8266 -0.4518 -0.4969
11771TIP3    H156804   2.480   0.457   5.614 -1.5874 -0.1255  0.6073
11771TIP3    H256805   2.447   0.351   5.511  0.4913 -0.8312  0.6108
11772TIP3   OH256806   1.126   2.624   2.874 -0.1409  0.1558 -0.7429
11772TIP3    H156807   1.161   2.606   2.787  1.2559 -2.1573  0.1881
11772TIP3    H256808   1.204   2.637   2.928 -0.9739  1.2063  0.2561
11773TIP3   OH256809   2.180   3.591  13.823 -0.0476 -0.1356  0.3572
11773TIP3    H156810   2.172   3.685  13.804 -0.2748 -0.0698  0.7689
11773TIP3    H256811   2.235   3.557  13.752  0.9113  0.4966  0.7898
11774TIP3   OH256812   1.061   2.430   4.601  0.4647 -0.4829 -0.1701
11774TIP3    H156813   1.083   2.339   4.618  2.1350  0.1800  1.6719
11774TIP3    H256814   1.140   2.467   4.561  1.0534  0.8202  2.0243
11775TIP3   OH256815   1.402   0.947  12.956  0.2121  0.3714  0.2698
11775TIP3    H156816   1.310   0.923  12.964  0.6334 -1.2801  0.5864
11775TIP3    H256817   1.409   0.994  12.872 -0.5189 -1.6008 -0.9458
11776TIP3   OH256818   5.674   1.129   1.660  0.0311 -0.1105  0.3561
11776TIP3    H156819   5.767   1.144   1.643 -0.0373 -0.1172 -0.0356
11776TIP3    H256820   5.661   1.158   1.750 -0.1912  2.7325 -0.4729
11777TIP3   OH256821   5.794   5.381  11.937 -0.0000 -0.1888 -0.0119
11777TIP3    H156822   5.729   5.436  11.892  0.3099 -0.1430 -0.4005
11777TIP3    H256823   5.746   5.301  11.958  0.1108 -0.6034 -1.2740
11778TIP3   OH256824   4.102   5.204  12.895 -0.1379 -0.0877 -0.3789
11778TIP3    H156825   4.089   5.294  12.924  0.1294 -0.2924  0.4141
11778TIP3    H256826   4.182   5.208  12.842  0.3955 -0.0038  0.4092
11779TIP3   OH256827   5.036   5.439   1.754 -0.0819 -0.4861  0.4389
11779TIP3    H156828   5.042   5.435   1.849  0.3939 -0.9245  0.3978
11779TIP3    H256829   4.959   5.386   1.732 -0.3104 -0.2143  0.5955
11780TIP3   OH256830   3.574   0.222  11.388  0.3266 -0.0597 -0.1117
11780TIP3    H156831   3.592   0.275  11.466  2.5206  0.7697 -1.0782
11780TIP3    H256832   3.502   0.267  11.344  0.7880  0.9769  0.1486
11781TIP3   OH256833   0.549   0.497   5.267 -0.1916 -0.2025  0.3896
11781TIP3    H156834   0.483   0.542   5.213 -0.4671 -1.3379 -0.2473
11781TIP3    H256835   0.535   0.404   5.250  2.5232 -0.4756 -0.9026
11782TIP3   OH256836   3.129   1.916   0.067 -0.0167 -0.0842  0.1722
11782TIP3    H156837   3.063   1.925   0.135  0.3844 -0.1373  0.5776
11782TIP3    H256838   3.145   2.005   0.036 -0.0703 -0.0378  0.2774
11783TIP3   OH256839   2.584   2.868   5.668 -0.4225  0.0269 -0.7807
11783TIP3    H156840   2.652   2.855   5.734  0.4438 -0.5604 -1.7362
11783TIP3    H256841   2.540   2.949   5.693  0.1420  0.0235  0.2808
11784TIP3   OH256842   4.742   6.026   1.867  0.2025  0.2802  0.2093
11784TIP3    H156843   4.742   6.081   1.946  0.1763  1.2259 -0.4271
11784TIP3    H256844   4.651   5.998   1.857  0.1927  0.2133  0.4726
11785TIP3   OH256845   0.612   3.865  12.942 -0.3191 -0.0476 -0.0539
11785TIP3    H156846   0.527   3.857  12.899 -1.0895 -1.2825  1.5610
11785TIP3    H256847   0.675   3.833  12.878 -1.2972 -0.8469 -0.6365
11786TIP3   OH256848   5.096   5.955   1.848 -0.0596 -0.0418 -0.3660
11786TIP3    H156849   5.024   5.893   1.842  0.0959 -0.4353  1.3056
11786TIP3    H256850   5.172   5.907   1.816 -0.0064 -0.6067  0.5930
11787TIP3   OH256851   5.116   5.804   1.251 -0.2481 -0.2381 -0.0391
11787TIP3    H156852   5.057   5.805   1.326  0.0322 -0.6239  0.1917
11787TIP3    H256853   5.179   5.875   1.269 -1.4276  1.1035 -0.9476
11788TIP3   OH256854   2.674   5.536   1.926 -0.2425  0.3122  0.2526
11788TIP3    H156855   2.580   5.546   1.939 -0.8020 -3.7567  0.9137
11788TIP3    H256856   2.693   5.586   1.847 -3.0205  1.0031 -0.0810
11789TIP3   OH256857   1.568   3.880  11.918  0.0929 -0.9628 -0.3197
11789TIP3    H156858   1.617   3.906  11.840 -0.7243 -0.3289 -0.6371
11789TIP3    H256859   1.518   3.958  11.942  0.4305 -1.1092  0.9251
11790TIP3   OH256860   1.700   6.748  17.014  0.5747  0.5196  0.0170
11790TIP3    H156861   1.784   6.788  16.992  0.3887  1.2558  0.5653
11790TIP3    H256862   1.637   6.821  17.011  0.0170  0.0471 -0.0580
11791TIP3   OH256863   4.929   4.759   0.810  0.0684 -0.1148  0.0898
11791TIP3    H156864   4.938   4.813   0.889  0.9336  1.2794 -0.9164
11791TIP3    H256865   4.931   4.821   0.738  0.2818 -1.4337 -1.0906
11792TIP3   OH256866   4.804   1.903   0.028  0.4006  0.3137  0.2531
11792TIP3    H156867   4.863   1.884  -0.045  0.5867  0.3287  0.3990
11792TIP3    H256868   4.846   1.862   0.104 -0.8269 -1.5328 -0.0080
11793TIP3   OH256869   2.214   5.107   6.355 -0.0095  0.2974  0.1782
11793TIP3    H156870   2.194   5.054   6.278 -0.3720  0.1545  0.3744
11793TIP3    H256871   2.310   5.104   6.361  0.0298  0.4009 -0.3312
11794TIP3   OH256872   4.945   6.004   5.722  0.1411 -0.1846 -0.0765
11794TIP3    H156873   5.018   5.959   5.680 -0.3412 -1.3299  0.2663
11794TIP3    H256874   4.908   5.940   5.783 -0.1796  0.8929  0.9227
11795TIP3   OH256875   3.439   0.872   4.246  1.0430 -0.0792  0.1573
11795TIP3    H156876   3.385   0.924   4.306 -0.2726 -0.6830 -0.4508
11795TIP3    H256877   3.452   0.929   4.170  0.3089 -0.3161 -0.1569
11796TIP3   OH256878   0.964   5.420   3.065 -0.5389  0.1015  0.2754
11796TIP3    H156879   1.023   5.404   2.992  0.5959  0.8616  0.9876
11796TIP3    H256880   0.892   5.471   3.027 -0.6426 -0.6272 -0.5507
11797TIP3   OH256881   3.745   2.933  10.948  0.3764  0.2751 -0.5193
11797TIP3    H156882   3.785   2.917  11.033 -1.0196 -0.2366  0.0637
11797TIP3    H256883   3.809   2.899  10.885  0.3741 -1.6402  0.4346
11798TIP3   OH256884   4.177   1.486  10.899  0.2297  0.1197 -0.0379
11798TIP3    H156885   4.128   1.563  10.870 -2.4077 -1.5078 -0.3201
11798TIP3    H256886   4.184   1.496  10.994  2.1148  1.8093 -0.2953
11799TIP3   OH256887   6.030   4.987  11.733  0.0241 -0.4155 -0.2112
11799TIP3    H156888   6.086   5.041  11.789 -1.7987  0.3146  1.0087
11799TIP3    H256889   6.071   4.901  11.734  0.3527 -0.2991  1.8652
11800TIP3   OH256890   0.662   3.321   1.220  0.4044 -0.2301 -0.3870
11800TIP3    H156891   0.611   3.248   1.185 -3.0762  1.0514  1.4914
11800TIP3    H256892   0.681   3.376   1.144 -0.2018 -1.2451 -1.2956
11801TIP3   OH256893   0.879   0.221  14.394 -0.3904  0.1247  0.5369
11801TIP3    H156894   0.784   0.216  14.399 -0.4020 -0.7862 -0.3567
11801TIP3    H256895   0.901   0.182  14.310  0.8819 -1.2345  1.4645
11802TIP3   OH256896   2.742   2.019   1.934  0.6327 -0.4013  0.1359
11802TIP3    H156897   2.735   1.927   1.910  0.2261 -0.9853  2.3089
11802TIP3    H256898   2.813   2.053   1.879 -1.3361 -1.1117 -3.1189
11803TIP3   OH256899   5.890   2.307  11.084 -0.0747 -0.5157  0.0391
11803TIP3    H156900   5.957   2.239  11.082  1.3736  0.8513  0.3970
11803TIP3    H256901   5.890   2.344  10.996 -2.6628 -2.5508 -0.9794
11804TIP3   OH256902   2.881   2.327   1.481 -0.2893  0.1193 -0.0123
11804TIP3    H156903   2.905   2.324   1.388 -2.8647 -1.7054 -0.7450
11804TIP3    H256904   2.862   2.236   1.503  0.2357  0.5272  2.3423
11805TIP3   OH256905   1.393   3.715  10.688 -0.6796 -0.3965 -0.0609
11805TIP3    H156906   1.409   3.759  10.772 -0.6429 -0.4693 -0.0310
11805TIP3    H256907   1.340   3.639  10.710 -1.8522  0.3238 -0.2635
11806TIP3   OH256908   3.967   2.309   2.831 -0.7018 -0.1710  0.2898
11806TIP3    H156909   3.936   2.361   2.757 -0.4186 -0.0225  0.2738
11806TIP3    H256910   3.944   2.362   2.908  0.1871  0.3080  0.2441
11807TIP3   OH256911   4.797   5.031   5.697  0.3300  0.0479 -0.0821
11807TIP3    H156912   4.892   5.024   5.705  0.2791  0.4307  0.9597
11807TIP3    H256913   4.777   4.985   5.615  1.2289 -1.5651  0.5454
11808TIP3   OH256914   6.302   2.487  16.669 -0.3699  0.3820 -0.0430
11808TIP3    H156915   6.250   2.462  16.745  0.2038 -2.0542 -0.3670
11808TIP3    H256916   6.377   2.534  16.706  0.9204 -2.4199  1.2143
11809TIP3   OH256917   1.240   0.141  11.423 -0.0526 -0.2570  0.1739
11809TIP3    H156918   1.259   0.080  11.494  0.7545  0.5702  0.6942
11809TIP3    H256919   1.162   0.187  11.451 -0.7895 -1.1763 -0.3187
11810TIP3   OH256920   0.755   0.388  11.997 -0.5927  0.1975 -0.5713
11810TIP3    H156921   0.788   0.372  12.085 -1.3883 -1.1375 -0.4910
11810TIP3    H256922   0.723   0.303  11.967 -2.7637  1.1489 -1.1306
11811TIP3   OH256923   2.745   5.959   5.981  0.2262  0.9079 -0.0064
11811TIP3    H156924   2.663   6.005   5.997 -1.1118 -1.5286  0.7517
11811TIP3    H256925   2.803   5.987   6.052 -1.6232 -0.7996  2.3588
11812TIP3   OH256926   2.084   5.175   0.344 -0.4591 -0.3778 -0.3194
11812TIP3    H156927   1.994   5.204   0.328 -1.2257 -2.5102 -0.1005
11812TIP3    H256928   2.091   5.166   0.439 -1.2315 -3.6185 -0.4604
11813TIP3   OH256929   1.098   6.224   0.124 -0.0002 -0.3176  0.1198
11813TIP3    H156930   1.168   6.158   0.131  2.3323  1.9228 -0.4123
11813TIP3    H256931   1.138   6.295   0.074 -2.4401  1.4518  0.5319
11814TIP3   OH256932   0.282   5.791  14.289  0.3048 -0.7059 -0.0668
11814TIP3    H156933   0.233   5.709  14.278 -0.3819 -0.2569 -0.4738
11814TIP3    H256934   0.345   5.791  14.216  0.9517 -1.3031  0.4798
11815TIP3   OH256935   5.327   4.585  11.725  0.1213 -0.1168 -0.0371
11815TIP3    H156936   5.328   4.536  11.807  1.5494  0.2256  0.1770
11815TIP3    H256937   5.252   4.551  11.677 -1.3899  0.4185  1.8478
11816TIP3   OH256938   5.281   4.892   1.818 -0.4478 -0.1355  0.7326
11816TIP3    H156939   5.338   4.816   1.805  0.2497  0.5151 -0.0325
11816TIP3    H256940   5.199   4.854   1.852  0.2581 -1.1204  1.3995
11817TIP3   OH256941   4.246   3.856  16.733  0.4738  0.1452 -0.1948
11817TIP3    H156942   4.158   3.857  16.695  0.6781 -1.3670 -0.7802
11817TIP3    H256943   4.261   3.946  16.761 -1.0737  0.5291 -0.5136
11818TIP3   OH256944   6.331   4.256  11.524 -0.0372  0.0175  0.0945
11818TIP3    H156945   6.320   4.234  11.432 -0.2740 -1.3748  0.4199
11818TIP3    H256946   6.398   4.323  11.526  0.9676 -0.9101 -1.0044
11819TIP3   OH256947   5.719   4.783   4.894 -0.1758  0.6892 -0.1570
11819TIP3    H156948   5.648   4.722   4.872  0.0729  0.0806  0.6628
11819TIP3    H256949   5.796   4.745   4.851 -0.1470  0.7964 -0.2006
11820TIP3   OH256950   5.500   2.447  12.517  0.5036 -0.3599  0.3678
11820TIP3    H156951   5.464   2.534  12.537  1.3304 -0.1244  0.9168
11820TIP3    H256952   5.574   2.466  12.459 -0.3313 -0.8437 -0.8790
11821TIP3   OH256953   3.448   2.946  15.335 -0.4818 -0.6275 -0.0308
11821TIP3    H156954   3.542   2.937  15.352 -0.4570 -1.3461 -0.4897
11821TIP3    H256955   3.443   2.976  15.244 -0.6731  0.7758  0.4185
11822TIP3   OH256956   5.333   4.562  15.709 -0.6951 -0.1090  0.4599
11822TIP3    H156957   5.387   4.592  15.635  1.5420 -2.5404  0.9768
11822TIP3    H256958   5.317   4.641  15.760  2.2225  0.7923  0.1409
11823TIP3   OH256959   6.236   0.124   1.985  0.5372 -0.4102  0.0043
11823TIP3    H156960   6.160   0.125   1.928  0.0371 -2.1635  0.5827
11823TIP3    H256961   6.201   0.136   2.074  0.8633 -1.5854  0.3098
11824TIP3   OH256962   0.314   0.000  14.770  0.0121 -0.4833 -0.5511
11824TIP3    H156963   0.389   0.011  14.711  1.0002 -0.7632  0.6084
11824TIP3    H256964   0.329  -0.084  14.813 -0.0680  0.2075  0.9109
11825TIP3   OH256965   1.953   2.156   0.115  0.4269 -0.5125 -0.4015
11825TIP3    H156966   1.949   2.204   0.197 -1.9531  0.8911 -1.2440
11825TIP3    H256967   1.917   2.069   0.136 -1.5788  0.3111 -0.1860
11826TIP3   OH256968   6.316   1.208  14.374 -0.1743 -0.0049  0.3027
11826TIP3    H156969   6.280   1.162  14.298  0.1102  0.7622 -0.3083
11826TIP3    H256970   6.326   1.298  14.345  0.9565  0.0854  0.8965
11827TIP3   OH256971   3.268   1.793  11.775 -0.1487  0.6353  0.1014
11827TIP3    H156972   3.204   1.753  11.716  2.7514  0.1178 -3.0298
11827TIP3    H256973   3.264   1.887  11.753  0.4163  0.5435 -0.4205
11828TIP3   OH256974   6.498   5.685   1.567 -0.4122 -0.6419 -0.2167
11828TIP3    H156975   6.593   5.695   1.565 -0.5882  1.3546  0.1903
11828TIP3    H256976   6.485   5.595   1.597  1.3367 -1.4611 -1.6779
11829TIP3   OH256977   5.212   4.653   0.528 -1.1078 -0.0642 -0.4576
11829TIP3    H156978   5.265   4.707   0.586 -0.8575  0.5941 -1.2883
11829TIP3    H256979   5.156   4.602   0.588 -0.3036  0.0091  0.3839
11830TIP3   OH256980   0.430   0.098   2.726 -0.2309 -0.0459 -0.5879
11830TIP3    H156981   0.356   0.037   2.729 -1.6711  1.6591  0.2152
11830TIP3    H256982   0.477   0.082   2.807  0.9298 -1.8227 -1.5421
11831TIP3   OH256983   0.729   1.138  10.869 -0.2275 -0.4342  0.0662
11831TIP3    H156984   0.754   1.228  10.890 -1.2878 -0.5511  2.0265
11831TIP3    H256985   0.642   1.128  10.908 -0.4201 -2.1030 -0.7248
11832TIP3   OH256986   5.613   5.548  16.846 -0.3870 -0.2364  0.1082
11832TIP3    H156987   5.521   5.534  16.866 -0.8294 -0.4188 -1.8572
11832TIP3    H256988   5.639   5.471  16.796  0.9017 -0.2811  0.8115
11833TIP3   OH256989   5.498   3.916   0.505  0.2109 -0.1130 -0.0036
11833TIP3    H156990   5.564   3.943   0.441  1.4182  0.7758  1.5448
11833TIP3    H256991   5.549   3.889   0.582 -1.2133  0.1259  1.0646
11834TIP3   OH256992   1.394   3.392   1.330 -0.0216 -0.2110 -0.0323
11834TIP3    H156993   1.422   3.302   1.313  1.0260  0.2362 -0.8373
11834TIP3    H256994   1.473   3.436   1.365 -0.7542  0.1887  1.1951
11835TIP3   OH256995   1.856   6.659   0.649  0.3787 -0.3997  0.0808
11835TIP3    H156996   1.834   6.604   0.574  1.5020 -2.8075  1.4026
11835TIP3    H256997   1.919   6.607   0.699  2.0261  2.4024  1.1170
11836TIP3   OH256998   5.152   1.140   3.366 -0.0047  0.1446  0.4066
11836TIP3    H156999   5.083   1.076   3.348  1.0511 -1.2690  1.1614
11836TIP3    H257000   5.123   1.219   3.321 -2.7647  0.0417  1.7567
11837TIP3   OH257001   5.765   1.746  14.019  0.0830  0.0377 -0.1518
11837TIP3    H157002   5.701   1.685  14.054  0.1475 -1.9255 -3.0756
11837TIP3    H257003   5.719   1.790  13.947  0.4387  2.5878  1.0837
11838TIP3   OH257004   2.253   3.657   0.436  0.3940  0.3535  0.0553
11838TIP3    H157005   2.294   3.737   0.401 -2.0319  1.4007 -0.6178
11838TIP3    H257006   2.237   3.603   0.359 -2.3209  1.4012 -0.2360
11839TIP3   OH257007   3.127   5.736  16.535 -0.1658  0.0234 -0.0371
11839TIP3    H157008   3.131   5.729  16.630 -0.0653  0.1959 -0.0279
11839TIP3    H257009   3.092   5.652  16.506 -0.4151  0.0573  0.1690
11840TIP3   OH257010   6.517   4.622  14.284 -0.6289  0.1701 -0.0094
11840TIP3    H157011   6.558   4.673  14.214 -1.2670  2.0677  0.9197
11840TIP3    H257012   6.546   4.665  14.365  0.3549 -2.1679  0.9390
11841TIP3   OH257013   3.466   6.473  17.198 -0.2769 -0.0962  0.8470
11841TIP3    H157014   3.424   6.490  17.114  1.5294  0.4214 -0.0083
11841TIP3    H257015   3.479   6.560  17.236  0.3887 -0.2053  0.8824
11842TIP3   OH257016   0.796   2.206   4.430  0.5256 -0.4322 -0.0239
11842TIP3    H157017   0.715   2.157   4.446  1.0033 -0.5079  2.6279
11842TIP3    H257018   0.784   2.287   4.479  0.5969  1.2877 -2.6723
11843TIP3   OH257019   4.994   3.529  15.506 -0.1192  0.2505  0.1937
11843TIP3    H157020   4.924   3.539  15.570  0.2066  0.2223  0.5603
11843TIP3    H257021   4.960   3.464  15.444 -0.0111 -0.5656  0.9559
11844TIP3   OH257022   1.383   3.482  16.811 -0.1544  0.0505 -0.3977
11844TIP3    H157023   1.405   3.428  16.735 -1.3347  0.0991 -0.7862
11844TIP3    H257024   1.450   3.459  16.876  1.1504  0.3474 -1.5849
11845TIP3   OH257025   2.348   1.460  11.953  0.1236 -0.2110 -0.0965
11845TIP3    H157026   2.354   1.534  11.893  2.6545 -1.2100 -1.1938
11845TIP3    H257027   2.361   1.383  11.899  1.0200 -1.2488  1.5053
11846TIP3   OH257028   6.216   3.898  10.707  0.5187  0.5184  0.0482
11846TIP3    H157029   6.160   3.954  10.652 -0.7519 -0.5400  0.1914
11846TIP3    H257030   6.230   3.820  10.653 -0.0760 -0.1937  0.9045
11847TIP3   OH257031   1.991   2.932  12.123  0.2065  0.0779  0.0401
11847TIP3    H157032   2.008   2.975  12.206  0.7678 -1.1237  0.5786
11847TIP3    H257033   2.027   2.844  12.134 -0.9598 -0.5658 -0.9751
11848TIP3   OH257034   1.205   4.059   4.444  0.1038  0.9055 -0.2918
11848TIP3    H157035   1.287   4.108   4.448  0.3431  0.4729  0.1244
11848TIP3    H257036   1.231   3.968   4.436 -0.3364  0.9143 -2.5742
11849TIP3   OH257037   3.629   0.503  14.858 -0.4367 -0.2113 -1.1261
11849TIP3    H157038   3.662   0.453  14.784  0.1289 -0.2576 -0.8526
11849TIP3    H257039   3.700   0.500  14.922 -0.7528  0.1794 -0.7487
11850TIP3   OH257040   0.196   0.622   5.755  0.2272  0.3719  0.3729
11850TIP3    H157041   0.129   0.672   5.803  0.5123  0.2805  0.8686
11850TIP3    H257042   0.150   0.591   5.677  0.4565  2.8305 -0.8577
11851TIP3   OH257043   0.420   3.696   1.614  0.8929  0.4790  0.2958
11851TIP3    H157044   0.389   3.717   1.702  1.3697 -1.9273  1.1353
11851TIP3    H257045   0.428   3.600   1.614 -0.5692  0.2085 -2.8661
11852TIP3   OH257046   4.749   5.911  15.299 -0.3239 -0.4428 -0.3699
11852TIP3    H157047   4.690   5.894  15.373 -0.9185  2.7804  0.0396
11852TIP3    H257048   4.822   5.960  15.338 -1.0615  2.0803 -1.9044
11853TIP3   OH257049   1.339   3.823  14.551 -0.2885 -0.4020  0.5989
11853TIP3    H157050   1.245   3.833  14.538 -0.7417 -0.4124  3.2947
11853TIP3    H257051   1.357   3.733  14.526 -1.4333 -1.0546  1.9528
11854TIP3   OH257052   0.568   4.519   4.371  0.2331 -0.0063  0.0145
11854TIP3    H157053   0.653   4.499   4.411 -0.2271 -0.3319  0.8679
11854TIP3    H257054   0.541   4.437   4.330  0.0794 -0.0635  0.2284
11855TIP3   OH257055   6.718   4.749  16.223  0.1048  0.4746  0.1312
11855TIP3    H157056   6.798   4.697  16.225 -0.0582  0.2002 -0.3151
11855TIP3    H257057   6.663   4.706  16.157 -0.7459  0.1514  1.0259
11856TIP3   OH257058   2.875   6.145   2.089  0.4490  0.4234  0.0293
11856TIP3    H157059   2.812   6.152   2.018 -1.4621  0.5651  1.6534
11856TIP3    H257060   2.822   6.140   2.169  2.4399 -1.4999  1.3600
11857TIP3   OH257061   0.093   2.886   0.677 -0.6241  1.1785  0.5661
11857TIP3    H157062   0.140   2.956   0.632 -0.2069 -0.2662 -1.4169
11857TIP3    H257063   0.160   2.843   0.731 -0.9448  2.4358  2.0021
11858TIP3   OH257064   2.730   4.443  11.851  0.3306 -0.1516  0.2230
11858TIP3    H157065   2.642   4.467  11.821  0.8522  0.9003 -0.5359
11858TIP3    H257066   2.770   4.527  11.877  0.5166 -0.8036  2.2476
11859TIP3   OH257067   5.401   3.108   0.769  0.1021 -0.0079 -0.1004
11859TIP3    H157068   5.388   3.044   0.699  0.9581 -0.0651 -0.2158
11859TIP3    H257069   5.394   3.057   0.849  0.1861 -0.1302 -0.1718
11860TIP3   OH257070   5.079   3.372   0.907 -0.7980  0.4823  0.0078
11860TIP3    H157071   5.171   3.368   0.934 -0.3714 -0.1959 -1.4544
11860TIP3    H257072   5.057   3.465   0.913  0.2965  0.8013 -0.5532
11861TIP3   OH257073   2.519   0.190   0.894 -0.0878  0.4874  0.3224
11861TIP3    H157074   2.517   0.258   0.961 -1.8361  0.8861 -0.0994
11861TIP3    H257075   2.487   0.233   0.814 -1.4798 -0.8722  0.1114
11862TIP3   OH257076   5.423   6.455  16.819  0.0708 -0.5671 -0.6785
11862TIP3    H157077   5.331   6.431  16.830  0.2744 -0.6854  0.9269
11862TIP3    H257078   5.420   6.544  16.785 -0.6322 -0.6243 -0.7894
11863TIP3   OH257079   0.489   6.340  14.374  0.2515 -0.5888 -0.0203
11863TIP3    H157080   0.570   6.346  14.324  0.0622 -1.0190 -0.3940
11863TIP3    H257081   0.473   6.429  14.406 -0.5011  0.1068 -2.1404
11864TIP3   OH257082   3.611   0.760  14.808  0.0934  0.3698  0.1269
11864TIP3    H157083   3.625   0.669  14.834  2.6391 -0.2116 -2.7077
11864TIP3    H257084   3.650   0.812  14.879 -1.0392 -0.6973  1.5894
11865TIP3   OH257085   6.824   2.979  11.181 -0.2724  0.1684 -0.5839
11865TIP3    H157086   6.781   2.903  11.222  0.4451 -1.2931 -2.4140
11865TIP3    H257087   6.769   3.053  11.206 -0.5269 -0.7687  2.0001
11866TIP3   OH257088   5.888   0.046   4.177 -0.0940  0.2130  0.3192
11866TIP3    H157089   5.866   0.082   4.262  0.3656  0.6604  0.2512
11866TIP3    H257090   5.983   0.030   4.181 -0.3269 -1.3430  0.4854
11867TIP3   OH257091   6.224   3.011   4.035 -0.0997  0.5786 -0.1429
11867TIP3    H157092   6.315   3.025   4.060  0.9388 -0.4159 -2.8795
11867TIP3    H257093   6.198   3.091   3.990 -0.8898  1.1665  1.3020
11868TIP3   OH257094   0.252   4.591   4.091  0.2274  0.1366 -0.5686
11868TIP3    H157095   0.220   4.652   4.025 -0.6345  0.2944 -0.0204
11868TIP3    H257096   0.261   4.644   4.170  0.0708 -0.3041 -0.2497
11869TIP3   OH257097   1.459   0.110  15.782 -0.5185  0.4155  0.3309
11869TIP3    H157098   1.396   0.061  15.835 -1.3974  1.5182  0.3598
11869TIP3    H257099   1.513   0.043  15.739 -1.2201 -0.5367  0.9018
11870TIP3   OH257100   0.961   3.609  17.167  0.3754  0.4198  0.4018
11870TIP3    H157101   1.055   3.608  17.146 -0.0114 -0.0107 -1.5447
11870TIP3    H257102   0.948   3.533  17.223  1.1047  0.1739  0.2494
11871TIP3   OH257103   2.167   6.162  12.462  1.0681  0.0127 -0.0896
11871TIP3    H157104   2.221   6.116  12.398  0.6162  0.1266 -0.5576
11871TIP3    H257105   2.120   6.093  12.508  0.1652  0.0025 -0.9927
11872TIP3   OH257106   1.376   0.005   2.713  0.4039 -0.1169 -0.0500
11872TIP3    H157107   1.338   0.062   2.647 -0.2623 -1.9125 -1.3102
11872TIP3    H257108   1.308  -0.005   2.779  0.4924  0.4427  0.1322
11873TIP3   OH257109   0.214   5.088   6.297 -0.2384  0.2931 -0.4170
11873TIP3    H157110   0.289   5.030   6.293 -0.5354 -0.1303  0.0180
11873TIP3    H257111   0.139   5.032   6.276 -0.6534  0.2529  1.0698
11874TIP3   OH257112   6.266   0.432  16.692  0.0643 -0.3189  0.1448
11874TIP3    H157113   6.273   0.401  16.782 -0.2059 -0.1931  0.2073
11874TIP3    H257114   6.312   0.365  16.641  0.9974  0.0569  0.4633
11875TIP3   OH257115   5.047   0.719  11.609  0.2301 -0.0072  0.6103
11875TIP3    H157116   5.010   0.707  11.522  2.7632  0.9805 -0.7081
11875TIP3    H257117   5.119   0.656  11.614  0.2987  0.1411  1.8893
11876TIP3   OH257118   0.051   6.712  13.263 -0.5456  0.1457 -0.3110
11876TIP3    H157119  -0.031   6.691  13.308  0.0609 -0.1858  0.6660
11876TIP3    H257120   0.109   6.639  13.284  0.3196  0.8637 -0.1734
11877TIP3   OH257121   0.184   2.083   1.234  0.1472  0.0902 -0.1782
11877TIP3    H157122   0.174   2.100   1.141 -1.0725  3.9454  0.4702
11877TIP3    H257123   0.278   2.072   1.248  0.2040 -2.7845 -2.0228
11878TIP3   OH257124   5.514   0.116  14.090  0.3873 -0.4809  0.3490
11878TIP3    H157125   5.473   0.202  14.100 -0.2312 -0.8265  0.8098
11878TIP3    H257126   5.514   0.078  14.178  1.7748 -0.4673  0.3803
11879TIP3   OH257127   3.786   6.493   5.677  0.1478  0.0567  0.3666
11879TIP3    H157128   3.713   6.536   5.720  0.5545  0.9631  0.1839
11879TIP3    H257129   3.746   6.444   5.605 -0.6707 -2.3571  2.3139
11880TIP3   OH257130   2.655   5.493   5.170 -0.0670  0.7143  0.0186
11880TIP3    H157131   2.569   5.456   5.191 -0.1355  0.5302 -0.5630
11880TIP3    H257132   2.671   5.466   5.080  2.2048 -2.2985  1.1690
11881TIP3   OH257133   1.978   2.451   5.090  0.1052  0.1152  0.0548
11881TIP3    H157134   2.035   2.465   5.014  0.5730 -0.2164  0.3383
11881TIP3    H257135   2.015   2.375   5.134 -2.4541 -2.2281 -1.5108
11882TIP3   OH257136   5.437   5.256   1.537  0.5031 -0.2195  0.1128
11882TIP3    H157137   5.376   5.248   1.611  0.6892 -0.3541  0.2521
11882TIP3    H257138   5.393   5.210   1.465  0.0010  0.5214 -0.0609
11883TIP3   OH257139   0.283   3.704   0.119 -0.1885  0.3592 -0.0850
11883TIP3    H157140   0.194   3.708   0.155  0.2247  1.6371  0.9119
11883TIP3    H257141   0.326   3.634   0.168  0.4241  2.2052  2.1945
11884TIP3   OH257142   5.076   4.147   4.250 -0.1991  0.1013 -0.0181
11884TIP3    H157143   5.141   4.185   4.191  1.6719  1.9629  2.9446
11884TIP3    H257144   5.031   4.223   4.288 -2.5628 -1.0841 -0.2534
11885TIP3   OH257145   0.981   2.265   6.275  0.2439  0.3744 -0.4201
11885TIP3    H157146   1.055   2.294   6.329  1.5517 -2.1572 -0.7255
11885TIP3    H257147   0.923   2.220   6.337  0.2561  0.0982 -0.6075
11886TIP3   OH257148   2.168   2.779  11.674 -0.0083  0.0937 -0.0678
11886TIP3    H157149   2.134   2.691  11.654 -1.1257  0.2974  0.8206
11886TIP3    H257150   2.164   2.785  11.769 -1.1237  1.5483 -0.1713
11887TIP3   OH257151   4.603   6.446   1.466 -0.3199  0.1386  0.1827
11887TIP3    H157152   4.636   6.523   1.421 -1.7575  0.4841 -0.3462
11887TIP3    H257153   4.681   6.395   1.489  0.6096  1.4438  0.0051
11888TIP3   OH257154   4.236   1.464  14.944 -0.0798 -0.3657 -0.2578
11888TIP3    H157155   4.239   1.457  15.039 -0.8798  0.5387 -0.1393
11888TIP3    H257156   4.144   1.482  14.925  0.2862  0.7496 -1.0855
11889TIP3   OH257157   3.243   4.462   3.412  0.2840  0.2460 -0.4748
11889TIP3    H157158   3.200   4.548   3.414 -0.9447 -0.3495  0.3392
11889TIP3    H257159   3.178   4.403   3.451  0.9877 -1.1062 -1.3032
11890TIP3   OH257160   5.882   4.563   4.491 -0.3558  0.0938 -0.2923
11890TIP3    H157161   5.948   4.590   4.427 -0.5207  0.5468 -0.2753
11890TIP3    H257162   5.799   4.567   4.443 -0.2451 -1.7078 -0.6866
11891TIP3   OH257163   6.642   2.687   3.497  0.1145 -0.1596  0.1208
11891TIP3    H157164   6.557   2.672   3.456 -0.2821  1.4214  0.2742
11891TIP3    H257165   6.706   2.649   3.436 -0.6771 -1.2495 -0.0555
11892TIP3   OH257166   2.263   1.692  14.248 -0.3267  0.3498  0.3393
11892TIP3    H157167   2.331   1.657  14.306 -0.3048  0.5036  0.4072
11892TIP3    H257168   2.308   1.761  14.199 -0.8643  1.6717  1.6289
11893TIP3   OH257169   0.645   1.314   4.243  0.7103  0.0087  0.2170
11893TIP3    H157170   0.712   1.297   4.309  0.6930 -0.7389  0.0600
11893TIP3    H257171   0.562   1.297   4.289  0.6657  0.1828  0.2002
11894TIP3   OH257172   2.483   1.726  13.510  0.4876 -0.6301 -0.5955
11894TIP3    H157173   2.498   1.821  13.507 -0.6853 -0.4352 -0.9476
11894TIP3    H257174   2.560   1.688  13.469  0.8317  0.1895 -0.7282
11895TIP3   OH257175   2.723   0.261  14.269  0.3304  0.4038  0.0833
11895TIP3    H157176   2.769   0.345  14.278  1.7848 -0.4980  1.6672
11895TIP3    H257177   2.678   0.249  14.352  1.0598 -0.8796  0.3198
11896TIP3   OH257178   3.708   0.220   2.252  0.2116 -0.0289  0.1104
11896TIP3    H157179   3.787   0.270   2.231 -0.8991  1.3091 -1.0420
11896TIP3    H257180   3.657   0.278   2.308 -0.6273 -0.3050 -0.3563
11897TIP3   OH257181   4.055   3.236   4.853 -0.0895  0.7378 -0.1443
11897TIP3    H157182   4.102   3.312   4.889 -0.6295  1.0575 -0.1058
11897TIP3    H257183   3.962   3.257   4.865 -0.2415 -0.2879  0.5997
11898TIP3   OH257184   6.134   3.321  15.439  0.0152  0.3516 -0.0776
11898TIP3    H157185   6.080   3.354  15.511  0.4929  1.6779 -0.2992
11898TIP3    H257186   6.071   3.284  15.376 -0.5627  1.0219  0.0989
11899TIP3   OH257187   1.598   4.851  10.340  0.1402  0.3515 -0.1545
11899TIP3    H157188   1.568   4.899  10.263 -1.4310  0.2554  0.3536
11899TIP3    H257189   1.535   4.780  10.349  2.1380 -1.5612 -0.6025
11900TIP3   OH257190   3.629   2.108   3.092  0.9070  0.1929 -0.1556
11900TIP3    H157191   3.612   2.017   3.068  1.5734 -0.3088  1.1807
11900TIP3    H257192   3.723   2.119   3.078  1.4155 -0.2459  2.4283
11901TIP3   OH257193   3.532   1.439  14.830  0.2169 -0.0373  0.1118
11901TIP3    H157194   3.536   1.386  14.750 -0.1965 -0.0769  0.1124
11901TIP3    H257195   3.545   1.529  14.800 -1.3597  0.1256 -0.2139
11902TIP3   OH257196   5.854   1.558  12.201  0.0276  0.3895  0.3497
11902TIP3    H157197   5.939   1.514  12.196 -0.3899 -0.9456  3.0758
11902TIP3    H257198   5.793   1.496  12.161 -0.2427 -0.7167  2.3294
11903TIP3   OH257199   4.039   0.435  11.893 -0.4507  0.2352 -0.1315
11903TIP3    H157200   3.958   0.486  11.903 -0.2732  0.3365  0.8700
11903TIP3    H257201   4.089   0.453  11.973  0.2939 -0.3119 -0.4628
11904TIP3   OH257202   2.465   0.673   2.653 -0.2220 -0.7470 -0.0232
11904TIP3    H157203   2.423   0.636   2.575 -1.4432 -1.2360  0.8527
11904TIP3    H257204   2.484   0.763   2.629  0.6127 -1.2394 -1.3432
11905TIP3   OH257205   0.822   2.305  14.738 -0.1532 -0.2794 -0.4698
11905TIP3    H157206   0.846   2.396  14.724 -1.4939 -0.2446 -3.2705
11905TIP3    H257207   0.759   2.307  14.810  0.2625  0.9031 -0.1223
11906TIP3   OH257208   4.883   0.649  12.255  0.0343 -0.7912 -0.0577
11906TIP3    H157209   4.861   0.703  12.330 -0.1754 -0.0026 -0.6690
11906TIP3    H257210   4.831   0.685  12.183 -0.3942 -2.0504 -0.3985
11907TIP3   OH257211   3.992   6.277  15.284 -0.2922  0.0094 -0.2200
11907TIP3    H157212   4.045   6.356  15.290  0.6946 -0.6808  0.4935
11907TIP3    H257213   3.907   6.307  15.251  0.1995  1.2901 -0.3656
11908TIP3   OH257214   1.427   2.618  12.360 -0.1076  0.2286 -0.1666
11908TIP3    H157215   1.369   2.660  12.296 -1.2009 -2.5075 -1.1500
11908TIP3    H257216   1.485   2.564  12.306  2.0074  1.2752  0.9582
11909TIP3   OH257217   5.631   2.790   5.474  0.0968 -0.1584 -0.6950
11909TIP3    H157218   5.548   2.835   5.457  0.2470  0.4659  0.1192
11909TIP3    H257219   5.618   2.749   5.560  0.2469 -0.9944 -1.0700
11910TIP3   OH257220   4.406   6.013   5.694 -0.3745 -0.3666  0.1539
11910TIP3    H157221   4.320   6.054   5.689  0.2895  1.1666  0.9730
11910TIP3    H257222   4.468   6.085   5.701  0.8442 -1.4777  1.6526
11911TIP3   OH257223   4.193   0.147  15.747  0.0828 -0.0356 -0.0654
11911TIP3    H157224   4.142   0.228  15.746  0.8713  0.5350  1.5701
11911TIP3    H257225   4.141   0.087  15.801  0.7239  0.2656  0.8983
11912TIP3   OH257226   2.704   1.197   0.149 -0.1418  0.6418 -0.1351
11912TIP3    H157227   2.746   1.113   0.130  0.4714  0.3778  2.0952
11912TIP3    H257228   2.615   1.189   0.116 -0.0243 -0.8190 -0.1246
11913TIP3   OH257229   4.068   4.139  14.850  0.5565  0.1071  0.1705
11913TIP3    H157230   4.038   4.055  14.884 -1.0995  0.4449 -0.3591
11913TIP3    H257231   4.120   4.117  14.773  0.4167 -0.4522  0.2312
11914TIP3   OH257232   2.325   5.040   0.325  0.4502  0.2092  0.1376
11914TIP3    H157233   2.234   5.061   0.346  0.5886 -0.6242  1.7709
11914TIP3    H257234   2.375   5.069   0.401  1.0675 -2.5348  0.9151
11915TIP3   OH257235   1.788   0.253  10.887  0.1604  0.0309  0.5127
11915TIP3    H157236   1.780   0.349  10.893  0.5505  0.1120 -0.1557
11915TIP3    H257237   1.703   0.223  10.856  0.2317  0.2215  0.1275
11916TIP3   OH257238   0.985   5.284  17.019 -0.9687 -0.1831  0.0043
11916TIP3    H157239   1.032   5.365  17.040 -1.8830  0.4966 -0.4580
11916TIP3    H257240   1.035   5.215  17.061 -0.3198  0.6628  0.6547
11917TIP3   OH257241   3.700   4.913  12.726  0.0047 -0.1305  0.1690
11917TIP3    H157242   3.771   4.971  12.697 -0.6923  1.2488  1.1169
11917TIP3    H257243   3.669   4.872  12.646  1.5282 -0.3855 -0.3315
11918TIP3   OH257244   3.105   1.824  16.308  0.4090 -0.1247  0.3779
11918TIP3    H157245   3.011   1.806  16.311  0.1649  1.1919  2.7823
11918TIP3    H257246   3.146   1.739  16.292 -1.1175 -0.9508  0.7249
11919TIP3   OH257247   6.509   3.138  14.078  0.3488 -0.2109 -0.2108
11919TIP3    H157248   6.583   3.174  14.029  1.5985  0.5805  2.0569
11919TIP3    H257249   6.441   3.204  14.071  1.6752  1.4945  1.6848
11920TIP3   OH257250   6.567   2.752  16.644 -0.0935 -0.6477  0.5864
11920TIP3    H157251   6.512   2.790  16.575  1.5768  0.7677 -0.0520
11920TIP3    H257252   6.556   2.812  16.718  1.8216  0.6384 -0.1079
11921TIP3   OH257253   0.312   5.846  12.437 -0.0040 -0.2061 -0.4761
11921TIP3    H157254   0.382   5.879  12.493 -0.0531  0.9328 -1.0637
11921TIP3    H257255   0.347   5.851  12.348 -1.5271  2.4091 -1.0250
11922TIP3   OH257256   3.700   5.740  13.728 -0.1506 -0.1409  0.7750
11922TIP3    H157257   3.776   5.789  13.698  0.3729 -1.5080 -0.2301
11922TIP3    H257258   3.625   5.796  13.705  0.4841  0.8203  0.9791
11923TIP3   OH257259   1.940   5.388   5.181 -0.1161  0.0952  0.0700
11923TIP3    H157260   1.955   5.461   5.241 -0.7083  0.3360 -0.0698
11923TIP3    H257261   2.003   5.321   5.208 -0.2789  0.2570  0.8710
11924TIP3   OH257262   2.159   5.592  10.524  0.0797 -0.1877  0.4955
11924TIP3    H157263   2.071   5.576  10.557 -0.4854  0.9826 -0.3620
11924TIP3    H257264   2.184   5.510  10.482 -0.5134 -0.5951  0.9253
11925TIP3   OH257265   5.424   4.693  15.301  0.4797  0.1347  0.5045
11925TIP3    H157266   5.362   4.762  15.322 -0.4869 -0.7754  0.7594
11925TIP3    H257267   5.450   4.710  15.211 -2.2670 -0.9641 -0.5989
11926TIP3   OH257268   2.947   0.021  15.355 -0.3604 -0.1036  0.6978
11926TIP3    H157269   2.919  -0.067  15.329 -2.5031  0.9141 -0.7380
11926TIP3    H257270   3.014   0.044  15.290 -0.9053 -0.1012  0.1266
11927TIP3   OH257271   6.754   2.195   4.421 -0.6390 -0.0568 -0.1764
11927TIP3    H157272   6.744   2.254   4.496  0.1924 -0.2869  0.1199
11927TIP3    H257273   6.766   2.109   4.459 -1.9442 -0.4619 -0.6122
11928TIP3   OH257274   3.733   3.399   3.597 -0.1355 -0.0345 -0.0485
11928TIP3    H157275   3.672   3.401   3.671  0.9502  0.9072  0.8498
11928TIP3    H257276   3.770   3.311   3.600 -0.7939 -0.3194 -0.0630
11929TIP3   OH257277   3.535   3.090   3.574 -0.0053  0.1352  0.4366
11929TIP3    H157278   3.614   3.144   3.583  1.3472 -1.1541 -2.5392
11929TIP3    H257279   3.545   3.022   3.640  1.2387  0.1721  0.3092
11930TIP3   OH257280   2.922   5.888  15.999 -0.2376  0.6286  0.4185
11930TIP3    H157281   2.827   5.878  16.000 -0.2140 -0.1629  2.9494
11930TIP3    H257282   2.955   5.798  15.996  0.4746  0.9095 -0.8433
11931TIP3   OH257283   5.173   0.986   6.751  0.1953 -0.3316 -0.4418
11931TIP3    H157284   5.197   1.061   6.807  1.4990 -0.8569 -0.2578
11931TIP3    H257285   5.082   1.001   6.729  0.1285  0.7624  0.4786
11932TIP3   OH257286   4.516   1.315  15.060  0.2661  0.6482 -0.4361
11932TIP3    H157287   4.611   1.304  15.061  0.2036 -0.0808  0.9891
11932TIP3    H257288   4.483   1.236  15.017  0.3073  1.0372 -1.1933
11933TIP3   OH257289   2.113   2.790  17.203  0.4328  0.7962 -0.3170
11933TIP3    H157290   2.151   2.715  17.159 -0.5987  0.6174 -0.9172
11933TIP3    H257291   2.188   2.834  17.244  0.9463 -1.1421  0.9900
11934TIP3   OH257292   2.097   4.553   4.518  0.0482  0.3542 -0.0449
11934TIP3    H157293   2.047   4.634   4.530 -0.3388 -0.1105  1.8346
11934TIP3    H257294   2.131   4.532   4.605  0.4613 -1.2966 -0.5602
11935TIP3   OH257295   4.817   0.482   5.082  0.9291 -0.7718 -0.2413
11935TIP3    H157296   4.856   0.569   5.087 -1.2605  0.3039 -0.5427
11935TIP3    H257297   4.782   0.466   5.170 -2.4490  0.6424 -1.1643
11936TIP3   OH257298   3.728   0.287   4.736 -0.1205 -0.2559 -0.3156
11936TIP3    H157299   3.811   0.268   4.691  0.5989 -0.9678  1.2404
11936TIP3    H257300   3.738   0.246   4.822 -2.4677 -1.1581 -0.4080
11937TIP3   OH257301   5.913   4.242  11.427  0.1209 -0.6691 -0.4675
11937TIP3    H157302   5.905   4.337  11.429 -1.9475 -0.7461 -1.7777
11937TIP3    H257303   5.940   4.218  11.516  0.2470  1.1033  0.0013
11938TIP3   OH257304   3.602   1.585  15.149  0.1041  0.2618 -0.5812
11938TIP3    H157305   3.554   1.522  15.094  2.3843 -2.6151  0.4895
11938TIP3    H257306   3.634   1.651  15.087 -3.0776  1.0032 -1.6268
11939TIP3   OH257307   3.715   3.702  11.125 -0.1215 -0.4432  0.5648
11939TIP3    H157308   3.689   3.759  11.053 -0.1837  1.4487  1.9902
11939TIP3    H257309   3.633   3.661  11.154 -0.5033  0.5933  1.0047
11940TIP3   OH257310   6.578   3.391   1.572  0.5153  0.2501  0.0189
11940TIP3    H157311   6.571   3.469   1.628  0.1274  0.3836 -0.2086
11940TIP3    H257312   6.592   3.319   1.634 -3.2164 -0.1367  0.6938
11941TIP3   OH257313   2.868   6.136  10.851 -0.0513  0.1752 -0.0809
11941TIP3    H157314   2.859   6.217  10.802 -2.1299 -1.3649 -2.4558
11941TIP3    H257315   2.952   6.099  10.823  0.0190  0.5943 -0.4201
11942TIP3   OH257316   4.390   2.425  10.782  0.0254 -0.2810 -0.1732
11942TIP3    H157317   4.297   2.446  10.779  0.2318  1.7098  2.6719
11942TIP3    H257318   4.430   2.484  10.719 -0.5351 -0.3175 -0.5645
11943TIP3   OH257319   3.370   6.723   0.144 -0.5154  0.3817  0.6012
11943TIP3    H157320   3.440   6.742   0.082 -1.4310 -0.2478 -0.6667
11943TIP3    H257321   3.339   6.809   0.173 -0.1459  0.6846  0.1057
11944TIP3   OH257322   3.138   2.264   6.187 -0.2282 -0.3175 -0.3957
11944TIP3    H157323   3.230   2.272   6.212 -0.3005  0.2990 -0.2982
11944TIP3    H257324   3.090   2.300   6.263 -0.5982 -1.6488  0.0194
11945TIP3   OH257325   3.676   2.537   0.378  0.3064 -0.0784  0.5288
11945TIP3    H157326   3.690   2.562   0.286 -2.0070  0.1882  0.1974
11945TIP3    H257327   3.605   2.474   0.375  1.6503 -1.7535  2.0015
11946TIP3   OH257328   4.174   5.477   3.019 -0.3428 -0.6606 -0.3197
11946TIP3    H157329   4.133   5.399   2.981  0.0386 -1.0128 -0.0057
11946TIP3    H257330   4.131   5.487   3.104 -0.5696 -0.3830 -0.4669
11947TIP3   OH257331   3.513   5.965  11.985 -0.3343 -0.0928 -0.3012
11947TIP3    H157332   3.496   6.048  11.939  0.0559 -0.7219 -1.6355
11947TIP3    H257333   3.570   5.990  12.058 -0.6214  0.8801 -0.3846
11948TIP3   OH257334   3.595   3.234  12.973  0.2289  0.5242  0.2596
11948TIP3    H157335   3.638   3.224  13.058  0.1424 -2.1890  0.0965
11948TIP3    H257336   3.514   3.282  12.992  0.1195 -0.1829  1.7571
11949TIP3   OH257337   1.751   3.552   4.903 -0.5921  0.0590  0.3531
11949TIP3    H157338   1.705   3.563   4.986 -0.8218 -0.8465  0.3556
11949TIP3    H257339   1.835   3.512   4.927 -1.6385 -2.5692 -0.0183
11950TIP3   OH257340   5.624   2.394  16.358 -0.6336  0.3292  0.0071
11950TIP3    H157341   5.693   2.375  16.295 -0.8339  1.4863 -0.5840
11950TIP3    H257342   5.570   2.315  16.359 -1.2832  0.6855 -2.1603
11951TIP3   OH257343   5.128   2.388   4.791 -0.0061 -0.1893 -0.2354
11951TIP3    H157344   5.205   2.440   4.768  0.6967 -1.2396 -0.3485
11951TIP3    H257345   5.112   2.333   4.714 -1.6711  0.9069 -0.7235
11952TIP3   OH257346   4.480   2.298   3.290  0.3059  0.3575  0.0455
11952TIP3    H157347   4.565   2.303   3.334  0.0075  3.3476  0.4611
11952TIP3    H257348   4.502   2.297   3.197  0.7955 -0.0315  0.1568
11953TIP3   OH257349   5.480   4.760   5.572  0.3793  0.3509 -0.1465
11953TIP3    H157350   5.447   4.671   5.572  1.9931 -0.2803 -0.6330
11953TIP3    H257351   5.416   4.810   5.622  0.0422 -1.3067  1.1395
11954TIP3   OH257352   0.179   3.062  16.009 -0.1282  0.4843 -0.0338
11954TIP3    H157353   0.174   3.111  16.091  1.8525  0.7086 -0.0147
11954TIP3    H257354   0.247   3.106  15.958  0.6696 -1.3563 -0.6362
11955TIP3   OH257355   4.339   0.369  13.022 -0.1364 -0.6343 -0.1054
11955TIP3    H157356   4.322   0.345  13.113  0.0738 -0.5335 -0.0404
11955TIP3    H257357   4.272   0.436  13.003 -0.4617 -0.9702 -0.1634
11956TIP3   OH257358   3.252   3.608   1.499 -0.1792 -0.1231 -0.3676
11956TIP3    H157359   3.245   3.584   1.406 -2.4383 -0.5514 -0.1404
11956TIP3    H257360   3.233   3.527   1.546  1.1387  0.0508  0.4936
11957TIP3   OH257361   1.793   6.209   3.461  0.3057 -0.4060 -0.2457
11957TIP3    H157362   1.809   6.304   3.460 -0.2250 -0.3042  0.2890
11957TIP3    H257363   1.709   6.200   3.506  0.8256 -1.2056  0.5886
11958TIP3   OH257364   3.734   5.322   3.312  0.3174 -0.2424  0.0911
11958TIP3    H157365   3.800   5.387   3.286  0.6535 -1.2007 -1.5410
11958TIP3    H257366   3.784   5.250   3.350  0.3097 -1.2251 -1.6755
11959TIP3   OH257367   0.692   2.893   2.691  0.2083 -0.1160 -0.0440
11959TIP3    H157368   0.776   2.861   2.657  0.3748  0.0022  0.2446
11959TIP3    H257369   0.626   2.839   2.648  0.5703 -2.4709  2.0895
11960TIP3   OH257370   3.198   4.223   2.394  0.4469  0.2893 -0.1049
11960TIP3    H157371   3.201   4.131   2.368 -0.5044  0.0847  0.4526
11960TIP3    H257372   3.104   4.241   2.407  0.7266  0.9597  1.1084
11961TIP3   OH257373   1.935   5.585  15.424  0.4840 -0.6748 -0.9272
11961TIP3    H157374   1.938   5.604  15.331 -1.1313  2.1431 -0.5165
11961TIP3    H257375   1.842   5.578  15.445  0.7496  0.1167  0.6992
11962TIP3   OH257376   0.758   6.513  16.819  0.1358 -0.0233  0.0510
11962TIP3    H157377   0.776   6.420  16.825 -0.0305 -0.0208  0.5997
11962TIP3    H257378   0.839   6.556  16.846 -0.4291 -0.0135  1.8463
11963TIP3   OH257379   5.105   3.305   5.537 -0.4436 -0.3267  0.1562
11963TIP3    H157380   5.014   3.329   5.522 -0.2907 -0.0137 -0.3003
11963TIP3    H257381   5.131   3.356   5.613 -0.3977  0.2588 -0.2411
11964TIP3   OH257382   4.394   6.336  12.923 -0.1718 -0.1493 -0.2779
11964TIP3    H157383   4.400   6.373  13.011  1.2762  0.4511 -0.6097
11964TIP3    H257384   4.313   6.372  12.888  0.2404  1.2079  0.0953
11965TIP3   OH257385   1.631   5.691  17.146  0.1191 -0.1085 -0.1171
11965TIP3    H157386   1.711   5.724  17.105 -0.0462  1.0236  0.4399
11965TIP3    H257387   1.561   5.712  17.084  0.0526  0.3548  0.1074
11966TIP3   OH257388   5.748   2.694   2.332  0.4134 -0.0463  0.6028
11966TIP3    H157389   5.797   2.682   2.250  1.2342  0.9974  0.9160
11966TIP3    H257390   5.732   2.605   2.363 -0.2119 -0.4657 -0.8506
11967TIP3   OH257391   6.229   2.065   4.307 -0.2411  0.2988 -0.4243
11967TIP3    H157392   6.253   2.063   4.399 -1.4919 -0.1923 -0.0962
11967TIP3    H257393   6.216   1.973   4.283 -0.9537  0.4899 -0.7992
11968TIP3   OH257394   4.089   5.329   4.017 -0.1941 -0.3939  0.5840
11968TIP3    H157395   4.083   5.238   3.988 -0.0377 -0.1107 -0.3747
11968TIP3    H257396   3.999   5.362   4.012 -0.0270 -0.0655 -0.5691
11969TIP3   OH257397   0.883   0.082  16.913  0.4849  0.6664  0.5169
11969TIP3    H157398   0.878   0.017  16.983 -0.1625  0.6237  0.4348
11969TIP3    H257399   0.835   0.158  16.946 -1.1234  0.1179 -0.4315
11970TIP3   OH257400   2.236   2.760  16.576 -0.0675 -0.1704 -0.0542
11970TIP3    H157401   2.313   2.773  16.521  0.3212 -1.2693  0.2020
11970TIP3    H257402   2.267   2.704  16.647 -0.3440  1.8208  1.7491
11971TIP3   OH257403   6.485   1.242   2.117  0.2121  0.3806  0.4522
11971TIP3    H157404   6.561   1.233   2.175  0.1445  0.9555  0.6345
11971TIP3    H257405   6.435   1.162   2.131 -0.7730  1.2903  2.5837
11972TIP3   OH257406   4.985   2.472  17.100  1.1212  0.4067 -0.0472
11972TIP3    H157407   5.026   2.427  17.174  0.5306  0.3757  0.2645
11972TIP3    H257408   5.050   2.467  17.030  2.1177  1.3220  0.7664
11973TIP3   OH257409   3.230   6.434  13.635  1.1646 -0.6142 -0.4285
11973TIP3    H157410   3.161   6.393  13.688  0.9138 -0.6647 -0.7934
11973TIP3    H257411   3.245   6.373  13.563  0.4209  0.1685 -1.2712
11974TIP3   OH257412   0.614   3.442  14.176  0.0411  0.2553 -0.3357
11974TIP3    H157413   0.547   3.392  14.129  0.1073 -1.1529  0.9824
11974TIP3    H257414   0.570   3.522  14.203 -0.6547  0.0446 -0.8116
11975TIP3   OH257415   4.371   5.186   3.664  0.4368  0.0198 -0.6469
11975TIP3    H157416   4.365   5.213   3.756  0.3819  2.6182 -1.3383
11975TIP3    H257417   4.462   5.157   3.654  0.6697  0.4817  0.0442
11976TIP3   OH257418   3.643   5.495  14.170 -0.4978 -0.1326 -0.1069
11976TIP3    H157419   3.641   5.452  14.256  0.5166 -0.5004 -0.2564
11976TIP3    H257420   3.587   5.441  14.115 -2.4522  0.9755  0.6847
11977TIP3   OH257421   3.499   4.806   5.251 -0.4571 -0.5791 -0.4530
11977TIP3    H157422   3.442   4.739   5.213 -0.6396 -0.7870  0.1776
11977TIP3    H257423   3.458   4.889   5.229  0.1030 -0.6330 -1.7869
11978TIP3   OH257424   3.312   6.519  15.843 -0.0869 -0.2354  0.1718
11978TIP3    H157425   3.273   6.503  15.757 -1.3767 -1.9077  0.9877
11978TIP3    H257426   3.238   6.548  15.897  0.5075 -0.1495  0.9522
11979TIP3   OH257427   1.814   5.471  12.228  0.3227 -0.3002 -0.0893
11979TIP3    H157428   1.770   5.516  12.156 -0.0935 -0.1934  0.2321
11979TIP3    H257429   1.874   5.410  12.184  1.0128  0.6625 -0.5358
11980TIP3   OH257430   2.056   5.200   0.645  0.2259  0.1138 -0.4223
11980TIP3    H157431   1.972   5.218   0.686  0.0840  1.3620 -1.2173
11980TIP3    H257432   2.090   5.124   0.693 -2.2019 -1.6784 -1.3256
11981TIP3   OH257433   1.100   3.164   0.667 -0.3434 -0.3040  0.0575
11981TIP3    H157434   1.133   3.076   0.685  0.7800 -0.2803 -1.6441
11981TIP3    H257435   1.061   3.158   0.580  0.4027  1.0213 -0.4044
11982TIP3   OH257436   0.184   6.557  12.631 -0.4558  0.0126  0.3089
11982TIP3    H157437   0.091   6.576  12.618 -0.6447 -0.3575  1.0770
11982TIP3    H257438   0.218   6.545  12.543 -1.5186 -1.6264  0.0668
11983TIP3   OH257439   4.897   3.257   0.170 -0.4339  0.0095 -0.7878
11983TIP3    H157440   4.949   3.277   0.248 -2.1387 -0.4915  0.5607
11983TIP3    H257441   4.947   3.191   0.123  1.1047  1.0544 -0.6712
11984TIP3   OH257442   4.448   6.713  12.166 -0.0880  0.6316  0.1219
11984TIP3    H157443   4.485   6.662  12.095  0.8635 -0.8399  1.6005
11984TIP3    H257444   4.511   6.783  12.181  1.1061 -0.6230  1.2248
11985TIP3   OH257445   0.402   1.291   6.614 -0.0077  0.3063 -0.0806
11985TIP3    H157446   0.307   1.298   6.616 -0.1458 -1.1731 -0.3222
11985TIP3    H257447   0.424   1.299   6.521  0.1101  0.5598 -0.0335
11986TIP3   OH257448   6.456   1.961  16.244  0.1896 -0.2999 -0.1341
11986TIP3    H157449   6.365   1.989  16.245  0.0169 -0.8527  0.6184
11986TIP3    H257450   6.459   1.889  16.180  0.2104  0.0510 -0.5314
11987TIP3   OH257451   4.195   0.426   1.904 -0.1667  0.9266 -0.0785
11987TIP3    H157452   4.240   0.399   1.984  0.4423 -0.0978 -0.7526
11987TIP3    H257453   4.102   0.419   1.926 -0.0139 -0.0742  0.3053
11988TIP3   OH257454   4.821   3.732  14.702  0.8412 -0.3668 -1.4996
11988TIP3    H157455   4.799   3.674  14.775 -1.5941  2.2541  0.0524
11988TIP3    H257456   4.915   3.749  14.713  0.6489 -0.4234  0.7918
11989TIP3   OH257457   2.154   4.507  14.413  0.6955 -0.2179  0.4193
11989TIP3    H157458   2.131   4.414  14.417  1.9540 -0.5283  1.1223
11989TIP3    H257459   2.241   4.508  14.374  0.5400  0.7052  0.0836
11990TIP3   OH257460   6.336   6.648  11.214  0.6314 -0.5514 -0.0258
11990TIP3    H157461   6.425   6.614  11.217  0.9635  0.3827  1.1646
11990TIP3    H257462   6.331   6.694  11.130  1.1669 -0.8792 -0.2405
11991TIP3   OH257463   1.695   4.210   3.699 -0.3778  0.1521 -0.2707
11991TIP3    H157464   1.729   4.210   3.609  0.1688 -0.4319 -0.0764
11991TIP3    H257465   1.612   4.163   3.693  0.2252 -0.9500 -0.2837
11992TIP3   OH257466   2.916   2.073   6.678  0.0193 -0.3124 -0.8216
11992TIP3    H157467   2.839   2.112   6.637  0.9047 -2.0227 -4.6862
11992TIP3    H257468   2.988   2.130   6.651  0.4038  0.0611  0.8964
11993TIP3   OH257469   2.994   0.215   4.183 -0.3090 -0.4048 -0.3282
11993TIP3    H157470   2.947   0.232   4.264  0.9098 -1.3346  0.6002
11993TIP3    H257471   2.934   0.162   4.131 -1.2335  0.4928 -0.2049
11994TIP3   OH257472   0.828   3.992  11.122  0.3310  0.4172  0.2679
11994TIP3    H157473   0.770   4.067  11.112 -0.2196 -0.1960 -1.5330
11994TIP3    H257474   0.916   4.029  11.124  0.0894  1.1076 -0.9504
11995TIP3   OH257475   1.496   6.287  10.511  0.0558 -0.1731  0.1332
11995TIP3    H157476   1.483   6.316  10.420 -2.2369 -0.8623  0.1821
11995TIP3    H257477   1.545   6.358  10.552  3.0814 -0.7364 -2.1075
11996TIP3   OH257478   3.651   5.758  16.239  0.7301  0.4124 -0.2413
11996TIP3    H157479   3.668   5.768  16.145  0.9093  0.8135 -0.1687
11996TIP3    H257480   3.623   5.668  16.248  1.8931 -0.0034 -0.5154
11997TIP3   OH257481   0.766   0.172   4.314  0.5280 -0.1477 -0.1141
11997TIP3    H157482   0.672   0.153   4.306  0.3519  0.5646  0.1637
11997TIP3    H257483   0.786   0.154   4.406  0.4652  0.5298  0.0360
11998TIP3   OH257484   0.867   2.912  13.283 -0.7336  0.0359 -1.0305
11998TIP3    H157485   0.878   2.863  13.364  0.0898  0.1148 -1.0819
11998TIP3    H257486   0.935   2.877  13.225  0.1453  1.4750 -0.9342
11999TIP3   OH257487   5.972   2.664  12.278  0.0939 -0.1025 -0.0866
11999TIP3    H157488   5.984   2.663  12.373  0.0851 -0.6929 -0.0868
11999TIP3    H257489   5.989   2.574  12.251 -0.0847  0.0211 -0.6248
12000TIP3   OH257490   3.095   1.477  13.258 -0.3467 -0.5245 -0.2592
12000TIP3    H157491   3.066   1.410  13.196  2.5443 -1.4086 -0.8190
12000TIP3    H257492   3.103   1.429  13.341 -0.4109 -0.3191 -0.1358
12001TIP3   OH257493   5.530   1.397   5.441  0.0888  0.2743  0.1239
12001TIP3    H157494   5.560   1.312   5.407  0.7030  0.1414  0.9863
12001TIP3    H257495   5.566   1.402   5.529  0.2532  1.5465  0.0026
12002TIP3   OH257496   5.619   0.756   1.802 -0.0245 -0.3556 -0.4334
12002TIP3    H157497   5.681   0.685   1.822  0.1502 -1.0201 -3.0379
12002TIP3    H257498   5.540   0.711   1.772 -0.2010  0.5471 -1.3617
12003TIP3   OH257499   1.723   2.101   1.100  0.0349 -0.1846  0.3721
12003TIP3    H157500   1.787   2.153   1.051 -0.6253  1.3619  1.0949
12003TIP3    H257501   1.772   2.023   1.127  0.4767 -1.0523 -2.5157
12004TIP3   OH257502   1.515   1.908  16.183  0.1584  0.4611  0.0195
12004TIP3    H157503   1.486   1.826  16.144 -0.2644  0.7101 -0.1931
12004TIP3    H257504   1.435   1.951  16.210  0.2753  1.3778 -1.0135
12005TIP3   OH257505   5.784   3.242  12.035  0.0595 -0.3288  0.5345
12005TIP3    H157506   5.804   3.273  12.124  0.2499  1.0197  0.0410
12005TIP3    H257507   5.837   3.163  12.025  1.6748  0.6653  0.8900
12006TIP3   OH257508   5.538   1.540  14.795 -0.2929 -0.5561  0.5793
12006TIP3    H157509   5.618   1.540  14.848 -0.3398 -3.0636  0.7753
12006TIP3    H257510   5.491   1.619  14.823  2.0420  0.9871  0.4845
12007TIP3   OH257511   5.907   4.051  12.363 -0.2297 -0.0721 -0.1097
12007TIP3    H157512   5.836   4.116  12.357  0.1789  0.4433  0.5275
12007TIP3    H257513   5.950   4.070  12.446  0.0147 -1.0563 -0.0058
12008TIP3   OH257514   4.084   2.112  14.914 -0.1040 -0.1517  0.3146
12008TIP3    H157515   4.125   2.062  14.843 -0.2134  0.8214 -0.4745
12008TIP3    H257516   4.137   2.093  14.991  1.9858  1.1769 -0.6987
12009TIP3   OH257517   2.985   4.280   3.217 -0.0954  0.2591 -0.2799
12009TIP3    H157518   3.029   4.275   3.302  0.4643 -0.9708 -0.6135
12009TIP3    H257519   3.054   4.264   3.153 -1.0505 -2.5227 -0.7797
12010TIP3   OH257520   0.123   2.574   5.215  0.2863 -0.0187  0.1752
12010TIP3    H157521   0.211   2.555   5.183  0.0858  0.0707 -0.4392
12010TIP3    H257522   0.090   2.490   5.248  0.6522 -0.0204  0.5459
12011TIP3   OH257523   1.117   2.642  16.604  0.1658  0.1981  0.0158
12011TIP3    H157524   1.069   2.682  16.677 -0.2967  0.6959 -0.5538
12011TIP3    H257525   1.088   2.690  16.527  0.9354 -0.0817 -0.4540
12012TIP3   OH257526   2.543   4.045  11.740  0.6431  0.0361 -0.2422
12012TIP3    H157527   2.627   4.001  11.726  0.2351 -0.4028 -1.4868
12012TIP3    H257528   2.508   4.058  11.652 -1.4366 -1.4343  0.2911
12013TIP3   OH257529   1.519   6.660   0.754  0.1210 -0.0529  0.7188
12013TIP3    H157530   1.576   6.585   0.737  1.0317  0.8783 -0.5448
12013TIP3    H257531   1.466   6.669   0.675  0.0754  0.6660  0.8235
12014TIP3   OH257532   3.051   5.913   5.742 -0.5410  0.2973 -0.0639
12014TIP3    H157533   3.145   5.928   5.739 -0.6186  0.8736  0.3107
12014TIP3    H257534   3.033   5.858   5.666  0.0728  0.3350 -0.2367
12015TIP3   OH257535   0.215   6.381   0.992  0.2028 -0.7849  0.3440
12015TIP3    H157536   0.237   6.474   0.999 -1.6665 -0.3133  0.7327
12015TIP3    H257537   0.144   6.379   0.928  0.0037 -1.9056  0.5822
12016TIP3   OH257538   2.288   1.205   3.866 -0.1712 -0.3930  0.0339
12016TIP3    H157539   2.279   1.283   3.920  0.1452  0.4178 -1.0499
12016TIP3    H257540   2.232   1.139   3.909 -0.2192  0.3318  1.1115
12017TIP3   OH257541   4.890   4.045  11.085  0.2336 -0.2661 -0.3565
12017TIP3    H157542   4.818   4.062  11.145 -0.0172 -0.2325 -0.6679
12017TIP3    H257543   4.895   4.123  11.030 -0.2930 -0.7795 -1.1477
12018TIP3   OH257544   5.063   5.985  13.217 -0.0477  0.0113 -0.3476
12018TIP3    H157545   5.099   6.055  13.271 -1.0617  1.1593 -1.1329
12018TIP3    H257546   5.100   5.905  13.255  3.2832  1.0519 -1.0480
12019TIP3   OH257547   3.369   6.178   3.833  0.0530  0.3482 -0.1489
12019TIP3    H157548   3.320   6.152   3.910 -3.3718 -1.4522 -2.6628
12019TIP3    H257549   3.395   6.269   3.850 -2.6775  0.8316  2.1683
12020TIP3   OH257550   5.231   6.663   1.121  0.3788  0.1321 -0.5774
12020TIP3    H157551   5.165   6.617   1.172  0.2415 -0.6786 -1.4561
12020TIP3    H257552   5.183   6.731   1.073  0.3392  0.1709 -0.4829
12021TIP3   OH257553   4.042   5.495  14.237  0.1227 -0.0836  0.1932
12021TIP3    H157554   3.976   5.549  14.280  1.2776  0.3427  1.4818
12021TIP3    H257555   4.091   5.455  14.309 -0.4217 -2.5463 -0.7198
12022TIP3   OH257556   3.085   4.297   0.620  0.8853 -0.0018 -0.3971
12022TIP3    H157557   3.163   4.323   0.671  0.8967 -1.1248  0.1839
12022TIP3    H257558   3.085   4.357   0.546  2.0224  0.3621 -0.1352
12023TIP3   OH257559   1.301   1.968   3.918 -0.2859  0.5201 -0.1435
12023TIP3    H157560   1.350   2.018   3.985  1.2279 -1.6118  0.4591
12023TIP3    H257561   1.330   2.005   3.835  0.5540  0.8760  0.2937
12024TIP3   OH257562   6.100   5.288  10.736  0.7866 -0.0828 -0.0773
12024TIP3    H157563   6.193   5.273  10.719  0.4716  0.4676 -2.7270
12024TIP3    H257564   6.055   5.251  10.660 -1.1063  0.4367  0.7215
12025TIP3   OH257565   3.704   1.907  13.939 -0.4638  0.0766 -0.0372
12025TIP3    H157566   3.650   1.966  13.887  0.6739  1.0958 -0.0887
12025TIP3    H257567   3.747   1.851  13.875  0.1106  0.6191 -0.1268
12026TIP3   OH257568   6.003   0.152  10.739  0.1594 -0.1672  0.0537
12026TIP3    H157569   6.068   0.153  10.810 -1.0301 -0.8046  1.1992
12026TIP3    H257570   6.024   0.230  10.688  0.6448  0.7126  1.5101
12027TIP3   OH257571   4.801   6.788   4.223 -0.1145  0.4370  0.5377
12027TIP3    H157572   4.749   6.777   4.143 -0.8542 -0.1391  1.0870
12027TIP3    H257573   4.846   6.872   4.211  1.0724 -0.3740 -1.1879
12028TIP3   OH257574   0.315   1.248  13.381  0.0307  0.0487  0.4952
12028TIP3    H157575   0.372   1.250  13.304  1.4175 -2.4068  1.3868
12028TIP3    H257576   0.227   1.261  13.345  0.8114  0.7311 -1.2798
12029TIP3   OH257577   6.000   3.549   0.810  0.0876 -0.4896  0.4059
12029TIP3    H157578   6.066   3.513   0.870 -0.1372 -0.1887  0.8322
12029TIP3    H257579   5.916   3.522   0.846 -0.0458 -0.4418  0.1373
12030TIP3   OH257580   0.863   4.439  16.292  0.3776  0.2177 -0.2786
12030TIP3    H157581   0.920   4.414  16.365  0.4033  0.3149 -0.2651
12030TIP3    H257582   0.785   4.475  16.333  0.2008 -0.1389 -0.2921
12031TIP3   OH257583   0.791   5.009   4.017 -0.9813  0.2930  0.5126
12031TIP3    H157584   0.814   4.964   4.098  0.0998 -2.5719 -1.2492
12031TIP3    H257585   0.865   5.067   4.000  0.6187 -1.8455 -0.2417
12032TIP3   OH257586   6.475   2.232  12.627  0.4078  0.2711  0.4221
12032TIP3    H157587   6.453   2.320  12.595  0.7801  0.7647  1.5083
12032TIP3    H257588   6.503   2.245  12.717 -0.0165 -1.0299  0.7655
12033TIP3   OH257589   0.158   4.460   0.694  0.0823  0.7841  0.5419
12033TIP3    H157590   0.138   4.498   0.608 -4.3661 -3.4745 -0.7204
12033TIP3    H257591   0.241   4.415   0.681 -0.4746  0.2547 -1.5769
12034TIP3   OH257592   6.101   6.619  16.385 -0.4570 -0.2561 -0.1059
12034TIP3    H157593   6.158   6.552  16.347 -0.1379 -0.3451  0.5087
12034TIP3    H257594   6.012   6.590  16.363 -0.2706 -0.0374 -1.2000
12035TIP3   OH257595   2.991   6.134  14.003  0.1195  0.0206  0.1662
12035TIP3    H157596   2.971   6.179  14.085 -2.9442  0.9131 -0.9169
12035TIP3    H257597   3.026   6.203  13.946  1.0094 -0.3168  0.2846
12036TIP3   OH257598   2.624   4.219  14.228  0.2347 -0.4681  0.2414
12036TIP3    H157599   2.559   4.148  14.221  0.4338 -0.6955  0.6276
12036TIP3    H257600   2.662   4.207  14.316 -0.9648  1.1725  1.0293
12037TIP3   OH257601   2.915   5.849  13.667  0.4193 -0.3340  0.4856
12037TIP3    H157602   2.940   5.917  13.605  0.5189 -0.2512  0.6184
12037TIP3    H257603   2.850   5.890  13.724  1.3355  0.0113  1.3113
12038TIP3   OH257604   6.470   4.766   5.207 -0.1309  0.1211 -0.4173
12038TIP3    H157605   6.543   4.803   5.258  0.2319 -0.3798 -0.5640
12038TIP3    H257606   6.425   4.709   5.269  0.5434 -0.7949 -0.7504
12039TIP3   OH257607   4.042   4.910   3.962  0.8669 -0.3574  0.7339
12039TIP3    H157608   4.128   4.921   3.920  1.1227  2.5882  1.8293
12039TIP3    H257609   4.062   4.897   4.055  0.1336 -1.2839  0.7824
12040TIP3   OH257610   1.033   2.903   1.714 -0.2348 -0.4046 -0.2184
12040TIP3    H157611   0.970   2.955   1.764  0.5661  0.4451 -0.0495
12040TIP3    H257612   1.055   2.958   1.639  0.4802 -0.5765 -0.1432
12041TIP3   OH257613   4.566   1.814  11.795  0.1496  0.6563 -0.1050
12041TIP3    H157614   4.489   1.769  11.761  0.4649 -0.8080  0.9926
12041TIP3    H257615   4.532   1.897  11.829 -1.2131 -0.4627  1.4659
12042TIP3   OH257616   4.886   1.443  15.618  0.0384 -0.3167 -0.2003
12042TIP3    H157617   4.915   1.361  15.657 -1.4487 -0.7258  0.0785
12042TIP3    H257618   4.831   1.484  15.684 -0.0915  0.4032 -0.7370
12043TIP3   OH257619   2.092   2.690   5.447  0.1421  0.4985 -0.5034
12043TIP3    H157620   2.029   2.672   5.377  0.3178  1.9073 -1.0533
12043TIP3    H257621   2.160   2.622   5.436 -1.0051 -0.7468 -0.1911
12044TIP3   OH257622   3.523   5.310   5.672 -0.4087  0.4149 -0.3071
12044TIP3    H157623   3.608   5.315   5.716 -1.3790 -0.4157  1.8154
12044TIP3    H257624   3.522   5.385   5.613  2.1411 -0.0710 -1.0942
12045TIP3   OH257625   2.799   1.176  12.102 -0.8255 -0.0418  0.3623
12045TIP3    H157626   2.744   1.098  12.095 -0.8797  0.1387 -2.2111
12045TIP3    H257627   2.829   1.191  12.012  0.6897  1.8276  1.1362
12046TIP3   OH257628   1.294   5.563   3.030 -0.2831 -0.1905  0.2928
12046TIP3    H157629   1.234   5.489   3.021  0.3538 -0.8733  1.4818
12046TIP3    H257630   1.252   5.634   2.981 -1.7381 -0.8294  0.5761
12047TIP3   OH257631   4.015   6.585  11.769 -0.4431 -0.2509 -0.7971
12047TIP3    H157632   4.014   6.519  11.699 -0.4717 -0.7285 -0.3550
12047TIP3    H257633   4.106   6.585  11.799 -0.2605  0.4991 -1.3414
12048TIP3   OH257634   0.716   2.513  13.856 -0.2286 -0.5200 -0.0898
12048TIP3    H157635   0.626   2.502  13.886 -0.7020  0.6197 -1.0134
12048TIP3    H257636   0.746   2.425  13.836 -0.4065 -1.1667  2.1546
12049TIP3   OH257637   2.311   6.117   2.552 -0.2848  0.3912  0.2383
12049TIP3    H157638   2.379   6.075   2.500 -0.9894  0.3648 -0.6872
12049TIP3    H257639   2.235   6.120   2.494 -1.1293  0.2609  1.3009
12050TIP3   OH257640   3.932   1.241  17.082 -0.2502 -0.3369 -0.1869
12050TIP3    H157641   3.855   1.289  17.050  0.0655  2.2626  2.5099
12050TIP3    H257642   4.007   1.294  17.056  0.5079 -1.6290 -0.7574
12051TIP3   OH257643   5.524   4.940  15.479  0.0916 -0.4664  0.2205
12051TIP3    H157644   5.448   4.895  15.444  0.0914 -1.3741  1.3181
12051TIP3    H257645   5.541   4.896  15.562  1.9413 -0.4268 -0.0977
12052TIP3   OH257646   1.458   0.978  15.605  0.4397  0.3699 -0.4270
12052TIP3    H157647   1.444   0.962  15.698  2.4559 -0.3243 -0.1936
12052TIP3    H257648   1.370   0.989  15.569 -0.5098 -1.3211  1.1995
12053TIP3   OH257649   2.439   0.423   1.333  0.5613 -0.0405 -0.5221
12053TIP3    H157650   2.401   0.510   1.338 -2.3685 -1.2559  2.4198
12053TIP3    H257651   2.488   0.413   1.414 -0.7725 -1.7001  0.1461
12054TIP3   OH257652   5.367   5.886   4.735  0.2711 -0.3762  0.4772
12054TIP3    H157653   5.376   5.885   4.830 -0.0697 -1.0028  0.5082
12054TIP3    H257654   5.393   5.798   4.708  1.3179  0.0946 -0.1088
12055TIP3   OH257655   6.133   5.952  14.682 -0.1819  0.1957  0.7000
12055TIP3    H157656   6.101   5.899  14.608 -2.7699 -0.4979  2.1918
12055TIP3    H257657   6.108   6.041  14.660  2.0199  0.5491 -0.6953
12056TIP3   OH257658   1.431   1.027  11.461  0.0551  0.3389  0.0535
12056TIP3    H157659   1.519   1.025  11.498 -0.3187  0.4762  0.9643
12056TIP3    H257660   1.403   1.118  11.469  0.1356  0.4733 -1.0007
12057TIP3   OH257661   1.950   1.893   3.368  0.3870 -0.5644 -0.0259
12057TIP3    H157662   1.970   1.912   3.276 -0.2654  0.0399 -0.0488
12057TIP3    H257663   1.932   1.979   3.407  1.4718 -0.7245  0.8762
12058TIP3   OH257664   5.570   1.658   3.568 -0.2664 -0.1879 -0.0410
12058TIP3    H157665   5.587   1.570   3.601 -1.4735 -0.4371 -0.0404
12058TIP3    H257666   5.654   1.702   3.574  0.2626 -1.2120  0.3568
12059TIP3   OH257667   2.971   5.931  17.070 -0.3245  0.0270  0.8835
12059TIP3    H157668   3.046   5.886  17.110 -0.7931 -0.8925  0.7597
12059TIP3    H257669   2.901   5.866  17.071 -1.2876  1.0468  1.4724
12060TIP3   OH257670   3.107   2.788   1.695  0.0044 -0.9013 -0.2638
12060TIP3    H157671   3.120   2.698   1.723 -0.8671 -1.4866 -1.6632
12060TIP3    H257672   3.125   2.787   1.601  0.3516  0.4636 -0.2351
12061TIP3   OH257673   1.095   3.058  11.534 -0.3045 -0.6853 -0.2809
12061TIP3    H157674   1.080   3.148  11.560  1.2617 -0.2333 -0.8183
12061TIP3    H257675   1.015   3.032  11.488 -0.6558  0.5240 -0.3761
12062TIP3   OH257676   2.721   0.880   2.616 -0.2866  0.4096  0.3462
12062TIP3    H157677   2.658   0.950   2.636  0.3245  1.7938 -2.1127
12062TIP3    H257678   2.804   0.911   2.651 -0.6143 -0.7252  2.2552
12063TIP3   OH257679   6.687   6.482   4.780 -0.2280 -0.3672  0.6848
12063TIP3    H157680   6.711   6.541   4.709  3.9562 -0.4016  1.8343
12063TIP3    H257681   6.692   6.395   4.741  0.4964 -0.3043  0.6264
12064TIP3   OH257682   2.089   4.804  14.300 -0.6095  0.0749  0.0180
12064TIP3    H157683   2.001   4.786  14.267  0.3707 -0.1147 -2.8332
12064TIP3    H257684   2.130   4.718  14.305  0.5071  0.3597 -2.4392
12065TIP3   OH257685   2.013   3.452   4.980  0.0693  0.1618 -0.1762
12065TIP3    H157686   2.102   3.423   4.961 -0.4635 -1.0978 -0.9058
12065TIP3    H257687   1.991   3.410   5.063  0.2259  0.6669  0.1267
12066TIP3   OH257688   6.709   2.923  14.356  0.0399 -0.2323 -0.2534
12066TIP3    H157689   6.655   2.908  14.434 -1.3738 -2.7681 -1.5882
12066TIP3    H257690   6.680   3.008  14.323 -1.2564 -0.3269  0.5574
12067TIP3   OH257691   2.913   5.410   4.617  0.9631 -0.6093  0.3423
12067TIP3    H157692   2.904   5.370   4.530  1.2834 -0.2287  0.1293
12067TIP3    H257693   2.888   5.341   4.678 -2.2132 -0.0024 -0.1315
12068TIP3   OH257694   5.595   6.090  16.471 -0.0892  0.0437 -0.0226
12068TIP3    H157695   5.538   6.153  16.426  0.6526  0.6828 -0.0902
12068TIP3    H257696   5.540   6.012  16.483 -0.8517  0.5058 -0.4313
12069TIP3   OH257697   5.078   5.227  13.425 -0.4066 -0.2012  0.3614
12069TIP3    H157698   4.992   5.232  13.383 -0.7828 -1.5112  0.9182
12069TIP3    H257699   5.060   5.232  13.519  0.0433 -1.1046  0.5124
12070TIP3   OH257700   3.320   0.393   3.749  0.0183 -0.3655 -0.0135
12070TIP3    H157701   3.388   0.438   3.799 -1.0737  0.5351  0.7337
12070TIP3    H257702   3.238   0.428   3.785 -0.8241 -1.0411 -1.2222
12071TIP3   OH257703   4.261   2.441   5.350 -0.3586 -0.0165 -0.1870
12071TIP3    H157704   4.313   2.520   5.361  1.0381 -1.1641  1.9611
12071TIP3    H257705   4.271   2.419   5.257  1.4678  0.7970 -0.2156
12072TIP3   OH257706   4.476   5.369   2.637  0.2659  0.4200 -0.2934
12072TIP3    H157707   4.557   5.319   2.642 -0.2936 -0.4992 -0.0824
12072TIP3    H257708   4.487   5.440   2.701  0.8334  0.2032 -0.1486
12073TIP3   OH257709   1.551   1.450   0.468 -0.3067 -0.8334 -0.2085
12073TIP3    H157710   1.483   1.384   0.456 -0.7285 -0.2743 -1.0478
12073TIP3    H257711   1.558   1.461   0.563 -3.8497  1.5132 -0.0318
12074TIP3   OH257712   5.285   5.526   1.610  0.5569 -0.2496 -0.2403
12074TIP3    H157713   5.235   5.536   1.690  0.4213  2.3800 -0.5888
12074TIP3    H257714   5.233   5.466   1.556  0.4758 -1.7500  1.4321
12075TIP3   OH257715   5.260   0.930  10.875 -0.6631 -0.4839 -0.2397
12075TIP3    H157716   5.303   1.001  10.828 -0.0609 -0.6304  0.0744
12075TIP3    H257717   5.167   0.951  10.870 -0.4491  0.8553  0.6561
12076TIP3   OH257718   5.545   1.886  16.798  0.3606 -0.0162  0.2096
12076TIP3    H157719   5.540   1.940  16.719 -2.6799 -0.7952 -0.2471
12076TIP3    H257720   5.544   1.796  16.764  0.7401 -0.3637  1.1046
12077TIP3   OH257721   0.610   2.715  12.344  0.1055 -0.0872  0.1026
12077TIP3    H157722   0.534   2.659  12.325  0.2978 -0.0591 -0.7840
12077TIP3    H257723   0.664   2.709  12.266  0.6576  0.4876  0.4355
12078TIP3   OH257724   1.893   1.539   0.956 -0.3028 -0.5375 -0.9591
12078TIP3    H157725   1.980   1.508   0.983 -0.2496  0.2778 -0.1266
12078TIP3    H257726   1.887   1.628   0.992 -1.5748 -0.6726 -0.7933
12079TIP3   OH257727   4.601   4.270  16.614 -0.3061  0.7491 -0.1375
12079TIP3    H157728   4.664   4.282  16.543 -1.0751  1.4222 -0.7265
12079TIP3    H257729   4.650   4.291  16.694  0.8689 -1.0489 -0.3345
12080TIP3   OH257730   0.710   5.056  16.633 -0.3784  0.2670 -0.5275
12080TIP3    H157731   0.688   4.963  16.637 -1.7167  0.5418 -0.9777
12080TIP3    H257732   0.775   5.068  16.703 -1.2635 -0.7216  0.5080
12081TIP3   OH257733   4.637   5.770  17.169  0.4982  0.4077  0.3176
12081TIP3    H157734   4.653   5.675  17.173  0.6022  0.3939 -0.2473
12081TIP3    H257735   4.552   5.778  17.126  0.7748  0.5821 -0.2097
12082TIP3   OH257736   0.572   3.132   3.976  0.2789  0.2031 -0.0645
12082TIP3    H157737   0.492   3.181   3.996  0.6929  0.9668 -0.2100
12082TIP3    H257738   0.548   3.040   3.988 -1.3036  0.2246 -2.2997
12083TIP3   OH257739   4.957   3.170   2.542 -0.0192  0.7208 -1.1983
12083TIP3    H157740   4.992   3.108   2.479 -1.1664  0.7117 -1.8452
12083TIP3    H257741   4.865   3.180   2.518 -0.8644 -0.3009  1.2847
12084TIP3   OH257742   6.277   2.548  15.838 -0.3465 -0.1620 -0.2236
12084TIP3    H157743   6.212   2.485  15.871 -0.6036 -0.0125 -0.4440
12084TIP3    H257744   6.339   2.557  15.910  0.2503 -1.4279 -0.5450
12085TIP3   OH257745   2.642   6.511  12.729 -0.1528 -0.3746  0.6596
12085TIP3    H157746   2.702   6.585  12.741  0.5166 -0.9793  1.0839
12085TIP3    H257747   2.579   6.520  12.800 -1.6556  1.2603 -0.7762
12086TIP3   OH257748   5.360   5.711   0.305 -0.2649 -0.1761  0.2221
12086TIP3    H157749   5.371   5.619   0.330 -1.3439 -0.2923  0.3063
12086TIP3    H257750   5.284   5.741   0.355  0.0361  0.7467  0.1434
12087TIP3   OH257751   0.133   0.447   4.165 -0.4001 -0.1333 -0.5148
12087TIP3    H157752   0.120   0.424   4.257 -1.1385  2.1506  0.0240
12087TIP3    H257753   0.227   0.438   4.151 -0.4298 -1.6742  0.0893
12088TIP3   OH257754   0.995   1.371  13.709  0.2606  0.0539  0.1427
12088TIP3    H157755   1.047   1.448  13.728  1.3904 -0.9580  1.3273
12088TIP3    H257756   1.055   1.310  13.666 -1.0125  0.3804 -2.3193
12089TIP3   OH257757   2.947   2.987   0.028  0.2874  0.0273 -0.1760
12089TIP3    H157758   2.907   2.904   0.055 -1.2858  0.7865 -0.0541
12089TIP3    H257759   3.006   2.962  -0.043  0.3420 -1.2778  0.2889
12090TIP3   OH257760   2.312   0.223   4.960 -0.2738 -0.2188  0.0362
12090TIP3    H157761   2.287   0.160   4.893 -0.0442  0.5637 -0.8036
12090TIP3    H257762   2.366   0.173   5.021 -0.2067 -0.8738 -0.5464
12091TIP3   OH257763   6.741   5.363   5.604 -0.1801  0.0598  0.1138
12091TIP3    H157764   6.766   5.363   5.512  2.9741  0.1226  0.8281
12091TIP3    H257765   6.732   5.456   5.626  0.0678  0.0893  0.0911
12092TIP3   OH257766   1.353   1.690   0.188 -0.2096  0.2247  0.2390
12092TIP3    H157767   1.314   1.715   0.272 -0.1511 -0.3008  0.4209
12092TIP3    H257768   1.447   1.685   0.205 -0.2444 -0.3697  0.2671
12093TIP3   OH257769   0.431   0.936   0.834  0.0204 -0.6032 -1.0983
12093TIP3    H157770   0.396   0.875   0.899 -1.4729 -1.6498 -2.8153
12093TIP3    H257771   0.517   0.900   0.811 -0.6264 -1.7786 -1.7064
12094TIP3   OH257772   1.095   2.213  16.138  0.4029  0.0536 -0.1217
12094TIP3    H157773   1.129   2.211  16.048 -0.4362  1.0248 -0.4845
12094TIP3    H257774   1.134   2.137  16.180  0.7274 -0.4785 -1.3404
12095TIP3   OH257775   4.470   6.140   0.118  0.1483 -0.6340  0.0557
12095TIP3    H157776   4.379   6.118   0.140 -0.3191  0.3099 -0.8712
12095TIP3    H257777   4.469   6.158   0.024  0.4457  3.2320  0.6264
12096TIP3   OH257778   6.341   1.529  15.768 -0.4281 -0.0977 -0.3042
12096TIP3    H157779   6.412   1.528  15.705 -1.4335 -0.0891 -1.4715
12096TIP3    H257780   6.290   1.450  15.749 -0.1915 -0.6409  1.1693
12097TIP3   OH257781   2.621   1.476  14.121 -0.0550  0.1080 -0.3054
12097TIP3    H157782   2.663   1.509  14.201 -1.4708  0.4471  0.3294
12097TIP3    H257783   2.686   1.489  14.052  0.5611  1.4334  0.4871
12098TIP3   OH257784   6.698   5.785   4.468 -0.0223 -0.3733  0.0982
12098TIP3    H157785   6.613   5.829   4.467  0.1258  0.0885  2.3894
12098TIP3    H257786   6.676   5.691   4.470 -0.4410 -0.2877 -0.3424
12099TIP3   OH257787   6.271   3.821  10.320 -0.2858  0.3267 -0.3103
12099TIP3    H157788   6.272   3.742  10.375  0.1172  0.2332 -0.4502
12099TIP3    H257789   6.349   3.869  10.346  0.5211 -0.2638 -1.5804
12100TIP3   OH257790   6.735   3.373  16.859 -0.2596 -0.2026  0.8339
12100TIP3    H157791   6.641   3.386  16.873 -0.5159 -1.0851  0.0511
12100TIP3    H257792   6.771   3.461  16.853 -0.9337  0.1528  1.7560
12101TIP3   OH257793   0.152   4.949  15.054 -0.0363 -0.7947  0.0415
12101TIP3    H157794   0.228   4.893  15.070  0.4371 -0.4671 -1.0140
12101TIP3    H257795   0.079   4.900  15.092  0.6778 -1.1479  1.0071
12102TIP3   OH257796   3.526   4.266  15.994  0.0812 -0.2312  0.0073
12102TIP3    H157797   3.529   4.323  16.070 -0.5446 -0.2311  0.0355
12102TIP3    H257798   3.592   4.199  16.011 -1.7242 -1.6774  1.7069
12103TIP3   OH257799   2.041   2.302   0.459  0.3162 -0.0779  0.0564
12103TIP3    H157800   2.018   2.372   0.398  2.3887  0.3432 -0.3123
12103TIP3    H257801   2.126   2.270   0.428  0.7724 -0.7912  1.9229
12104TIP3   OH257802   6.171   6.621  13.411  0.0038 -0.6339 -0.3708
12104TIP3    H157803   6.136   6.672  13.338  1.3468  1.2609  0.2342
12104TIP3    H257804   6.097   6.612  13.471 -0.4272  0.1338 -0.7628
12105TIP3   OH257805   3.922   1.289  12.170 -0.0951  0.0864  0.4701
12105TIP3    H157806   3.955   1.227  12.104  0.4409  0.2653  0.5608
12105TIP3    H257807   3.827   1.288  12.158  0.0469  0.9320 -1.0405
12106TIP3   OH257808   3.991   1.352   4.341  0.2566 -0.2433 -0.0761
12106TIP3    H157809   4.050   1.378   4.271 -2.9224 -0.5248 -3.1233
12106TIP3    H257810   3.988   1.256   4.336 -1.8110 -0.1746 -1.3516
12107TIP3   OH257811   4.823   4.492  13.111  0.1892 -0.2114 -0.4931
12107TIP3    H157812   4.865   4.410  13.084 -0.0168 -0.5995  0.3403
12107TIP3    H257813   4.732   4.482  13.083 -0.3164 -1.1271  1.3703
12108TIP3   OH257814   5.811   1.336   4.661 -0.3607  0.2359  0.0749
12108TIP3    H157815   5.717   1.336   4.644 -0.1868 -0.1229 -0.9903
12108TIP3    H257816   5.826   1.417   4.710 -0.9880  1.1754 -1.2199
12109TIP3   OH257817   4.945   1.942  14.894  0.6749  0.3234  0.4345
12109TIP3    H157818   4.957   1.990  14.976  1.1724  0.0988  0.4974
12109TIP3    H257819   4.851   1.930  14.887  0.6615 -0.0897  1.2259
12110TIP3   OH257820   0.930   6.005   4.869 -0.8103  0.3730  0.0832
12110TIP3    H157821   0.852   5.961   4.904 -0.3493 -0.9609 -0.5009
12110TIP3    H257822   0.975   5.937   4.819 -0.4583  1.7150 -1.5090
12111TIP3   OH257823   6.347   0.213  14.163  0.0909 -0.2217  0.1657
12111TIP3    H157824   6.252   0.205  14.150  0.0183 -1.2994  1.1495
12111TIP3    H257825   6.356   0.241  14.254  0.6784  2.8542 -0.7269
12112TIP3   OH257826   0.744   2.255   4.809 -0.2931  0.2101 -0.3668
12112TIP3    H157827   0.733   2.295   4.723 -2.2045 -0.0880 -0.3213
12112TIP3    H257828   0.790   2.321   4.862  0.3897  0.6147 -1.4457
12113TIP3   OH257829   3.932   1.644   3.333 -0.6004 -0.2730  0.3184
12113TIP3    H157830   3.957   1.616   3.244 -1.0317  0.5344 -0.0647
12113TIP3    H257831   3.976   1.581   3.390  1.1796  0.2669 -0.3894
12114TIP3   OH257832   4.196   1.531  11.593  0.1998 -0.3116 -0.0278
12114TIP3    H157833   4.203   1.610  11.539  0.7401 -1.0790 -1.1308
12114TIP3    H257834   4.107   1.533  11.627 -0.5603 -0.3953 -1.9199
12115TIP3   OH257835   5.169   1.188  15.479  0.2902 -0.0662 -0.3041
12115TIP3    H157836   5.120   1.219  15.555  0.9480  1.5138 -0.4812
12115TIP3    H257837   5.103   1.148  15.423 -0.3255 -0.5581  0.7398
12116TIP3   OH257838   1.164   2.187  11.961  0.7617  0.5304  0.1039
12116TIP3    H157839   1.223   2.113  11.973  0.5527  0.1260 -1.1315
12116TIP3    H257840   1.105   2.183  12.036  0.7521 -0.5795  0.0624
12117TIP3   OH257841   0.968   4.915   4.206  0.0743 -0.0992  0.1178
12117TIP3    H157842   1.000   4.927   4.296  1.0611 -2.5266  0.1674
12117TIP3    H257843   1.014   4.837   4.174 -1.3318 -0.1547 -1.9940
12118TIP3   OH257844   6.227   3.075   0.644 -0.7006 -0.3698 -0.0348
12118TIP3    H157845   6.134   3.053   0.642 -0.8906  0.3853 -0.1581
12118TIP3    H257846   6.273   2.992   0.637 -1.3678 -0.6882 -0.7299
12119TIP3   OH257847   1.620   6.499   4.438 -0.0470 -0.0132 -0.2664
12119TIP3    H157848   1.712   6.491   4.412  0.0170 -0.8015  0.1689
12119TIP3    H257849   1.582   6.413   4.420 -0.7341  0.3427 -0.5496
12120TIP3   OH257850   1.727   1.147   2.661 -0.4191  0.1558  0.6633
12120TIP3    H157851   1.781   1.112   2.732 -1.7997 -1.2139  1.1000
12120TIP3    H257852   1.703   1.235   2.689  0.3200  0.2030  1.1661
12121TIP3   OH257853   4.268   0.261   5.684  0.3534 -0.4443 -0.3999
12121TIP3    H157854   4.270   0.173   5.646  0.4185 -0.4829 -0.3066
12121TIP3    H257855   4.351   0.301   5.657  0.6363 -0.6595  0.1511
12122TIP3   OH257856   1.728   3.023  13.841  0.0887  0.1091  0.1165
12122TIP3    H157857   1.802   3.066  13.885  0.4479 -1.1070  0.7553
12122TIP3    H257858   1.724   2.936  13.881 -0.8960 -0.2966 -0.8189
12123TIP3   OH257859   2.740   0.358   2.095 -0.0012  0.1758  0.2400
12123TIP3    H157860   2.798   0.356   2.171  1.4131  1.8832 -0.7030
12123TIP3    H257861   2.691   0.440   2.104  1.4207  1.3086 -1.4476
12124TIP3   OH257862   4.358   1.657  15.199 -0.5384 -0.0755 -0.3212
12124TIP3    H157863   4.409   1.640  15.278  0.1090  3.2819  0.1334
12124TIP3    H257864   4.423   1.667  15.130 -0.8668  0.2599 -0.5862
12125TIP3   OH257865   4.747   2.003  12.894 -0.5051 -0.6327  0.1246
12125TIP3    H157866   4.802   2.081  12.900 -0.7193 -0.1309 -2.9194
12125TIP3    H257867   4.760   1.971  12.805 -2.0078 -2.9145  0.6303
12126TIP3   OH257868   5.534   2.316  14.797  0.6577  0.6480 -0.0541
12126TIP3    H157869   5.457   2.370  14.816 -0.3452 -0.4430 -0.8898
12126TIP3    H257870   5.608   2.374  14.814 -0.2567  1.1886  2.5183
12127TIP3   OH257871   1.641   1.862   2.671  0.0040 -0.0603 -0.0152
12127TIP3    H157872   1.596   1.800   2.614  1.5744 -1.6919  0.4016
12127TIP3    H257873   1.602   1.848   2.757 -0.0265 -0.0859 -0.0331
12128TIP3   OH257874   3.516   5.285   2.328  0.8414 -0.3302 -0.4375
12128TIP3    H157875   3.566   5.204   2.334 -1.3698 -1.6840  1.6573
12128TIP3    H257876   3.430   5.259   2.297 -0.4147  0.8861  1.7243
12129TIP3   OH257877   4.373   0.274  14.696 -0.5224 -0.6495  0.2566
12129TIP3    H157878   4.397   0.206  14.758 -1.3574 -3.0509 -1.9071
12129TIP3    H257879   4.280   0.289  14.710  0.0430  1.7897  2.2019
12130TIP3   OH257880   0.353   6.664  16.661  0.1699 -0.0143 -0.2341
12130TIP3    H157881   0.293   6.713  16.717  1.2477  0.1857  0.7850
12130TIP3    H257882   0.400   6.605  16.720  0.4148 -0.7478 -1.1212
12131TIP3   OH257883   2.762   3.127  15.292  0.2410  0.1908 -0.5739
12131TIP3    H157884   2.792   3.165  15.375 -3.7503  4.0194 -0.5131
12131TIP3    H257885   2.776   3.196  15.227 -1.7969 -0.5042 -1.8575
12132TIP3   OH257886   5.293   4.104   0.610 -0.0720  1.1453  0.4798
12132TIP3    H157887   5.358   4.122   0.679  0.6213  0.4579  0.0150
12132TIP3    H257888   5.340   4.052   0.545 -0.9015  1.2341 -0.2096
12133TIP3   OH257889   4.538   1.209   6.659  0.1972 -0.3370  0.3410
12133TIP3    H157890   4.499   1.286   6.618 -1.0232  0.1850  2.3357
12133TIP3    H257891   4.540   1.143   6.590  0.3124  1.1407 -1.1327
12134TIP3   OH257892   3.077   2.031  10.812 -0.1493 -0.5425  0.5654
12134TIP3    H157893   3.159   1.988  10.838  0.5656  0.5678  0.2152
12134TIP3    H257894   3.017   1.958  10.794  1.1388 -1.4231 -0.3851
12135TIP3   OH257895   5.852   5.150  15.693  0.0987 -0.1150 -0.1938
12135TIP3    H157896   5.842   5.058  15.716  1.4811 -0.5396 -1.2131
12135TIP3    H257897   5.914   5.184  15.757  0.2357 -0.0922 -0.3399
12136TIP3   OH257898   1.613   0.753   1.123 -0.0355 -0.5360  0.8024
12136TIP3    H157899   1.698   0.777   1.160  0.1289  0.5133 -0.2119
12136TIP3    H257900   1.632   0.682   1.062 -0.2902 -2.1867  2.5280
12137TIP3   OH257901   3.191   1.104   2.479 -0.1270 -0.1589 -0.2375
12137TIP3    H157902   3.138   1.082   2.555  2.5368  0.7415  2.1077
12137TIP3    H257903   3.218   1.020   2.442  2.2340 -0.8901  2.7566
12138TIP3   OH257904   2.080   3.939   1.855  0.0854  0.2379 -0.1296
12138TIP3    H157905   2.091   4.030   1.825  3.7746 -0.2285 -0.6603
12138TIP3    H257906   2.019   3.901   1.791  0.6334  1.6543 -1.5863
12139TIP3   OH257907   4.442   0.072   3.940 -0.2186 -0.2596 -0.3739
12139TIP3    H157908   4.382   0.028   4.000 -1.3278  0.6319 -0.7881
12139TIP3    H257909   4.407   0.054   3.853  1.1135 -1.1603 -0.7490
12140TIP3   OH257910   6.441   2.274  12.249 -0.0510  0.2830 -0.4183
12140TIP3    H157911   6.357   2.228  12.243 -0.8762  1.5878  0.5165
12140TIP3    H257912   6.432   2.348  12.188  0.4884  0.3330 -0.4395
12141TIP3   OH257913   3.728   6.155   4.063 -0.3455 -0.3616 -0.3614
12141TIP3    H157914   3.766   6.216   4.000 -0.8893 -0.1995 -0.5414
12141TIP3    H257915   3.668   6.208   4.115  0.4295 -0.4014  0.5980
12142TIP3   OH257916   0.974   5.726   2.021  0.2460 -0.0088 -0.1022
12142TIP3    H157917   0.971   5.630   2.020 -0.8956  0.0132 -0.6247
12142TIP3    H257918   1.060   5.747   2.057  0.3208 -1.2291  0.4987
12143TIP3   OH257919   1.619   2.266   4.752 -0.8973  0.3784  0.3587
12143TIP3    H157920   1.572   2.332   4.701  2.0045  0.0162 -3.1811
12143TIP3    H257921   1.671   2.317   4.814 -1.6787  1.0821  0.4591
12144TIP3   OH257922   3.136   2.024   3.504  0.0806 -0.3030 -0.0918
12144TIP3    H157923   3.093   1.940   3.489  0.5241 -0.9728  1.9461
12144TIP3    H257924   3.085   2.064   3.574 -0.5064  1.4701 -1.4735
12145TIP3   OH257925   3.930   5.845   4.160  0.1943  0.3204  0.2393
12145TIP3    H157926   3.997   5.910   4.183  0.6426  0.3988 -1.1701
12145TIP3    H257927   3.847   5.892   4.169  0.5479  1.3720 -1.4689
12146TIP3   OH257928   0.485   4.274  12.897 -0.4696 -0.6781 -0.0374
12146TIP3    H157929   0.453   4.185  12.879  0.2065 -0.5577 -2.1339
12146TIP3    H257930   0.575   4.261  12.928  0.6723 -0.7152 -3.0314
12147TIP3   OH257931   0.791   1.585  13.781 -0.0239  0.1027 -0.0463
12147TIP3    H157932   0.766   1.533  13.858 -0.8709 -0.4973 -0.6961
12147TIP3    H257933   0.713   1.637  13.761 -0.7817 -1.6083 -1.9629
12148TIP3   OH257934   1.491   0.539   0.274 -0.4887  0.1868 -0.1038
12148TIP3    H157935   1.584   0.516   0.281 -0.2483  0.0260 -2.6259
12148TIP3    H257936   1.466   0.568   0.361  1.8524 -0.0513  0.7150
12149TIP3   OH257937   3.400   1.792   4.499 -0.1749  0.2625 -0.2564
12149TIP3    H157938   3.436   1.814   4.413 -2.6436  2.9367 -0.7658
12149TIP3    H257939   3.406   1.874   4.549 -0.9774 -0.5712  1.2808
12150TIP3   OH257940   1.082   2.305   0.103  0.4124  0.8269  0.0933
12150TIP3    H157941   1.080   2.247   0.026 -1.2073  0.3064  0.4784
12150TIP3    H257942   1.071   2.393   0.067 -0.3511  0.5845 -0.2811
12151TIP3   OH257943   6.712   3.153   0.889 -0.2287 -0.3703 -0.4389
12151TIP3    H157944   6.700   3.198   0.973  0.7780  0.0472 -0.5031
12151TIP3    H257945   6.805   3.163   0.869 -0.2557 -1.3105 -1.1345
12152TIP3   OH257946   3.932   2.247   4.982  0.1836 -0.5504 -0.1220
12152TIP3    H157947   3.904   2.227   5.071  0.5049 -0.3202  0.0325
12152TIP3    H257948   3.962   2.163   4.947 -0.1729 -0.6884 -0.0975
12153TIP3   OH257949   1.862   1.485  11.923  0.0363 -0.1922 -0.4024
12153TIP3    H157950   1.948   1.477  11.965 -0.5573  0.4589  1.0067
12153TIP3    H257951   1.827   1.396  11.922 -0.2881 -0.1375  1.3503
12154TIP3   OH257952   5.558   5.358  13.889  0.4044 -0.2471 -0.2561
12154TIP3    H157953   5.496   5.352  13.962  0.4432  0.5286 -0.1540
12154TIP3    H257954   5.503   5.350  13.811  0.0915  0.9608 -0.1775
12155TIP3   OH257955   2.816   2.121  13.873 -0.2609 -0.2395 -0.1644
12155TIP3    H157956   2.911   2.111  13.876 -0.2909 -0.5406 -0.2755
12155TIP3    H257957   2.800   2.204  13.919  0.2675  1.1414 -2.3133
12156TIP3   OH257958   3.871   5.638   3.039  0.3146  0.2404  0.1341
12156TIP3    H157959   3.951   5.667   2.995  1.4030 -1.7703  0.6830
12156TIP3    H257960   3.819   5.596   2.970 -0.0332  1.0563 -0.1095
12157TIP3   OH257961   2.311   4.109  13.015 -0.6461  0.4157  0.1611
12157TIP3    H157962   2.235   4.054  13.031 -0.3109  0.4499  2.1544
12157TIP3    H257963   2.311   4.172  13.087  1.2340  0.4210  0.2198
12158TIP3   OH257964   5.071   3.017   1.597  0.1268  0.5009 -0.6059
12158TIP3    H157965   5.017   2.947   1.559  1.4689 -0.2308 -1.2541
12158TIP3    H257966   5.121   3.051   1.522  1.3202  0.4458  0.1517
12159TIP3   OH257967   5.791   3.442  17.110  0.2985 -0.3499 -0.4253
12159TIP3    H157968   5.883   3.434  17.137  0.8053 -1.7047 -2.3429
12159TIP3    H257969   5.793   3.503  17.036 -0.6688  1.2051  0.7852
12160TIP3   OH257970   2.075   1.423   2.904 -0.2824 -0.4135  0.3999
12160TIP3    H157971   2.138   1.355   2.882 -0.0631 -0.0022 -0.2670
12160TIP3    H257972   2.128   1.500   2.923 -0.5215 -0.4588  1.2972
12161TIP3   OH257973   2.696   2.146  10.755 -0.3399  0.3448  0.0911
12161TIP3    H157974   2.612   2.126  10.713 -0.5445 -0.9746  1.0736
12161TIP3    H257975   2.719   2.233  10.722 -2.4939  1.1012  0.4428
12162TIP3   OH257976   3.849   3.919   3.715 -0.4805  0.7158  0.2060
12162TIP3    H157977   3.797   3.942   3.638  0.1904  2.9899  0.3807
12162TIP3    H257978   3.802   3.958   3.789  0.2430  0.7735  0.6448
12163TIP3   OH257979   4.247   0.482   3.952  0.0985 -0.1467 -0.1407
12163TIP3    H157980   4.226   0.546   4.020  1.3022  1.2358 -1.0116
12163TIP3    H257981   4.341   0.492   3.938  0.3125 -2.0721 -0.3687
12164TIP3   OH257982   2.715   3.682  12.067  0.1653  0.4567 -0.0829
12164TIP3    H157983   2.757   3.661  11.984  0.7206 -0.1454  0.3372
12164TIP3    H257984   2.716   3.778  12.072  0.5492  0.4784 -0.5525
12165TIP3   OH257985   5.030   1.035  12.343  0.5221  0.5599  0.3562
12165TIP3    H157986   5.118   1.044  12.304  0.4238 -0.1970 -0.0599
12165TIP3    H257987   5.046   1.003  12.431  0.6215 -1.0913 -0.2299
12166TIP3   OH257988   0.248   5.207   1.856 -0.2971 -0.0297 -0.0547
12166TIP3    H157989   0.239   5.188   1.950  0.0362 -0.2800 -0.0718
12166TIP3    H257990   0.167   5.175   1.817  0.1660 -1.2287 -0.0525
12167TIP3   OH257991   1.888   5.108  15.812  0.8211 -0.2827 -0.0132
12167TIP3    H157992   1.923   5.119  15.724 -1.4419  1.2512 -0.8457
12167TIP3    H257993   1.893   5.196  15.851 -2.2154  0.1739 -0.3570
12168TIP3   OH257994   5.554   3.736  12.645  0.2819  0.1169  0.0241
12168TIP3    H157995   5.573   3.813  12.591  1.3500  0.1718  0.4653
12168TIP3    H257996   5.470   3.704  12.611  1.2731 -0.3266 -2.2383
12169TIP3   OH257997   1.782   6.517  13.021 -0.0147  0.2088  0.1508
12169TIP3    H157998   1.706   6.514  13.079  0.7198 -1.0100  1.0879
12169TIP3    H257999   1.810   6.609  13.022 -2.1689  0.9514 -1.1974
12170TIP3   OH258000   5.145   4.174  14.689  0.2601  0.1708 -0.0838
12170TIP3    H158001   5.049   4.174  14.693  0.0880  2.4693 -2.0179
12170TIP3    H258002   5.172   4.182  14.781 -1.4357  0.7955  0.4025
12171TIP3   OH258003   5.187   4.793   2.161 -0.3092  0.4328  0.7768
12171TIP3    H158004   5.171   4.886   2.148  1.9875  0.5179 -2.6487
12171TIP3    H258005   5.147   4.751   2.085 -0.4142 -1.3133  1.7477
12172TIP3   OH258006   4.897   2.194   0.128 -0.3119  0.1290 -0.3454
12172TIP3    H158007   4.849   2.183   0.210  0.0568  0.1663 -0.1246
12172TIP3    H258008   4.828   2.197   0.060 -0.5244 -2.4506 -0.3350
12173TIP3   OH258009   4.137   4.646  16.031  0.1854 -0.2925  0.5295
12173TIP3    H158010   4.217   4.639  15.978 -0.5972  0.7515 -0.8191
12173TIP3    H258011   4.071   4.680  15.972 -0.3748  2.3333  2.5026
12174TIP3   OH258012   2.247   1.432  16.407 -0.2011 -0.1310 -0.6086
12174TIP3    H158013   2.336   1.450  16.437 -0.4456  1.7334 -0.8732
12174TIP3    H258014   2.235   1.338  16.421  1.8329 -0.4349 -0.6682
12175TIP3   OH258015   1.486   4.207   4.160  0.0856 -0.5698  0.1775
12175TIP3    H158016   1.541   4.214   4.238 -0.9534 -0.9941  0.9612
12175TIP3    H258017   1.494   4.116   4.133  0.8103 -0.3173 -0.5052
12176TIP3   OH258018   5.141   3.339  12.835  0.3734  0.3289 -0.7307
12176TIP3    H158019   5.210   3.381  12.886  0.6869 -1.0548  0.0421
12176TIP3    H258020   5.076   3.313  12.900 -0.6779  1.2165 -1.4002
12177TIP3   OH258021   0.562   4.668   2.120 -0.0745 -0.7354  0.6797
12177TIP3    H158022   0.544   4.756   2.088  0.8951 -1.0054 -0.6730
12177TIP3    H258023   0.657   4.659   2.116  0.1403 -0.8483  3.5954
12178TIP3   OH258024   2.185   3.318  13.682 -0.1036 -0.2978  0.4133
12178TIP3    H158025   2.243   3.243  13.700  0.0087 -1.2012 -3.0765
12178TIP3    H258026   2.245   3.391  13.666  0.0675 -0.7833 -1.3384
12179TIP3   OH258027   4.994   6.404   4.823 -0.2981 -0.0545 -0.8098
12179TIP3    H158028   5.044   6.359   4.891  0.6495 -0.1762 -1.5719
12179TIP3    H258029   5.057   6.463   4.782 -0.7210 -0.3264 -1.8930
12180TIP3   OH258030   3.108   2.126  12.591  0.3763  0.1922  0.3848
12180TIP3    H158031   3.103   2.116  12.495  2.9708  0.9426  0.0928
12180TIP3    H258032   3.153   2.047  12.621  0.4783  0.4268  0.8613
12181TIP3   OH258033   2.034   2.792  15.572  0.0564  0.1215  0.6436
12181TIP3    H158034   2.086   2.871  15.561  2.3783 -1.1775  1.6458
12181TIP3    H258035   2.097   2.720  15.564 -1.7686 -1.6011  0.9248
12182TIP3   OH258036   5.910   2.430   0.504 -0.0131 -0.3904  0.3420
12182TIP3    H158037   5.894   2.344   0.544 -0.5866 -0.2952  0.3222
12182TIP3    H258038   5.823   2.470   0.497  0.4225  0.9980  2.1505
12183TIP3   OH258039   4.893   0.503  17.198  0.0974 -0.0279 -0.4073
12183TIP3    H158040   4.849   0.525  17.116  0.0350  0.3074 -0.2847
12183TIP3    H258041   4.933   0.418  17.182  0.8476  0.4342 -1.0849
12184TIP3   OH258042   2.173   6.547  14.025  0.5420  0.1307 -0.3086
12184TIP3    H158043   2.089   6.520  13.989  1.3375  1.0246 -3.0988
12184TIP3    H258044   2.160   6.637  14.054  0.0837 -0.3564  1.0652
12185TIP3   OH258045   0.503   5.173   6.181  0.2160  0.3129 -0.0570
12185TIP3    H158046   0.410   5.192   6.169  0.1297 -0.5924 -1.0049
12185TIP3    H258047   0.546   5.213   6.105  0.1064 -2.4445 -1.7169
12186TIP3   OH258048   0.274   3.398   3.762  0.2792  0.0522  0.1214
12186TIP3    H158049   0.272   3.417   3.669  1.0962 -0.1650  0.0445
12186TIP3    H258050   0.345   3.453   3.796 -2.5768  3.2793  1.3898
12187TIP3   OH258051   5.271   2.800   1.334  0.1251  0.5393 -0.3707
12187TIP3    H158052   5.275   2.763   1.246 -1.5035 -1.0794  0.1632
12187TIP3    H258053   5.335   2.871   1.333 -0.3687  1.0625 -3.0562
12188TIP3   OH258054   6.137   3.654  13.066 -0.1525 -0.1781 -0.3068
12188TIP3    H158055   6.141   3.680  12.974  0.9961 -1.0693 -0.5287
12188TIP3    H258056   6.068   3.588  13.070  0.5386 -0.9500 -0.7600
12189TIP3   OH258057   3.169   3.815   4.822  0.0733 -0.0301 -0.5018
12189TIP3    H158058   3.168   3.785   4.731 -0.0378  2.4783 -1.3899
12189TIP3    H258059   3.153   3.909   4.817  1.2852  0.3974  2.0391
12190TIP3   OH258060   5.680   3.806  13.677 -0.3249  0.3918 -0.1415
12190TIP3    H158061   5.604   3.812  13.736  0.2688 -1.0853  0.8389
12190TIP3    H258062   5.756   3.809  13.735  0.3698  1.2540 -1.0664
12191TIP3   OH258063   1.072   5.597   3.431  0.0264 -0.1539  0.7939
12191TIP3    H158064   1.055   5.612   3.524  0.1681  1.6158  0.5661
12191TIP3    H258065   1.085   5.684   3.394 -0.2899 -0.8011 -0.9538
12192TIP3   OH258066   2.651   5.898   5.507  0.2305  0.0588  0.0978
12192TIP3    H158067   2.687   5.863   5.425  3.4762  3.4318 -0.1961
12192TIP3    H258068   2.598   5.973   5.480  0.1797  0.3525  0.9992
12193TIP3   OH258069   6.457   3.231   0.670 -0.3182 -0.9089  0.4371
12193TIP3    H158070   6.478   3.294   0.740  0.1018  0.2881 -0.7200
12193TIP3    H258071   6.401   3.166   0.713 -0.1622 -0.1599  1.8621
12194TIP3   OH258072   6.522   3.003  10.470 -0.4360  0.2532  0.1390
12194TIP3    H158073   6.614   3.017  10.493 -0.0647  1.7801 -2.0253
12194TIP3    H258074   6.524   2.951  10.390 -1.4831  0.1707  0.1457
12195TIP3   OH258075   3.483   5.026   3.384  0.1670  0.6808 -0.6350
12195TIP3    H158076   3.536   5.037   3.463 -1.0948 -0.4361  0.4427
12195TIP3    H258077   3.449   4.936   3.391 -0.3770  0.7371 -2.1984
12196TIP3   OH258078   1.328   0.925  15.843 -0.1796  0.3396 -0.5566
12196TIP3    H158079   1.391   0.965  15.904 -0.3067  0.6905 -0.6581
12196TIP3    H258080   1.313   0.838  15.880  1.8989 -0.5342 -1.5983
12197TIP3   OH258081   4.965   4.204  17.172 -0.0928  0.6365 -0.5531
12197TIP3    H158082   4.968   4.149  17.093 -2.2854 -0.7941  0.2450
12197TIP3    H258083   4.904   4.275  17.149 -1.3535 -0.2146  0.0373
12198TIP3   OH258084   6.548   2.051   4.634 -0.1016  0.2799 -0.2923
12198TIP3    H158085   6.549   1.972   4.581  0.3555  0.7608 -1.0272
12198TIP3    H258086   6.640   2.080   4.635 -0.3919  1.2637 -0.7625
12199TIP3   OH258087   4.975   2.464  15.894  0.0799  0.1696 -0.1687
12199TIP3    H158088   4.928   2.454  15.976 -0.3437 -0.0934 -0.4378
12199TIP3    H258089   4.906   2.465  15.827  0.4412  0.0202 -0.5478
12200TIP3   OH258090   1.240   5.592  13.729  0.2838 -0.3086  0.3617
12200TIP3    H158091   1.205   5.503  13.720  0.1532 -0.6195  2.9723
12200TIP3    H258092   1.169   5.640  13.772  1.1611  0.4452  0.9968
12201TIP3   OH258093   1.119   5.018  12.803 -0.4876 -0.2770 -0.0829
12201TIP3    H158094   1.076   5.102  12.820 -0.4603 -0.1478 -0.6227
12201TIP3    H258095   1.165   5.031  12.719 -1.2856 -1.1372 -0.6709
12202TIP3   OH258096   6.072   2.053   4.779 -0.4627  0.2104 -0.1863
12202TIP3    H158097   5.991   2.003   4.774 -0.6475  0.4266  0.5075
12202TIP3    H258098   6.052   2.137   4.739 -0.5700  0.2464 -0.0566
12203TIP3   OH258099   5.556   6.360  17.051  0.3658  0.0665  0.1054
12203TIP3    H158100   5.519   6.376  16.964 -0.3965  0.4989  0.5003
12203TIP3    H258101   5.558   6.265  17.059  0.3089  0.0271 -0.3328
12204TIP3   OH258102   0.363   5.229   4.229  0.1067 -0.5194  0.2420
12204TIP3    H158103   0.339   5.142   4.195 -2.8985 -0.3551  1.6237
12204TIP3    H258104   0.385   5.279   4.150  0.4311 -2.0958 -0.7274
12205TIP3   OH258105   0.090   2.714  14.390  0.1394 -0.2747 -0.0741
12205TIP3    H158106   0.076   2.808  14.386  1.0443 -0.0923  0.6193
12205TIP3    H258107   0.070   2.691  14.481  0.7588 -0.5874 -0.0075
12206TIP3   OH258108   0.063   3.807   0.801 -0.6438 -0.0012  0.4449
12206TIP3    H158109   0.016   3.756   0.734 -1.0874 -1.6819  1.9565
12206TIP3    H258110   0.097   3.883   0.753 -0.5082 -1.3645 -1.8027
12207TIP3   OH258111   2.441   4.381   1.651 -0.6150  0.1331  0.2495
12207TIP3    H158112   2.493   4.338   1.583  0.6006  1.6265  0.1477
12207TIP3    H258113   2.350   4.363   1.628 -0.1761 -1.1321 -0.5679
12208TIP3   OH258114   1.417   0.331  14.374  0.1001  0.3567  0.6413
12208TIP3    H158115   1.412   0.394  14.446 -0.7858  1.5098 -0.3763
12208TIP3    H258116   1.338   0.349  14.322  0.7652 -0.3778 -0.6523
12209TIP3   OH258117   1.212   1.246   2.039  0.1282 -0.4125  0.3370
12209TIP3    H158118   1.252   1.160   2.051  0.3734 -0.2675  0.5591
12209TIP3    H258119   1.193   1.276   2.128 -0.4309 -0.4597  0.2355
12210TIP3   OH258120   1.471   3.282  14.939  0.0807 -0.1387  0.3025
12210TIP3    H158121   1.547   3.272  14.882 -0.2248  0.4067 -0.2115
12210TIP3    H258122   1.445   3.373  14.928 -0.1925 -0.1153  1.0610
12211TIP3   OH258123   1.777   2.077  16.934  0.5163  0.1894 -0.1543
12211TIP3    H158124   1.724   2.152  16.907  1.0335  0.2685 -0.9973
12211TIP3    H258125   1.716   2.004  16.937  0.4057  0.2100 -1.4344
12212TIP3   OH258126   1.184   1.108   4.316 -0.6158  0.0704 -0.5543
12212TIP3    H158127   1.247   1.113   4.387 -0.0810 -0.8260 -0.9439
12212TIP3    H258128   1.222   1.162   4.246 -0.9942  0.7081 -0.2678
12213TIP3   OH258129   0.981   5.227  14.880 -0.1225 -0.7782  0.4116
12213TIP3    H158130   1.035   5.162  14.834 -0.3835 -1.3016  0.8362
12213TIP3    H258131   0.892   5.208  14.851 -0.3576 -1.4690  1.5443
12214TIP3   OH258132   4.543   6.677  16.387  0.3415  0.7587 -0.1037
12214TIP3    H158133   4.450   6.657  16.390  0.2147  1.2713 -0.5507
12214TIP3    H258134   4.573   6.666  16.478 -0.1184  0.4594  0.0149
12215TIP3   OH258135   2.054   3.188   2.394  0.2330 -0.1466  0.0319
12215TIP3    H158136   2.018   3.136   2.466 -0.3163  0.9269  0.5541
12215TIP3    H258137   2.122   3.133   2.357 -0.5857 -1.3940  0.3207
12216TIP3   OH258138   0.905   3.434  15.714 -0.5331  0.0463 -0.1474
12216TIP3    H158139   0.902   3.415  15.620 -0.8578  0.4022 -0.2097
12216TIP3    H258140   0.885   3.527  15.720  1.4337  0.4897  0.1308
12217TIP3   OH258141   2.433   3.628  12.388 -0.3672  0.0983 -0.5298
12217TIP3    H158142   2.409   3.704  12.336  3.5681  1.6874 -0.3775
12217TIP3    H258143   2.413   3.653  12.478  1.0241  1.0904 -0.4687
12218TIP3   OH258144   3.850   5.711   5.057 -0.4574 -0.5133 -0.6684
12218TIP3    H158145   3.859   5.627   5.101  0.3804  0.2751  0.7395
12218TIP3    H258146   3.940   5.743   5.047 -0.7989  0.4788 -0.6599
12219TIP3   OH258147   5.668   5.773  13.133  0.0257  0.5982 -0.4683
12219TIP3    H158148   5.645   5.796  13.222  0.0240  1.6980 -0.7427
12219TIP3    H258149   5.764   5.782  13.129  0.3599 -1.8465  0.0685
12220TIP3   OH258150   4.801   1.193  11.344  0.0803 -0.1085 -0.2786
12220TIP3    H158151   4.763   1.156  11.264  1.4956  0.0361 -1.0517
12220TIP3    H258152   4.808   1.287  11.326  2.5207 -0.3495 -0.9615
12221TIP3   OH258153   4.234   6.710  11.123 -0.0919 -0.0689  0.9018
12221TIP3    H158154   4.237   6.797  11.082 -0.8952 -0.4827 -0.1002
12221TIP3    H258155   4.297   6.658  11.073  0.4231 -0.0653  1.5305
12222TIP3   OH258156   0.279   6.803  11.401 -0.9152  0.9242  0.2464
12222TIP3    H158157   0.263   6.718  11.442  3.7764  0.7140  2.3254
12222TIP3    H258158   0.312   6.781  11.313  0.3066  0.4852  0.7849
12223TIP3   OH258159   3.527   0.101   2.994 -0.2505 -0.1632 -0.5900
12223TIP3    H158160   3.602   0.122   2.939 -0.1256 -1.5543 -0.9904
12223TIP3    H258161   3.474   0.180   2.994  1.0165  0.7245 -0.6058
12224TIP3   OH258162   4.479   3.826   0.718 -0.1319  0.2054 -0.6218
12224TIP3    H158163   4.514   3.740   0.692 -1.5656 -1.1793  1.6534
12224TIP3    H258164   4.536   3.854   0.790 -1.1941 -0.1448  0.3928
12225TIP3   OH258165   6.203   3.105   1.694 -0.2194 -0.2971 -0.1756
12225TIP3    H158166   6.199   3.200   1.698 -0.6765 -0.2496 -1.4213
12225TIP3    H258167   6.290   3.086   1.659  0.1469 -0.3813  0.7396
12226TIP3   OH258168   5.818   1.145  11.515  0.7152  0.0355 -0.4385
12226TIP3    H158169   5.902   1.171  11.478  1.7373 -0.8263  1.1446
12226TIP3    H258170   5.821   1.049  11.514  0.1931  0.0002  0.5450
12227TIP3   OH258171   3.523   0.787  15.450  0.3786  0.1397  0.5237
12227TIP3    H158172   3.433   0.753  15.444  0.1019  1.0139 -0.4880
12227TIP3    H258173   3.575   0.723  15.402 -0.1842  1.2420 -1.6399
12228TIP3   OH258174   5.417   4.360   2.564 -0.7095  0.1747  0.1418
12228TIP3    H158175   5.361   4.288   2.594 -0.8900  0.7355  1.2209
12228TIP3    H258176   5.408   4.427   2.632  1.7327  0.0593  0.6854
12229TIP3   OH258177   5.164   4.098   3.039  0.2856  0.4632 -0.4642
12229TIP3    H158178   5.215   4.017   3.044  0.6787  0.6813 -0.8984
12229TIP3    H258179   5.230   4.168   3.038 -0.0263  0.7557 -0.8506
12230TIP3   OH258180   2.270   6.109  16.782  0.2675 -0.6587 -0.5814
12230TIP3    H158181   2.341   6.163  16.816 -1.8351  1.3822  0.8083
12230TIP3    H258182   2.216   6.169  16.731 -1.1326 -1.8619 -0.5958
12231TIP3   OH258183   6.447   5.403  13.446 -0.1293 -0.0982  0.0831
12231TIP3    H158184   6.504   5.422  13.372 -0.7169 -0.1382 -0.3828
12231TIP3    H258185   6.396   5.327  13.419  0.2174 -0.6319  0.8506
12232TIP3   OH258186   4.880   5.792   1.782 -0.2097  0.2259  0.1700
12232TIP3    H158187   4.842   5.876   1.810 -0.2904 -0.1583  1.2455
12232TIP3    H258188   4.806   5.733   1.777  0.1401 -0.4173  1.8597
12233TIP3   OH258189   4.223   6.087   3.325 -0.5545 -0.0100  0.3667
12233TIP3    H158190   4.279   6.059   3.253 -0.5580 -0.0043  0.3622
12233TIP3    H258191   4.161   6.016   3.337 -0.1851 -0.2694  0.7492
12234TIP3   OH258192   2.387   4.150  14.582  0.0679  0.0039  0.4176
12234TIP3    H158193   2.475   4.124  14.555  0.4052  0.1061  1.3715
12234TIP3    H258194   2.383   4.244  14.566 -0.4584 -0.2442 -1.1537
12235TIP3   OH258195   2.380   4.207   1.849 -0.0151 -0.2156 -0.2198
12235TIP3    H158196   2.348   4.253   1.927  0.5820 -1.4548  0.7935
12235TIP3    H258197   2.404   4.277   1.788 -0.0206  0.7959  0.8949
12236TIP3   OH258198   6.003   6.541   2.678  0.2598 -0.0853 -0.0674
12236TIP3    H158199   6.008   6.606   2.608  1.0277  1.2856  1.1944
12236TIP3    H258200   5.909   6.527   2.691  0.0345  1.3436  0.0918
12237TIP3   OH258201   1.119   1.156  15.046  0.6682 -0.3149 -0.8283
12237TIP3    H158202   1.195   1.189  15.095  2.2907 -3.5162 -0.9088
12237TIP3    H258203   1.156   1.126  14.963 -0.5887 -2.1788 -0.7678
12238TIP3   OH258204   0.662   0.953   2.274 -0.6680 -0.4576 -0.2673
12238TIP3    H158205   0.584   0.981   2.321 -0.4917  0.1209 -0.3160
12238TIP3    H258206   0.634   0.948   2.182 -0.3922  0.7277 -0.4266
12239TIP3   OH258207   0.276   2.535   6.421 -0.0704  0.0051 -0.2797
12239TIP3    H158208   0.366   2.535   6.388  0.4336 -0.1945  1.0192
12239TIP3    H258209   0.221   2.542   6.343  1.0500 -0.7155 -1.1609
12240TIP3   OH258210   5.827   3.234   2.058 -0.0892  0.0379  0.2824
12240TIP3    H158211   5.769   3.284   2.001 -1.2578 -1.5150  0.0553
12240TIP3    H258212   5.901   3.210   2.002  0.2517  1.0750  0.2699
12241TIP3   OH258213   5.275   4.949  16.992  0.1895 -0.3435 -0.8631
12241TIP3    H158214   5.361   4.909  17.002  0.7103  1.3249  3.4081
12241TIP3    H258215   5.216   4.894  17.043  0.0960  1.7083  1.4539
12242TIP3   OH258216   2.534   2.739  13.236  0.4019  0.2525 -0.0922
12242TIP3    H158217   2.467   2.713  13.173 -0.7206 -1.9163  1.8361
12242TIP3    H258218   2.490   2.802  13.293 -0.6035 -2.2223  2.0400
12243TIP3   OH258219   5.775   3.557  15.111  0.5713 -1.0005  0.1360
12243TIP3    H158220   5.755   3.560  15.018 -0.0122  0.4299  0.2785
12243TIP3    H258221   5.802   3.646  15.133 -0.5439 -0.9737  1.5784
12244TIP3   OH258222   2.862   0.342  13.403  0.1791  0.0973 -0.2470
12244TIP3    H158223   2.837   0.433  13.390  1.1852  0.3817 -0.2930
12244TIP3    H258224   2.927   0.344  13.474  0.2942 -0.5699 -0.3186
12245TIP3   OH258225   2.339   4.908   4.981 -0.5484 -0.1623 -0.3776
12245TIP3    H158226   2.305   4.879   5.066  1.5623  0.9581  0.9476
12245TIP3    H258227   2.333   4.831   4.925 -1.1202 -1.2227  1.0753
12246TIP3   OH258228   2.520   6.407   0.905 -0.6116 -0.2760  0.0742
12246TIP3    H158229   2.499   6.479   0.964 -0.9346 -0.3612  0.0686
12246TIP3    H258230   2.438   6.358   0.896 -0.4138 -0.6055  0.0226
12247TIP3   OH258231   1.335   6.035   2.316 -0.0078 -0.6085 -0.1179
12247TIP3    H158232   1.312   6.107   2.376  0.0594 -1.4745  0.9770
12247TIP3    H258233   1.262   5.974   2.323  1.2172 -2.0370  1.2411
12248TIP3   OH258234   1.192   4.601  14.193  0.4488 -0.7967  0.0581
12248TIP3    H158235   1.119   4.540  14.180 -1.2184  1.2280 -0.7081
12248TIP3    H258236   1.151   4.679  14.231  2.3096  0.2648  0.0075
12249TIP3   OH258237   5.967   4.887   3.380  0.7299 -0.0577 -0.2102
12249TIP3    H158238   5.997   4.884   3.471 -0.3057 -1.3641  0.1078
12249TIP3    H258239   6.042   4.922   3.332  2.4076 -2.1548  0.7027
12250TIP3   OH258240   2.452   0.470   5.060  0.2566  0.1537  0.2616
12250TIP3    H158241   2.370   0.422   5.052  0.1179  0.1387  1.5547
12250TIP3    H258242   2.520   0.406   5.038 -0.0749  0.2752 -1.2015
12251TIP3   OH258243   1.704   5.489  14.194 -0.4164 -0.4210  0.6227
12251TIP3    H158244   1.641   5.529  14.133  0.0603  0.0613  0.4363
12251TIP3    H258245   1.655   5.480  14.275 -0.3588  1.2093  0.8842
12252TIP3   OH258246   2.968   0.574  13.806 -0.2399  0.3901 -0.0354
12252TIP3    H158247   2.980   0.496  13.861 -1.1404 -0.1262 -0.5394
12252TIP3    H258248   3.015   0.643  13.852  0.6170 -0.4614  0.4002
12253TIP3   OH258249   2.794   3.712   4.606  0.2049  0.0281 -0.1869
12253TIP3    H158250   2.888   3.730   4.598  0.1243  0.1474 -0.9204
12253TIP3    H258251   2.752   3.775   4.548 -0.2146 -1.1179 -1.1872
12254TIP3   OH258252   6.729   3.357   5.146 -0.5818  0.1083 -0.3633
12254TIP3    H158253   6.775   3.432   5.108  0.7726 -0.8962 -0.7960
12254TIP3    H258254   6.669   3.395   5.210 -0.6728  1.6151 -1.3041
12255TIP3   OH258255   4.142   3.311  15.777 -0.7521  0.1738 -0.3977
12255TIP3    H158256   4.214   3.336  15.719 -0.2518 -1.3328 -0.4716
12255TIP3    H258257   4.094   3.393  15.792  0.6134  1.0978 -0.8305
12256TIP3   OH258258   2.017   4.464   3.815 -0.0252 -0.1443 -0.2319
12256TIP3    H158259   1.967   4.446   3.735  0.3890 -1.5043 -0.2002
12256TIP3    H258260   2.092   4.515   3.785 -0.6120  0.5822 -0.4963
12257TIP3   OH258261   4.646   5.777   0.374 -0.1475 -0.4230 -0.5530
12257TIP3    H158262   4.580   5.716   0.405 -0.4502 -0.6490 -1.6118
12257TIP3    H258263   4.724   5.756   0.426 -0.4848 -1.1573 -0.3297
12258TIP3   OH258264   2.066   6.322   6.100 -0.0875  0.1946  0.7496
12258TIP3    H158265   2.148   6.283   6.069 -0.5144  0.1330 -0.3791
12258TIP3    H258266   2.037   6.264   6.171 -0.5159 -1.3982 -0.6437
12259TIP3   OH258267   4.826   4.431  17.156 -0.1689  0.2933  0.0097
12259TIP3    H158268   4.760   4.444  17.224  0.0073  2.6273 -0.1753
12259TIP3    H258269   4.779   4.444  17.074 -0.3060 -2.1574 -0.3525
12260TIP3   OH258270   3.775   4.113  15.959  0.5290  0.4799 -0.5904
12260TIP3    H158271   3.809   4.057  16.029 -0.3551 -0.4003 -0.8498
12260TIP3    H258272   3.770   4.056  15.883 -0.5342  0.8717 -0.8216
12261TIP3   OH258273   0.572   5.885   5.625 -0.3275 -0.1583 -0.1572
12261TIP3    H158274   0.489   5.856   5.662  0.7933 -0.8399  1.9628
12261TIP3    H258275   0.638   5.825   5.662  1.2814  1.1861 -0.6925
12262TIP3   OH258276   5.403   0.011  14.704  0.0548 -0.3695 -0.0386
12262TIP3    H158277   5.357   0.024  14.787  1.3621  2.2085  0.3886
12262TIP3    H258278   5.338  -0.031  14.648 -1.9544  0.6656  1.3459
12263TIP3   OH258279   0.324   0.373   5.903 -0.1861  0.0207  0.0988
12263TIP3    H158280   0.331   0.404   5.813  0.7400 -0.0772  0.1284
12263TIP3    H258281   0.375   0.435   5.954  0.0692 -0.4458  0.4228
12264TIP3   OH258282   2.447   3.193  14.954  0.3852  0.7015 -0.2573
12264TIP3    H158283   2.476   3.277  14.919  1.2584  0.8081  0.6792
12264TIP3    H258284   2.352   3.200  14.957  0.4848  2.0273  0.6632
12265TIP3   OH258285   0.258   1.353  14.798 -0.4969 -0.0352 -0.1201
12265TIP3    H158286   0.198   1.283  14.770 -1.5143  0.5062  0.6347
12265TIP3    H258287   0.205   1.409  14.854  0.4408  1.0719 -0.2945
12266TIP3   OH258288   2.105   0.568   6.126  0.3788  0.2395 -0.6341
12266TIP3    H158289   2.154   0.519   6.060 -0.5727 -0.1466 -1.0571
12266TIP3    H258290   2.145   0.543   6.209  1.0358  0.0905 -0.9904
12267TIP3   OH258291   6.183   2.858  14.731 -0.2397 -0.2232  0.1042
12267TIP3    H158292   6.103   2.878  14.780  0.7453 -0.6919  2.0108
12267TIP3    H258293   6.249   2.919  14.767  0.9205 -1.7092  0.6090
12268TIP3   OH258294   5.002   1.812  13.091 -0.4061 -0.0094  0.2352
12268TIP3    H158295   5.045   1.729  13.109 -0.0904  0.4711  1.9530
12268TIP3    H258296   4.923   1.788  13.043  0.3418 -1.1625 -0.4621
12269TIP3   OH258297   5.744   0.083  10.480  0.2543  0.2156 -0.3762
12269TIP3    H158298   5.700   0.045  10.404 -2.1865 -0.1882  1.1163
12269TIP3    H258299   5.710   0.034  10.555  2.6847  0.4767  1.0321
12270TIP3   OH258300   4.731   0.754   2.861  0.0266 -0.2551  0.2290
12270TIP3    H158301   4.692   0.666   2.863  0.8897 -0.6956 -1.0302
12270TIP3    H258302   4.820   0.740   2.830  0.4480  0.9934  0.8093
12271TIP3   OH258303   3.901   0.386   1.082  0.4424  0.8826 -0.7616
12271TIP3    H158304   3.967   0.406   1.148 -1.0605 -0.3296  1.1898
12271TIP3    H258305   3.934   0.308   1.037 -0.2929 -0.6881  1.2697
12272TIP3   OH258306   3.402   3.305   3.487  0.1317  0.7661 -0.3911
12272TIP3    H158307   3.444   3.249   3.552  0.1240  0.6459 -0.4894
12272TIP3    H258308   3.425   3.394   3.514  2.9174  0.6651 -2.0943
12273TIP3   OH258309   4.297   4.023  16.214 -0.3275  0.3982 -0.2825
12273TIP3    H158310   4.256   4.060  16.137 -2.2020  2.4456  1.5645
12273TIP3    H258311   4.224   3.989  16.267  0.7317  0.3993  1.2596
12274TIP3   OH258312   6.090   2.671   2.623 -0.4662 -0.3869  0.4576
12274TIP3    H158313   6.074   2.721   2.703 -1.0138  0.1068  0.0532
12274TIP3    H258314   6.139   2.594   2.652 -0.4925 -0.1216  1.2378
12275TIP3   OH258315   1.396   3.218  15.794 -0.3169  0.6066  0.5970
12275TIP3    H158316   1.303   3.231  15.775 -0.0613  1.3192 -0.2397
12275TIP3    H258317   1.401   3.217  15.890 -1.4319 -1.4091  0.6804
12276TIP3   OH258318   5.811   6.601   4.112  0.5828  0.4327 -0.1590
12276TIP3    H158319   5.749   6.668   4.140  0.0015  0.4054 -1.3090
12276TIP3    H258320   5.838   6.629   4.024  0.9953 -0.3799 -0.3050
12277TIP3   OH258321   5.429   5.368   1.951  0.3962 -0.3481  0.0638
12277TIP3    H158322   5.341   5.332   1.966 -0.3485  1.3923  0.1643
12277TIP3    H258323   5.458   5.325   1.870 -0.5055 -1.0159  0.0708
12278TIP3   OH258324   2.387   2.272  15.032 -0.5499 -0.1224 -0.1676
12278TIP3    H158325   2.320   2.296  15.096 -1.1713  1.0368 -1.2106
12278TIP3    H258326   2.452   2.342  15.038  1.2462 -1.8073  1.6493
12279TIP3   OH258327   4.340   6.450   2.736  0.3863  0.2616 -0.0195
12279TIP3    H158328   4.322   6.362   2.705 -0.5197 -0.1411  1.5444
12279TIP3    H258329   4.434   6.462   2.722  0.8875 -1.6473  1.3612
12280TIP3   OH258330   4.045   2.371   1.094  0.2008 -0.0208 -0.9073
12280TIP3    H158331   4.023   2.278   1.099 -1.5430  0.2984 -1.8520
12280TIP3    H258332   3.960   2.415   1.092  0.9994  1.5902 -0.6557
12281TIP3   OH258333   5.486   0.186   0.601 -0.9261  0.5246 -0.3960
12281TIP3    H158334   5.502   0.278   0.583 -1.5784  1.0979  1.6538
12281TIP3    H258335   5.573   0.146   0.605 -0.6735  0.7036 -2.6131
12282TIP3   OH258336   2.307   4.573   1.411  0.2664 -0.1728  0.0252
12282TIP3    H158337   2.298   4.614   1.497 -0.8958 -0.2599 -0.0381
12282TIP3    H258338   2.279   4.483   1.424  0.5037 -0.3046 -0.3559
12283TIP3   OH258339   4.657   3.894   1.237  0.5220 -0.9376 -0.0891
12283TIP3    H158340   4.678   3.854   1.321  0.6828  0.0971  0.3746
12283TIP3    H258341   4.658   3.988   1.254 -0.0947 -0.7343 -1.0970
12284TIP3   OH258342   4.155   1.821  15.102  0.3424 -0.0016  1.0564
12284TIP3    H158343   4.214   1.756  15.141 -0.2416 -1.8852 -1.0155
12284TIP3    H258344   4.068   1.785  15.114  0.0577 -0.0114 -0.7677
12285TIP3   OH258345   2.097   0.957   2.209 -0.1156  0.0138  0.1619
12285TIP3    H158346   2.107   0.884   2.149 -1.5176  0.7525 -1.0464
12285TIP3    H258347   2.002   0.970   2.215  0.0430  0.7169  1.6257
12286TIP3   OH258348   1.899   5.854  12.933  0.5258 -0.7225  0.0446
12286TIP3    H158349   1.931   5.767  12.954  1.6404  0.0842  1.9539
12286TIP3    H258350   1.972   5.913  12.955  0.0747  0.6633 -1.8566
12287TIP3   OH258351   1.805   1.225  14.122 -0.6197  0.0667 -0.2783
12287TIP3    H158352   1.878   1.166  14.141 -1.1072 -1.5803 -2.9971
12287TIP3    H258353   1.842   1.291  14.064 -1.0463 -0.1793 -0.8349
12288TIP3   OH258354   3.296   0.351   1.866  0.2058 -0.2449  0.2380
12288TIP3    H158355   3.257   0.280   1.815 -1.0940  1.4574 -1.2551
12288TIP3    H258356   3.253   0.344   1.952  0.5440 -1.6059  0.3155
12289TIP3   OH258357   4.347   4.226   4.601  0.0421 -0.0333  0.6384
12289TIP3    H158358   4.302   4.168   4.663  0.5251 -1.0165  0.0954
12289TIP3    H258359   4.303   4.311   4.611 -3.2552 -1.3236 -1.1299
12290TIP3   OH258360   6.778   2.313  11.001  0.0432  0.2529  0.3942
12290TIP3    H158361   6.759   2.380  10.936 -0.9725 -0.1137  0.2910
12290TIP3    H258362   6.872   2.301  10.996 -0.0298  0.0974 -1.1579
12291TIP3   OH258363   5.292   2.280  12.736  0.5464  0.2699 -0.2552
12291TIP3    H158364   5.341   2.280  12.818  0.1500  1.6792  0.0144
12291TIP3    H258365   5.353   2.316  12.672  0.2854  0.8296 -0.1931
12292TIP3   OH258366   3.556   4.548  14.416 -0.0064 -0.1636  0.0527
12292TIP3    H158367   3.601   4.478  14.369 -0.1229 -0.9050  1.0029
12292TIP3    H258368   3.599   4.628  14.387 -2.4930 -0.0763 -4.2159
12293TIP3   OH258369   0.547   2.068  14.999 -0.0315  0.3244  0.1340
12293TIP3    H158370   0.642   2.076  15.014 -0.0424  0.4284  0.1437
12293TIP3    H258371   0.517   2.157  14.983 -0.0859  0.2599 -0.1188
12294TIP3   OH258372   5.504   1.790   1.875 -0.3899  0.1181 -0.0421
12294TIP3    H158373   5.471   1.810   1.963 -0.2820  1.5616 -0.3082
12294TIP3    H258374   5.564   1.717   1.888 -1.8216 -0.9714  0.7931
12295TIP3   OH258375   5.678   5.006  12.145 -0.6811 -0.4227 -0.3526
12295TIP3    H158376   5.590   5.042  12.151 -1.7208 -2.7088 -0.7392
12295TIP3    H258377   5.675   4.927  12.198  0.5900 -1.4953 -1.7823
12296TIP3   OH258378   4.301   4.240   3.742  0.4746  0.0067  0.3826
12296TIP3    H158379   4.380   4.187   3.730 -0.0323 -0.4316 -1.4310
12296TIP3    H258380   4.229   4.177   3.738 -0.1135  0.7247 -1.2301
12297TIP3   OH258381   5.893   1.055  13.897  0.0823  0.3732 -0.3139
12297TIP3    H158382   5.885   1.143  13.932 -0.1580  0.4541 -0.5688
12297TIP3    H258383   5.842   1.056  13.816 -3.0030 -0.9694  1.4226
12298TIP3   OH258384   2.861   4.333  10.838 -0.2126  0.5927 -0.4710
12298TIP3    H158385   2.944   4.285  10.831 -0.1812  0.5782 -0.0178
12298TIP3    H258386   2.853   4.379  10.754  0.1085  0.3588 -0.6305
12299TIP3   OH258387   4.613   1.417   3.682 -0.3267 -0.0865  0.4648
12299TIP3    H158388   4.682   1.356   3.709 -1.3962 -2.7240 -2.2557
12299TIP3    H258389   4.654   1.472   3.616  0.2991  1.4822  2.0659
12300TIP3   OH258390   6.789   4.824  12.726 -0.2318 -0.4129  0.2405
12300TIP3    H158391   6.783   4.807  12.820 -0.1740 -2.2237 -0.0479
12300TIP3    H258392   6.706   4.793  12.690 -0.6649  1.2015 -0.1936
12301TIP3   OH258393   0.146   2.956   5.886  0.5017 -1.0225  0.7126
12301TIP3    H158394   0.153   2.886   5.822 -0.0237 -0.9627  0.5809
12301TIP3    H258395   0.195   3.029   5.848 -0.3466 -0.7736  0.0693
12302TIP3   OH258396   4.800   3.745   2.141 -0.1269 -0.4358  0.1523
12302TIP3    H158397   4.867   3.808   2.112  0.3630 -0.9885  0.0809
12302TIP3    H258398   4.778   3.773   2.230 -0.0269 -0.0657  0.0635
12303TIP3   OH258399   1.209   6.241  10.613 -0.5551 -0.3484  0.0309
12303TIP3    H158400   1.210   6.233  10.518  1.7140  1.3399 -0.1878
12303TIP3    H258401   1.221   6.152  10.645 -0.4241 -0.8281 -1.3024
12304TIP3   OH258402   5.988   3.781   5.674  0.1699  0.0317  0.3333
12304TIP3    H158403   5.987   3.795   5.579  0.5173 -1.0371  0.1559
12304TIP3    H258404   6.080   3.791   5.699  0.1028  0.1533  0.5374
12305TIP3   OH258405   1.388   4.241   3.748  0.1046  1.1817  0.2152
12305TIP3    H158406   1.379   4.278   3.836 -0.5277  1.3317  0.0961
12305TIP3    H258407   1.379   4.317   3.690  0.7175  1.1111  0.0258
12306TIP3   OH258408   5.026   6.177   1.264  0.2818 -0.3958  0.2717
12306TIP3    H158409   5.036   6.158   1.358 -1.1825 -3.0819 -0.0233
12306TIP3    H258410   4.945   6.134   1.239 -0.2944  1.7501 -1.9330
12307TIP3   OH258411   5.106   3.274  11.555  0.1174  0.0387 -0.0332
12307TIP3    H158412   5.201   3.265  11.552  0.1474  0.1075  0.5647
12307TIP3    H258413   5.077   3.201  11.610 -0.0795  0.6279  0.6624
12308TIP3   OH258414   3.498   5.684   4.681  0.1487  0.0809  1.1204
12308TIP3    H158415   3.495   5.589   4.674 -1.1963  0.0041  2.3841
12308TIP3    H258416   3.407   5.712   4.675  0.5229  1.3011  0.7822
12309TIP3   OH258417   6.328   1.015   0.664 -0.2597  0.0987 -0.2113
12309TIP3    H158418   6.328   0.921   0.645  1.2047 -0.2223  1.1918
12309TIP3    H258419   6.420   1.040   0.662 -0.3352  0.8289  2.4069
12310TIP3   OH258420   6.515   4.924  16.382  0.1930  0.7521  0.2304
12310TIP3    H158421   6.534   4.831  16.370 -0.5369  0.5687  0.4712
12310TIP3    H258422   6.595   4.959  16.421  0.2201  0.0849  0.7997
12311TIP3   OH258423   5.633   4.477   2.891  0.4752  0.7535 -0.0455
12311TIP3    H158424   5.673   4.407   2.840 -0.3740  0.7525 -0.7340
12311TIP3    H258425   5.689   4.485   2.969  0.5656 -0.7198  0.0782
12312TIP3   OH258426   5.832   4.226  10.666  0.1168  0.3711 -0.2209
12312TIP3    H158427   5.770   4.160  10.633  0.3163  0.3956 -0.6565
12312TIP3    H258428   5.780   4.307  10.671  0.7157  1.0572 -3.1630
12313TIP3   OH258429   1.342   6.216  12.835 -0.7156 -0.0991 -0.0093
12313TIP3    H158430   1.379   6.253  12.755  0.1325  0.3138  0.5618
12313TIP3    H258431   1.330   6.123  12.815 -0.8722  0.0709 -0.7411
12314TIP3   OH258432   2.605   6.110   5.326  0.4423  0.3396  0.0805
12314TIP3    H158433   2.530   6.073   5.279  1.8801 -0.9236 -1.3436
12314TIP3    H258434   2.582   6.202   5.339 -1.1742  0.0823 -0.6880
12315TIP3   OH258435   2.290   4.028   3.679 -0.1507  0.4582  0.3883
12315TIP3    H158436   2.315   3.950   3.630 -0.8093  1.3534 -1.4460
12315TIP3    H258437   2.221   3.998   3.738 -0.4191 -0.3345 -0.3095
12316TIP3   OH258438   2.131   0.230   2.682  0.6485 -0.0819 -0.1030
12316TIP3    H158439   2.208   0.271   2.720  0.8081  0.4396 -0.9687
12316TIP3    H258440   2.164   0.182   2.606  0.1077  0.2033 -0.5220
12317TIP3   OH258441   2.177   3.752  12.090 -0.2696 -0.5502  0.1721
12317TIP3    H158442   2.125   3.829  12.066 -1.5324 -1.7742 -1.2370
12317TIP3    H258443   2.263   3.786  12.111 -0.2270  1.0698 -2.3086
12318TIP3   OH258444   2.479   2.919  15.650 -0.1068 -0.0738 -0.0266
12318TIP3    H158445   2.560   2.903  15.601 -0.4848 -1.3052 -0.2776
12318TIP3    H258446   2.508   2.927  15.741  0.4619  1.0915 -0.2790
12319TIP3   OH258447   5.447   1.443  12.156 -0.3681 -0.2945 -0.3096
12319TIP3    H158448   5.370   1.448  12.213 -0.3132  1.8353 -0.3664
12319TIP3    H258449   5.412   1.447  12.067 -0.2260  0.5632 -0.3370
12320TIP3   OH258450   3.760   1.198   4.006  0.6689 -0.1397  0.1607
12320TIP3    H158451   3.773   1.104   4.017 -1.3925 -0.5554 -0.4150
12320TIP3    H258452   3.664   1.209   4.004  0.8486  1.7884 -1.2520
12321TIP3   OH258453   1.921   4.719   3.136  0.1844 -0.3284 -0.6429
12321TIP3    H158454   1.828   4.695   3.144 -0.8146  3.3562  0.6980
12321TIP3    H258455   1.966   4.659   3.196 -1.5543 -1.1004 -0.0387
12322TIP3   OH258456   6.450   1.288   0.366  0.2308  0.3830  0.7423
12322TIP3    H158457   6.391   1.230   0.319  0.9284 -0.2608  0.6386
12322TIP3    H258458   6.496   1.337   0.297  1.0560 -0.3648  0.7461
12323TIP3   OH258459   0.793   1.028   5.115 -0.5114  0.1728 -0.1003
12323TIP3    H158460   0.699   1.017   5.125 -0.4556  0.9775  1.7265
12323TIP3    H258461   0.828   1.021   5.204  1.1332  0.1716 -0.6985
12324TIP3   OH258462   6.031   5.793  15.508 -0.3389 -0.3815 -0.7422
12324TIP3    H158463   6.123   5.819  15.500 -0.3055  0.1981  1.1165
12324TIP3    H258464   6.007   5.764  15.420  1.3026  0.4768 -1.5249
12325TIP3   OH258465   1.584   4.563   4.899 -0.1574  0.3876  0.2188
12325TIP3    H158466   1.655   4.599   4.847 -0.5361  1.0033  0.1126
12325TIP3    H258467   1.588   4.468   4.883  1.2896  0.2860  1.0581
12326TIP3   OH258468   4.707   4.614   0.154 -0.0469 -0.5949 -0.3978
12326TIP3    H158469   4.627   4.564   0.136 -0.7949  0.0889  0.9174
12326TIP3    H258470   4.686   4.703   0.126  0.5833 -0.5980 -0.8929
12327TIP3   OH258471   0.783   2.501   4.108 -0.4419  0.2617  0.2932
12327TIP3    H158472   0.781   2.405   4.116 -0.4390  0.1238 -1.1576
12327TIP3    H258473   0.850   2.528   4.171 -0.4665 -0.6803  0.7496
12328TIP3   OH258474   5.375   5.402  14.447  0.0648  0.3135  0.2627
12328TIP3    H158475   5.425   5.441  14.375 -0.7201  1.6087  0.3676
12328TIP3    H258476   5.408   5.313  14.455  0.7928  0.4370 -1.1094
12329TIP3   OH258477   4.569   0.857  14.739  0.3282  0.7215  0.1645
12329TIP3    H158478   4.505   0.787  14.724 -1.1357  2.1559 -0.4499
12329TIP3    H258479   4.601   0.841  14.828 -0.0493 -0.6547  0.0771
12330TIP3   OH258480   6.777   3.613   6.819  0.0479 -0.1675  0.6438
12330TIP3    H158481   6.753   3.696   6.861  1.7200  0.1259  1.1062
12330TIP3    H258482   6.720   3.607   6.742 -0.6173  1.0357  1.0233
12331TIP3   OH258483   1.733   5.171   1.505  0.3347 -0.1228 -0.0304
12331TIP3    H158484   1.735   5.163   1.600  0.3308  1.3120  0.1248
12331TIP3    H258485   1.811   5.223   1.484  0.7472 -1.0608 -0.8915
12332TIP3   OH258486   3.823   3.137   3.603  0.1211 -0.5413  0.3939
12332TIP3    H158487   3.869   3.113   3.684 -0.8826 -2.3823  0.4732
12332TIP3    H258488   3.843   3.066   3.542 -2.1555 -1.1972  0.2911
12333TIP3   OH258489   1.460   4.335  13.911 -0.2251 -0.1228 -0.4711
12333TIP3    H158490   1.516   4.411  13.929 -1.2263  0.5073  0.0364
12333TIP3    H258491   1.432   4.346  13.820 -0.5732  0.2536 -0.3193
12334TIP3   OH258492   5.641   3.346  13.365  0.2584  0.0028 -0.3698
12334TIP3    H158493   5.729   3.314  13.384 -0.4280 -2.1000 -0.4752
12334TIP3    H258494   5.642   3.437  13.394  2.4603  0.0483 -0.3945
12335TIP3   OH258495   1.126   5.530  16.820  0.4357 -0.4527 -0.0349
12335TIP3    H158496   1.120   5.521  16.915  0.6225  2.9124  0.4385
12335TIP3    H258497   1.220   5.528  16.802  0.4862  0.2550  0.0919
12336TIP3   OH258498   5.374   3.223  11.570  0.2794  0.3794 -0.7351
12336TIP3    H158499   5.376   3.294  11.505 -0.6700  0.0064 -1.1875
12336TIP3    H258500   5.434   3.252  11.639 -2.4448  3.1779  0.7105
12337TIP3   OH258501   6.556   4.760   4.419 -0.8937  0.0613 -0.7343
12337TIP3    H158502   6.486   4.756   4.483  0.2004  0.7215  0.5590
12337TIP3    H258503   6.514   4.738   4.335 -2.6799  0.7424 -0.0642
12338TIP3   OH258504   0.422   4.266  16.873 -0.4848 -0.1825 -0.7571
12338TIP3    H158505   0.514   4.239  16.870 -0.9648 -2.1307  0.0771
12338TIP3    H258506   0.420   4.352  16.832  1.4088 -0.9648 -2.6461
12339TIP3   OH258507   0.587   6.410   4.422 -0.0418  0.1383 -0.4234
12339TIP3    H158508   0.604   6.487   4.367 -0.1780  1.2124  0.9893
12339TIP3    H258509   0.671   6.394   4.466  0.2209 -1.0471 -1.2845
12340TIP3   OH258510   6.245   4.554  14.305  0.5328 -0.6162 -0.0141
12340TIP3    H158511   6.209   4.577  14.219  0.8550 -2.3705 -0.6577
12340TIP3    H258512   6.334   4.589  14.304  0.5184 -0.5814 -0.3899
12341TIP3   OH258513   0.679   2.703  16.952  0.5432 -0.0288  0.7666
12341TIP3    H158514   0.645   2.742  17.032  2.3004  0.6909  1.2021
12341TIP3    H258515   0.706   2.615  16.978 -0.6662 -0.5005  0.4840
12342TIP3   OH258516   2.883   0.459   1.233  0.6169  0.0162 -0.3123
12342TIP3    H158517   2.892   0.364   1.221 -0.6717 -0.2129  0.3331
12342TIP3    H258518   2.931   0.478   1.313  2.5284  0.2530 -1.4687
12343TIP3   OH258519   6.148   1.348  13.003 -0.0892  0.4663  0.2501
12343TIP3    H158520   6.071   1.292  13.007 -1.0694  1.7359  0.0025
12343TIP3    H258521   6.186   1.345  13.091  0.5388 -1.4220 -0.0475
12344TIP3   OH258522   0.516   2.413   1.789 -0.1891  0.2702 -0.0258
12344TIP3    H158523   0.514   2.506   1.764 -0.7414 -0.1308 -1.5876
12344TIP3    H258524   0.541   2.414   1.881 -1.2742  2.0364  0.3045
12345TIP3   OH258525   5.734   3.439   3.801 -0.0486 -0.3636  0.5566
12345TIP3    H158526   5.829   3.436   3.795  0.0369  2.4214 -1.2947
12345TIP3    H258527   5.704   3.377   3.733  0.5041  0.1791 -0.1997
12346TIP3   OH258528   6.679   3.116   0.606  0.2738 -0.2777 -0.0593
12346TIP3    H158529   6.720   3.112   0.692 -1.7313 -3.8615  0.9500
12346TIP3    H258530   6.603   3.173   0.618  0.7747  0.3530  0.1388
12347TIP3   OH258531   3.493   1.370   2.375  0.1995  0.6579  0.3765
12347TIP3    H158532   3.538   1.345   2.455  0.9820 -2.3197 -0.8596
12347TIP3    H258533   3.562   1.408   2.320  0.2997  0.0723  0.0871
12348TIP3   OH258534   6.808   5.491   2.134  0.1076  0.5113 -0.2810
12348TIP3    H158535   6.776   5.496   2.224  0.9712 -1.2202  0.1613
12348TIP3    H258536   6.889   5.541   2.134  0.0126  0.6670 -0.1588
12349TIP3   OH258537   2.794   1.989   0.115  0.3246  0.0530  0.0131
12349TIP3    H158538   2.865   2.046   0.086  1.2407 -1.5780 -1.1338
12349TIP3    H258539   2.715   2.028   0.078  1.1997 -0.7004 -2.9020
12350TIP3   OH258540   4.385   0.922   2.614 -0.0254 -0.0189 -0.8334
12350TIP3    H158541   4.412   1.011   2.637 -1.1574  0.2823 -0.6198
12350TIP3    H258542   4.290   0.922   2.628  0.1033 -1.5763  0.2255
12351TIP3   OH258543   2.330   4.068   0.752  0.3728  0.2875 -0.1948
12351TIP3    H158544   2.283   4.128   0.693  0.4647 -0.0629 -0.6283
12351TIP3    H258545   2.419   4.067   0.718  1.1410  2.1853  1.5673
12352TIP3   OH258546   1.973   2.708   4.717 -0.0659 -0.0185 -0.0578
12352TIP3    H158547   1.908   2.748   4.775  0.3756  0.6998 -0.0601
12352TIP3    H258548   1.926   2.633   4.679 -0.3904 -0.4673  1.1538
12353TIP3   OH258549   2.639   2.257   1.674  0.2982  0.1629  0.3978
12353TIP3    H158550   2.669   2.184   1.620  0.5775  0.7799 -0.2996
12353TIP3    H258551   2.573   2.219   1.732  0.5693 -0.6735  0.1633
12354TIP3   OH258552   6.698   6.214  16.037  0.1924  0.5909 -0.0611
12354TIP3    H158553   6.699   6.288  16.097 -0.9593  0.8281 -0.3173
12354TIP3    H258554   6.743   6.144  16.084 -0.6215  0.7976  1.0426
12355TIP3   OH258555   5.319   2.271  13.838 -0.3827  0.0268  0.1535
12355TIP3    H158556   5.413   2.290  13.832 -0.0834 -1.6899 -2.6737
12355TIP3    H258557   5.314   2.177  13.856 -1.4959 -0.1248 -0.7692
12356TIP3   OH258558   4.388   5.856  11.927 -0.4457 -0.5784 -0.1433
12356TIP3    H158559   4.425   5.775  11.890  0.6482  0.1995 -0.8049
12356TIP3    H258560   4.347   5.828  12.008 -1.3548 -2.0412 -1.0660
12357TIP3   OH258561   3.579   4.793  12.042 -0.5008 -0.5950  0.4619
12357TIP3    H158562   3.510   4.808  11.977  0.0708 -0.5273 -0.1340
12357TIP3    H258563   3.628   4.718  12.008  0.2125 -0.1355  0.4691
12358TIP3   OH258564   4.632   0.053   0.827 -0.0614  0.2718  0.2031
12358TIP3    H158565   4.539   0.073   0.813  0.1891  1.8837  0.6197
12358TIP3    H258566   4.641   0.050   0.922  0.7215  2.5803  0.2808
12359TIP3   OH258567   6.307   2.754  14.106 -0.6647  0.1522  0.4839
12359TIP3    H158568   6.354   2.741  14.188 -0.2243  1.4973  0.4589
12359TIP3    H258569   6.318   2.671  14.059 -1.0967 -0.7036  1.8429
12360TIP3   OH258570   0.933   1.972  11.917 -0.3455  0.1749 -0.2372
12360TIP3    H158571   0.961   2.063  11.914 -0.3357  0.1742 -0.1646
12360TIP3    H258572   0.909   1.957  12.008 -0.0690  0.0243 -0.1888
12361TIP3   OH258573   4.919   5.522   3.147  0.4148  0.0085 -0.2904
12361TIP3    H158574   4.928   5.616   3.131 -0.1337 -0.0690 -1.1114
12361TIP3    H258575   5.009   5.493   3.165  0.2922  1.0763  2.4195
12362TIP3   OH258576   0.560   5.604  13.977 -0.0320  0.1201 -0.0338
12362TIP3    H158577   0.648   5.573  14.000 -0.0472 -0.9468 -1.2987
12362TIP3    H258578   0.567   5.630  13.885 -0.7265  1.3068  0.2330
12363TIP3   OH258579   0.016   0.944  12.270  0.9696  0.4578 -0.1418
12363TIP3    H158580   0.080   1.011  12.293  2.8928 -1.2310 -0.2785
12363TIP3    H258581   0.017   0.941  12.175 -1.1965  2.0768 -0.2827
12364TIP3   OH258582   6.355   0.983   2.204  0.5388 -0.5165 -0.4893
12364TIP3    H158583   6.447   0.958   2.208  0.9202  0.7933 -0.6340
12364TIP3    H258584   6.327   0.989   2.296  0.9981  0.4508 -0.4041
12365TIP3   OH258585   2.769   0.202  11.910 -0.2911  0.0833 -0.3924
12365TIP3    H158586   2.753   0.235  11.821 -2.4758 -2.3482 -1.0449
12365TIP3    H258587   2.776   0.280  11.964 -0.0235  1.6232 -2.5223
12366TIP3   OH258588   6.301   4.095  15.989  0.6885 -0.2193 -0.4140
12366TIP3    H158589   6.319   4.048  16.070 -0.7290  0.8420  0.5636
12366TIP3    H258590   6.234   4.043  15.945 -1.3569  1.1124  0.9769
12367TIP3   OH258591   5.684   1.207   1.304 -0.1615  0.1178  0.2765
12367TIP3    H158592   5.681   1.131   1.362 -2.0573  0.1348  0.2865
12367TIP3    H258593   5.743   1.181   1.234  1.2019 -0.3721  1.5512
12368TIP3   OH258594   2.735   1.694  13.684  0.2872  0.4638 -0.3157
12368TIP3    H158595   2.739   1.789  13.691  0.6317  0.5159 -1.1624
12368TIP3    H258596   2.801   1.662  13.746  0.9962  0.8078 -0.8947
12369TIP3   OH258597   2.256   2.980  16.839  0.1999  0.3401 -0.8260
12369TIP3    H158598   2.310   3.018  16.908  0.0721 -0.2601 -0.3937
12369TIP3    H258599   2.316   2.973  16.764 -0.1118  2.6147 -1.3569
12370TIP3   OH258600   2.623   2.581  11.933 -0.5038  0.2108 -0.2300
12370TIP3    H158601   2.637   2.674  11.954  0.6894  0.5399 -2.1873
12370TIP3    H258602   2.688   2.535  11.985  0.5608  0.7437 -1.0303
12371TIP3   OH258603   0.223   3.221  16.973 -0.1349 -0.0419  0.2450
12371TIP3    H158604   0.143   3.231  17.024  0.2310 -0.2092  0.8625
12371TIP3    H258605   0.276   3.297  16.996 -0.2740  0.2843 -0.4711
12372TIP3   OH258606   5.259   3.882   4.871  0.4072  0.2328  0.3885
12372TIP3    H158607   5.186   3.834   4.910  1.5191 -0.6367  1.5271
12372TIP3    H258608   5.230   3.973   4.866 -0.6000 -0.0355  1.1827
12373TIP3   OH258609   0.698   3.156   6.014  0.1958 -0.3510 -0.0798
12373TIP3    H158610   0.687   3.137   5.921  1.3786 -1.5299 -0.0109
12373TIP3    H258611   0.635   3.225   6.032  1.2282  1.2514 -2.1639
12374TIP3   OH258612   0.343   0.004   4.078 -0.0876  0.4093 -0.3076
12374TIP3    H158613   0.319  -0.071   4.134 -0.6429  1.1365  0.4518
12374TIP3    H258614   0.395   0.061   4.136 -2.8465  2.4532  0.3477
12375TIP3   OH258615   3.924   5.084  15.862 -0.2579  0.2388 -0.2559
12375TIP3    H158616   4.004   5.032  15.853  0.6483  1.7470 -1.3883
12375TIP3    H258617   3.897   5.102  15.772 -1.4688  0.3700  0.1174
12376TIP3   OH258618   1.314   6.511   1.183  0.0919  0.3978  0.5540
12376TIP3    H158619   1.221   6.510   1.160  0.8272 -1.3478 -3.0100
12376TIP3    H258620   1.334   6.420   1.206  1.0413  0.6212  0.6583
12377TIP3   OH258621   3.558   4.006  11.565  0.2510  0.3265  0.1959
12377TIP3    H158622   3.559   3.925  11.514 -2.0712 -1.3185  2.5021
12377TIP3    H258623   3.546   4.075  11.500  0.2205 -1.3609 -1.6930
12378TIP3   OH258624   4.005   1.712   1.374 -0.1010  0.1106 -0.1364
12378TIP3    H158625   4.085   1.685   1.329  0.3356  2.2566 -0.7264
12378TIP3    H258626   3.935   1.664   1.329  0.8491 -3.0597  1.4038
12379TIP3   OH258627   5.269   2.058   1.769 -0.1792  0.5485  0.2325
12379TIP3    H158628   5.318   2.103   1.838 -1.6569  1.0227  1.0182
12379TIP3    H258629   5.334   2.041   1.701  0.3996  4.5388 -0.4719
12380TIP3   OH258630   3.781   4.478   4.645  0.0245 -0.3977  0.2880
12380TIP3    H158631   3.740   4.479   4.732  0.4452  0.1082  0.4847
12380TIP3    H258632   3.797   4.570   4.625 -0.7782 -0.4498 -0.6725
12381TIP3   OH258633   3.849   0.021   0.782  0.3592 -0.4715  0.1499
12381TIP3    H158634   3.878  -0.068   0.760  1.5014 -0.9399  3.0983
12381TIP3    H258635   3.773   0.008   0.839 -0.5124  0.5486 -0.7360
12382TIP3   OH258636   4.821   2.503   4.058  0.9388  0.1564  0.0532
12382TIP3    H158637   4.785   2.473   4.141 -0.2519 -1.2711 -0.9106
12382TIP3    H258638   4.761   2.573   4.030  0.6873 -0.1204 -0.1094
12383TIP3   OH258639   6.136   3.804  16.039 -0.4322 -0.2083 -0.1939
12383TIP3    H158640   6.088   3.723  16.054  1.2537 -1.0062  1.3216
12383TIP3    H258641   6.087   3.870  16.087 -1.2133 -0.5482 -0.5022
12384TIP3   OH258642   4.964   2.224   3.532  0.2471  1.0226 -0.8272
12384TIP3    H158643   4.939   2.245   3.622  2.3595  2.2610 -0.4410
12384TIP3    H258644   5.013   2.301   3.503 -0.1674  0.5440 -2.9697
12385TIP3   OH258645   4.220   5.412   5.105 -0.7640 -0.0637 -0.4502
12385TIP3    H158646   4.314   5.428   5.094 -0.5047 -0.2884  1.1399
12385TIP3    H258647   4.215   5.328   5.150 -1.8274 -0.9394 -2.1099
12386TIP3   OH258648   5.096   0.696   2.305  0.2529  0.4413 -0.2257
12386TIP3    H158649   5.056   0.718   2.220 -0.3698 -0.6733 -0.2549
12386TIP3    H258650   5.026   0.651   2.352  0.9408  0.0606  0.4442
12387TIP3   OH258651   1.909   3.010  15.231 -0.2688 -0.3318 -1.1901
12387TIP3    H158652   1.873   3.025  15.319  0.4978  1.3670 -1.1347
12387TIP3    H258653   1.917   2.915  15.225 -0.8031 -0.5090  0.3853
12388TIP3   OH258654   1.587   1.768   1.879  0.4888 -0.5910 -0.0551
12388TIP3    H158655   1.496   1.741   1.872  0.4594 -0.2680 -1.2007
12388TIP3    H258656   1.584   1.857   1.914  0.2537 -0.0312 -1.4160
12389TIP3   OH258657   2.352   4.718   4.788 -0.2348 -0.0153 -0.3745
12389TIP3    H158658   2.319   4.762   4.709 -1.4765 -0.2547 -0.0135
12389TIP3    H258659   2.301   4.636   4.792 -0.4319  0.1592  0.8611
12390TIP3   OH258660   5.779   6.069  11.749 -0.0059 -0.1718  0.1664
12390TIP3    H158661   5.749   6.145  11.699 -1.8915 -0.9429  0.0658
12390TIP3    H258662   5.825   6.015  11.684 -1.0376 -0.3936 -0.4130
12391TIP3   OH258663   5.673   2.924  13.900  0.0963  0.0113 -0.2114
12391TIP3    H158664   5.631   2.846  13.935  0.3254  0.0207  0.0923
12391TIP3    H258665   5.754   2.933  13.950  0.7361 -0.3146 -1.1498
12392TIP3   OH258666   6.379   4.632  11.081 -0.2162 -0.1008 -0.8619
12392TIP3    H158667   6.383   4.609  10.988 -1.5617 -1.0566 -0.7226
12392TIP3    H258668   6.285   4.635  11.101  0.0402  0.3246  0.4143
12393TIP3   OH258669   3.427   5.178   4.823 -0.3159  0.3322  0.7764
12393TIP3    H158670   3.441   5.241   4.893  3.2479 -1.0859  1.5338
12393TIP3    H258671   3.496   5.195   4.759 -1.6990 -0.3015 -0.9934
12394TIP3   OH258672   2.142   1.112  13.952 -0.0764 -0.1693  0.5598
12394TIP3    H158673   2.077   1.134  13.885  1.4698 -1.8649 -1.6625
12394TIP3    H258674   2.131   1.018  13.967  2.7593 -0.9162 -1.1344
12395TIP3   OH258675   4.519   6.558  11.602 -0.0700 -0.2747 -0.0836
12395TIP3    H158676   4.476   6.484  11.644  0.5498 -1.3650 -1.3102
12395TIP3    H258677   4.447   6.612  11.569 -0.5196 -0.7777  0.0615
12396TIP3   OH258678   1.645   5.130   4.855  0.1230  0.6125 -0.3965
12396TIP3    H158679   1.684   5.173   4.931 -2.3542  1.6790  0.3755
12396TIP3    H258680   1.617   5.044   4.887  1.0465  0.1543 -0.7526
12397TIP3   OH258681   0.935   5.142   0.436 -0.2646  0.8681  0.5005
12397TIP3    H158682   0.956   5.216   0.493 -1.7446  1.8600 -0.1771
12397TIP3    H258683   0.885   5.180   0.364  0.6763 -0.5144 -0.9458
12398TIP3   OH258684   3.179   4.369  10.971  0.0180  0.2486 -0.2060
12398TIP3    H158685   3.159   4.288  10.924  1.5843 -0.5251  0.4209
12398TIP3    H258686   3.258   4.402  10.929 -1.7020  2.6300 -1.8601
12399TIP3   OH258687   6.612   3.498   1.317 -0.1853 -0.4064 -0.4161
12399TIP3    H158688   6.537   3.548   1.286 -0.3295  0.2853  0.9608
12399TIP3    H258689   6.584   3.462   1.401  0.7207 -0.8678 -0.2935
12400TIP3   OH258690   6.033   3.937  12.962  0.0660 -0.0287 -0.0120
12400TIP3    H158691   5.972   3.886  12.909  0.7098 -0.5040 -0.3043
12400TIP3    H258692   6.031   3.895  13.048  0.5634 -0.5272 -0.2398
12401TIP3   OH258693   0.427   6.103   2.109 -0.0153  0.4954  0.4923
12401TIP3    H158694   0.473   6.068   2.185  1.1354 -0.9781 -0.8039
12401TIP3    H258695   0.464   6.055   2.035  1.5093  4.2552 -1.4731
12402TIP3   OH258696   1.590   3.835   3.476 -0.1686 -0.3432  0.0702
12402TIP3    H158697   1.638   3.902   3.427 -1.4287 -0.4235 -1.3184
12402TIP3    H258698   1.563   3.879   3.556 -1.9679  1.2194 -1.3195
12403TIP3   OH258699   3.886   1.742  11.132 -0.4246  0.7266  0.1246
12403TIP3    H158700   3.812   1.787  11.092  1.3178  2.3516 -1.4905
12403TIP3    H258701   3.927   1.695  11.060  0.2306 -0.0048  0.9540
12404TIP3   OH258702   2.563   0.320   0.202 -0.2855 -0.6312  0.0923
12404TIP3    H158703   2.519   0.307   0.286 -0.3562  0.3695  0.2215
12404TIP3    H258704   2.557   0.234   0.158  0.6880 -1.4638  1.5329
12405TIP3   OH258705   3.995   0.895  11.178 -0.6749  0.5113  0.1107
12405TIP3    H158706   4.062   0.963  11.169 -0.5599  0.1296 -4.5587
12405TIP3    H258707   4.040   0.824  11.223  0.7234  1.7654  0.8060
12406TIP3   OH258708   0.984   2.506  16.031 -0.6503  0.6306 -0.0016
12406TIP3    H158709   1.008   2.466  16.115 -1.9478 -1.8571 -0.7067
12406TIP3    H258710   1.040   2.462  15.967 -1.1521  0.9678 -0.6817
12407TIP3   OH258711   2.647   6.479  16.452  0.4792  0.0305  0.3229
12407TIP3    H158712   2.737   6.449  16.460  1.1266  1.9142  0.5087
12407TIP3    H258713   2.607   6.456  16.536  0.3559 -1.9991 -0.2311
12408TIP3   OH258714   4.307   1.016  12.326  0.1020 -0.8600  0.1390
12408TIP3    H158715   4.213   0.999  12.332 -0.1730  0.6777  0.5985
12408TIP3    H258716   4.334   1.035  12.415  0.9951 -1.8667  0.1081
12409TIP3   OH258717   1.661   0.307   2.225  0.0107  0.0208  0.9726
12409TIP3    H158718   1.609   0.345   2.154  0.2332 -0.4098  0.5726
12409TIP3    H258719   1.626   0.348   2.304 -1.8873 -1.2595  0.8695
12410TIP3   OH258720   1.368   1.039   2.723  0.0768  0.2848 -0.1375
12410TIP3    H158721   1.383   1.019   2.815  1.0751 -1.8883 -0.6889
12410TIP3    H258722   1.299   1.106   2.723  0.5672  0.8708  2.1718
12411TIP3   OH258723   4.398   4.558  11.397 -0.0351 -0.1658  0.2017
12411TIP3    H158724   4.459   4.628  11.418  0.1843 -0.9211  2.2592
12411TIP3    H258725   4.336   4.558  11.470 -0.7207 -1.3512 -0.3593
12412TIP3   OH258726   4.603   6.522  12.817 -0.1673  0.0914 -0.0348
12412TIP3    H158727   4.595   6.564  12.903  1.7225 -1.1605  0.8110
12412TIP3    H258728   4.529   6.461  12.813 -0.4620  0.4066  0.5575
12413TIP3   OH258729   3.562   2.101   0.483 -0.0990  0.3880  0.3358
12413TIP3    H158730   3.483   2.136   0.525 -0.0872  0.2575  0.4630
12413TIP3    H258731   3.559   2.138   0.394 -1.0850 -0.7820 -0.1456
12414TIP3   OH258732   1.123   2.613  12.843 -0.3577 -0.6435  0.0546
12414TIP3    H158733   1.098   2.581  12.930 -0.3958 -0.0949  0.2489
12414TIP3    H258734   1.218   2.620  12.847 -0.4602  0.9442  0.6238
12415TIP3   OH258735   1.318   0.525  14.094 -0.2562 -0.0194  0.3631
12415TIP3    H158736   1.244   0.498  14.149  0.5953 -1.6435  0.7823
12415TIP3    H258737   1.389   0.539  14.156 -0.2665  1.9790  0.0119
12416TIP3   OH258738   0.060   4.710   1.990  0.4771  0.4307 -0.4247
12416TIP3    H158739   0.120   4.782   1.968  2.3885 -1.2529 -1.0270
12416TIP3    H258740   0.061   4.653   1.914  1.0346 -1.5219  0.9659
12417TIP3   OH258741   2.299   2.443   4.707  0.1513 -0.0861 -0.4248
12417TIP3    H158742   2.300   2.486   4.621 -0.9508 -1.3290 -1.0933
12417TIP3    H258743   2.364   2.374   4.701  0.5253  0.2297 -0.0359
12418TIP3   OH258744   3.806   2.014   0.608 -0.0514  0.1482 -0.0139
12418TIP3    H158745   3.856   2.000   0.528  0.9042 -2.3858  0.9350
12418TIP3    H258746   3.718   2.038   0.578  0.6416  0.6659 -1.7512
12419TIP3   OH258747   3.041   5.038   2.861  0.3554 -0.0465 -0.1427
12419TIP3    H158748   3.004   4.966   2.913 -0.5002  1.2663  1.1371
12419TIP3    H258749   3.032   5.009   2.771 -0.5853 -1.2740  0.3135
12420TIP3   OH258750   5.431   2.958  15.105 -0.1289 -0.3481  0.0516
12420TIP3    H158751   5.420   3.053  15.109 -0.7954 -0.3946 -0.3762
12420TIP3    H258752   5.493   2.938  15.174  0.8686  0.5230 -0.5583
12421TIP3   OH258753   6.755   1.885   2.490  0.1474  0.2555  0.3272
12421TIP3    H158754   6.682   1.921   2.541 -2.1551 -0.9950 -1.8163
12421TIP3    H258755   6.785   1.958   2.436 -1.0819  0.2844 -0.3624
12422TIP3   OH258756   1.003   0.183  13.504 -0.0183  0.3599  0.0550
12422TIP3    H158757   1.071   0.146  13.446 -0.5511 -1.5861  0.5792
12422TIP3    H258758   0.965   0.106  13.547 -2.0460  1.4688  0.3438
12423TIP3   OH258759   1.777   6.542  15.830  0.2456  0.0603 -0.5244
12423TIP3    H158760   1.833   6.576  15.900  1.0634 -0.4737 -0.8991
12423TIP3    H258761   1.838   6.496  15.771 -0.5727 -0.4083 -1.0199
12424TIP3   OH258762   1.131   4.201   5.410 -0.0199 -0.6441 -0.8106
12424TIP3    H158763   1.175   4.277   5.372  1.0414 -1.7489 -1.8678
12424TIP3    H258764   1.148   4.209   5.504  0.1310  0.3775 -0.9098
12425TIP3   OH258765   2.315   2.070  13.770 -1.0399  0.8210 -0.0571
12425TIP3    H158766   2.306   2.083  13.675  0.5063  1.2999 -0.1611
12425TIP3    H258767   2.273   1.986  13.786 -0.7856  0.4377 -1.2606
12426TIP3   OH258768   6.355   3.587   0.678  0.1558 -0.4937  0.2230
12426TIP3    H158769   6.403   3.567   0.597  0.8305  0.3832  0.3823
12426TIP3    H258770   6.351   3.504   0.724 -3.1007 -1.8202 -2.1178
12427TIP3   OH258771   1.321   2.173   1.910  0.0827  0.1350  0.7543
12427TIP3    H158772   1.263   2.179   1.986  1.5451 -0.6092  1.9677
12427TIP3    H258773   1.405   2.145   1.946  1.0612  0.6490 -1.0306
12428TIP3   OH258774   5.657   1.132  10.626  0.4992  0.5745 -0.5635
12428TIP3    H158775   5.642   1.044  10.592  0.5589  0.9945 -1.7173
12428TIP3    H258776   5.575   1.178  10.611 -0.6126 -0.0574  2.7345
12429TIP3   OH258777   4.746   6.125   2.123 -0.2955 -0.3083 -0.6055
12429TIP3    H158778   4.752   6.031   2.137  0.7707 -0.1932 -0.1942
12429TIP3    H258779   4.757   6.164   2.210  0.1020  0.2135 -0.8792
12430TIP3   OH258780   4.225   5.572   4.088 -0.0820  0.5262 -0.2876
12430TIP3    H158781   4.192   5.628   4.158  0.1621 -2.1278  2.1459
12430TIP3    H258782   4.148   5.530   4.051 -0.0336 -0.6742  0.8698
12431TIP3   OH258783   1.760   4.430  15.707  0.5155 -0.2506 -0.3185
12431TIP3    H158784   1.854   4.449  15.705  0.1510  1.7420 -0.7551
12431TIP3    H258785   1.744   4.399  15.795  1.6137 -0.8185 -0.2965
12432TIP3   OH258786   0.697   5.971  11.921 -0.0764  0.7513 -0.0609
12432TIP3    H158787   0.663   5.997  11.836 -0.3598 -1.7823 -0.8067
12432TIP3    H258788   0.636   5.905  11.953  0.8333  0.5594  1.4061
12433TIP3   OH258789   6.347   2.301   6.425 -0.9829  0.3194 -0.3190
12433TIP3    H158790   6.423   2.244   6.434  0.7445  2.3059 -1.3564
12433TIP3    H258791   6.288   2.275   6.496  0.1625 -1.9882 -0.1283
12434TIP3   OH258792   3.760   1.713   2.021  0.6749  0.2997  0.9832
12434TIP3    H158793   3.812   1.730   2.099  1.4831 -0.0668  0.5394
12434TIP3    H258794   3.809   1.753   1.950  0.1490  0.2814  0.6019
12435TIP3   OH258795   3.093   2.515   1.733 -0.2990 -0.3504  0.1699
12435TIP3    H158796   3.180   2.476   1.727 -1.5126 -3.3293  0.2500
12435TIP3    H258797   3.078   2.528   1.827  0.0259  0.2069  0.1535
12436TIP3   OH258798   6.177   2.933  11.540 -0.2183 -0.0613 -0.1266
12436TIP3    H158799   6.262   2.958  11.575  0.8279 -1.4933 -1.5106
12436TIP3    H258800   6.123   2.918  11.618  0.5652  1.4982  0.7598
12437TIP3   OH258801   5.997   3.675  15.316  0.8199  0.7342 -0.0205
12437TIP3    H158802   5.990   3.580  15.329 -0.7580  0.8918  0.5788
12437TIP3    H258803   6.060   3.685  15.245  0.2593 -0.8167 -0.7963
12438TIP3   OH258804   0.292   4.624  15.918 -0.3498  0.2481 -0.0105
12438TIP3    H158805   0.328   4.713  15.918  1.6552 -0.4074 -3.0562
12438TIP3    H258806   0.368   4.567  15.933 -1.3286 -1.0215  0.2991
12439TIP3   OH258807   0.376   0.592   4.488  0.7665  0.1647  0.4584
12439TIP3    H158808   0.437   0.649   4.442  0.0163 -0.9167 -2.0746
12439TIP3    H258809   0.292   0.637   4.483  0.3496 -0.6914 -0.7675
12440TIP3   OH258810   6.739   5.769   1.426  0.3530  0.2174  0.2875
12440TIP3    H158811   6.831   5.785   1.443  1.4209 -2.6412 -1.9153
12440TIP3    H258812   6.717   5.827   1.353  0.0396  1.6628  1.4916
12441TIP3   OH258813   1.102   6.621  13.870  0.3923  0.5901  0.1007
12441TIP3    H158814   1.181   6.614  13.816  1.1217 -2.6117  1.3215
12441TIP3    H258815   1.135   6.639  13.958 -0.2724 -0.0407  0.4894
12442TIP3   OH258816   5.807   0.095  13.952  0.2982  0.1626 -0.0237
12442TIP3    H158817   5.712   0.110  13.956  0.1298 -0.4712 -1.1657
12442TIP3    H258818   5.824   0.029  14.019 -0.1672 -0.1147 -0.1715
12443TIP3   OH258819   3.312   1.979   1.093  0.3061  0.2291  0.1824
12443TIP3    H158820   3.405   1.962   1.074 -0.2312 -3.6787  0.2148
12443TIP3    H258821   3.276   2.008   1.010  1.3226  0.7633 -0.0973
12444TIP3   OH258822   1.136   1.260   3.779  0.4531 -0.3656  0.3277
12444TIP3    H158823   1.068   1.320   3.811  1.7008  1.5651 -0.4774
12444TIP3    H258824   1.106   1.235   3.691  1.4809  1.8386 -0.7440
12445TIP3   OH258825   4.630   0.713   4.051  0.6584 -0.1397 -0.2769
12445TIP3    H158826   4.673   0.758   3.979  0.1640 -0.9586 -1.0937
12445TIP3    H258827   4.563   0.659   4.010 -1.1337  1.0329  0.9304
12446TIP3   OH258828   5.397   5.671  14.712 -0.6426 -0.3155  0.1688
12446TIP3    H158829   5.479   5.717  14.689 -0.2751 -1.2457 -0.4340
12446TIP3    H258830   5.425   5.586  14.744 -1.4283 -1.5371 -2.1768
12447TIP3   OH258831   5.581   5.594  10.918 -0.1336  0.3246  0.0505
12447TIP3    H158832   5.510   5.649  10.885 -1.6397 -2.0237 -0.8505
12447TIP3    H258833   5.541   5.509  10.933  2.5580 -1.2300 -0.8303
12448TIP3   OH258834   4.002   5.432  11.468  0.2369  0.1744  1.0729
12448TIP3    H158835   4.071   5.377  11.430 -1.3496 -0.1340 -1.6285
12448TIP3    H258836   4.044   5.517  11.480  1.3946 -0.2916  0.5206
12449TIP3   OH258837   6.722   2.202  16.927 -0.2911 -0.2655 -0.3252
12449TIP3    H158838   6.768   2.208  16.844 -1.8910  0.7476 -1.1936
12449TIP3    H258839   6.752   2.277  16.978  0.2589 -0.5682 -0.1905
12450TIP3   OH258840   6.822   5.813  14.542  0.1836 -0.1781 -0.2348
12450TIP3    H158841   6.778   5.754  14.481  0.0277 -0.7263  0.3804
12450TIP3    H258842   6.796   5.780  14.629  2.5698 -1.1642  0.1949
12451TIP3   OH258843   1.313   3.050   3.052 -0.4881 -0.1145  0.4747
12451TIP3    H158844   1.303   2.971   3.105 -1.6119  0.2720  0.8722
12451TIP3    H258845   1.340   3.018   2.966 -0.9170 -0.9296  0.6361
12452TIP3   OH258846   0.703   4.007  14.454  0.1948 -0.0494 -0.6791
12452TIP3    H158847   0.705   3.925  14.405 -1.3578 -0.0275 -0.8232
12452TIP3    H258848   0.710   3.980  14.546  3.0009 -0.0957 -0.8234
12453TIP3   OH258849   1.458   3.118   5.092 -0.2856 -0.2404  0.1305
12453TIP3    H158850   1.364   3.114   5.076 -0.4997 -1.0495  1.4682
12453TIP3    H258851   1.477   3.041   5.145  0.6475  1.3509  2.2388
12454TIP3   OH258852   0.555   3.027  11.617 -0.5541 -0.1228  0.1667
12454TIP3    H158853   0.606   2.989  11.689  2.1839  1.5670 -0.7255
12454TIP3    H258854   0.555   2.959  11.550  0.4951 -0.1935  0.2197
12455TIP3   OH258855   5.153   0.600   1.547  0.5402 -0.1485 -0.1364
12455TIP3    H158856   5.129   0.511   1.524 -0.0106 -0.0459  0.0126
12455TIP3    H258857   5.077   0.653   1.520  1.4427  0.4769 -1.5584
12456TIP3   OH258858   3.459   2.177  11.407 -0.1020  0.1937 -0.0983
12456TIP3    H158859   3.445   2.260  11.453 -1.2663  0.1336 -0.3186
12456TIP3    H258860   3.505   2.202  11.326 -1.3891  0.7778 -0.6791
12457TIP3   OH258861   5.852   4.471   1.783  0.0121 -0.4539  0.5050
12457TIP3    H158862   5.920   4.482   1.716  0.6794  1.7827  1.4440
12457TIP3    H258863   5.899   4.437   1.859 -0.3688 -1.1015  0.4531
12458TIP3   OH258864   4.529   4.031   5.016 -0.0940  0.3073 -0.3686
12458TIP3    H158865   4.556   4.079   5.094  1.8049  1.7039 -1.7800
12458TIP3    H258866   4.581   3.951   5.018  2.4973  1.7984 -1.7215
12459TIP3   OH258867   1.303   2.858   5.692  0.1852 -0.3270 -0.2980
12459TIP3    H158868   1.312   2.952   5.707  0.2687 -0.4082  0.1665
12459TIP3    H258869   1.385   2.820   5.724 -0.6195 -0.7642  1.3732
12460TIP3   OH258870   4.507   3.735   1.721  0.4206 -0.2101  0.2514
12460TIP3    H158871   4.460   3.661   1.760  0.6363 -0.6477 -0.3004
12460TIP3    H258872   4.599   3.708   1.724  0.4919  0.0062 -0.0293
12461TIP3   OH258873   4.488   0.514   3.131 -0.2890 -0.3456 -0.2609
12461TIP3    H158874   4.450   0.433   3.167 -0.0189  0.2385  1.4153
12461TIP3    H258875   4.574   0.521   3.173 -0.5028  1.0458 -0.0101
12462TIP3   OH258876   0.684   3.571  17.061 -0.2192  0.3257 -0.0314
12462TIP3    H158877   0.773   3.595  17.086 -0.9730  1.3885  1.8320
12462TIP3    H258878   0.642   3.548  17.144 -1.6965 -0.1261 -0.8781
12463TIP3   OH258879   0.652   4.374  13.138 -0.8343 -0.6174  0.1495
12463TIP3    H158880   0.642   4.466  13.114 -0.8525 -1.0375 -1.5940
12463TIP3    H258881   0.582   4.358  13.202 -1.0431  0.4835  0.2216
12464TIP3   OH258882   5.945   5.866   2.885  0.2028 -0.0757 -0.0918
12464TIP3    H158883   5.862   5.877   2.930  0.2491  0.4475 -0.1350
12464TIP3    H258884   5.924   5.814   2.808 -0.4395  1.6716 -1.1448
12465TIP3   OH258885   5.299   1.809   0.256 -0.0888 -0.1064  0.2223
12465TIP3    H158886   5.330   1.769   0.337  0.3317 -0.5606 -0.1539
12465TIP3    H258887   5.342   1.759   0.186  3.1682  3.0430 -0.3033
12466TIP3   OH258888   5.952   1.238   4.950 -0.1309  0.8912 -0.3113
12466TIP3    H158889   5.883   1.257   4.886  0.3759  3.3459 -0.2423
12466TIP3    H258890   5.964   1.321   4.996 -0.4700 -0.7540  3.0106
12467TIP3   OH258891   5.777   0.217  16.506  0.0613 -0.5975  0.0667
12467TIP3    H158892   5.872   0.201  16.506  0.1108 -0.5246  2.0728
12467TIP3    H258893   5.740   0.138  16.546 -0.6176 -0.0822  0.4615
12468TIP3   OH258894   2.118   0.822   5.683 -0.4832  0.2302 -0.2771
12468TIP3    H158895   2.152   0.733   5.697  0.7507  0.4651 -1.5682
12468TIP3    H258896   2.024   0.810   5.672 -0.6145 -0.6905  1.3564
12469TIP3   OH258897   3.306   3.428   3.938 -0.3088  0.0848 -0.4378
12469TIP3    H158898   3.302   3.507   3.993 -0.2866  0.7144 -1.3151
12469TIP3    H258899   3.228   3.434   3.883  1.4362  1.3709 -2.9705
12470TIP3   OH258900   2.241   5.243  16.841 -0.2784 -0.0014  0.0337
12470TIP3    H158901   2.195   5.247  16.925 -0.3653  0.9441 -0.0487
12470TIP3    H258902   2.216   5.159  16.804 -1.8130  0.4024  0.0681
12471TIP3   OH258903   5.749   5.249  15.990 -0.1111  0.3241 -0.4718
12471TIP3    H158904   5.666   5.216  16.025 -0.6059  1.1565 -0.8467
12471TIP3    H258905   5.725   5.296  15.910  0.4674  2.2260  0.4140
12472TIP3   OH258906   6.110   3.540  11.155 -0.4418 -1.0136 -0.2102
12472TIP3    H158907   6.042   3.596  11.192 -0.0568 -0.3520 -0.4994
12472TIP3    H258908   6.169   3.523  11.228  0.4084  0.4276 -0.5304
12473TIP3   OH258909   0.172   3.476   0.901 -0.2902 -0.7522  0.0953
12473TIP3    H158910   0.101   3.527   0.862  0.5173 -0.9042 -1.6568
12473TIP3    H258911   0.177   3.507   0.992 -0.0019  2.1290 -0.8169
12474TIP3   OH258912   1.869   3.820  13.816 -0.1146  0.0786 -0.3764
12474TIP3    H158913   1.825   3.893  13.859  1.2982  0.2489  0.8619
12474TIP3    H258914   1.961   3.829  13.842  0.2825 -1.4956 -1.1271
12475TIP3   OH258915   1.389   1.431   5.684 -0.3313  0.2797 -0.3585
12475TIP3    H158916   1.444   1.458   5.757 -1.0567  1.8941 -0.3506
12475TIP3    H258917   1.375   1.338   5.696  1.4971  0.0595  0.2328
12476TIP3   OH258918   1.512   5.470   0.834 -0.2402  0.4985 -0.8700
12476TIP3    H158919   1.480   5.521   0.908 -1.5377 -1.1429 -0.2244
12476TIP3    H258920   1.570   5.529   0.786 -0.3316  1.9863  0.7753
12477TIP3   OH258921   2.832   2.890  13.581  0.0569 -0.2298 -0.0467
12477TIP3    H158922   2.823   2.796  13.597 -3.6634  0.2094  1.2789
12477TIP3    H258923   2.826   2.899  13.486  0.4978 -1.2956 -0.1874
12478TIP3   OH258924   3.615   3.218   0.837  0.5595  0.8295  0.6074
12478TIP3    H158925   3.531   3.196   0.797  1.3827 -0.1032 -0.6872
12478TIP3    H258926   3.621   3.159   0.912  1.2267 -1.0896 -0.8710
12479TIP3   OH258927   3.152   4.232  15.564 -0.1097 -0.3777 -0.0318
12479TIP3    H158928   3.072   4.214  15.613 -0.4593  0.5107 -0.2663
12479TIP3    H258929   3.214   4.263  15.631  0.0400 -1.0501  0.1460
12480TIP3   OH258930   1.999   6.752  15.255 -0.3147  0.2513 -0.3992
12480TIP3    H158931   1.984   6.838  15.217 -0.2506 -0.1069 -1.2567
12480TIP3    H258932   1.994   6.766  15.349 -1.0778  1.0485 -0.5480
12481TIP3   OH258933   2.210   4.986  12.477 -0.3360 -0.0707 -0.3833
12481TIP3    H158934   2.283   5.017  12.424  0.1667 -0.7950 -0.1362
12481TIP3    H258935   2.215   4.891  12.471  1.6073 -0.4097  3.2953
12482TIP3   OH258936   2.760   2.715   2.911 -0.0316 -0.2959  0.1105
12482TIP3    H158937   2.772   2.725   2.817 -0.8001 -0.6821 -0.0377
12482TIP3    H258938   2.726   2.800   2.940 -0.2365 -0.3272 -0.0378
12483TIP3   OH258939   4.688   3.665  15.053 -0.5435  0.0824  0.3752
12483TIP3    H158940   4.688   3.598  15.122  1.9668 -0.3433  0.0302
12483TIP3    H258941   4.740   3.737  15.089  0.7987 -0.1374 -1.0146
12484TIP3   OH258942   3.197   5.807  17.180  0.3343  0.4564 -0.6440
12484TIP3    H158943   3.227   5.782  17.093 -2.1716 -3.2544 -0.6776
12484TIP3    H258944   3.234   5.739  17.238 -2.1466 -0.2048  0.2840
12485TIP3   OH258945   4.452   6.586   2.087  0.3480 -0.2761 -0.0569
12485TIP3    H158946   4.362   6.609   2.110  0.1397 -1.6206  0.6050
12485TIP3    H258947   4.503   6.609   2.165  0.7226  1.1436 -0.6891
12486TIP3   OH258948   4.476   1.210  13.414 -0.2433 -0.0590 -1.0646
12486TIP3    H158949   4.436   1.297  13.423  3.1143  1.4977  0.7680
12486TIP3    H258950   4.433   1.157  13.481 -0.7136  0.9093 -0.5844
12487TIP3   OH258951   2.581   3.315  16.680 -0.1572 -0.5298 -0.0640
12487TIP3    H158952   2.531   3.396  16.687  1.2577  0.2882  1.1400
12487TIP3    H258953   2.590   3.301  16.585 -1.2974  0.1447 -0.2875
12488TIP3   OH258954   0.828   4.441   5.665 -0.0613 -0.0008 -0.3546
12488TIP3    H158955   0.790   4.374   5.608 -0.0458  0.9569 -1.5542
12488TIP3    H258956   0.776   4.519   5.648  0.6306  0.5877  0.1513
12489TIP3   OH258957   2.162   6.033   3.358 -0.3079  0.2410 -0.0884
12489TIP3    H158958   2.226   5.962   3.350 -0.8073 -0.5075  1.9204
12489TIP3    H258959   2.180   6.090   3.284  2.3222 -0.2196  0.1059
12490TIP3   OH258960   4.049   6.704   3.538  0.2755  0.2697 -0.0842
12490TIP3    H158961   4.113   6.774   3.531 -0.7116  1.0684 -1.9791
12490TIP3    H258962   3.995   6.728   3.613  2.1644 -0.4773  1.6132
12491TIP3   OH258963   5.585   2.635  15.511  0.0772  0.1734  0.2510
12491TIP3    H158964   5.507   2.685  15.489  0.7252  0.9329 -0.4133
12491TIP3    H258965   5.557   2.573  15.578 -1.8377 -1.7746 -2.1600
12492TIP3   OH258966   0.491   3.735  15.626 -0.1906  0.5405  0.0693
12492TIP3    H158967   0.498   3.727  15.721 -0.3766  0.9021  0.1162
12492TIP3    H258968   0.512   3.827  15.608  0.3362  0.3557 -0.2860
12493TIP3   OH258969   4.774   0.728  12.506  0.0151 -0.1227 -0.5185
12493TIP3    H158970   4.718   0.694  12.576  1.1421 -0.7406  0.1100
12493TIP3    H258971   4.746   0.819  12.495  0.7475  0.4573  1.7669
12494TIP3   OH258972   0.612   5.550   4.687  0.1685 -0.3701 -0.0689
12494TIP3    H158973   0.704   5.574   4.674  0.9460 -1.2550  2.8432
12494TIP3    H258974   0.585   5.601   4.763 -2.6037  1.6813 -2.2255
12495TIP3   OH258975   2.887   5.304   3.888 -0.2438 -0.2159  0.5823
12495TIP3    H158976   2.958   5.368   3.889 -0.3662 -0.0364 -0.5353
12495TIP3    H258977   2.865   5.291   3.980  0.3163  0.7505  0.8696
12496TIP3   OH258978   1.739   5.718   0.155 -0.1545 -0.0333  0.2882
12496TIP3    H158979   1.682   5.710   0.078 -1.1664  2.5150  0.6725
12496TIP3    H258980   1.680   5.745   0.226  0.6681 -2.7476  2.1814
12497TIP3   OH258981   4.130   4.680  10.994 -0.1398 -0.2985 -0.0490
12497TIP3    H158982   4.057   4.634  10.951 -0.1050  1.7685 -2.5900
12497TIP3    H258983   4.119   4.661  11.087 -3.8048 -0.2942 -0.3298
12498TIP3   OH258984   4.655   3.286   5.581  0.5711 -0.0503  0.1554
12498TIP3    H158985   4.567   3.318   5.562  0.5398  0.1132  0.5789
12498TIP3    H258986   4.642   3.197   5.613  0.5145  0.1573  0.7228
12499TIP3   OH258987   0.006   2.024  12.944 -0.3547 -0.0668  0.1609
12499TIP3    H158988   0.032   2.029  12.852  1.3117 -1.3902  0.4881
12499TIP3    H258989  -0.008   2.115  12.971  3.0694  0.7608 -0.4018
12500TIP3   OH258990   3.235   0.013  14.613  0.3291  0.0735 -0.0119
12500TIP3    H158991   3.304  -0.007  14.550 -0.4830 -0.3090 -0.8047
12500TIP3    H258992   3.227   0.108  14.611  1.2474  0.1824  0.5593
12501TIP3   OH258993   5.898   2.828   3.599 -0.0925  0.3944  0.1209
12501TIP3    H158994   5.906   2.924   3.594 -1.2776  0.6235  1.8316
12501TIP3    H258995   5.940   2.806   3.682  2.2192 -0.8841 -1.2939
12502TIP3   OH258996   5.330   4.018   0.296  0.4544  0.1905  0.0503
12502TIP3    H158997   5.379   3.981   0.370  0.0057 -0.2619  0.1283
12502TIP3    H258998   5.294   3.941   0.251 -0.8179  0.5423  0.4350
12503TIP3   OH258999   6.331   6.700  12.194  0.1600 -0.8240 -0.2296
12503TIP3    H159000   6.284   6.617  12.202 -0.0684 -0.5782  1.2679
12503TIP3    H259001   6.263   6.767  12.205  0.6713 -0.4648  0.8629
12504TIP3   OH259002   5.345   1.508  13.562  0.1487 -0.2769 -0.0273
12504TIP3    H159003   5.390   1.572  13.616  0.3180  0.3539 -0.8885
12504TIP3    H259004   5.386   1.424  13.585  0.4572  0.0284  0.5556
12505TIP3   OH259005   3.605   2.170   0.202  0.2181  0.1552 -0.6034
12505TIP3    H159006   3.613   2.247   0.146 -0.4881  0.5316 -0.2061
12505TIP3    H259007   3.587   2.098   0.142  0.9183  0.2908 -0.9812
12506TIP3   OH259008   5.542   2.131   0.798  0.0233  0.3037 -0.1108
12506TIP3    H159009   5.604   2.195   0.834  0.6216 -0.9571  1.1682
12506TIP3    H259010   5.571   2.119   0.707 -1.1640  3.0949 -0.9904
12507TIP3   OH259011   6.273   4.476  15.222 -0.2596 -0.1366 -0.2480
12507TIP3    H159012   6.180   4.451  15.220 -0.3777  0.3280 -1.2712
12507TIP3    H259013   6.316   4.404  15.267 -1.0751 -0.5127 -0.0488
12508TIP3   OH259014   2.998   3.275   2.827  0.0187  0.5014  0.5028
12508TIP3    H159015   2.915   3.320   2.841 -0.1107  0.2624  0.5115
12508TIP3    H259016   2.998   3.253   2.734  1.5256  3.3825 -0.2955
12509TIP3   OH259017   1.101   2.095   2.914  0.2712  0.0724  0.4003
12509TIP3    H159018   1.174   2.129   2.862  0.1268  2.3872  1.5788
12509TIP3    H259019   1.068   2.020   2.864  1.7721  0.5911 -1.4716
12510TIP3   OH259020   6.211   5.994  13.998 -0.5408 -0.4365 -0.3158
12510TIP3    H159021   6.251   6.031  13.919  1.3691 -0.9721  0.3389
12510TIP3    H259022   6.218   6.064  14.063 -1.0713 -0.3890 -0.3093
12511TIP3   OH259023   5.987   6.428  14.437 -0.3521  0.0953 -0.4699
12511TIP3    H159024   5.892   6.442  14.442 -0.4104 -0.7349  2.8199
12511TIP3    H259025   6.026   6.510  14.466 -0.1028 -0.0080 -0.5087
12512TIP3   OH259026   6.752   2.447  11.549 -0.3502 -0.0376 -0.1490
12512TIP3    H159027   6.828   2.506  11.549 -1.3413  1.3003 -0.1933
12512TIP3    H259028   6.788   2.361  11.528  0.9183  0.8931 -2.0544
12513TIP3   OH259029   4.998   5.289   4.858  0.2857  0.1106 -0.0634
12513TIP3    H159030   4.963   5.330   4.778 -0.0316  0.2854  0.1645
12513TIP3    H259031   4.986   5.356   4.926  1.2386  0.2458 -0.0192
12514TIP3   OH259032   5.548   1.375   5.970 -0.6231 -0.5815  0.1804
12514TIP3    H159033   5.471   1.381   6.027  1.1742 -1.8620  3.0034
12514TIP3    H259034   5.585   1.289   5.991  1.6750  0.0831 -0.9258
12515TIP3   OH259035   3.266   5.645   2.034 -0.0087 -0.0475  0.4579
12515TIP3    H159036   3.222   5.699   2.099 -0.1772 -0.0760  0.3675
12515TIP3    H259037   3.195   5.607   1.982  0.1260  0.0459  0.2012
12516TIP3   OH259038   1.936   0.541   4.783  0.8469 -0.0320  0.2263
12516TIP3    H159039   2.006   0.481   4.810  0.5429 -0.8446 -0.7341
12516TIP3    H259040   1.876   0.486   4.732  0.2551  0.9729 -0.1822
12517TIP3   OH259041   4.663   0.289   4.902  0.0454  0.0773 -0.2098
12517TIP3    H159042   4.644   0.225   4.970  1.7941 -0.7304 -0.4209
12517TIP3    H259043   4.720   0.353   4.943  2.2421 -1.1489 -1.1694
12518TIP3   OH259044   0.307   6.813  14.292 -0.6028  0.3741 -0.0640
12518TIP3    H159045   0.246   6.863  14.346  0.2248  1.1521  0.1876
12518TIP3    H259046   0.270   6.816  14.204 -0.9086  0.8652  0.0754
12519TIP3   OH259047   6.189   3.670   5.413 -0.2862 -0.1203 -0.0084
12519TIP3    H159048   6.215   3.658   5.322 -0.3762  0.5873 -0.1299
12519TIP3    H259049   6.094   3.682   5.410 -0.2902 -0.0994  0.1764
12520TIP3   OH259050   3.153   3.000   5.127  0.0787 -0.9994 -0.1580
12520TIP3    H159051   3.081   3.028   5.184 -0.3487  0.1082 -1.2038
12520TIP3    H259052   3.232   3.018   5.178 -0.3334 -1.0326  0.5051
12521TIP3   OH259053   6.497   4.176   1.517  0.2819 -0.7636 -0.3534
12521TIP3    H159054   6.466   4.262   1.489 -0.9585 -0.9962  0.2590
12521TIP3    H259055   6.493   4.179   1.613  0.6675 -1.3604 -0.3120
12522TIP3   OH259056   1.120   4.661  10.554  0.4412 -0.1528 -0.2194
12522TIP3    H159057   1.201   4.658  10.504 -0.8164  0.8384 -2.4616
12522TIP3    H259058   1.110   4.753  10.578 -0.0707 -0.2454 -0.0759
12523TIP3   OH259059   0.128   3.625  14.675 -0.1697 -0.6934 -0.1893
12523TIP3    H159060   0.221   3.641  14.657 -0.2874 -1.7577 -1.8825
12523TIP3    H259061   0.090   3.713  14.682 -0.0202  0.0262 -5.0119
12524TIP3   OH259062   5.569   6.609   0.890 -0.5067  1.1753 -0.1410
12524TIP3    H159063   5.585   6.698   0.859 -0.6600  0.5141 -2.2286
12524TIP3    H259064   5.654   6.580   0.923 -1.0254  3.0147  3.3361
12525TIP3   OH259065   1.820   6.530   4.130 -0.2755  0.1267  0.6614
12525TIP3    H159066   1.849   6.442   4.153  0.0634 -0.0215 -0.2942
12525TIP3    H259067   1.851   6.585   4.201  1.3088 -0.2147  0.2618
12526TIP3   OH259068   3.484   6.822  16.836 -0.0111  0.0304  0.1521
12526TIP3    H159069   3.427   6.889  16.797  0.4501  0.4052  0.1141
12526TIP3    H259070   3.469   6.744  16.783 -0.4242  0.1487  0.0899
12527TIP3   OH259071   3.727   2.222   5.167  0.0572  0.3847  0.5612
12527TIP3    H159072   3.667   2.225   5.093  1.2728 -1.7371 -0.6049
12527TIP3    H259073   3.695   2.150   5.221  1.1312 -0.3344  0.2693
12528TIP3   OH259074   4.615   2.306  16.813 -0.2958  0.0312 -0.3427
12528TIP3    H159075   4.616   2.246  16.887  1.4161 -1.0919 -1.2178
12528TIP3    H259076   4.527   2.344  16.815 -1.5475 -2.6330  0.1713
12529TIP3   OH259077   2.469   2.377  16.780 -0.1590 -0.0890  0.1202
12529TIP3    H159078   2.444   2.292  16.814 -1.5858  0.4179  0.3951
12529TIP3    H259079   2.463   2.368  16.685  0.1556 -0.4200  0.1291
12530TIP3   OH259080   4.990   4.739  14.954  0.0309 -0.2381  0.2360
12530TIP3    H159081   5.045   4.794  14.899 -1.2028  0.3819 -0.4279
12530TIP3    H259082   4.901   4.752  14.920 -0.6284 -0.6351  1.7294
12531TIP3   OH259083   2.588   3.474   5.839  0.4489 -0.4147  0.1237
12531TIP3    H159084   2.566   3.556   5.794  0.1313 -0.5565  0.0196
12531TIP3    H259085   2.670   3.445   5.798 -0.6905 -1.4140 -1.5453
12532TIP3   OH259086   0.166   4.553   0.415  0.3571 -0.1176  0.0526
12532TIP3    H159087   0.099   4.485   0.405 -1.9954  1.9286  0.9549
12532TIP3    H259088   0.234   4.529   0.352 -2.7953 -0.4880 -3.6054
12533TIP3   OH259089   1.714   6.557   3.252 -0.2236 -0.2166  0.2702
12533TIP3    H159090   1.720   6.536   3.345 -0.6071  0.2220  0.3994
12533TIP3    H259091   1.682   6.477   3.211 -2.1226  0.2077  0.8155
12534TIP3   OH259092   2.270   1.737   2.634 -0.2084 -0.4357  0.0788
12534TIP3    H159093   2.252   1.645   2.619  0.4098 -1.0918  2.8503
12534TIP3    H259094   2.214   1.762   2.708  0.1809  1.1997 -0.1207
12535TIP3   OH259095   5.320   5.521   3.337  0.6261 -0.1242  0.0189
12535TIP3    H159096   5.344   5.445   3.284 -0.6522  0.1539 -1.0156
12535TIP3    H259097   5.295   5.588   3.272  0.2474  0.6586  0.9512
12536TIP3   OH259098   2.589   6.684   5.675  0.5348 -0.3441  0.4688
12536TIP3    H159099   2.629   6.721   5.754 -0.0598 -0.4286  0.8217
12536TIP3    H259100   2.602   6.589   5.684  1.5248 -0.2816 -0.1375
12537TIP3   OH259101   2.780   1.681   2.972  0.3784 -0.2093  0.2039
12537TIP3    H159102   2.761   1.636   3.054 -2.2517  2.5939  1.3521
12537TIP3    H259103   2.813   1.767   2.998 -0.3638  0.6948 -1.6117
12538TIP3   OH259104   4.583   0.221   4.123 -0.7557  0.1373  0.0701
12538TIP3    H159105   4.529   0.217   4.044  0.6964  2.0382 -1.0929
12538TIP3    H259106   4.665   0.178   4.098 -0.3067  0.6980  0.5601
12539TIP3   OH259107   4.354   2.679  13.245  0.3200  0.2083  0.5627
12539TIP3    H159108   4.359   2.590  13.210 -2.4259  0.5517 -0.9317
12539TIP3    H259109   4.274   2.680  13.296 -1.8083  2.6736 -2.4469
12540TIP3   OH259110   2.456   2.079  11.234 -0.0342  0.5674 -0.0681
12540TIP3    H159111   2.517   2.146  11.263  0.2210 -0.4227  1.8179
12540TIP3    H259112   2.396   2.126  11.175  0.8467  2.1559  0.2355
12541TIP3   OH259113   1.440   4.001   2.386  0.8863 -0.2479  0.1417
12541TIP3    H159114   1.527   4.025   2.356  0.6982 -0.7641 -0.8439
12541TIP3    H259115   1.441   4.022   2.480  0.8819  3.1724 -0.4947
12542TIP3   OH259116   1.181   2.671  13.359 -0.3750  0.0566  0.4207
12542TIP3    H159117   1.265   2.646  13.397 -0.4673 -0.4860  0.2694
12542TIP3    H259118   1.116   2.648  13.425 -0.4395  0.1338  0.3852
12543TIP3   OH259119   5.318   5.224   4.649  0.6843 -0.6890  0.0834
12543TIP3    H159120   5.394   5.181   4.689  1.6119  0.1327 -0.7407
12543TIP3    H259121   5.266   5.254   4.724  1.0511 -1.4491  0.6617
12544TIP3   OH259122   6.710   1.704  16.397 -0.2351  0.4709  0.0623
12544TIP3    H159123   6.655   1.649  16.341 -0.7630  1.2802 -0.2194
12544TIP3    H259124   6.792   1.655  16.405 -0.4663 -0.0589 -0.7001
12545TIP3   OH259125   2.321   2.281  14.730 -0.2480 -0.1266 -0.1463
12545TIP3    H159126   2.254   2.214  14.721 -0.8716  0.2232  1.5110
12545TIP3    H259127   2.331   2.293  14.825 -0.2297  2.1542 -0.3713
12546TIP3   OH259128   5.363   4.133   1.121  0.7271  0.1802  0.0285
12546TIP3    H159129   5.301   4.180   1.064 -0.9281  0.3097  1.8208
12546TIP3    H259130   5.322   4.135   1.207  0.5673 -4.4901  0.2909
12547TIP3   OH259131   6.377   6.155  14.157 -0.0289  0.0950 -0.4769
12547TIP3    H159132   6.353   6.244  14.182 -1.9034 -0.8445  1.3640
12547TIP3    H259133   6.449   6.132  14.215 -1.1663 -0.3957  0.7830
12548TIP3   OH259134   1.669   0.912   3.047 -0.8562 -0.1273 -0.4270
12548TIP3    H159135   1.683   0.944   3.136 -1.5048 -0.3035 -0.2538
12548TIP3    H259136   1.707   0.824   3.048  1.2743  0.7302 -1.0139
12549TIP3   OH259137   3.345   1.562  13.259 -0.0866  0.3821 -0.5388
12549TIP3    H159138   3.394   1.526  13.332  1.7962 -0.1981 -1.9937
12549TIP3    H259139   3.262   1.516  13.260  1.2117 -2.1266 -0.7140
12550TIP3   OH259140   3.192   4.429  13.591 -0.0593 -0.4478 -0.2076
12550TIP3    H159141   3.149   4.508  13.624 -0.9624 -0.7146 -0.7066
12550TIP3    H259142   3.283   4.455  13.576 -0.8503  1.2322 -2.6778
12551TIP3   OH259143   0.463   0.057   1.683 -0.4069 -0.2369  0.2443
12551TIP3    H159144   0.438   0.132   1.736  0.8170  0.3792  0.0008
12551TIP3    H259145   0.518   0.004   1.741 -1.3040 -0.9798  0.4297
12552TIP3   OH259146   4.395   2.859  14.539  0.0598 -0.1376 -0.6301
12552TIP3    H159147   4.417   2.818  14.623  2.0156  0.0512 -0.9978
12552TIP3    H259148   4.462   2.926  14.527 -1.2435  1.0487 -1.5329
12553TIP3   OH259149   0.251   2.461  12.599 -0.3145  0.2981 -0.0289
12553TIP3    H159150   0.231   2.383  12.549  1.9404  0.0844 -0.7124
12553TIP3    H259151   0.193   2.528  12.563 -2.2902 -1.0017  0.5833
12554TIP3   OH259152   4.560   4.573   3.951 -0.0999  0.7373  0.0362
12554TIP3    H159153   4.578   4.608   3.863 -0.0515  0.9464  0.1291
12554TIP3    H259154   4.466   4.552   3.949 -0.4129  2.0120  0.3666
12555TIP3   OH259155   1.262   0.143   2.505 -0.0885 -0.0499 -0.0312
12555TIP3    H159156   1.192   0.196   2.468 -1.6983 -0.7170  1.8341
12555TIP3    H259157   1.252   0.057   2.463 -0.1138 -0.0218 -0.0821
12556TIP3   OH259158   2.828   2.750   2.622  0.4629  0.6326 -0.3727
12556TIP3    H159159   2.892   2.819   2.635 -0.1757  0.9676  1.2515
12556TIP3    H259160   2.860   2.701   2.546  1.9047  1.5838 -0.4139
12557TIP3   OH259161   0.089   5.434  10.958 -0.9613 -0.5237  0.2901
12557TIP3    H159162   0.049   5.372  10.897  0.2622  0.0241 -1.1251
12557TIP3    H259163   0.051   5.519  10.933  0.8154 -0.0344 -0.9006
12558TIP3   OH259164   3.063   3.493   4.909  0.1437  0.2159  0.5001
12558TIP3    H159165   3.029   3.404   4.898 -0.4504  0.4889  0.0773
12558TIP3    H259166   3.118   3.508   4.832 -1.9623  1.1931 -0.9134
12559TIP3   OH259167   3.800   6.460  10.784  0.4409 -0.5308  0.1149
12559TIP3    H159168   3.768   6.386  10.733 -2.8802 -0.3053  1.6495
12559TIP3    H259169   3.845   6.420  10.858  1.1700 -0.9234 -0.5255
12560TIP3   OH259170   5.301   3.412   2.295 -0.0056 -0.5900 -1.0130
12560TIP3    H159171   5.373   3.418   2.232  0.4696 -0.9575 -0.5210
12560TIP3    H259172   5.264   3.500   2.298  1.3582 -0.0168 -0.1953
12561TIP3   OH259173   6.421   6.600  12.583 -1.0324  0.5665 -0.2383
12561TIP3    H159174   6.416   6.511  12.548 -1.2363  0.0596  1.0315
12561TIP3    H259175   6.343   6.644  12.549 -0.7573  0.3716 -1.1418
12562TIP3   OH259176   3.766   2.422   1.788  0.0942  0.1986  0.3679
12562TIP3    H159177   3.767   2.380   1.702  0.2975 -1.2321  1.0420
12562TIP3    H259178   3.703   2.371   1.839  1.7838 -0.5644  1.7988
12563TIP3   OH259179   2.240   3.976  11.759  0.1352 -0.0535  0.5329
12563TIP3    H159180   2.312   4.013  11.810  0.2649  3.2129 -1.7010
12563TIP3    H259181   2.164   4.029  11.780 -0.7776 -1.1905  0.2319
12564TIP3   OH259182   5.299   6.452  13.671 -0.2610  0.5927  0.7861
12564TIP3    H159183   5.274   6.467  13.580 -0.4319  0.7047  0.8516
12564TIP3    H259184   5.395   6.449  13.669 -0.2729 -1.5325  0.2460
12565TIP3   OH259185   2.809   0.406   4.097  0.0371 -0.5868 -0.1901
12565TIP3    H159186   2.748   0.355   4.043 -0.6488  0.3669 -0.3490
12565TIP3    H259187   2.873   0.343   4.127 -0.0651 -1.3030 -1.4214
12566TIP3   OH259188   3.722   4.622   2.676  0.1271 -0.1523 -0.1613
12566TIP3    H159189   3.811   4.598   2.652  0.5589 -0.0617  1.2610
12566TIP3    H259190   3.667   4.572   2.616  1.0856 -1.9860  0.4370
12567TIP3   OH259191   5.600   5.253   0.225 -0.3845 -0.3193  0.3003
12567TIP3    H159192   5.621   5.194   0.297  1.3633 -0.1954 -0.0763
12567TIP3    H259193   5.674   5.313   0.221 -0.4915 -0.2672 -1.5369
12568TIP3   OH259194   4.213   0.231   3.794  0.0887 -0.5123 -0.5254
12568TIP3    H159195   4.242   0.313   3.835 -0.7487 -0.1934 -0.5511
12568TIP3    H259196   4.194   0.174   3.868  1.6339 -1.0480 -0.5108
12569TIP3   OH259197   2.196   4.218  14.847 -1.0063 -0.3452 -0.9831
12569TIP3    H159198   2.122   4.186  14.794 -1.2617  2.0070 -2.1677
12569TIP3    H259199   2.220   4.301  14.806  1.6016 -0.5032  0.0696
12570TIP3   OH259200   0.388   2.381   2.136 -0.6007  0.5651  0.1810
12570TIP3    H159201   0.343   2.302   2.168 -0.3932  0.5855  0.5357
12570TIP3    H259202   0.326   2.452   2.153  0.1026  0.8014  2.0118
12571TIP3   OH259203   1.533   0.870  13.512  0.4234 -0.1185 -0.4597
12571TIP3    H159204   1.596   0.820  13.461  2.6390 -0.4368  2.3276
12571TIP3    H259205   1.505   0.941  13.455  2.5931 -0.5180 -2.1248
12572TIP3   OH259206   2.856   6.607  15.251 -0.2077  0.0596  0.0546
12572TIP3    H159207   2.800   6.662  15.196  0.4311  0.0646 -0.6082
12572TIP3    H259208   2.795   6.562  15.311 -1.2152 -1.6650 -2.1163
12573TIP3   OH259209   3.543   1.300  14.591 -0.0144  0.1845 -0.2416
12573TIP3    H159210   3.607   1.230  14.578 -0.5489 -0.2343 -0.6365
12573TIP3    H259211   3.524   1.332  14.503 -0.6124  0.0674 -0.1585
12574TIP3   OH259212   2.417   2.742   3.073 -0.2508  0.2177 -0.4465
12574TIP3    H159213   2.486   2.720   3.136 -1.1465 -0.9065  0.1780
12574TIP3    H259214   2.411   2.666   3.016 -1.7918 -0.2403  0.2758
12575TIP3   OH259215   2.156   4.037   6.631 -0.1508  0.1602  0.4125
12575TIP3    H159216   2.251   4.038   6.644 -0.0517 -1.6865  0.2213
12575TIP3    H259217   2.130   4.129   6.630  1.4670  0.6703  1.6168
12576TIP3   OH259218   4.791   0.480   5.370  0.5395 -0.3160 -0.5800
12576TIP3    H159219   4.836   0.414   5.423  0.1444 -0.3864 -0.3193
12576TIP3    H259220   4.802   0.561   5.418 -0.3194 -0.4836 -0.0616
12577TIP3   OH259221   5.884   6.674  12.958 -0.6725  0.4955 -0.1758
12577TIP3    H159222   5.846   6.587  12.949 -2.3394  1.1992 -0.3973
12577TIP3    H259223   5.880   6.711  12.870  2.3202 -0.0388 -0.6289
12578TIP3   OH259224   3.498   1.399  12.535  0.1952 -0.5381 -0.1420
12578TIP3    H159225   3.482   1.320  12.483  1.1933 -0.7792 -0.0861
12578TIP3    H259226   3.461   1.470  12.482 -0.0481 -0.9530 -0.5327
12579TIP3   OH259227   1.993   1.289   2.117  0.0302 -0.5695  0.0462
12579TIP3    H159228   1.956   1.258   2.200  1.9026 -0.9585  0.7811
12579TIP3    H259229   2.012   1.381   2.131  2.1258 -1.0534  0.7906
12580TIP3   OH259230   2.841   0.503  14.350  0.4243  0.6028  0.1731
12580TIP3    H159231   2.783   0.548  14.412  1.2474  0.3292  1.1604
12580TIP3    H259232   2.928   0.512  14.387  0.6580 -1.5945  0.2842
12581TIP3   OH259233   0.818   4.918  15.079 -0.2811  0.1254  0.3778
12581TIP3    H159234   0.848   4.918  14.988 -0.7640  0.0729  0.2162
12581TIP3    H259235   0.730   4.953  15.075 -1.0777 -1.7412  0.5620
12582TIP3   OH259236   0.166   1.805   2.642  0.5282  0.5562 -0.1044
12582TIP3    H159237   0.073   1.800   2.619  1.0041 -1.1001 -1.9143
12582TIP3    H259238   0.211   1.817   2.559  2.0060  0.2644  0.6118
12583TIP3   OH259239   0.211   3.577  11.482  0.9342  0.1804  0.1990
12583TIP3    H159240   0.297   3.551  11.449  0.7744  0.3487 -0.3556
12583TIP3    H259241   0.171   3.626  11.411  1.1046  1.7336  1.1163
12584TIP3   OH259242   3.232   5.514  12.300  0.6141  0.1371  0.2208
12584TIP3    H159243   3.324   5.526  12.324  0.4592  2.1494  0.0033
12584TIP3    H259244   3.186   5.511  12.383  0.6985  1.0653  0.3117
12585TIP3   OH259245   1.418   6.657  14.355  0.3609 -0.3643 -0.1089
12585TIP3    H159246   1.420   6.733  14.413 -3.7666 -0.4530  0.4692
12585TIP3    H259247   1.371   6.591  14.405  0.5803 -2.0228 -1.9784
12586TIP3   OH259248   6.226   6.661  13.923 -0.5305 -0.1570 -0.0345
12586TIP3    H159249   6.162   6.690  13.858  0.1919 -0.5942 -0.9581
12586TIP3    H259250   6.310   6.669  13.879 -0.1697 -2.1219  0.2172
12587TIP3   OH259251   4.296   0.910  14.990 -0.0047  0.1008 -0.3139
12587TIP3    H159252   4.281   0.913  15.085  1.5518 -1.1887  0.0150
12587TIP3    H259253   4.298   1.001  14.963  0.6053  0.5246  1.0874
12588TIP3   OH259254   0.238   2.761   6.555 -0.0110 -1.1092  0.1250
12588TIP3    H159255   0.252   2.677   6.511  0.8258 -1.1675  0.4908
12588TIP3    H259256   0.326   2.798   6.566 -0.3088 -0.5372  0.6615
12589TIP3   OH259257   2.535   2.055  17.229  0.2492 -0.2516  0.0435
12589TIP3    H159258   2.494   2.002  17.297 -2.0734  0.4540 -0.7241
12589TIP3    H259259   2.541   1.997  17.154  0.7059 -0.3615  0.1618
12590TIP3   OH259260   6.395   1.320   1.483 -0.0061  0.0871 -0.5065
12590TIP3    H159261   6.478   1.341   1.440  0.1476 -0.2794 -0.3914
12590TIP3    H259262   6.343   1.399   1.474  0.2810  0.2491 -0.7625
12591TIP3   OH259263   4.455   4.705   4.636  0.1542 -0.1073  0.3708
12591TIP3    H159264   4.506   4.729   4.714 -0.2517  1.1477  0.2751
12591TIP3    H259265   4.419   4.788   4.605  0.1562 -0.6125 -1.0544
12592TIP3   OH259266   0.114   0.239  16.483 -0.0504 -0.3233  0.7371
12592TIP3    H159267   0.195   0.252  16.435 -0.3137 -0.2860  0.2928
12592TIP3    H259268   0.046   0.238  16.416 -0.3670 -0.8563  1.0534
12593TIP3   OH259269   4.233   6.037  14.909 -0.0657  0.3425 -0.6689
12593TIP3    H159270   4.314   6.004  14.870  1.6134  2.4980  0.7065
12593TIP3    H259271   4.206   5.969  14.970 -0.1184 -1.0176 -2.1476
12594TIP3   OH259272   2.014   0.237   6.769 -0.3146 -0.2162  0.1594
12594TIP3    H159273   1.930   0.273   6.800  0.5780  2.0445  0.1428
12594TIP3    H259274   2.041   0.296   6.699  0.8583 -1.4857 -0.5126
12595TIP3   OH259275   1.521   1.952  12.681 -0.7270 -0.6201  0.0158
12595TIP3    H159276   1.572   1.872  12.689  0.4938 -0.0186 -1.2229
12595TIP3    H259277   1.448   1.928  12.623 -0.3425 -0.8375 -0.3888
12596TIP3   OH259278   2.867   6.788  16.544  0.1817  0.1542 -0.6897
12596TIP3    H159279   2.793   6.772  16.602 -0.5267  0.5355 -1.4583
12596TIP3    H259280   2.901   6.701  16.525  0.9558  0.0705  0.9339
12597TIP3   OH259281   5.480   5.087   3.830  0.2016  0.4999 -0.4096
12597TIP3    H159282   5.429   5.012   3.801  0.3443  0.3364 -0.2442
12597TIP3    H259283   5.502   5.067   3.921  2.3103 -0.4122 -1.0601
12598TIP3   OH259284   4.120   1.208  14.526  0.3058 -0.4388 -0.0174
12598TIP3    H159285   4.173   1.138  14.564 -0.5897 -0.4260  1.2991
12598TIP3    H259286   4.174   1.286  14.535 -0.2743 -0.2372  2.2339
12599TIP3   OH259287   2.073   1.548   5.177 -0.0056 -0.0517  0.4910
12599TIP3    H159288   2.162   1.515   5.186 -0.0430 -0.1207  0.5982
12599TIP3    H259289   2.075   1.634   5.218  0.1424  0.1686  0.0339
12600TIP3   OH259290   5.558   3.111  13.698  0.4140 -0.4901  0.0567
12600TIP3    H159291   5.625   3.049  13.727  0.3973 -0.2113  0.6956
12600TIP3    H259292   5.508   3.132  13.777  0.2154  0.0941 -0.2187
12601TIP3   OH259293   6.076   1.016  13.322 -0.0701 -0.2354  0.4936
12601TIP3    H159294   6.008   1.047  13.262  0.6649 -0.1041 -0.2859
12601TIP3    H259295   6.155   1.011  13.268  0.6945  0.2694  1.5434
12602TIP3   OH259296   3.354   3.878   3.024 -0.5374  0.0449  0.2729
12602TIP3    H159297   3.367   3.799   2.973  0.0349 -0.6173  1.4140
12602TIP3    H259298   3.290   3.929   2.974 -0.5713 -0.9270 -0.6942
12603TIP3   OH259299   1.878   4.889  12.289  0.1504  0.3708 -0.3759
12603TIP3    H159300   1.935   4.813  12.303 -0.0673  0.2684 -0.0299
12603TIP3    H259301   1.898   4.918  12.200  1.7379  1.1693  0.2043
12604TIP3   OH259302   6.620   4.008   6.560  0.4791  0.1742 -0.2416
12604TIP3    H159303   6.617   3.913   6.558 -1.8586  0.1351  1.3452
12604TIP3    H259304   6.711   4.029   6.584  0.9800 -1.6423 -0.4490
12605TIP3   OH259305   1.833   1.427   5.117 -0.5456 -0.0991 -0.4060
12605TIP3    H159306   1.909   1.476   5.148 -0.1445 -0.8804 -0.1379
12605TIP3    H259307   1.838   1.434   5.021  0.2658 -0.7383 -0.4201
12606TIP3   OH259308   6.532   1.167   1.008 -0.4339  0.0306 -0.1391
12606TIP3    H159309   6.528   1.199   0.918  0.0757  0.7267  0.0751
12606TIP3    H259310   6.541   1.072   0.999 -2.0052 -0.0920 -0.7857
12607TIP3   OH259311   5.697   6.609   1.615 -0.0220 -0.1793  0.5938
12607TIP3    H159312   5.752   6.552   1.561  0.1701 -1.7931  2.3751
12607TIP3    H259313   5.760   6.658   1.669 -0.2429  0.3574  0.3641
12608TIP3   OH259314   3.187   4.059  15.356  0.4465  0.1145  0.1466
12608TIP3    H159315   3.180   4.094  15.445 -1.6218 -2.1413  0.9897
12608TIP3    H259316   3.277   4.027  15.350  0.9250  1.2189  1.0279
12609TIP3   OH259317   3.284   6.674   1.191 -0.2104  0.5596  0.0332
12609TIP3    H159318   3.202   6.653   1.147 -0.2205 -1.0381  0.7457
12609TIP3    H259319   3.260   6.742   1.254 -0.5097  1.6952 -1.2483
12610TIP3   OH259320   1.874   2.811  11.571 -0.6180  0.5687  0.2634
12610TIP3    H159321   1.782   2.790  11.590 -0.5371  1.2127  1.4548
12610TIP3    H259322   1.918   2.803  11.655  0.0604  2.1036  0.0760
12611TIP3   OH259323   1.018   2.001   5.708 -0.5932  0.1482  0.2193
12611TIP3    H159324   0.962   1.930   5.739 -1.0139  0.6953  0.7280
12611TIP3    H259325   0.997   2.075   5.764 -0.4514  0.7956 -0.5631
12612TIP3   OH259326   3.516   1.091   4.662  0.0632  0.7129 -0.1586
12612TIP3    H159327   3.566   1.172   4.652  0.9666  0.0400 -1.3512
12612TIP3    H259328   3.583   1.022   4.660 -0.7677 -0.1078  0.0387
12613TIP3   OH259329   4.852   1.456  13.176 -0.0567  0.3118  0.3742
12613TIP3    H159330   4.837   1.392  13.246 -1.0459  0.5549  0.4031
12613TIP3    H259331   4.801   1.532  13.203  1.8700  1.4999  0.8300
12614TIP3   OH259332   0.897   1.163  14.133  0.0056  0.4315  0.3472
12614TIP3    H159333   0.930   1.115  14.208 -0.3642 -1.9743 -0.9065
12614TIP3    H259334   0.827   1.218  14.168  0.0121 -0.4381  1.8021
12615TIP3   OH259335   3.909   5.888   5.341  0.2414  0.2395  0.4027
12615TIP3    H159336   3.827   5.845   5.314  0.9638 -0.7778 -0.2148
12615TIP3    H259337   3.978   5.832   5.308  1.2218 -0.1131  2.8362
12616TIP3   OH259338   6.536   3.732   4.726 -0.3309 -0.1713  0.7146
12616TIP3    H159339   6.511   3.650   4.685 -3.6537  1.0227  0.0350
12616TIP3    H259340   6.572   3.785   4.654  1.1067 -0.6826  1.0097
12617TIP3   OH259341   3.445   5.781  13.575 -0.4559 -0.4744 -0.4485
12617TIP3    H159342   3.460   5.699  13.528 -0.4201 -0.5190 -0.3599
12617TIP3    H259343   3.362   5.768  13.620 -1.5027  0.2905 -2.0575
12618TIP3   OH259344   3.703   2.889   0.302  0.2338 -0.1200 -0.0302
12618TIP3    H159345   3.612   2.916   0.305  0.2362 -0.1833  1.8489
12618TIP3    H259346   3.746   2.955   0.248 -0.3740  1.7472  1.6689
12619TIP3   OH259347   1.526   1.366   4.506 -0.2023  0.1766 -0.2701
12619TIP3    H159348   1.558   1.451   4.474  0.8070 -0.3049 -0.5839
12619TIP3    H259349   1.491   1.323   4.428  0.2010 -0.0949 -0.3020
12620TIP3   OH259350   1.947   6.428  13.960 -0.7145  0.5723  0.9356
12620TIP3    H159351   2.007   6.358  13.935  1.1472  2.2358  0.4219
12620TIP3    H259352   1.906   6.456  13.878  0.2996  1.5649  0.7398
12621TIP3   OH259353   3.062   0.653   1.129  0.0279  0.0719 -0.5962
12621TIP3    H159354   2.989   0.593   1.147  0.7727 -0.7924 -0.3966
12621TIP3    H259355   3.026   0.716   1.067 -0.6068 -0.9467 -1.2993
12622TIP3   OH259356   4.035   1.667  12.670  0.1901  0.0098 -0.0570
12622TIP3    H159357   4.084   1.675  12.588 -0.3342 -1.3246 -0.5272
12622TIP3    H259358   3.964   1.605  12.650 -1.2615  1.3085  0.8047
12623TIP3   OH259359   6.089   5.103  12.265  0.4331 -0.9760 -0.5298
12623TIP3    H159360   6.112   5.187  12.225 -1.0176  0.1668  0.9409
12623TIP3    H259361   6.168   5.075  12.310  0.4368  0.5287  0.4750
12624TIP3   OH259362   2.092   4.595  10.935 -0.0757 -0.1959  0.3564
12624TIP3    H159363   2.136   4.674  10.968 -0.8105  0.4682 -0.1929
12624TIP3    H259364   2.069   4.617  10.845 -0.6150 -0.9135  0.3123
12625TIP3   OH259365   5.776   3.900   6.707 -0.8046  0.1954  0.3440
12625TIP3    H159366   5.683   3.875   6.715 -1.1669  0.2238 -2.6180
12625TIP3    H259367   5.821   3.819   6.684  0.1650 -0.0429  2.8391
12626TIP3   OH259368   2.756   4.329  15.682  0.5247  0.5299 -0.4865
12626TIP3    H159369   2.843   4.296  15.703 -0.1044 -1.0296 -0.1619
12626TIP3    H259370   2.744   4.308  15.589  0.6761  1.1625 -0.6476
12627TIP3   OH259371   4.429   0.799  14.326 -1.0827  0.0281 -0.0354
12627TIP3    H159372   4.462   0.878  14.283  2.2769  0.1366  2.4275
12627TIP3    H259373   4.363   0.830  14.387 -1.1468  0.6701 -0.4281
12628TIP3   OH259374   6.629   5.162   3.417  0.6137 -0.5688  0.5004
12628TIP3    H159375   6.689   5.237   3.413  0.1398 -0.1647  0.8751
12628TIP3    H259376   6.686   5.087   3.431  1.1299 -0.3302 -0.2154
12629TIP3   OH259377   1.206   1.594  12.544  0.1190  0.4065  0.1862
12629TIP3    H159378   1.203   1.588  12.640 -1.1863  0.9352  0.1905
12629TIP3    H259379   1.128   1.548  12.514  0.3015  0.6012 -0.6114
12630TIP3   OH259380   3.319   3.252   4.235 -0.6313 -0.1643  0.6680
12630TIP3    H159381   3.391   3.309   4.205  0.0858 -1.9160 -1.1728
12630TIP3    H259382   3.240   3.298   4.208 -0.1061  0.5369  0.2706
12631TIP3   OH259383   3.459   5.872   1.383  0.2109 -0.3297 -0.2849
12631TIP3    H159384   3.404   5.814   1.436  3.3060 -2.2685  1.0957
12631TIP3    H259385   3.434   5.853   1.293 -2.3348 -0.0011  0.2822
12632TIP3   OH259386   2.765   1.778  12.734 -0.0930  0.6923 -0.3330
12632TIP3    H159387   2.706   1.704  12.724 -0.5393  1.0612 -0.5094
12632TIP3    H259388   2.746   1.813  12.821  1.0241 -0.1594  0.2852
12633TIP3   OH259389   5.762   4.950   5.110  0.2548  0.5412  0.8267
12633TIP3    H159390   5.716   4.903   5.180 -1.1225  1.0978  0.3317
12633TIP3    H259391   5.730   4.911   5.029 -0.4736  1.8964  0.4224
12634TIP3   OH259392   5.678   0.736   1.243  0.3588  0.4132  0.4443
12634TIP3    H159393   5.632   0.656   1.269  0.0870  0.3142 -0.2970
12634TIP3    H259394   5.697   0.781   1.325  0.5943 -0.4536  0.8812
12635TIP3   OH259395   2.592   0.144   2.698 -0.0408  0.3813  0.3801
12635TIP3    H159396   2.510   0.186   2.723 -0.3160  0.6402 -0.9083
12635TIP3    H259397   2.648   0.216   2.668 -0.4414 -0.0989 -1.6352
12636TIP3   OH259398   1.230   1.742   5.466 -0.1021 -0.2423  0.3336
12636TIP3    H159399   1.240   1.829   5.503 -2.2565 -0.8342  2.5499
12636TIP3    H259400   1.137   1.735   5.445  0.3778 -1.3462 -1.7148
12637TIP3   OH259401   6.000   0.574  13.341  0.5096  0.2350  0.5962
12637TIP3    H159402   5.962   0.610  13.262 -2.3228  0.6023  1.9983
12637TIP3    H259403   6.012   0.481  13.322  2.5202  0.7624 -1.1103
12638TIP3   OH259404   2.664   3.861  13.443  0.1690  0.0866  0.1174
12638TIP3    H159405   2.750   3.823  13.429  0.1981  0.0030  0.5003
12638TIP3    H259406   2.666   3.944  13.396  0.0835 -0.4101 -0.7767
12639TIP3   OH259407   0.188   1.711  16.130 -0.4736  0.0840  0.1598
12639TIP3    H159408   0.231   1.737  16.211  1.4941  0.2420 -0.8882
12639TIP3    H259409   0.102   1.753  16.134  1.1959  3.9182  0.1970
12640TIP3   OH259410   6.730   4.924   4.573 -0.0093  0.1864  0.5129
12640TIP3    H159411   6.685   4.904   4.655 -0.0643 -1.8922  0.0080
12640TIP3    H259412   6.674   4.886   4.505  1.8257 -1.3462 -0.2113
12641TIP3   OH259413   6.566   3.301   5.869 -0.0925 -0.0144 -0.0158
12641TIP3    H159414   6.479   3.265   5.851  0.3018 -1.0009  0.0150
12641TIP3    H259415   6.585   3.275   5.959  0.5359 -0.4290 -0.2628
12642TIP3   OH259416   6.741   6.091   2.380  0.7643 -0.1484  0.5453
12642TIP3    H159417   6.819   6.100   2.326  1.4955 -0.1822  1.5875
12642TIP3    H259418   6.699   6.178   2.376  2.7950  1.0572  2.9073
12643TIP3   OH259419   3.725   6.271  16.788  0.1231 -0.2207  0.4565
12643TIP3    H159420   3.715   6.361  16.755  0.2431 -0.5876 -0.6288
12643TIP3    H259421   3.641   6.229  16.769  0.1151 -0.3831  0.8387
12644TIP3   OH259422   4.658   3.772  14.296  0.0813 -0.0414  0.2573
12644TIP3    H159423   4.646   3.801  14.206 -0.5354  2.5407  1.0935
12644TIP3    H259424   4.698   3.846  14.340  0.3082 -1.2184  2.1557
12645TIP3   OH259425   3.042   1.889   4.985 -0.1865  0.2363  0.0445
12645TIP3    H159426   3.030   1.801   5.022  1.8763 -0.1943 -0.1683
12645TIP3    H259427   3.009   1.948   5.052  0.7873 -0.6320  1.3519
12646TIP3   OH259428   4.494   3.332  14.206  0.0166 -0.1489 -0.4786
12646TIP3    H159429   4.550   3.407  14.226  0.2673 -0.1650 -1.0910
12646TIP3    H259430   4.526   3.300  14.122 -1.7526  0.6370 -1.5042
12647TIP3   OH259431   1.188   4.053   3.399  0.1585 -0.6904  0.3028
12647TIP3    H159432   1.278   4.071   3.372  0.5858 -1.1395  1.3975
12647TIP3    H259433   1.195   3.978   3.458 -0.8938 -0.5040  0.6823
12648TIP3   OH259434   1.318   1.201   1.242  0.4873  0.3348 -0.5967
12648TIP3    H159435   1.383   1.131   1.248  0.0427 -0.0335  0.0684
12648TIP3    H259436   1.235   1.155   1.229  0.1899  0.7328 -0.1380
12649TIP3   OH259437   6.014   1.887   5.027 -0.6244  0.4981  0.4389
12649TIP3    H159438   5.941   1.883   4.965  1.6250 -2.8946 -2.4006
12649TIP3    H259439   5.983   1.838   5.104 -1.6449 -0.1319 -0.3474
12650TIP3   OH259440   0.173   5.171  14.147 -0.8218  0.0107  0.0267
12650TIP3    H159441   0.110   5.229  14.104 -1.6762 -1.8888 -1.4469
12650TIP3    H259442   0.153   5.083  14.113  0.2864 -1.2133  2.2735
12651TIP3   OH259443   3.958   5.567  13.614  0.5128 -0.0019  0.4477
12651TIP3    H159444   3.947   5.646  13.561 -0.8740 -0.0883  0.5853
12651TIP3    H259445   3.970   5.599  13.703 -2.1598  0.0611  0.8592
12652TIP3   OH259446   5.747   0.690  13.723 -0.8972  0.3709 -0.3760
12652TIP3    H159447   5.754   0.770  13.671 -0.9223  0.2818 -0.5178
12652TIP3    H259448   5.726   0.720  13.811 -2.1259  0.4710 -0.6805
12653TIP3   OH259449   2.222   1.364  13.984  0.2126 -0.1969 -0.1457
12653TIP3    H159450   2.207   1.275  13.951 -1.2180 -0.0261  0.0080
12653TIP3    H259451   2.139   1.409  13.970  0.3792  0.6312  1.3314
12654TIP3   OH259452   6.780   4.521   3.314 -0.4828  0.2078 -0.3389
12654TIP3    H159453   6.741   4.435   3.300 -0.1892  0.3460 -2.2563
12654TIP3    H259454   6.797   4.525   3.408 -1.8268 -1.2385 -0.0005
12655TIP3   OH259455   6.322   5.572   0.649  0.3074  0.5467 -0.8008
12655TIP3    H159456   6.230   5.579   0.674  0.0541  0.0577 -1.5725
12655TIP3    H259457   6.345   5.658   0.614  1.2202  1.9409  2.7829
12656TIP3   OH259458   1.404   2.074   4.704 -0.0963  0.4411 -0.6330
12656TIP3    H159459   1.478   2.135   4.715  1.6616 -1.0333 -3.2072
12656TIP3    H259460   1.431   1.995   4.749 -0.0800 -0.0951 -1.5552
12657TIP3   OH259461   6.252   1.496  16.407 -0.0744 -0.9219  0.2197
12657TIP3    H159462   6.282   1.409  16.380 -1.0841 -0.9732 -0.8046
12657TIP3    H259463   6.330   1.538  16.444  0.9607 -1.4594 -1.2690
12658TIP3   OH259464   5.362   1.974   6.113 -0.5999 -0.3979  0.5165
12658TIP3    H159465   5.450   1.973   6.150  0.7563 -0.7623 -2.3767
12658TIP3    H259466   5.344   1.883   6.090 -0.2830  0.0686 -1.8240
12659TIP3   OH259467   4.247   0.089   5.266 -0.1356 -0.2865  0.0110
12659TIP3    H159468   4.163   0.059   5.299  0.8439 -2.3627  0.8047
12659TIP3    H259469   4.282   0.013   5.218  0.9775  0.7713 -0.9154
12660TIP3   OH259470   4.025   1.044   1.842 -0.8530 -0.0251 -0.4598
12660TIP3    H159471   4.056   1.116   1.788  0.4388  0.4860  0.8979
12660TIP3    H259472   4.038   0.966   1.788  0.7546  0.4293 -0.7743
12661TIP3   OH259473   4.465   2.133   1.451  0.5798  0.3140 -0.0952
12661TIP3    H159474   4.386   2.144   1.504 -0.0719 -1.0269 -0.7411
12661TIP3    H259475   4.530   2.097   1.511  1.2089  2.8237  0.8101
12662TIP3   OH259476   6.143   0.966  11.102  0.6397  0.2081 -0.0170
12662TIP3    H159477   6.129   0.957  11.196  1.1795  0.5486  0.0961
12662TIP3    H259478   6.061   1.002  11.069  0.6899  0.7316  0.4208
12663TIP3   OH259479   6.038   2.298   4.652  0.0752  0.1942 -0.4574
12663TIP3    H159480   5.987   2.322   4.729  0.3016 -0.8731  0.0505
12663TIP3    H259481   6.049   2.380   4.603 -2.3698  0.4239 -0.7632
12664TIP3   OH259482   1.582   0.985   2.494 -0.1592  0.6531 -0.0343
12664TIP3    H159483   1.520   0.940   2.552  0.5614 -0.5502 -0.1872
12664TIP3    H259484   1.631   1.043   2.553 -1.2874  1.5069  0.1139
12665TIP3   OH259485   2.217   0.685   0.314  0.8541  0.1554  0.4671
12665TIP3    H159486   2.153   0.615   0.299  2.0891 -1.0629  0.6161
12665TIP3    H259487   2.190   0.755   0.255 -0.3892 -0.4697  0.2538
12666TIP3   OH259488   5.756   0.855  14.287 -0.9217  0.0254 -0.7346
12666TIP3    H159489   5.750   0.911  14.364 -1.8933 -3.4066  1.9426
12666TIP3    H259490   5.667   0.855  14.251 -1.1755 -0.6005 -0.1105
12667TIP3   OH259491   2.325   0.916   3.627 -0.0328  0.2224  0.0995
12667TIP3    H159492   2.380   0.933   3.703  0.7259  2.8258 -0.9024
12667TIP3    H259493   2.289   1.002   3.604 -1.1764 -0.6833 -1.7991
12668TIP3   OH259494   0.798   6.808  16.636  0.2958  0.3537 -0.5497
12668TIP3    H159495   0.813   6.830  16.728 -0.6868  0.1985 -0.3388
12668TIP3    H259496   0.709   6.837  16.619 -0.3880 -1.7006 -0.7898
12669TIP3   OH259497   1.459   1.273  15.790  0.1516  0.3805 -0.2511
12669TIP3    H159498   1.392   1.337  15.816  0.7619  0.4248  1.3105
12669TIP3    H259499   1.413   1.213  15.731 -0.3932  2.3417 -1.9472
12670TIP3   OH259500   3.327   4.289   2.948  0.2163 -0.4303  0.1566
12670TIP3    H159501   3.397   4.289   2.883  0.8798 -1.1425  0.8413
12670TIP3    H259502   3.328   4.377   2.985  1.8085 -0.8465  1.2229
12671TIP3   OH259503   3.594   2.635  14.147  0.0048 -0.3896 -0.6108
12671TIP3    H159504   3.643   2.557  14.123 -0.8169 -1.3614  0.7493
12671TIP3    H259505   3.659   2.705  14.147  0.9049 -1.2009 -1.0999
12672TIP3   OH259506   5.017   2.453  13.223 -0.0298  0.5475 -0.1231
12672TIP3    H159507   4.941   2.410  13.183  0.6194 -0.0961 -0.6908
12672TIP3    H259508   5.072   2.382  13.255  0.4467  0.9965  0.0735
12673TIP3   OH259509   5.505   3.596   0.317  0.1923  0.4983  0.7557
12673TIP3    H159510   5.417   3.589   0.354  1.0155  2.0307  3.2672
12673TIP3    H259511   5.516   3.690   0.300  1.4242  0.3666  0.7370
12674TIP3   OH259512   2.726   4.776  15.532  0.0500 -0.1484 -0.0382
12674TIP3    H159513   2.657   4.710  15.545 -0.2883  0.1738 -0.1869
12674TIP3    H259514   2.807   4.727  15.540 -0.1678 -0.3446  1.2560
12675TIP3   OH259515   4.823   0.721   0.096 -0.1688 -0.1101  0.3806
12675TIP3    H159516   4.878   0.704   0.173 -0.2647  0.3313  0.5444
12675TIP3    H259517   4.848   0.652   0.034 -0.5351 -0.8530  1.0390
12676TIP3   OH259518   3.200   4.498  11.472  0.1710  0.4236 -0.4415
12676TIP3    H159519   3.185   4.471  11.381 -0.4933  1.2985 -0.6130
12676TIP3    H259520   3.248   4.580  11.464 -2.1485  1.9133 -0.1246
12677TIP3   OH259521   3.719   2.098  15.163 -0.2577 -0.3084 -0.2075
12677TIP3    H159522   3.636   2.076  15.121  0.1782 -0.6753 -0.9025
12677TIP3    H259523   3.774   2.131  15.092 -0.8802  3.2593  0.7490
12678TIP3   OH259524   3.304   3.118   1.849 -0.0074 -0.1959  1.0531
12678TIP3    H159525   3.369   3.180   1.883  0.3142  1.1048 -1.6356
12678TIP3    H259526   3.332   3.102   1.758 -0.9732 -3.1266  1.1746
12679TIP3   OH259527   0.842   2.614   1.796  0.2295  0.4783  0.1360
12679TIP3    H159528   0.925   2.617   1.842  0.1751 -0.8387  0.3496
12679TIP3    H259529   0.778   2.586   1.862 -0.1088  0.0354 -0.3656
12680TIP3   OH259530   1.570   0.228  16.599 -0.1743  0.4947 -0.6716
12680TIP3    H159531   1.547   0.321  16.607 -1.4225  0.2308 -1.0357
12680TIP3    H259532   1.622   0.223  16.519  0.3044  0.9506 -0.3964
12681TIP3   OH259533   5.297   3.872  15.189  0.0601  0.2799 -0.0615
12681TIP3    H159534   5.346   3.839  15.264 -0.1721  0.6419  0.2495
12681TIP3    H259535   5.358   3.862  15.115  1.1446  1.9668  0.5345
12682TIP3   OH259536   1.918   0.585   3.392 -0.0399  0.2867  0.1977
12682TIP3    H159537   1.934   0.675   3.365 -1.5151  0.6595  0.4626
12682TIP3    H259538   1.828   0.567   3.364  0.5463 -1.4610 -0.7680
12683TIP3   OH259539   3.790   0.255  10.522  0.0101  0.7253 -0.7305
12683TIP3    H159540   3.879   0.285  10.504  0.9492 -1.1219  0.5580
12683TIP3    H259541   3.736   0.302  10.458  2.1048  0.5780 -2.7531
12684TIP3   OH259542   0.006   3.326  17.136  0.0453 -0.3894  0.2409
12684TIP3    H159543  -0.006   3.394  17.070  0.6637 -1.1878 -0.7117
12684TIP3    H259544   0.017   3.375  17.218 -1.5068  0.5863 -0.0815
12685TIP3   OH259545   5.128   1.606  14.316  0.5842 -0.2951  0.4808
12685TIP3    H159546   5.069   1.549  14.366 -0.7512 -0.1091 -0.8220
12685TIP3    H259547   5.078   1.630  14.238  2.1659  0.3991 -0.3631
12686TIP3   OH259548   3.600   0.634  13.786 -0.2148  0.1490  0.2203
12686TIP3    H159549   3.558   0.719  13.801  0.5759  0.5598  0.1400
12686TIP3    H259550   3.676   0.634  13.843 -0.5161 -0.7493  0.6398
12687TIP3   OH259551   2.134   1.197  16.928 -0.3641 -0.1687  0.0426
12687TIP3    H159552   2.159   1.204  16.836  0.0473  2.2418  0.2700
12687TIP3    H259553   2.145   1.286  16.963  0.3166 -1.1729  2.6403
12688TIP3   OH259554   6.523   1.837   4.443 -0.1951 -0.3555  0.0949
12688TIP3    H159555   6.528   1.751   4.484  0.4054 -1.0351 -1.3513
12688TIP3    H259556   6.452   1.829   4.379  1.4467 -0.5784 -1.7742
12689TIP3   OH259557   0.369   1.555   0.327  0.2833 -0.0229 -0.1319
12689TIP3    H159558   0.452   1.510   0.339  0.6437  0.4698 -0.7432
12689TIP3    H259559   0.326   1.509   0.255 -0.0415 -0.3597  0.2679
12690TIP3   OH259560   0.375   4.919   5.143 -0.1411 -0.1024  0.0868
12690TIP3    H159561   0.376   5.011   5.169 -0.2088  0.4076 -1.6425
12690TIP3    H259562   0.447   4.879   5.193  0.8026  1.1828 -0.2130
12691TIP3   OH259563   2.588   3.080  10.892 -0.6750  0.6564  0.2808
12691TIP3    H159564   2.629   3.141  10.953 -0.9575  0.7870  0.3421
12691TIP3    H259565   2.654   3.013  10.876  0.5773  2.2347 -1.6774
12692TIP3   OH259566   5.971   4.485  12.903  0.2226 -0.3234 -0.2455
12692TIP3    H159567   6.054   4.477  12.856  0.4910  1.8035 -0.2477
12692TIP3    H259568   5.919   4.546  12.850 -1.4890 -1.7977 -0.3803
12693TIP3   OH259569   2.662   0.742   3.326  0.2037  0.2691 -0.4627
12693TIP3    H159570   2.714   0.768   3.402 -1.3663  1.8823  0.1077
12693TIP3    H259571   2.662   0.647   3.328  0.9753  0.2792  1.0063
12694TIP3   OH259572   0.283   0.259  12.390  0.0189 -0.0192  0.2290
12694TIP3    H159573   0.293   0.306  12.473  2.1518 -0.5513  0.3441
12694TIP3    H259574   0.196   0.281  12.359 -0.5999  0.6511  2.3348
12695TIP3   OH259575   6.225   0.003   4.974 -0.1111 -0.2103  0.4588
12695TIP3    H159576   6.317   0.016   4.998  0.0079 -1.3813  0.7310
12695TIP3    H259577   6.207   0.069   4.906  0.6453  0.6543  1.0858
12696TIP3   OH259578   4.166   3.547  17.059 -0.3238 -0.1852  0.1241
12696TIP3    H159579   4.204   3.531  17.146  2.8851 -0.1625 -1.1245
12696TIP3    H259580   4.238   3.530  16.998 -2.4085 -0.0512 -2.5621
12697TIP3   OH259581   0.647   4.412   0.419  0.2714  0.1357 -0.2125
12697TIP3    H159582   0.719   4.425   0.357  2.6091 -2.4248  1.7010
12697TIP3    H259583   0.602   4.334   0.387  2.0538 -1.7534  1.6027
12698TIP3   OH259584   4.780   1.282  15.124  0.1312 -0.1938  0.1190
12698TIP3    H159585   4.858   1.235  15.096 -0.0374  0.4201 -1.5221
12698TIP3    H259586   4.760   1.247  15.211  3.1088  0.7486  1.3294
12699TIP3   OH259587   2.449   5.333   3.460 -0.0701 -0.0361 -0.2398
12699TIP3    H159588   2.357   5.318   3.440 -0.5323 -0.4833  1.9975
12699TIP3    H259589   2.482   5.247   3.486  1.1215  0.0303 -1.4246
12700TIP3   OH259590   0.332   4.490  12.942 -0.0627  0.1387  0.4735
12700TIP3    H159591   0.325   4.552  12.869  0.0072 -0.2628  0.1179
12700TIP3    H259592   0.395   4.424  12.911  1.1314  0.7699  1.4806
12701TIP3   OH259593   6.192   5.481  12.662 -0.6176  0.1817  0.4929
12701TIP3    H159594   6.265   5.527  12.618 -1.7000  0.8699 -0.6549
12701TIP3    H259595   6.136   5.452  12.590 -0.1805 -2.6945  1.1986
12702TIP3   OH259596   4.775   2.955   3.066 -0.3380  0.4734  0.1847
12702TIP3    H159597   4.786   3.033   3.012 -0.1812  0.1303 -0.2881
12702TIP3    H259598   4.823   2.887   3.019 -0.8864 -0.0233  0.3361
12703TIP3   OH259599   2.563   0.266   3.570 -0.7643 -0.1219 -0.0881
12703TIP3    H159600   2.648   0.233   3.540  0.3809  1.2677  1.4249
12703TIP3    H259601   2.511   0.187   3.586  0.3095 -1.0123 -0.8583
12704TIP3   OH259602   4.642   0.519   2.588 -0.2052 -0.4219 -0.1358
12704TIP3    H159603   4.578   0.566   2.535 -0.2134  0.1002  0.3373
12704TIP3    H259604   4.592   0.446   2.626 -0.5070 -0.0456  0.1919
12705TIP3   OH259605   6.653   3.742  12.810  0.3331  0.5205  0.2029
12705TIP3    H159606   6.660   3.713  12.719 -0.0345  0.8704  0.0618
12705TIP3    H259607   6.744   3.752  12.839  0.4508  0.5716 -0.1797
12706TIP3   OH259608   0.852   3.372   5.824 -0.4053  0.2547 -0.4317
12706TIP3    H159609   0.820   3.429   5.753 -2.2525 -0.1595  0.0098
12706TIP3    H259610   0.874   3.290   5.780 -0.5396  0.3465 -0.6781
12707TIP3   OH259611   0.467   4.474   1.401 -0.0306  0.1844 -0.1213
12707TIP3    H159612   0.420   4.393   1.422  1.0982 -0.4238  0.1395
12707TIP3    H259613   0.400   4.543   1.408 -0.4181 -0.3531  2.5005
12708TIP3   OH259614   0.265   2.675  13.342 -0.6609  0.4882  0.1208
12708TIP3    H159615   0.175   2.691  13.370 -1.4076  0.8078 -2.2067
12708TIP3    H259616   0.289   2.592  13.383 -2.1036  0.2763  0.5767
12709TIP3   OH259617   1.579   5.449   0.223  0.3882 -0.1494 -0.5988
12709TIP3    H159618   1.496   5.401   0.219  1.8294 -3.2147  1.8384
12709TIP3    H259619   1.569   5.507   0.298  0.1439  0.1684 -0.8748
12710TIP3   OH259620   3.318   3.809   0.652 -0.0789  0.0331 -0.8631
12710TIP3    H159621   3.307   3.899   0.624  0.5209 -0.4484 -2.7747
12710TIP3    H259622   3.373   3.769   0.585  0.4521 -1.5262  0.4257
12711TIP3   OH259623   1.266   1.880   2.167  0.5994  0.0776  0.2654
12711TIP3    H159624   1.243   1.818   2.098 -1.6709 -1.7416  2.4510
12711TIP3    H259625   1.184   1.893   2.216  2.1257  0.9589  2.7932
12712TIP3   OH259626   4.794   3.115   0.654  0.7975 -0.4084  0.1142
12712TIP3    H159627   4.856   3.109   0.727  1.2188  0.4412 -0.1599
12712TIP3    H259628   4.782   3.024   0.626 -1.5911 -1.1467  3.0179
12713TIP3   OH259629   6.345   5.846  14.309 -0.2998 -0.0631  0.4450
12713TIP3    H159630   6.363   5.935  14.340  0.6558 -0.8993  2.5482
12713TIP3    H259631   6.377   5.845  14.219 -1.7975  2.1287 -0.1816
12714TIP3   OH259632   4.357   6.431  15.725 -0.0354 -0.3104  0.3749
12714TIP3    H159633   4.385   6.510  15.771 -0.0521 -0.6149  0.9085
12714TIP3    H259634   4.396   6.440  15.638  1.1032 -0.3640  0.8647
12715TIP3   OH259635   1.504   6.740   4.414 -0.4378  0.1931  0.2200
12715TIP3    H159636   1.558   6.662   4.408 -0.2720  0.3967 -1.3806
12715TIP3    H259637   1.422   6.717   4.369 -0.6528  0.7277  0.3218
12716TIP3   OH259638   4.292   4.423  17.190 -0.0513 -0.1004 -0.1508
12716TIP3    H159639   4.236   4.437  17.113 -0.2403 -0.3123 -0.0514
12716TIP3    H259640   4.269   4.336  17.221  1.5722 -0.9250 -1.1552
12717TIP3   OH259641   1.603   6.556   2.477  0.6593  0.2330  0.7233
12717TIP3    H159642   1.540   6.566   2.406  1.3655  5.1233  0.3920
12717TIP3    H259643   1.552   6.572   2.556  0.8577  0.7436  0.7520
12718TIP3   OH259644   6.194   2.358  11.208 -0.2368 -0.1778 -0.0058
12718TIP3    H159645   6.282   2.382  11.180  0.2380 -1.4865  0.2880
12718TIP3    H259646   6.154   2.318  11.131 -0.9759  1.3568 -0.4558
12719TIP3   OH259647   0.814   2.850   2.011 -0.6739 -0.1278  0.1120
12719TIP3    H159648   0.816   2.902   1.930 -1.0238 -1.6843 -0.9424
12719TIP3    H259649   0.887   2.790   2.003 -1.2536 -0.9090  0.5235
12720TIP3   OH259650   4.181   4.997   5.524  0.0760  0.0830  0.7185
12720TIP3    H159651   4.223   4.967   5.443  1.1271 -2.8766  2.1976
12720TIP3    H259652   4.252   5.037   5.574 -0.1416  0.2063  0.9280
12721TIP3   OH259653   3.483   5.312  15.285  1.4126 -0.2129 -0.3274
12721TIP3    H159654   3.554   5.261  15.246  1.5159  0.0043 -0.4273
12721TIP3    H259655   3.436   5.250  15.340 -0.8437 -1.4466 -3.3863
12722TIP3   OH259656   2.611   3.361   1.707  0.1771  0.5709  0.1645
12722TIP3    H159657   2.620   3.340   1.800  0.5622  0.8315  0.1871
12722TIP3    H259658   2.690   3.326   1.667  0.5999  1.5427  0.1297
12723TIP3   OH259659   6.607   6.061  15.568 -0.5761  0.1118  0.0580
12723TIP3    H159660   6.684   6.053  15.625 -0.9298  1.3252  0.7440
12723TIP3    H259661   6.631   6.014  15.488  0.2422 -0.9456  0.8895
12724TIP3   OH259662   2.799   3.903   5.663 -0.0452  0.6123  0.1469
12724TIP3    H159663   2.777   3.812   5.645 -0.8086  0.8188  0.0204
12724TIP3    H259664   2.799   3.910   5.758  0.5574  0.3552  0.1726
12725TIP3   OH259665   1.791   3.922   1.335  0.2010  0.1259 -0.4089
12725TIP3    H159666   1.864   3.869   1.303  0.7492  0.5981  0.0432
12725TIP3    H259667   1.783   3.993   1.271  0.1053  0.0554 -0.4772
12726TIP3   OH259668   1.770   1.013   4.398  0.0530  0.0024  0.4892
12726TIP3    H159669   1.817   0.951   4.342 -0.6136  0.2342 -0.3566
12726TIP3    H259670   1.684   0.974   4.409 -0.1046  0.3849  0.6267
12727TIP3   OH259671   1.794   1.931   2.109  0.1052  0.1671  0.4918
12727TIP3    H159672   1.785   1.837   2.123 -5.0245  0.5865  2.2108
12727TIP3    H259673   1.851   1.961   2.179  1.7436 -1.5427 -0.0255
12728TIP3   OH259674   6.557   6.000  11.857 -0.4652 -0.2989 -0.2356
12728TIP3    H159675   6.592   5.975  11.772  0.6209  3.3294 -1.0203
12728TIP3    H259676   6.634   6.018  11.910 -1.0938  1.7423  0.0451
12729TIP3   OH259677   2.161   5.497  14.728 -0.9143 -0.2589 -0.7850
12729TIP3    H159678   2.169   5.585  14.692 -0.3866  0.1833  0.3747
12729TIP3    H259679   2.067   5.479  14.726 -0.9794  0.1216 -1.4911
12730TIP3   OH259680   4.111   6.088  15.649  0.3930 -0.0597 -0.1330
12730TIP3    H159681   4.123   6.038  15.568  1.0579  0.4575 -0.3642
12730TIP3    H259682   4.016   6.098  15.658  0.3151 -0.1018 -0.8655
12731TIP3   OH259683   6.246   5.819  16.839  0.4074 -0.0901  0.4671
12731TIP3    H159684   6.199   5.854  16.915  1.4362 -0.9300  1.5193
12731TIP3    H259685   6.201   5.737  16.819  0.1349  0.1319  0.1516
12732TIP3   OH259686   3.711   0.552   1.790  0.5560 -0.7128 -0.0701
12732TIP3    H159687   3.687   0.539   1.882  1.9363 -0.8568  0.2880
12732TIP3    H259688   3.634   0.521   1.741 -1.3572  1.8804  1.0276
12733TIP3   OH259689   2.357   2.977  12.558 -0.3570  0.2686  0.3607
12733TIP3    H159690   2.361   2.953  12.650 -0.5442 -0.6843  0.1283
12733TIP3    H259691   2.434   3.033  12.544  0.8500 -1.2662  0.6220
12734TIP3   OH259692   4.801   4.045   0.197 -0.0608  0.0746  0.3069
12734TIP3    H159693   4.817   3.993   0.276  1.1735  0.6202  0.4465
12734TIP3    H259694   4.717   4.014   0.164  1.1083 -2.7782 -0.2358
12735TIP3   OH259695   4.002   1.313  10.757  0.4431  0.0653 -0.2310
12735TIP3    H159696   3.974   1.393  10.713  1.6370  0.7128  0.1338
12735TIP3    H259697   4.088   1.335  10.794 -0.2460 -0.6338  1.9265
12736TIP3   OH259698   5.494   5.265  12.756 -0.4034  0.7952 -0.6728
12736TIP3    H159699   5.500   5.250  12.661 -2.7655 -0.3651 -0.7108
12736TIP3    H259700   5.571   5.221  12.792  0.9344  1.8786 -2.0657
12737TIP3   OH259701   0.340   3.434  13.260  0.0314 -0.0192  0.5364
12737TIP3    H159702   0.286   3.472  13.329 -0.0470  1.7136 -0.4396
12737TIP3    H259703   0.279   3.410  13.191  0.1423 -1.4891  0.9047
12738TIP3   OH259704   3.371   3.098   0.726  1.0575  0.2322  0.2170
12738TIP3    H159705   3.411   3.018   0.691  1.5439 -0.0128  1.3043
12738TIP3    H259706   3.305   3.067   0.788  0.6692  0.6721  0.0333
12739TIP3   OH259707   1.117   6.618   0.677  0.1060 -0.6047 -0.5507
12739TIP3    H159708   1.045   6.656   0.625  0.2623  1.7213  0.7698
12739TIP3    H259709   1.078   6.599   0.762  0.5870 -1.3259 -0.4820
12740TIP3   OH259710   4.778   5.898  14.084 -0.1668  0.2577  0.2006
12740TIP3    H159711   4.796   5.809  14.054 -0.5150 -0.1787  1.2477
12740TIP3    H259712   4.716   5.933  14.020  1.0610  0.2661 -1.0224
12741TIP3   OH259713   0.838   3.510  10.755 -0.3627  0.0020  0.5121
12741TIP3    H159714   0.772   3.450  10.792 -0.8857  0.3368  0.1439
12741TIP3    H259715   0.786   3.577  10.711  0.1628  1.4643  2.0237
12742TIP3   OH259716   1.743   3.002  15.469  0.3629 -0.2083  0.3940
12742TIP3    H159717   1.714   2.916  15.498  1.2662 -1.0129 -0.9373
12742TIP3    H259718   1.815   3.024  15.529  1.7555 -1.5328 -0.6917
12743TIP3   OH259719   0.676   3.555  14.897 -0.4317 -0.1054  0.4465
12743TIP3    H159720   0.699   3.611  14.823  1.5472 -0.8273  0.4488
12743TIP3    H259721   0.743   3.573  14.963 -2.0531  0.3969  2.0386
12744TIP3   OH259722   3.350   1.157  11.781  0.3415 -0.4573 -0.3012
12744TIP3    H159723   3.428   1.149  11.727 -0.5447  1.5573 -2.0476
12744TIP3    H259724   3.288   1.093  11.744 -0.2947  0.9829 -1.8144
12745TIP3   OH259725   2.236   6.630   4.487 -0.4068 -0.3697 -0.6735
12745TIP3    H159726   2.203   6.580   4.412 -1.3337  0.4269 -0.8174
12745TIP3    H259727   2.157   6.654   4.536  0.0705  0.4138 -0.2728
12746TIP3   OH259728   4.696   3.172   3.306 -0.0576  0.5286 -0.7211
12746TIP3    H159729   4.659   3.260   3.311 -0.1884  0.4232  0.3748
12746TIP3    H259730   4.668   3.139   3.220 -1.2221  1.0194 -0.5523
12747TIP3   OH259731   4.911   6.599   2.979  0.1083 -0.4411  0.1722
12747TIP3    H159732   4.818   6.598   2.999 -0.1447  0.3393 -0.8593
12747TIP3    H259733   4.954   6.575   3.061 -0.9946 -0.8420  0.6496
12748TIP3   OH259734   3.128   6.391   2.477  0.2311  0.0508 -0.0471
12748TIP3    H159735   3.206   6.399   2.422  0.7036 -0.8365  0.4509
12748TIP3    H259736   3.062   6.351   2.421  0.6120 -0.5657 -0.0617
12749TIP3   OH259737   3.972   4.348  13.325 -0.8504 -0.4824  0.1355
12749TIP3    H159738   4.052   4.359  13.377  0.4856  0.2600 -1.9562
12749TIP3    H259739   3.956   4.253  13.326  0.4371 -0.7206  0.0685
12750TIP3   OH259740   1.878   3.175   3.101 -0.2443  0.6374 -0.2513
12750TIP3    H159741   1.788   3.197   3.080 -0.1806  2.3622  1.0751
12750TIP3    H259742   1.930   3.239   3.052  0.1467  0.8902  0.4728
12751TIP3   OH259743   0.001   0.981   4.463  0.0212  0.4977 -0.0000
12751TIP3    H159744   0.043   1.063   4.490 -0.4601 -0.0478  2.5839
12751TIP3    H259745  -0.071   0.969   4.525 -1.4841 -0.6640 -1.8501
12752TIP3   OH259746   2.528   4.570  10.677  0.5845  0.3038  0.1523
12752TIP3    H159747   2.561   4.647  10.723  0.9597  0.7790 -0.8752
12752TIP3    H259748   2.445   4.599  10.639 -0.5864 -0.5939  1.9096
12753TIP3   OH259749   4.250   5.376  15.878  0.1737  0.0690 -0.2230
12753TIP3    H159750   4.282   5.455  15.922  0.9679 -0.4900  0.2289
12753TIP3    H259751   4.301   5.305  15.916  0.2163 -0.5445 -1.3765
12754TIP3   OH259752   3.344   4.679   5.073  0.4659  0.2397 -0.1606
12754TIP3    H159753   3.333   4.650   4.983 -0.8881  2.9529 -0.9964
12754TIP3    H259754   3.256   4.702   5.102  1.2869  2.9675  0.4762
12755TIP3   OH259755   6.822   4.293   0.876  0.1311 -0.2509 -0.1140
12755TIP3    H159756   6.864   4.378   0.869 -0.9931  0.2206 -1.6738
12755TIP3    H259757   6.890   4.230   0.852  0.7812  0.2388  0.4148
12756TIP3   OH259758   0.585   3.547  13.023  0.8248  0.3485  0.3015
12756TIP3    H159759   0.560   3.607  12.952 -1.3229  0.8522  1.3622
12756TIP3    H259760   0.532   3.469  13.008  0.2047  0.5311  1.3907
12757TIP3   OH259761   0.532   4.414  13.446 -0.2536 -0.2982  0.3610
12757TIP3    H159762   0.505   4.323  13.457  0.2026 -0.6434 -1.1470
12757TIP3    H259763   0.456   4.457  13.408 -0.3191 -0.1506  0.6574
12758TIP3   OH259764   6.201   4.995   3.272 -1.0583  0.0290 -0.0031
12758TIP3    H159765   6.246   5.073   3.239 -1.5808  1.1264  1.6829
12758TIP3    H259766   6.260   4.922   3.253 -0.2074  0.9473 -0.9634
12759TIP3   OH259767   4.620   0.740   4.634 -0.1423 -1.2489  0.0738
12759TIP3    H159768   4.641   0.647   4.639  2.5130 -0.6821  3.5033
12759TIP3    H259769   4.704   0.784   4.624 -1.1959  0.8647 -0.1925
12760TIP3   OH259770   1.308   0.864   6.098  0.1549  0.3433 -0.2187
12760TIP3    H159771   1.274   0.775   6.085 -0.9246  1.0891 -3.4449
12760TIP3    H259772   1.402   0.853   6.109  0.1380 -1.2068 -1.3079
12761TIP3   OH259773   2.340   6.276   2.885  0.5417 -0.1942 -0.9769
12761TIP3    H159774   2.375   6.364   2.896 -0.2268 -0.1724  2.1408
12761TIP3    H259775   2.397   6.235   2.820  2.4594  1.7835 -0.6267
12762TIP3   OH259776   0.758   2.531  12.503 -0.6037 -0.2444  0.1191
12762TIP3    H159777   0.724   2.595  12.440 -1.4144  1.3858  2.0861
12762TIP3    H259778   0.816   2.582  12.559 -0.0281 -1.6048  0.7959
12763TIP3   OH259779   5.998   3.236  16.976 -0.5166  0.0725  0.8422
12763TIP3    H159780   6.049   3.224  17.056  0.2187 -1.8136  0.1503
12763TIP3    H259781   5.915   3.191  16.994 -1.5790  2.1764  1.5563
12764TIP3   OH259782   4.177   5.331  10.575  0.2844  0.6401  0.4190
12764TIP3    H159783   4.153   5.262  10.636  0.6682  0.3056  0.1960
12764TIP3    H259784   4.135   5.306  10.492 -0.8787  1.4882  0.7216
12765TIP3   OH259785   1.471   1.897  11.146 -0.3240 -0.2315  0.6083
12765TIP3    H159786   1.545   1.903  11.086 -1.3347  0.0291 -0.6598
12765TIP3    H259787   1.411   1.835  11.104 -0.5115 -0.9917  1.9602
12766TIP3   OH259788   1.444   0.114   5.825  0.2874  0.6222  0.8919
12766TIP3    H159789   1.486   0.104   5.911  0.2466 -0.5614  0.7863
12766TIP3    H259790   1.364   0.063   5.832  0.6837 -0.1522 -0.1170
12767TIP3   OH259791   6.261   2.602   0.418 -0.1986  0.2084  0.1925
12767TIP3    H159792   6.303   2.574   0.499  0.4642  0.7695  0.0538
12767TIP3    H259793   6.287   2.538   0.353  1.3342  1.1187 -0.1317
12768TIP3   OH259794   5.684   5.984   6.509 -0.1128 -0.6029  0.3637
12768TIP3    H159795   5.772   5.950   6.496  0.4619  1.6539 -2.8523
12768TIP3    H259796   5.628   5.928   6.455 -0.3821 -0.9040  0.9419
12769TIP3   OH259797   5.267   2.867  16.159 -0.1092  1.0647 -0.8007
12769TIP3    H159798   5.172   2.855  16.156  0.0616 -0.2999 -2.5662
12769TIP3    H259799   5.298   2.834  16.075  1.8975  2.0050 -0.4963
12770TIP3   OH259800   5.374   3.307   1.775  0.4688  0.1841 -0.0485
12770TIP3    H159801   5.314   3.239   1.805  1.6203 -1.6686 -1.7125
12770TIP3    H259802   5.318   3.382   1.756 -1.1246 -0.9919 -0.1451
12771TIP3   OH259803   3.797   0.561  14.002  0.2626  0.2688 -0.8280
12771TIP3    H159804   3.856   0.517  14.062 -1.3748 -0.3791  0.3864
12771TIP3    H259805   3.752   0.626  14.056 -1.1093 -0.2044 -1.3418
12772TIP3   OH259806   4.927   3.431   4.532 -0.0108  1.0365 -0.7767
12772TIP3    H159807   4.954   3.435   4.440  1.8984  1.1146 -0.2564
12772TIP3    H259808   4.968   3.508   4.572  1.5722 -0.4916  0.6887
12773TIP3   OH259809   1.622   2.275  13.316 -0.3016 -0.2474 -0.2160
12773TIP3    H159810   1.668   2.307  13.239  1.3015  1.1470  1.2512
12773TIP3    H259811   1.591   2.187  13.291  1.6621 -0.5397 -1.8406
12774TIP3   OH259812   6.384   3.730   1.028 -0.4443  0.1673  0.6439
12774TIP3    H159813   6.443   3.726   0.953 -1.7915 -0.9818 -0.3923
12774TIP3    H259814   6.408   3.812   1.072  0.9329  0.4465 -0.5474
12775TIP3   OH259815   2.706   5.607  12.761 -0.5034 -0.3016  0.1097
12775TIP3    H159816   2.744   5.638  12.679 -0.8509  0.0027  0.0592
12775TIP3    H259817   2.751   5.658  12.828  0.9703 -1.7065  0.2520
12776TIP3   OH259818   2.706   4.776  15.894  0.0215 -0.2784  0.1833
12776TIP3    H159819   2.655   4.855  15.874 -0.5008 -0.2213  1.6273
12776TIP3    H259820   2.655   4.704  15.857 -0.3958 -0.0923  0.3956
12777TIP3   OH259821   1.430   5.560   3.314  1.0273 -0.1527  0.0380
12777TIP3    H159822   1.435   5.530   3.223  0.4947  0.1792 -0.1026
12777TIP3    H259823   1.345   5.602   3.321  1.6157  1.0408  0.3194
12778TIP3   OH259824   2.862   3.464   0.775 -0.4013 -0.3812 -0.5081
12778TIP3    H159825   2.946   3.469   0.730 -1.2889  0.6046 -2.1632
12778TIP3    H259826   2.878   3.499   0.862  1.0337 -0.8641 -0.5598
12779TIP3   OH259827   6.644   3.964   5.920 -0.5030  0.2215  0.2303
12779TIP3    H159828   6.646   3.880   5.965  1.4361  0.3180  0.4026
12779TIP3    H259829   6.573   3.955   5.856 -0.7668 -1.2949  0.6954
12780TIP3   OH259830   5.789   3.192   4.961  0.2456 -0.1045 -0.1269
12780TIP3    H159831   5.702   3.230   4.948  1.2686  2.0253 -1.2933
12780TIP3    H259832   5.849   3.262   4.939  2.2996 -2.1275 -1.4094
12781TIP3   OH259833   2.003   5.909  15.316 -0.1794 -0.4698  0.5889
12781TIP3    H159834   1.997   5.944  15.228 -2.7137  0.4623  1.0584
12781TIP3    H259835   2.016   5.815  15.304  0.2317 -0.2565 -0.7576
12782TIP3   OH259836   5.919   0.581  12.620 -0.5227  0.0625 -0.6224
12782TIP3    H159837   5.899   0.587  12.527 -2.6793 -1.3349 -0.3356
12782TIP3    H259838   5.837   0.551  12.660  1.1289 -2.2759  1.3110
12783TIP3   OH259839   3.525   2.052  14.436 -0.0588  0.0810 -0.3614
12783TIP3    H159840   3.574   2.008  14.505 -1.0121 -0.2695  0.1160
12783TIP3    H259841   3.452   1.993  14.417  1.0700 -0.6760 -2.8961
12784TIP3   OH259842   4.377   0.862  17.219 -0.6825 -0.2486  0.0920
12784TIP3    H159843   4.293   0.818  17.230 -0.8321  0.2866  1.2618
12784TIP3    H259844   4.357   0.955  17.232  0.3368 -0.2643  2.0070
12785TIP3   OH259845   3.323   5.978  12.443 -0.2990  0.3652 -0.2746
12785TIP3    H159846   3.374   6.057  12.459 -2.9027  2.2683 -0.6048
12785TIP3    H259847   3.379   5.924  12.387  0.6154  3.2470 -2.4136
12786TIP3   OH259848   4.322   4.385   2.582  0.2580 -0.1222  0.0807
12786TIP3    H159849   4.278   4.455   2.534  0.2902 -1.2146 -1.6226
12786TIP3    H259850   4.398   4.363   2.528  1.7356  0.2691  1.8922
12787TIP3   OH259851   0.978   4.269   1.628 -0.9079 -0.1753  0.2568
12787TIP3    H159852   0.955   4.310   1.712 -0.7629 -0.9880  0.6983
12787TIP3    H259853   0.986   4.176   1.648 -1.6276 -0.4874 -0.8300
12788TIP3   OH259854   2.923   3.757  14.348  0.7057  0.1667  0.1878
12788TIP3    H159855   2.987   3.741  14.417 -0.6170  0.4077  1.5410
12788TIP3    H259856   2.841   3.721  14.384  0.0588 -0.0515 -1.4328
12789TIP3   OH259857   0.773   6.490  12.833 -0.9290 -0.3237  0.4549
12789TIP3    H159858   0.748   6.541  12.756  0.7252 -1.3985 -0.8486
12789TIP3    H259859   0.713   6.416  12.834 -1.3023 -0.0243  0.5299
12790TIP3   OH259860   6.165   6.801   0.007  0.4636 -0.0743 -0.0410
12790TIP3    H159861   6.251   6.776   0.041  0.8053  0.5378 -0.4297
12790TIP3    H259862   6.118   6.835   0.084  0.5423 -0.4835  0.1877
12791TIP3   OH259863   6.310   2.465  12.108  0.2909 -0.3447  0.2963
12791TIP3    H159864   6.226   2.461  12.153 -0.2731  0.3215 -0.6470
12791TIP3    H259865   6.300   2.538  12.047  1.4344 -0.4841 -0.0712
12792TIP3   OH259866   3.474   4.092   3.830  0.5174 -0.0004  0.0800
12792TIP3    H159867   3.551   4.149   3.826  0.3146  0.3853  1.3354
12792TIP3    H259868   3.468   4.067   3.922  0.1896 -1.4905 -0.3175
12793TIP3   OH259869   6.750   4.001  14.232 -0.0973 -0.1026  0.4183
12793TIP3    H159870   6.782   4.049  14.309 -0.4655  0.1887  0.3949
12793TIP3    H259871   6.826   3.996  14.174  0.1859 -0.3289  0.7993
12794TIP3   OH259872   1.537   4.244  16.030 -0.0639  0.3593  0.3878
12794TIP3    H159873   1.632   4.239  16.021 -0.2692 -2.6815 -1.5571
12794TIP3    H259874   1.519   4.217  16.120  0.8777  1.3587  0.8926
12795TIP3   OH259875   0.531   3.298   3.081 -0.2331  0.0099 -0.2257
12795TIP3    H159876   0.616   3.328   3.050  0.5061  0.0069  1.6411
12795TIP3    H259877   0.516   3.216   3.034  1.1162 -0.3229 -0.1404
12796TIP3   OH259878   0.905   3.101   5.706  0.1981 -0.2593 -0.3185
12796TIP3    H159879   0.929   3.010   5.722  0.3357 -0.4971 -1.7517
12796TIP3    H259880   0.821   3.096   5.660  0.6166  0.2839 -1.1706
12797TIP3   OH259881   5.681   5.144   2.337 -0.0327 -0.2583 -0.2246
12797TIP3    H159882   5.688   5.090   2.258  0.5615  0.0547 -0.3997
12797TIP3    H259883   5.631   5.220   2.309  1.5810  0.6471 -0.7667
12798TIP3   OH259884   2.560   4.676  11.292  0.2515  0.3636 -0.4301
12798TIP3    H159885   2.505   4.658  11.368 -0.0276  2.7420  0.0041
12798TIP3    H259886   2.499   4.703  11.224  0.5324 -1.4328 -1.4771
12799TIP3   OH259887   2.056   5.566   4.117  0.5288  0.4151 -0.3145
12799TIP3    H159888   2.025   5.655   4.098  0.4002  0.0908 -1.7004
12799TIP3    H259889   2.109   5.542   4.042 -1.2476 -1.5124 -1.0614
12800TIP3   OH259890   3.152   6.006   2.398  0.2149  0.1542  0.1062
12800TIP3    H159891   3.060   5.979   2.390 -0.3330  1.0512  2.5280
12800TIP3    H259892   3.188   5.995   2.310 -2.0256 -0.8622 -0.7575
12801TIP3   OH259893   4.321   3.952   1.890  0.7688  0.1833 -0.4220
12801TIP3    H159894   4.314   4.014   1.818  0.7621  0.5076 -0.1469
12801TIP3    H259895   4.245   3.972   1.946  2.4251  2.0773  1.3234
12802TIP3   OH259896   2.941   3.920  13.071  0.5387  0.3588  0.2554
12802TIP3    H159897   2.922   3.985  13.138 -2.1617  0.3215 -0.3709
12802TIP3    H259898   2.913   3.960  12.989  0.1601 -1.0313 -0.3251
12803TIP3   OH259899   3.348   4.854  13.727 -0.3825  0.1853  0.4136
12803TIP3    H159900   3.440   4.880  13.733  0.5207 -2.1701 -1.3432
12803TIP3    H259901   3.325   4.829  13.817  0.7523  0.6378  0.8549
12804TIP3   OH259902   2.533   4.459   6.094 -0.1354 -0.2438  0.6583
12804TIP3    H159903   2.508   4.419   6.177  1.2599 -0.9089  0.7970
12804TIP3    H259904   2.597   4.526   6.119 -0.5846  0.3519  0.2126
12805TIP3   OH259905   2.752   2.971  16.507 -0.0182 -0.3385 -0.1608
12805TIP3    H159906   2.819   2.909  16.536 -0.6210  0.0810  2.3581
12805TIP3    H259907   2.719   3.010  16.587 -0.9995  1.8932 -1.5393
12806TIP3   OH259908   3.589   0.755  11.146 -0.1223  0.3671 -0.4614
12806TIP3    H159909   3.576   0.796  11.060  1.8754  1.1355 -0.4538
12806TIP3    H259910   3.648   0.682  11.128  0.9963  1.0386  0.3337
12807TIP3   OH259911   3.702   6.771   1.042  0.2353  0.1427  0.0916
12807TIP3    H159912   3.691   6.762   1.136 -0.5606  2.7864  0.3340
12807TIP3    H259913   3.622   6.736   1.004  0.5868 -0.9876  0.3594
12808TIP3   OH259914   0.555   2.026  16.620 -0.1158  0.1607  0.0331
12808TIP3    H159915   0.561   2.099  16.559  1.8201  0.7097  0.7908
12808TIP3    H259916   0.639   2.028  16.668 -1.1924 -0.7676  2.0938
12809TIP3   OH259917   5.996   2.661   0.380  0.4353  0.4308  0.0038
12809TIP3    H159918   5.951   2.588   0.421 -0.5480  0.8862 -0.2312
12809TIP3    H259919   6.089   2.640   0.388  0.1543 -1.7428 -1.6954
12810TIP3   OH259920   6.344   0.695  16.679  0.2077 -0.2099  0.5634
12810TIP3    H159921   6.334   0.600  16.685 -0.9711 -0.0482  1.5299
12810TIP3    H259922   6.341   0.725  16.770 -0.7357  0.8619  0.1919
12811TIP3   OH259923   1.078   2.788  15.725  0.2065  0.4445 -0.2427
12811TIP3    H159924   1.038   2.774  15.811  1.9458 -3.8627  0.1454
12811TIP3    H259925   1.161   2.831  15.744  0.9784 -1.2516  0.4542
12812TIP3   OH259926   4.585   3.520   5.344 -0.6134  0.4293  0.2444
12812TIP3    H159927   4.525   3.446   5.348  0.9087 -1.0233 -1.8271
12812TIP3    H259928   4.614   3.523   5.252  2.3488  1.0785  1.0732
12813TIP3   OH259929   0.091   3.813   4.886 -0.4823 -0.0579 -0.1895
12813TIP3    H159930   0.171   3.862   4.868  0.2141 -0.8768  0.5907
12813TIP3    H259931   0.095   3.793   4.980 -1.1261 -0.9307 -0.3349
12814TIP3   OH259932   3.470   3.724   2.449  0.1777  0.0840 -0.3465
12814TIP3    H159933   3.531   3.661   2.411 -0.1995 -0.8828  0.5649
12814TIP3    H259934   3.423   3.761   2.375  1.5966  0.5672 -1.0294
12815TIP3   OH259935   1.243   3.502   4.428 -0.4288 -0.3760  0.3898
12815TIP3    H159936   1.193   3.492   4.347  0.1969 -0.4771  0.0119
12815TIP3    H259937   1.208   3.435   4.486 -1.3594  0.1450  0.4536
12816TIP3   OH259938   5.205   6.463   4.646 -0.3669  0.1213 -0.5722
12816TIP3    H159939   5.136   6.526   4.623 -0.1771 -0.0069 -1.5519
12816TIP3    H259940   5.277   6.484   4.586 -0.5409 -1.4452 -1.3913
12817TIP3   OH259941   1.683   1.735  11.437  0.4333  0.3156  0.3033
12817TIP3    H159942   1.752   1.675  11.407  0.0537 -0.2951  0.6352
12817TIP3    H259943   1.729   1.818  11.452  1.3518 -0.4205  1.7504
12818TIP3   OH259944   4.970   4.333   1.618  0.0276  0.4793  0.2532
12818TIP3    H159945   4.877   4.313   1.607 -0.3352  2.4352 -0.5937
12818TIP3    H259946   5.015   4.265   1.569 -0.9426 -0.5469  0.7395
12819TIP3   OH259947   1.011   5.173   2.715  0.1764  0.2816 -0.8744
12819TIP3    H159948   0.915   5.173   2.718  0.1284 -2.4120  0.0037
12819TIP3    H259949   1.038   5.132   2.797  2.0562  0.0074 -1.5761
12820TIP3   OH259950   3.802   4.083  15.357 -0.6649 -0.3287  0.4029
12820TIP3    H159951   3.774   4.142  15.427  0.0875 -0.5638  0.9238
12820TIP3    H259952   3.822   4.000  15.402 -0.0170 -0.4326 -0.0599
12821TIP3   OH259953   4.322   0.248  12.245 -0.1869  0.3371  0.1638
12821TIP3    H159954   4.411   0.217  12.224  0.2807  2.4398 -1.3253
12821TIP3    H259955   4.268   0.213  12.174 -0.3989 -0.2484  0.6099
12822TIP3   OH259956   3.107   3.729  14.805 -0.1284  0.2153  0.3147
12822TIP3    H159957   3.104   3.824  14.812 -1.2224  0.0972  2.1882
12822TIP3    H259958   3.164   3.702  14.877 -0.7293 -0.5904  0.5023
12823TIP3   OH259959   5.015   3.203  16.202 -0.0745 -0.5256  0.1480
12823TIP3    H159960   5.091   3.189  16.146 -0.5720  0.4720 -0.8082
12823TIP3    H259961   5.052   3.226  16.287  0.6854 -1.2420  0.0247
12824TIP3   OH259962   1.320   5.869   5.454 -0.7342  0.2631 -0.3086
12824TIP3    H159963   1.237   5.832   5.484 -1.0548  1.1235 -0.1134
12824TIP3    H259964   1.381   5.854   5.526 -0.4138 -1.3426 -0.8728
12825TIP3   OH259965   0.691   3.651  14.469  0.5914  0.1796 -0.0749
12825TIP3    H159966   0.723   3.571  14.512  0.7629 -0.0987 -0.7094
12825TIP3    H259967   0.699   3.719  14.536  0.8837 -0.2449  0.3250
12826TIP3   OH259968   0.934   5.773   4.709 -0.1247 -0.3580  0.2664
12826TIP3    H159969   0.993   5.717   4.659  1.5234  0.1090  1.5911
12826TIP3    H259970   0.921   5.726   4.792 -0.2857  0.3115  0.6246
12827TIP3   OH259971   0.843   0.724  15.917 -0.0245  0.3707  0.0041
12827TIP3    H159972   0.748   0.739  15.916 -0.0021  0.5398  0.3401
12827TIP3    H259973   0.865   0.706  15.826 -0.4918 -0.3727  0.0213
12828TIP3   OH259974   5.827   4.973  12.551  0.2891  0.2917 -0.5400
12828TIP3    H159975   5.809   5.046  12.491  1.0240  0.4567 -0.5727
12828TIP3    H259976   5.913   4.994  12.588  0.8885 -0.9635 -1.1658
12829TIP3   OH259977   6.695   1.136  15.062 -0.1436  0.6499  0.4038
12829TIP3    H159978   6.790   1.150  15.072 -0.5340  1.6127  4.0186
12829TIP3    H259979   6.674   1.176  14.978  2.4644  1.6600  0.1419
12830TIP3   OH259980   4.808   1.866  12.649 -0.3010  0.3406  0.0933
12830TIP3    H159981   4.785   1.870  12.557 -1.0427  0.8761  0.2939
12830TIP3    H259982   4.904   1.865  12.650 -0.2772  1.1252 -0.6530
12831TIP3   OH259983   5.087   0.312  13.685  0.4128  0.0294 -0.1278
12831TIP3    H159984   5.120   0.264  13.760 -0.8807 -1.3892 -0.3968
12831TIP3    H259985   5.012   0.361  13.718 -0.5097 -1.0341 -0.5345
12832TIP3   OH259986   0.066   3.887   5.339  0.6548 -0.2398  0.3893
12832TIP3    H159987   0.130   3.839   5.286  2.1891  0.2602  1.6899
12832TIP3    H259988   0.077   3.978   5.313 -0.9466 -0.3319 -0.7485
12833TIP3   OH259989   3.846   6.245  14.292  0.1905  0.0361  0.3468
12833TIP3    H159990   3.751   6.233  14.281 -0.2157  2.4693  0.6027
12833TIP3    H259991   3.885   6.196  14.219 -1.3042 -0.3289 -0.2457
12834TIP3   OH259992   2.610   0.615  15.982  0.0340  0.1579 -0.1492
12834TIP3    H159993   2.635   0.693  16.032 -0.4928  0.4794 -0.3692
12834TIP3    H259994   2.624   0.542  16.042  0.8620  0.3825 -0.0561
12835TIP3   OH259995   0.464   0.246   5.204  0.7011  0.1213 -0.2250
12835TIP3    H159996   0.369   0.261   5.203  0.2280 -2.0782 -3.9623
12835TIP3    H259997   0.474   0.160   5.245  1.2504  0.6989  0.9169
12836TIP3   OH259998   0.453   1.467  11.728  0.0010 -0.6694  0.0446
12836TIP3    H159999   0.506   1.412  11.784 -1.0232 -0.4744  1.2459
12836TIP3    H260000   0.382   1.410  11.697 -0.7609 -0.1891  0.8623
12837TIP3   OH260001   5.291   4.650  14.686 -0.4456 -0.3287  0.1426
12837TIP3    H160002   5.257   4.573  14.731  2.9558 -1.9278  0.3279
12837TIP3    H260003   5.241   4.723  14.721 -3.1030 -2.3001  0.7508
12838TIP3   OH260004   5.728   3.732  15.399 -0.1872  0.7329  0.1303
12838TIP3    H160005   5.718   3.694  15.486  0.2972 -2.0328 -0.9087
12838TIP3    H260006   5.812   3.698  15.367 -0.1175  2.0763 -1.2260
12839TIP3   OH260007   5.841   2.340   2.785 -0.3788  0.1774  0.1027
12839TIP3    H160008   5.766   2.292   2.820 -0.6437 -0.9889 -1.8948
12839TIP3    H260009   5.894   2.362   2.862 -1.9364 -0.4009  1.3902
12840TIP3   OH260010   2.760   5.041   2.557  0.3432  0.2386 -0.4605
12840TIP3    H160011   2.817   5.072   2.486  0.5762 -1.0924 -0.8907
12840TIP3    H260012   2.691   4.992   2.512 -1.5355  2.2851  0.0064
12841TIP3   OH260013   0.381   6.656  13.077  0.4104  0.0320  0.2499
12841TIP3    H160014   0.361   6.639  12.984 -0.7466 -0.7478  0.6107
12841TIP3    H260015   0.464   6.611  13.092  0.9769  0.7758 -0.5786
12842TIP3   OH260016   5.433   4.402   1.522  0.2484  0.5041  0.2172
12842TIP3    H160017   5.483   4.321   1.524  2.6822  1.8930  0.6783
12842TIP3    H260018   5.472   4.456   1.591 -1.5264  1.9283  0.1909
12843TIP3   OH260019   6.451   5.804   0.114  0.3512 -0.4403 -0.2603
12843TIP3    H160020   6.486   5.842   0.033  0.0326  0.2637 -0.0684
12843TIP3    H260021   6.392   5.735   0.084  0.7505 -0.6291 -0.6157
12844TIP3   OH260022   5.654   4.156  12.004 -0.4067 -0.5570 -0.5270
12844TIP3    H160023   5.578   4.160  12.061 -0.7211 -2.6106 -0.7326
12844TIP3    H260024   5.654   4.066  11.970  2.6145 -0.9348  0.1849
12845TIP3   OH260025   4.056   3.934  16.284 -0.1175  0.4763 -0.0533
12845TIP3    H160026   4.054   3.898  16.373  0.1725  1.0967  0.2121
12845TIP3    H260027   3.969   3.970  16.270  0.0549  1.0212  0.2557
12846TIP3   OH260028   6.513   0.566   1.135  0.3897  0.3976 -0.6634
12846TIP3    H160029   6.560   0.509   1.073  2.6436  0.6611  0.7009
12846TIP3    H260030   6.550   0.544   1.221 -1.0531  1.6160  0.3201
12847TIP3   OH260031   2.116   2.456  12.507  0.5277 -0.0790 -0.1698
12847TIP3    H160032   2.164   2.533  12.477 -1.4361  1.4096  0.2651
12847TIP3    H260033   2.031   2.491  12.535 -0.2079 -2.3428  0.6118
12848TIP3   OH260034   2.436   6.438  13.985  0.4647  0.1057 -0.1865
12848TIP3    H160035   2.355   6.490  13.978  0.9602  0.9688  0.3891
12848TIP3    H260036   2.472   6.439  13.896 -0.5654 -0.9953 -0.6544
12849TIP3   OH260037   1.375   1.189  12.308 -0.1874 -0.5630 -0.0211
12849TIP3    H160038   1.314   1.166  12.237 -0.1971 -3.2476  0.7371
12849TIP3    H260039   1.321   1.236  12.372 -0.6130  0.1879 -0.9043
12850TIP3   OH260040   6.208   1.708  14.391 -0.7310 -0.0080 -0.5541
12850TIP3    H160041   6.172   1.796  14.378 -0.8565  0.0372  0.0428
12850TIP3    H260042   6.179   1.684  14.479 -0.3591 -0.4862 -0.5611
12851TIP3   OH260043   5.741   4.757   2.969  0.2079 -0.6857  0.2922
12851TIP3    H160044   5.763   4.746   3.061 -0.3937 -3.2271  0.2004
12851TIP3    H260045   5.721   4.669   2.938  0.4554  0.0751 -2.3044
12852TIP3   OH260046   6.235   0.587   2.029  0.3345 -0.6297  0.0577
12852TIP3    H160047   6.322   0.569   2.066 -0.0399 -1.4032  0.5910
12852TIP3    H260048   6.249   0.662   1.971  0.7639  1.4391  2.6231
12853TIP3   OH260049   1.162   6.234   2.007 -0.1715 -0.5107 -0.1841
12853TIP3    H160050   1.162   6.303   2.073  1.1772 -0.1413 -0.5404
12853TIP3    H260051   1.184   6.279   1.925 -3.2178 -0.6919 -1.2333
12854TIP3   OH260052   0.880   2.567  11.855  0.0211 -0.5261  0.3865
12854TIP3    H160053   0.964   2.552  11.813  0.2106 -0.5124  0.7612
12854TIP3    H260054   0.827   2.491  11.830  0.4223 -0.9645  0.8510
12855TIP3   OH260055   4.367   3.066   2.210  0.0476 -0.1146  0.3975
12855TIP3    H160056   4.328   3.028   2.288 -1.0080  1.0445  0.4774
12855TIP3    H260057   4.339   3.009   2.138 -2.2944  0.9366  0.3858
12856TIP3   OH260058   0.073   6.344  12.766 -0.1319  0.1349  0.0808
12856TIP3    H160059   0.031   6.342  12.852  0.8012 -1.2063  0.5319
12856TIP3    H260060   0.094   6.437  12.753  0.9030  0.2196  1.9167
12857TIP3   OH260061   2.210   4.674   5.120  0.4738 -0.0291 -0.2767
12857TIP3    H160062   2.281   4.611   5.108  0.4289 -0.0009 -0.7033
12857TIP3    H260063   2.130   4.623   5.110  0.4061 -0.3033  1.4113
12858TIP3   OH260064   6.682   4.239  10.462  0.0108 -0.5739  0.2792
12858TIP3    H160065   6.699   4.152  10.498  1.7984 -0.4743 -0.2187
12858TIP3    H260066   6.652   4.223  10.373  2.2872 -0.7130 -0.5403
12859TIP3   OH260067   4.979   3.582   4.013  0.3591 -0.3272 -0.0613
12859TIP3    H160068   5.068   3.580   3.978  0.2618 -3.6266 -0.5099
12859TIP3    H260069   4.923   3.563   3.937 -0.5699  0.0383  0.5165
12860TIP3   OH260070   0.347   2.560   0.822  0.0168  0.0930  0.1220
12860TIP3    H160071   0.432   2.520   0.805 -0.5398 -0.2048 -2.3415
12860TIP3    H260072   0.363   2.654   0.815  0.0539  0.0168 -0.8748
12861TIP3   OH260073   1.378   5.588   5.075  0.1537  0.1070 -0.0333
12861TIP3    H160074   1.348   5.498   5.082  2.5969 -0.8614 -0.7540
12861TIP3    H260075   1.454   5.592   5.133  2.6659  0.3821 -3.0650
12862TIP3   OH260076   5.614   0.827   5.051 -0.3836 -0.2206  0.0564
12862TIP3    H160077   5.536   0.830   4.996 -2.6875 -0.9693  3.0330
12862TIP3    H260078   5.644   0.736   5.046  0.1760  0.0030 -0.8689
12863TIP3   OH260079   2.821   2.486  15.657 -0.1786 -0.3808 -0.0831
12863TIP3    H160080   2.739   2.436  15.653  0.8656 -2.0791 -1.1577
12863TIP3    H260081   2.830   2.523  15.570 -0.7182  1.4186  0.5788
12864TIP3   OH260082   2.890   2.993   6.547  0.5015 -0.1114  0.3335
12864TIP3    H160083   2.980   2.999   6.580  0.3089 -1.7302  1.2509
12864TIP3    H260084   2.850   2.924   6.599 -1.1647  0.2884 -0.3562
12865TIP3   OH260085   4.641   6.803   1.093 -0.3430  0.0851 -0.0889
12865TIP3    H160086   4.562   6.753   1.112  1.1513 -1.8234  1.6486
12865TIP3    H260087   4.649   6.864   1.167  2.0320 -2.8303  2.3022
12866TIP3   OH260088   2.157   0.838   0.093 -0.0190 -0.1921  0.0204
12866TIP3    H160089   2.228   0.870   0.038  0.5927  0.0676  0.9502
12866TIP3    H260090   2.094   0.910   0.096 -0.0263 -0.1830 -0.2702
12867TIP3   OH260091   3.829   4.551  14.861  0.7705  0.8105  0.4228
12867TIP3    H160092   3.775   4.623  14.894 -1.2769 -0.5763  0.2258
12867TIP3    H260093   3.870   4.515  14.940  0.4562  1.1180  0.7334
12868TIP3   OH260094   2.357   1.825  12.985 -0.4266  0.1518  0.1837
12868TIP3    H160095   2.373   1.844  13.078  0.9167  0.1957 -0.0406
12868TIP3    H260096   2.368   1.909  12.941 -2.8657  0.5275  0.1579
12869TIP3   OH260097   1.903   1.515   2.330  0.2160  0.3107  0.5265
12869TIP3    H160098   1.901   1.419   2.332  1.0846  0.2053 -1.4431
12869TIP3    H260099   1.972   1.536   2.267 -0.5078  2.2325  0.3132
12870TIP3   OH260100   0.866   6.323  13.318  0.3173 -0.6455  0.1353
12870TIP3    H160101   0.960   6.338  13.309  0.0649  0.5676 -0.6396
12870TIP3    H260102   0.843   6.271  13.241  0.2265 -0.3313 -0.0498
12871TIP3   OH260103   0.787   6.218  13.016  0.0835  0.3032  0.0404
12871TIP3    H160104   0.694   6.241  13.012  0.3248  1.1169 -1.4675
12871TIP3    H260105   0.797   6.149  12.950  0.4516 -0.2278  0.6349
12872TIP3   OH260106   1.370   4.244  10.736 -0.4285 -0.5824  0.3167
12872TIP3    H160107   1.464   4.259  10.727 -0.2064 -2.4848 -1.3244
12872TIP3    H260108   1.330   4.331  10.729  1.1186  0.1002 -0.3409
12873TIP3   OH260109   3.994   0.325   5.711 -0.9525  0.2029  0.3542
12873TIP3    H160110   4.031   0.409   5.735 -1.2437  0.1040  1.1620
12873TIP3    H260111   4.069   0.266   5.706 -0.6445  0.6626 -0.9831
12874TIP3   OH260112   6.053   0.712   2.623  0.8096 -0.3455 -0.6388
12874TIP3    H160113   6.062   0.801   2.657  2.5478 -0.7223  0.0004
12874TIP3    H260114   6.127   0.664   2.660  0.8773 -1.6381 -2.3158
12875TIP3   OH260115   3.840   5.699  16.934  0.1563  0.4705  0.2986
12875TIP3    H160116   3.765   5.757  16.943 -1.3239 -1.3255  0.1574
12875TIP3    H260117   3.898   5.724  17.006 -1.3840  0.7568  1.4962
12876TIP3   OH260118   3.080   3.592  14.544 -0.6216 -0.1767  0.1846
12876TIP3    H160119   3.092   3.575  14.638 -2.0093 -0.9998  0.2420
12876TIP3    H260120   3.136   3.528  14.501  1.0649  1.0608  0.4065
12877TIP3   OH260121   4.735   0.488   4.576 -0.6105  0.0434 -0.2924
12877TIP3    H160122   4.799   0.519   4.512  0.8939  0.5346  1.3630
12877TIP3    H260123   4.754   0.394   4.585  1.4164  0.5370  1.6978
12878TIP3   OH260124   2.239   1.391  16.729  0.5329  0.4085  0.0837
12878TIP3    H160125   2.227   1.389  16.634 -0.5155  1.7425  0.1660
12878TIP3    H260126   2.206   1.476  16.757 -0.0895 -0.3193  1.7644
12879TIP3   OH260127   5.260   2.520   0.112 -0.2937  0.1232 -0.4098
12879TIP3    H160128   5.352   2.498   0.098 -0.2693  0.9080 -1.6225
12879TIP3    H260129   5.215   2.436   0.112  0.4680 -0.3020  0.6657
12880TIP3   OH260130   6.535   4.774   2.480  0.0709 -0.5675  0.1909
12880TIP3    H160131   6.527   4.687   2.518 -1.0328 -0.2422  0.7405
12880TIP3    H260132   6.615   4.770   2.428  1.2509 -1.2378  1.9731
12881TIP3   OH260133   2.074   4.950  16.092  0.0042 -0.6067  0.2611
12881TIP3    H160134   2.087   5.045  16.088  1.1724 -0.7798 -0.7358
12881TIP3    H260135   1.990   4.935  16.048 -0.4670  0.0076  0.9391
12882TIP3   OH260136   1.430   2.766   1.198 -0.1742  0.4853  0.3741
12882TIP3    H160137   1.439   2.703   1.270  1.7084 -0.0682 -0.3016
12882TIP3    H260138   1.488   2.733   1.130  1.9328  3.5852  0.4748
12883TIP3   OH260139   4.539   1.627  12.082 -0.5732 -0.3152  0.1855
12883TIP3    H160140   4.534   1.714  12.121 -0.8343  0.7494 -2.0756
12883TIP3    H260141   4.485   1.633  12.003  4.0468 -0.5899 -3.4342
12884TIP3   OH260142   0.822   5.985  14.896  0.4886  0.3095 -0.5210
12884TIP3    H160143   0.914   5.997  14.919  0.6940  0.2437 -1.2785
12884TIP3    H260144   0.812   6.032  14.813 -0.3538  0.9734 -0.0649
12885TIP3   OH260145   6.499   1.208  16.021  0.0036  0.7065 -0.0145
12885TIP3    H160146   6.435   1.151  15.977 -0.5299  2.3553 -1.4566
12885TIP3    H260147   6.447   1.281  16.054  0.6616  0.3554  1.9540
12886TIP3   OH260148   2.133   1.717   1.507  0.0517  0.2154  0.4675
12886TIP3    H160149   2.091   1.767   1.577  0.5003  0.5221  0.5209
12886TIP3    H260150   2.092   1.750   1.427  0.8284  1.1794  0.4444
12887TIP3   OH260151   3.892   2.540  16.184  0.5104  0.0828  0.5867
12887TIP3    H160152   3.874   2.494  16.102  0.2671 -0.7483  1.0968
12887TIP3    H260153   3.863   2.630  16.168  1.4852  0.2179 -0.6023
12888TIP3   OH260154   1.757   5.741   3.819 -0.5984  0.2830 -0.2641
12888TIP3    H160155   1.670   5.704   3.808 -0.7118  0.7318 -0.9384
12888TIP3    H260156   1.751   5.795   3.897 -0.2375 -1.6468  1.1758
12889TIP3   OH260157   0.228   3.875  15.443  0.1929  0.5317 -0.8706
12889TIP3    H160158   0.218   3.830  15.527  2.1864 -1.3924 -1.5733
12889TIP3    H260159   0.247   3.966  15.467  1.2297 -0.0786  0.8240
12890TIP3   OH260160   3.546   0.192   1.331  0.0872 -0.3569 -0.3647
12890TIP3    H160161   3.453   0.216   1.328  0.5508  1.5794 -0.1119
12890TIP3    H260162   3.591   0.263   1.287  1.5083 -1.0698 -0.1149
12891TIP3   OH260163   3.903   2.255  12.674 -0.1182 -0.0106  0.2071
12891TIP3    H160164   3.940   2.305  12.748 -3.3866  1.5719  0.9586
12891TIP3    H260165   3.937   2.300  12.597 -0.6692  1.6126  0.8535
12892TIP3   OH260166   5.760   4.078   2.203 -0.7007 -0.1088 -0.4088
12892TIP3    H160167   5.712   4.134   2.264 -0.4743  1.0711 -1.2983
12892TIP3    H260168   5.752   3.990   2.241  0.9401  0.7827  2.2807
12893TIP3   OH260169   5.175   0.273  16.613 -0.5665 -0.6299 -0.1784
12893TIP3    H160170   5.259   0.236  16.640 -0.4508 -1.8108 -1.9825
12893TIP3    H260171   5.141   0.315  16.692  1.4445 -0.6195  0.7418
12894TIP3   OH260172   1.011   4.671  15.560  0.0531  0.2772 -0.4553
12894TIP3    H160173   1.096   4.663  15.605 -0.0386 -1.2498 -0.5033
12894TIP3    H260174   1.011   4.760  15.525  0.8619  0.9351  1.0995
12895TIP3   OH260175   0.227   1.836  13.622 -0.4089 -0.2582 -0.1351
12895TIP3    H160176   0.179   1.890  13.686 -0.0041 -0.1908  0.1118
12895TIP3    H260177   0.290   1.896  13.583 -0.6658 -0.2947 -0.6195
12896TIP3   OH260178   4.204   0.679   3.750 -0.1625 -0.0201 -0.1220
12896TIP3    H160179   4.284   0.723   3.723 -1.6896  2.9067 -0.2314
12896TIP3    H260180   4.234   0.597   3.791  2.8879  1.2467  0.4145
12897TIP3   OH260181   0.585   5.541  13.136 -0.1221 -0.3157  0.1732
12897TIP3    H160182   0.499   5.503  13.155  0.5960 -0.6065  3.4164
12897TIP3    H260183   0.647   5.470  13.153  0.8571  0.2342 -0.9526
12898TIP3   OH260184   6.121   2.258   3.475  0.0576  0.0659 -0.4041
12898TIP3    H160185   6.187   2.294   3.535 -0.8491 -2.2435  2.2278
12898TIP3    H260186   6.048   2.321   3.480  0.4907  0.5544 -0.0987
12899TIP3   OH260187   5.905   1.294   3.938 -0.1288  0.2100 -0.2104
12899TIP3    H160188   5.823   1.250   3.917 -0.1780  0.3187 -0.2482
12899TIP3    H260189   5.879   1.368   3.994 -0.0464  0.1860 -0.1408
12900TIP3   OH260190   4.775   5.737   0.620  0.4573  0.1129  0.3159
12900TIP3    H160191   4.807   5.647   0.631  1.3480  0.1756 -1.4828
12900TIP3    H260192   4.706   5.745   0.687 -0.1897 -2.1569  0.0300
12901TIP3   OH260193   3.216   2.391  12.342 -0.4691  0.2364 -0.0903
12901TIP3    H160194   3.272   2.367  12.415 -2.1523  1.2340  1.6065
12901TIP3    H260195   3.249   2.338  12.269  1.6886 -0.3054  1.1692
12902TIP3   OH260196   2.581   5.117  14.998 -0.6125  0.0104  0.0960
12902TIP3    H160197   2.543   5.166  14.925  0.4372 -0.6788 -0.9583
12902TIP3    H260198   2.509   5.062  15.030 -1.4438  1.2753  0.4511
12903TIP3   OH260199   1.896   5.513   3.865  0.0572 -0.2895 -0.3271
12903TIP3    H160200   1.978   5.562   3.851  0.3434 -0.8245 -0.5402
12903TIP3    H260201   1.828   5.581   3.867  0.5830  0.2295  0.5517
12904TIP3   OH260202   1.958   4.007   4.842 -0.7509 -0.0597  0.2268
12904TIP3    H160203   1.902   4.038   4.913 -0.3199  0.4192  0.3709
12904TIP3    H260204   1.939   3.914   4.834  0.7696 -0.6519  2.4709
12905TIP3   OH260205   3.873   2.438  15.452 -0.0184  0.1409 -0.1737
12905TIP3    H160206   3.927   2.496  15.506 -2.3553  1.4376  0.9507
12905TIP3    H260207   3.825   2.385  15.515  0.7013 -1.7673 -1.1704
12906TIP3   OH260208   3.791   2.648   3.304 -0.1812  0.3221  0.1485
12906TIP3    H160209   3.845   2.643   3.383 -2.1743  1.6240  1.6910
12906TIP3    H260210   3.842   2.705   3.245  1.8622 -1.5843 -0.0550
12907TIP3   OH260211   2.304   4.230   2.609 -0.3819  0.3393  0.6655
12907TIP3    H160212   2.242   4.300   2.627 -0.8268  0.7438 -1.9568
12907TIP3    H260213   2.250   4.156   2.580  0.2270 -0.1949  0.8444
12908TIP3   OH260214   0.339   6.748  13.802  0.1430 -0.5427  0.0812
12908TIP3    H160215   0.373   6.804  13.871 -1.2436 -1.2768  1.4199
12908TIP3    H260216   0.382   6.663  13.815 -3.0747 -2.0125  2.8500
12909TIP3   OH260217   1.095   2.266   4.350 -0.1985  0.0105 -0.0443
12909TIP3    H160218   1.129   2.252   4.261  1.1178 -1.9220  0.6792
12909TIP3    H260219   1.001   2.253   4.342 -0.1600  0.3492 -1.2423
12910TIP3   OH260220   6.641   0.093   3.654 -0.2526 -0.0350 -0.0574
12910TIP3    H160221   6.551   0.112   3.629 -0.1371 -1.6374 -1.8812
12910TIP3    H260222   6.655   0.002   3.630  1.9843  0.2793 -0.2340
12911TIP3   OH260223   5.841   4.119   4.756  0.1232  0.3677  0.1807
12911TIP3    H160224   5.801   4.168   4.684  1.8055  0.9630 -0.4053
12911TIP3    H260225   5.916   4.172   4.783  0.3973 -0.5714  1.3808
12912TIP3   OH260226   5.484   6.369  15.635 -0.1805 -0.3647 -0.5495
12912TIP3    H160227   5.566   6.332  15.669 -0.2759 -0.2848 -0.2254
12912TIP3    H260228   5.450   6.301  15.577 -0.1065 -0.5865 -0.3388
12913TIP3   OH260229   1.153   5.102  17.133 -0.0212 -0.1376 -0.3061
12913TIP3    H160230   1.248   5.118  17.125 -0.1457  0.6306 -0.3216
12913TIP3    H260231   1.144   5.008  17.121  0.6774 -0.1354 -0.9823
12914TIP3   OH260232   0.994   0.554   6.144 -0.0757 -0.5002  0.3608
12914TIP3    H160233   0.903   0.582   6.132  0.7557  2.0977 -0.6849
12914TIP3    H260234   1.030   0.616   6.207  1.2420 -0.7967 -0.0671
12915TIP3   OH260235   1.983   0.867  11.920 -0.0143  0.5903 -0.5370
12915TIP3    H160236   1.982   0.790  11.977 -2.2723 -0.0488 -1.3135
12915TIP3    H260237   1.937   0.934  11.971 -0.2198  0.6516 -0.8004
12916TIP3   OH260238   4.191   1.733   3.640 -0.6686 -0.1129  0.3446
12916TIP3    H160239   4.131   1.726   3.714 -0.5313 -1.0618  0.3689
12916TIP3    H260240   4.269   1.684   3.666 -0.6430 -0.5222 -0.4461
12917TIP3   OH260241   2.108   0.423  14.312  0.4483  0.6166 -0.3935
12917TIP3    H160242   2.191   0.413  14.265  0.2328 -1.1240 -0.4660
12917TIP3    H260243   2.087   0.336  14.343 -1.9364  0.7564 -1.3552
12918TIP3   OH260244   3.569   4.513   3.125 -0.6687  0.4077 -0.2429
12918TIP3    H160245   3.610   4.574   3.186  0.3319  0.3688 -0.8493
12918TIP3    H260246   3.477   4.513   3.149 -0.9698  3.1852 -1.0517
12919TIP3   OH260247   0.729   5.331  16.104 -0.1245 -0.5530  0.1109
12919TIP3    H160248   0.804   5.292  16.149  0.1073 -0.3836 -0.1244
12919TIP3    H260249   0.739   5.302  16.013  0.4754  0.6659 -0.2375
12920TIP3   OH260250   3.016   6.352  13.784  0.5393 -0.3250  0.3161
12920TIP3    H160251   2.995   6.425  13.843 -0.0560 -1.6181  1.7595
12920TIP3    H260252   2.938   6.344  13.729 -0.3534 -1.2502  1.6458
12921TIP3   OH260253   6.170   6.321   4.562 -0.1586  0.2882  0.1060
12921TIP3    H160254   6.169   6.417   4.558 -1.3624  0.2816 -0.2873
12921TIP3    H260255   6.240   6.300   4.623 -0.8402  1.4898  1.3549
12922TIP3   OH260256   0.421   3.605   4.806  0.4217  0.0820  0.1928
12922TIP3    H160257   0.473   3.672   4.849 -0.7429  1.3612 -0.3154
12922TIP3    H260258   0.481   3.564   4.744  1.1740  0.6029  0.5638
12923TIP3   OH260259   2.322   1.900   3.223  0.1491 -0.1004 -0.1321
12923TIP3    H160260   2.415   1.879   3.215  0.6182  1.9085 -0.4063
12923TIP3    H260261   2.302   1.887   3.315  0.9692  0.4116  0.1279
12924TIP3   OH260262   5.778   3.347  13.637  0.3872  0.2032 -0.3818
12924TIP3    H160263   5.763   3.427  13.586 -0.1024 -0.5523 -1.4585
12924TIP3    H260264   5.808   3.283  13.572  2.8790  0.0627  0.7880
12925TIP3   OH260265   0.198   0.204  12.704  0.4533 -0.4294 -0.4973
12925TIP3    H160266   0.154   0.140  12.648 -0.9471  0.6902 -0.7177
12925TIP3    H260267   0.222   0.154  12.783  0.2334 -1.4351 -1.0515
12926TIP3   OH260268   3.433   3.950   2.638  0.0000 -0.4524 -0.0661
12926TIP3    H160269   3.447   3.895   2.562 -0.2347  1.7763 -1.8292
12926TIP3    H260270   3.367   3.904   2.690 -0.2823 -1.7290 -1.4969
12927TIP3   OH260271   1.528   2.479   2.625  0.2479 -0.3135  0.6423
12927TIP3    H160272   1.593   2.498   2.557 -0.8082  0.2265 -0.2553
12927TIP3    H260273   1.475   2.409   2.588 -0.2296 -0.1358  0.9863
12928TIP3   OH260274   3.809   3.661   3.492  0.2739 -0.0203  0.4268
12928TIP3    H160275   3.727   3.705   3.469 -0.4964 -1.3311  0.5118
12928TIP3    H260276   3.781   3.578   3.531  1.6490 -1.0441 -0.6388
12929TIP3   OH260277   5.606   0.442   2.699  0.4827 -0.7301  0.1570
12929TIP3    H160278   5.543   0.468   2.632 -1.7622 -0.2728  2.2901
12929TIP3    H260279   5.662   0.519   2.709 -0.0281 -0.2936 -0.2384
12930TIP3   OH260280   5.682   3.865  16.998 -0.0370  0.3816 -0.1473
12930TIP3    H160281   5.702   3.945  16.950  0.0648  0.5907  0.2418
12930TIP3    H260282   5.767   3.826  17.018  0.0730  1.4948  1.8852
12931TIP3   OH260283   2.999   5.054  11.731 -0.3376  0.7173 -0.0186
12931TIP3    H160284   2.932   5.108  11.773 -0.1676  0.4457  0.6171
12931TIP3    H260285   2.956   4.970  11.717 -0.3149  0.7296 -0.1656
12932TIP3   OH260286   0.731   2.174  11.483  0.2004  0.1717 -0.3360
12932TIP3    H160287   0.816   2.131  11.489  0.4630  0.2982 -2.5244
12932TIP3    H260288   0.748   2.265  11.507 -0.0257 -0.4523  2.5535
12933TIP3   OH260289   6.423   3.876   5.776  0.5968 -0.2874  0.2253
12933TIP3    H160290   6.365   3.904   5.705  0.9236 -1.0962 -0.3786
12933TIP3    H260291   6.371   3.886   5.855  0.2452  0.6889 -0.1205
12934TIP3   OH260292   4.592   5.216  15.453 -0.2475  0.0534  0.3770
12934TIP3    H160293   4.572   5.244  15.363  2.1338  1.0870  0.1197
12934TIP3    H260294   4.673   5.167  15.445 -0.8308 -1.2300  1.8018
12935TIP3   OH260295   4.160   5.005   3.632  0.0225 -0.0938  0.3916
12935TIP3    H160296   4.232   5.065   3.653  0.0535 -0.4332  1.2905
12935TIP3    H260297   4.203   4.932   3.587 -0.0656  0.7090 -1.0452
12936TIP3   OH260298   2.619   1.273  16.215 -0.1037  0.5559  0.2974
12936TIP3    H160299   2.602   1.360  16.179 -1.4101  0.9607  1.7559
12936TIP3    H260300   2.545   1.220  16.185 -1.6295  1.0906  2.8118
12937TIP3   OH260301   6.447   2.914  12.295  0.2407  0.5289  0.2484
12937TIP3    H160302   6.394   2.983  12.334  0.6074  0.7939  0.2771
12937TIP3    H260303   6.422   2.835  12.343  1.4002  1.0081  1.6984
12938TIP3   OH260304   1.392   0.946   2.970 -0.2964  0.3663 -0.0887
12938TIP3    H160305   1.486   0.944   2.992  0.2148  3.0982 -1.6404
12938TIP3    H260306   1.352   0.995   3.042 -0.6010 -0.8682  0.6136
12939TIP3   OH260307   4.793   5.797  11.802  0.4110 -0.4601 -0.1481
12939TIP3    H160308   4.752   5.764  11.723  0.6815 -0.2213 -0.3927
12939TIP3    H260309   4.806   5.891  11.785  0.3215 -0.3752  0.2423
12940TIP3   OH260310   5.891   3.508   4.572 -0.7449  0.1051 -0.4228
12940TIP3    H160311   5.889   3.535   4.664  0.0138  1.5082 -0.7931
12940TIP3    H260312   5.803   3.477   4.554 -0.8572 -0.3652  0.8168
12941TIP3   OH260313   2.201   2.861   0.759 -0.2626  0.1899  0.0003
12941TIP3    H160314   2.287   2.862   0.717 -0.1912 -0.3197  0.1198
12941TIP3    H260315   2.140   2.890   0.691  0.1430  1.7528  0.2699
12942TIP3   OH260316   5.073   3.577  11.818 -0.6759 -0.0839 -0.1079
12942TIP3    H160317   5.006   3.640  11.792 -1.3563 -0.6119  0.3562
12942TIP3    H260318   5.156   3.624  11.805 -1.1634  0.8466  0.0715
12943TIP3   OH260319   3.992   5.734  12.915 -0.2200  0.1445  0.1427
12943TIP3    H160320   3.906   5.767  12.940  0.5126  1.8506  0.5079
12943TIP3    H260321   4.002   5.759  12.823 -0.5836 -1.1250 -0.2632
12944TIP3   OH260322   5.551   5.637   1.600 -0.0827  0.0697 -0.1902
12944TIP3    H160323   5.466   5.643   1.645  0.5069  0.5709  0.8827
12944TIP3    H260324   5.532   5.587   1.520 -1.1911 -0.6937  0.5229
12945TIP3   OH260325   2.991   6.782   4.542 -0.3890  0.2643  0.0619
12945TIP3    H160326   2.915   6.806   4.595 -0.2859 -0.4212  0.5255
12945TIP3    H260327   3.060   6.762   4.605 -0.3194 -0.7500 -0.3061
12946TIP3   OH260328   3.165   0.775   5.251 -0.5541 -0.8836  0.0770
12946TIP3    H160329   3.117   0.692   5.256 -0.6771 -0.7605  1.0506
12946TIP3    H260330   3.215   0.769   5.169 -2.8434 -0.6954 -1.4405
12947TIP3   OH260331   5.621   2.926   5.831  0.4072  0.0269 -0.4249
12947TIP3    H160332   5.688   2.896   5.893 -0.1536 -0.2606  0.0515
12947TIP3    H260333   5.578   2.845   5.802 -1.1081  0.3158  0.8584
12948TIP3   OH260334   3.763   2.411  14.264  0.2820  0.0001  0.3497
12948TIP3    H160335   3.782   2.377  14.176  1.5336  0.4784  0.4120
12948TIP3    H260336   3.829   2.370  14.320 -0.8800 -0.7605  1.1871
12949TIP3   OH260337   2.435   4.922   1.598 -0.6452 -0.0659  0.1573
12949TIP3    H160338   2.476   4.892   1.679 -0.4064 -0.1237  0.0159
12949TIP3    H260339   2.500   4.903   1.530 -1.1077 -0.6377 -0.1390
12950TIP3   OH260340   2.317   0.184  11.589 -0.8280 -0.4387 -0.0812
12950TIP3    H160341   2.316   0.236  11.670  2.5116  0.0631 -0.2396
12950TIP3    H260342   2.259   0.111  11.608  1.2503 -1.3867  3.6084
12951TIP3   OH260343   6.316   2.829   5.958 -0.7919 -0.4641  0.1043
12951TIP3    H160344   6.367   2.905   5.986  1.2880 -1.5956 -0.4303
12951TIP3    H260345   6.366   2.754   5.988 -1.9131 -1.6549 -0.8858
12952TIP3   OH260346   0.499   5.794  16.107 -0.4554 -0.2456 -0.2574
12952TIP3    H160347   0.559   5.851  16.157 -1.2905  0.2487  0.2096
12952TIP3    H260348   0.415   5.840  16.111 -1.5436 -2.2229  1.4094
12953TIP3   OH260349   5.138   0.761   1.223 -0.4281 -0.0633 -0.0986
12953TIP3    H160350   5.164   0.772   1.314 -1.7523 -1.1032  0.4303
12953TIP3    H260351   5.050   0.723   1.227  0.0776 -1.5804 -1.7738
12954TIP3   OH260352   5.952   2.156   0.624  0.3388  0.3510 -0.1564
12954TIP3    H160353   5.908   2.080   0.664  3.1562 -1.8326 -0.8542
12954TIP3    H260354   6.045   2.144   0.645  1.1731  2.4513 -2.1578
12955TIP3   OH260355   1.987   2.292  15.813 -0.3158  0.3023  0.6947
12955TIP3    H160356   1.952   2.271  15.726  0.3631 -2.8897  1.0610
12955TIP3    H260357   2.070   2.245  15.817  0.8851  2.3703  2.2544
12956TIP3   OH260358   1.862   2.428   4.642  0.7038  0.2829  0.2847
12956TIP3    H160359   1.876   2.344   4.686  1.1264  0.0216 -0.3154
12956TIP3    H260360   1.919   2.423   4.565 -0.1367  0.6527 -0.3709
12957TIP3   OH260361   1.301   2.897  17.111 -0.0475  0.5255  0.1774
12957TIP3    H160362   1.310   2.947  17.192  0.3136  0.9677 -0.1290
12957TIP3    H260363   1.365   2.937  17.051  0.0865 -0.1629 -0.1426
12958TIP3   OH260364   5.643   1.900   5.200  0.0273 -0.4530 -0.4199
12958TIP3    H160365   5.642   1.826   5.260  1.2824  0.3476  0.6460
12958TIP3    H260366   5.562   1.947   5.219 -0.9365 -1.6737 -1.3261
12959TIP3   OH260367   3.216   3.630  11.232  0.2142 -0.1087  0.0847
12959TIP3    H160368   3.190   3.638  11.140  0.7734 -1.0930 -0.1659
12959TIP3    H260369   3.164   3.557  11.266  0.0902  0.1799  0.5342
12960TIP3   OH260370   6.689   1.293   0.504  0.8097 -0.5891 -0.2650
12960TIP3    H160371   6.740   1.321   0.428 -0.0917  0.0886 -0.6396
12960TIP3    H260372   6.604   1.267   0.468 -0.0569  0.8667  0.5882
12961TIP3   OH260373   0.189   0.539   4.789  0.5827 -0.4676  0.1307
12961TIP3    H160374   0.243   0.609   4.752  0.5680  0.4714  1.7772
12961TIP3    H260375   0.251   0.466   4.802  0.2516 -1.5282 -3.2544
12962TIP3   OH260376   3.765   0.450   5.657  0.0287  0.1944  0.1798
12962TIP3    H160377   3.802   0.538   5.667  0.5599  0.0096 -0.1414
12962TIP3    H260378   3.830   0.392   5.697 -0.6626  0.0028  1.0686
12963TIP3   OH260379   1.402   0.044   5.362 -0.3559  0.0735 -1.1332
12963TIP3    H160380   1.345  -0.027   5.332  1.6862 -1.3696 -1.7593
12963TIP3    H260381   1.415   0.025   5.455 -0.2542 -0.0536 -1.1731
12964TIP3   OH260382   6.276   6.457   2.552  0.1281  0.2093 -0.2346
12964TIP3    H160383   6.189   6.468   2.514  0.3008 -0.5509 -0.8671
12964TIP3    H260384   6.269   6.498   2.638 -0.2353  2.1081 -1.1066
12965TIP3   OH260385   4.625   3.927   5.995  0.2236 -0.4201  0.4342
12965TIP3    H160386   4.572   3.917   6.074 -0.3559  2.8250  0.5983
12965TIP3    H260387   4.715   3.908   6.025  0.0303  0.8203  1.9545
12966TIP3   OH260388   6.640   4.734  14.026 -0.1282 -0.4059 -0.1418
12966TIP3    H160389   6.548   4.745  14.050 -0.1292  2.3705 -1.0857
12966TIP3    H260390   6.653   4.792  13.951  2.6917  0.3318  0.7822
12967TIP3   OH260391   0.008   1.204   2.928  0.1266 -0.4635 -0.0284
12967TIP3    H160392   0.034   1.237   2.842 -0.8466  1.6093  0.4090
12967TIP3    H260393  -0.087   1.215   2.930  0.0915 -0.8639  1.1609
12968TIP3   OH260394   2.771   3.836  14.969 -0.1741  0.2880  0.1614
12968TIP3    H160395   2.784   3.825  14.875 -2.1395 -0.8291 -0.0370
12968TIP3    H260396   2.829   3.771  15.009 -0.1060  0.0457 -0.3240
12969TIP3   OH260397   2.120   4.896  14.671  0.0054 -0.3210  0.4580
12969TIP3    H160398   2.165   4.871  14.751 -0.7359 -0.1539  0.9350
12969TIP3    H260399   2.190   4.906  14.606  0.9321  2.1001  1.7195
12970TIP3   OH260400   4.456   0.143  13.192 -0.2279 -0.6066 -0.2862
12970TIP3    H160401   4.371   0.184  13.182  0.0658 -0.3316 -2.0332
12970TIP3    H260402   4.491   0.138  13.103  1.9314  0.0280  0.4528
12971TIP3   OH260403   0.035   2.869  16.734 -0.4158 -0.4359 -0.1257
12971TIP3    H160404   0.065   2.960  16.736 -0.7335 -0.3375  0.2440
12971TIP3    H260405  -0.048   2.872  16.686 -0.5876 -0.4804  0.1651
12972TIP3   OH260406   2.950   1.014  12.957 -0.2688 -0.6010  0.0726
12972TIP3    H160407   2.926   1.029  12.866  0.8692  0.6277 -0.0631
12972TIP3    H260408   2.872   0.975  12.997 -0.7631 -1.1873 -1.4172
12973TIP3   OH260409   1.821   2.658  16.174  0.1800  0.4443 -0.5049
12973TIP3    H160410   1.870   2.739  16.184  0.5071  0.3400 -1.1948
12973TIP3    H260411   1.830   2.614  16.259 -1.9558  2.1599  0.7143
12974TIP3   OH260412   0.910   4.908  10.606  0.3801 -0.4265  0.1917
12974TIP3    H160413   0.858   4.885  10.529  0.9550  1.2844 -0.7639
12974TIP3    H260414   1.001   4.895  10.578  0.5595 -1.4099  1.1657
12975TIP3   OH260415   5.436   4.776  16.162  0.2329  0.8282 -0.1027
12975TIP3    H160416   5.409   4.756  16.252 -1.6364 -0.2758 -0.8324
12975TIP3    H260417   5.512   4.720  16.147  0.1768  0.5537  0.5895
12976TIP3   OH260418   2.436   4.433  12.161  0.2032  0.5760 -0.1906
12976TIP3    H160419   2.474   4.359  12.114 -3.0206 -1.3307 -0.1285
12976TIP3    H260420   2.432   4.503  12.096  2.0254  0.2661 -0.6815
12977TIP3   OH260421   4.660   4.271  14.564  0.0547 -0.1974  0.0190
12977TIP3    H160422   4.624   4.225  14.487 -3.3667  0.6605  0.9453
12977TIP3    H260423   4.604   4.347  14.575  1.4142  0.5537  2.5019
12978TIP3   OH260424   6.414   0.973  14.918  0.2386 -0.5074 -0.3784
12978TIP3    H160425   6.353   0.934  14.979  1.2866 -0.8770  0.4667
12978TIP3    H260426   6.453   1.047  14.965  0.8145 -0.5931 -0.7012
12979TIP3   OH260427   2.233   3.571   2.223  0.3148 -0.4493  0.1600
12979TIP3    H160428   2.151   3.526   2.244 -0.3711  0.3312 -0.7569
12979TIP3    H260429   2.205   3.653   2.183  1.5551 -0.1640 -0.1427
12980TIP3   OH260430   2.148   6.796  11.588  0.1116 -0.0149 -0.9209
12980TIP3    H160431   2.132   6.777  11.496 -0.1756 -1.9221 -0.5291
12980TIP3    H260432   2.105   6.725  11.635  0.9848  0.4317  0.6419
12981TIP3   OH260433   1.170   5.362  12.501 -0.5940 -0.0501 -0.5575
12981TIP3    H160434   1.150   5.386  12.411 -0.0484 -1.4265 -1.0819
12981TIP3    H260435   1.193   5.269  12.496  0.2187  0.0420  0.8709
12982TIP3   OH260436   4.852   3.546  14.477 -0.6545 -0.1266  0.2078
12982TIP3    H160437   4.833   3.597  14.555 -1.3176 -0.8555  0.5290
12982TIP3    H260438   4.940   3.511  14.493 -1.1619 -1.0637  1.0773
12983TIP3   OH260439   4.884   1.931   4.397  0.2881 -0.0103  0.0315
12983TIP3    H160440   4.872   1.884   4.314 -0.0889 -1.2517  0.7605
12983TIP3    H260441   4.870   2.023   4.375  0.8637 -0.2476 -1.4094
12984TIP3   OH260442   5.876   4.534  14.614  0.0773 -0.6481  0.0027
12984TIP3    H160443   5.824   4.586  14.675  1.0984  2.0436 -1.2522
12984TIP3    H260444   5.812   4.486  14.562 -1.0966  1.0622 -0.1999
12985TIP3   OH260445   1.917   5.764  15.668 -0.9515 -0.3294 -0.0923
12985TIP3    H160446   1.939   5.692  15.609  0.3592  1.0492 -1.3624
12985TIP3    H260447   1.993   5.770  15.726 -0.1311  1.2197 -1.2494
12986TIP3   OH260448   1.634   4.891  12.683 -0.4117 -0.6241 -0.1558
12986TIP3    H160449   1.726   4.893  12.658 -0.0207  0.1689  1.2733
12986TIP3    H260450   1.589   4.860  12.604  1.0314 -0.7360 -0.9696
12987TIP3   OH260451   0.426   4.949   4.657  0.6251 -0.1907 -0.1050
12987TIP3    H160452   0.484   4.873   4.660  1.9225  0.7501 -0.2781
12987TIP3    H260453   0.449   4.994   4.576 -0.9766 -0.2328 -0.6188
12988TIP3   OH260454   6.059   6.078  14.350  0.5090 -0.3475 -0.7930
12988TIP3    H160455   6.101   6.128  14.280  2.9086  1.4308  1.7161
12988TIP3    H260456   6.096   6.113  14.431 -1.7097 -2.6365  1.4173
12989TIP3   OH260457   6.174   0.422  15.750  0.1778  0.4643  0.6296
12989TIP3    H160458   6.195   0.427  15.844  2.1129 -1.8716  0.4349
12989TIP3    H260459   6.259   0.433  15.706 -0.1694 -1.4841 -0.6581
12990TIP3   OH260460   0.664   5.975   5.214 -0.1698 -0.0239  0.1892
12990TIP3    H160461   0.741   6.025   5.241 -0.1079 -0.3039  0.5353
12990TIP3    H260462   0.624   5.946   5.295  0.3691 -1.4075 -0.0163
12991TIP3   OH260463   0.409   5.140   0.068 -0.6430 -0.2771 -0.0831
12991TIP3    H160464   0.462   5.220   0.071  0.9389 -1.2984 -0.2817
12991TIP3    H260465   0.353   5.152  -0.008  1.1250 -0.2662 -1.4396
12992TIP3   OH260466   1.337   1.128   4.580  0.9395  0.0404  0.0302
12992TIP3    H160467   1.390   1.167   4.649  2.0607  1.1679 -1.3914
12992TIP3    H260468   1.247   1.139   4.609  1.3994  0.1175  1.4791
12993TIP3   OH260469   2.229   3.478   0.218  0.0054  0.0872 -0.2666
12993TIP3    H160470   2.206   3.475   0.125 -1.6232 -0.3710  0.1191
12993TIP3    H260471   2.144   3.480   0.263  0.7743  0.1681  1.2167
12994TIP3   OH260472   2.668   1.048  13.079 -0.5768  0.0798 -0.0087
12994TIP3    H160473   2.627   0.965  13.054  0.2568 -0.5426  0.6465
12994TIP3    H260474   2.634   1.112  13.016 -2.1397 -0.5172  0.2017
12995TIP3   OH260475   0.877   4.881   6.495 -0.2212 -0.5255 -0.2126
12995TIP3    H160476   0.914   4.947   6.553  1.6163 -2.5592  1.0779
12995TIP3    H260477   0.801   4.847   6.544 -1.3135  0.7156 -0.9822
12996TIP3   OH260478   3.333   6.522  16.946  0.7144  0.9426  0.5852
12996TIP3    H160479   3.369   6.439  16.915 -1.1179  0.4634 -0.3335
12996TIP3    H260480   3.359   6.585  16.879 -0.1199  0.6022 -0.0699
12997TIP3   OH260481   0.716   4.315   3.327 -0.3273  0.2573  0.0843
12997TIP3    H160482   0.746   4.328   3.237  0.4448  1.0476  0.4397
12997TIP3    H260483   0.729   4.400   3.369  1.4049 -0.6597  1.5320
12998TIP3   OH260484   1.001   5.555  13.415  0.5387 -0.0785  0.5619
12998TIP3    H160485   0.978   5.646  13.401  0.2337 -0.4803 -2.2936
12998TIP3    H260486   0.919   5.507  13.399  1.3975 -0.9955 -1.5480
12999TIP3   OH260487   4.579   5.217   4.224  0.0160 -0.0351 -0.1066
12999TIP3    H160488   4.639   5.262   4.164 -2.0602 -0.3088 -2.5892
12999TIP3    H260489   4.497   5.265   4.216 -1.0332 -1.6213  0.5558
13000TIP3   OH260490   1.174   3.265   2.239  0.5615 -0.1229 -0.9091
13000TIP3    H160491   1.194   3.358   2.248  0.4843 -0.1278 -0.6822
13000TIP3    H260492   1.234   3.221   2.300  0.4663 -0.2059 -0.8743
13001TIP3   OH260493   2.692   6.698  13.984 -0.1960  0.3545 -0.1317
13001TIP3    H160494   2.764   6.743  14.027 -0.1872 -0.6304  0.9607
13001TIP3    H260495   2.698   6.723  13.892  1.8640 -0.1248 -0.1657
13002TIP3   OH260496   2.877   5.557   5.372  0.1200 -0.0245  0.5504
13002TIP3    H160497   2.821   5.596   5.305 -0.5575  0.1925  1.2344
13002TIP3    H260498   2.896   5.469   5.339 -0.3377  0.0234  0.1483
13003TIP3   OH260499   6.565   1.720  14.770 -0.0388 -0.4469  0.6417
13003TIP3    H160500   6.660   1.722  14.759 -0.2134 -0.0005 -1.0950
13003TIP3    H260501   6.545   1.794  14.827  0.6339 -0.3370  0.7345
13004TIP3   OH260502   5.546   4.077   4.369  0.0572 -0.6092  0.1124
13004TIP3    H160503   5.489   4.047   4.298  0.2299  1.9416 -1.1920
13004TIP3    H260504   5.616   4.125   4.325 -0.3881  1.9450  2.0088
13005TIP3   OH260505   1.854   6.026   4.838 -0.6670 -0.1351 -0.0229
13005TIP3    H160506   1.868   6.015   4.744 -0.3566  1.0248 -0.1270
13005TIP3    H260507   1.774   5.977   4.856 -1.5082  0.7798 -1.1534
13006TIP3   OH260508   0.299   3.205  11.321  0.5143 -0.1662  0.2314
13006TIP3    H160509   0.316   3.116  11.291 -0.7564  0.2428 -1.8994
13006TIP3    H260510   0.226   3.196  11.383 -1.3003 -0.4574 -1.8166
13007TIP3   OH260511   6.563   5.730  11.946  0.8677  0.0788 -1.0062
13007TIP3    H160512   6.547   5.822  11.925 -0.4519 -0.1681 -1.1153
13007TIP3    H260513   6.484   5.701  11.991  1.6991 -0.7267 -0.0281
13008TIP3   OH260514   5.984   6.802  15.977 -0.3761  0.3822  0.4353
13008TIP3    H160515   6.038   6.731  15.942  0.0172  0.3003  1.1785
13008TIP3    H260516   5.969   6.860  15.903 -2.0695 -1.2798 -0.6231
13009TIP3   OH260517   3.909   3.434   3.884 -0.7140 -0.8886 -0.1484
13009TIP3    H160518   3.913   3.404   3.793 -0.9007 -2.1897  0.2584
13009TIP3    H260519   3.996   3.416   3.919  0.0401  1.5072 -0.6076
13010TIP3   OH260520   3.497   3.561   2.680  0.1151  0.4513 -0.1998
13010TIP3    H160521   3.529   3.481   2.637 -1.3217  0.0289 -0.5535
13010TIP3    H260522   3.489   3.625   2.609  0.3027  0.5928 -0.0936
13011TIP3   OH260523   3.353   4.902   3.167 -0.0970  0.3183  0.3593
13011TIP3    H160524   3.431   4.873   3.215 -0.5715  0.3636  1.1764
13011TIP3    H260525   3.370   4.878   3.076  0.1286 -1.2559  0.7843
13012TIP3   OH260526   6.248   0.372   4.056 -0.2284  0.5449 -0.0891
13012TIP3    H160527   6.330   0.355   4.103 -0.4447  0.3921  0.2368
13012TIP3    H260528   6.274   0.378   3.964  0.3202  1.6693  0.1193
13013TIP3   OH260529   3.112   0.298  12.469 -0.2880  0.3267 -0.0167
13013TIP3    H160530   3.090   0.233  12.536 -0.9160 -0.1507 -0.6749
13013TIP3    H260531   3.187   0.260  12.423 -0.6350  0.0749 -0.3802
13014TIP3   OH260532   4.394   5.673  14.810 -0.0965  0.3440 -0.3437
13014TIP3    H160533   4.439   5.758  14.813 -0.3286  0.4402  0.6451
13014TIP3    H260534   4.362   5.667  14.720 -0.2876  1.4156 -0.3648
13015TIP3   OH260535   3.163   1.521   3.842  0.0546 -0.1512  0.0089
13015TIP3    H160536   3.248   1.564   3.847  1.9775 -3.6745  3.3251
13015TIP3    H260537   3.177   1.448   3.780 -0.9469 -0.0724 -0.3208
13016TIP3   OH260538   3.437   4.920   1.594 -0.1873 -0.2566 -0.4732
13016TIP3    H160539   3.496   4.976   1.544  0.1815 -0.5578 -0.3838
13016TIP3    H260540   3.411   4.851   1.532 -0.0952 -0.3706 -0.3861
13017TIP3   OH260541   2.046   1.279   3.252  0.2450 -0.4887 -0.1667
13017TIP3    H160542   1.997   1.230   3.186  1.2731 -1.5385 -0.1942
13017TIP3    H260543   2.125   1.309   3.205 -0.2766  1.0712 -0.1022
13018TIP3   OH260544   4.111   1.783   1.619  0.2971 -0.3516 -0.3379
13018TIP3    H160545   4.179   1.842   1.587  1.0509 -1.4450 -0.8110
13018TIP3    H260546   4.060   1.760   1.542 -0.3441  0.1021 -0.0598
13019TIP3   OH260547   3.840   1.988  14.825  0.0509 -0.0484  0.3156
13019TIP3    H160548   3.912   2.019  14.879  1.4296 -1.9988 -0.2706
13019TIP3    H260549   3.849   2.036  14.743  0.0509  0.4578  0.6104
13020TIP3   OH260550   6.640   6.234  13.231  0.1582  0.1028  0.3208
13020TIP3    H160551   6.707   6.240  13.163  0.0346 -0.3534  0.1535
13020TIP3    H260552   6.601   6.147  13.218  1.6468 -0.9656  2.3661
13021TIP3   OH260553   5.535   4.465  12.115 -0.2884 -0.1922  0.4675
13021TIP3    H160554   5.521   4.397  12.049 -1.6501  0.2767  0.2506
13021TIP3    H260555   5.620   4.504  12.092  0.3030 -1.5002  0.3377
13022TIP3   OH260556   3.114   6.452   1.382  0.1221 -0.3912 -0.1000
13022TIP3    H160557   3.030   6.467   1.426 -0.8287  1.3905 -2.2923
13022TIP3    H260558   3.179   6.496   1.436  0.0636 -3.2515  2.5777
13023TIP3   OH260559   1.425   5.710  16.975 -0.4738  0.3944  0.1227
13023TIP3    H160560   1.421   5.625  16.931  2.3423 -0.0143  0.4771
13023TIP3    H260561   1.463   5.769  16.911 -0.6601  0.9346  0.5021
13024TIP3   OH260562   4.928   0.561   2.469 -0.2437  0.0892 -0.1738
13024TIP3    H160563   4.929   0.480   2.520 -1.3688  1.0270  1.4356
13024TIP3    H260564   4.849   0.606   2.498 -0.6003  0.9738 -2.3505
13025TIP3   OH260565   0.474   3.754   2.084  0.4416 -0.0734 -0.8164
13025TIP3    H160566   0.548   3.730   2.029  0.9190 -1.8175  0.5079
13025TIP3    H260567   0.501   3.835   2.127  1.8127 -0.9614  0.0512
13026TIP3   OH260568   4.434   1.643  13.682 -0.4261  0.0314 -0.2479
13026TIP3    H160569   4.392   1.655  13.597  0.0835 -1.0012 -0.6697
13026TIP3    H260570   4.371   1.593  13.733 -0.9943  1.1985  0.2092
13027TIP3   OH260571   2.431   3.461  15.463  0.2951 -0.2155  0.1863
13027TIP3    H160572   2.349   3.442  15.418 -0.1922 -0.7348  1.2488
13027TIP3    H260573   2.488   3.498  15.396 -0.6397 -0.3159 -0.6787
13028TIP3   OH260574   6.795   3.717  12.587 -0.3816  0.3762 -0.0049
13028TIP3    H160575   6.874   3.685  12.542 -0.6745 -0.6002  0.1557
13028TIP3    H260576   6.764   3.789  12.532  1.3097  1.6289  0.5823
13029TIP3   OH260577   1.637   0.104   4.212  0.6258  0.4100 -0.6942
13029TIP3    H160578   1.652   0.180   4.267  2.0305 -1.0088  1.0185
13029TIP3    H260579   1.584   0.045   4.266 -1.8336  0.7397 -2.5664
13030TIP3   OH260580   2.053   3.169  11.119  0.5585  0.1285  0.1332
13030TIP3    H160581   1.986   3.213  11.171  0.4094 -0.3392  0.3426
13030TIP3    H260582   2.020   3.173  11.029 -0.3756 -1.1844  0.3786
13031TIP3   OH260583   6.709   1.752   0.768  0.1079  0.0261  0.4334
13031TIP3    H160584   6.734   1.821   0.707 -2.9147  0.7979 -0.1074
13031TIP3    H260585   6.669   1.797   0.842  0.7590 -1.0597  1.5006
13032TIP3   OH260586   5.049   0.669  10.429 -0.0524 -0.3572 -0.1771
13032TIP3    H160587   5.026   0.751  10.473 -0.0071 -0.1179 -0.5978
13032TIP3    H260588   5.129   0.689  10.380 -1.3873  0.0864 -2.3199
13033TIP3   OH260589   1.928   3.847   1.657 -0.6091  0.2861  0.3887
13033TIP3    H160590   1.836   3.871   1.644 -0.5591  0.5161  0.4455
13033TIP3    H260591   1.952   3.801   1.576 -0.3376  1.6067 -0.3229
13034TIP3   OH260592   3.758   2.325  15.653 -0.0276  0.5234  0.0036
13034TIP3    H160593   3.811   2.317  15.733  0.0837  0.3027 -0.0910
13034TIP3    H260594   3.668   2.324  15.684  0.0104  0.1189  0.1008
13035TIP3   OH260595   3.656   2.850   0.764  0.2594  0.3486  0.1926
13035TIP3    H160596   3.675   2.932   0.719 -0.2712 -0.0968 -0.8779
13035TIP3    H260597   3.600   2.802   0.704  0.4193 -0.7339  0.8753
13036TIP3   OH260598   6.187   0.522   0.364 -0.4922 -0.3326 -0.3159
13036TIP3    H160599   6.124   0.488   0.300  0.0738  0.4228 -1.2961
13036TIP3    H260600   6.244   0.447   0.383 -1.2416 -0.8177  0.0210
13037TIP3   OH260601   4.860   3.013  12.199  0.2772  0.3893 -0.2797
13037TIP3    H160602   4.848   2.921  12.221  0.4464  0.6549  0.9830
13037TIP3    H260603   4.892   3.053  12.279 -0.6229  1.7277 -0.5522
13038TIP3   OH260604   2.393   1.666  15.039 -1.0260  0.1265  0.0418
13038TIP3    H160605   2.356   1.663  14.950  0.7652  2.0364 -0.8658
13038TIP3    H260606   2.485   1.643  15.028 -1.0487 -0.8870  1.6508
13039TIP3   OH260607   2.152   2.133  16.119 -0.0593  0.9063  0.4138
13039TIP3    H160608   2.081   2.077  16.090  0.4881 -0.4217  1.5149
13039TIP3    H260609   2.218   2.127  16.050  1.3892 -2.5069  1.8573
13040TIP3   OH260610   1.443   0.586   3.114  0.5073 -0.0360 -0.0630
13040TIP3    H160611   1.378   0.642   3.157 -0.3964 -1.6998  0.8168
13040TIP3    H260612   1.409   0.575   3.024  0.0488 -0.1429  0.1195
13041TIP3   OH260613   3.585   3.863  10.417 -0.0547  0.5534 -0.7387
13041TIP3    H160614   3.655   3.827  10.362 -0.4282 -0.1382 -0.7696
13041TIP3    H260615   3.517   3.797  10.416 -0.6546  1.1562 -0.5787
13042TIP3   OH260616   5.787   6.740   3.860  0.0948  0.0333  0.4577
13042TIP3    H160617   5.782   6.833   3.881  2.3694  0.1817  0.5346
13042TIP3    H260618   5.859   6.733   3.797 -0.7100 -1.5596 -0.3411
13043TIP3   OH260619   4.316   0.763   6.366 -0.0626 -0.4444  0.2674
13043TIP3    H160620   4.279   0.675   6.376  0.2795 -0.5101  1.0086
13043TIP3    H260621   4.407   0.753   6.393 -0.3721  0.4275  1.7129
13044TIP3   OH260622   3.587   0.239  11.886 -0.3616 -0.1865  0.5864
13044TIP3    H160623   3.517   0.175  11.879 -0.0083 -0.4237 -1.0962
13044TIP3    H260624   3.542   0.324  11.888 -0.7609 -0.4034  1.4907
13045TIP3   OH260625   5.718   2.188   4.650 -0.6191  0.2989 -0.1663
13045TIP3    H160626   5.805   2.161   4.621 -0.9619  0.6204 -1.5916
13045TIP3    H260627   5.667   2.107   4.653 -1.1705  0.4683 -2.7175
13046TIP3   OH260628   4.465   5.238   5.788 -0.7954  0.3657 -0.4208
13046TIP3    H160629   4.416   5.293   5.727 -1.7984  1.2006  1.0771
13046TIP3    H260630   4.534   5.295   5.823 -0.3735 -0.0375 -0.5708
13047TIP3   OH260631   2.798   6.202   2.605 -0.1397 -0.0829 -0.4905
13047TIP3    H160632   2.777   6.110   2.624 -0.8993  0.3308  0.8081
13047TIP3    H260633   2.882   6.216   2.650  0.4896 -0.3925 -1.5328
13048TIP3   OH260634   5.314   6.392  16.163 -0.0529  0.1378 -0.1067
13048TIP3    H160635   5.390   6.414  16.110 -0.0972 -0.3173 -0.3625
13048TIP3    H260636   5.351   6.354  16.243 -0.0127 -0.0797 -0.2290
13049TIP3   OH260637   1.441   3.528  10.113  0.3888 -0.0416  0.0117
13049TIP3    H160638   1.360   3.579  10.111 -0.1258 -0.6354  2.6385
13049TIP3    H260639   1.432   3.470  10.189  2.6750 -1.1651 -0.4698
13050TIP3   OH260640   4.160   5.145  14.629 -0.6565  0.8706 -0.1872
13050TIP3    H160641   4.217   5.219  14.647 -2.3965  2.3143 -0.2955
13050TIP3    H260642   4.086   5.183  14.582 -1.4178 -1.0169 -0.6050
13051TIP3   OH260643   5.485   5.407   5.418 -0.6923  0.2164  0.4500
13051TIP3    H160644   5.520   5.454   5.343 -0.9354  0.5503  0.5445
13051TIP3    H260645   5.508   5.460   5.494 -1.2717  0.3709  0.5261
13052TIP3   OH260646   4.044   1.044  12.063 -0.4920 -0.0389 -0.6930
13052TIP3    H160647   3.992   1.095  12.000 -0.8548  0.2341 -0.1748
13052TIP3    H260648   4.076   0.970  12.012 -1.4905 -0.2804 -0.9943
13053TIP3   OH260649   2.763   3.493  13.427 -0.0870  0.1930  0.6612
13053TIP3    H160650   2.822   3.492  13.503  0.1810 -0.4743  0.4512
13053TIP3    H260651   2.816   3.530  13.356  0.3910 -1.2152  0.2446
13054TIP3   OH260652   4.721   0.992   3.893  0.1154 -0.0564  0.3944
13054TIP3    H160653   4.626   0.992   3.898 -0.0045 -0.2012 -1.1753
13054TIP3    H260654   4.751   0.982   3.983 -1.3347  1.1433  1.0328
13055TIP3   OH260655   2.375   0.405   1.954 -0.2592 -0.6279 -0.6788
13055TIP3    H160656   2.440   0.476   1.955  0.3588 -1.1941  0.1244
13055TIP3    H260657   2.405   0.347   1.883 -0.0957 -0.6990 -0.5516
13056TIP3   OH260658   1.601   5.182   2.202 -0.0265  0.2195  0.1370
13056TIP3    H160659   1.683   5.226   2.226  0.5763 -0.9445  0.2955
13056TIP3    H260660   1.550   5.179   2.283  0.2243  0.0385  0.2922
13057TIP3   OH260661   0.769   3.676  12.366  0.2223  0.2648 -0.1029
13057TIP3    H160662   0.731   3.600  12.411  0.5109 -1.2291 -2.2498
13057TIP3    H260663   0.834   3.710  12.427  1.0750 -2.0853  0.3864
13058TIP3   OH260664   2.682   4.153   3.701  0.5663  0.4874  0.0037
13058TIP3    H160665   2.672   4.065   3.665  0.1653  0.5382 -0.0169
13058TIP3    H260666   2.747   4.144   3.770  0.1479  0.0698  0.3513
13059TIP3   OH260667   4.733   0.622  13.157  0.4854 -0.0561 -0.1248
13059TIP3    H160668   4.797   0.574  13.209 -1.2353 -2.8678 -0.4003
13059TIP3    H260669   4.785   0.667  13.091  2.3331 -0.4082  1.0382
13060TIP3   OH260670   6.635   6.613   4.177  0.2705 -0.4234  0.7777
13060TIP3    H160671   6.728   6.598   4.160  0.0141 -1.7098  0.3681
13060TIP3    H260672   6.591   6.560   4.110 -0.7544  0.0656  1.0584
13061TIP3   OH260673   0.428   0.300  13.245  0.2248 -1.0048  0.0999
13061TIP3    H160674   0.519   0.303  13.215  0.2986 -0.9785  0.3238
13061TIP3    H260675   0.409   0.207  13.256  0.1669 -1.0193 -0.1207
13062TIP3   OH260676   2.379   3.326   2.524  0.7000  0.4465 -0.3629
13062TIP3    H160677   2.412   3.379   2.452 -0.4913  1.5064 -0.1546
13062TIP3    H260678   2.290   3.358   2.539  0.3995 -0.7614  0.6046
13063TIP3   OH260679   4.514   6.426  15.189 -0.2851 -0.2828 -0.4653
13063TIP3    H160680   4.601   6.428  15.230 -0.2386 -1.0734 -0.5115
13063TIP3    H260681   4.528   6.381  15.106 -0.9522 -1.5239  0.0754
13064TIP3   OH260682   2.771   5.755  14.335 -0.6670 -0.3879  0.1061
13064TIP3    H160683   2.739   5.733  14.248 -0.1816 -0.7550  0.0162
13064TIP3    H260684   2.816   5.676  14.365  1.9032  0.6938 -0.5869
13065TIP3   OH260685   3.379   5.821  16.627 -0.1959  0.7722  0.0157
13065TIP3    H160686   3.296   5.802  16.670 -0.6770  2.5016 -0.0508
13065TIP3    H260687   3.361   5.899  16.574  1.4953  1.2738  0.1154
13066TIP3   OH260688   1.839   4.881   0.571  0.0108 -0.6579 -0.4942
13066TIP3    H160689   1.826   4.936   0.648  0.9707  1.0797 -1.4847
13066TIP3    H260690   1.873   4.799   0.605 -0.5430 -0.2938  0.9917
13067TIP3   OH260691   3.632   2.834   6.103  0.8906 -0.4919 -0.0010
13067TIP3    H160692   3.624   2.844   6.198 -0.6537  0.3227 -0.1905
13067TIP3    H260693   3.719   2.796   6.091  0.9096 -1.1271  1.7671
13068TIP3   OH260694   4.971   5.935   1.051 -0.6166 -0.2470 -0.0069
13068TIP3    H160695   5.019   5.888   1.119  0.6221  0.3314 -0.4467
13068TIP3    H260696   4.894   5.970   1.096  0.1276  0.0506  1.0940
13069TIP3   OH260697   1.190   0.387  14.718 -0.6806 -0.0351 -0.1607
13069TIP3    H160698   1.271   0.418  14.678 -0.2734  0.7095  1.1607
13069TIP3    H260699   1.193   0.422  14.807 -3.8118  2.5803 -0.8697
13070TIP3   OH260700   5.487   0.134  12.247 -0.3040  0.1186  0.5059
13070TIP3    H160701   5.530   0.086  12.318 -1.5538 -2.0530 -0.1030
13070TIP3    H260702   5.396   0.144  12.275 -0.7392 -0.4790 -0.6084
13071TIP3   OH260703   0.495   1.153  11.734 -0.8016 -0.3472  0.2883
13071TIP3    H160704   0.524   1.065  11.709  0.4630  0.1930 -0.2746
13071TIP3    H260705   0.409   1.141  11.774 -0.4690 -1.8795  0.5751
13072TIP3   OH260706   5.367   6.731   2.461 -0.1163 -0.3377  0.4523
13072TIP3    H160707   5.457   6.728   2.492  0.0784 -0.1481 -0.0983
13072TIP3    H260708   5.320   6.669   2.517  0.2091  0.0849  1.2117
13073TIP3   OH260709   0.386   0.804  13.980 -0.3085 -0.0209 -0.1646
13073TIP3    H160710   0.316   0.864  14.004 -0.8802 -0.9351  0.5069
13073TIP3    H260711   0.441   0.799  14.059 -0.4170 -0.5830 -0.1245
13074TIP3   OH260712   6.512   0.814   3.552 -0.4742  0.0240  0.1478
13074TIP3    H160713   6.571   0.752   3.511  1.7735  1.2244  1.3653
13074TIP3    H260714   6.490   0.877   3.483 -0.3669 -0.4563 -0.3231
13075TIP3   OH260715   1.229   0.742  15.258  0.4266  0.5236 -0.1848
13075TIP3    H160716   1.210   0.766  15.348  0.0522  1.3144 -0.4664
13075TIP3    H260717   1.307   0.687  15.264  0.3023  0.4214  0.6308
13076TIP3   OH260718   0.807   5.336  13.391 -0.1498 -0.5510  0.0633
13076TIP3    H160719   0.826   5.297  13.477 -1.1591 -0.2651  0.4215
13076TIP3    H260720   0.722   5.301  13.367 -0.6012  0.6261 -0.0892
13077TIP3   OH260721   4.250   0.849   4.387 -0.4292 -0.4689  0.2193
13077TIP3    H160722   4.174   0.817   4.435 -0.5455 -0.6820 -0.1043
13077TIP3    H260723   4.299   0.900   4.451 -0.4366 -0.9815  0.6406
13078TIP3   OH260724   2.877   5.076  14.192  0.2543 -0.0569 -0.6009
13078TIP3    H160725   2.806   5.057  14.254  1.4597 -1.0919  0.5105
13078TIP3    H260726   2.914   5.159  14.223 -0.5066  0.5455 -1.2510
13079TIP3   OH260727   1.224   1.628   1.299 -0.5921 -0.0447  0.0274
13079TIP3    H160728   1.155   1.567   1.272 -1.0503  0.0626  0.9159
13079TIP3    H260729   1.199   1.654   1.387  1.2032 -0.9065  0.8349
13080TIP3   OH260730   1.336   5.667  16.400  0.2755  0.2440  0.2272
13080TIP3    H160731   1.265   5.646  16.461 -0.4252  2.2111  0.1544
13080TIP3    H260732   1.299   5.734  16.343  1.4204 -0.4587 -1.4150
13081TIP3   OH260733   0.457   6.367  13.716  0.0632 -0.4975  0.1194
13081TIP3    H160734   0.445   6.335  13.805  0.3016  0.8486  0.6635
13081TIP3    H260735   0.547   6.341  13.693 -0.4767 -2.0933 -0.2927
13082TIP3   OH260736   0.503   2.436   5.342 -0.2953 -0.8626  0.3988
13082TIP3    H160737   0.582   2.478   5.310 -1.2999 -0.0705 -1.1946
13082TIP3    H260738   0.465   2.499   5.403 -1.0756 -0.0099 -0.9233
13083TIP3   OH260739   4.005   0.785   5.176  0.7762 -0.1010 -0.2663
13083TIP3    H160740   4.062   0.774   5.252  1.2807  1.4077 -0.3801
13083TIP3    H260741   3.970   0.698   5.159  1.5676 -0.6932  0.9750
13084TIP3   OH260742   5.073   2.604  13.711  0.0524  0.6467  0.2856
13084TIP3    H160743   5.025   2.547  13.651  0.8959  0.6547 -0.4105
13084TIP3    H260744   5.011   2.674  13.733 -0.4593  0.3153 -0.1037
13085TIP3   OH260745   3.150   6.649  10.488 -0.0515  0.7569 -0.2767
13085TIP3    H160746   3.095   6.710  10.537  0.5613  1.1415 -0.0515
13085TIP3    H260747   3.089   6.596  10.437 -0.7076  0.3871  0.8540
13086TIP3   OH260748   3.289   1.501   3.555 -0.6325 -0.1439 -0.1904
13086TIP3    H160749   3.372   1.547   3.569  0.0035 -1.4275  0.3633
13086TIP3    H260750   3.255   1.540   3.474  1.0442 -0.3497 -1.0527
13087TIP3   OH260751   0.480   1.109  10.977  0.0043 -0.5618 -0.1092
13087TIP3    H160752   0.478   1.027  11.027  0.4392 -0.7802 -0.4399
13087TIP3    H260753   0.398   1.153  11.000 -1.1662 -1.9515 -1.3534
13088TIP3   OH260754   5.820   5.394   4.351 -0.0875 -0.0167  0.5699
13088TIP3    H160755   5.739   5.351   4.324  0.1211  0.4702 -0.9061
13088TIP3    H260756   5.814   5.482   4.313  1.6175 -0.3286 -0.4951
13089TIP3   OH260757   6.501   3.624  12.455 -0.4378 -0.1641 -0.2766
13089TIP3    H160758   6.540   3.583  12.532  0.7538  1.5235  0.0656
13089TIP3    H260759   6.567   3.686  12.425 -1.4366  0.1790 -1.8700
13090TIP3   OH260760   2.796   4.883   3.426  0.2497  0.1243  0.4253
13090TIP3    H160761   2.794   4.878   3.331 -3.1659 -2.7977  0.4206
13090TIP3    H260762   2.709   4.852   3.453  1.2376  0.3508  4.5199
13091TIP3   OH260763   6.016   0.809   5.594  0.1145  0.5210 -0.4813
13091TIP3    H160764   5.938   0.798   5.649 -0.3567 -1.6149 -1.4646
13091TIP3    H260765   6.067   0.877   5.637 -1.2809  0.4635  1.3659
13092TIP3   OH260766   0.855   1.712   3.429  0.4381  0.2924 -0.0670
13092TIP3    H160767   0.922   1.776   3.406  0.1114  1.0165  0.9621
13092TIP3    H260768   0.859   1.706   3.524  2.6137 -3.5156 -0.1491
13093TIP3   OH260769   4.920   3.551  12.712  0.0974  0.5162  0.1291
13093TIP3    H160770   4.849   3.605  12.746  1.6677  3.7871 -1.3207
13093TIP3    H260771   4.999   3.586  12.754  1.7557  2.7673 -4.1369
13094TIP3   OH260772   4.962   0.728  14.613  0.7435 -0.1296 -0.3100
13094TIP3    H160773   4.980   0.813  14.572  0.9259 -0.9730 -2.0872
13094TIP3    H260774   5.047   0.683  14.611  0.8811 -0.0164  1.5373
13095TIP3   OH260775   5.824   6.082  16.217 -0.1947 -0.0131  0.3943
13095TIP3    H160776   5.913   6.054  16.196 -0.0226 -0.6461  1.8581
13095TIP3    H260777   5.769   6.010  16.188  0.0434 -0.8916  2.0172
13096TIP3   OH260778   5.440   5.651  15.053 -0.4630  0.1326 -0.2273
13096TIP3    H160779   5.449   5.581  14.988  1.0009 -0.3020  0.3917
13096TIP3    H260780   5.492   5.724  15.018 -1.1697  0.5621 -0.3987
13097TIP3   OH260781   0.038   6.287  15.535 -0.2137  0.6031 -0.4183
13097TIP3    H160782  -0.019   6.290  15.613 -1.3204 -3.1410 -0.8591
13097TIP3    H260783   0.119   6.328  15.563 -1.4722  1.7914  1.8222
13098TIP3   OH260784   5.558   1.465  15.187 -0.3471 -0.2259 -0.3096
13098TIP3    H160785   5.553   1.542  15.242 -1.3195 -0.0578 -0.6075
13098TIP3    H260786   5.635   1.479  15.132  1.3659 -0.9481  1.7620
13099TIP3   OH260787   6.330   4.193  11.264  0.0014 -0.2058 -0.0445
13099TIP3    H160788   6.392   4.180  11.192  0.2651  1.2321 -0.1136
13099TIP3    H260789   6.254   4.139  11.241  1.3410 -2.3380  0.2415
13100TIP3   OH260790   2.923   1.431   0.435 -0.4284  0.0577 -0.1863
13100TIP3    H160791   2.886   1.462   0.518  0.6747 -0.2001  0.4211
13100TIP3    H260792   2.991   1.368   0.461  0.3382  0.4147 -1.2543
13101TIP3   OH260793   4.510   2.896   0.410 -0.0507 -0.1450 -0.3359
13101TIP3    H160794   4.499   2.987   0.382 -0.0802 -0.4044 -1.2027
13101TIP3    H260795   4.548   2.852   0.334 -2.3745 -1.4114 -0.8697
13102TIP3   OH260796   0.238   5.927   3.307  0.2525 -0.1152 -0.4712
13102TIP3    H160797   0.301   5.911   3.237  1.2574  3.1052 -0.4631
13102TIP3    H260798   0.160   5.961   3.262 -0.6688 -1.8844 -0.2885
13103TIP3   OH260799   3.833   0.404  15.665  0.2334  0.0405 -0.7146
13103TIP3    H160800   3.783   0.324  15.676  0.1615  0.2556  0.7907
13103TIP3    H260801   3.817   0.453  15.746  0.4774  1.4561 -1.4956
13104TIP3   OH260802   4.672   2.527   2.701  0.2027  0.6729 -0.1418
13104TIP3    H160803   4.748   2.491   2.746  0.4779  1.7769  0.3065
13104TIP3    H260804   4.597   2.490   2.747  0.4037 -1.2360 -1.2197
13105TIP3   OH260805   3.294   1.916  14.475  0.4221  0.0287  0.4917
13105TIP3    H160806   3.228   1.846  14.478  1.7266 -1.2317  0.8992
13105TIP3    H260807   3.267   1.976  14.545  1.4103 -2.1226  2.8745
13106TIP3   OH260808   2.743   5.700  16.294 -0.1037  0.2821 -0.0036
13106TIP3    H160809   2.664   5.742  16.260 -0.6818 -1.6012 -1.1482
13106TIP3    H260810   2.756   5.740  16.380 -2.0793  0.9351  0.0530
13107TIP3   OH260811   5.786   6.424  16.928 -0.7347  0.1542  0.5650
13107TIP3    H160812   5.709   6.415  16.985  0.6911 -1.7283  2.3629
13107TIP3    H260813   5.824   6.508  16.952 -2.1168  1.0401 -0.2459
13108TIP3   OH260814   1.540   4.979  11.523  0.1117 -0.4646 -0.0642
13108TIP3    H160815   1.487   4.965  11.445 -1.8132  1.7540  0.7033
13108TIP3    H260816   1.630   4.984  11.492 -0.6265  0.5248 -2.1766
13109TIP3   OH260817   4.910   0.666  11.843  0.5455  0.0942 -0.1415
13109TIP3    H160818   4.915   0.676  11.748 -0.5228 -0.9295 -0.3330
13109TIP3    H260819   5.001   0.659  11.871  0.8896  0.7902 -1.0346
13110TIP3   OH260820   1.355   3.724  14.204 -0.3612 -0.1545  0.5537
13110TIP3    H160821   1.357   3.736  14.109  0.3695  0.1551  0.6036
13110TIP3    H260822   1.432   3.671  14.223 -0.8035 -0.6749  0.9184
13111TIP3   OH260823   2.684   5.317  16.497  0.2216 -0.1147  0.3894
13111TIP3    H160824   2.648   5.231  16.521 -0.0491 -0.1554 -0.1246
13111TIP3    H260825   2.720   5.303  16.409  1.1633  0.0242  0.7451
13112TIP3   OH260826   4.484   3.773  12.496 -0.0005  0.2983  0.1073
13112TIP3    H160827   4.455   3.846  12.441  1.2341 -1.0062 -2.4474
13112TIP3    H260828   4.444   3.696  12.456  2.9710 -0.9831 -0.6661
13113TIP3   OH260829   4.020   3.355   3.657 -0.3361  0.3442  0.0977
13113TIP3    H160830   3.966   3.319   3.587 -0.1817  1.1568 -0.4541
13113TIP3    H260831   4.104   3.373   3.615 -0.0433  0.2520  0.6450
13114TIP3   OH260832   2.917   6.021   0.588 -0.8018  0.3154 -0.4454
13114TIP3    H160833   2.883   5.941   0.550 -1.9153  0.4744  0.1784
13114TIP3    H260834   2.942   6.075   0.513  0.1587 -0.6764 -0.8648
13115TIP3   OH260835   2.366   3.944   1.901 -0.7752 -0.4568  0.0692
13115TIP3    H160836   2.382   4.038   1.906  0.4373 -0.7092  1.4342
13115TIP3    H260837   2.270   3.936   1.904 -1.0055  0.7761 -1.9014
13116TIP3   OH260838   6.365   3.819  15.916 -0.3389 -0.0426  0.4250
13116TIP3    H160839   6.294   3.839  15.978 -1.8576 -0.7722 -1.0111
13116TIP3    H260840   6.342   3.734  15.879  1.4931 -0.4720  0.1436
13117TIP3   OH260841   2.892   2.312   1.782  0.7352 -0.3548  0.1658
13117TIP3    H160842   2.812   2.309   1.730  0.8407  0.3698 -0.0500
13117TIP3    H260843   2.954   2.361   1.728  0.6725  0.8968  1.1871
13118TIP3   OH260844   1.885   5.230  12.606 -0.5172 -0.1168  0.0216
13118TIP3    H160845   1.842   5.292  12.665 -0.9348  0.0456 -0.4503
13118TIP3    H260846   1.917   5.160  12.664  0.5371  0.8426  0.6443
13119TIP3   OH260847   2.296   5.170   3.828 -0.0630  0.2319 -0.1278
13119TIP3    H160848   2.336   5.255   3.848 -0.3455  0.4070 -0.2881
13119TIP3    H260849   2.202   5.189   3.820 -0.3122 -0.3460  1.2272
13120TIP3   OH260850   5.805   6.586   5.044  0.0800 -0.1014  0.3114
13120TIP3    H160851   5.870   6.611   4.980  0.2861 -0.7433  0.2609
13120TIP3    H260852   5.833   6.500   5.075 -2.6067 -2.1138 -2.3027
13121TIP3   OH260853   1.096   4.287   0.213 -0.0621  0.4422 -0.0538
13121TIP3    H160854   1.176   4.296   0.160 -0.4050 -0.9980 -0.8900
13121TIP3    H260855   1.047   4.217   0.170 -0.4861 -0.6285  2.0399
13122TIP3   OH260856   3.543   2.515  16.146 -0.0694 -0.5006  0.1615
13122TIP3    H160857   3.491   2.518  16.065  0.2823 -1.0187 -0.0933
13122TIP3    H260858   3.601   2.591  16.140 -0.1236 -0.4722 -0.0233
13123TIP3   OH260859   5.908   0.686  15.256  0.1822  0.2781 -0.2020
13123TIP3    H160860   5.943   0.601  15.285 -0.9303  0.3394  1.4653
13123TIP3    H260861   5.946   0.749  15.318 -0.0723  0.8134 -0.5874
13124TIP3   OH260862   2.648   0.673   1.313 -1.0931  0.1851 -0.3492
13124TIP3    H160863   2.727   0.620   1.326 -2.4023 -1.3768  1.8197
13124TIP3    H260864   2.633   0.672   1.219  1.7677  1.0635 -0.9202
13125TIP3   OH260865   1.801   3.987  15.705  0.4934 -0.0332  0.1311
13125TIP3    H160866   1.755   4.070  15.693 -0.9388 -0.9923 -1.3065
13125TIP3    H260867   1.735   3.920  15.691  1.9343 -1.4561 -0.1736
13126TIP3   OH260868   5.746   6.216   1.059 -0.1391  0.1046  0.5606
13126TIP3    H160869   5.665   6.267   1.055 -0.1024  0.1290 -2.6675
13126TIP3    H260870   5.813   6.280   1.083 -0.7007  0.6496  0.7042
13127TIP3   OH260871   2.230   2.961  14.841  0.2927  0.1071  0.2391
13127TIP3    H160872   2.301   3.002  14.792  1.0698  1.2248  2.1578
13127TIP3    H260873   2.199   3.030  14.899 -0.2629 -1.2375  1.6191
13128TIP3   OH260874   1.096   6.303  16.684 -0.2571 -0.3954  0.5943
13128TIP3    H160875   1.169   6.250  16.652 -0.6233 -1.2557  1.1506
13128TIP3    H260876   1.132   6.351  16.759  0.0021 -0.0572  0.2554
13129TIP3   OH260877   0.881   3.182  15.007 -0.3983  0.4836 -0.1234
13129TIP3    H160878   0.892   3.270  15.044 -1.4184  0.4852  0.1851
13129TIP3    H260879   0.971   3.153  14.990 -0.0724  1.9143 -1.0282
13130TIP3   OH260880   2.140   5.060   5.507  0.1617 -0.3552 -0.2582
13130TIP3    H160881   2.151   4.967   5.528 -0.2555 -0.4470 -0.4456
13130TIP3    H260882   2.081   5.092   5.575  1.2827  0.0569  0.5370
13131TIP3   OH260883   1.120   4.068  11.158 -0.1640 -0.2137  0.4701
13131TIP3    H160884   1.137   4.154  11.120 -1.4377 -0.1418  0.0077
13131TIP3    H260885   1.200   4.018  11.139  0.0151  0.4197 -0.5818
13132TIP3   OH260886   1.240   2.243   3.135  0.1212 -0.4951 -0.3621
13132TIP3    H160887   1.302   2.255   3.064 -0.1252 -0.6325 -0.6002
13132TIP3    H260888   1.179   2.176   3.104  0.4825 -1.1359  0.2931
13133TIP3   OH260889   6.805   6.676  14.251 -0.3312  0.1838  0.7130
13133TIP3    H160890   6.821   6.750  14.310  0.6096 -1.1649  2.2435
13133TIP3    H260891   6.830   6.709  14.165 -2.6784  2.5423  0.7842
13134TIP3   OH260892   4.571   1.825   3.796  0.7424  0.5668  0.1852
13134TIP3    H160893   4.643   1.846   3.737  0.9509 -0.3395  0.1101
13134TIP3    H260894   4.542   1.910   3.830  1.2266  1.0124 -0.5045
13135TIP3   OH260895   4.409   0.819   1.132 -0.0843  0.3021 -0.2790
13135TIP3    H160896   4.435   0.907   1.103 -2.3647  0.6356 -1.5712
13135TIP3    H260897   4.431   0.763   1.057  0.5419 -0.0960  0.1960
13136TIP3   OH260898   5.523   1.057  16.019 -0.2246  0.5649  0.8159
13136TIP3    H160899   5.560   1.070  15.931 -0.3328 -3.6224 -0.0388
13136TIP3    H260900   5.599   1.050  16.076 -0.0700  0.8144  0.6443
13137TIP3   OH260901   3.534   6.314   4.598  0.7414  0.1238 -0.0098
13137TIP3    H160902   3.444   6.327   4.568  0.3493 -3.2848 -0.6214
13137TIP3    H260903   3.586   6.369   4.540 -0.7939  0.9869 -0.6479
13138TIP3   OH260904   1.218   2.119   3.471  0.0343  0.1197 -0.3832
13138TIP3    H160905   1.277   2.109   3.545 -0.7219 -0.2238  0.1871
13138TIP3    H260906   1.138   2.156   3.508 -0.3660 -0.0827 -1.0114
13139TIP3   OH260907   0.486   1.734  15.690 -0.3561 -0.4007 -0.5106
13139TIP3    H160908   0.541   1.656  15.697 -0.2489 -0.1934  1.8561
13139TIP3    H260909   0.424   1.726  15.763 -0.3492  1.6912 -0.2046
13140TIP3   OH260910   3.733   1.247   4.897 -0.0451 -0.5588  0.4436
13140TIP3    H160911   3.752   1.264   4.805  1.7990  0.4283  0.9506
13140TIP3    H260912   3.733   1.151   4.904 -0.7018 -0.6524 -0.6591
13141TIP3   OH260913   3.952   4.326   5.328  0.3628 -0.7133  0.2104
13141TIP3    H160914   3.927   4.274   5.404  0.8966 -1.2423  0.0284
13141TIP3    H260915   3.956   4.264   5.255  1.2717 -0.4820  0.0468
13142TIP3   OH260916   3.938   1.162  11.368  0.6690 -0.7261 -0.2845
13142TIP3    H160917   4.010   1.199  11.420  0.1084 -0.5843  0.4048
13142TIP3    H260918   3.964   1.072  11.352 -0.7625 -1.9857  3.4570
13143TIP3   OH260919   1.923   4.689   5.566  0.5177 -0.0670  0.1077
13143TIP3    H160920   1.897   4.748   5.636  0.3126 -0.3015  0.2283
13143TIP3    H260921   2.014   4.712   5.549 -0.3762  2.3988 -1.9420
13144TIP3   OH260922   4.013   6.061   1.923  0.1302  0.3376  0.0763
13144TIP3    H160923   3.933   6.041   1.874 -0.8079  0.4548  1.4981
13144TIP3    H260924   4.042   5.977   1.957 -1.7883  0.7378  3.0338
13145TIP3   OH260925   6.381   4.425  14.613 -0.1965 -0.1540 -0.9638
13145TIP3    H160926   6.382   4.398  14.521 -1.1336 -1.2648 -0.6755
13145TIP3    H260927   6.290   4.450  14.630 -0.4353 -1.6281  0.0981
13146TIP3   OH260928   1.256   4.281  11.380  0.7883  0.1514  0.1903
13146TIP3    H160929   1.222   4.198  11.413 -0.0490  0.5949  0.4590
13146TIP3    H260930   1.350   4.265  11.367  0.7728 -0.6166  0.9349
13147TIP3   OH260931   2.433   2.145   1.811 -0.5835 -0.1669 -0.2552
13147TIP3    H160932   2.361   2.100   1.856 -1.2203 -0.1482 -1.2187
13147TIP3    H260933   2.480   2.190   1.881 -1.1717 -0.6365  0.4676
13148TIP3   OH260934   2.220   4.725   0.728  0.8382  0.1390  0.5987
13148TIP3    H160935   2.203   4.659   0.661 -0.3879  0.1676  0.8409
13148TIP3    H260936   2.269   4.680   0.796  1.0858 -0.1920  0.2008
13149TIP3   OH260937   6.540   3.770  14.920  0.2250  0.3682 -0.1991
13149TIP3    H160938   6.622   3.816  14.898  0.2679  0.2206 -0.3535
13149TIP3    H260939   6.503   3.747  14.835  0.0593  0.3689 -0.1269
13150TIP3   OH260940   2.404   1.844  13.268  0.2264 -0.4697  0.0712
13150TIP3    H160941   2.450   1.911  13.320 -0.7032 -1.0930  1.7887
13150TIP3    H260942   2.374   1.781  13.333 -0.6106 -1.5449 -1.3162
13151TIP3   OH260943   3.891   6.578   0.751  0.1023  0.0231 -0.4136
13151TIP3    H160944   3.952   6.542   0.816 -1.3409 -0.7872  0.5602
13151TIP3    H260945   3.827   6.509   0.738 -2.2475  1.8093  0.8080
13152TIP3   OH260946   6.299   5.434  17.132 -0.0739 -0.7408 -0.2912
13152TIP3    H160947   6.217   5.391  17.107  0.1417 -2.6289  1.8229
13152TIP3    H260948   6.358   5.361  17.154  2.4800  0.5225 -2.4563
13153TIP3   OH260949   4.003   3.733  14.382  0.1954 -0.0334 -0.2563
13153TIP3    H160950   4.075   3.745  14.444  0.5977 -0.1118 -0.6968
13153TIP3    H260951   4.002   3.814  14.331 -2.0400  1.3231  1.7417
13154TIP3   OH260952   6.671   6.800  15.445  0.2276 -0.7116 -0.4029
13154TIP3    H160953   6.634   6.849  15.518  0.1609 -0.6651 -0.4685
13154TIP3    H260954   6.627   6.715  15.449  1.9300 -1.5935  1.0804
13155TIP3   OH260955   5.085   4.675   6.300 -0.1391  0.0730  0.3833
13155TIP3    H160956   5.069   4.694   6.207  1.7718  0.8567  0.1639
13155TIP3    H260957   5.104   4.581   6.302  0.4428  0.1749 -0.1244
13156TIP3   OH260958   2.755   3.192   1.925  0.4635 -0.5678 -0.0061
13156TIP3    H160959   2.837   3.213   1.881 -0.0916 -0.1920 -0.8860
13156TIP3    H260960   2.759   3.097   1.939  0.9473 -0.5858 -0.2487
13157TIP3   OH260961   5.896   6.774   5.238  0.0480  0.6154 -0.2886
13157TIP3    H160962   5.842   6.709   5.193  0.2234  0.9388 -0.9830
13157TIP3    H260963   5.982   6.733   5.246 -0.2292  0.1837  0.6259
13158TIP3   OH260964   2.849   2.291   5.541  0.0422 -0.2636 -0.1802
13158TIP3    H160965   2.757   2.288   5.514  0.2446  0.8148 -1.0860
13158TIP3    H260966   2.870   2.201   5.567 -1.5226 -0.3455  0.9738
13159TIP3   OH260967   2.178   2.739   6.596 -0.2323  0.0503 -0.3105
13159TIP3    H160968   2.183   2.740   6.691  0.0422 -0.1332 -0.3191
13159TIP3    H260969   2.261   2.699   6.568 -0.8413 -1.0479 -0.5847
13160TIP3   OH260970   4.409   4.075  12.609  0.6582 -0.1167 -0.3976
13160TIP3    H160971   4.371   3.995  12.644  0.6410  0.1853  0.2772
13160TIP3    H260972   4.346   4.105  12.543 -0.4686  0.5769  0.9509
13161TIP3   OH260973   3.261   4.904   2.454 -0.6057 -0.2555 -0.5737
13161TIP3    H160974   3.201   4.880   2.383  0.3727 -1.6123 -0.9909
13161TIP3    H260975   3.341   4.930   2.410 -0.0077 -1.0407  0.0283
13162TIP3   OH260976   0.366   3.352  12.596 -0.3007 -0.3157  0.1684
13162TIP3    H160977   0.320   3.366  12.679  0.4666 -1.1265  0.7535
13162TIP3    H260978   0.376   3.257  12.590  1.6980 -0.1616  0.3222
13163TIP3   OH260979   5.538   3.406   5.287  0.4029  0.2969 -0.2445
13163TIP3    H160980   5.534   3.370   5.376 -0.9134 -0.4672 -0.5939
13163TIP3    H260981   5.447   3.423   5.264  0.5032 -1.5061 -2.2427
13164TIP3   OH260982   3.990   1.576  15.724  0.3672  0.3035  0.6108
13164TIP3    H160983   3.936   1.538  15.654  0.5355  2.3252 -0.6841
13164TIP3    H260984   4.069   1.523  15.725 -0.8473 -1.5927  1.3232
13165TIP3   OH260985   0.830   6.797   6.506  0.0863 -0.1001 -0.2983
13165TIP3    H160986   0.809   6.865   6.570 -1.0024  0.9984 -1.7644
13165TIP3    H260987   0.772   6.725   6.528 -1.2188  0.7598 -0.7953
13166TIP3   OH260988   5.405   1.175   5.623 -0.3424 -0.3056  0.5898
13166TIP3    H160989   5.429   1.263   5.653  1.2417 -0.7571  0.7549
13166TIP3    H260990   5.332   1.150   5.679  0.3293  0.2360  1.7577
13167TIP3   OH260991   1.669   6.728   5.138 -0.6842 -0.7909  0.1546
13167TIP3    H160992   1.592   6.681   5.107 -0.6693 -0.9367  0.3399
13167TIP3    H260993   1.634   6.807   5.179 -0.8294 -1.5098  1.4657
13168TIP3   OH260994   4.059   0.329   0.086 -0.1711  0.3199  0.4915
13168TIP3    H160995   4.078   0.418   0.115  0.4680  0.1502  0.6108
13168TIP3    H260996   4.119   0.314   0.013 -0.0176 -0.1381  0.7069
13169TIP3   OH260997   4.985   0.679   4.238 -0.1412 -0.7611  0.3762
13169TIP3    H160998   4.949   0.755   4.193 -0.9898 -1.2260  0.2449
13169TIP3    H260999   4.912   0.645   4.290  0.4528 -1.0069  1.0682
13170TIP3   OH261000   6.194   0.388   3.146  0.2495  0.1947 -0.2581
13170TIP3    H161001   6.167   0.341   3.225 -1.8924  2.0524  0.2237
13170TIP3    H261002   6.281   0.422   3.166 -0.0526  0.2092  1.1177
13171TIP3   OH261003   6.146   0.054   3.083 -0.4471  0.1750 -0.5080
13171TIP3    H161004   6.212   0.013   3.139  0.7369  1.4983 -0.8870
13171TIP3    H261005   6.159   0.013   2.997 -1.1864 -0.6787 -0.2360
13172TIP3   OH261006   1.528   2.554  10.733  0.0147  0.4026  0.2577
13172TIP3    H161007   1.482   2.526  10.812  0.3814 -0.1073  0.2941
13172TIP3    H261008   1.470   2.619  10.693  0.6791  2.1741  1.9870
13173TIP3   OH261009   6.541   5.182   5.727 -0.6736 -0.4121 -0.5397
13173TIP3    H161010   6.612   5.237   5.694 -0.6464  0.1300  0.3812
13173TIP3    H261011   6.475   5.244   5.758 -0.6477 -0.8745  0.5083
13174TIP3   OH261012   1.144   5.397   2.867 -0.5741 -0.1671  0.2181
13174TIP3    H161013   1.110   5.314   2.835 -0.3293 -0.0475 -0.3744
13174TIP3    H261014   1.208   5.424   2.800 -0.9415  0.6819  0.1996
13175TIP3   OH261015   2.471   4.742  14.014 -0.1083 -0.2587  0.8312
13175TIP3    H161016   2.548   4.686  14.025  0.3253  0.2906  0.6310
13175TIP3    H261017   2.469   4.761  13.921 -0.1180  0.2387  0.9281
13176TIP3   OH261018   6.011   3.964  14.557 -0.0251 -0.3386 -0.2917
13176TIP3    H161019   6.068   4.029  14.517 -0.7535  1.8731  1.9988
13176TIP3    H261020   5.935   3.960  14.499 -0.1587  1.2195 -0.2645
13177TIP3   OH261021   3.452   5.385   1.799 -0.0367 -0.4190  0.2031
13177TIP3    H161022   3.449   5.422   1.887  0.1736 -0.3117  0.1675
13177TIP3    H261023   3.423   5.456   1.742  0.5473 -0.2385  0.1161
13178TIP3   OH261024   0.108   6.280   5.764  0.1033  0.3025 -0.5754
13178TIP3    H161025   0.114   6.321   5.678 -0.4862  0.4651 -0.5439
13178TIP3    H261026   0.057   6.200   5.749  1.9375 -0.8870 -0.7957
13179TIP3   OH261027   0.841   6.604  15.922  0.3622  0.2695 -0.2388
13179TIP3    H161028   0.780   6.535  15.948 -0.0482  0.8249  0.3025
13179TIP3    H261029   0.819   6.677  15.979  3.3023 -0.3405  1.8680
13180TIP3   OH261030   3.270   4.754  17.105 -0.0434 -0.3772 -0.0447
13180TIP3    H161031   3.238   4.793  17.187  0.6313 -0.9127  0.4790
13180TIP3    H261032   3.342   4.697  17.132  0.6216 -0.0510 -1.0860
13181TIP3   OH261033   2.652   0.219   3.082 -0.4049 -0.4547  0.3362
13181TIP3    H161034   2.646   0.305   3.041  2.7368  0.8337  2.2405
13181TIP3    H261035   2.574   0.214   3.138 -1.6731  0.1936 -1.2873
13182TIP3   OH261036   4.544   4.836   4.872 -0.1318 -0.2708 -0.5642
13182TIP3    H161037   4.579   4.790   4.948 -1.4232  1.4603  1.1994
13182TIP3    H261038   4.610   4.902   4.851 -0.2241 -0.0807 -0.2654
13183TIP3   OH261039   5.223   2.476  15.344  0.4223  0.3259 -0.2227
13183TIP3    H161040   5.188   2.404  15.396  0.8124  0.6843  0.5572
13183TIP3    H261041   5.146   2.512  15.299 -0.1006  0.6044  0.8555
13184TIP3   OH261042   1.448   3.195  11.071 -0.2941  0.5118 -0.0061
13184TIP3    H161043   1.384   3.146  11.123 -1.1997  0.8438 -0.7938
13184TIP3    H261044   1.417   3.188  10.981  1.2343 -0.0159 -0.5286
13185TIP3   OH261045   2.386   3.792   3.975 -0.3921  0.2309  1.2921
13185TIP3    H161046   2.408   3.880   4.005 -0.7879  0.8268 -0.1058
13185TIP3    H261047   2.290   3.793   3.967 -0.2568  0.4119 -0.8436
13186TIP3   OH261048   6.671   2.415   4.881  0.0918 -0.0543  0.0693
13186TIP3    H161049   6.745   2.365   4.915  0.5410  0.2688 -0.4144
13186TIP3    H261050   6.622   2.442   4.959  0.3562 -0.4666  0.3804
13187TIP3   OH261051   3.540   5.708  12.100 -0.1466  0.1654  0.1872
13187TIP3    H161052   3.463   5.650  12.103  0.2339 -0.4067 -0.6692
13187TIP3    H261053   3.521   5.770  12.030  0.2760 -0.1449 -0.2090
13188TIP3   OH261054   5.355   2.595   4.124 -0.4927  0.4154 -0.0637
13188TIP3    H161055   5.262   2.620   4.127 -0.2019  1.4529  1.8378
13188TIP3    H261056   5.354   2.502   4.100 -2.0897  0.1350  0.9587
13189TIP3   OH261057   2.909   3.555   2.511  0.4586 -0.4176  0.4573
13189TIP3    H161058   2.867   3.570   2.426  1.8598 -0.0897 -0.2029
13189TIP3    H261059   2.998   3.589   2.501  0.6207 -0.2575  2.1063
13190TIP3   OH261060   5.947   3.867   5.010 -0.0515  0.4166  0.1980
13190TIP3    H161061   5.968   3.947   4.961 -0.1359  0.1230 -0.3203
13190TIP3    H261062   6.018   3.859   5.073  0.0931  0.7668  0.0865
13191TIP3   OH261063   0.020   3.251   6.027 -0.4045 -0.1331 -0.2626
13191TIP3    H161064  -0.014   3.298   6.103 -5.6694  1.2605 -3.0237
13191TIP3    H261065  -0.040   3.178   6.014  1.9140 -1.9356 -1.6755
13192TIP3   OH261066   5.914   6.435   1.245 -0.4548 -0.3704  0.4257
13192TIP3    H161067   5.994   6.449   1.295 -0.4275 -0.5155  0.4239
13192TIP3    H261068   5.850   6.405   1.309 -0.5692 -0.0446  0.4651
13193TIP3   OH261069   3.810   5.002   3.864 -0.2631 -0.2092  0.0639
13193TIP3    H161070   3.887   4.970   3.912  0.3649 -0.1311 -0.8588
13193TIP3    H261071   3.837   5.000   3.772 -1.8305 -1.4638 -0.4132
13194TIP3   OH261072   0.546   1.811   1.742  0.1755  0.3861 -0.0960
13194TIP3    H161073   0.470   1.755   1.759  1.6330 -1.6042  0.2575
13194TIP3    H261074   0.524   1.860   1.663 -1.2512 -0.5793 -0.3243
13195TIP3   OH261075   3.981   3.741   4.824  0.4865 -0.1322  0.2210
13195TIP3    H161076   4.047   3.766   4.759 -1.1444 -0.6002 -1.6989
13195TIP3    H261077   3.917   3.690   4.776 -0.4119 -1.1982  2.3903
13196TIP3   OH261078   0.142   2.262  12.434  0.0961  0.4394 -0.2601
13196TIP3    H161079   0.081   2.258  12.360  0.5534  1.7434 -0.7345
13196TIP3    H261080   0.226   2.237  12.396  0.3693  1.2992 -0.2472
13197TIP3   OH261081   3.719   2.635   0.121  0.0827 -0.3329  0.1304
13197TIP3    H161082   3.699   2.720   0.158  1.3139 -0.4178  1.0451
13197TIP3    H261083   3.678   2.636   0.034 -0.1429  1.0641  0.2404
13198TIP3   OH261084   4.170   5.778   5.655 -1.0570  0.1287 -0.2732
13198TIP3    H161085   4.223   5.757   5.732 -0.6571  0.4019 -0.4656
13198TIP3    H261086   4.174   5.700   5.600 -0.2331  0.4081 -0.6255
13199TIP3   OH261087   0.312   2.942  14.796 -0.0359 -0.5474 -0.1241
13199TIP3    H161088   0.344   2.943  14.886  1.2521 -0.4717 -0.5632
13199TIP3    H261089   0.216   2.938  14.805  0.0618 -0.4490  1.2359
13200TIP3   OH261090   1.105   2.563   5.562 -0.2510 -0.4379 -0.1392
13200TIP3    H161091   1.180   2.513   5.593 -0.6602 -1.2020 -0.3706
13200TIP3    H261092   1.038   2.498   5.542 -1.5103  0.3173  1.4174
13201TIP3   OH261093   5.208   4.475   1.315 -0.1974  0.0604 -0.0040
13201TIP3    H161094   5.294   4.518   1.315 -0.3992  0.4731  0.5400
13201TIP3    H261095   5.188   4.461   1.408 -0.6582 -0.1541 -0.1330
13202TIP3   OH261096   2.303   0.282  12.437 -0.1259 -0.3386 -0.0796
13202TIP3    H161097   2.324   0.196  12.473  1.4694  0.4869  1.0994
13202TIP3    H261098   2.272   0.333  12.512  2.3968  1.1608  0.0475
13203TIP3   OH261099   1.755   4.298   3.193  0.4420 -0.3006  0.4516
13203TIP3    H161100   1.699   4.362   3.238  0.2257 -1.8046  2.5249
13203TIP3    H261101   1.697   4.223   3.179  0.4310  0.2051 -2.7934
13204TIP3   OH261102   2.982   2.742  14.466  0.0464  0.5312 -0.6704
13204TIP3    H161103   3.058   2.739  14.524 -0.5902  0.2991  0.1593
13204TIP3    H261104   2.982   2.832  14.431  0.0793  0.8657  0.1760
13205TIP3   OH261105   0.175   0.485  11.932  0.2439 -0.2132  0.5273
13205TIP3    H161106   0.261   0.454  11.903  1.4191  2.5942  0.5883
13205TIP3    H261107   0.123   0.489  11.851  0.1521 -1.8840  0.4804
13206TIP3   OH261108   4.187   4.751   1.859  0.3413 -0.1466  0.0251
13206TIP3    H161109   4.118   4.799   1.905 -1.3419  0.1146 -2.5365
13206TIP3    H261110   4.142   4.676   1.820  1.4742  0.0161 -1.6892
13207TIP3   OH261111   5.643   2.086  15.999  0.2216 -0.1924 -0.2570
13207TIP3    H161112   5.668   2.001  15.962  0.8224 -0.4733  0.7684
13207TIP3    H261113   5.548   2.081  16.007  0.3874 -1.4103  1.2926
13208TIP3   OH261114   2.443   0.302  16.649  0.1970  0.2010  0.3817
13208TIP3    H161115   2.489   0.225  16.616 -0.4020  0.1822 -0.4542
13208TIP3    H261116   2.391   0.269  16.722 -1.7929 -0.7197 -1.3454
13209TIP3   OH261117   4.161   5.598   0.142  0.0996  0.3968  0.5507
13209TIP3    H161118   4.109   5.570   0.217  2.6775 -1.3390  1.8415
13209TIP3    H261119   4.219   5.665   0.177  0.2916  0.6872 -0.2882
13210TIP3   OH261120   1.728   5.507   1.449 -0.1797  0.0415  0.0120
13210TIP3    H161121   1.796   5.520   1.515 -1.1945  1.0650  0.9020
13210TIP3    H261122   1.743   5.576   1.385 -0.0407 -0.0823 -0.0889
13211TIP3   OH261123   4.094   4.687  12.774  0.0995  0.3399  0.1693
13211TIP3    H161124   4.085   4.630  12.849  1.4410  0.0163  0.1140
13211TIP3    H261125   4.097   4.775  12.811 -1.5952  0.3767  0.2835
13212TIP3   OH261126   1.695   2.742  13.863  1.1342  0.3777  0.5450
13212TIP3    H161127   1.735   2.675  13.808 -0.0232 -0.5574  0.8032
13212TIP3    H261128   1.621   2.698  13.904 -1.1102  2.3987 -1.0742
13213TIP3   OH261129   5.093   3.018   3.244  0.2055 -0.3551  0.0193
13213TIP3    H161130   5.179   3.011   3.284  0.2065  0.0235  0.0905
13213TIP3    H261131   5.097   3.099   3.192 -0.1659 -0.2331  0.1749
13214TIP3   OH261132   6.308   1.597   2.412  0.2641  0.0480  0.1642
13214TIP3    H161133   6.312   1.607   2.317  0.9449 -0.4109  0.1331
13214TIP3    H261134   6.372   1.660   2.445 -0.3042  0.5312  0.3453
13215TIP3   OH261135   4.565   6.596   4.951  0.1198 -0.2259  0.3856
13215TIP3    H161136   4.499   6.621   5.015  0.9229  2.7313  0.1895
13215TIP3    H261137   4.644   6.580   5.003  0.6021  1.5420  0.2492
13216TIP3   OH261138   1.207   4.462   4.723  0.7069  0.3869  0.2494
13216TIP3    H161139   1.231   4.550   4.752  0.1202  0.0384  1.9574
13216TIP3    H261140   1.142   4.433   4.787 -0.3606 -0.6695 -1.2466
13217TIP3   OH261141   0.913   4.417   3.751 -0.1671  0.2663  0.4732
13217TIP3    H161142   0.879   4.471   3.822  0.8051  1.4414  0.0794
13217TIP3    H261143   0.930   4.479   3.680  1.4955 -0.4548  0.1944
13218TIP3   OH261144   6.601   1.387   3.002  0.5285 -0.1699 -0.0841
13218TIP3    H161145   6.531   1.350   2.948  0.8448  0.4878 -0.9720
13218TIP3    H261146   6.655   1.436   2.940  1.6837 -0.5265  0.6153
13219TIP3   OH261147   2.573   2.085  15.996 -0.4710 -0.1133 -0.2939
13219TIP3    H161148   2.519   2.137  15.936  0.5672  2.0401  0.5089
13219TIP3    H261149   2.660   2.085  15.956  0.3370  1.6996  1.3069
13220TIP3   OH261150   4.217   6.241   5.369  0.0874  0.1850 -0.5191
13220TIP3    H161151   4.178   6.325   5.391 -0.4950 -0.6092  1.6499
13220TIP3    H261152   4.309   6.249   5.395 -0.1031 -0.0207  0.2456
13221TIP3   OH261153   0.677   3.537   1.784  0.1985 -0.6511 -0.6901
13221TIP3    H161154   0.711   3.627   1.784  0.8641 -0.8907 -1.2108
13221TIP3    H261155   0.726   3.493   1.714  2.4979 -2.3673  1.8105
13222TIP3   OH261156   0.772   4.977  13.305  0.4540 -0.8360  0.0368
13222TIP3    H161157   0.807   4.966  13.394  1.7934 -1.1153 -0.5025
13222TIP3    H261158   0.678   4.989  13.318  0.6572 -0.6153  1.5135
13223TIP3   OH261159   5.299   0.339  16.293 -0.4616  0.2093 -0.3995
13223TIP3    H161160   5.291   0.245  16.280 -0.0345  0.2045 -0.6455
13223TIP3    H261161   5.304   0.350  16.388 -0.1473 -0.0473 -0.3857
13224TIP3   OH261162   0.812   3.107   4.112  0.4179  0.2091  0.3951
13224TIP3    H161163   0.816   3.015   4.138  0.5069  0.2012  0.3557
13224TIP3    H261164   0.727   3.116   4.068  0.5174  0.0855  0.1755
13225TIP3   OH261165   0.694   2.693   2.958  0.4255 -0.7304 -0.4920
13225TIP3    H161166   0.642   2.726   3.030  0.3706  2.7934 -1.9637
13225TIP3    H261167   0.758   2.634   2.999 -0.0019  0.6161  2.3177
13226TIP3   OH261168   1.880   1.864  11.207  0.0377  0.4743 -0.3033
13226TIP3    H161169   1.880   1.826  11.119  1.9383  1.5587 -0.8252
13226TIP3    H261170   1.892   1.958  11.192  0.3242  0.6775  1.1225
13227TIP3   OH261171   3.271   5.138   3.708 -0.1630  0.4231 -0.1845
13227TIP3    H161172   3.367   5.143   3.701 -0.2462  1.0921 -1.0423
13227TIP3    H261173   3.239   5.178   3.627 -1.1616 -1.2352 -0.6530
13228TIP3   OH261174   6.307   1.342  13.246 -0.1266 -0.0418  0.5115
13228TIP3    H161175   6.345   1.358  13.333  0.9946  1.8262 -0.2682
13228TIP3    H261176   6.337   1.255  13.222 -1.4451 -1.1219  2.4555
13229TIP3   OH261177   1.789   1.454   0.156  0.0284 -0.1036 -0.5584
13229TIP3    H161178   1.765   1.514   0.086 -2.6704  1.1386  1.2602
13229TIP3    H261179   1.757   1.497   0.236  0.5672 -2.6722  1.1473
13230TIP3   OH261180   6.050   0.748  12.773  0.4294 -0.4627  0.2674
13230TIP3    H161181   6.142   0.739  12.747 -0.1155 -0.2893 -1.9616
13230TIP3    H261182   6.001   0.706  12.701 -1.2976  1.3842  0.2870
13231TIP3   OH261183   4.412   2.263   4.588  0.2544 -0.2047 -1.0088
13231TIP3    H161184   4.415   2.302   4.500 -0.3153 -0.7476 -1.2795
13231TIP3    H261185   4.434   2.335   4.647 -0.0848  0.3531 -1.5523
13232TIP3   OH261186   4.850   5.750   4.649  0.0506 -0.1690  0.0923
13232TIP3    H161187   4.896   5.827   4.684 -0.9325 -0.3706  1.9311
13232TIP3    H261188   4.908   5.718   4.580  0.3156  2.4455 -1.0524
13233TIP3   OH261189   3.941   1.866  14.092  0.3287  0.1503 -0.2192
13233TIP3    H161190   3.909   1.953  14.068  0.6469  0.0117 -1.1871
13233TIP3    H261191   3.909   1.808  14.023  1.2052 -0.2880 -0.2691
13234TIP3   OH261192   5.737   4.667  14.823  0.8283  0.0721 -0.3507
13234TIP3    H161193   5.683   4.690  14.899 -0.1281  0.9384 -1.2739
13234TIP3    H261194   5.762   4.750  14.784 -0.8821 -0.3329 -2.4911
13235TIP3   OH261195   5.498   4.089   3.829 -0.0035  0.3277  0.0075
13235TIP3    H161196   5.452   4.022   3.779  0.9164  0.5742 -1.2028
13235TIP3    H261197   5.450   4.170   3.810  1.1192  0.6671 -1.6173
13236TIP3   OH261198   6.353   6.790  14.813 -0.8171  0.4627 -0.6123
13236TIP3    H161199   6.377   6.739  14.890 -0.6790  1.2061 -0.1559
13236TIP3    H261200   6.406   6.753  14.742  1.8066  2.0638  0.3574
13237TIP3   OH261201   2.780   0.664  12.196 -0.0879  0.1235 -0.0978
13237TIP3    H161202   2.721   0.597  12.160 -2.3905  0.6663  2.4225
13237TIP3    H261203   2.772   0.656  12.291  3.1397  0.9944  0.3899
13238TIP3   OH261204   1.270   4.675  14.530 -0.3531  0.2021 -0.0846
13238TIP3    H161205   1.218   4.596  14.511  1.5058 -0.9770 -0.4835
13238TIP3    H261206   1.248   4.696  14.621  0.7453 -2.1169  0.7819
13239TIP3   OH261207   2.551   6.105  16.048  0.0026  0.0268 -0.3987
13239TIP3    H161208   2.627   6.140  16.001 -0.4214  0.2034 -0.9561
13239TIP3    H261209   2.517   6.035  15.992  0.0389 -0.3829  0.0787
13240TIP3   OH261210   3.439   3.949   4.426  0.3897 -0.3446 -0.4018
13240TIP3    H161211   3.493   3.873   4.446  0.4362 -0.6000 -1.4190
13240TIP3    H261212   3.475   4.020   4.480  0.1446 -1.1149  0.7850
13241TIP3   OH261213   5.409   3.688  11.046  0.5095 -0.0045 -0.0534
13241TIP3    H161214   5.478   3.728  10.993  0.5461 -1.4683 -1.1706
13241TIP3    H261215   5.447   3.606  11.078 -0.4136 -0.4208  0.0199
13242TIP3   OH261216   0.822   2.025   0.442 -0.7390  0.1352  0.4540
13242TIP3    H161217   0.805   2.113   0.408  2.1707  1.2195  1.5308
13242TIP3    H261218   0.843   2.037   0.534 -2.1773 -1.9737  1.1387
13243TIP3   OH261219   0.522   3.662   3.370  0.6712 -0.2064 -0.7228
13243TIP3    H161220   0.546   3.688   3.458  0.0433 -1.0011 -0.3020
13243TIP3    H261221   0.539   3.568   3.367 -1.9183 -0.7618 -0.5092
13244TIP3   OH261222   5.550   1.705   0.487 -0.3264 -0.0219 -0.3137
13244TIP3    H161223   5.576   1.752   0.408  0.3694 -0.1762 -0.1864
13244TIP3    H261224   5.517   1.773   0.546  1.0967  0.3931  0.0395
13245TIP3   OH261225   5.665   4.035  10.598  0.0149  0.1056 -0.4795
13245TIP3    H161226   5.579   4.075  10.612 -0.4048 -1.0642  0.4381
13245TIP3    H261227   5.645   3.951  10.555  0.8486  0.6633 -2.0281
13246TIP3   OH261228   4.742   3.715  15.834  0.0817 -0.0060 -0.5182
13246TIP3    H161229   4.830   3.692  15.863 -0.6511 -0.7817  1.2352
13246TIP3    H261230   4.684   3.682  15.903 -1.5826  0.6019 -1.5509
13247TIP3   OH261231   4.734   6.119   6.456  0.8784  1.1139 -0.1600
13247TIP3    H161232   4.731   6.211   6.428  1.1668  0.6874 -1.7027
13247TIP3    H261233   4.823   6.108   6.490  1.1542  1.1687 -0.8542
13248TIP3   OH261234   1.974   5.315   1.003  0.6627 -0.4231 -0.1576
13248TIP3    H161235   1.947   5.399   0.967  1.7718  0.5024  1.0462
13248TIP3    H261236   1.983   5.257   0.927 -0.2001  0.5150 -0.9947
13249TIP3   OH261237   2.684   3.198  14.739  0.4284  0.4442 -0.1382
13249TIP3    H161238   2.606   3.247  14.763 -0.5020 -0.9616 -0.1615
13249TIP3    H261239   2.744   3.210  14.812  0.1636  1.4860 -0.0870
13250TIP3   OH261240   1.293   4.494  17.056  0.6374 -0.2207  0.4199
13250TIP3    H161241   1.380   4.517  17.022  0.8645 -0.1100  1.0728
13250TIP3    H261242   1.251   4.448  16.983  0.2186  2.0999 -0.8705
13251TIP3   OH261243   4.740   3.506   2.466  0.4181 -0.5982 -0.2181
13251TIP3    H161244   4.802   3.518   2.394  1.5034  0.2546  0.8159
13251TIP3    H261245   4.659   3.546   2.435  0.0798 -2.4173 -1.9023
13252TIP3   OH261246   1.310   5.225   3.553 -0.3965  0.6562  0.2264
13252TIP3    H161247   1.257   5.177   3.489  0.8739  0.2723 -0.5950
13252TIP3    H261248   1.254   5.234   3.630 -2.8035  3.0759 -1.6563
13253TIP3   OH261249   5.088   5.826  11.309  0.1696 -0.1972 -0.4136
13253TIP3    H161250   5.065   5.917  11.329 -0.8560 -1.3448  4.9129
13253TIP3    H261251   5.009   5.776  11.327  1.7374 -2.4816  0.6037
13254TIP3   OH261252   2.029   6.351  15.669 -0.1355  0.3251 -0.0108
13254TIP3    H161253   2.098   6.395  15.717  0.3813 -0.2906 -0.1787
13254TIP3    H261254   2.071   6.317  15.590 -0.9711  1.3405 -0.9311
13255TIP3   OH261255   5.452   6.359   3.797  0.0680 -0.6729 -0.0164
13255TIP3    H161256   5.424   6.321   3.881 -0.2620  0.8270  0.5823
13255TIP3    H261257   5.518   6.423   3.821  2.7952 -2.8292 -1.2662
13256TIP3   OH261258   4.110   0.807  12.768 -0.2808  0.0536 -0.0701
13256TIP3    H161259   4.188   0.775  12.813  0.4849  1.7478 -0.1660
13256TIP3    H261260   4.098   0.745  12.695  1.0245 -0.1708 -0.1241
13257TIP3   OH261261   2.922   2.459   3.256  0.1419 -0.1861  0.5670
13257TIP3    H161262   2.882   2.430   3.338 -0.2133 -0.3047  0.3540
13257TIP3    H261263   2.941   2.378   3.208 -2.0005 -0.0927 -0.5771
13258TIP3   OH261264   6.278   3.077  14.244  0.3107 -0.1102 -0.1934
13258TIP3    H161265   6.340   3.043  14.179  1.2467  1.8599 -0.4116
13258TIP3    H261266   6.274   3.009  14.311  1.4827 -0.9892 -0.9761
13259TIP3   OH261267   2.579   1.557   2.458  0.3222  0.3697 -0.7961
13259TIP3    H161268   2.583   1.640   2.410  1.2526  0.3355 -0.7853
13259TIP3    H261269   2.579   1.582   2.550 -0.1428  0.3798 -0.7947
13260TIP3   OH261270   3.998   4.252  12.121 -0.2044 -0.1934 -0.2137
13260TIP3    H161271   4.056   4.313  12.166 -1.3745  2.3000 -1.8637
13260TIP3    H261272   4.056   4.202  12.063  0.9526 -1.7050  2.0716
13261TIP3   OH261273   2.549   4.123  15.392 -0.0591 -0.2355 -0.3157
13261TIP3    H161274   2.636   4.098  15.360  0.6690 -1.0268  2.0517
13261TIP3    H261275   2.505   4.039  15.408 -1.0899  0.1580 -1.0146
13262TIP3   OH261276   1.895   5.939   0.540 -0.2181  0.3287  0.6284
13262TIP3    H161277   1.986   5.967   0.529 -0.5878  1.4802  0.3684
13262TIP3    H261278   1.894   5.848   0.512  0.4142  0.9476 -1.5613
13263TIP3   OH261279   1.851   1.322  11.604 -0.3600  0.0015 -0.0006
13263TIP3    H161280   1.901   1.245  11.630 -1.0192 -0.0149  1.2818
13263TIP3    H261281   1.884   1.392  11.660 -1.7926 -0.0217  0.9041
13264TIP3   OH261282   5.932   4.510  15.946 -0.0493  0.2246  0.6732
13264TIP3    H161283   5.902   4.440  16.005  1.1820 -1.7108 -0.8562
13264TIP3    H261284   5.999   4.468  15.892  1.1184  2.7852  0.0203
13265TIP3   OH261285   0.177   2.319  13.868  0.1158  0.1140 -0.5082
13265TIP3    H161286   0.168   2.247  13.806 -1.1997 -0.6894  0.5592
13265TIP3    H261287   0.222   2.280  13.944  1.8246  1.1095 -0.9569
13266TIP3   OH261288   5.256   3.200   6.577 -0.1219 -0.2654 -0.1307
13266TIP3    H161289   5.257   3.250   6.496 -1.6438 -0.1900 -0.1342
13266TIP3    H261290   5.249   3.109   6.549 -0.9891 -0.2175 -0.1014
13267TIP3   OH261291   1.712   3.950  14.073 -0.0929 -0.0923  0.3304
13267TIP3    H161292   1.663   3.945  14.155  1.1880  1.4353  1.2625
13267TIP3    H261293   1.725   4.044  14.060  1.3784 -0.4031 -0.6041
13268TIP3   OH261294   4.177   5.616   1.571 -0.1009  0.3533 -0.1422
13268TIP3    H161295   4.165   5.657   1.485 -0.2734  0.0385 -0.2749
13268TIP3    H261296   4.120   5.538   1.567 -0.4260  0.5590  0.4078
13269TIP3   OH261297   1.149   1.155  14.538 -0.3553 -0.1221  0.8174
13269TIP3    H161298   1.059   1.182  14.520 -1.1051 -2.7886  0.1340
13269TIP3    H261299   1.197   1.175  14.458 -0.7115 -0.0951  0.6068
13270TIP3   OH261300   4.763   3.396   3.920 -0.3714  0.3618  0.2208
13270TIP3    H161301   4.750   3.393   4.015 -1.1815 -0.7812  0.0814
13270TIP3    H261302   4.675   3.401   3.884 -0.1209 -0.5063 -0.5188
13271TIP3   OH261303   6.341   1.386   4.644  0.2531 -0.0946  0.4813
13271TIP3    H161304   6.276   1.453   4.623  0.4765 -0.3328 -1.0705
13271TIP3    H261305   6.289   1.309   4.666  0.0141  0.0247  0.3373
13272TIP3   OH261306   0.246   0.592   1.289 -0.1598  0.9410 -0.5994
13272TIP3    H161307   0.288   0.514   1.251  1.5052  1.2394  0.5336
13272TIP3    H261308   0.319   0.651   1.308 -1.3472  2.5141 -0.8064
13273TIP3   OH261309   6.274   6.144  12.573  0.1482 -0.1666  0.2734
13273TIP3    H161310   6.286   6.051  12.555 -0.4946 -0.5301  1.5670
13273TIP3    H261311   6.218   6.175  12.502  0.0895 -0.8428  0.0168
13274TIP3   OH261312   6.503   3.318   2.454 -0.3652  0.1080 -0.6017
13274TIP3    H161313   6.529   3.262   2.381 -0.9493 -1.0363  0.0393
13274TIP3    H261314   6.408   3.325   2.445 -0.7207 -1.5939  1.0583
13275TIP3   OH261315   4.432   3.576  13.023  0.3204  0.0708 -0.2231
13275TIP3    H161316   4.445   3.580  12.928 -0.2837  2.0065 -0.2656
13275TIP3    H261317   4.425   3.483  13.042  0.2523 -0.3508 -2.1090
13276TIP3   OH261318   6.279   0.008   3.989 -1.3615 -0.1851  0.2453
13276TIP3    H161319   6.354   0.023   4.047  0.5202 -0.2818 -2.0195
13276TIP3    H261320   6.203   0.015   4.047  0.3715 -0.5299  2.7524
13277TIP3   OH261321   4.298   0.658   1.310  0.1638 -0.2353  0.4674
13277TIP3    H161322   4.309   0.747   1.277  1.1680 -0.6451 -0.3570
13277TIP3    H261323   4.272   0.670   1.401  0.0400  0.9001  0.3060
13278TIP3   OH261324   6.696   2.033   0.183 -0.2760 -0.1822 -0.0478
13278TIP3    H161325   6.626   2.034   0.248  1.8654 -0.0462  2.4277
13278TIP3    H261326   6.754   2.105   0.209  1.6966 -1.3918 -0.8916
13279TIP3   OH261327   4.567   2.730  15.171 -0.0162 -0.4498 -0.1019
13279TIP3    H161328   4.508   2.805  15.183  0.4208 -0.0966 -0.1275
13279TIP3    H261329   4.514   2.664  15.127 -1.3313 -1.2997  2.4900
13280TIP3   OH261330   0.402   3.602   0.633 -0.1384 -0.3153 -0.4673
13280TIP3    H161331   0.455   3.562   0.702  0.1552  1.2992  0.2845
13280TIP3    H261332   0.463   3.609   0.559  0.8366  1.7195  0.4573
13281TIP3   OH261333   1.349   1.377  13.720 -0.2863 -0.1619  0.3476
13281TIP3    H161334   1.321   1.301  13.668 -1.3855  1.6243 -1.8518
13281TIP3    H261335   1.269   1.407  13.763 -0.9265  2.1569 -2.1874
13282TIP3   OH261336   3.996   3.109  13.219  0.0789 -0.2871  0.0492
13282TIP3    H161337   3.998   3.204  13.202 -0.5670 -0.4533 -1.0277
13282TIP3    H261338   4.051   3.071  13.151  2.0615 -0.5538  1.7212
13283TIP3   OH261339   4.988   4.363   5.487  0.8615  0.0278  0.3196
13283TIP3    H161340   4.989   4.344   5.581  1.0342  0.3529  0.3841
13283TIP3    H261341   5.048   4.298   5.449  1.3850  0.3780  0.5293
13284TIP3   OH261342   3.385   2.112  15.500 -0.1571  0.1589  0.4783
13284TIP3    H161343   3.455   2.148  15.555  0.9336 -2.1538  0.7405
13284TIP3    H261344   3.339   2.050  15.557 -0.3941 -0.6800 -0.5927
13285TIP3   OH261345   6.805   5.455   4.705 -0.4261  0.0094 -0.2477
13285TIP3    H161346   6.790   5.541   4.667 -0.8949 -0.2016 -0.5567
13285TIP3    H261347   6.892   5.429   4.674 -0.2385  0.4148 -0.0623
13286TIP3   OH261348   3.254   2.630  10.646 -0.8377  0.2484  0.6115
13286TIP3    H161349   3.185   2.659  10.587 -0.3916 -0.2959 -0.1933
13286TIP3    H261350   3.332   2.678  10.618 -0.6762  0.1738  0.9231
13287TIP3   OH261351   2.999   2.427   2.682  0.0680 -0.0475  0.0542
13287TIP3    H161352   3.000   2.465   2.594 -0.8351 -0.8713 -0.3333
13287TIP3    H261353   3.090   2.405   2.700  0.3467  0.6688 -0.4342
13288TIP3   OH261354   2.509   3.846  11.938 -0.2672  0.2308 -0.0390
13288TIP3    H161355   2.497   3.912  11.870  0.6958  1.3427  0.8149
13288TIP3    H261356   2.557   3.775  11.895  0.9690  1.2341 -0.3629
13289TIP3   OH261357   3.292   4.730  13.086  0.1852 -0.2504 -0.1585
13289TIP3    H161358   3.291   4.765  13.176 -1.5481 -0.6421 -0.0098
13289TIP3    H261359   3.385   4.711  13.070  0.4704 -0.6773  1.7441
13290TIP3   OH261360   4.271   3.016   5.132  0.0551 -0.3599  0.4725
13290TIP3    H161361   4.223   2.941   5.166  1.3275 -0.2853  2.6008
13290TIP3    H261362   4.285   2.995   5.040 -1.5182 -1.6829  0.4894
13291TIP3   OH261363   2.542   3.636  11.238  0.2174  0.0764 -0.5999
13291TIP3    H161364   2.466   3.647  11.180  1.1386 -0.0833 -1.9030
13291TIP3    H261365   2.580   3.723  11.245  0.2198  0.0589 -0.4005
13292TIP3   OH261366   6.213   3.416  13.479 -0.4631 -0.5514 -0.0023
13292TIP3    H161367   6.206   3.321  13.493  0.0904 -0.6396 -0.2994
13292TIP3    H261368   6.230   3.425  13.386  1.6435 -0.2820  0.3747
13293TIP3   OH261369   2.441   2.904   6.397 -0.1439 -0.2536 -0.4291
13293TIP3    H161370   2.390   2.956   6.460 -1.7435 -0.6492 -1.3203
13293TIP3    H261371   2.444   2.816   6.435  0.8619  0.0176  0.1473
13294TIP3   OH261372   2.504   1.687   6.603  0.2340 -0.0218  0.1922
13294TIP3    H161373   2.569   1.754   6.585 -0.3999  0.8925  1.1362
13294TIP3    H261374   2.439   1.697   6.534  0.6977 -0.4325 -0.3152
13295TIP3   OH261375   2.137   5.899  12.762 -0.2588 -0.4328 -0.0936
13295TIP3    H161376   2.070   5.920  12.697  0.2671  0.2068 -0.4418
13295TIP3    H261377   2.143   5.978  12.816  2.2382  0.6885 -1.8307
13296TIP3   OH261378   6.084   6.446  15.234  0.6273 -0.5133 -0.1653
13296TIP3    H161379   6.137   6.402  15.168  1.4189 -0.9004  0.6899
13296TIP3    H261380   6.050   6.375  15.288 -1.0605 -0.2904 -0.8874
13297TIP3   OH261381   0.775   1.544  14.079 -0.0615  0.1112  0.0717
13297TIP3    H161382   0.797   1.479  14.145  0.3737  2.0894  2.0172
13297TIP3    H261383   0.681   1.561  14.091  0.2558  1.3008  1.0217
13298TIP3   OH261384   3.488   5.542  16.279 -0.4496  0.3890  0.6111
13298TIP3    H161385   3.501   5.451  16.306  0.9085  0.3807  0.0030
13298TIP3    H261386   3.393   5.551  16.272 -0.6551 -0.6838  1.6585
13299TIP3   OH261387   2.097   2.219   0.759  0.2676 -0.3478  0.2749
13299TIP3    H161388   2.090   2.135   0.803 -0.7069  0.8482  2.5791
13299TIP3    H261389   2.064   2.202   0.670  1.5359 -2.6751  0.1736
13300TIP3   OH261390   3.738   4.199   1.450  0.8743 -0.7493 -0.0860
13300TIP3    H161391   3.688   4.158   1.380 -0.5368  1.6755 -0.6184
13300TIP3    H261392   3.821   4.225   1.410 -0.0529  0.9136 -1.0207
13301TIP3   OH261393   6.562   4.068  15.268 -0.7154  0.4424  0.2522
13301TIP3    H161394   6.636   4.049  15.326  2.0253  0.0535 -3.0712
13301TIP3    H261395   6.518   3.984  15.257 -0.8851  0.3913  1.2087
13302TIP3   OH261396   3.571   5.204   1.009  0.4290 -0.0760 -0.0286
13302TIP3    H161397   3.506   5.271   0.986 -0.5281 -0.7751  0.5562
13302TIP3    H261398   3.591   5.222   1.101  2.4781  1.2631 -0.6641
13303TIP3   OH261399   1.622   2.138   4.490 -0.4722  0.0736  0.7728
13303TIP3    H161400   1.680   2.203   4.530  0.4851  0.2524 -0.8260
13303TIP3    H261401   1.627   2.063   4.549  2.1351 -0.2581  0.2423
13304TIP3   OH261402   2.762   6.233  12.103 -0.1667 -0.0910  0.7389
13304TIP3    H161403   2.789   6.318  12.070  0.7922 -0.0146  1.6597
13304TIP3    H261404   2.839   6.200  12.149 -0.4309 -1.5870  0.1586
13305TIP3   OH261405   6.640   3.501  14.443  0.4814  0.0614 -0.8116
13305TIP3    H161406   6.658   3.556  14.367 -1.6567  1.7349 -0.2047
13305TIP3    H261407   6.561   3.539  14.482 -0.7619 -3.0524  0.0506
13306TIP3   OH261408   1.176   4.250  16.090 -0.0930 -0.1790  1.2961
13306TIP3    H161409   1.268   4.223  16.096 -0.1997 -1.0519 -0.5526
13306TIP3    H261410   1.178   4.334  16.045 -0.2792 -1.0355 -0.3764
13307TIP3   OH261411   5.401   6.558   4.471  0.3107 -0.2293  0.0378
13307TIP3    H161412   5.361   6.537   4.386  1.2049 -2.7122  0.1483
13307TIP3    H261413   5.416   6.652   4.467 -1.3025  0.0265 -1.8285
13308TIP3   OH261414   3.544   4.612   1.443  0.4780  0.0144  0.3817
13308TIP3    H161415   3.540   4.681   1.377  0.5009  0.2385  0.6126
13308TIP3    H261416   3.483   4.545   1.412  0.8080 -0.0722 -0.0827
13309TIP3   OH261417   4.968   2.325  14.758 -0.3341  0.0427  0.7736
13309TIP3    H161418   4.935   2.319  14.668  1.3165  0.7382  0.0821
13309TIP3    H261419   5.010   2.411  14.763  0.3970 -0.3561  1.9165
13310TIP3   OH261420   0.807   2.283   2.314 -0.0693 -0.3314  0.6189
13310TIP3    H161421   0.758   2.366   2.316  0.6119  0.0763  0.5793
13310TIP3    H261422   0.744   2.219   2.279 -0.5226  0.2178  0.4107
13311TIP3   OH261423   3.416   4.499  13.012 -0.1794  0.3695 -0.1833
13311TIP3    H161424   3.416   4.449  12.930 -0.0622 -2.5667  1.4669
13311TIP3    H261425   3.505   4.491  13.045 -0.7080 -0.1740  1.1587
13312TIP3   OH261426   2.032   4.852   2.663 -0.1604  0.0694 -0.3862
13312TIP3    H161427   2.101   4.814   2.608  0.9780  1.0833  0.3097
13312TIP3    H261428   1.956   4.857   2.605 -0.3354 -2.9866 -0.6163
13313TIP3   OH261429   6.303   6.662   0.427  0.3732  0.3060  0.1655
13313TIP3    H161430   6.293   6.648   0.521  2.1530  1.4319  0.5760
13313TIP3    H261431   6.319   6.756   0.418  1.3287  0.0505 -1.1451
13314TIP3   OH261432   4.615   3.335   1.457  0.8262  0.1890 -0.6958
13314TIP3    H161433   4.586   3.339   1.366  0.9055  1.3224 -0.6921
13314TIP3    H261434   4.539   3.306   1.506  0.5447  0.3447 -1.0407
13315TIP3   OH261435   2.003   6.038   1.759 -0.4780 -0.3232  0.4380
13315TIP3    H161436   2.042   6.111   1.806  0.6920  0.7262 -2.0153
13315TIP3    H261437   1.911   6.063   1.748 -0.9763 -0.9450  2.7089
13316TIP3   OH261438   3.785   3.169   1.424 -0.0622  0.5506  0.1925
13316TIP3    H161439   3.851   3.169   1.494  0.0456  2.9476  0.1949
13316TIP3    H261440   3.737   3.251   1.438 -0.7609  0.5358 -1.8804
13317TIP3   OH261441   1.545   5.961   4.020  0.5134 -0.0122  0.4575
13317TIP3    H161442   1.493   5.988   4.096  0.3154 -0.4244  0.4680
13317TIP3    H261443   1.617   5.910   4.058  0.1307 -0.6515  0.3261
13318TIP3   OH261444   6.782   5.679  10.864 -0.2542  0.0567  0.2265
13318TIP3    H161445   6.840   5.753  10.885  0.0554 -0.0838 -0.1258
13318TIP3    H261446   6.709   5.688  10.925  0.6244 -0.3421  1.3927
13319TIP3   OH261447   2.165   0.243   3.255  0.3213  0.1405  0.3187
13319TIP3    H161448   2.139   0.170   3.312  0.4038  0.4869  0.8115
13319TIP3    H261449   2.104   0.313   3.278  1.0764  0.6566  0.8106
13320TIP3   OH261450   6.273   2.055   5.070 -0.1528  0.1178  0.0199
13320TIP3    H161451   6.186   2.017   5.068 -0.3543  0.5505  0.4881
13320TIP3    H261452   6.263   2.142   5.031 -0.2910  0.8681  1.6450
13321TIP3   OH261453   2.056   1.646  14.062 -0.3030  0.4835  0.8606
13321TIP3    H161454   2.033   1.627  14.152  0.7952  0.6010  1.1792
13321TIP3    H261455   2.152   1.654  14.062 -0.4431  3.0607  0.2073
13322TIP3   OH261456   0.948   0.672   1.676  0.6683  0.6302 -0.6278
13322TIP3    H161457   0.982   0.760   1.659  1.5069  0.5016  0.3031
13322TIP3    H261458   0.907   0.679   1.763  0.9435  0.0517 -0.4475
13323TIP3   OH261459   1.076   3.809  14.524 -0.8610 -0.0307  0.0938
13323TIP3    H161460   1.010   3.759  14.572 -0.9116  1.1534  1.2930
13323TIP3    H261461   1.094   3.755  14.446 -1.6537 -1.4043  0.8166
13324TIP3   OH261462   4.194   5.368   2.666 -0.2851  0.9909  0.2363
13324TIP3    H161463   4.166   5.323   2.746  0.3593  2.1987  1.1745
13324TIP3    H261464   4.287   5.350   2.659 -0.2915  1.0838 -0.1131
13325TIP3   OH261465   1.745   4.335   0.316  0.7142 -0.4488  0.1896
13325TIP3    H161466   1.681   4.266   0.327  0.1728  0.2377  1.6889
13325TIP3    H261467   1.745   4.354   0.222  0.4613 -2.0535 -0.1688
13326TIP3   OH261468   3.247   1.293  12.909 -0.0218 -0.1631  0.0476
13326TIP3    H161469   3.279   1.383  12.920  0.9047 -0.4094 -0.5327
13326TIP3    H261470   3.325   1.239  12.920 -0.6589 -0.9388  0.8888
13327TIP3   OH261471   1.858   5.085  11.602  0.7404 -0.0374 -0.3430
13327TIP3    H161472   1.908   5.005  11.619 -0.3809 -0.6953 -0.0098
13327TIP3    H261473   1.853   5.129  11.686 -0.8259 -0.9480  0.1014
13328TIP3   OH261474   6.549   1.563   1.669  0.0758  0.4697 -0.1304
13328TIP3    H161475   6.512   1.499   1.729  0.6179 -0.1486 -0.4433
13328TIP3    H261476   6.493   1.640   1.678 -1.2831 -0.4350 -0.5970
13329TIP3   OH261477   5.050   1.204  11.476 -0.7576  0.3964  0.2827
13329TIP3    H161478   4.972   1.162  11.440  0.0790  0.2505 -1.5018
13329TIP3    H261479   5.051   1.291  11.434 -0.5243  0.7959  1.1081
13330TIP3   OH261480   6.335   2.871  15.317  0.1139 -0.1456  0.0557
13330TIP3    H161481   6.321   2.964  15.298 -1.1014  0.2844  2.5811
13330TIP3    H261482   6.318   2.827  15.234  0.2850  1.8415 -1.1070
13331TIP3   OH261483   2.459   4.819   0.701  0.4167 -0.7741 -0.4702
13331TIP3    H161484   2.500   4.741   0.738 -0.0509 -1.2336 -0.9068
13331TIP3    H261485   2.366   4.797   0.694 -0.1925  0.7241  1.7539
13332TIP3   OH261486   0.796   5.186   3.254 -0.5450  0.6594 -0.2674
13332TIP3    H161487   0.790   5.223   3.165  1.3267 -0.8424 -1.0969
13332TIP3    H261488   0.855   5.245   3.300 -0.1151  0.4798 -0.5822
13333TIP3   OH261489   4.811   6.597  11.596  0.6500 -0.3055 -0.0266
13333TIP3    H161490   4.717   6.605  11.578  0.1346 -0.8876  2.1270
13333TIP3    H261491   4.854   6.643  11.523 -1.3283  1.2288 -0.2932
13334TIP3   OH261492   1.737   5.845  16.597  0.0406 -0.5278 -0.2576
13334TIP3    H161493   1.784   5.928  16.585 -0.2660 -0.1585  0.9806
13334TIP3    H261494   1.710   5.821  16.508 -0.5712  1.1290 -0.5685
13335TIP3   OH261495   1.774   1.877  11.809 -0.0226  0.0028  0.3319
13335TIP3    H161496   1.791   1.920  11.725 -0.7983 -0.3089  0.0072
13335TIP3    H261497   1.752   1.948  11.869  0.0403  0.1807  0.1438
13336TIP3   OH261498   5.743   1.212   2.768  0.8680 -0.4575 -0.1478
13336TIP3    H161499   5.834   1.238   2.761  1.2952 -1.5414  0.9731
13336TIP3    H261500   5.716   1.194   2.678  1.2306  1.4415 -0.6950
13337TIP3   OH261501   1.337   0.503  15.815  0.2092 -0.5585  0.4594
13337TIP3    H161502   1.415   0.452  15.836 -0.0148 -1.3560 -0.5866
13337TIP3    H261503   1.281   0.493  15.892  1.1229  0.0504  1.2376
13338TIP3   OH261504   6.058   0.426   2.230 -0.1294 -0.5884  0.1534
13338TIP3    H161505   6.099   0.343   2.254  1.6911 -0.0348 -0.8313
13338TIP3    H261506   6.126   0.473   2.182 -1.4872  1.0192 -0.2878
13339TIP3   OH261507   6.459   6.421  11.986  0.0562  0.0461  0.0297
13339TIP3    H161508   6.537   6.414  12.040 -0.5926  0.8072  1.0919
13339TIP3    H261509   6.410   6.340  12.004 -1.1420  1.1617  2.2267
13340TIP3   OH261510   4.599   1.679   5.461  0.2124 -0.4218  0.5147
13340TIP3    H161511   4.667   1.741   5.489  1.4574 -0.8964 -1.2523
13340TIP3    H261512   4.553   1.724   5.391 -0.3407 -0.6730  0.7129
13341TIP3   OH261513   4.720   6.401   5.237  0.3699  0.7967 -0.2139
13341TIP3    H161514   4.763   6.439   5.160  1.7356  0.1452  0.1889
13341TIP3    H261515   4.791   6.393   5.301 -0.1753 -1.1347  0.1892
13342TIP3   OH261516   3.720   1.845  15.264  0.6319  0.0235 -0.2307
13342TIP3    H161517   3.721   1.938  15.242  2.4104  0.1877  0.3494
13342TIP3    H261518   3.695   1.843  15.357 -0.2430 -0.1488 -0.4663
13343TIP3   OH261519   2.060   1.037   1.349 -0.2334  0.3146 -0.2545
13343TIP3    H161520   2.135   0.985   1.320 -2.3828 -1.1698 -4.0394
13343TIP3    H261521   2.069   1.120   1.302  0.3112  1.2202  1.3773
13344TIP3   OH261522   1.800   4.704  11.183 -0.3893  0.0273 -0.0840
13344TIP3    H161523   1.809   4.732  11.275  3.3167  1.8575 -0.7917
13344TIP3    H261524   1.714   4.735  11.157 -0.1189  2.7692  1.8420
13345TIP3   OH261525   2.573   2.936   3.453  0.0657 -0.1195  0.5176
13345TIP3    H161526   2.551   2.849   3.421  0.1294  0.2030 -0.4411
13345TIP3    H261527   2.617   2.979   3.379  1.3248  0.2458  1.4389
13346TIP3   OH261528   1.416   2.857   2.579 -0.4049  0.1707  0.1650
13346TIP3    H161529   1.505   2.862   2.613 -0.6007  1.3409  0.5372
13346TIP3    H261530   1.384   2.771   2.606  0.3754  0.0142  0.6017
13347TIP3   OH261531   5.883   1.878   4.359  0.0106 -0.6261  0.4053
13347TIP3    H161532   5.908   1.968   4.380 -0.0958 -0.1224 -1.4079
13347TIP3    H261533   5.817   1.887   4.290 -1.3412 -2.0624  1.4276
13348TIP3   OH261534   0.669   5.867   1.402  0.5114  0.5941  0.2428
13348TIP3    H161535   0.639   5.948   1.443  2.1881  2.7272 -2.4115
13348TIP3    H261536   0.765   5.873   1.404  0.6685 -1.2330 -0.2176
13349TIP3   OH261537   3.834   0.403  16.970 -0.4205  0.1813  0.2261
13349TIP3    H161538   3.927   0.397  16.949 -0.2889  0.0407  0.8327
13349TIP3    H261539   3.794   0.329  16.925  0.0201 -0.7446  1.3244
13350TIP3   OH261540   2.282   2.241  12.055  1.1202 -0.3634  0.4460
13350TIP3    H161541   2.204   2.193  12.029  1.9501 -1.6496  0.2132
13350TIP3    H261542   2.306   2.205  12.141  0.6372  1.0701  1.2125
13351TIP3   OH261543   3.184   0.207  12.174 -0.0190 -0.3457 -0.1495
13351TIP3    H161544   3.194   0.133  12.233  1.4805 -1.2298 -1.4536
13351TIP3    H261545   3.123   0.177  12.107  0.4187 -0.3570 -0.5548
13352TIP3   OH261546   6.535   0.638  11.692 -0.3549  0.5301 -0.2679
13352TIP3    H161547   6.441   0.647  11.709 -0.6239  1.5906 -2.0393
13352TIP3    H261548   6.541   0.596  11.606  0.8681 -1.9992  0.9533
13353TIP3   OH261549   1.463   6.113   3.330 -0.1960 -0.0984  0.3020
13353TIP3    H161550   1.370   6.094   3.317 -0.3009  1.2463 -1.4195
13353TIP3    H261551   1.467   6.157   3.415 -1.2453  0.3272  0.1577
13354TIP3   OH261552   0.782   0.953  14.756  0.7120 -0.4691 -0.2318
13354TIP3    H161553   0.768   1.014  14.683  1.6263  0.7233  0.5529
13354TIP3    H261554   0.822   1.007  14.825  0.0200 -1.6083  1.0937
13355TIP3   OH261555   6.183   2.321   0.658 -0.4147 -0.2042 -0.1947
13355TIP3    H161556   6.128   2.354   0.587 -0.1203 -0.2422 -0.4396
13355TIP3    H261557   6.189   2.394   0.720 -1.8054 -0.6141  0.4689
13356TIP3   OH261558   0.746   4.948  17.197 -0.2130  0.6397  0.1540
13356TIP3    H161559   0.660   4.937  17.237 -0.7561 -1.0425 -1.3485
13356TIP3    H261560   0.742   5.035  17.156 -1.5263  0.2528 -0.6013
13357TIP3   OH261561   5.029   3.777   4.988 -0.5660  0.5132  0.2162
13357TIP3    H161562   4.977   3.827   4.925  2.2965  3.4562 -0.0887
13357TIP3    H261563   5.024   3.828   5.069  0.3001 -0.2132  0.7442
13358TIP3   OH261564   0.642   3.193  13.223  0.5983  0.2892 -0.1433
13358TIP3    H161565   0.725   3.230  13.194  1.9623 -3.4148 -1.6167
13358TIP3    H261566   0.659   3.164  13.313  0.5532  0.4390 -0.0866
13359TIP3   OH261567   4.390   0.712   3.342  0.2299 -0.3725  0.5309
13359TIP3    H161568   4.443   0.774   3.393  1.5313 -0.7766 -0.2665
13359TIP3    H261569   4.401   0.628   3.387 -1.5347 -0.0639  1.6117
13360TIP3   OH261570   0.826   0.742  17.199 -0.3526 -0.2988  0.3145
13360TIP3    H161571   0.785   0.814  17.247 -0.8220 -0.6623  0.4653
13360TIP3    H261572   0.861   0.783  17.119  1.3472  0.5115  1.4143
13361TIP3   OH261573   5.856   1.914  14.225  0.4779  0.0127  0.2602
13361TIP3    H161574   5.827   1.836  14.178  0.2117  0.2774 -0.0254
13361TIP3    H261575   5.800   1.919  14.302  1.1199 -0.5933  0.7770
13362TIP3   OH261576   3.821   6.052   3.203  0.6777 -0.2082  0.1027
13362TIP3    H161577   3.821   6.122   3.138 -1.8117 -0.0441  0.1780
13362TIP3    H261578   3.823   6.097   3.288  0.6372 -0.2924  0.1488
13363TIP3   OH261579   4.977   2.125  11.774  0.2312 -0.0143 -0.0391
13363TIP3    H161580   4.933   2.044  11.751  1.4989 -1.1022  1.2027
13363TIP3    H261581   4.952   2.142  11.865 -1.0823  1.7535 -0.6625
13364TIP3   OH261582   1.414   4.317   5.207 -0.2392  0.1953  0.8054
13364TIP3    H161583   1.416   4.338   5.300 -0.0228  1.4500  0.5271
13364TIP3    H261584   1.506   4.312   5.182 -0.2985 -0.0342  0.6290
13365TIP3   OH261585   3.347   1.683  17.204 -0.3057 -0.2758 -0.1877
13365TIP3    H161586   3.324   1.756  17.147  0.9016 -0.2426 -0.6608
13365TIP3    H261587   3.268   1.667  17.256 -1.1481  0.2512 -1.2649
13366TIP3   OH261588   5.315   5.765  13.973  0.4676  0.0004  0.1033
13366TIP3    H161589   5.383   5.698  13.975  0.6407  0.1420 -0.6500
13366TIP3    H261590   5.309   5.790  13.880 -0.6007 -0.0037  0.1558
13367TIP3   OH261591   6.023   2.219   2.553 -0.1361 -0.4410 -0.4274
13367TIP3    H161592   6.040   2.128   2.579 -1.5948 -0.9872 -1.2719
13367TIP3    H261593   5.976   2.256   2.627  0.4200 -0.3657 -0.1001
13368TIP3   OH261594   1.403   6.545   1.446 -0.4502 -0.2094  0.4235
13368TIP3    H161595   1.498   6.545   1.457 -0.4636 -0.9192  0.5494
13368TIP3    H261596   1.391   6.549   1.351 -0.2609 -2.1757  0.2770
13369TIP3   OH261597   4.805   2.583   1.329  0.6475 -0.1353 -0.1761
13369TIP3    H161598   4.791   2.658   1.271 -0.2043  0.4814  0.8013
13369TIP3    H261599   4.890   2.548   1.302  0.1687 -0.0308 -1.9647
13370TIP3   OH261600   3.254   6.824   0.601 -0.2254 -0.5706 -0.1231
13370TIP3    H161601   3.202   6.747   0.621  0.0805 -0.8810 -0.5073
13370TIP3    H261602   3.316   6.795   0.534 -0.2919  0.0773 -0.4811
13371TIP3   OH261603   2.849   3.127  14.312 -0.5240 -0.0282 -0.0742
13371TIP3    H161604   2.828   3.172  14.394  0.7098 -0.5322  0.5473
13371TIP3    H261605   2.845   3.196  14.246  0.2620  0.8016  0.7005
13372TIP3   OH261606   4.262   5.000   3.033 -0.1159 -0.8733 -0.1884
13372TIP3    H161607   4.202   4.925   3.030 -1.5529  0.2577 -1.8322
13372TIP3    H261608   4.263   5.033   2.943 -0.1670  1.5408  0.6255
13373TIP3   OH261609   3.350   1.282   6.430  0.1125  0.0219  0.1616
13373TIP3    H161610   3.411   1.318   6.495 -1.0069  1.0080  0.6936
13373TIP3    H261611   3.335   1.353   6.368 -1.2066  0.1068  0.5571
13374TIP3   OH261612   6.761   5.527   0.354 -0.1731 -0.1491  0.4070
13374TIP3    H161613   6.708   5.606   0.359  1.1527  0.8258 -0.2142
13374TIP3    H261614   6.740   5.489   0.269  0.2745  0.3699  0.0560
13375TIP3   OH261615   3.858   3.228  15.677  0.6056  0.2567  0.2827
13375TIP3    H161616   3.877   3.268  15.593  2.0285 -1.8730 -0.4980
13375TIP3    H261617   3.934   3.248  15.732  0.4859  0.1783  0.4785
13376TIP3   OH261618   3.175   3.813   2.741 -0.7365  0.0351 -0.8378
13376TIP3    H161619   3.092   3.852   2.767 -0.5268  0.2220 -0.4542
13376TIP3    H261620   3.156   3.719   2.733 -0.3454 -0.3492  1.9287
13377TIP3   OH261621   5.385   1.524   0.577  0.5142 -0.4383 -0.7855
13377TIP3    H161622   5.444   1.592   0.545 -0.2180  0.5660 -0.1035
13377TIP3    H261623   5.297   1.558   0.557  0.0200  0.1345  1.9141
13378TIP3   OH261624   4.633   0.929  13.354  0.0433 -0.1633 -0.3285
13378TIP3    H161625   4.690   0.975  13.416  0.5960 -0.1566 -0.8284
13378TIP3    H261626   4.683   0.928  13.272 -0.1998 -1.1329 -0.4813
13379TIP3   OH261627   1.085   6.574   3.369 -0.6430  0.2709  0.0933
13379TIP3    H161628   1.055   6.505   3.309  0.0664 -0.8871  1.0086
13379TIP3    H261629   1.139   6.631   3.315 -2.0329  0.6895 -0.8979
13380TIP3   OH261630   2.087   1.541  12.333  0.3437  0.1429  0.5195
13380TIP3    H161631   2.179   1.530  12.359  0.5745  3.9487  1.9551
13380TIP3    H261632   2.085   1.624  12.286 -2.1009 -0.8851 -1.4228
13381TIP3   OH261633   2.859   3.889   5.389 -0.4967  0.1419  0.0335
13381TIP3    H161634   2.891   3.802   5.365 -1.0466 -0.6320  2.0037
13381TIP3    H261635   2.847   3.886   5.483  1.6668  3.0802  0.5471
13382TIP3   OH261636   2.926   0.384  10.981  0.5150 -0.1479  0.2184
13382TIP3    H161637   2.886   0.402  11.067  0.2761  0.8674 -0.0900
13382TIP3    H261638   2.874   0.436  10.920  1.5955  0.2879 -0.3424
13383TIP3   OH261639   1.029   2.699  16.272 -0.3622 -0.4404 -0.1974
13383TIP3    H161640   1.063   2.728  16.187  2.7874 -0.1733  1.0151
13383TIP3    H261641   1.072   2.616  16.288 -0.6510 -0.3387  1.2814
13384TIP3   OH261642   3.653   6.297  14.053 -0.0384  0.3755  0.0515
13384TIP3    H161643   3.747   6.318  14.055 -0.1097  0.6522  1.2542
13384TIP3    H261644   3.639   6.241  14.129 -0.3878 -1.8950 -1.5526
13385TIP3   OH261645   0.345   1.262  16.206  0.0066 -0.1357  0.3441
13385TIP3    H161646   0.254   1.276  16.233 -0.6852 -0.4428 -1.6646
13385TIP3    H261647   0.382   1.208  16.276 -1.7614 -1.1563  0.5759
13386TIP3   OH261648   1.955   6.419   4.617 -0.5209 -0.1327  0.0829
13386TIP3    H161649   1.961   6.383   4.705 -0.0711 -1.1015 -0.3392
13386TIP3    H261650   1.993   6.507   4.625 -1.3510  0.1544  1.0476
13387TIP3   OH261651   3.265   1.272   5.099  0.3950  0.1314 -0.4365
13387TIP3    H161652   3.356   1.299   5.084  1.5211 -0.5912  3.9006
13387TIP3    H261653   3.227   1.344   5.149 -0.9691 -0.2539 -0.8875
13388TIP3   OH261654   1.108   1.178   0.606 -0.4118 -0.1353  0.1117
13388TIP3    H161655   1.095   1.128   0.525  2.3259 -1.2662  0.2481
13388TIP3    H261656   1.050   1.254   0.597 -1.1326 -0.8740 -2.3104
13389TIP3   OH261657   6.684   2.203  13.844  0.1113  0.0310 -0.6278
13389TIP3    H161658   6.647   2.196  13.756 -1.0403 -0.1468 -0.1446
13389TIP3    H261659   6.616   2.170  13.902  1.0281 -0.2929  0.3079
13390TIP3   OH261660   6.464   5.734   3.546  0.5407  0.6339 -0.5241
13390TIP3    H161661   6.498   5.664   3.601 -0.6412 -0.2274 -0.8515
13390TIP3    H261662   6.369   5.725   3.550  0.3766  1.7766 -1.1490
13391TIP3   OH261663   6.566   0.613   2.654 -0.5154  0.4214 -0.3078
13391TIP3    H161664   6.600   0.596   2.742 -0.6249  0.5358 -0.2440
13391TIP3    H261665   6.481   0.654   2.668 -0.5926  0.3183 -0.4681
13392TIP3   OH261666   2.642   2.687   4.603  0.2804 -0.6009 -0.5356
13392TIP3    H161667   2.725   2.646   4.627 -0.5308 -2.1110 -0.1143
13392TIP3    H261668   2.604   2.715   4.687 -0.2562 -1.2120 -0.5658
13393TIP3   OH261669   0.766   5.114  10.688  0.5508 -0.0401  0.8487
13393TIP3    H161670   0.842   5.154  10.731  2.0026 -0.7862 -0.9090
13393TIP3    H261671   0.801   5.036  10.645 -0.5881  1.0666 -2.3654
13394TIP3   OH261672   6.612   4.455  11.096 -0.4897  1.5066  0.1206
13394TIP3    H161673   6.666   4.416  11.165  0.0914  1.9671 -0.0638
13394TIP3    H261674   6.532   4.482  11.140 -1.8741 -1.7804 -0.0983
13395TIP3   OH261675   3.858   6.485  16.215 -0.1568  0.3840 -0.0092
13395TIP3    H161676   3.847   6.436  16.297  1.7340 -1.1726 -0.6011
13395TIP3    H261677   3.836   6.422  16.146  2.1508  0.3487 -0.7934
13396TIP3   OH261678   3.223   3.883  15.603  0.7991  0.0055 -0.7539
13396TIP3    H161679   3.281   3.958  15.620  0.6933  0.7585 -3.2816
13396TIP3    H261680   3.273   3.828  15.543 -1.1281  0.8648 -3.3193
13397TIP3   OH261681   3.151   5.829  13.292  0.0171  0.1413  0.6196
13397TIP3    H161682   3.185   5.756  13.344 -1.0359 -0.2204  0.8373
13397TIP3    H261683   3.221   5.895  13.294  0.7716 -0.6521  0.8541
13398TIP3   OH261684   1.205   3.529   1.477 -0.1434  0.5857  0.9504
13398TIP3    H161685   1.270   3.547   1.545  1.2795 -4.0576  1.1524
13398TIP3    H261686   1.254   3.489   1.405 -2.1971  1.4169 -1.0649
13399TIP3   OH261687   6.219   2.749   3.919 -0.0968 -0.2001  0.2925
13399TIP3    H161688   6.302   2.710   3.945 -0.5467  0.0750  2.3421
13399TIP3    H261689   6.222   2.838   3.954 -0.6100  0.3614 -1.0305
13400TIP3   OH261690   1.176   2.992   2.060 -0.2748 -0.2949  0.0029
13400TIP3    H161691   1.167   3.056   2.131  1.2166 -1.2738  1.1147
13400TIP3    H261692   1.189   3.045   1.982 -1.3220  0.7920  0.5257
13401TIP3   OH261693   6.213   0.396  15.138  0.7317 -0.2748 -0.2924
13401TIP3    H161694   6.196   0.347  15.057  0.6174  0.0304 -0.4579
13401TIP3    H261695   6.133   0.446  15.153  0.5070 -0.8194  0.3738
13402TIP3   OH261696   0.946   4.453  10.691 -0.0866  0.2628  0.3832
13402TIP3    H161697   0.997   4.498  10.624  0.8653 -0.8103  0.3436
13402TIP3    H261698   0.948   4.361  10.665 -2.1648  0.1976  0.3398
13403TIP3   OH261699   3.869   1.277   1.851 -0.6271 -0.2031 -0.6102
13403TIP3    H161700   3.888   1.184   1.862  0.4070  0.2219  2.2853
13403TIP3    H261701   3.949   1.314   1.813 -0.7371 -0.3793 -1.0117
13404TIP3   OH261702   2.138   5.849  14.882  0.0474 -0.4085 -0.4605
13404TIP3    H161703   2.190   5.830  14.804 -1.7304  2.0108 -2.3972
13404TIP3    H261704   2.066   5.786  14.879  1.3953 -2.1231  0.8590
13405TIP3   OH261705   0.016   6.601  14.606 -0.2479  0.3153 -0.2080
13405TIP3    H161706   0.109   6.578  14.597 -0.5121 -0.7871 -0.2991
13405TIP3    H261707  -0.011   6.560  14.688 -0.5091  1.1794  0.1486
13406TIP3   OH261708   2.414   4.895   2.814  0.3411  0.4128 -0.0033
13406TIP3    H161709   2.496   4.897   2.764  0.1685 -0.1537 -0.3291
13406TIP3    H261710   2.349   4.931   2.754  0.3895  1.0635  0.3339
13407TIP3   OH261711   2.380   0.902   1.571  0.1737  0.3707  0.1829
13407TIP3    H161712   2.384   0.950   1.654 -0.0219 -0.2693  0.5630
13407TIP3    H261713   2.325   0.826   1.589 -0.3542  0.5291 -0.6936
13408TIP3   OH261714   6.120   3.405   0.263  0.2683  0.2175  0.4119
13408TIP3    H161715   6.146   3.490   0.297  1.5024 -0.0135  0.1130
13408TIP3    H261716   6.161   3.341   0.322  0.6961 -0.1627 -0.2743
13409TIP3   OH261717   1.310   3.511  11.210  0.0679 -0.5564  0.6749
13409TIP3    H161718   1.321   3.594  11.256  3.9185 -0.9110  0.6996
13409TIP3    H261719   1.382   3.456  11.241 -1.6355 -3.5219 -0.2374
13410TIP3   OH261720   5.840   3.414  11.362  0.2886 -0.1060 -0.5062
13410TIP3    H161721   5.814   3.493  11.409  0.7862 -0.0481 -0.3207
13410TIP3    H261722   5.778   3.347  11.391 -0.9712  0.5168 -1.6562
13411TIP3   OH261723   0.196   1.529  12.887 -0.1648 -0.3537  0.4573
13411TIP3    H161724   0.278   1.559  12.849  0.9856 -1.4958  1.8869
13411TIP3    H261725   0.128   1.583  12.845  1.3128  0.7453 -0.6227
13412TIP3   OH261726   4.741   2.500  13.370  0.0832 -0.2913  0.1401
13412TIP3    H161727   4.680   2.437  13.408 -1.8209  0.9158 -0.7971
13412TIP3    H261728   4.809   2.511  13.437  0.7333 -3.5619  0.1752
13413TIP3   OH261729   5.279   3.196   1.521  0.1563 -0.0315  0.5777
13413TIP3    H161730   5.314   3.219   1.607 -0.1848 -1.5534  1.1445
13413TIP3    H261731   5.190   3.231   1.522  0.1052 -0.1650  0.8935
13414TIP3   OH261732   2.050   2.636   1.674  0.3119  0.0870 -0.7040
13414TIP3    H161733   2.020   2.624   1.764  1.1107 -1.9840 -0.6545
13414TIP3    H261734   2.144   2.653   1.682  0.9705 -2.8077 -1.1671
13415TIP3   OH261735   0.419   6.593   4.583  0.4379  0.3528  0.1296
13415TIP3    H161736   0.476   6.570   4.655  0.3081  2.1526  0.8668
13415TIP3    H261737   0.332   6.567   4.612  0.7622 -2.1093 -0.8679
13416TIP3   OH261738   2.688   6.738  11.577  0.5204 -0.8092 -0.0325
13416TIP3    H161739   2.681   6.776  11.489  2.1263  0.0883  0.1961
13416TIP3    H261740   2.598   6.736  11.609  0.0859  0.3096 -1.1018
13417TIP3   OH261741   0.858   1.846  16.561 -0.1086  0.9537 -0.2429
13417TIP3    H161742   0.899   1.809  16.639 -2.0643 -1.4810 -0.2351
13417TIP3    H261743   0.799   1.914  16.594 -1.2450 -0.3482  0.5354
13418TIP3   OH261744   1.969   5.635  15.157 -0.8040  0.1849 -0.0626
13418TIP3    H161745   1.911   5.661  15.085 -1.0488  2.2345  0.8083
13418TIP3    H261746   2.057   5.643  15.122 -0.9075 -3.0741 -1.4404
13419TIP3   OH261747   3.840   0.197   1.451  0.9034  0.4096  0.1967
13419TIP3    H161748   3.777   0.142   1.403 -0.4905  2.6395 -0.6619
13419TIP3    H261749   3.863   0.144   1.528 -1.8371 -0.6582  0.4226
13420TIP3   OH261750   1.743   4.242   2.741 -0.0481 -0.5057 -0.7384
13420TIP3    H161751   1.719   4.309   2.678 -0.2259  0.0244 -0.1237
13420TIP3    H261752   1.712   4.160   2.703 -0.4310 -0.1530 -1.1898
13421TIP3   OH261753   3.595   4.019  14.044 -0.1959  0.3143  0.0291
13421TIP3    H161754   3.540   4.097  14.053 -1.0683 -0.1141 -1.2087
13421TIP3    H261755   3.533   3.949  14.024  0.6231 -0.6074  0.6411
13422TIP3   OH261756   4.409   3.668  14.440  0.0737  0.0268 -0.3644
13422TIP3    H161757   4.495   3.698  14.412  0.1972  0.4725  0.4410
13422TIP3    H261758   4.353   3.745  14.432 -0.2418 -0.2444 -0.8247
13423TIP3   OH261759   6.757   6.481  12.999 -0.9171  0.1678 -0.5125
13423TIP3    H161760   6.675   6.529  13.008 -0.7182  0.3774  0.2150
13423TIP3    H261761   6.821   6.546  12.969 -0.7659  0.2575 -0.0120
13424TIP3   OH261762   1.117   5.478  12.278  0.4128 -0.3319 -0.1075
13424TIP3    H161763   1.070   5.502  12.198 -0.0329  1.1447  0.5771
13424TIP3    H261764   1.183   5.546  12.288 -1.3283  1.1430  2.2705
13425TIP3   OH261765   2.660   6.064  15.024 -0.3347 -0.1404 -0.0132
13425TIP3    H161766   2.675   6.049  14.931  0.8677  0.8033  0.0084
13425TIP3    H261767   2.674   5.978  15.064  0.5007 -0.2664 -0.5490
13426TIP3   OH261768   5.549   2.340   5.583 -0.2007  0.0447 -0.3220
13426TIP3    H161769   5.634   2.374   5.612  0.0636 -1.4883  0.9176
13426TIP3    H261770   5.568   2.251   5.553 -1.2773 -0.1334 -0.5312
13427TIP3   OH261771   2.217   0.495  12.259 -0.7727 -0.1566  0.5108
13427TIP3    H161772   2.213   0.424  12.322 -1.3730 -0.6227 -0.0458
13427TIP3    H261773   2.177   0.460  12.180 -0.9527  0.7555  0.1833
13428TIP3   OH261774   4.664   6.730   0.290 -0.3042 -0.0629 -0.0411
13428TIP3    H161775   4.589   6.789   0.301  0.3361  0.7246  0.1144
13428TIP3    H261776   4.741   6.785   0.303  0.3054 -0.9780  0.3195
13429TIP3   OH261777   4.688   5.320  12.576  1.0556 -0.3701 -0.4838
13429TIP3    H161778   4.743   5.330  12.499  0.0025  0.8921 -1.1303
13429TIP3    H261779   4.687   5.408  12.616 -0.7866 -0.2181 -0.7498
13430TIP3   OH261780   1.324   2.350   1.160 -0.3190 -0.8560  0.3616
13430TIP3    H161781   1.297   2.298   1.236 -1.0032 -0.5354  0.3486
13430TIP3    H261782   1.376   2.290   1.107 -0.0338 -1.1517  0.9679
13431TIP3   OH261783   4.682   2.748  13.602  0.2644  0.0413  0.7366
13431TIP3    H161784   4.602   2.796  13.622 -0.9928 -1.5331 -0.2310
13431TIP3    H261785   4.726   2.801  13.535 -0.2310  0.6510  0.8885
13432TIP3   OH261786   1.341   6.627  15.462  0.1916  0.3112 -0.0257
13432TIP3    H161787   1.292   6.554  15.499  0.2047  1.0297  1.4961
13432TIP3    H261788   1.430   6.594  15.452  0.0256 -0.1156 -0.1294
13433TIP3   OH261789   2.300   4.783   5.384 -0.4325  0.1550 -1.0340
13433TIP3    H161790   2.249   4.754   5.308 -0.6168 -1.0672 -0.4614
13433TIP3    H261791   2.369   4.717   5.394 -0.8325 -0.1060  0.2711
13434TIP3   OH261792   6.419   5.886   4.461 -0.7809 -0.4784 -0.1509
13434TIP3    H161793   6.417   5.847   4.374 -1.4308 -1.1945  0.1766
13434TIP3    H261794   6.349   5.951   4.460  0.7599  1.2479 -0.9314
13435TIP3   OH261795   1.745   5.934   5.737 -0.2587  0.0307  0.1452
13435TIP3    H161796   1.690   5.993   5.788 -2.4002 -2.2576  0.7035
13435TIP3    H261797   1.807   5.899   5.800 -0.3652  0.0999  0.2886
13436TIP3   OH261798   1.590   5.257   0.480  0.6239 -0.0864 -0.1929
13436TIP3    H161799   1.518   5.283   0.422  0.2861  0.2907  0.3889
13436TIP3    H261800   1.576   5.164   0.495  1.6082 -0.5695 -1.9640
13437TIP3   OH261801   5.393   2.713  13.808 -0.0361  0.1726 -0.3106
13437TIP3    H161802   5.366   2.655  13.737  0.4811 -0.6363  0.1376
13437TIP3    H261803   5.320   2.775  13.817 -0.1201  0.2770 -1.5162
13438TIP3   OH261804   6.705   2.936   1.576  0.0936 -0.0085  0.8298
13438TIP3    H161805   6.781   2.889   1.611 -1.4187 -2.7049  0.7321
13438TIP3    H261806   6.647   2.868   1.543 -2.1626  1.9787  0.3937
13439TIP3   OH261807   2.021   6.659   5.616  0.0424 -0.3335 -0.1466
13439TIP3    H161808   2.100   6.607   5.601 -0.9612 -1.6480 -1.1133
13439TIP3    H261809   1.976   6.659   5.531 -0.8679  0.5947  0.3225
13440TIP3   OH261810   2.161   4.970   4.318  0.2960 -0.4291  0.1200
13440TIP3    H161811   2.136   5.051   4.275  0.4837 -0.5248 -0.1669
13440TIP3    H261812   2.099   4.905   4.285 -0.2298 -0.2880  0.7910
13441TIP3   OH261813   6.504   4.822   1.262 -0.3337 -0.9712 -0.4006
13441TIP3    H161814   6.420   4.841   1.220  0.4130  1.6848 -0.8970
13441TIP3    H261815   6.483   4.809   1.354 -1.2042  1.2993 -0.2042
13442TIP3   OH261816   2.906   3.896   4.969  0.7218 -0.0355  0.2345
13442TIP3    H161817   2.902   3.981   4.926 -0.5041  0.9629  2.2185
13442TIP3    H261818   2.979   3.851   4.925  0.7738  1.6213 -1.5175
13443TIP3   OH261819   4.126   1.383  11.913  0.0970  0.3589 -0.1078
13443TIP3    H161820   4.109   1.404  11.821  0.2811  2.2461  0.2366
13443TIP3    H261821   4.071   1.307  11.931 -0.4539  0.3690 -1.6053
13444TIP3   OH261822   2.828   6.007  13.076  0.1762 -0.6360  0.6570
13444TIP3    H161823   2.869   6.090  13.050  0.5233  0.3518  3.8297
13444TIP3    H261824   2.739   6.032  13.104 -0.2438 -1.6081  0.2435
13445TIP3   OH261825   3.022   4.456  11.679  0.5114  0.1821  0.2096
13445TIP3    H161826   3.071   4.455  11.597  1.4266 -0.0386  0.7371
13445TIP3    H261827   2.989   4.545  11.687 -1.3848 -0.2965 -1.4043
13446TIP3   OH261828   4.011   4.916   4.660 -0.1694  0.1096 -0.0170
13446TIP3    H161829   4.018   4.929   4.755 -2.4708 -0.9189  0.3545
13446TIP3    H261830   4.012   5.005   4.624 -0.2102  0.5563  1.0349
13447TIP3   OH261831   4.494   0.443  15.413  0.0521  0.1789  0.1344
13447TIP3    H161832   4.441   0.418  15.488  1.0823  0.4184  0.9803
13447TIP3    H261833   4.476   0.377  15.347 -1.9232  0.7226  0.0605
13448TIP3   OH261834   0.706   4.725   3.118 -0.7928  0.2460 -0.4564
13448TIP3    H161835   0.630   4.668   3.131  0.0623 -0.9550 -0.6274
13448TIP3    H261836   0.680   4.808   3.158 -1.2295 -0.9285  1.8451
13449TIP3   OH261837   4.073   4.916  16.219 -0.3074 -0.4062  0.3349
13449TIP3    H161838   4.026   4.837  16.246 -0.5245 -0.3119  0.2380
13449TIP3    H261839   4.005   4.984  16.218 -0.4550 -0.5470 -1.0960
13450TIP3   OH261840   3.020   5.875  15.109  0.0713 -0.3123  0.5835
13450TIP3    H161841   3.096   5.929  15.131  0.0740  0.9119 -2.0632
13450TIP3    H261842   2.956   5.937  15.074 -1.0868 -1.6808  0.1773
13451TIP3   OH261843   4.042   3.540   4.324 -0.1880 -0.1901 -0.4934
13451TIP3    H161844   4.078   3.527   4.237  2.4635  0.6463  0.3600
13451TIP3    H261845   4.073   3.627   4.350  0.2469 -0.9249  1.7424
13452TIP3   OH261846   0.157   6.812  12.250 -0.1408  0.1630 -0.0611
13452TIP3    H161847   0.229   6.805  12.187  0.2761 -0.9523  0.5240
13452TIP3    H261848   0.190   6.870  12.318  0.1823 -0.2848  0.1660
13453TIP3   OH261849   5.675   5.700  14.367  0.0059 -0.4381  0.0899
13453TIP3    H161850   5.606   5.766  14.355 -1.3376 -1.7953  0.0211
13453TIP3    H261851   5.731   5.710  14.290 -1.5814 -0.9612 -1.2046
13454TIP3   OH261852   0.883   3.031  15.276 -0.1916  0.3024  0.0843
13454TIP3    H161853   0.873   3.111  15.225 -1.7662  0.2599  0.2717
13454TIP3    H261854   0.820   3.040  15.348  0.6653 -0.4557  0.9669
13455TIP3   OH261855   5.762   6.115   5.459 -0.2311 -0.1476 -0.0614
13455TIP3    H161856   5.814   6.076   5.389 -0.0030  0.0571 -0.0051
13455TIP3    H261857   5.773   6.056   5.533  1.3243  0.7804  0.4993
13456TIP3   OH261858   1.185   6.505  12.197 -0.3402  0.0724  0.3306
13456TIP3    H161859   1.166   6.497  12.103  0.9131 -1.8128  0.1885
13456TIP3    H261860   1.105   6.474  12.240 -0.9112  0.9163 -0.1016
13457TIP3   OH261861   3.168   5.370  15.178  0.0276  0.0040 -0.6363
13457TIP3    H161862   3.222   5.296  15.204 -0.0945 -0.3581 -1.3699
13457TIP3    H261863   3.215   5.410  15.104 -0.2315  0.2655 -0.6640
13458TIP3   OH261864   2.996   3.255   6.036  0.3488 -0.5206 -0.4134
13458TIP3    H161865   2.957   3.168   6.047  0.9523 -0.6528  0.8375
13458TIP3    H261866   2.963   3.305   6.111  1.7530 -0.3267  0.0907
13459TIP3   OH261867   4.440   1.868   4.526  0.3043  0.0901 -0.1536
13459TIP3    H161868   4.394   1.805   4.471 -2.7955  1.6389  0.4145
13459TIP3    H261869   4.437   1.830   4.614  0.4040  0.0281 -0.1775
13460TIP3   OH261870   3.815   1.877   0.077  0.3241  0.7178 -0.0415
13460TIP3    H161871   3.769   1.824   0.143 -0.3198  1.2855 -0.0252
13460TIP3    H261872   3.772   1.855  -0.006  0.9879  0.1710 -0.2495
13461TIP3   OH261873   2.927   2.852   4.299 -0.8862 -0.2548 -0.1274
13461TIP3    H161874   2.901   2.909   4.227  0.1249  1.2298  0.6218
13461TIP3    H261875   2.995   2.796   4.262  0.1946  1.0389 -0.1797
13462TIP3   OH261876   3.655   3.131   5.965  0.2762  0.1961  0.4277
13462TIP3    H161877   3.716   3.074   6.012 -0.3886 -1.1110 -0.2189
13462TIP3    H261878   3.636   3.083   5.884 -0.3829  1.3110 -0.1000
13463TIP3   OH261879   1.706   4.062  12.814  0.1961 -0.0706 -0.2375
13463TIP3    H161880   1.665   4.001  12.877  1.6930 -1.6860 -0.7621
13463TIP3    H261881   1.672   4.035  12.729 -0.5624  1.0699 -0.3217
13464TIP3   OH261882   5.388   4.379   6.427 -0.0788 -0.1139  0.0133
13464TIP3    H161883   5.449   4.360   6.498  1.5918  1.6265 -0.8583
13464TIP3    H261884   5.424   4.334   6.351 -0.4041  0.1510 -0.3038
13465TIP3   OH261885   1.879   2.075  14.479 -0.0210 -0.2017  0.3021
13465TIP3    H161886   1.804   2.102  14.532 -0.9868 -1.2959 -0.4701
13465TIP3    H261887   1.944   2.145  14.493 -1.7714  1.6430 -0.3013
13466TIP3   OH261888   4.629   4.990   0.549  0.3516  0.4819 -0.5312
13466TIP3    H161889   4.605   5.077   0.517 -1.1660 -0.0227 -0.8438
13466TIP3    H261890   4.578   4.930   0.495  0.5114 -0.5608  0.4377
13467TIP3   OH261891   2.141   3.146   5.176 -0.4997  0.4203  0.3229
13467TIP3    H161892   2.125   3.057   5.209 -0.0155 -0.7112 -2.2100
13467TIP3    H261893   2.069   3.162   5.115 -0.6967  1.9004  0.9115
13468TIP3   OH261894   0.024   3.861   2.504 -0.3447 -0.9602 -0.5176
13468TIP3    H161895   0.047   3.806   2.579  4.0048  0.4399 -0.5704
13468TIP3    H261896   0.033   3.804   2.428  0.2422 -1.1636 -0.2990
13469TIP3   OH261897   0.943   1.410  14.875 -0.4106 -0.1045  0.2938
13469TIP3    H161898   1.021   1.360  14.901 -0.0205  0.2280 -0.1964
13469TIP3    H261899   0.971   1.457  14.796 -0.7035  1.0388  0.8616
13470TIP3   OH261900   2.467   4.070   2.755  0.1338  0.0816  0.1957
13470TIP3    H161901   2.448   4.163   2.740 -0.0176 -0.2326 -1.9425
13470TIP3    H261902   2.384   4.026   2.737  0.2383 -0.5060  1.0697
13471TIP3   OH261903   6.403   6.710  15.905 -0.0179 -0.3420 -0.6169
13471TIP3    H161904   6.448   6.777  15.956  3.8274 -0.7364 -3.0843
13471TIP3    H261905   6.355   6.659  15.970  2.4370  0.7098  2.2822
13472TIP3   OH261906   1.371   1.478   2.683 -0.5327 -0.2335 -0.3443
13472TIP3    H161907   1.345   1.491   2.774  0.3850 -0.9120  0.0265
13472TIP3    H261908   1.368   1.566   2.645 -2.6406 -0.1669 -0.1645
13473TIP3   OH261909   6.026   3.791  12.592  0.3566  0.1113  0.5328
13473TIP3    H161910   6.104   3.844  12.579  1.0350 -1.2838 -1.9778
13473TIP3    H261911   5.976   3.803  12.511 -1.9543  0.7819  1.9863
13474TIP3   OH261912   3.737   0.054  13.156 -0.1554  0.0266 -0.1312
13474TIP3    H161913   3.795  -0.008  13.112 -1.3615 -0.5500 -0.9385
13474TIP3    H261914   3.791   0.133  13.166  0.7297 -0.4385 -1.0023
13475TIP3   OH261915   4.257   3.535  10.092  0.0613 -0.4013 -0.5990
13475TIP3    H161916   4.333   3.511  10.145  0.9189  4.0081  0.5415
13475TIP3    H261917   4.184   3.487  10.132  1.6438 -2.0219  0.5100
13476TIP3   OH261918   6.588   4.244  16.972 -0.0856 -0.3074  0.4887
13476TIP3    H161919   6.501   4.246  17.012 -0.1262 -0.7311  0.4213
13476TIP3    H261920   6.589   4.319  16.913  0.6894  1.5931  2.7608
13477TIP3   OH261921   5.631   2.727   5.136 -0.0896 -0.1138 -0.1265
13477TIP3    H161922   5.644   2.815   5.171 -1.2182 -0.6591  1.8584
13477TIP3    H261923   5.639   2.670   5.213 -1.0312 -1.5796 -1.0749
13478TIP3   OH261924   4.497   5.642   3.049 -0.0058  0.1040 -0.4628
13478TIP3    H161925   4.558   5.671   3.117  0.6366 -2.6495  0.2416
13478TIP3    H261926   4.424   5.604   3.097 -1.1662  1.1529 -1.3361
13479TIP3   OH261927   3.989   1.459  14.819  0.3529 -0.2229 -0.4050
13479TIP3    H161928   3.992   1.379  14.768  0.2181 -0.6524  0.2509
13479TIP3    H261929   3.965   1.527  14.756  3.0990 -0.1837 -1.5404
13480TIP3   OH261930   4.184   2.925  13.083  0.1730  0.4110  0.6167
13480TIP3    H161931   4.276   2.902  13.067  0.0897 -0.6977  1.5417
13480TIP3    H261932   4.138   2.841  13.079 -0.5629  0.7459  1.6566
13481TIP3   OH261933   2.418   5.663   3.064 -0.0013  0.2525  0.1706
13481TIP3    H161934   2.361   5.610   3.119 -1.7749  0.6608 -1.1637
13481TIP3    H261935   2.403   5.631   2.975  0.4922  1.5674 -0.4232
13482TIP3   OH261936   5.305   3.851   5.503  0.4149  0.0715 -0.0400
13482TIP3    H161937   5.336   3.842   5.593 -2.1778  0.0390  0.9329
13482TIP3    H261938   5.214   3.821   5.506  0.3454 -0.2364 -2.7632
13483TIP3   OH261939   0.129   0.048  11.120 -0.3444  0.2226  0.0293
13483TIP3    H161940   0.155   0.055  11.028 -0.7025 -1.9817 -0.2883
13483TIP3    H261941   0.210   0.064  11.169 -0.2070  1.6914 -0.6313
13484TIP3   OH261942   1.769   3.441  16.480  0.0412  0.4431 -0.0900
13484TIP3    H161943   1.747   3.406  16.393  0.4933  0.3703 -0.1777
13484TIP3    H261944   1.777   3.535  16.466 -0.3340  0.4851 -0.0313
13485TIP3   OH261945   5.615   1.512   4.004  0.1864  0.2785  0.0838
13485TIP3    H161946   5.596   1.438   4.061  0.4494  0.5681  0.5476
13485TIP3    H261947   5.552   1.503   3.932 -1.0542  0.6649  1.0871
13486TIP3   OH261948   4.197   4.980   2.546  0.0537  0.5735 -0.0910
13486TIP3    H161949   4.124   5.027   2.506  0.5416  1.3726 -0.0657
13486TIP3    H261950   4.245   4.944   2.472 -2.0439 -2.6560 -0.0614
13487TIP3   OH261951   1.445   1.610   1.592  0.1972  0.2508  0.1079
13487TIP3    H161952   1.489   1.637   1.673 -1.1500 -0.4361  1.1040
13487TIP3    H261953   1.437   1.515   1.599 -1.7126  0.3720  0.1451
13488TIP3   OH261954   5.932   4.677   4.740  0.3185  0.0245  0.1972
13488TIP3    H161955   5.891   4.643   4.661 -0.8580 -1.5299  1.4102
13488TIP3    H261956   6.020   4.639   4.740  0.0921 -0.5124 -0.0278
13489TIP3   OH261957   0.392   2.253  12.343  0.2069 -0.1265  0.5793
13489TIP3    H161958   0.466   2.243  12.402  0.0378 -0.0237  0.8088
13489TIP3    H261959   0.382   2.348  12.333 -1.5437 -0.0299  2.6379
13490TIP3   OH261960   2.811   0.702   2.065  0.0547  0.0994  0.2210
13490TIP3    H161961   2.757   0.755   2.007  0.8002 -0.2990 -0.8654
13490TIP3    H261962   2.795   0.737   2.152 -0.9864  0.7952 -0.2376
13491TIP3   OH261963   0.208   1.787   0.174  0.4518 -0.0325  0.6493
13491TIP3    H161964   0.216   1.802   0.080  1.5905  0.3012  0.7821
13491TIP3    H261965   0.292   1.747   0.199  1.2126  2.2310  1.9401
13492TIP3   OH261966   0.092   3.590  12.838  0.3927 -0.7980 -0.5942
13492TIP3    H161967   0.109   3.636  12.756  2.3379 -0.3831 -0.0235
13492TIP3    H261968   0.164   3.527  12.846 -0.5062 -1.7892  0.1604
13493TIP3   OH261969   0.786   0.258  16.247  0.3907  0.5734  0.0539
13493TIP3    H161970   0.864   0.248  16.301  0.0818  0.0941  0.4231
13493TIP3    H261971   0.775   0.352  16.237 -0.1107  0.7137  1.6632
13494TIP3   OH261972   5.518   4.336  15.452  0.1117  0.3085 -0.5332
13494TIP3    H161973   5.533   4.264  15.391 -3.4986 -1.1640  0.0857
13494TIP3    H261974   5.425   4.354  15.447  0.3661  2.9595  1.5731
13495TIP3   OH261975   1.262   3.183  13.631  0.3183  0.3672 -0.5378
13495TIP3    H161976   1.217   3.210  13.711 -0.6362 -1.0949 -0.5435
13495TIP3    H261977   1.348   3.153  13.661 -0.2967 -0.8645  0.0771
13496TIP3   OH261978   4.768   6.054   3.450 -0.1936  0.3912  0.2093
13496TIP3    H161979   4.845   6.064   3.394  0.6319  0.5422  1.3164
13496TIP3    H261980   4.802   6.009   3.528 -0.9159  1.7415  1.3450
13497TIP3   OH261981   1.039   3.328  14.377  0.1052  0.0119  0.6184
13497TIP3    H161982   1.079   3.392  14.319 -0.2137 -1.0749 -0.8721
13497TIP3    H261983   0.949   3.320  14.347 -0.3770  0.1842  1.9540
13498TIP3   OH261984   3.885   1.158  10.982 -0.7731  0.5860 -0.2216
13498TIP3    H161985   3.916   1.208  10.906 -1.3085 -1.0763 -1.5909
13498TIP3    H261986   3.964   1.118  11.019 -0.7221 -0.1255 -1.0726
13499TIP3   OH261987   0.089   6.200  11.433 -0.1385  0.0635  0.5173
13499TIP3    H161988   0.120   6.156  11.354  3.5682 -1.2737  2.4736
13499TIP3    H261989   0.136   6.284  11.434 -1.1908  0.6737  0.6881
13500TIP3   OH261990   6.723   1.864   5.196 -0.3469  0.1210 -0.0646
13500TIP3    H161991   6.681   1.783   5.167  2.8947 -1.6576 -0.2761
13500TIP3    H261992   6.805   1.867   5.147  0.9185  2.0705  1.9831
13501TIP3   OH261993   1.732   6.003  11.153  0.1081  0.0657 -0.0899
13501TIP3    H161994   1.724   6.085  11.201  2.7685  0.1135  0.4588
13501TIP3    H261995   1.763   6.029  11.066 -1.0043 -0.2599 -0.5985
13502TIP3   OH261996   6.358   0.183  16.262  0.2949 -0.7501 -0.3129
13502TIP3    H161997   6.288   0.154  16.204  1.3121 -4.1627 -0.0274
13502TIP3    H261998   6.381   0.270  16.229 -1.2370 -1.2623 -3.0618
13503TIP3   OH261999   4.737   4.105  13.314 -0.0376  0.0875 -0.0810
13503TIP3    H162000   4.778   4.139  13.234 -0.3831 -0.9957 -0.7410
13503TIP3    H262001   4.643   4.115  13.299 -0.1051 -0.1281  0.1888
13504TIP3   OH262002   4.556   5.176  17.141  0.1553 -0.1428  0.2547
13504TIP3    H162003   4.626   5.203  17.199 -0.6440  2.1077  0.2643
13504TIP3    H262004   4.478   5.220  17.175 -0.4498  0.7851 -2.1319
13505TIP3   OH262005   3.280   4.774  13.340 -0.0207  0.1830 -0.3632
13505TIP3    H162006   3.276   4.840  13.409 -2.4196 -1.1332  0.9042
13505TIP3    H262007   3.353   4.718  13.365  0.0462  0.5530  0.2995
13506TIP3   OH262008   1.795   5.710  16.193 -0.4460 -0.0554 -0.4080
13506TIP3    H162009   1.731   5.707  16.263  1.5711  0.8951  1.6262
13506TIP3    H262010   1.829   5.800  16.196  2.0910 -0.9183 -0.2243
13507TIP3   OH262011   1.649   3.335  14.255 -0.5002 -0.1316 -0.3375
13507TIP3    H162012   1.619   3.327  14.165  0.1183  1.1030 -0.6631
13507TIP3    H262013   1.744   3.336  14.249 -0.3551 -2.5685  0.5694
13508TIP3   OH262014   5.194   1.006  16.347  0.0246 -1.0733 -0.0969
13508TIP3    H162015   5.271   1.015  16.404 -1.4519  1.7076  1.6716
13508TIP3    H262016   5.193   1.087  16.296 -2.2519 -0.5683  0.6687
13509TIP3   OH262017   5.984   0.627  13.029 -0.0197  0.0190 -0.4882
13509TIP3    H162018   6.001   0.676  12.949  2.3636 -0.0204 -0.0575
13509TIP3    H262019   6.070   0.608  13.065 -0.9726 -1.6577  1.0886
13510TIP3   OH262020   6.094   2.272  12.483  0.0888 -0.4002  0.4691
13510TIP3    H162021   6.011   2.249  12.524 -0.1506 -0.9504 -0.2961
13510TIP3    H262022   6.147   2.193  12.490 -0.5175 -1.0567 -1.6348
13511TIP3   OH262023   5.795   3.394  16.108 -0.4887 -0.0757  0.2825
13511TIP3    H162024   5.735   3.388  16.183 -1.5291 -1.4551 -0.6085
13511TIP3    H262025   5.739   3.410  16.033  0.1802 -1.7642 -0.6291
13512TIP3   OH262026   1.459   1.245   0.973 -0.2659 -0.2374 -0.2884
13512TIP3    H162027   1.433   1.245   1.065 -0.9642 -0.5252 -0.4809
13512TIP3    H262028   1.388   1.290   0.928 -0.8302 -1.6873 -0.9175
13513TIP3   OH262029   6.145   3.493  13.927 -0.0766  0.1500 -0.0468
13513TIP3    H162030   6.107   3.534  14.005  0.5465  0.9651 -0.1530
13513TIP3    H262031   6.076   3.438  13.892 -0.3338 -0.3036  1.1411
13514TIP3   OH262032   6.611   4.111   3.973 -0.3185 -0.3722  1.2129
13514TIP3    H162033   6.539   4.082   3.918 -1.1564 -0.5664  2.3658
13514TIP3    H262034   6.603   4.206   3.975  0.0739 -0.3230  0.5346
13515TIP3   OH262035   5.877   0.174  17.176  0.1096 -0.1259  0.1038
13515TIP3    H162036   5.903   0.246  17.233  2.8363 -1.2518  0.3999
13515TIP3    H262037   5.789   0.151  17.206 -0.2599  2.0798  0.9452
13516TIP3   OH262038   5.366   2.378   5.242  0.3453 -0.4134  0.2164
13516TIP3    H162039   5.392   2.409   5.329 -0.7823 -1.3693  0.9307
13516TIP3    H262040   5.281   2.420   5.225 -0.2589 -1.5317  0.3488
13517TIP3   OH262041   2.649   3.224  13.621  0.0812 -0.6179 -0.1671
13517TIP3    H162042   2.666   3.232  13.527  2.7888  5.5558  0.3513
13517TIP3    H262043   2.570   3.277  13.635  0.5229 -0.2777  1.1144
13518TIP3   OH262044   0.951   0.850  13.042 -0.0714 -0.1706  0.3468
13518TIP3    H162045   1.003   0.779  13.079 -0.0763 -1.0166 -1.2014
13518TIP3    H262046   0.861   0.826  13.061 -0.0459 -0.2724  0.3394
13519TIP3   OH262047   5.398   3.563   3.946  0.6782  0.2157 -0.1421
13519TIP3    H162048   5.376   3.574   4.038  0.3420  3.0556 -0.4758
13519TIP3    H262049   5.315   3.545   3.903  0.2259  2.2997 -0.2625
13520TIP3   OH262050   6.458   5.874  12.201  0.7439 -0.3678 -0.0976
13520TIP3    H162051   6.455   5.967  12.177 -1.8629 -0.3441  0.0901
13520TIP3    H262052   6.402   5.830  12.137  0.4637 -1.5401  0.9173
13521TIP3   OH262053   4.232   4.500   1.364  0.3403  0.2588  0.4120
13521TIP3    H162054   4.295   4.428   1.351  0.0450  0.3552 -2.0142
13521TIP3    H262055   4.286   4.577   1.378  0.7446  0.1544 -0.5471
13522TIP3   OH262056   1.032   6.579   4.477 -0.0045  0.0873 -0.1057
13522TIP3    H162057   1.059   6.662   4.516  0.1064  0.1534 -0.3194
13522TIP3    H262058   1.101   6.559   4.413 -0.5423  0.3566 -0.7897
13523TIP3   OH262059   1.877   4.293  15.099  0.1786  0.4066 -0.0057
13523TIP3    H162060   1.896   4.340  15.180  0.9469 -0.4351  0.3128
13523TIP3    H262061   1.785   4.268  15.107  0.5585 -0.7026  1.1517
13524TIP3   OH262062   4.723   3.374   1.722 -0.1922 -0.3210 -0.3543
13524TIP3    H162063   4.731   3.470   1.721 -1.5232 -0.0980  1.8974
13524TIP3    H262064   4.666   3.354   1.648  0.6238  0.5525 -1.2460
13525TIP3   OH262065   3.638   0.368   2.596  0.6837  0.1030 -0.5681
13525TIP3    H162066   3.601   0.366   2.685 -0.3459 -0.6404 -0.9809
13525TIP3    H262067   3.726   0.403   2.607  1.0669 -1.2263  0.9328
13526TIP3   OH262068   4.397   2.544  15.059  0.2693  0.5272  0.1678
13526TIP3    H162069   4.362   2.465  15.100 -1.3990  1.4750  0.6383
13526TIP3    H262070   4.328   2.573  15.000  2.0447  0.0109 -2.2997
13527TIP3   OH262071   1.014   4.177  13.229 -0.1988 -0.3153 -0.4251
13527TIP3    H162072   1.061   4.256  13.202  1.9349 -0.7060  1.8158
13527TIP3    H262073   1.067   4.140  13.300 -4.7690  0.2482  3.8633
13528TIP3   OH262074   2.520   0.316   5.323  0.3069 -0.1728 -0.3487
13528TIP3    H162075   2.440   0.357   5.289  1.3066  1.8584 -0.4456
13528TIP3    H262076   2.573   0.298   5.245  1.3412  1.7068 -0.1436
13529TIP3   OH262077   2.123   0.643   1.851  0.3913  0.0506 -0.1180
13529TIP3    H162078   2.072   0.651   1.932 -1.1119  0.1913 -1.0348
13529TIP3    H262079   2.138   0.734   1.824  3.4572  0.1536  1.4559
13530TIP3   OH262080   1.371   2.333  11.596  0.0672  0.1302  0.2424
13530TIP3    H162081   1.278   2.314  11.594  0.2711 -0.8849 -0.4992
13530TIP3    H262082   1.391   2.365  11.509  0.6137 -0.7688  0.0208
13531TIP3   OH262083   5.005   0.690  15.985  0.0378  0.5573  0.1023
13531TIP3    H162084   4.998   0.595  15.978 -0.2089  0.6943 -2.3317
13531TIP3    H262085   5.092   0.704  16.024 -0.6947 -0.6311  2.3548
13532TIP3   OH262086   3.201   5.335  14.895  0.4372 -0.1038 -0.1979
13532TIP3    H162087   3.240   5.369  14.814 -0.5075 -0.9505 -1.0379
13532TIP3    H262088   3.113   5.373  14.897  1.2004  1.7153  1.6316
13533TIP3   OH262089   6.091   1.210   6.069 -0.1393  0.6800 -0.2196
13533TIP3    H162090   6.141   1.279   6.112  0.6386 -0.1147  0.1835
13533TIP3    H262091   6.150   1.134   6.068 -2.0577 -1.0144  2.2692
13534TIP3   OH262092   3.740   5.804   4.752 -0.0137 -0.0562 -0.5612
13534TIP3    H162093   3.655   5.774   4.719  0.6176 -1.5921 -0.8850
13534TIP3    H262094   3.757   5.885   4.705 -1.1253  0.0772 -0.7631
13535TIP3   OH262095   1.507   2.607  16.987  0.2725  0.7745 -0.4617
13535TIP3    H162096   1.531   2.683  17.041  1.7625  0.7004 -0.9801
13535TIP3    H262097   1.589   2.558  16.977 -0.3428 -0.0960 -1.4123
13536TIP3   OH262098   1.581   3.645  10.495 -0.0926  0.4766 -0.5069
13536TIP3    H162099   1.533   3.600  10.425 -0.6554  1.2614 -0.6424
13536TIP3    H262100   1.513   3.690  10.545  0.4330  0.9792 -0.2388
13537TIP3   OH262101   0.200   6.357   5.275  0.7098 -0.1743 -0.3889
13537TIP3    H162102   0.174   6.376   5.185  1.3721  1.2431 -0.3105
13537TIP3    H262103   0.267   6.289   5.267  0.9582  0.1356 -0.9855
13538TIP3   OH262104   4.709   5.929   4.022 -0.7059 -0.3434 -0.3473
13538TIP3    H162105   4.644   5.900   4.086  0.3804 -0.6887  0.6317
13538TIP3    H262106   4.715   5.857   3.959  0.9145 -1.7140  1.2579
13539TIP3   OH262107   4.990   6.615   4.601 -0.3359 -0.0721  0.2830
13539TIP3    H162108   4.926   6.686   4.598 -0.6200 -0.2820  1.2005
13539TIP3    H262109   5.043   6.628   4.522 -1.2140  0.3692 -0.2549
13540TIP3   OH262110   1.500   2.234  12.487  0.3342 -0.2797 -0.1775
13540TIP3    H162111   1.592   2.261  12.493  0.2232  0.0490  0.1209
13540TIP3    H262112   1.498   2.146  12.522  0.5479 -0.3171 -0.2558
13541TIP3   OH262113   2.310   1.666  13.728  0.1737  0.5333 -0.1418
13541TIP3    H162114   2.370   1.671  13.654  0.8364 -2.7122  0.0427
13541TIP3    H262115   2.363   1.632  13.800 -1.1895  0.5868  0.9293
13542TIP3   OH262116   3.152   6.279  15.138  0.1307  0.5661 -0.2208
13542TIP3    H162117   3.205   6.327  15.202 -0.2094  0.4018  0.1950
13542TIP3    H262118   3.181   6.312  15.053 -1.4921  3.0216  0.0756
13543TIP3   OH262119   1.854   0.059  12.524 -0.1302  0.2645 -0.7270
13543TIP3    H162120   1.861   0.075  12.431  0.6182 -0.0025 -0.7226
13543TIP3    H262121   1.915  -0.013  12.541  0.3963  0.8845  0.1138
13544TIP3   OH262122   2.545   1.762   3.796  0.1661 -0.5979 -0.3141
13544TIP3    H162123   2.581   1.801   3.717 -0.9952  0.7856 -0.1984
13544TIP3    H262124   2.450   1.760   3.782 -0.0014 -1.0379  0.7289
13545TIP3   OH262125   3.080   2.556  16.345  0.6050 -0.0219  0.5738
13545TIP3    H162126   3.071   2.548  16.250  2.0813 -0.3328  0.4319
13545TIP3    H262127   3.170   2.587  16.357  0.2791  0.4481  1.8554
13546TIP3   OH262128   3.018   6.709   5.226 -0.0234 -0.6558  0.0980
13546TIP3    H162129   2.955   6.639   5.243 -0.2833 -0.6866 -0.9265
13546TIP3    H262130   3.103   6.671   5.249 -0.0246 -1.7378 -1.5194
13547TIP3   OH262131   3.838   3.053   0.739  0.1098  0.1527 -0.0638
13547TIP3    H162132   3.826   3.038   0.645  0.0005 -1.2239  0.1604
13547TIP3    H262133   3.867   3.144   0.744  1.7512 -0.2202 -1.5773
13548TIP3   OH262134   5.367   2.342  13.424  0.3447  0.1642 -0.0509
13548TIP3    H162135   5.385   2.422  13.473 -1.6361  0.3950  0.3899
13548TIP3    H262136   5.429   2.278  13.458  0.8391  1.0585  0.7844
13549TIP3   OH262137   6.467   2.758   4.068 -0.4526  0.6274  0.8689
13549TIP3    H162138   6.463   2.702   4.146  2.0852  0.6320  1.0945
13549TIP3    H262139   6.507   2.840   4.100 -1.6854  1.5935  0.0220
13550TIP3   OH262140   2.901   0.053  10.367  0.3111 -0.1043 -0.2565
13550TIP3    H162141   2.907   0.020  10.457  1.4554  0.3530 -0.1447
13550TIP3    H262142   2.930   0.144  10.373  0.7620 -0.1777 -1.1434
13551TIP3   OH262143   2.136   5.500   5.008 -0.2382 -0.2489  0.3155
13551TIP3    H162144   2.102   5.570   4.952 -0.6667 -0.3290  0.4694
13551TIP3    H262145   2.059   5.467   5.055 -0.2771 -1.6713 -0.6752
13552TIP3   OH262146   1.473   3.868   5.238  0.3923 -0.4349  0.4732
13552TIP3    H162147   1.484   3.939   5.301  0.6010 -1.2818  1.4284
13552TIP3    H262148   1.502   3.790   5.285  1.6424 -0.9513 -1.0496
13553TIP3   OH262149   5.280   6.233   5.812  0.5405  0.5705 -0.0900
13553TIP3    H162150   5.333   6.241   5.891 -0.0594 -0.7263  0.4740
13553TIP3    H262151   5.241   6.320   5.800  0.2309  0.6484  1.3486
13554TIP3   OH262152   3.894   0.495   2.888  0.0159  0.1353  0.2536
13554TIP3    H162153   3.920   0.584   2.912 -1.8134  0.4950  1.1326
13554TIP3    H262154   3.902   0.445   2.969  0.5305 -0.3839 -0.1136
13555TIP3   OH262155   4.961   2.011  15.958  0.3561  0.5332  0.1547
13555TIP3    H162156   5.044   2.019  15.911 -0.8826 -0.9193 -2.5583
13555TIP3    H262157   4.951   1.917  15.973 -0.5427  0.7366  0.9482
13556TIP3   OH262158   6.658   4.823   1.703 -0.3490 -0.3514  0.8329
13556TIP3    H162159   6.751   4.840   1.719 -0.5233  0.6854  0.8128
13556TIP3    H262160   6.654   4.730   1.682  0.8373 -0.2113 -0.1678
13557TIP3   OH262161   3.320   0.772  14.875  0.0621 -0.3625  0.1021
13557TIP3    H162162   3.411   0.783  14.848  0.4439 -1.2682  0.9339
13557TIP3    H262163   3.268   0.798  14.799  0.9737  1.3374  0.0158
13558TIP3   OH262164   1.023   1.407   4.758 -0.1031 -0.1011 -0.3650
13558TIP3    H162165   1.014   1.486   4.704 -0.2618 -0.7343 -1.3006
13558TIP3    H262166   1.117   1.392   4.762 -0.0530  0.3363  0.1174
13559TIP3   OH262167   3.443   4.683  15.350 -0.0426 -0.4499 -0.6386
13559TIP3    H162168   3.399   4.623  15.289 -2.6537  0.9136 -0.2679
13559TIP3    H262169   3.411   4.657  15.436 -0.0297  0.5064 -0.3298
13560TIP3   OH262170   5.873   1.241   5.890 -0.3037 -0.5931  0.1714
13560TIP3    H162171   5.955   1.218   5.933 -0.2155 -1.3230 -0.3702
13560TIP3    H262172   5.805   1.195   5.940 -0.3058 -0.5768  0.1833
13561TIP3   OH262173   5.032   5.472  14.618 -0.3428  0.5807 -0.4298
13561TIP3    H162174   5.037   5.386  14.659  0.1780  0.5399 -0.5614
13561TIP3    H262175   5.087   5.464  14.540  1.0785  1.4994  0.4351
13562TIP3   OH262176   0.185   5.171   1.200  0.1996  0.0011 -0.2548
13562TIP3    H162177   0.198   5.145   1.109 -0.9922  0.9617 -0.7285
13562TIP3    H262178   0.193   5.089   1.250  0.2308 -0.6431 -1.2866
13563TIP3   OH262179   0.714   4.519  14.226  0.2481  0.4806 -0.4120
13563TIP3    H162180   0.691   4.567  14.146  2.6596  2.1200 -0.2545
13563TIP3    H262181   0.791   4.467  14.201  0.0501 -0.2521  0.4537
13564TIP3   OH262182   1.413   0.049   3.796 -0.3489 -0.4668 -0.2900
13564TIP3    H162183   1.474   0.055   3.722  0.3159  0.8936  0.3238
13564TIP3    H262184   1.466   0.075   3.872 -1.9715  2.0578  0.0922
13565TIP3   OH262185   6.043   6.184  12.889 -0.5049  0.8174 -0.2300
13565TIP3    H162186   6.040   6.222  12.801 -1.3835 -0.8090 -0.9257
13565TIP3    H262187   6.115   6.122  12.886 -1.3429 -0.1734 -0.2017
13566TIP3   OH262188   3.793   6.047   4.606  0.0182  0.0810 -0.1016
13566TIP3    H162189   3.819   6.081   4.521 -1.5796  0.2891 -0.5199
13566TIP3    H262190   3.871   6.059   4.661  1.2620 -0.5602 -1.6429
13567TIP3   OH262191   1.027   2.326   3.340 -0.4149  0.0361 -0.3898
13567TIP3    H162192   1.092   2.388   3.372 -1.7562  2.2853 -1.8062
13567TIP3    H262193   1.073   2.277   3.271  0.5790 -0.4821  0.5887
13568TIP3   OH262194   6.208   3.673  10.547  0.1544  0.0857  0.3120
13568TIP3    H162195   6.115   3.652  10.543  0.4481 -1.1768 -0.2823
13568TIP3    H262196   6.249   3.593  10.579  0.9763  0.8528  1.2350
13569TIP3   OH262197   5.373   4.378  14.123  0.1546  0.0697 -0.2830
13569TIP3    H162198   5.403   4.395  14.213  0.4871  2.9872 -0.8217
13569TIP3    H262199   5.281   4.405  14.123 -0.8640 -3.0761 -0.1091
13570TIP3   OH262200   2.765   0.048  13.400  0.1313  0.3450 -0.1553
13570TIP3    H162201   2.694   0.073  13.460 -0.4195  0.2337 -0.7406
13570TIP3    H262202   2.796   0.132  13.365  0.9474  0.4668  0.8082
13571TIP3   OH262203   0.483   3.020   2.062 -0.0028 -0.0215  0.1463
13571TIP3    H162204   0.576   2.996   2.069 -0.3622 -1.3296  0.8724
13571TIP3    H262205   0.482   3.115   2.065  1.3507  0.0306 -0.3356
13572TIP3   OH262206   0.474   3.779  13.164 -0.7457  0.5045  0.6324
13572TIP3    H162207   0.467   3.685  13.146  2.4175 -0.2875  2.7529
13572TIP3    H262208   0.507   3.816  13.082  0.5862 -0.7340  0.5660
13573TIP3   OH262209   1.675   0.566  13.163 -0.5076  0.2981  0.3298
13573TIP3    H162210   1.603   0.564  13.099  0.8899 -3.0438 -1.3802
13573TIP3    H262211   1.752   0.587  13.111  0.7300 -2.8352  0.6529
13574TIP3   OH262212   1.630   6.108   2.853 -0.5382 -0.0667  0.1744
13574TIP3    H162213   1.700   6.174   2.857 -1.9592  1.7626 -2.1057
13574TIP3    H262214   1.607   6.103   2.760 -2.4353 -1.6951  0.6596
13575TIP3   OH262215   1.299   3.237  13.972 -0.0868 -0.4255  0.3058
13575TIP3    H162216   1.282   3.160  13.918  0.5483 -0.8262  0.6625
13575TIP3    H262217   1.256   3.309  13.925  1.6929 -0.4836 -1.5452
13576TIP3   OH262218   6.717   1.476  13.758 -0.3407 -0.5221 -0.2945
13576TIP3    H162219   6.680   1.564  13.770  0.2878 -0.2546 -0.2949
13576TIP3    H262220   6.668   1.439  13.685  0.1897  0.2758 -1.0662
13577TIP3   OH262221   3.644   5.401   4.358  0.0915  0.0126 -0.0373
13577TIP3    H162222   3.578   5.434   4.298 -0.9493 -0.1954  0.9662
13577TIP3    H262223   3.710   5.471   4.361  1.5301 -1.0155 -3.3492
13578TIP3   OH262224   1.536   3.401  13.768  0.3232 -0.0304  0.2483
13578TIP3    H162225   1.586   3.477  13.799  1.3859 -0.1408 -1.0717
13578TIP3    H262226   1.470   3.386  13.835 -0.3889  2.5097  0.1970
13579TIP3   OH262227   3.682   6.577  14.582  0.5501 -0.1799  0.0241
13579TIP3    H162228   3.741   6.619  14.519  0.5877 -0.4282 -0.1038
13579TIP3    H262229   3.706   6.485  14.581  2.1489  0.1460  2.1410
13580TIP3   OH262230   3.451   2.681  13.411 -0.2289 -0.0866 -0.1665
13580TIP3    H162231   3.402   2.667  13.493  1.7928  1.3726  1.3892
13580TIP3    H262232   3.542   2.685  13.438  0.6419 -0.9477 -2.7417
13581TIP3   OH262233   4.728   5.009  11.870 -0.3743 -0.1420 -0.5365
13581TIP3    H162234   4.635   5.020  11.888  0.1844  1.0647  1.9488
13581TIP3    H262235   4.769   5.089  11.901  1.5817 -0.8435 -1.1230
13582TIP3   OH262236   2.369   3.150   4.405 -0.0726 -0.0932  0.3628
13582TIP3    H162237   2.392   3.220   4.345 -0.6559 -1.0505 -1.0219
13582TIP3    H262238   2.444   3.090   4.402 -0.0138 -0.0451  0.7601
13583TIP3   OH262239   0.068   2.287   1.621 -0.7906 -0.8955  0.4092
13583TIP3    H162240  -0.025   2.267   1.610 -0.9910  0.6999 -1.3443
13583TIP3    H262241   0.104   2.280   1.532  0.6071 -0.7396  0.9363
13584TIP3   OH262242   6.288   2.425   3.660  0.4720 -0.1751  0.5597
13584TIP3    H162243   6.335   2.395   3.737  1.3104  0.2003  0.1984
13584TIP3    H262244   6.320   2.513   3.644  0.3189 -0.2516 -0.2300
13585TIP3   OH262245   3.288   3.717   4.011  0.4230 -0.0758 -0.2006
13585TIP3    H162246   3.339   3.704   3.931  1.4064 -0.9411  0.5355
13585TIP3    H262247   3.250   3.804   4.002  1.7066  0.4269 -0.9695
13586TIP3   OH262248   1.831   2.654   6.160 -0.5740 -0.4647  0.3920
13586TIP3    H162249   1.772   2.728   6.144  0.6894  0.4181 -0.3016
13586TIP3    H262250   1.914   2.679   6.120  0.3171 -1.6517  1.3871
13587TIP3   OH262251   0.275   5.963  14.617 -0.5090  0.5051  0.2898
13587TIP3    H162252   0.232   5.923  14.540 -0.4370  1.0272 -0.0249
13587TIP3    H262253   0.255   6.056  14.609 -1.0597  0.4804  1.2731
13588TIP3   OH262254   5.828   6.180   0.278  0.2924 -0.1702  0.3220
13588TIP3    H162255   5.830   6.244   0.207  0.5682 -0.4019  0.1198
13588TIP3    H262256   5.737   6.178   0.307  0.6742  2.1302  1.9841
13589TIP3   OH262257   3.054   5.335  10.972  0.0452  0.3557  0.2508
13589TIP3    H162258   3.000   5.269  10.929 -1.8653  1.1665  1.3063
13589TIP3    H262259   3.138   5.291  10.986 -0.7986 -1.4586 -0.0942
13590TIP3   OH262260   6.206   2.134   4.027  0.3379 -0.6848  0.3205
13590TIP3    H162261   6.235   2.096   4.110  0.7500 -2.7611 -0.6986
13590TIP3    H262262   6.269   2.203   4.008 -0.2833  0.4493  2.1287
13591TIP3   OH262263   2.335   3.785  16.532 -0.1642 -0.2371 -0.3292
13591TIP3    H162264   2.255   3.778  16.482 -0.7059 -0.4740  0.5429
13591TIP3    H262265   2.394   3.836  16.477 -0.6848 -0.6136 -1.2550
13592TIP3   OH262266   3.034   0.706   6.549 -0.5357 -0.1935 -0.0268
13592TIP3    H162267   3.011   0.615   6.567  0.7915 -0.2098  1.8903
13592TIP3    H262268   2.951   0.748   6.528 -1.1930 -1.7787 -0.7613
13593TIP3   OH262269   1.135   1.192   6.632 -0.0664 -0.5780  0.5671
13593TIP3    H162270   1.175   1.211   6.717  1.6957 -0.6661 -0.1922
13593TIP3    H262271   1.202   1.217   6.568 -1.1312 -1.0399 -0.7783
13594TIP3   OH262272   3.375   3.781  12.276 -0.2221  0.1190  0.6697
13594TIP3    H162273   3.313   3.709  12.288 -0.3602  0.2541  0.7789
13594TIP3    H262274   3.382   3.821  12.363  0.0744  0.0591  0.6732
13595TIP3   OH262275   3.912   5.254  16.908  0.7340  0.1445  0.0178
13595TIP3    H162276   3.931   5.345  16.883 -0.5013  0.5537  0.4930
13595TIP3    H262277   3.837   5.261  16.967  1.8518 -1.0170  1.6581
13596TIP3   OH262278   0.404   1.890   3.748  0.5689 -0.5506  0.0253
13596TIP3    H162279   0.324   1.838   3.742  0.5425 -0.6460  1.0357
13596TIP3    H262280   0.373   1.980   3.759  0.6142 -0.3287 -1.5560
13597TIP3   OH262281   0.332   1.642   5.088  0.0465 -0.5209 -0.6658
13597TIP3    H162282   0.299   1.691   5.163 -1.4104 -1.2431 -0.8052
13597TIP3    H262283   0.278   1.671   5.015  1.1141 -0.2014 -1.3352
13598TIP3   OH262284   3.415   5.870  13.004  0.1844 -0.2082  0.2464
13598TIP3    H162285   3.393   5.779  12.980  5.1367 -1.7124  0.3055
13598TIP3    H262286   3.418   5.916  12.920  1.4188 -1.1814 -0.2799
13599TIP3   OH262287   2.335   5.197   5.903 -0.2666 -0.6271 -0.4391
13599TIP3    H162288   2.361   5.217   5.813 -1.6987 -0.4334 -0.8399
13599TIP3    H262289   2.303   5.281   5.938 -0.0017 -0.7683  0.1516
13600TIP3   OH262290   1.076   2.504   3.780  0.2691 -0.1878  0.1589
13600TIP3    H162291   1.128   2.580   3.753 -1.1124  0.4725 -0.7581
13600TIP3    H262292   1.119   2.472   3.859  1.5349  0.8694 -0.0808
13601TIP3   OH262293   4.140   2.594  11.607 -0.1076 -0.3675 -0.5217
13601TIP3    H162294   4.183   2.675  11.580 -0.2977  0.6414  1.9100
13601TIP3    H262295   4.192   2.525  11.567  1.8157  0.8996 -0.3581
13602TIP3   OH262296   6.744   5.180   3.900  0.1168 -0.2081  0.4128
13602TIP3    H162297   6.784   5.094   3.910 -0.2215 -0.5555 -1.0069
13602TIP3    H262298   6.726   5.209   3.990 -0.6098 -2.0129  0.8846
13603TIP3   OH262299   4.281   1.833   3.185  0.4030  0.0850  0.0692
13603TIP3    H162300   4.191   1.807   3.164  0.2370  0.0964  0.7463
13603TIP3    H262301   4.320   1.854   3.101 -0.3584  0.4862 -0.1966
13604TIP3   OH262302   4.978   1.562   2.012  0.4969  0.2760  0.1333
13604TIP3    H162303   4.926   1.604   2.081 -1.2590 -0.5560 -0.6151
13604TIP3    H262304   4.978   1.626   1.941 -1.2979 -0.4841 -0.6180
13605TIP3   OH262305   4.887   6.501   3.376 -1.1516  0.0651  0.1583
13605TIP3    H162306   4.811   6.517   3.319  0.2020  1.3589 -1.4060
13605TIP3    H262307   4.957   6.554   3.337  1.3919 -3.2610 -0.2118
13606TIP3   OH262308   1.772   6.640  12.299 -0.0533 -0.5634  0.1734
13606TIP3    H162309   1.784   6.703  12.227 -1.2628  1.2438  1.4618
13606TIP3    H262310   1.677   6.639  12.314 -0.2792 -3.9213 -0.7807
13607TIP3   OH262311   4.697   5.218  14.735 -0.2054  0.8541  0.5630
13607TIP3    H162312   4.668   5.177  14.816  1.4664 -1.2671  0.1738
13607TIP3    H262313   4.653   5.169  14.666  1.6916 -0.2449  0.0860
13608TIP3   OH262314   1.630   3.568   3.539 -0.6752  0.2893 -0.2870
13608TIP3    H162315   1.631   3.661   3.517  0.3125  0.3284 -0.1086
13608TIP3    H262316   1.722   3.542   3.539 -0.8501 -0.4102  0.8524
13609TIP3   OH262317   2.186   2.749  14.015  0.2964 -0.6817  0.0845
13609TIP3    H162318   2.102   2.712  14.043 -0.4064 -1.2612 -2.5303
13609TIP3    H262319   2.167   2.841  13.996  0.7222 -0.3461  1.1703
13610TIP3   OH262320   1.096   0.237   3.596 -0.3952 -0.0781 -0.6218
13610TIP3    H162321   1.044   0.157   3.585 -0.6462  0.0736 -0.5328
13610TIP3    H262322   1.034   0.308   3.583  0.1900  0.1319 -2.5835
13611TIP3   OH262323   1.973   3.521  11.798  0.4288  0.1162 -0.1444
13611TIP3    H162324   1.916   3.454  11.835  1.2163 -0.5150 -0.0370
13611TIP3    H262325   2.047   3.525  11.859  0.9200  0.2866 -0.7460
13612TIP3   OH262326   1.618   0.327  15.693 -0.0740  0.7887 -0.6377
13612TIP3    H162327   1.545   0.266  15.684 -0.3751  0.8755  0.8659
13612TIP3    H262328   1.693   0.271  15.716  0.2170  0.7586 -1.6183
13613TIP3   OH262329   2.989   2.236   1.226  0.1180  0.2965  0.4526
13613TIP3    H162330   3.045   2.196   1.293 -0.1606 -0.1123  0.4426
13613TIP3    H262331   3.037   2.314   1.199  0.8789 -0.2631  0.1559
13614TIP3   OH262332   1.058   5.365   3.309  0.3337 -0.2366  0.8440
13614TIP3    H162333   1.078   5.455   3.333  0.5090 -0.6168  2.2147
13614TIP3    H262334   1.018   5.371   3.222 -1.5321  1.3466  1.7447
13615TIP3   OH262335   1.113   6.114  12.493  0.8010 -0.3463  0.2789
13615TIP3    H162336   1.104   6.196  12.443  0.5021 -0.8187 -0.4662
13615TIP3    H262337   1.149   6.141  12.577 -0.8175  0.7710  0.6699
13616TIP3   OH262338   0.395   2.843   2.283 -0.2823  0.0717 -0.4825
13616TIP3    H162339   0.437   2.900   2.220  3.3007 -0.2984  1.2982
13616TIP3    H262340   0.384   2.759   2.238  0.2889  0.3890 -1.2071
13617TIP3   OH262341   3.233   3.863  12.917 -0.2327  0.1622  0.2044
13617TIP3    H162342   3.228   3.866  12.821 -1.4334 -0.6675  0.2133
13617TIP3    H262343   3.197   3.777  12.939 -0.7706  0.6955  1.4462
13618TIP3   OH262344   0.422   2.947   4.733 -0.1758  0.2423 -0.8179
13618TIP3    H162345   0.343   2.906   4.768 -0.9775  2.1872 -0.1904
13618TIP3    H262346   0.392   2.991   4.654  0.8470 -1.0381 -1.9615
13619TIP3   OH262347   0.647   3.348   1.501  0.0379  0.5900  0.5356
13619TIP3    H162348   0.566   3.393   1.525 -1.3548 -2.2696  1.6350
13619TIP3    H262349   0.641   3.335   1.407 -0.6746  0.5673  0.5823
13620TIP3   OH262350   4.092   1.849   2.360 -1.0313 -0.4168 -0.1101
13620TIP3    H162351   4.188   1.842   2.366 -0.9748  0.1009 -0.4081
13620TIP3    H262352   4.075   1.943   2.360 -1.6784 -0.4572  2.2381
13621TIP3   OH262353   5.598   0.937  12.857  0.3862 -0.0375  0.1456
13621TIP3    H162354   5.685   0.935  12.897  1.0915  0.8768 -1.2752
13621TIP3    H262355   5.546   0.993  12.915  1.0750  0.3900  0.3627
13622TIP3   OH262356   3.887   2.837   3.999  0.1026 -0.1366  0.0968
13622TIP3    H162357   3.965   2.890   3.985  0.2942 -0.5194 -0.2832
13622TIP3    H262358   3.827   2.896   4.045 -0.4059  1.0403 -1.9624
13623TIP3   OH262359   0.343   5.558   4.211 -0.1169  0.1176  0.2636
13623TIP3    H162360   0.296   5.640   4.229 -0.0157 -0.0251  1.2394
13623TIP3    H262361   0.287   5.511   4.150 -1.7230 -0.4416  2.0568
13624TIP3   OH262362   0.131   4.626  13.871 -0.0162 -0.0019  0.5348
13624TIP3    H162363   0.069   4.578  13.817 -0.9707  0.3248  1.3056
13624TIP3    H262364   0.110   4.600  13.961  0.3958  0.7558  0.8658
13625TIP3   OH262365   5.864   6.458  16.022 -0.2272  0.2418  0.1207
13625TIP3    H162366   5.793   6.515  16.053  0.0898  2.1840 -2.3664
13625TIP3    H262367   5.939   6.482  16.077  0.2333  3.3296 -1.5800
13626TIP3   OH262368   3.089   4.142   5.614  0.2037 -0.1246  0.1447
13626TIP3    H162369   3.021   4.157   5.680 -0.8175 -0.7873 -0.7273
13626TIP3    H262370   3.133   4.063   5.643 -0.5193 -0.6520 -0.1755
13627TIP3   OH262371   1.851   0.021   5.711 -0.5601 -0.4125  0.2620
13627TIP3    H162372   1.903  -0.055   5.684  0.4132 -0.9809  3.3385
13627TIP3    H262373   1.789  -0.014   5.776 -2.2722  0.9271 -0.5640
13628TIP3   OH262374   1.768   3.323   2.555  0.1766 -0.5715  0.4069
13628TIP3    H162375   1.838   3.387   2.540 -0.0905 -0.6937 -1.5754
13628TIP3    H262376   1.726   3.312   2.470 -1.1594 -1.8108  1.1708
13629TIP3   OH262377   0.888   0.636  14.166 -1.0145  0.0783 -0.4462
13629TIP3    H162378   0.809   0.592  14.133 -0.1041 -1.7040 -0.3472
13629TIP3    H262379   0.956   0.569  14.164  0.0858  1.0748  1.1505
13630TIP3   OH262380   3.719   1.453   3.630  0.1758  0.1207 -0.4334
13630TIP3    H162381   3.643   1.511   3.631  1.6838  2.2384 -0.7560
13630TIP3    H262382   3.684   1.367   3.610 -2.2062  0.8748  0.1597
13631TIP3   OH262383   5.413   3.510   6.613  0.5758 -0.0829  0.3942
13631TIP3    H162384   5.328   3.492   6.653  0.0973  2.2771  0.5988
13631TIP3    H262385   5.400   3.492   6.520  0.1579 -0.6592  0.5548
13632TIP3   OH262386   3.919   2.505  17.207  0.0286 -0.0698 -0.1298
13632TIP3    H162387   3.962   2.586  17.235  0.9929 -0.0793 -1.4587
13632TIP3    H262388   3.826   2.520  17.222  0.2155  1.1865 -0.1314
13633TIP3   OH262389   5.250   0.629   4.233 -0.2119  0.0425 -0.4666
13633TIP3    H162390   5.255   0.558   4.298  2.0587  0.9520  0.4538
13633TIP3    H262391   5.164   0.669   4.248  0.0623 -0.0473  1.7429
13634TIP3   OH262392   4.082   5.789   2.965  0.0291  0.1649  0.3573
13634TIP3    H162393   4.052   5.825   2.882  1.1190  0.5115  0.0933
13634TIP3    H262394   4.108   5.865   3.017  0.9749 -0.1459  0.3556
13635TIP3   OH262395   2.962   4.425   5.774  0.3499 -0.1672 -0.4337
13635TIP3    H162396   2.932   4.335   5.788 -0.9309  0.4381  1.0322
13635TIP3    H262397   3.057   4.421   5.786  0.2206 -1.1913  0.3757
13636TIP3   OH262398   5.069   0.983  11.704 -0.0356 -0.0465  0.2104
13636TIP3    H162399   5.057   0.907  11.647 -1.8874  1.0160 -0.9075
13636TIP3    H262400   5.008   1.048  11.671 -1.3986  0.5789  3.5498
13637TIP3   OH262401   1.759   1.570  13.284  0.4045 -0.0441 -0.3761
13637TIP3    H162402   1.769   1.536  13.373 -0.7376 -0.0936 -0.2603
13637TIP3    H262403   1.697   1.510  13.241 -0.5427  1.0608 -0.6035
13638TIP3   OH262404   0.473   1.016  10.603 -0.1282 -0.6867  0.1953
13638TIP3    H162405   0.445   0.964  10.527 -0.1548 -0.4650  0.0511
13638TIP3    H262406   0.561   0.984  10.622 -0.2170 -0.9152  0.2251
13639TIP3   OH262407   6.763   0.160   0.875  0.3675  0.3638 -0.2076
13639TIP3    H162408   6.836   0.150   0.814  1.1126  0.6808  0.6087
13639TIP3    H262409   6.776   0.090   0.940  0.8118  1.3223  0.7699
13640TIP3   OH262410   3.234   6.148  12.145 -0.4094  0.4374  0.1136
13640TIP3    H162411   3.230   6.082  12.076  0.2041 -0.0011  0.4841
13640TIP3    H262412   3.327   6.153  12.167 -0.4045  1.6443 -0.1126
13641TIP3   OH262413   4.075   0.694  15.177  0.8489 -0.3030  0.8542
13641TIP3    H162414   4.031   0.704  15.093 -0.6068 -0.1306  1.6023
13641TIP3    H262415   4.108   0.782  15.197  2.7070 -0.6895 -0.2903
13642TIP3   OH262416   4.397   0.981  14.560  0.2558  0.0791  0.3059
13642TIP3    H162417   4.319   0.990  14.615 -0.2059  2.8455 -0.6475
13642TIP3    H262418   4.464   0.950  14.620 -1.2485 -1.1498  1.4408
13643TIP3   OH262419   6.425   3.919  14.354 -0.0551 -0.8638 -0.4101
13643TIP3    H162420   6.350   3.926  14.414 -0.6145  0.5666 -1.2197
13643TIP3    H262421   6.479   3.995  14.374  0.4923 -1.1518 -0.7698
13644TIP3   OH262422   4.442   0.619  13.805  0.9752 -0.4439  0.1882
13644TIP3    H162423   4.439   0.551  13.737 -0.0150 -1.0027  0.7645
13644TIP3    H262424   4.532   0.651  13.803  0.9406 -0.3833 -1.4365
13645TIP3   OH262425   4.015   2.924  11.859 -0.0755  0.1241 -0.8004
13645TIP3    H162426   4.053   3.004  11.824 -0.6621  0.2395 -1.1917
13645TIP3    H262427   3.972   2.951  11.940 -2.0421  0.6609 -1.9300
13646TIP3   OH262428   3.320   3.097   2.979  0.1028  0.3318  0.4104
13646TIP3    H162429   3.279   3.077   2.894  1.2188  0.2961 -0.1346
13646TIP3    H262430   3.329   3.012   3.022 -0.7933  0.3881  0.7322
13647TIP3   OH262431   4.385   3.640   4.923  0.0621  0.5472 -0.1798
13647TIP3    H162432   4.371   3.666   4.832 -1.8271  1.3908  0.3007
13647TIP3    H262433   4.469   3.678   4.946  0.1482  1.0868 -1.2973
13648TIP3   OH262434   5.050   0.923  17.109  0.0610 -0.0870  0.1391
13648TIP3    H162435   5.013   0.941  17.196  2.1256 -1.9083  1.5153
13648TIP3    H262436   5.130   0.975  17.107  0.7532 -1.1272 -0.0418
13649TIP3   OH262437   1.590   4.072  13.339  0.0716 -0.0415  0.9387
13649TIP3    H162438   1.543   4.091  13.257 -0.6634  0.8078  1.5482
13649TIP3    H262439   1.531   4.102  13.408  1.5581  1.1963  1.7289
13650TIP3   OH262440   0.258   1.374   5.241  0.0644  0.1605  0.5042
13650TIP3    H162441   0.317   1.447   5.221 -0.2246 -0.1195 -1.6223
13650TIP3    H262442   0.172   1.406   5.215 -0.3807 -0.2497  1.4385
13651TIP3   OH262443   3.278   2.251  12.093 -0.4180 -0.5512 -0.0060
13651TIP3    H162444   3.335   2.190  12.047 -0.3610 -0.3259 -0.2411
13651TIP3    H262445   3.192   2.209  12.091 -0.5305 -0.3005 -0.8049
13652TIP3   OH262446   0.113   3.845  16.330 -0.1671 -0.2453  0.3803
13652TIP3    H162447   0.102   3.755  16.361  0.5779 -0.1602  0.9265
13652TIP3    H262448   0.199   3.871  16.363 -0.7993  1.0233  1.1021
13653TIP3   OH262449   3.152   3.298   2.064  0.5674 -0.0533  0.0012
13653TIP3    H162450   3.232   3.310   2.115  0.7532  1.0617 -0.5414
13653TIP3    H262451   3.173   3.227   2.003  0.5820 -0.8978  0.9493
13654TIP3   OH262452   3.991   5.453   5.474  0.6352 -0.0953 -0.0475
13654TIP3    H162453   4.049   5.440   5.549 -1.1964  1.0862  1.6608
13654TIP3    H262454   3.936   5.374   5.472 -1.4917  1.1847  2.0013
13655TIP3   OH262455   2.250   0.432   3.682  0.5459  0.1126  0.0788
13655TIP3    H162456   2.267   0.455   3.773  0.6745 -0.8950  0.3219
13655TIP3    H262457   2.328   0.459   3.635 -0.5894  3.2226 -0.2512
13656TIP3   OH262458   5.253   4.264  10.903 -0.5079  0.2268 -0.2572
13656TIP3    H162459   5.215   4.286  10.988 -1.1235 -0.8462 -0.2495
13656TIP3    H262460   5.178   4.246  10.847 -0.0968 -2.8851  0.0181
13657TIP3   OH262461   0.912   2.610   3.159 -1.0416 -0.1768  0.0205
13657TIP3    H162462   0.945   2.531   3.117  1.1584 -0.0296  1.3645
13657TIP3    H262463   0.851   2.579   3.225 -0.5315 -0.7242  0.2352
13658TIP3   OH262464   4.401   3.449  16.881  0.2815 -0.0973  0.1443
13658TIP3    H162465   4.454   3.487  16.951 -1.4694 -0.1354  1.5556
13658TIP3    H262466   4.386   3.358  16.910 -2.0555  0.4167  0.7685
13659TIP3   OH262467   2.088   3.915  13.039 -0.7419  0.2293 -0.4066
13659TIP3    H162468   2.003   3.874  13.024  0.0088 -1.6765  0.3398
13659TIP3    H262469   2.131   3.914  12.954 -0.5015 -1.1200 -0.2840
13660TIP3   OH262470   0.541   1.695  12.866  0.3834  0.3615 -0.1562
13660TIP3    H162471   0.615   1.754  12.873  1.2399 -0.4409 -1.8677
13660TIP3    H262472   0.466   1.745  12.899  1.5344  1.4368  0.8991
13661TIP3   OH262473   1.113   6.689  16.105 -0.6285 -0.3756  0.4272
13661TIP3    H162474   1.050   6.652  16.168  1.3641  1.2963  3.7120
13661TIP3    H262475   1.069   6.767  16.071 -1.7779 -1.3522 -0.4356
13662TIP3   OH262476   0.523   5.393  12.269  0.5029 -0.9661  0.0872
13662TIP3    H162477   0.484   5.367  12.352  1.1593  0.6154  0.9313
13662TIP3    H262478   0.614   5.361  12.274  0.8151 -0.0675  0.4049
13663TIP3   OH262479   4.215   4.212   0.131  0.3915 -0.4102 -0.2465
13663TIP3    H162480   4.256   4.127   0.114  2.4678  0.3083  0.7887
13663TIP3    H262481   4.266   4.249   0.203 -3.2458 -0.1358  2.4681
13664TIP3   OH262482   1.180   3.951   3.047 -0.2705 -0.2752  0.6816
13664TIP3    H162483   1.252   4.001   3.085  0.6776 -1.8342  1.0079
13664TIP3    H262484   1.108   3.960   3.109  0.2960 -0.3543  1.3538
13665TIP3   OH262485   5.892   2.641   4.979  0.2415  0.6400  0.1084
13665TIP3    H162486   5.897   2.730   4.945  1.6203  0.7311  0.4719
13665TIP3    H262487   5.801   2.630   5.007  0.1614  2.0969  0.4781
13666TIP3   OH262488   5.528   1.322   0.161  0.5551 -0.0179 -0.4531
13666TIP3    H162489   5.451   1.336   0.216  0.2182  1.1987 -1.2167
13666TIP3    H262490   5.495   1.325   0.071  1.1760 -1.5186 -0.7696
13667TIP3   OH262491   4.386   0.718  11.741 -0.2049 -0.3642 -0.3364
13667TIP3    H162492   4.322   0.649  11.727 -1.3246  0.1363  1.8337
13667TIP3    H262493   4.464   0.672  11.774 -0.5270 -0.7025 -0.0378
13668TIP3   OH262494   3.871   0.974  15.836 -0.0734 -0.0135  0.1696
13668TIP3    H162495   3.800   0.933  15.786  0.2116  0.0503 -0.2915
13668TIP3    H262496   3.896   1.050  15.784  0.7553 -0.3889  0.0130
13669TIP3   OH262497   3.736   2.297  16.530  0.1834  0.1302 -0.0173
13669TIP3    H162498   3.824   2.263  16.542  0.3530  1.4847  3.9261
13669TIP3    H262499   3.687   2.265  16.607 -2.4992  0.3397 -1.5048
13670TIP3   OH262500   0.187   6.798  14.038 -0.3453 -0.4607  0.0741
13670TIP3    H162501   0.222   6.787  13.950  4.0959 -1.1327  1.6582
13670TIP3    H262502   0.133   6.878  14.033  1.4710  0.7461 -2.8185
13671TIP3   OH262503   2.992   3.369   3.573 -0.2236 -1.0798  0.3494
13671TIP3    H162504   3.031   3.428   3.508 -0.8591  0.6951  1.5150
13671TIP3    H262505   2.904   3.352   3.540 -0.7283  0.2418  0.9776
13672TIP3   OH262506   3.594   1.535   2.180 -0.3214 -0.4440 -0.4249
13672TIP3    H162507   3.656   1.606   2.168 -0.4332 -0.4397 -0.9712
13672TIP3    H262508   3.601   1.482   2.101  0.0022 -1.2349  0.1108
13673TIP3   OH262509   0.269   5.672  10.739 -0.0007  0.1551  0.4559
13673TIP3    H162510   0.355   5.653  10.777 -0.5995  0.4527  2.0402
13673TIP3    H262511   0.245   5.591  10.694  0.6162 -0.3340  0.9785
13674TIP3   OH262512   1.387   5.578   2.079  0.6587 -0.0570 -0.8384
13674TIP3    H162513   1.442   5.630   2.021 -0.5726 -0.6774 -2.6760
13674TIP3    H262514   1.430   5.493   2.083  0.1387 -0.3878 -1.8727
13675TIP3   OH262515   0.745   5.974   3.217  0.1051 -0.5499  0.3362
13675TIP3    H162516   0.673   5.945   3.274 -1.0319  0.3319 -0.6057
13675TIP3    H262517   0.816   5.994   3.278 -0.9743  0.0929  1.4513
13676TIP3   OH262518   4.085   3.639  13.313 -0.1882 -0.1116 -0.0592
13676TIP3    H162519   4.099   3.707  13.247 -3.3589 -0.4543 -1.2396
13676TIP3    H262520   4.052   3.688  13.389  0.9843  0.0028  0.3950
13677TIP3   OH262521   6.320   4.584  16.316  0.1645 -0.3599  0.4369
13677TIP3    H162522   6.320   4.668  16.270 -0.0184 -0.0833  0.9409
13677TIP3    H262523   6.233   4.547  16.299  0.1759 -0.3609  0.3798
13678TIP3   OH262524   5.818   1.843  15.003  0.3426  0.0199  0.9655
13678TIP3    H162525   5.910   1.869  15.009 -0.2037  1.9509  1.7631
13678TIP3    H262526   5.801   1.839  14.909  0.6518  2.1624  0.7514
13679TIP3   OH262527   6.214   1.867   3.436 -0.6419  0.1885  0.5383
13679TIP3    H162528   6.217   1.906   3.524  1.6435 -0.7329  0.9402
13679TIP3    H262529   6.291   1.810   3.433 -0.5167  0.4008 -2.1824
13680TIP3   OH262530   4.469   1.415  15.484  0.0191  0.2164  0.0056
13680TIP3    H162531   4.493   1.351  15.417 -0.5804 -0.2200  0.1958
13680TIP3    H262532   4.447   1.362  15.560  0.1012  0.6823  0.3536
13681TIP3   OH262533   1.172   4.070  15.766  0.6828 -0.1443  0.3776
13681TIP3    H162534   1.106   4.125  15.724  1.4885  0.3391 -0.2792
13681TIP3    H262535   1.247   4.128  15.781  0.8295 -0.5859  1.4664
13682TIP3   OH262536   0.407   4.078   5.405  0.2181 -0.0339 -0.1900
13682TIP3    H162537   0.376   4.012   5.468  1.9937  0.4515  1.2806
13682TIP3    H262538   0.338   4.082   5.339 -1.1267 -1.5182  1.0349
13683TIP3   OH262539   1.730   0.313   6.513 -0.3535 -0.3430  0.3175
13683TIP3    H162540   1.764   0.232   6.551 -0.4719  0.4422  2.2031
13683TIP3    H262541   1.791   0.381   6.543 -1.3942  0.5405  0.4957
13684TIP3   OH262542   6.801   5.485  10.631  0.5045  0.5384  0.2762
13684TIP3    H162543   6.789   5.565  10.683  1.5084 -0.6952  2.5163
13684TIP3    H262544   6.712   5.450  10.621  0.1625  1.4140  0.0427
13685TIP3   OH262545   0.399   0.985   5.916  0.1427  0.1556 -0.5131
13685TIP3    H162546   0.417   1.040   5.840 -2.2008  0.3026 -1.0174
13685TIP3    H262547   0.432   0.898   5.891  1.6707  0.7364 -0.6493
13686TIP3   OH262548   4.339   5.104   0.736  0.1908  0.0505 -0.1508
13686TIP3    H162549   4.398   5.091   0.662  0.4757 -0.4947  0.1634
13686TIP3    H262550   4.397   5.121   0.810 -0.0591 -0.1734  0.0968
13687TIP3   OH262551   0.716   0.996   2.670  0.7120  0.6838  0.4976
13687TIP3    H162552   0.770   1.074   2.652  1.3440  0.1180 -0.1121
13687TIP3    H262553   0.741   0.934   2.602 -0.1381  0.1125  0.7004
13688TIP3   OH262554   1.730   3.187  15.104 -0.2950 -0.2949  0.5982
13688TIP3    H162555   1.650   3.183  15.156 -0.5554 -1.3386  0.1458
13688TIP3    H262556   1.789   3.125  15.146  0.2896  0.4934  0.9457
13689TIP3   OH262557   2.357   6.309   2.030  0.3079  0.2921 -0.3042
13689TIP3    H162558   2.400   6.224   2.026  1.6196  0.7487  2.3389
13689TIP3    H262559   2.298   6.303   2.104 -2.2630  0.6216 -2.1862
13690TIP3   OH262560   4.810   1.890  13.992  0.0181 -0.0282 -0.4913
13690TIP3    H162561   4.791   1.834  14.067  0.0025  0.5290 -0.0697
13690TIP3    H262562   4.725   1.903  13.950 -0.1874  0.6614  0.1153
13691TIP3   OH262563   4.391   4.839  16.054  0.3378 -0.5063  0.7512
13691TIP3    H162564   4.422   4.748  16.051 -1.9380 -1.3556  0.9456
13691TIP3    H262565   4.379   4.857  16.147  1.8145  0.4227  0.7933
13692TIP3   OH262566   0.222   2.945   0.934  0.0313 -0.5548 -0.5879
13692TIP3    H162567   0.234   2.936   1.029 -0.2873 -0.4283 -0.5339
13692TIP3    H262568   0.206   3.038   0.920  2.8053 -0.0798 -1.0895
13693TIP3   OH262569   1.968   3.244  13.863  0.3064 -0.2745  0.0253
13693TIP3    H162570   2.034   3.278  13.804 -0.7072 -1.3810 -1.8203
13693TIP3    H262571   1.924   3.322  13.898  2.1879  0.4501  0.9162
13694TIP3   OH262572   0.756   2.070  12.337 -0.3852  0.4653  0.6970
13694TIP3    H162573   0.713   1.986  12.322  0.3670  0.2305 -0.2225
13694TIP3    H262574   0.695   2.135  12.302 -0.5848  0.2413  0.6339
13695TIP3   OH262575   1.802   0.328   1.831 -0.5168 -0.1771  0.5838
13695TIP3    H162576   1.880   0.312   1.885  0.7025 -0.0503 -1.0836
13695TIP3    H262577   1.787   0.422   1.838 -1.1008 -0.3190  1.6058
13696TIP3   OH262578   0.615   3.904   3.859 -0.3531 -0.1978 -0.1622
13696TIP3    H162579   0.634   3.810   3.857 -1.8418 -0.5149 -1.1494
13696TIP3    H262580   0.693   3.946   3.823  0.2883 -1.0496  0.1990
13697TIP3   OH262581   2.942   2.411   6.386  0.1831  0.4008 -0.3688
13697TIP3    H162582   2.902   2.498   6.388 -0.5971  0.0529  1.5922
13697TIP3    H262583   2.876   2.355   6.346 -0.5985  0.1757  1.1632
13698TIP3   OH262584   4.356   1.916   3.475  0.4353  0.2557  0.8502
13698TIP3    H162585   4.296   1.856   3.520  0.0945  0.0300  0.1119
13698TIP3    H262586   4.349   1.892   3.383  2.2558 -0.2983  0.8125
13699TIP3   OH262587   3.717   4.788   2.366 -0.4476 -0.1856 -0.2850
13699TIP3    H162588   3.708   4.742   2.449 -1.2639  0.8204  0.2066
13699TIP3    H262589   3.713   4.718   2.300  2.5571 -1.2622  0.5340
13700TIP3   OH262590   0.824   0.798  13.757 -0.4020  0.0445  0.1868
13700TIP3    H162591   0.853   0.874  13.706  0.5503 -1.3402 -1.4415
13700TIP3    H262592   0.904   0.751  13.779 -1.0307 -1.1293  0.0964
13701TIP3   OH262593   0.103   5.036   2.715 -0.0251 -0.0802 -1.0124
13701TIP3    H162594   0.177   5.097   2.720 -1.7514  2.0966 -0.2579
13701TIP3    H262595   0.130   4.961   2.767  1.4130  0.9240 -0.2237
13702TIP3   OH262596   2.881   3.752  17.067  0.1088  0.1644 -0.2792
13702TIP3    H162597   2.966   3.744  17.025 -0.1590 -0.4312 -0.7306
13702TIP3    H262598   2.848   3.662  17.072 -0.6699  0.4249 -0.4895
13703TIP3   OH262599   1.188   5.262   5.573  0.2842 -0.2543  0.6742
13703TIP3    H162600   1.197   5.302   5.486  2.4783 -1.1212  0.4335
13703TIP3    H262601   1.121   5.195   5.562 -0.4727  0.5870  0.0301
13704TIP3   OH262602   6.819   6.321   6.401 -0.2025 -0.0254  0.1912
13704TIP3    H162603   6.821   6.416   6.414 -2.4377  0.3492 -1.5496
13704TIP3    H262604   6.909   6.299   6.375  0.0388  1.8793 -0.7825
13705TIP3   OH262605   0.611   0.293  14.178 -0.2906  0.5786  0.7348
13705TIP3    H162606   0.542   0.310  14.113 -1.0225 -0.3422  1.2519
13705TIP3    H262607   0.692   0.316  14.132 -0.8242  0.3657 -0.3645
13706TIP3   OH262608   0.357   2.966   0.060  0.2530  0.0674  0.4849
13706TIP3    H162609   0.367   3.061   0.047 -0.9047 -0.0321 -1.5298
13706TIP3    H262610   0.410   2.928  -0.010 -0.5472 -0.7463  0.3179
13707TIP3   OH262611   1.332   5.875  15.057 -0.2511 -0.4829 -0.1577
13707TIP3    H162612   1.390   5.929  15.111 -1.9806  1.3900 -0.0175
13707TIP3    H262613   1.383   5.855  14.979  1.0046 -0.0169  0.5129
13708TIP3   OH262614   6.765   5.804  15.036  0.2783  0.4121 -0.7936
13708TIP3    H162615   6.706   5.814  14.962  2.3068 -0.6307 -2.6907
13708TIP3    H262616   6.853   5.816  14.998  1.5571 -2.4932  0.9174
13709TIP3   OH262617   4.388   5.010   2.276 -0.3019 -0.3268 -0.3837
13709TIP3    H162618   4.401   4.975   2.187  0.8258  0.0636 -0.3877
13709TIP3    H262619   4.361   5.100   2.262  1.7654  0.3447 -0.3454
13710TIP3   OH262620   6.634   6.011   0.194 -0.4618 -0.3413  0.0322
13710TIP3    H162621   6.604   6.081   0.253  0.2776 -1.4229  1.7681
13710TIP3    H262622   6.558   5.992   0.139 -0.9765  1.1415  0.1640
13711TIP3   OH262623   1.275   6.760   3.552 -0.1945 -0.3683 -0.6409
13711TIP3    H162624   1.312   6.848   3.560 -1.6270  0.2490 -0.5120
13711TIP3    H262625   1.274   6.743   3.458 -0.0086 -0.2061 -0.6732
13712TIP3   OH262626   1.266   5.797  17.192  0.1769  0.1693 -0.1890
13712TIP3    H162627   1.275   5.738  17.266  1.9680  0.8346  0.1713
13712TIP3    H262628   1.289   5.743  17.116 -2.5035 -0.7517 -0.4327
13713TIP3   OH262629   1.915   3.200  12.302  0.4197 -0.6083 -0.3847
13713TIP3    H162630   2.002   3.169  12.330  0.7486  1.7952  1.6559
13713TIP3    H262631   1.933   3.281  12.255 -0.6975  0.1021  0.3651
13714TIP3   OH262632   6.398   3.991   3.832 -0.3555  0.0244 -0.4773
13714TIP3    H162633   6.309   3.973   3.862 -0.1117 -1.0117 -0.3267
13714TIP3    H262634   6.392   3.992   3.737 -0.4168 -0.7065 -0.4868
13715TIP3   OH262635   1.724   3.497  15.187  0.6244 -0.0985  0.1130
13715TIP3    H162636   1.648   3.458  15.143  0.9273 -0.0163 -0.5024
13715TIP3    H262637   1.730   3.452  15.271 -0.9520  0.8693  0.7910
13716TIP3   OH262638   4.330   3.790  10.043  0.4498 -0.0060 -0.5804
13716TIP3    H162639   4.276   3.711  10.037 -0.9657  0.8257  0.5520
13716TIP3    H262640   4.420   3.757  10.045 -0.1442 -1.7733  1.7045
13717TIP3   OH262641   3.932   3.037   5.772 -0.6299 -0.2355 -0.0163
13717TIP3    H162642   3.857   2.980   5.759 -0.5958 -0.2408 -0.1980
13717TIP3    H262643   4.003   2.993   5.725 -1.0466  0.9015 -1.7964
13718TIP3   OH262644   3.696   6.262   1.240  0.0306 -0.2826 -0.2746
13718TIP3    H162645   3.699   6.319   1.316 -0.0015 -1.3459  0.5454
13718TIP3    H262646   3.620   6.206   1.255 -0.9034  0.4883 -1.8420
13719TIP3   OH262647   1.866   5.990   4.459  0.1096  0.1998 -0.5821
13719TIP3    H162648   1.823   6.062   4.413  1.4560  0.1949 -1.9098
13719TIP3    H262649   1.818   5.912   4.431 -0.3050  0.4016 -0.4424
13720TIP3   OH262650   2.334   1.419   3.458  0.5989 -0.6993 -0.1542
13720TIP3    H162651   2.267   1.480   3.489  1.3857  0.2457 -0.2403
13720TIP3    H262652   2.370   1.462   3.380  0.7768 -1.5640 -0.5609
13721TIP3   OH262653   6.650   0.797  15.235 -0.0962 -0.0432  0.5060
13721TIP3    H162654   6.605   0.719  15.268  0.4979 -0.9260 -0.6677
13721TIP3    H262655   6.582   0.845  15.187 -0.2542 -0.3339  0.4353
13722TIP3   OH262656   4.924   4.835   5.372  0.3277  0.1582 -0.0202
13722TIP3    H162657   4.980   4.783   5.429 -0.2487 -1.6177 -0.9802
13722TIP3    H262658   4.983   4.865   5.302  0.8041  1.4170  0.8951
13723TIP3   OH262659   6.515   5.863  17.098 -0.0595 -0.1798 -0.6653
13723TIP3    H162660   6.494   5.934  17.037  0.3910 -0.4810 -1.1809
13723TIP3    H262661   6.605   5.839  17.076  0.1578 -0.1991  0.2215
13724TIP3   OH262662   6.651   1.058   0.345  0.8254  0.3165  0.3257
13724TIP3    H162663   6.712   1.132   0.352  1.1903  0.2546 -1.6364
13724TIP3    H262664   6.677   0.999   0.415  3.7132 -0.1670 -1.0187
13725TIP3   OH262665   6.159   1.309   2.189 -0.0992 -0.4009  0.0503
13725TIP3    H162666   6.152   1.398   2.155  0.1521 -0.2398  0.4084
13725TIP3    H262667   6.244   1.278   2.157 -1.5213 -1.7042 -2.7954
13726TIP3   OH262668   0.809   3.971   1.353  0.0378  0.3746  0.1258
13726TIP3    H162669   0.871   4.040   1.329  0.2162 -0.7170 -3.0139
13726TIP3    H262670   0.834   3.896   1.298 -3.2038 -0.5510 -0.2801
13727TIP3   OH262671   3.860   6.371  11.123  0.1825 -0.0639 -0.2529
13727TIP3    H162672   3.911   6.452  11.115  1.9184 -0.6662  3.0793
13727TIP3    H262673   3.902   6.311  11.061  1.6683  0.3651  0.2832
13728TIP3   OH262674   3.023   0.242   1.080 -0.0472 -0.2856 -0.1371
13728TIP3    H162675   2.998   0.318   1.028  0.4290  0.7830  1.1532
13728TIP3    H262676   2.945   0.185   1.078 -0.5843  0.4453 -0.7144
13729TIP3   OH262677   0.698   2.078   1.641 -0.3263  0.0167 -0.0383
13729TIP3    H162678   0.711   2.173   1.637  0.4980 -0.1140 -1.1096
13729TIP3    H262679   0.610   2.067   1.678 -0.9017  1.2317 -0.9662
13730TIP3   OH262680   4.662   5.760   5.719  0.0014 -0.4101  0.0184
13730TIP3    H162681   4.739   5.773   5.775  0.1797 -1.3240  0.0032
13730TIP3    H262682   4.597   5.819   5.756  1.3121  1.9767 -1.2465
13731TIP3   OH262683   0.241   3.858  11.589 -0.3263 -0.3577 -0.0559
13731TIP3    H162684   0.230   3.773  11.545 -1.3721  0.2208 -0.9663
13731TIP3    H262685   0.206   3.921  11.527 -2.9379  0.4059  2.0360
13732TIP3   OH262686   6.807   2.073  16.241 -0.5630  0.0297  0.2695
13732TIP3    H162687   6.802   1.988  16.196  1.7952 -1.4136  2.4114
13732TIP3    H262688   6.716   2.099  16.253 -1.3269 -1.2847 -2.0414
13733TIP3   OH262689   5.675   1.134  15.747  0.2966 -0.1028  0.1271
13733TIP3    H162690   5.613   1.203  15.725  1.8935  1.4105  0.1610
13733TIP3    H262691   5.727   1.122  15.667  2.8563  1.8811  1.3537
13734TIP3   OH262692   4.802   4.880  16.573 -0.8997 -0.2927 -0.5448
13734TIP3    H162693   4.717   4.893  16.617 -1.1109 -1.4686 -0.5470
13734TIP3    H262694   4.802   4.786  16.551  0.6637 -0.4400 -0.0005
13735TIP3   OH262695   6.631   2.490   1.670 -0.1530 -0.3774 -0.1533
13735TIP3    H162696   6.708   2.452   1.713 -0.0625  1.7520  1.7783
13735TIP3    H262697   6.561   2.428   1.686  0.1325 -0.1425  2.2574
13736TIP3   OH262698   4.676   3.275   2.592  0.3432  0.2977 -0.2446
13736TIP3    H162699   4.702   3.356   2.549 -3.0726  1.7590  0.1650
13736TIP3    H262700   4.669   3.212   2.520  2.2600  0.5087 -0.6724
13737TIP3   OH262701   2.277   4.372   0.627  0.3320 -0.1138  0.0466
13737TIP3    H162702   2.211   4.433   0.594  0.6374  0.5852  0.6779
13737TIP3    H262703   2.360   4.417   0.613  0.7945 -1.3602 -1.5791
13738TIP3   OH262704   1.952   0.022  16.202 -0.0155 -0.0377 -0.2256
13738TIP3    H162705   2.043   0.052  16.201  0.1771 -0.3259  2.2164
13738TIP3    H262706   1.950  -0.048  16.267 -2.2213  0.8599  0.7878
13739TIP3   OH262707   1.596   5.361   1.700  0.3806 -0.5615 -0.1274
13739TIP3    H162708   1.531   5.404   1.755 -2.0091 -1.6669 -1.9133
13739TIP3    H262709   1.632   5.292   1.756 -0.8279 -0.6582  0.5663
13740TIP3   OH262710   1.778   2.126   6.663  0.2072 -0.1266  0.3272
13740TIP3    H162711   1.793   2.052   6.606 -0.1758 -0.5531  0.7742
13740TIP3    H262712   1.705   2.173   6.624  0.7334  0.2710 -0.1986
13741TIP3   OH262713   5.196   5.821  13.740  0.0805  0.3044  0.0113
13741TIP3    H162714   5.154   5.859  13.817 -0.0572 -0.8135  0.4998
13741TIP3    H262715   5.157   5.867  13.666 -1.9478 -0.6044  0.4508
13742TIP3   OH262716   5.101   2.667  10.323 -0.4010  0.3950 -0.6962
13742TIP3    H162717   5.167   2.694  10.386 -0.3361 -0.6230 -0.3118
13742TIP3    H262718   5.023   2.716  10.347 -0.0986  0.7634 -0.4561
13743TIP3   OH262719   2.435   3.152   5.390  0.6628 -0.5791  0.0100
13743TIP3    H162720   2.420   3.241   5.356 -2.0344 -1.3743 -1.1200
13743TIP3    H262721   2.435   3.096   5.313 -1.4551 -1.9682  0.9340
13744TIP3   OH262722   6.539   0.498  16.543  0.4792  0.2347 -0.0637
13744TIP3    H162723   6.621   0.525  16.585  0.0008  0.6876  0.6108
13744TIP3    H262724   6.484   0.467  16.616 -1.0532  2.7221 -0.0375
13745TIP3   OH262725   1.650   0.133  12.027  0.3124 -0.0524  0.2875
13745TIP3    H162726   1.724   0.072  12.019  1.2676  1.2065 -0.8909
13745TIP3    H262727   1.578   0.090  11.981  1.0292 -0.2172 -0.6954
13746TIP3   OH262728   3.655   2.514  13.039  0.4622  0.2233  0.0727
13746TIP3    H162729   3.678   2.429  13.003  2.7339  1.1486 -0.8842
13746TIP3    H262730   3.565   2.504  13.071  0.3156 -2.2035 -0.9146
13747TIP3   OH262731   0.174   4.728   3.821 -0.5872 -0.6993 -0.2477
13747TIP3    H162732   0.157   4.730   3.727  0.5109  0.8872 -0.4588
13747TIP3    H262733   0.225   4.648   3.835  1.1969  0.1593 -1.4208
13748TIP3   OH262734   5.901   1.148  11.140 -0.0569  0.0796 -1.1490
13748TIP3    H162735   5.947   1.180  11.218  0.0377 -1.4044 -0.5703
13748TIP3    H262736   5.944   1.193  11.067 -0.1948  1.5466 -0.3666
13749TIP3   OH262737   6.743   6.422   3.960  0.0829  0.7494 -0.4273
13749TIP3    H162738   6.806   6.438   3.890  0.0259 -2.1767 -1.2978
13749TIP3    H262739   6.797   6.413   4.039  0.8089 -1.2126 -1.0754
13750TIP3   OH262740   0.997   0.857  14.292  0.8027  0.0963  1.0263
13750TIP3    H162741   1.071   0.907  14.256  0.8093 -1.1069 -0.7412
13750TIP3    H262742   0.991   0.780  14.236 -1.7769  0.1279  1.1397
13751TIP3   OH262743   3.565   3.957  16.553 -0.0842  0.8550 -0.1012
13751TIP3    H162744   3.601   3.892  16.493 -0.7834 -0.1722  0.5752
13751TIP3    H262745   3.601   4.040  16.521  0.4190  0.2160 -1.2805
13752TIP3   OH262746   0.298   6.239  16.956  0.2214  0.0919 -0.9095
13752TIP3    H162747   0.242   6.163  16.972  0.1012  0.1949 -0.8476
13752TIP3    H262748   0.340   6.255  17.040 -0.8480  0.9942 -0.5315
13753TIP3   OH262749   3.304   5.005  17.003  0.3442 -0.2457 -0.2912
13753TIP3    H162750   3.332   4.914  16.998  1.5350  0.1564 -1.9429
13753TIP3    H262751   3.270   5.025  16.916 -0.1463  0.8224  0.1207
13754TIP3   OH262752   4.162   3.351   0.456  0.0629 -0.3141 -0.1557
13754TIP3    H162753   4.068   3.365   0.468  0.2497  0.3407  0.6190
13754TIP3    H262754   4.169   3.300   0.375 -0.8428  1.4044 -1.3642
13755TIP3   OH262755   4.077   6.093   0.531  0.0227 -0.3806 -0.0012
13755TIP3    H162756   4.130   6.082   0.452 -1.2289  0.1902 -0.9574
13755TIP3    H262757   4.034   6.177   0.520 -0.3612 -0.3935  1.1975
13756TIP3   OH262758   2.382   5.526   1.998  0.0644  0.4164 -0.5449
13756TIP3    H162759   2.340   5.599   1.951  0.4540  1.1767  0.2661
13756TIP3    H262760   2.355   5.448   1.949  0.6336  1.1884 -2.1790
13757TIP3   OH262761   3.728   6.606  11.328 -0.0217 -0.4448 -0.0252
13757TIP3    H162762   3.727   6.523  11.376 -0.6207 -0.4235  0.0136
13757TIP3    H262763   3.765   6.584  11.242 -0.0856 -0.7332  0.0186
13758TIP3   OH262764   5.034   6.314   6.127 -0.6198  0.0547 -0.1334
13758TIP3    H162765   5.089   6.243   6.096  0.2951  1.6861 -2.5610
13758TIP3    H262766   5.081   6.350   6.202  0.2078 -0.3356 -0.4542
13759TIP3   OH262767   2.889   3.886  15.559 -0.2228  0.2980  0.2963
13759TIP3    H162768   2.804   3.844  15.548 -0.1161  0.2157 -0.2004
13759TIP3    H262769   2.929   3.884  15.473  0.8278 -0.8525  0.7737
13760TIP3   OH262770   2.411   0.744  16.904 -0.1427 -0.4014 -0.3159
13760TIP3    H162771   2.437   0.664  16.859 -0.2850 -0.3147 -0.5531
13760TIP3    H262772   2.320   0.758  16.877 -0.5065 -0.7948  0.6395
13761TIP3   OH262773   6.442   2.882  12.665  0.2042  0.4595 -0.5425
13761TIP3    H162774   6.490   2.891  12.582  0.8527 -1.2881 -0.3978
13761TIP3    H262775   6.502   2.835  12.722 -1.2765 -0.8841 -0.0120
13762TIP3   OH262776   5.056   3.629  16.708  0.4156 -0.2269  0.2935
13762TIP3    H162777   5.103   3.556  16.748 -0.6894 -0.9769  0.2680
13762TIP3    H262778   4.988   3.651  16.772  0.6496  0.6864  0.2321
13763TIP3   OH262779   2.823   0.348   1.715 -0.5187 -0.1672 -0.3406
13763TIP3    H162780   2.836   0.439   1.741 -0.4454  0.0585 -1.1341
13763TIP3    H262781   2.847   0.297   1.793  2.6810  0.3251 -0.8590
13764TIP3   OH262782   3.995   3.618   1.298  0.2053 -0.0441 -0.4264
13764TIP3    H162783   3.944   3.593   1.221  0.4586  2.2681 -1.4307
13764TIP3    H262784   4.036   3.537   1.327 -3.3089 -1.8742 -0.0620
13765TIP3   OH262785   1.353   4.529  15.729 -0.3367  0.1893  0.5716
13765TIP3    H162786   1.412   4.604  15.723 -0.8538  0.5549 -0.2233
13765TIP3    H262787   1.310   4.526  15.644 -2.0697  0.4620  1.3848
13766TIP3   OH262788   5.617   4.168   1.212  0.1274  0.4313 -0.1080
13766TIP3    H162789   5.527   4.153   1.183  0.0127 -1.2760  0.9838
13766TIP3    H262790   5.610   4.181   1.306  0.9845  0.8044 -0.0924
13767TIP3   OH262791   2.823   0.544  15.810 -0.3627  0.0123  0.1199
13767TIP3    H162792   2.849   0.633  15.833 -0.3288 -0.1749  0.8360
13767TIP3    H262793   2.742   0.530  15.860 -0.2837 -0.4124  0.1277
13768TIP3   OH262794   1.278   5.150  13.192 -0.5796 -0.0668  0.2698
13768TIP3    H162795   1.205   5.087  13.193 -0.0675 -0.6667  0.8074
13768TIP3    H262796   1.237   5.234  13.212 -1.4625  0.0032 -1.6244
13769TIP3   OH262797   0.498   3.359   6.068  0.6506 -0.1578  0.3145
13769TIP3    H162798   0.579   3.409   6.070  0.3752  0.3164 -0.1955
13769TIP3    H262799   0.456   3.379   6.151  2.0483 -2.1098  1.5741
13770TIP3   OH262800   1.587   1.754  12.365  1.0645 -0.3232 -0.4460
13770TIP3    H162801   1.682   1.766  12.373  0.9153  2.0980 -1.3135
13770TIP3    H262802   1.575   1.706  12.283  1.5320 -0.4895 -0.4178
13771TIP3   OH262803   5.254   5.473  11.580  0.7017 -0.3566  0.2409
13771TIP3    H162804   5.235   5.537  11.511 -0.1119 -1.2761 -0.4146
13771TIP3    H262805   5.282   5.395  11.533  3.6494  0.0783  1.0805
13772TIP3   OH262806   4.829   2.731   6.465  0.2494 -0.0478  0.3558
13772TIP3    H162807   4.847   2.799   6.530 -1.2067  0.5751  0.1494
13772TIP3    H262808   4.895   2.745   6.396  0.2042  0.9160  0.4990
13773TIP3   OH262809   5.122   5.179   5.108  0.1167  0.3521 -0.2935
13773TIP3    H162810   5.115   5.095   5.153  0.0790  0.1435 -0.6847
13773TIP3    H262811   5.033   5.200   5.082  0.2915 -0.1496 -1.3779
13774TIP3   OH262812   4.855   5.761  16.027 -0.2312  0.2279  0.4356
13774TIP3    H162813   4.880   5.682  15.980 -1.5784 -0.8119  1.4026
13774TIP3    H262814   4.921   5.826  16.001  1.4342 -1.4239  0.2903
13775TIP3   OH262815   6.727   5.672   1.732  0.1615 -0.5753 -0.3770
13775TIP3    H162816   6.658   5.732   1.762  0.8522 -0.4169  0.9915
13775TIP3    H262817   6.807   5.708   1.769  0.5927 -2.3417  0.4920
13776TIP3   OH262818   3.361   4.179  13.787  0.1326 -0.3679 -0.4767
13776TIP3    H162819   3.283   4.213  13.744  0.9998  0.2423 -1.6177
13776TIP3    H262820   3.332   4.098  13.830 -1.7666  1.2796  1.5808
13777TIP3   OH262821   6.329   2.831   5.432  0.3918  0.4695 -0.5771
13777TIP3    H162822   6.395   2.770   5.467  0.1866 -0.7377 -2.1575
13777TIP3    H262823   6.349   2.914   5.474  1.3151 -0.4579  0.9187
13778TIP3   OH262824   0.932   1.024  13.658 -0.8084  0.1899  0.3020
13778TIP3    H162825   0.900   1.108  13.626 -0.5893  0.0812 -0.2233
13778TIP3    H262826   0.951   0.974  13.578  1.2644  0.4793  0.5582
13779TIP3   OH262827   6.282   4.243   2.418  0.5948 -0.5720  0.5404
13779TIP3    H162828   6.237   4.324   2.440  0.7894  0.1914 -1.6268
13779TIP3    H262829   6.227   4.174   2.456 -0.6321  0.4833  0.7568
13780TIP3   OH262830   1.509   4.777  17.106 -0.1116 -0.3590  0.0983
13780TIP3    H162831   1.519   4.694  17.059 -0.8564  0.2838 -1.2307
13780TIP3    H262832   1.592   4.787  17.154  0.4189 -1.3384 -0.5817
13781TIP3   OH262833   4.995   4.183  11.383 -0.3993  0.5805 -0.2333
13781TIP3    H162834   4.912   4.142  11.359  0.3632 -0.1496 -1.7263
13781TIP3    H262835   5.020   4.233  11.306  1.4806 -0.7685 -0.5702
13782TIP3   OH262836   1.382   5.473  10.697  0.0324  0.1427 -0.1252
13782TIP3    H162837   1.299   5.434  10.671  0.0533  0.0546 -0.0622
13782TIP3    H262838   1.430   5.483  10.614 -0.0002  0.0975 -0.1499
13783TIP3   OH262839   0.025   2.133  13.343 -0.7022 -0.7786 -0.0025
13783TIP3    H162840  -0.024   2.056  13.373 -0.2598 -0.0925  2.7204
13783TIP3    H262841   0.114   2.101  13.330 -0.5505 -0.7611  0.9788
13784TIP3   OH262842   6.026   1.492  16.216  0.0780  0.2312 -0.5913
13784TIP3    H162843   6.073   1.551  16.275 -0.1703  0.4690 -0.6298
13784TIP3    H262844   6.048   1.523  16.128  0.9897 -0.5424 -0.6451
13785TIP3   OH262845   6.551   3.919   1.760  0.6203  0.1029  0.1203
13785TIP3    H162846   6.580   3.878   1.842  1.2173  2.7238  1.3417
13785TIP3    H262847   6.627   3.970   1.731 -0.0242  0.2780 -1.3619
13786TIP3   OH262848   6.120   0.799   0.285  0.2669  0.2985 -0.1316
13786TIP3    H162849   6.151   0.722   0.332 -2.5588 -0.5283  0.5444
13786TIP3    H262850   6.068   0.763   0.212 -0.9151  1.5348  0.0635
13787TIP3   OH262851   2.057   6.517   2.768 -0.0177  0.0600  0.0101
13787TIP3    H162852   1.975   6.552   2.733  0.2492 -0.1124 -0.8058
13787TIP3    H262853   2.103   6.593   2.803  0.5612  0.5825 -1.7508
13788TIP3   OH262854   5.830   1.912  15.638 -0.4141 -0.0937  0.4175
13788TIP3    H162855   5.767   1.928  15.568 -1.4060  0.3916  1.3932
13788TIP3    H262856   5.815   1.982  15.701 -0.9310 -1.6055  2.0766
13789TIP3   OH262857   2.848   4.571   3.407 -0.1819 -0.3164 -0.4209
13789TIP3    H162858   2.783   4.637   3.431  0.4089 -0.1656  0.8814
13789TIP3    H262859   2.815   4.490   3.446 -0.9323 -0.8396 -2.0593
13790TIP3   OH262860   5.000   4.520  14.612 -0.3725 -0.4323  0.3265
13790TIP3    H162861   5.058   4.506  14.537  1.4529 -0.0819  1.6020
13790TIP3    H262862   5.051   4.488  14.687 -1.8317 -0.0456  1.5083
13791TIP3   OH262863   5.586   0.454   2.999 -0.6733 -0.3549 -0.0966
13791TIP3    H162864   5.590   0.450   2.904  0.7679  0.3679 -0.0995
13791TIP3    H262865   5.502   0.496   3.018 -0.8899 -0.3361 -1.0558
13792TIP3   OH262866   4.615   5.750  15.135  0.0991 -0.6034 -1.0761
13792TIP3    H162867   4.686   5.799  15.177 -1.0630  0.0028  0.2458
13792TIP3    H262868   4.557   5.818  15.100 -0.2884 -1.0769 -1.3715
13793TIP3   OH262869   5.720   0.045   0.682 -0.0993 -0.3115  0.1826
13793TIP3    H162870   5.704  -0.021   0.614  0.0142 -0.7647  0.5867
13793TIP3    H262871   5.814   0.041   0.697  0.1602  1.0578 -0.8919
13794TIP3   OH262872   4.864   0.308   4.042 -0.0055  0.1282 -0.1622
13794TIP3    H162873   4.873   0.320   3.947  1.5145  0.4681  0.0077
13794TIP3    H262874   4.938   0.354   4.079 -0.2321 -0.5417  1.1734
13795TIP3   OH262875   5.800   0.242  15.961 -0.4260  0.2589  0.6462
13795TIP3    H162876   5.757   0.184  15.898 -1.5345  2.7731 -1.0935
13795TIP3    H262877   5.771   0.210  16.046 -2.0176 -0.9601 -0.2862
13796TIP3   OH262878   1.688   3.237   2.297  0.9485 -0.0552 -0.0786
13796TIP3    H162879   1.697   3.214   2.205  1.0921 -0.4770  0.0395
13796TIP3    H262880   1.740   3.172   2.344 -0.0312 -0.5370  0.3798
13797TIP3   OH262881   2.687   1.547   1.021 -0.1532  0.1255  0.5702
13797TIP3    H162882   2.687   1.471   0.963  0.5359  0.6426 -0.1244
13797TIP3    H262883   2.670   1.621   0.964 -0.5610  0.5284  1.2029
13798TIP3   OH262884   0.897   4.477   6.092  0.1074  0.0739  0.0022
13798TIP3    H162885   0.894   4.411   6.023  1.4248  0.5951 -0.5778
13798TIP3    H262886   0.811   4.471   6.134 -0.9259  0.1007 -1.9849
13799TIP3   OH262887   2.554   2.077   3.682  0.0550 -0.1260 -0.3393
13799TIP3    H162888   2.582   2.090   3.773  1.5635  0.7285 -0.8918
13799TIP3    H262889   2.473   2.128   3.674  1.1433  1.7555 -0.0543
13800TIP3   OH262890   6.297   5.916   2.081  0.3257 -0.4560  0.4142
13800TIP3    H162891   6.390   5.941   2.085  0.7836 -2.1381  1.7027
13800TIP3    H262892   6.297   5.823   2.103 -1.7818 -0.2310  1.6155
13801TIP3   OH262893   4.838   0.434   1.680 -0.1420 -0.1983  0.0369
13801TIP3    H162894   4.768   0.492   1.651  0.2623  0.8783  1.1359
13801TIP3    H262895   4.797   0.380   1.748 -0.0545  0.0690  0.3057
13802TIP3   OH262896   2.158   3.807   2.097 -0.1945  0.3321 -0.3592
13802TIP3    H162897   2.129   3.809   2.006  2.4120  1.3689 -1.2745
13802TIP3    H262898   2.099   3.867   2.143 -1.3729  0.0119 -1.3988
13803TIP3   OH262899   4.142   0.663  12.550  0.2203 -0.1844 -0.1508
13803TIP3    H162900   4.229   0.636  12.517  0.2218 -0.6584  0.2287
13803TIP3    H262901   4.113   0.730  12.488  1.1795  0.5134  0.1365
13804TIP3   OH262902   6.423   2.528  14.937  0.0455  0.4288 -0.4448
13804TIP3    H162903   6.505   2.478  14.933  0.2943  0.8653 -0.9262
13804TIP3    H262904   6.354   2.461  14.934  0.3772  0.0830 -0.4961
13805TIP3   OH262905   2.012   1.797  16.202 -0.1580 -0.0256 -0.1801
13805TIP3    H162906   2.025   1.810  16.108 -1.0589  0.1920 -0.2866
13805TIP3    H262907   1.927   1.753  16.208 -0.5296  0.7852  0.5747
13806TIP3   OH262908   4.276   5.580  11.370  0.3935 -0.5710 -0.3310
13806TIP3    H162909   4.265   5.515  11.301  1.4974 -1.6314  0.4540
13806TIP3    H262910   4.291   5.663  11.323  0.1043 -1.0880 -1.3505
13807TIP3   OH262911   1.858   5.158  13.110  0.3355 -0.5775  0.1415
13807TIP3    H162912   1.865   5.063  13.116 -1.9745 -0.7125  2.8276
13807TIP3    H262913   1.767   5.177  13.133  0.3553  2.2542 -1.6089
13808TIP3   OH262914   4.291   4.867  12.202  0.2797 -0.2126  0.2050
13808TIP3    H162915   4.198   4.876  12.221 -0.0450 -0.1142 -1.2824
13808TIP3    H262916   4.330   4.838  12.284 -0.9615  0.3399  1.0181
13809TIP3   OH262917   0.992   0.428  13.992 -0.4228  0.1233 -0.3767
13809TIP3    H162918   0.913   0.376  13.981  0.2808 -0.8373 -1.0695
13809TIP3    H262919   1.059   0.381  13.943  0.5333  1.0326  0.0080
13810TIP3   OH262920   2.444   3.835  13.603  0.0297 -0.1499 -0.4616
13810TIP3    H162921   2.512   3.833  13.537 -0.2506  0.2931 -0.7679
13810TIP3    H262922   2.411   3.925  13.602  0.1135 -0.0977  0.3713
13811TIP3   OH262923   1.800   0.364   3.107 -0.0568  0.4703 -0.3299
13811TIP3    H162924   1.808   0.411   3.024  2.2569  1.8762  0.6146
13811TIP3    H262925   1.761   0.428   3.167  0.2605  0.1576  0.2115
13812TIP3   OH262926   3.009   0.120  16.951 -0.2165  0.5650 -0.1023
13812TIP3    H162927   2.971   0.161  17.029 -0.4950 -0.1778  0.1608
13812TIP3    H262928   2.945   0.136  16.881 -2.2278 -2.5570  0.7952
13813TIP3   OH262929   0.099   5.494  14.963  0.2690 -0.2577 -0.3176
13813TIP3    H162930   0.013   5.535  14.953  0.8131  1.2763  0.8781
13813TIP3    H262931   0.097   5.454  15.050  0.1486 -1.8604 -1.0211
13814TIP3   OH262932   1.290   2.588   2.668  0.1993 -0.2283  0.1086
13814TIP3    H162933   1.379   2.553   2.662 -0.0762 -0.7549 -1.5947
13814TIP3    H262934   1.249   2.562   2.585 -0.7647  2.1418 -0.2310
13815TIP3   OH262935   1.331   5.793   3.912 -0.2871 -0.3223  0.4919
13815TIP3    H162936   1.330   5.864   3.976  1.0691  0.6407 -0.5027
13815TIP3    H262937   1.295   5.831   3.833 -0.0718 -0.9064  0.1026
13816TIP3   OH262938   1.268   6.207  15.987  0.0312 -0.1536  0.9771
13816TIP3    H162939   1.178   6.229  15.964 -0.4920 -1.2327  1.8658
13816TIP3    H262940   1.285   6.255  16.069  1.0345  1.7341 -0.2709
13817TIP3   OH262941   4.066   5.929   2.697  0.1837 -0.0517  0.0158
13817TIP3    H162942   3.986   5.882   2.676  0.4152  0.1354 -1.3390
13817TIP3    H262943   4.108   5.945   2.613  1.0452  0.9291  0.6031
13818TIP3   OH262944   0.667   2.700   3.469  0.2763  0.3221 -0.0225
13818TIP3    H162945   0.724   2.625   3.485  0.9668  0.5047 -1.4485
13818TIP3    H262946   0.724   2.766   3.431 -0.3252  1.5984  1.1902
13819TIP3   OH262947   1.846   2.351  10.393 -0.7760  0.6001  0.0978
13819TIP3    H162948   1.891   2.297  10.459 -1.4626  1.2276  1.1172
13819TIP3    H262949   1.758   2.314  10.388  0.0611 -1.3460 -2.7237
13820TIP3   OH262950   3.542   2.513  15.598  0.0015 -0.1669  0.1808
13820TIP3    H162951   3.599   2.460  15.543  1.4690  0.6162  0.9085
13820TIP3    H262952   3.456   2.473  15.588  0.4848 -0.8722 -1.5950
13821TIP3   OH262953   1.897   3.390   6.314 -0.4185 -0.4055 -0.0439
13821TIP3    H162954   1.981   3.347   6.297 -0.5369 -1.5082  1.8930
13821TIP3    H262955   1.871   3.425   6.229  2.9994  1.8962 -0.3597
13822TIP3   OH262956   4.190   4.430  16.669 -0.1127 -0.1378  0.3343
13822TIP3    H162957   4.102   4.418  16.633 -0.5166  0.1035  1.2201
13822TIP3    H262958   4.229   4.342  16.668 -0.2960 -0.2171 -0.2182
13823TIP3   OH262959   1.250   2.339  12.531 -0.8953 -0.3986  0.1768
13823TIP3    H162960   1.341   2.333  12.503 -0.7468  0.9487  0.2865
13823TIP3    H262961   1.202   2.281  12.472  0.0299 -1.1702  0.1613
13824TIP3   OH262962   5.867   0.530  10.398  0.0048  0.4915  0.4172
13824TIP3    H162963   5.834   0.571  10.478 -0.5038  0.9057  0.0069
13824TIP3    H262964   5.816   0.571  10.328  0.5814  0.2789 -0.1351
13825TIP3   OH262965   2.418   0.355   3.254 -0.1843 -0.1783  0.0411
13825TIP3    H162966   2.376   0.419   3.312 -0.6152 -0.2657 -0.1683
13825TIP3    H262967   2.355   0.283   3.247 -0.5686  0.2422 -1.2645
13826TIP3   OH262968   3.767   3.514  13.880 -0.1946  0.3411  0.0015
13826TIP3    H162969   3.757   3.552  13.967  0.4994 -0.1781  0.3166
13826TIP3    H262970   3.677   3.504  13.849 -0.4219  1.2866  0.3144
13827TIP3   OH262971   6.165   1.873  13.719 -0.0729 -0.0727  0.2926
13827TIP3    H162972   6.117   1.926  13.784 -2.0777 -2.6048  1.0600
13827TIP3    H262973   6.116   1.884  13.638 -0.9433 -1.2027  0.6293
13828TIP3   OH262974   4.092   1.163   5.607 -0.2006  0.1482 -0.0290
13828TIP3    H162975   4.158   1.099   5.635 -1.0731 -0.8402 -0.1570
13828TIP3    H262976   4.035   1.114   5.548 -0.8744  1.0630 -0.1555
13829TIP3   OH262977   6.317   1.832  15.614  0.3278 -0.0921  0.0800
13829TIP3    H162978   6.237   1.813  15.661  0.5953  0.4693  0.7834
13829TIP3    H262979   6.335   1.753  15.563 -0.1245 -0.5955  0.6903
13830TIP3   OH262980   2.225   6.491  12.161 -0.3760 -0.1168 -0.5053
13830TIP3    H162981   2.299   6.434  12.183 -0.4140 -0.6761 -1.7174
13830TIP3    H262982   2.156   6.464  12.221  0.0995 -0.2418  0.0020
13831TIP3   OH262983   4.855   2.505   2.192 -0.3630  0.5185  0.7202
13831TIP3    H162984   4.942   2.466   2.195  0.2172  1.6995 -0.2839
13831TIP3    H262985   4.852   2.563   2.268  0.8978  2.8120 -0.8966
13832TIP3   OH262986   1.104   3.859  15.600 -0.0182  0.8688 -0.3730
13832TIP3    H162987   1.131   3.899  15.682  0.9020 -0.3839 -0.0431
13832TIP3    H262988   1.009   3.846  15.610  0.4762 -2.1799  1.8748
13833TIP3   OH262989   4.536   6.133  11.744 -0.1730  0.5657  0.3155
13833TIP3    H162990   4.596   6.207  11.753  0.3523  0.3908 -1.3091
13833TIP3    H262991   4.594   6.057  11.739 -0.7237 -0.0447  2.4026
13834TIP3   OH262992   0.273   2.910   4.372  0.1255 -0.3354 -0.3347
13834TIP3    H162993   0.290   2.846   4.441 -0.7042  0.5586  0.7375
13834TIP3    H262994   0.280   2.995   4.416  1.4883  0.3491 -1.7800
13835TIP3   OH262995   0.208   1.246   4.857  0.1536 -0.5384  0.2010
13835TIP3    H162996   0.268   1.220   4.927  0.5654  0.6899  0.3140
13835TIP3    H262997   0.236   1.194   4.782 -0.5993 -2.2405  1.0264
13836TIP3   OH262998   3.895   2.637   1.179 -0.4859  0.1827  0.1568
13836TIP3    H162999   3.853   2.707   1.128  0.3060 -0.0365 -0.8240
13836TIP3    H263000   3.827   2.570   1.189 -0.7486  0.3708 -0.3266
13837TIP3   OH263001   3.428   4.887   4.892  0.4959 -0.5917  0.5840
13837TIP3    H163002   3.419   4.845   4.978  0.8405 -0.8514  0.4935
13837TIP3    H263003   3.386   4.972   4.903 -0.9380 -1.2548  0.5503
13838TIP3   OH263004   1.666   6.404  12.472  0.0577  0.1524  0.4783
13838TIP3    H163005   1.726   6.459  12.422 -0.6815  0.9981  0.4887
13838TIP3    H263006   1.695   6.413  12.563  0.0558  0.3873  0.4564
13839TIP3   OH263007   4.037   5.775  13.390  0.0266 -0.1021  0.1643
13839TIP3    H163008   3.991   5.700  13.353  0.0536  0.0137 -0.1071
13839TIP3    H263009   4.127   5.745  13.399  0.3004  0.2783 -1.0652
13840TIP3   OH263010   2.492   4.322  17.080 -0.0637 -0.2871 -0.8266
13840TIP3    H163011   2.452   4.373  17.151 -0.1807  0.8672 -1.6831
13840TIP3    H263012   2.585   4.339  17.088 -0.0382 -0.4803 -0.7081
13841TIP3   OH263013   0.305   2.284   1.458 -0.0238  0.0016 -0.4881
13841TIP3    H163014   0.373   2.340   1.422  0.5412 -0.8798 -0.8265
13841TIP3    H263015   0.303   2.208   1.400 -2.0668  0.4853 -1.1335
13842TIP3   OH263016   3.847   4.261  12.971 -0.2684  0.0769 -0.5441
13842TIP3    H163017   3.886   4.192  12.916 -1.7933 -0.0630 -1.5080
13842TIP3    H263018   3.821   4.216  13.051  0.2534 -0.1054 -0.4690
13843TIP3   OH263019   0.857   0.369  15.750  0.1933 -0.4550  0.6797
13843TIP3    H163020   0.859   0.460  15.722  1.0631 -1.0296 -1.2934
13843TIP3    H263021   0.923   0.325  15.696  1.0754 -1.9388  2.8140
13844TIP3   OH263022   4.027   4.528   3.738 -0.3917 -0.3572  0.0245
13844TIP3    H163023   4.088   4.600   3.724 -0.4867 -0.4188 -0.7626
13844TIP3    H263024   3.941   4.565   3.716 -0.7115 -0.1503  1.5126
13845TIP3   OH263025   5.340   1.562  12.600 -0.1304 -0.4590 -0.4476
13845TIP3    H163026   5.361   1.508  12.677  0.6040  0.1173 -0.2254
13845TIP3    H263027   5.299   1.640  12.636 -0.4867 -0.5243 -0.7092
13846TIP3   OH263028   6.324   1.714  13.207  0.5405  0.0568  0.3698
13846TIP3    H163029   6.364   1.695  13.122  0.5454 -0.7257  0.5383
13846TIP3    H263030   6.230   1.712  13.191  0.5370 -0.2914  0.4141
13847TIP3   OH263031   2.360   1.738   5.993 -0.3356 -0.0081 -0.5958
13847TIP3    H163032   2.271   1.717   6.019 -0.9399  2.1492 -0.7061
13847TIP3    H263033   2.377   1.682   5.917 -1.8687  0.0557 -1.0071
13848TIP3   OH263034   2.003   3.006  17.065  0.0466  0.7708 -0.8141
13848TIP3    H163035   1.946   2.967  16.998 -0.4507 -1.7376  0.9095
13848TIP3    H263036   2.057   2.933  17.094  1.3156  2.1692  0.4521
13849TIP3   OH263037   1.989   2.253  17.090 -0.1722 -0.6549 -0.0460
13849TIP3    H163038   1.988   2.222  17.181 -1.4944  0.9250  0.5232
13849TIP3    H263039   1.927   2.195  17.045 -1.4978  0.1727  0.6669
13850TIP3   OH263040   6.009   3.594   1.572  0.0435  0.0503 -0.3056
13850TIP3    H163041   5.967   3.638   1.499  1.4293 -0.2097 -1.3030
13850TIP3    H263042   6.017   3.503   1.544  1.8292  0.2135 -0.4485
13851TIP3   OH263043   5.966   0.474  16.112 -0.9103  0.1155  0.5267
13851TIP3    H163044   5.911   0.395  16.109 -0.3242 -0.2750 -0.1411
13851TIP3    H263045   5.917   0.539  16.063 -1.6079  0.3214  1.4510
13852TIP3   OH263046   6.044   3.021   2.895 -0.2176  0.0154  0.4963
13852TIP3    H163047   6.110   3.082   2.863 -0.3584 -0.6179 -1.1014
13852TIP3    H263048   5.980   3.076   2.941  0.5385  0.8360  0.5835
13853TIP3   OH263049   6.352   1.936  11.586 -0.1105 -0.3017 -0.3156
13853TIP3    H163050   6.263   1.953  11.619 -0.1064 -0.7798 -0.0520
13853TIP3    H263051   6.387   2.023  11.568 -0.3711 -0.0644  0.2765
13854TIP3   OH263052   4.822   4.871  15.669  0.3988  0.5479 -0.0756
13854TIP3    H163053   4.769   4.951  15.667  0.7680  0.7873 -0.3200
13854TIP3    H263054   4.810   4.833  15.581  0.2909  0.3757  0.0127
13855TIP3   OH263055   3.460   0.486   1.678  0.3473 -0.5311  0.1837
13855TIP3    H163056   3.403   0.441   1.740  0.0598 -0.6026 -0.1290
13855TIP3    H263057   3.424   0.465   1.592 -0.9411  1.7617  0.0638
13856TIP3   OH263058   0.760   2.357  10.654  0.2316 -0.3004  0.4259
13856TIP3    H163059   0.689   2.399  10.701  0.2964  2.2457 -1.5385
13856TIP3    H263060   0.731   2.266  10.641 -2.4689  0.5407  0.0788
13857TIP3   OH263061   5.513   2.097  13.497 -0.5285  0.3086  0.0696
13857TIP3    H163062   5.482   2.017  13.538  0.4864 -0.4048 -0.5014
13857TIP3    H263063   5.553   2.147  13.569 -2.5558  1.0696  0.7319
13858TIP3   OH263064   1.660   0.503   3.734  0.8017 -0.0334  0.5506
13858TIP3    H163065   1.710   0.447   3.674  0.7838 -0.6674  1.1173
13858TIP3    H263066   1.714   0.581   3.744  0.5960  0.2929 -0.6390
13859TIP3   OH263067   5.306   6.567   3.433 -0.4288  0.1349  0.0421
13859TIP3    H163068   5.249   6.530   3.501 -0.7785  0.0184 -0.3087
13859TIP3    H263069   5.335   6.490   3.382 -1.1631  0.3265 -0.6939
13860TIP3   OH263070   6.385   4.443  13.915 -0.1076  0.0137 -0.7433
13860TIP3    H163071   6.443   4.386  13.966 -0.6865 -1.9556 -2.1530
13860TIP3    H263072   6.444   4.506  13.873  0.8869 -1.0298 -0.9836
13861TIP3   OH263073   3.587   1.486   5.266  0.4561  0.0760 -0.3090
13861TIP3    H163074   3.672   1.512   5.300 -0.4140  1.4487  0.9506
13861TIP3    H263075   3.533   1.565   5.274 -0.9264 -0.7495 -1.1096
13862TIP3   OH263076   2.409   3.164   5.084 -0.1518  0.2840 -0.5502
13862TIP3    H163077   2.326   3.127   5.113  0.2262  0.9974  1.6386
13862TIP3    H263078   2.475   3.121   5.139  1.2522 -1.6766 -3.4623
13863TIP3   OH263079   2.871   3.428   5.729  0.1753  0.3546  0.9809
13863TIP3    H163080   2.919   3.477   5.795  0.1335  0.0163  1.2687
13863TIP3    H263081   2.904   3.338   5.737  0.4059  0.3743  0.3188
13864TIP3   OH263082   3.631   2.672   4.638  0.3532 -0.1786  0.0223
13864TIP3    H163083   3.645   2.763   4.614 -0.4672 -0.1395 -0.3494
13864TIP3    H263084   3.712   2.645   4.679  0.4482  0.8494  0.5318
13865TIP3   OH263085   5.017   5.483  11.309  0.1127 -0.0411  0.0352
13865TIP3    H163086   4.955   5.514  11.242  0.6104 -0.4073 -0.6053
13865TIP3    H263087   4.987   5.524  11.390 -0.1755  0.8684 -0.5111
13866TIP3   OH263088   0.325   6.504  15.298  0.2592  0.1700 -0.3244
13866TIP3    H163089   0.290   6.426  15.256 -0.3634  0.8889 -1.1866
13866TIP3    H263090   0.250   6.564  15.304  0.5616  0.4692  0.9315
13867TIP3   OH263091   6.755   0.695   5.784  0.8515  0.2586 -0.1420
13867TIP3    H163092   6.707   0.636   5.842  0.8344  0.1287 -0.2897
13867TIP3    H263093   6.694   0.711   5.712 -0.2881  2.6566  1.2222
13868TIP3   OH263094   5.187   0.054   5.680 -0.7016  0.1287  0.3512
13868TIP3    H163095   5.215   0.054   5.771  2.5811 -0.9954 -0.5271
13868TIP3    H263096   5.132  -0.023   5.671 -1.5381  0.5707  1.4620
13869TIP3   OH263097   0.255   3.432   4.961  0.0064  0.0386  0.1594
13869TIP3    H163098   0.283   3.497   4.898 -0.0290 -0.8396 -0.7875
13869TIP3    H263099   0.266   3.348   4.916 -0.1553 -0.5984  1.2646
13870TIP3   OH263100   1.915   3.968  12.521  0.5742 -0.8230  0.0207
13870TIP3    H163101   1.908   3.900  12.454 -1.0633  0.2249 -0.9087
13870TIP3    H263102   1.890   4.049  12.477  0.8305  0.1266  1.5451
13871TIP3   OH263103   3.908   5.973   3.818 -0.2851 -0.0244 -0.1868
13871TIP3    H163104   3.853   5.900   3.848  1.0153 -0.1751  2.0473
13871TIP3    H263105   3.845   6.040   3.790 -1.5255 -2.1429 -3.0085
13872TIP3   OH263106   0.241   2.578  16.986  0.4162 -0.6567  0.0363
13872TIP3    H163107   0.318   2.547  17.034  0.4096  2.0220  1.9622
13872TIP3    H263108   0.277   2.617  16.907  1.0070  0.0563  0.6439
13873TIP3   OH263109   4.728   4.565   4.165 -0.2291  0.4034  0.7875
13873TIP3    H163110   4.658   4.542   4.103 -0.2199 -1.7937  1.5071
13873TIP3    H263111   4.683   4.607   4.238 -0.9089 -1.2836  1.3899
13874TIP3   OH263112   2.743   2.232  14.704 -0.2463 -0.1388  0.2680
13874TIP3    H163113   2.814   2.295  14.691  0.5704 -1.1341 -0.2176
13874TIP3    H263114   2.669   2.269  14.656  1.1644 -1.1249 -2.9292
13875TIP3   OH263115   4.493   5.192   0.952 -0.3221 -0.1719 -0.1964
13875TIP3    H163116   4.516   5.265   1.010 -1.5497  1.0426 -1.1726
13875TIP3    H263117   4.486   5.116   1.011 -0.7096  0.8450  1.1136
13876TIP3   OH263118   4.832   3.105  14.600  0.0338 -0.3375  0.0297
13876TIP3    H163119   4.879   3.125  14.681  0.9462 -0.2353 -0.5006
13876TIP3    H263120   4.781   3.184  14.581 -0.3896 -0.4608  0.6365
13877TIP3   OH263121   1.623   3.026  13.236 -0.7010 -0.6599  0.4831
13877TIP3    H163122   1.704   3.053  13.193 -0.8209  1.4152  1.4306
13877TIP3    H263123   1.626   2.930  13.236  2.1285 -0.6487  1.1724
13878TIP3   OH263124   3.620   0.226   5.621  0.2141  0.0883  0.3903
13878TIP3    H163125   3.617   0.210   5.527 -2.1640 -2.1217  0.7257
13878TIP3    H263126   3.675   0.304   5.631  0.7056  0.2594 -2.7754
13879TIP3   OH263127   1.926   4.207   0.722 -0.1151 -0.0211  0.4326
13879TIP3    H163128   1.950   4.221   0.630 -1.0291  2.7499  0.5074
13879TIP3    H263129   1.976   4.274   0.770 -1.8138  0.4960  1.5684
13880TIP3   OH263130   3.922   5.344   0.909  0.0207  0.2684 -0.2721
13880TIP3    H163131   3.859   5.376   0.844 -0.2785  0.5147  0.1314
13880TIP3    H263132   3.983   5.290   0.859 -1.3236 -1.1559 -0.4565
13881TIP3   OH263133   3.808   6.263   3.419  0.2840 -0.1497 -0.2766
13881TIP3    H163134   3.791   6.296   3.331  0.5695 -0.8013 -0.5818
13881TIP3    H263135   3.879   6.317   3.452  0.6453 -0.3490 -0.7150
13882TIP3   OH263136   5.626   4.317  13.966 -0.2171 -0.3291  0.2886
13882TIP3    H163137   5.668   4.236  13.993 -0.1632 -0.2526  0.4346
13882TIP3    H263138   5.543   4.318  14.014 -0.2289 -0.3110  0.2674
13883TIP3   OH263139   4.349   3.308  12.978  0.1817 -0.6709  0.1368
13883TIP3    H163140   4.268   3.315  12.928 -0.2855 -2.1330  0.6071
13883TIP3    H263141   4.389   3.227  12.946  2.3391  0.8539 -1.2685
13884TIP3   OH263142   0.735   0.576   1.149  0.5834 -0.1699 -0.0948
13884TIP3    H163143   0.756   0.495   1.196 -2.4718 -1.4862 -0.7802
13884TIP3    H263144   0.762   0.560   1.059  1.7919  0.3850  0.1534
13885TIP3   OH263145   5.664   2.880   0.116 -0.2672  0.5671  0.5814
13885TIP3    H163146   5.651   2.945   0.184  1.3410  0.9394  0.5631
13885TIP3    H263147   5.758   2.867   0.111 -0.5142 -1.9129  0.7112
13886TIP3   OH263148   0.342   0.627  13.176 -0.6096 -0.0549  0.2830
13886TIP3    H163149   0.271   0.563  13.181 -0.9335  0.3539  0.9724
13886TIP3    H263150   0.409   0.584  13.124 -1.2467 -0.5583 -0.1362
13887TIP3   OH263151   6.594   6.423   5.339 -0.5249  0.5806 -0.2840
13887TIP3    H163152   6.503   6.394   5.350 -0.0685 -0.9002 -0.0890
13887TIP3    H263153   6.635   6.403   5.424  0.1486  0.5169 -0.6184
13888TIP3   OH263154   4.786   3.876  16.400  0.5049  0.4779  0.1666
13888TIP3    H163155   4.836   3.908  16.474  0.9278 -0.4085  0.2859
13888TIP3    H263156   4.709   3.833  16.439  1.5130 -1.3849  0.2309
13889TIP3   OH263157   3.117   3.305  14.571 -0.2390 -0.4922  0.5400
13889TIP3    H163158   3.030   3.291  14.534 -0.0080 -1.7642  0.4231
13889TIP3    H263159   3.103   3.311  14.665 -0.8316  2.7743  0.3547
13890TIP3   OH263160   0.421   5.751   5.172 -0.4983  0.2610 -0.6644
13890TIP3    H163161   0.425   5.799   5.255 -0.9727  0.4507 -0.7516
13890TIP3    H263162   0.391   5.816   5.108 -0.8047 -0.0595 -0.8480
13891TIP3   OH263163   6.139   4.105  13.374  0.2744  0.3433  0.2006
13891TIP3    H163164   6.090   4.184  13.351 -0.5477 -0.3033 -0.3841
13891TIP3    H263165   6.158   4.114  13.467  0.4092  1.3393  0.0824
13892TIP3   OH263166   0.712   1.156   0.919  0.0809  0.1250 -0.3732
13892TIP3    H163167   0.727   1.062   0.910  0.3142  0.2625 -1.6319
13892TIP3    H263168   0.653   1.164   0.993 -2.7934 -1.3255 -2.3016
13893TIP3   OH263169   2.841   6.011   1.273  0.6327 -0.8658 -0.4469
13893TIP3    H163170   2.919   5.955   1.277 -0.0546 -1.7658  2.0163
13893TIP3    H263171   2.777   5.960   1.224  1.5085 -0.1304 -2.4701
13894TIP3   OH263172   0.554   5.120  16.903  0.0296 -0.0180  0.7424
13894TIP3    H163173   0.619   5.161  16.960  0.8524 -0.8777  0.4538
13894TIP3    H263174   0.601   5.048  16.861 -0.9953 -0.3851  0.1815
13895TIP3   OH263175   6.209   4.570  16.794  0.6086  0.0057 -0.1938
13895TIP3    H163176   6.207   4.508  16.866 -0.8930  0.2736  0.0197
13895TIP3    H263177   6.202   4.656  16.836 -0.7996  0.1393 -0.6679
13896TIP3   OH263178   1.355   2.950  13.863 -0.0319 -0.0182  0.2302
13896TIP3    H163179   1.411   2.983  13.793  0.2520 -0.4407  0.2556
13896TIP3    H263180   1.326   2.864  13.833  0.8246 -0.5984  1.0160
13897TIP3   OH263181   0.860   6.336   2.102 -0.1392  0.3177 -0.2185
13897TIP3    H163182   0.783   6.356   2.048 -0.2119 -0.1932 -0.3071
13897TIP3    H263183   0.933   6.377   2.056 -0.3864  1.0044 -0.0125
13898TIP3   OH263184   2.467   6.589   2.560  0.2850  0.4394 -0.2385
13898TIP3    H163185   2.374   6.591   2.584  0.6878 -2.6112  2.2321
13898TIP3    H263186   2.510   6.640   2.628  0.6360 -0.5181  0.2722
13899TIP3   OH263187   3.307   4.354   1.925  0.3322  0.6030  0.1949
13899TIP3    H163188   3.359   4.274   1.918 -0.8234 -0.0287 -2.9297
13899TIP3    H263189   3.365   4.424   1.895  0.4969  0.4773  0.2193
13900TIP3   OH263190   6.201   1.542   2.976 -0.1063 -0.5786 -0.0039
13900TIP3    H163191   6.167   1.604   2.911  0.5920 -0.4241 -0.2397
13900TIP3    H263192   6.175   1.579   3.060 -0.3342 -0.3519 -0.1721
13901TIP3   OH263193   2.462   4.402  10.335 -0.9267 -0.4408 -0.0268
13901TIP3    H163194   2.491   4.311  10.345  1.0911  0.0631 -0.7456
13901TIP3    H263195   2.537   4.454  10.364 -1.1694  0.9687 -1.7216
13902TIP3   OH263196   3.578   3.276  14.383  0.2442 -0.0648  0.1978
13902TIP3    H163197   3.640   3.248  14.450  0.2723  0.6951  0.5036
13902TIP3    H263198   3.585   3.210  14.315  0.2347 -0.8402  0.9316
13903TIP3   OH263199   2.100   0.459   1.460  0.4169  0.4410 -0.0286
13903TIP3    H163200   2.079   0.369   1.435  0.2951  0.6729 -0.7816
13903TIP3    H263201   2.022   0.490   1.505  0.6939 -0.0301  0.7945
13904TIP3   OH263202   1.093   0.242   4.733  0.5120  0.5147  0.0768
13904TIP3    H163203   1.036   0.202   4.667 -0.8026 -2.3930  2.7283
13904TIP3    H263204   1.059   0.331   4.743 -2.4784 -0.5292  0.2010
13905TIP3   OH263205   3.883   1.243  14.677  0.2662 -0.0343 -0.1065
13905TIP3    H163206   3.950   1.243  14.608 -0.1043  0.1579 -0.4733
13905TIP3    H263207   3.814   1.185  14.643 -0.2020  0.5630 -0.1783
13906TIP3   OH263208   4.445   4.756  11.649 -0.5286  0.1788 -0.1547
13906TIP3    H163209   4.401   4.791  11.572 -2.3473 -1.3402  0.1119
13906TIP3    H263210   4.393   4.787  11.723  0.9452  1.2539  0.4805
13907TIP3   OH263211   2.853   1.359   4.636 -0.6188 -0.0761 -0.0497
13907TIP3    H163212   2.876   1.394   4.722 -0.3316  0.4995 -0.3565
13907TIP3    H263213   2.761   1.336   4.643 -0.1941 -1.6428  0.9457
13908TIP3   OH263214   3.220   0.905   6.212 -0.7295 -0.1578 -0.6851
13908TIP3    H163215   3.177   0.894   6.297 -2.1847 -3.5832 -1.7068
13908TIP3    H263216   3.294   0.844   6.214  0.6540  1.4226 -1.1104
13909TIP3   OH263217   0.075   3.384  11.076 -0.9328  0.3035  0.2393
13909TIP3    H163218   0.153   3.440  11.070  0.6496 -1.4165  2.7933
13909TIP3    H263219   0.071   3.340  10.991  2.0644 -0.8778  0.5669
13910TIP3   OH263220   0.737   5.269   5.602  0.0107  0.0692  0.2407
13910TIP3    H163221   0.828   5.283   5.576  0.3321 -0.4986  1.0111
13910TIP3    H263222   0.695   5.354   5.589  0.9062  0.6278  0.8775
13911TIP3   OH263223   4.245   3.548   6.120  0.6616  0.1646 -0.0156
13911TIP3    H163224   4.260   3.587   6.206  0.7515 -0.1134  0.0964
13911TIP3    H263225   4.255   3.454   6.135  3.8802  0.2346 -0.9503
13912TIP3   OH263226   5.658   5.434  10.266 -0.1588  0.3779  0.2352
13912TIP3    H163227   5.714   5.374  10.316 -1.2220  0.8637  2.1134
13912TIP3    H263228   5.591   5.377  10.227 -0.7741  0.2261  1.4586
13913TIP3   OH263229   6.658   2.913  13.013  0.1831 -0.2719 -0.2501
13913TIP3    H163230   6.644   2.829  13.057 -2.7245 -0.6188 -1.5903
13913TIP3    H263231   6.713   2.893  12.938 -1.8287 -1.4026 -1.5029
13914TIP3   OH263232   4.447   2.198   5.189 -0.1006 -0.0845 -0.0214
13914TIP3    H163233   4.384   2.251   5.140  0.4973 -0.0487 -0.7731
13914TIP3    H263234   4.497   2.262   5.240  0.2906  0.0237 -0.5443
13915TIP3   OH263235   3.633   4.046   2.851  0.2323  0.7053 -0.8769
13915TIP3    H163236   3.558   4.001   2.811 -0.2865  0.4702  0.3133
13915TIP3    H263237   3.710   4.000   2.816 -0.2791 -1.7779  0.9686
13916TIP3   OH263238   0.045   3.100  12.402 -0.1512  0.2495 -0.0425
13916TIP3    H163239   0.044   3.196  12.407 -2.1453  0.3281 -1.0752
13916TIP3    H263240   0.068   3.072  12.491  0.5512  1.6566  0.2611
13917TIP3   OH263241   0.550   1.880   6.011  0.2514 -0.2292  0.5333
13917TIP3    H163242   0.604   1.813   6.053  0.2467 -1.0030 -0.6445
13917TIP3    H263243   0.606   1.957   6.008  1.2644 -0.9760 -0.5235
13918TIP3   OH263244   6.117   4.194   5.652 -0.2220 -0.5061 -1.1008
13918TIP3    H163245   6.045   4.197   5.715  0.6826  1.1885 -0.0818
13918TIP3    H263246   6.194   4.219   5.702  0.5621  0.7330 -2.8406
13919TIP3   OH263247   2.786   5.732  17.016 -0.2492 -0.4365  0.2638
13919TIP3    H163248   2.714   5.673  17.037 -0.8901  0.1224 -0.3385
13919TIP3    H263249   2.785   5.740  16.921 -0.1747  0.5351  0.3259
13920TIP3   OH263250   2.614   1.656  11.545  0.4245  0.0604  0.1305
13920TIP3    H163251   2.588   1.737  11.502  1.0928 -0.9936 -2.4436
13920TIP3    H263252   2.674   1.614  11.483  0.9910 -1.8888  1.8692
13921TIP3   OH263253   6.025   2.591  14.973  0.6777  0.0325  0.5922
13921TIP3    H163254   5.961   2.598  15.043 -0.6468 -1.1235 -0.4549
13921TIP3    H263255   5.987   2.639  14.900  0.0568 -2.2165 -0.6568
13922TIP3   OH263256   1.892   6.401   2.232 -0.2282  0.1276  0.1682
13922TIP3    H163257   1.867   6.337   2.166 -1.4833 -0.6775  1.3548
13922TIP3    H263258   1.821   6.397   2.297 -0.0164  2.2556  0.6106
13923TIP3   OH263259   4.712   5.599  12.306 -0.3919 -0.4540 -0.5674
13923TIP3    H163260   4.711   5.528  12.242  1.2634 -1.0874  0.0575
13923TIP3    H263261   4.803   5.603  12.336 -0.4948  1.7685 -0.3860
13924TIP3   OH263262   5.804   5.437   0.185 -0.0703 -0.0809 -0.1633
13924TIP3    H163263   5.841   5.471   0.103 -0.8502  0.1876 -0.4191
13924TIP3    H263264   5.852   5.482   0.254  0.6607 -0.3747 -0.4616
13925TIP3   OH263265   5.116   2.503  14.509  0.1952 -0.1264 -0.0138
13925TIP3    H163266   5.190   2.490  14.449 -0.0979  0.6226 -0.5490
13925TIP3    H263267   5.050   2.548  14.456 -0.4745 -0.4018  0.5851
13926TIP3   OH263268   2.945   0.387  12.276 -0.1648 -0.0265 -0.2930
13926TIP3    H163269   3.013   0.330  12.313 -0.9593 -0.4374  0.5916
13926TIP3    H263270   2.992   0.443  12.214  1.3050  0.8145  1.4600
13927TIP3   OH263271   3.246   4.938   4.161 -0.0396 -0.2234 -0.4359
13927TIP3    H163272   3.326   4.899   4.124 -0.2396 -1.5633  0.4769
13927TIP3    H263273   3.253   4.921   4.255 -0.1649  1.9678  0.0077
13928TIP3   OH263274   2.012   1.485   3.860  0.8116  0.3014 -0.1322
13928TIP3    H163275   1.983   1.394   3.873 -0.4873  0.4808 -1.5383
13928TIP3    H263276   2.083   1.496   3.923 -0.3559 -1.0554  1.5257
13929TIP3   OH263277   4.964   2.023  12.448 -0.6018  0.4563 -0.0606
13929TIP3    H163278   5.021   2.083  12.495 -0.2198 -1.0152  1.4371
13929TIP3    H263279   5.022   1.977  12.388 -0.6237  0.4896 -0.1078
13930TIP3   OH263280   1.260   5.129   4.299 -0.3030  0.5885 -0.3651
13930TIP3    H163281   1.309   5.200   4.258  1.9023 -0.1497  0.7995
13930TIP3    H263282   1.327   5.063   4.319 -2.0483 -1.1765 -0.0885
13931TIP3   OH263283   2.378   1.263   6.303 -0.1297 -0.1064  0.3805
13931TIP3    H163284   2.463   1.285   6.342  1.1084 -0.3375 -1.9373
13931TIP3    H263285   2.334   1.209   6.368  1.8144 -0.5450  1.3999
13932TIP3   OH263286   3.758   2.430  15.004  0.0856  0.0779 -0.0734
13932TIP3    H163287   3.766   2.478  15.087  0.6334  0.9422 -0.6053
13932TIP3    H263288   3.667   2.443  14.977  0.5579  2.0856 -0.9163
13933TIP3   OH263289   6.303   5.240   1.837 -0.2368 -0.1810  0.5653
13933TIP3    H163290   6.339   5.222   1.924  0.0402 -1.1178  0.2600
13933TIP3    H263291   6.268   5.156   1.807 -1.3327  0.3724  0.2162
13934TIP3   OH263292   5.709   1.456   1.223 -0.5537  0.1947 -0.4034
13934TIP3    H163293   5.626   1.450   1.176 -0.6915  1.0769 -0.2912
13934TIP3    H263294   5.717   1.373   1.269 -0.8684 -0.3107 -1.2416
13935TIP3   OH263295   0.033   6.553   6.685  0.8728  0.4918 -0.2369
13935TIP3    H163296   0.091   6.478   6.700 -0.4900 -0.8904 -1.4260
13935TIP3    H263297   0.048   6.576   6.593 -0.4455  0.0923 -0.5693
13936TIP3   OH263298   0.152   0.214  12.085 -0.5537  0.1785 -0.2972
13936TIP3    H163299   0.240   0.189  12.056 -0.4269  0.4263 -0.1364
13936TIP3    H263300   0.122   0.139  12.137 -0.1296  0.4006  0.2808
13937TIP3   OH263301   0.167   1.314  11.353 -0.2119 -0.2692  0.1663
13937TIP3    H163302   0.100   1.369  11.313  0.3096  0.2117 -0.0652
13937TIP3    H263303   0.148   1.226  11.320  0.8066  0.2622 -2.0218
13938TIP3   OH263304   0.324   3.744   0.839 -0.2564 -0.2651 -0.2717
13938TIP3    H163305   0.346   3.701   0.756 -1.2401  1.6033 -1.5518
13938TIP3    H263306   0.229   3.741   0.843 -0.1968 -1.7035  1.6192
13939TIP3   OH263307   2.077   2.886   4.007  0.2658 -0.6735  0.1460
13939TIP3    H163308   2.014   2.862   3.939  0.6124 -1.5718  0.1187
13939TIP3    H263309   2.158   2.842   3.981  1.8959  2.9054 -1.5197
13940TIP3   OH263310   2.119   2.904   5.002 -0.4932  0.3461  0.4245
13940TIP3    H163311   2.175   2.845   4.951  1.3038  1.0167  1.5166
13940TIP3    H263312   2.108   2.981   4.946  0.0088  0.3527  0.3255
13941TIP3   OH263313   3.985   3.643  13.759  0.3514  0.3915  0.5005
13941TIP3    H163314   3.912   3.599  13.804  0.0305 -0.2141 -0.5804
13941TIP3    H263315   4.048   3.573  13.743  1.7052  1.0900  2.3759
13942TIP3   OH263316   5.373   6.443   1.090  0.0266 -0.0978  0.1273
13942TIP3    H163317   5.451   6.461   1.039 -0.0780  0.2715  0.0978
13942TIP3    H263318   5.328   6.527   1.098  0.1092 -0.1163  0.9400
13943TIP3   OH263319   3.895   2.626   1.906  0.0859 -0.4234 -0.6274
13943TIP3    H163320   3.847   2.547   1.881  0.4405 -0.9622  0.3263
13943TIP3    H263321   3.980   2.617   1.862  0.3786 -0.9263  0.0194
13944TIP3   OH263322   4.336   2.099  11.063 -0.0527 -0.1424  0.1611
13944TIP3    H163323   4.278   2.168  11.031  2.1563  1.5932 -0.3226
13944TIP3    H263324   4.397   2.084  10.991  1.6281 -0.1267  1.5429
13945TIP3   OH263325   5.899   6.124   4.107  0.0041  0.3232 -1.0187
13945TIP3    H163326   5.820   6.131   4.161  0.9696  1.7601  0.2572
13945TIP3    H263327   5.955   6.061   4.153  0.9795  1.8189 -0.0804
13946TIP3   OH263328   0.329   4.080  16.192  0.2888  0.1834  0.0404
13946TIP3    H163329   0.256   4.142  16.187  0.3684  0.2281 -0.6128
13946TIP3    H263330   0.335   4.058  16.285 -0.3666  0.4029  0.1373
13947TIP3   OH263331   5.510   0.423   4.903  0.7491 -0.3662  0.3338
13947TIP3    H163332   5.557   0.379   4.832  0.4557  1.0827 -0.8230
13947TIP3    H263333   5.476   0.352   4.958  2.0525 -1.4945 -0.2719
13948TIP3   OH263334   0.110   2.888  15.126 -0.0027 -0.1588 -0.5541
13948TIP3    H163335   0.157   2.954  15.177 -3.4364  2.9233 -0.9850
13948TIP3    H263336   0.085   2.821  15.190 -1.9301  2.2930  1.4641
13949TIP3   OH263337   0.097   0.626   3.800  0.5835  0.8155  0.1950
13949TIP3    H163338   0.008   0.616   3.832 -0.3535  0.4422 -2.2446
13949TIP3    H263339   0.141   0.544   3.823 -0.2992  0.2233 -0.1865
13950TIP3   OH263340   0.230   0.395   1.763  0.9300  0.4860 -0.3715
13950TIP3    H163341   0.179   0.410   1.842  0.8474  1.7265 -0.6362
13950TIP3    H263342   0.310   0.352   1.794  0.3843 -0.1318  0.2176
13951TIP3   OH263343   6.821   4.923   3.945  0.0886  0.6543  0.1574
13951TIP3    H163344   6.857   4.925   4.034 -0.4956  1.3828  0.3863
13951TIP3    H263345   6.869   4.852   3.902  0.9446  0.8089  0.8121
13952TIP3   OH263346   3.999   6.671   5.639 -0.3369  0.0171  0.3081
13952TIP3    H163347   4.020   6.703   5.727  0.0906  0.5778  0.0078
13952TIP3    H263348   3.916   6.624   5.650  0.2760 -0.8828  1.2209
13953TIP3   OH263349   0.411   4.264  12.085  0.6335 -0.4658 -0.5704
13953TIP3    H163350   0.418   4.202  12.012  0.0868 -1.5509  0.2682
13953TIP3    H263351   0.442   4.215  12.161  1.1335  0.6267 -0.0480
13954TIP3   OH263352   4.723   3.291   0.461  0.8053 -0.5839 -0.1712
13954TIP3    H163353   4.758   3.224   0.520  0.9086 -0.0357  0.4050
13954TIP3    H263354   4.628   3.289   0.474  0.9263  0.5368  1.1466
13955TIP3   OH263355   4.569   5.158   1.730  0.2542 -0.2115 -0.3472
13955TIP3    H163356   4.562   5.223   1.800  0.2754 -0.7840  0.1878
13955TIP3    H263357   4.503   5.092   1.750 -0.6947  0.2968 -1.6143
13956TIP3   OH263358   1.430   5.141   1.401  0.0739  0.1341 -0.2024
13956TIP3    H163359   1.468   5.055   1.385  0.7115  0.4705 -0.5151
13956TIP3    H263360   1.336   5.129   1.384  0.1124 -0.5672  0.0478
13957TIP3   OH263361   4.363   2.386  16.875 -0.3357  0.0221  0.6793
13957TIP3    H163362   4.305   2.461  16.888 -0.5126  0.1638 -0.7918
13957TIP3    H263363   4.326   2.340  16.799  0.0288 -1.3141  1.2810
13958TIP3   OH263364   0.900   4.116   1.874 -0.1200 -1.1440 -0.3919
13958TIP3    H163365   0.919   4.109   1.968  1.2688  0.8205 -0.4582
13958TIP3    H263366   0.969   4.066   1.831  0.8296  0.1364 -0.4108
13959TIP3   OH263367   4.635   0.482  14.006  0.2479 -0.8200  0.8826
13959TIP3    H163368   4.622   0.519  14.094  0.7741 -2.3593  1.6423
13959TIP3    H263369   4.547   0.464  13.974 -0.0046  0.7254  0.6281
13960TIP3   OH263370   5.373   0.598  13.308 -0.1948  0.2035 -0.1540
13960TIP3    H163371   5.419   0.514  13.320 -1.0874 -0.1215  1.3025
13960TIP3    H263372   5.390   0.646  13.389 -1.4717  0.5317 -0.0585
13961TIP3   OH263373   1.925   1.809  14.508 -0.1007  0.8123  0.7142
13961TIP3    H163374   1.917   1.894  14.465  1.5857  0.5616 -0.1707
13961TIP3    H263375   1.896   1.826  14.598  0.1855  2.3204  0.5601
13962TIP3   OH263376   3.837   2.024   2.564 -0.6103  0.3494 -0.1225
13962TIP3    H163377   3.779   2.085   2.608  0.7756  1.5920  0.0357
13962TIP3    H263378   3.902   2.000   2.629 -2.4324 -3.3182  0.6609
13963TIP3   OH263379   1.517   3.125  13.706 -0.2858  0.2460 -0.4985
13963TIP3    H163380   1.589   3.069  13.737 -0.1292  0.2185 -0.9103
13963TIP3    H263381   1.542   3.213  13.733  0.6479  0.4554 -1.9543
13964TIP3   OH263382   3.033   2.664   3.385  0.1600  0.1628 -0.4836
13964TIP3    H163383   3.108   2.613   3.415 -1.2894 -0.2951  2.7374
13964TIP3    H263384   2.979   2.602   3.336  0.4354 -0.2657 -0.2417
13965TIP3   OH263385   4.781   4.900  12.937  0.2368 -0.0274 -0.2441
13965TIP3    H163386   4.741   4.845  12.870  1.6417 -0.6040 -0.6553
13965TIP3    H263387   4.874   4.878  12.933  0.6938  1.6801  0.2522
13966TIP3   OH263388   2.044   4.430   4.088 -0.0814 -0.2949 -0.0913
13966TIP3    H163389   2.083   4.343   4.092  0.2675 -0.1288  0.2197
13966TIP3    H263390   2.060   4.460   3.998  0.2973 -0.3255 -0.0345
13967TIP3   OH263391   1.808   4.431   5.615  0.1896 -0.1636  0.1015
13967TIP3    H163392   1.882   4.371   5.622  0.0530 -0.4343 -0.6091
13967TIP3    H263393   1.847   4.516   5.595  0.3750 -0.0461  0.9513
13968TIP3   OH263394   1.346   3.815  10.944  0.0429 -0.0273  0.0374
13968TIP3    H163395   1.252   3.822  10.927 -0.0208 -0.9433 -0.0590
13968TIP3    H263396   1.354   3.740  11.003  0.7994 -0.6775 -0.8497
13969TIP3   OH263397   5.824   5.847  11.433  0.1552 -0.0173  0.2923
13969TIP3    H163398   5.896   5.805  11.479 -0.7621  0.2832  2.1042
13969TIP3    H263399   5.749   5.788  11.446 -0.3641  0.5736  0.0472
13970TIP3   OH263400   5.609   6.092   0.432  0.2336  0.1830 -0.4363
13970TIP3    H163401   5.599   6.081   0.527 -2.6395 -1.1329 -0.8042
13970TIP3    H263402   5.588   6.184   0.417  1.8083  0.7018  0.2445
13971TIP3   OH263403   1.465   4.835  10.739 -0.1099  0.5943  0.2074
13971TIP3    H163404   1.424   4.880  10.813  1.8143  1.5022  0.7930
13971TIP3    H263405   1.518   4.903  10.697 -0.3299 -0.1755 -1.3799
13972TIP3   OH263406   2.973   4.881   2.635  0.0636 -0.3360  0.0876
13972TIP3    H163407   2.893   4.932   2.622 -0.3986 -1.3116 -1.0734
13972TIP3    H263408   2.942   4.798   2.672  0.5027 -0.8275 -0.6318
13973TIP3   OH263409   4.480   3.289   1.920  0.0334  0.0316 -0.2960
13973TIP3    H163410   4.564   3.332   1.909  2.0099 -3.5840 -1.0279
13973TIP3    H263411   4.470   3.279   2.015  1.4654 -1.1701 -0.2331
13974TIP3   OH263412   4.016   1.442   4.602 -0.0193 -0.2557  0.7144
13974TIP3    H163413   3.980   1.529   4.585  0.8967 -0.1857 -1.0992
13974TIP3    H263414   4.019   1.400   4.516  0.7397 -1.6253  1.3752
13975TIP3   OH263415   6.270   3.464  11.383  0.3977 -0.3375  0.0042
13975TIP3    H163416   6.302   3.436  11.469  1.2938  0.6626  0.0186
13975TIP3    H263417   6.288   3.390  11.325 -1.2784 -1.4843  0.8784
13976TIP3   OH263418   0.166   1.076  11.198  0.3200 -0.1945  0.0580
13976TIP3    H163419   0.133   1.098  11.110 -2.0675 -2.2794  0.3287
13976TIP3    H263420   0.209   0.991  11.187  1.5993  0.3613  0.6113
13977TIP3   OH263421   4.343   3.501   0.024  0.1235 -0.3818 -0.1912
13977TIP3    H163422   4.436   3.498   0.003  0.1778  0.7392 -0.1748
13977TIP3    H263423   4.337   3.561   0.099 -0.8142  1.2874 -1.5309
13978TIP3   OH263424   3.816   1.403  14.100 -0.1616 -0.2096  0.5147
13978TIP3    H163425   3.895   1.418  14.048  1.0283 -0.1779  2.2400
13978TIP3    H263426   3.772   1.329  14.058  0.2745  0.3723 -1.0202
13979TIP3   OH263427   5.795   2.442   4.509  0.1891 -0.3683 -0.2155
13979TIP3    H163428   5.756   2.454   4.422  0.9581  0.9353 -0.4120
13979TIP3    H263429   5.732   2.388   4.556 -0.0171 -1.5131 -1.7233
13980TIP3   OH263430   4.228   3.949   0.924  0.0307 -0.5246 -0.2170
13980TIP3    H163431   4.213   3.886   0.853  1.5030 -0.5234 -0.5518
13980TIP3    H263432   4.250   3.895   1.000  1.5042 -0.4323 -0.5573
13981TIP3   OH263433   4.243   2.046  13.675 -0.0191 -0.3850 -0.2424
13981TIP3    H163434   4.209   2.093  13.752  0.3114  0.0491 -0.3534
13981TIP3    H263435   4.249   2.113  13.607 -2.5824 -1.2488 -1.4081
13982TIP3   OH263436   0.027   6.386  13.408  0.1962 -0.8049 -0.1735
13982TIP3    H163437   0.087   6.404  13.335 -0.3328 -0.7965 -0.6148
13982TIP3    H263438   0.084   6.362  13.481  0.8431  0.9206 -0.0741
13983TIP3   OH263439   5.777   3.968  13.457  0.4433 -0.3733  0.1166
13983TIP3    H163440   5.724   3.934  13.529 -0.4292 -2.4184 -1.4087
13983TIP3    H263441   5.760   4.063  13.459 -0.2379 -0.4852  2.0271
13984TIP3   OH263442   6.270   2.693   4.989  0.3944 -0.0529 -0.1642
13984TIP3    H163443   6.305   2.628   4.928 -0.4328 -1.0644  0.4153
13984TIP3    H263444   6.185   2.717   4.952 -0.3743 -1.1025  0.8655
13985TIP3   OH263445   0.639   5.519  16.397  0.5858 -0.1371  0.1257
13985TIP3    H163446   0.657   5.454  16.465  0.0536  0.2884  0.6804
13985TIP3    H263447   0.604   5.467  16.324 -1.0309 -0.3779  1.0191
13986TIP3   OH263448   0.102   4.276  13.998  0.3343 -0.4685  0.1355
13986TIP3    H163449   0.174   4.336  14.020 -0.8997  2.0635 -2.0625
13986TIP3    H263450   0.144   4.203  13.953  1.7706 -0.6251  1.6274
13987TIP3   OH263451   4.479   6.667  14.473  0.3663  0.0786  0.7908
13987TIP3    H163452   4.391   6.652  14.508  0.5138 -1.5998  0.4999
13987TIP3    H263453   4.483   6.762  14.459 -2.4267 -0.0516 -1.8488
13988TIP3   OH263454   6.769   2.276   0.298  0.2064  0.5182  0.3064
13988TIP3    H163455   6.845   2.254   0.352 -0.6628  0.2835  1.4843
13988TIP3    H263456   6.789   2.363   0.263  1.0505  0.4240  0.5236
13989TIP3   OH263457   0.864   4.189  12.363 -0.2953 -0.3975 -0.1942
13989TIP3    H163458   0.948   4.210  12.322 -1.6668 -0.1219 -3.1299
13989TIP3    H263459   0.866   4.094  12.374  0.9590 -0.2419  1.2557
13990TIP3   OH263460   6.469   0.840  16.474  0.1050 -0.1027 -0.3105
13990TIP3    H163461   6.444   0.770  16.535  1.6475 -0.7514 -0.3592
13990TIP3    H263462   6.520   0.901  16.528  1.4261 -0.6494 -0.8890
13991TIP3   OH263463   1.763   0.497  12.136 -0.6930 -1.1285 -0.4211
13991TIP3    H163464   1.810   0.453  12.207  0.9047 -0.8097 -1.2209
13991TIP3    H263465   1.791   0.450  12.057 -0.5133  0.0420 -1.0802
13992TIP3   OH263466   5.403   5.632  15.573  0.0156 -0.4842  0.1147
13992TIP3    H163467   5.493   5.623  15.603  0.5822  0.6274 -1.1356
13992TIP3    H263468   5.351   5.589  15.641  1.5321 -1.9879  0.4058
13993TIP3   OH263469   2.178   2.861   3.386 -0.0410 -0.2402 -0.0471
13993TIP3    H163470   2.229   2.823   3.315 -1.7191 -1.0497 -0.8758
13993TIP3    H263471   2.137   2.939   3.347 -1.9598 -1.3703 -0.4056
13994TIP3   OH263472   4.580   1.482   1.310 -1.1519  0.5281  0.0432
13994TIP3    H163473   4.629   1.561   1.287  0.8979 -0.6400  0.2525
13994TIP3    H263474   4.563   1.439   1.226  1.1074 -0.7017  0.1465
13995TIP3   OH263475   5.173   5.618   5.610 -0.0068  0.5764  0.7218
13995TIP3    H163476   5.160   5.569   5.691 -1.4303  0.6538  0.5650
13995TIP3    H263477   5.186   5.709   5.639 -2.7321  1.0215  0.8590
13996TIP3   OH263478   4.999   4.680   3.363 -0.4902 -0.4777 -1.0104
13996TIP3    H163479   5.052   4.628   3.423 -0.6082 -0.2716 -0.7246
13996TIP3    H263480   5.063   4.720   3.303 -0.2969 -0.0622 -0.5362
13997TIP3   OH263481   4.404   0.798  11.470  0.5276 -0.2256  0.1564
13997TIP3    H163482   4.379   0.774  11.560  1.4279  0.3298  0.5642
13997TIP3    H263483   4.487   0.754  11.456 -0.9271 -2.7177 -1.4753
13998TIP3   OH263484   4.450   5.245  15.188  0.3197  0.3471  0.2572
13998TIP3    H163485   4.372   5.241  15.243 -0.4453 -1.1549 -0.8750
13998TIP3    H263486   4.445   5.332  15.147 -0.2696  0.6130  0.8606
13999TIP3   OH263487   5.563   3.479  12.329 -0.2704 -0.1114 -0.2873
13999TIP3    H163488   5.519   3.420  12.391 -0.3040  1.5134  1.3103
13999TIP3    H263489   5.555   3.434  12.245 -1.6588 -1.6513  0.5845
14000TIP3   OH263490   2.683   5.517  12.338  0.0436 -0.6411 -0.2248
14000TIP3    H163491   2.721   5.587  12.391 -0.2144 -0.1904 -0.6280
14000TIP3    H263492   2.671   5.556  12.252 -0.7928 -0.9537 -0.2570
14001TIP3   OH263493   3.424   3.991  15.264 -0.6743  0.1117 -0.0743
14001TIP3    H163494   3.513   3.970  15.290 -0.8962  0.7294  1.2453
14001TIP3    H263495   3.431   4.013  15.171  0.4011 -0.6079 -0.1843
14002TIP3   OH263496   1.506   2.469  11.790 -0.0166  0.2176 -0.2744
14002TIP3    H163497   1.463   2.420  11.720 -0.6921 -1.5043  1.2513
14002TIP3    H263498   1.437   2.485  11.854 -0.1416  4.3768 -1.1941
14003TIP3   OH263499   6.510   4.320  12.629  0.2049  0.2534 -0.5799
14003TIP3    H163500   6.559   4.375  12.691 -1.1052 -0.3454  1.0777
14003TIP3    H263501   6.421   4.355  12.631  0.0789  0.0595 -1.9887
14004TIP3   OH263502   6.465   1.748  15.158 -0.1357  0.1912  0.0191
14004TIP3    H163503   6.490   1.660  15.131 -0.1275 -0.2829  1.4957
14004TIP3    H263504   6.380   1.737  15.200 -0.1514  0.8963  0.1894
14005TIP3   OH263505   6.624   0.334  15.468  0.1622  0.5668 -0.3421
14005TIP3    H163506   6.646   0.250  15.429  2.0842  1.3885 -1.1863
14005TIP3    H263507   6.611   0.315  15.561 -0.8555 -0.8501 -0.7470
14006TIP3   OH263508   0.391   3.155  13.797  0.0916  0.2194  0.1298
14006TIP3    H163509   0.305   3.176  13.833  0.5130 -0.2148  1.4295
14006TIP3    H263510   0.394   3.203  13.714 -0.7271  1.6413  0.8736
14007TIP3   OH263511   5.280   1.178  12.238 -0.3937  0.5828  0.1591
14007TIP3    H163512   5.230   1.234  12.178 -0.9425  0.9679  0.9685
14007TIP3    H263513   5.300   1.235  12.312  0.6686  0.2388  0.1534
14008TIP3   OH263514   5.773   2.305   0.815 -0.3182 -0.2802 -0.1596
14008TIP3    H163515   5.844   2.327   0.755  1.1110 -2.3260  0.6500
14008TIP3    H263516   5.795   2.351   0.896 -0.2530 -0.4030 -0.1065
14009TIP3   OH263517   6.753   6.807   0.607 -0.3114  0.2145 -0.2339
14009TIP3    H163518   6.738   6.738   0.671 -0.1790  0.9027  0.5460
14009TIP3    H263519   6.821   6.862   0.646 -0.7912  1.0922 -0.6043
14010TIP3   OH263520   0.257   4.276  15.976  0.5405  0.0288  0.0196
14010TIP3    H163521   0.166   4.246  15.976  0.2953  0.5572 -2.2598
14010TIP3    H263522   0.253   4.369  15.995  0.7193 -0.1591  1.0032
14011TIP3   OH263523   5.540   6.692   3.378  0.1712  0.0989 -0.5330
14011TIP3    H163524   5.499   6.609   3.403 -1.3826  1.1354  0.4976
14011TIP3    H263525   5.480   6.730   3.313 -0.7813  1.7754  1.2196
14012TIP3   OH263526   1.824   1.939   6.474  0.1200  0.3845 -0.2706
14012TIP3    H163527   1.795   1.878   6.408  0.9047  2.1973 -2.4197
14012TIP3    H263528   1.917   1.919   6.487 -0.0961 -0.1505  0.5385
14013TIP3   OH263529   5.907   2.250   5.459 -0.0300 -0.0787  0.0462
14013TIP3    H163530   5.947   2.285   5.379  0.1440 -1.6708 -0.5985
14013TIP3    H263531   5.871   2.166   5.432 -1.4070  0.0964  1.2836
14014TIP3   OH263532   1.315   4.871  12.975 -0.2366  0.0848  0.5640
14014TIP3    H163533   1.261   4.944  12.945  0.2507  1.2487  2.4130
14014TIP3    H263534   1.284   4.851  13.063  2.4607  1.0139  1.8465
14015TIP3   OH263535   0.832   5.614   6.635  0.0581  0.4231  0.0172
14015TIP3    H163536   0.751   5.632   6.587  0.9634  2.0501 -0.9847
14015TIP3    H263537   0.894   5.584   6.567  0.0433 -1.8818  0.9199
14016TIP3   OH263538   4.075   4.085   1.294 -0.2152 -0.3404  0.0887
14016TIP3    H163539   4.075   4.014   1.357 -1.9620 -2.6946 -2.3185
14016TIP3    H263540   4.134   4.055   1.224  0.3320  1.3651 -0.2187
14017TIP3   OH263541   4.026   0.384   4.351  0.0193  0.3979  0.1730
14017TIP3    H163542   4.019   0.315   4.284 -1.3861  0.4868  0.1953
14017TIP3    H263543   4.083   0.347   4.418 -0.3352 -0.5739 -0.0432
14018TIP3   OH263544   2.051   4.119  14.245  0.3094 -0.7753 -0.4677
14018TIP3    H163545   2.052   4.178  14.320 -0.8976 -0.9332 -0.3097
14018TIP3    H263546   2.019   4.173  14.173  0.1409 -0.9748 -0.5451
14019TIP3   OH263547   5.772   0.324   5.994  0.0665  0.4000 -0.6587
14019TIP3    H163548   5.732   0.296   5.912 -1.2007  0.6918 -0.1670
14019TIP3    H263549   5.723   0.278   6.062  1.6932 -0.5527 -0.0788
14020TIP3   OH263550   6.071   3.914  17.180  0.3082 -1.0326 -0.0768
14020TIP3    H163551   6.002   3.939  17.241 -0.0192 -2.5040  0.1977
14020TIP3    H263552   6.028   3.853  17.119  1.0296 -0.8747 -0.7616
14021TIP3   OH263553   1.179   0.775  14.482 -0.2062  0.7049 -0.1632
14021TIP3    H163554   1.211   0.836  14.549  0.3170  0.7521 -0.4499
14021TIP3    H263555   1.112   0.824  14.435 -1.0924  0.4264  0.7841
14022TIP3   OH263556   0.712   3.910  11.598  0.0561  0.2631  0.0116
14022TIP3    H163557   0.799   3.922  11.636  0.0351  0.4138  0.0121
14022TIP3    H263558   0.715   3.955  11.514  0.0546  0.0587 -0.1000
14023TIP3   OH263559   3.943   1.335  15.988 -0.0603 -0.3209  0.3237
14023TIP3    H163560   3.923   1.339  15.895  0.1979 -0.8282  0.2487
14023TIP3    H263561   3.890   1.262  16.021 -0.4561  0.1047  0.6518
14024TIP3   OH263562   3.126   6.801   5.944 -0.1122 -0.1493  0.0108
14024TIP3    H163563   3.189   6.755   5.999  1.8175  2.9661  0.6715
14024TIP3    H263564   3.146   6.774   5.855  0.7420 -0.8065  0.3919
14025TIP3   OH263565   1.329   1.934   1.705 -0.3470  0.3049  0.2139
14025TIP3    H163566   1.363   2.012   1.749  1.0077 -0.3092  0.2886
14025TIP3    H263567   1.349   1.948   1.613  2.9812 -1.3683  0.5424
14026TIP3   OH263568   3.030   3.021  15.447 -0.3550 -0.0331  0.3918
14026TIP3    H163569   2.989   2.955  15.392  1.5517 -1.2311  0.3201
14026TIP3    H263570   2.960   3.084  15.465 -2.2646 -2.0426  0.4693
14027TIP3   OH263571   5.216   4.475  12.600  0.0756 -0.2015  0.2508
14027TIP3    H163572   5.140   4.492  12.544 -0.5892 -0.3320  1.0970
14027TIP3    H263573   5.185   4.413  12.665  1.3805 -1.5885 -0.3907
14028TIP3   OH263574   4.415   2.990   5.396  0.1000  0.1636 -0.0585
14028TIP3    H163575   4.485   2.955   5.340 -0.1564  0.4088 -0.5402
14028TIP3    H263576   4.337   2.988   5.340 -0.6810 -1.7778  1.0402
14029TIP3   OH263577   0.249   3.466   5.249  0.2879 -0.5722  0.3714
14029TIP3    H163578   0.197   3.404   5.300 -1.9944 -0.4125 -1.5669
14029TIP3    H263579   0.229   3.444   5.158  2.3726  0.6241 -0.4419
14030TIP3   OH263580   6.592   2.203   2.948 -0.0766  0.1196  0.4776
14030TIP3    H163581   6.664   2.216   2.886 -1.5979  2.6541 -0.9042
14030TIP3    H263582   6.598   2.276   3.009 -2.5357  1.5659 -0.8580
14031TIP3   OH263583   1.014   3.231   1.612 -0.1218 -0.8301 -0.3316
14031TIP3    H163584   1.016   3.326   1.617  0.9444 -0.9205  3.3500
14031TIP3    H263585   1.093   3.208   1.562  0.0123  0.1613 -0.5927
14032TIP3   OH263586   5.969   3.556   6.572  0.2759  0.8506 -0.5889
14032TIP3    H163587   6.009   3.561   6.658 -0.0767 -1.7886 -0.1874
14032TIP3    H263588   5.992   3.639   6.529  1.0810  1.8951  1.7388
14033TIP3   OH263589   3.628   4.278  10.722 -0.0718  0.2450 -0.6584
14033TIP3    H163590   3.698   4.319  10.672  0.0033  0.8848 -0.0409
14033TIP3    H263591   3.643   4.184  10.711 -0.2579  0.3643 -2.1036
14034TIP3   OH263592   4.832   3.466  13.998 -0.1452  0.4128  0.6045
14034TIP3    H163593   4.870   3.553  13.986 -1.2223  0.7048 -0.9695
14034TIP3    H263594   4.800   3.467  14.088  3.4103  0.1410  2.0430
14035TIP3   OH263595   1.441   5.696   2.468  0.1891  0.4644  0.9782
14035TIP3    H163596   1.510   5.721   2.530  0.2045  0.8496  0.8047
14035TIP3    H263597   1.466   5.738   2.386 -0.7579  1.4016  1.1556
14036TIP3   OH263598   1.980   3.989   5.607 -0.0547  0.3092 -0.6714
14036TIP3    H163599   1.959   4.029   5.692  1.5135  1.1162 -0.6404
14036TIP3    H263600   2.051   3.928   5.626  0.0025  0.1663 -1.3381
14037TIP3   OH263601   0.673   4.683   2.828 -0.0905 -0.4202 -0.1445
14037TIP3    H163602   0.682   4.691   2.923 -1.6292 -0.7536  0.0496
14037TIP3    H263603   0.747   4.732   2.793  0.9437 -0.9399  1.2278
14038TIP3   OH263604   5.089   3.821  13.365 -0.2082  0.4163  0.4308
14038TIP3    H163605   5.153   3.755  13.393 -0.1372  0.5825  0.6726
14038TIP3    H263606   5.006   3.774  13.362 -0.2780  0.4617  1.2599
14039TIP3   OH263607   0.062   5.991   0.119 -0.2938 -0.0646 -1.0818
14039TIP3    H163608  -0.017   6.013   0.170  0.3498 -0.1558 -0.0185
14039TIP3    H263609   0.052   5.897   0.100  0.1475 -0.3927  0.1739
14040TIP3   OH263610   4.303   5.029  12.568 -0.0688  0.0302 -0.5062
14040TIP3    H163611   4.357   5.104  12.543  0.4521  0.8423  2.6560
14040TIP3    H263612   4.213   5.062  12.560  0.0851  0.4073 -0.7482
14041TIP3   OH263613   3.570   0.550  11.466 -0.4071  0.5384 -0.1300
14041TIP3    H163614   3.659   0.527  11.440 -0.2165  0.7714  0.3099
14041TIP3    H263615   3.519   0.544  11.385  0.5712  3.3800 -1.0557
14042TIP3   OH263616   6.416   2.159  13.080  0.8533  0.5303  0.0115
14042TIP3    H163617   6.492   2.192  13.128  0.0737 -0.5968  2.1777
14042TIP3    H263618   6.385   2.085  13.133 -0.7316 -0.1193 -1.7169
14043TIP3   OH263619   4.856   1.876   3.921 -0.3271 -0.4073  0.1389
14043TIP3    H163620   4.877   1.829   4.001 -1.3752  1.3047  1.5164
14043TIP3    H263621   4.828   1.963   3.951 -1.2134  0.1484 -2.0573
14044TIP3   OH263622   3.230   2.610   0.293 -0.6665 -0.2134 -0.0210
14044TIP3    H163623   3.188   2.625   0.378 -0.7732 -0.6475  0.0038
14044TIP3    H263624   3.206   2.687   0.241  0.1708  0.5267  0.6344
14045TIP3   OH263625   5.114   1.174  10.534 -0.0667 -0.1941 -0.5204
14045TIP3    H163626   5.036   1.211  10.574  0.4417  0.9198 -0.5166
14045TIP3    H263627   5.115   1.210  10.445  0.9808  0.6434 -0.1898
14046TIP3   OH263628   1.186   0.705  12.869 -0.5845 -0.7930 -0.0421
14046TIP3    H163629   1.163   0.619  12.834 -0.5699 -0.7696 -0.1077
14046TIP3    H263630   1.264   0.732  12.821 -0.2838 -0.9721  0.3419
14047TIP3   OH263631   4.162   0.162  15.386 -0.4513  0.3799  0.2660
14047TIP3    H163632   4.144   0.152  15.479 -0.0720 -0.6588  0.2345
14047TIP3    H263633   4.240   0.109  15.370 -1.2957 -0.5540 -0.9078
14048TIP3   OH263634   2.387   1.226  15.830  0.2914  0.0318  0.4162
14048TIP3    H163635   2.348   1.148  15.789 -2.4052  0.8472  1.2464
14048TIP3    H263636   2.424   1.193  15.912  0.1566 -0.5490  0.2529
14049TIP3   OH263637   2.004   4.186   0.468 -0.2607  0.2240 -0.1077
14049TIP3    H163638   2.082   4.161   0.418 -0.9821 -0.6151 -0.8506
14049TIP3    H263639   1.976   4.269   0.430 -1.2184 -0.7535 -1.6383
14050TIP3   OH263640   3.545   4.488  11.504 -0.3480 -0.0295 -0.9084
14050TIP3    H163641   3.483   4.420  11.529  1.0961 -0.8206  0.7593
14050TIP3    H263642   3.498   4.570  11.520 -1.2015 -0.5967 -0.4154
14051TIP3   OH263643   1.596   0.083   2.907  0.1534  0.0055  0.4398
14051TIP3    H163644   1.528   0.068   2.842 -0.9452  0.2506  1.4800
14051TIP3    H263645   1.613   0.177   2.902  0.2228 -0.0120  0.3538
14052TIP3   OH263646   5.973   3.986   0.438  0.3322 -0.2069  0.4333
14052TIP3    H163647   6.063   4.007   0.413 -0.0970 -0.8560 -1.9427
14052TIP3    H263648   5.969   3.891   0.437 -0.7956 -0.1981 -1.4570
14053TIP3   OH263649   3.216   0.223  13.489 -0.4032 -0.1592  0.8000
14053TIP3    H163650   3.243   0.291  13.427 -0.7571  0.1417  0.9776
14053TIP3    H263651   3.238   0.141  13.444 -2.1951 -0.0025 -0.4629
14054TIP3   OH263652   1.570   6.192  17.170  0.1223  0.3434  0.1918
14054TIP3    H163653   1.550   6.162  17.082  0.4947 -1.1650  0.5991
14054TIP3    H263654   1.656   6.233  17.163  0.9097 -1.2401  0.1231
14055TIP3   OH263655   1.472   0.540   1.257 -0.5740  0.4046  0.3566
14055TIP3    H163656   1.486   0.633   1.236 -0.3226  0.1438 -0.6855
14055TIP3    H263657   1.557   0.510   1.289 -0.1908  0.1329 -0.8886
14056TIP3   OH263658   5.081   2.602   4.153  0.1569 -0.0299 -0.9783
14056TIP3    H163659   5.065   2.683   4.201 -0.0173 -0.8859  0.4643
14056TIP3    H263660   4.995   2.562   4.144  0.5211 -1.2806  0.6285
14057TIP3   OH263661   0.802   4.460  12.333  0.6036 -0.0492 -0.1487
14057TIP3    H163662   0.730   4.501  12.381 -1.5394 -1.0818 -2.2877
14057TIP3    H263663   0.833   4.391  12.391  2.1121  2.3773  2.1424
14058TIP3   OH263664   6.267   3.400   3.965 -0.1852  0.2645 -0.2057
14058TIP3    H163665   6.197   3.443   3.915  0.8431  2.5468  0.1800
14058TIP3    H263666   6.331   3.372   3.900 -0.4407  0.1162 -0.3952
14059TIP3   OH263667   6.628   0.194  12.370 -0.2192  0.3891 -0.1060
14059TIP3    H163668   6.652   0.222  12.458 -2.7343  1.4591  0.3081
14059TIP3    H263669   6.633   0.099  12.373 -0.2826  0.4130  1.1863
14060TIP3   OH263670   1.251   2.113   4.931 -0.4017  0.2866 -0.5945
14060TIP3    H163671   1.183   2.045   4.930 -0.0247 -0.1073 -0.1243
14060TIP3    H263672   1.300   2.099   4.851  2.2498 -2.6920  1.2815
14061TIP3   OH263673   3.644   0.092  10.788 -0.2824  0.0324  0.1151
14061TIP3    H163674   3.655   0.139  10.706 -0.5670 -0.8707 -0.4515
14061TIP3    H263675   3.648  -0.001  10.764 -0.0330 -0.2498  1.1642
14062TIP3   OH263676   4.676   6.376   1.008  0.0968  0.5652 -0.4776
14062TIP3    H163677   4.724   6.458   1.008 -0.2387  0.7659 -0.9375
14062TIP3    H263678   4.593   6.396   1.051  0.0855  0.4210 -0.4289
14063TIP3   OH263679   0.635   5.564  15.989  0.0036  0.0430 -0.1156
14063TIP3    H163680   0.619   5.631  16.056  0.5104  0.9009 -0.8362
14063TIP3    H263681   0.710   5.515  16.022  0.2592  0.4710 -0.0568
14064TIP3   OH263682   4.664   6.587  17.212  0.8509  0.4202  0.3852
14064TIP3    H163683   4.599   6.635  17.264 -0.6750  0.0718 -1.1206
14064TIP3    H263684   4.678   6.505  17.261 -2.9864 -1.3954 -1.1530
14065TIP3   OH263685   0.709   5.898  16.303 -0.2917 -0.2567 -0.1605
14065TIP3    H163686   0.635   5.873  16.358  2.0799 -2.7207  2.1910
14065TIP3    H263687   0.738   5.982  16.337 -1.9523  0.7804 -1.1670
14066TIP3   OH263688   1.842   3.886   3.130  0.1158  0.2034 -0.0761
14066TIP3    H163689   1.793   3.808   3.106  0.0417  0.5116 -0.9742
14066TIP3    H263690   1.931   3.854   3.147  0.1698 -0.0395 -0.7725
14067TIP3   OH263691   2.287   1.453   1.653  0.2539 -0.7584 -0.8893
14067TIP3    H163692   2.282   1.389   1.582  0.2140 -0.6992 -0.9397
14067TIP3    H263693   2.220   1.518   1.632  1.4421  0.2473 -1.7843
14068TIP3   OH263694   5.015   1.270  14.111 -0.0140 -1.0123 -0.5169
14068TIP3    H163695   5.095   1.261  14.163  0.3468  0.7564 -0.6925
14068TIP3    H263696   5.023   1.204  14.042  0.8645 -1.4589 -0.0064
14069TIP3   OH263697   1.752   6.068  15.336  0.2197  0.5349  0.3391
14069TIP3    H163698   1.814   5.996  15.344 -0.4581  0.1432  2.7025
14069TIP3    H263699   1.733   6.094  15.426 -3.3216  0.3275 -0.1934
14070TIP3   OH263700   4.054   6.386   0.529  0.2758  0.1628  0.4212
14070TIP3    H163701   4.037   6.365   0.620  1.7570  1.0792  0.9378
14070TIP3    H263702   4.007   6.469   0.515  2.2747  1.4941  1.1949
14071TIP3   OH263703   4.900   0.965  11.450 -0.4839  0.2677 -0.1653
14071TIP3    H163704   4.842   1.029  11.408  0.1540  0.2625 -1.0695
14071TIP3    H263705   4.971   0.953  11.388 -1.4794 -2.6830 -0.8992
14072TIP3   OH263706   1.885   0.377  12.334  0.0114 -0.5467  0.1069
14072TIP3    H163707   1.913   0.420  12.415 -0.3401  1.2236 -0.6659
14072TIP3    H263708   1.955   0.315  12.315  0.4752 -0.4321  1.3500
14073TIP3   OH263709   5.996   3.032   1.822 -0.4169  0.5243 -0.0363
14073TIP3    H163710   5.984   3.127   1.822  3.4791  1.1827 -0.4262
14073TIP3    H263711   6.086   3.019   1.794 -0.5775 -3.3143  0.6504
14074TIP3   OH263712   3.353   5.035  15.716 -0.2273  0.2354  0.0147
14074TIP3    H163713   3.407   5.006  15.643 -0.2973 -0.1128  0.0998
14074TIP3    H263714   3.273   4.983  15.709  0.3367 -0.8371  1.1596
14075TIP3   OH263715   0.522   0.753  14.231  0.2216 -0.9702 -0.2226
14075TIP3    H163716   0.492   0.826  14.285  1.6309 -0.6683  0.1985
14075TIP3    H263717   0.609   0.733  14.265  0.1510 -2.3735 -0.8167
14076TIP3   OH263718   0.901   1.376  12.343 -0.0350 -0.3843  0.0003
14076TIP3    H163719   0.812   1.390  12.310  0.5052 -1.1551 -1.9659
14076TIP3    H263720   0.956   1.374  12.264  1.5341 -1.2728  1.0530
14077TIP3   OH263721   1.964   3.720  14.764 -0.0155 -0.3978 -0.2630
14077TIP3    H163722   2.007   3.765  14.691  1.5504 -1.1983  0.1166
14077TIP3    H263723   1.887   3.679  14.724  0.5259 -0.3875 -1.3752
14078TIP3   OH263724   0.825   1.686   4.745 -0.3175 -0.3148  0.1831
14078TIP3    H163725   0.876   1.655   4.670 -1.1286  0.9383 -0.9459
14078TIP3    H263726   0.844   1.780   4.748 -1.5857 -0.0558  0.5065
14079TIP3   OH263727   5.041   0.160  11.982 -0.4975  0.3801 -1.0566
14079TIP3    H163728   5.087   0.083  12.013 -0.2209  1.3473  1.1424
14079TIP3    H263729   5.055   0.226  12.051 -2.9351  1.5517 -1.5677
14080TIP3   OH263730   2.826   1.241  10.649  0.4844 -0.6698  0.4207
14080TIP3    H163731   2.828   1.326  10.605 -0.9362 -0.5470  0.5475
14080TIP3    H263732   2.856   1.179  10.582  1.2913 -0.1114  0.2516
14081TIP3   OH263733   6.015   2.972  12.714 -0.3814  0.1609  0.4306
14081TIP3    H163734   6.059   3.057  12.705  2.4111 -1.0867  1.2436
14081TIP3    H263735   6.044   2.922  12.638  0.1282 -0.9094  1.3048
14082TIP3   OH263736   3.095   1.334  13.492  0.2927 -0.4762  0.5573
14082TIP3    H163737   3.039   1.289  13.555 -0.3891  1.4698  1.4356
14082TIP3    H263738   3.159   1.268  13.465 -0.8969 -2.0599  1.4151
14083TIP3   OH263739   2.618   4.678   3.490 -0.7566 -0.7550 -0.1931
14083TIP3    H163740   2.591   4.642   3.406 -2.2727  3.5250 -1.7692
14083TIP3    H263741   2.561   4.635   3.554 -1.4748 -2.0992 -1.6615
14084TIP3   OH263742   0.960   4.776  14.093  0.4914 -0.4968 -0.0825
14084TIP3    H163743   1.017   4.852  14.108 -0.0611 -0.4278  2.0446
14084TIP3    H263744   0.874   4.813  14.075  0.3808 -0.6057  0.2131
14085TIP3   OH263745   0.057   2.028  13.818 -0.2966  0.0019  0.5791
14085TIP3    H163746   0.107   2.008  13.897  1.7583  1.3575 -0.3111
14085TIP3    H263747  -0.005   2.095  13.845  0.2883  0.3458  1.0727
14086TIP3   OH263748   5.511   3.084  11.871 -0.5085 -0.8942  0.2064
14086TIP3    H163749   5.574   3.058  11.938 -0.3352  1.6054  1.1443
14086TIP3    H263750   5.454   3.009  11.860  2.3828 -3.1870 -0.4604
14087TIP3   OH263751   5.123   0.222   4.987  0.0717  0.2595  0.2571
14087TIP3    H163752   5.058   0.237   5.056  0.2651 -0.1977  0.5391
14087TIP3    H263753   5.206   0.216   5.033  0.2996  0.6979 -0.0913
14088TIP3   OH263754   5.813   6.104  15.843 -0.7517 -0.3779  0.1238
14088TIP3    H163755   5.748   6.077  15.908 -0.5193 -1.9696 -0.2658
14088TIP3    H263756   5.896   6.073  15.878 -0.4421  0.0188 -0.2593
14089TIP3   OH263757   3.890   3.142   3.880  0.7618 -0.2268  0.2861
14089TIP3    H163758   3.817   3.132   3.941 -0.1050 -0.2262 -0.7310
14089TIP3    H263759   3.908   3.236   3.879  0.0515 -0.0943 -0.2858
14090TIP3   OH263760   5.406   0.039   4.699  0.3263 -0.4690 -0.0393
14090TIP3    H163761   5.433  -0.047   4.731 -0.6777 -0.2423  1.5497
14090TIP3    H263762   5.311   0.039   4.710  0.4685  1.4798  1.7532
14091TIP3   OH263763   0.953   3.921   3.623 -0.5631  0.6880  0.3466
14091TIP3    H163764   1.031   3.867   3.608 -0.5626  1.0406 -1.0134
14091TIP3    H263765   0.988   4.008   3.642 -0.6304  1.0581 -1.1734
14092TIP3   OH263766   6.574   4.403  11.571  0.6455 -0.4706 -0.4860
14092TIP3    H163767   6.569   4.452  11.489  2.9287 -1.1514 -1.1083
14092TIP3    H263768   6.666   4.408  11.596  0.1988 -1.2179  1.4717
14093TIP3   OH263769   3.009   6.689  16.292  0.2853  0.1620  0.0299
14093TIP3    H163770   3.068   6.718  16.361  0.9129 -2.8034  0.8860
14093TIP3    H263771   3.061   6.695  16.211  1.2049 -0.7178  0.5273
14094TIP3   OH263772   5.381   6.442   5.491 -0.1159 -0.1261  0.4805
14094TIP3    H163773   5.327   6.454   5.413  1.0258 -0.1627 -0.3406
14094TIP3    H263774   5.471   6.440   5.458  0.3924 -0.1324  1.8035
14095TIP3   OH263775   5.041   1.871   2.269  0.0676  0.3922  0.2787
14095TIP3    H163776   5.021   1.961   2.243  0.4479  0.3466 -0.1796
14095TIP3    H263777   5.054   1.877   2.364  1.0730  1.0160  0.1253
14096TIP3   OH263778   2.002   6.304  16.955 -0.4700  0.0929  0.0886
14096TIP3    H163779   2.023   6.211  16.969 -0.7888  0.0373  0.2032
14096TIP3    H263780   1.930   6.303  16.892  0.5404  0.3210 -1.1139
14097TIP3   OH263781   3.787   2.215   1.582 -0.1067 -0.6334 -0.0900
14097TIP3    H163782   3.704   2.168   1.574 -0.7203  0.0687  1.5543
14097TIP3    H263783   3.829   2.176   1.659 -0.3664  1.0537  0.9656
14098TIP3   OH263784   0.129   0.593   1.572  0.4442 -0.3857  0.4370
14098TIP3    H163785   0.154   0.521   1.629 -2.4418 -2.3146 -0.5008
14098TIP3    H263786   0.167   0.571   1.487  2.0608  0.8367  0.7920
14099TIP3   OH263787   6.207   6.418  16.224  0.2141 -0.0075 -0.2913
14099TIP3    H163788   6.197   6.334  16.268 -1.0610 -0.3976 -1.2330
14099TIP3    H263789   6.275   6.403  16.158  1.3041  0.2493  0.7571
14100TIP3   OH263790   6.677   5.893  16.641  0.7062  0.3656  0.2991
14100TIP3    H163791   6.632   5.838  16.706  2.2071  1.3117  2.2640
14100TIP3    H263792   6.762   5.851  16.629  1.0678  1.0973  0.2290
14101TIP3   OH263793   1.868   6.023  13.206 -0.1518 -0.0683 -0.5858
14101TIP3    H163794   1.956   5.983  13.205  0.3080  0.9206 -0.9223
14101TIP3    H263795   1.883   6.113  13.234 -0.8873  0.4934 -1.9129
14102TIP3   OH263796   5.377   4.351   0.397 -0.5418  0.5410 -0.0019
14102TIP3    H163797   5.451   4.343   0.457  1.0776 -1.5803 -2.1164
14102TIP3    H263798   5.300   4.336   0.452  0.8779 -1.6238  1.5585
14103TIP3   OH263799   5.413   1.013  15.019 -0.0816 -0.5287 -0.0187
14103TIP3    H163800   5.473   1.024  14.945  0.6381 -0.0975  0.6093
14103TIP3    H263801   5.393   1.102  15.047  0.8090 -0.6783  1.1965
14104TIP3   OH263802   5.320   4.878   4.589 -0.6473  0.0905  0.1774
14104TIP3    H163803   5.302   4.964   4.629 -0.5236  0.7688 -1.1683
14104TIP3    H263804   5.410   4.859   4.614 -0.4865  0.6307  0.0373
14105TIP3   OH263805   2.195   6.107  11.888  0.7442 -0.1566  0.1177
14105TIP3    H163806   2.111   6.116  11.934  1.0149 -0.3879  0.6546
14105TIP3    H263807   2.182   6.032  11.829 -0.7661  2.1321 -2.7475
14106TIP3   OH263808   4.769   2.082   2.652  0.0939 -0.7392  0.1731
14106TIP3    H163809   4.759   2.039   2.567  1.5538 -1.7889  0.4955
14106TIP3    H263810   4.785   2.173   2.631  1.4209 -1.1635 -0.7469
14107TIP3   OH263811   6.085   1.616  13.368  0.5957  0.8394 -0.2604
14107TIP3    H163812   6.060   1.539  13.317 -0.4896  0.2790  1.0568
14107TIP3    H263813   6.147   1.583  13.433  0.4404  1.1579  0.0520
14108TIP3   OH263814   1.787   4.498  11.745 -0.0491 -0.2107 -0.2237
14108TIP3    H163815   1.826   4.417  11.779 -0.6508 -0.3077  0.2444
14108TIP3    H263816   1.725   4.468  11.679  1.2823 -0.0138 -1.6288
14109TIP3   OH263817   5.236   0.996   5.096  0.5494 -0.4124 -0.2245
14109TIP3    H163818   5.206   0.906   5.112  0.9378 -0.7506 -1.3066
14109TIP3    H263819   5.194   1.048   5.165 -0.0425 -1.3503  0.1436
14110TIP3   OH263820   1.889   4.467   1.824  0.4198 -0.0305 -0.6047
14110TIP3    H163821   1.960   4.457   1.760  1.5377  0.9746  0.4202
14110TIP3    H263822   1.809   4.450   1.774  1.3102 -0.0906 -2.0699
14111TIP3   OH263823   4.173   0.748  16.910 -0.2550  0.3344 -0.1190
14111TIP3    H163824   4.263   0.763  16.880  0.8129 -1.0471  2.1587
14111TIP3    H263825   4.129   0.709  16.834  1.4306 -0.1720 -0.8788
14112TIP3   OH263826   2.585   3.867  14.479  0.5838 -0.0562  0.1599
14112TIP3    H163827   2.619   3.786  14.442 -1.0801 -1.1995  0.9998
14112TIP3    H263828   2.602   3.861  14.573 -1.2591 -0.4014  0.5227
14113TIP3   OH263829   1.954   5.024  16.402 -0.4190  0.5176  0.0077
14113TIP3    H163830   2.015   4.956  16.373  1.3746  2.0318  0.0228
14113TIP3    H263831   1.892   5.033  16.330  1.2941  1.1018 -1.4864
14114TIP3   OH263832   1.208   4.497   3.929  0.0199 -0.2104  0.5917
14114TIP3    H163833   1.294   4.462   3.951  0.4370  1.2909  1.5593
14114TIP3    H263834   1.149   4.461   3.996  0.4394  0.8285  1.5613
14115TIP3   OH263835   1.399   0.819  14.051 -0.1354  0.2976 -0.3908
14115TIP3    H163836   1.391   0.757  14.124 -1.1238  0.7588 -0.1026
14115TIP3    H263837   1.487   0.857  14.062 -0.4666  0.7486  0.8756
14116TIP3   OH263838   0.557   5.630  13.413 -0.1366  0.1543  0.1419
14116TIP3    H163839   0.554   5.600  13.323 -1.3193 -0.1193  0.2438
14116TIP3    H263840   0.566   5.549  13.465 -1.1074  0.1409  0.3197
14117TIP3   OH263841   0.996   4.154   6.553 -0.1965 -0.2309  0.2007
14117TIP3    H163842   0.909   4.124   6.581 -0.0537 -0.4032  0.4640
14117TIP3    H263843   1.018   4.223   6.615 -0.3462  0.1364 -0.1528
14118TIP3   OH263844   1.135   1.822   0.905 -0.1123  0.3142  0.2805
14118TIP3    H163845   1.062   1.774   0.867  0.6334 -0.8236  0.2606
14118TIP3    H263846   1.096   1.906   0.932 -1.6593 -0.6382  1.1943
14119TIP3   OH263847   6.311   4.885  14.821  0.4791  0.3934 -0.5912
14119TIP3    H163848   6.401   4.908  14.800  0.2745  0.8272 -1.0274
14119TIP3    H263849   6.282   4.832  14.746  0.5138 -0.1355 -0.2360
14120TIP3   OH263850   3.350   5.871  14.997 -0.0018 -0.3071  0.2001
14120TIP3    H163851   3.317   5.927  14.926 -0.3767 -0.7599  0.0163
14120TIP3    H263852   3.340   5.925  15.076 -2.2150 -0.8030  0.3221
14121TIP3   OH263853   5.819   2.231  13.447 -0.0990 -0.1398 -0.0680
14121TIP3    H163854   5.791   2.314  13.407  0.5662  0.8429  1.4266
14121TIP3    H263855   5.793   2.164  13.384 -1.8513  1.0934 -0.7262
14122TIP3   OH263856   2.991   0.193   1.514  0.5871 -0.3189 -0.2895
14122TIP3    H163857   2.944   0.189   1.598  1.3238 -1.6177  0.1035
14122TIP3    H263858   2.946   0.129   1.459 -0.6978  1.4353 -1.3666
14123TIP3   OH263859   4.190   2.813   4.186 -0.3182 -0.2040 -0.0314
14123TIP3    H163860   4.283   2.790   4.182 -0.5722 -1.1153 -1.0387
14123TIP3    H263861   4.182   2.890   4.130 -0.1433 -0.0090  0.2085
14124TIP3   OH263862   2.001   6.398  11.203  0.4146  0.2763 -0.6178
14124TIP3    H163863   2.020   6.311  11.167  0.6942 -0.1949  0.6515
14124TIP3    H263864   1.922   6.427  11.155 -0.2254 -1.0640 -0.4068
14125TIP3   OH263865   5.437   3.398   4.187  0.1628 -0.2014 -0.0553
14125TIP3    H163866   5.386   3.442   4.256  1.9039  0.4202  0.9290
14125TIP3    H263867   5.464   3.315   4.226  0.6622 -0.1149 -0.2110
14126TIP3   OH263868   3.027   2.575  12.965 -0.1267 -0.3552  0.7402
14126TIP3    H163869   3.039   2.559  12.872 -2.1898 -2.3477  0.7361
14126TIP3    H263870   2.981   2.658  12.970  1.4107  0.5788  0.1300
14127TIP3   OH263871   1.536   0.349   1.082  0.0596 -0.0996  0.0465
14127TIP3    H163872   1.491   0.413   1.137 -0.3749 -1.0907  0.8835
14127TIP3    H263873   1.468   0.289   1.054  0.6399 -0.8760  0.2620
14128TIP3   OH263874   1.356   5.583  14.469  0.0510 -0.0127  0.0627
14128TIP3    H163875   1.402   5.509  14.429 -0.6186 -0.2611 -0.2683
14128TIP3    H263876   1.419   5.621  14.530  0.6898 -0.3461 -0.3766
14129TIP3   OH263877   6.145   6.369  13.856 -0.1989  0.3036  0.3838
14129TIP3    H163878   6.121   6.296  13.913 -0.3387 -1.6967 -2.0145
14129TIP3    H263879   6.072   6.430  13.862 -2.2531 -1.8463 -0.6855
14130TIP3   OH263880   5.066   4.069   6.114 -0.2853  0.5016 -0.3260
14130TIP3    H163881   5.155   4.101   6.130 -0.6475  0.6062  1.7664
14130TIP3    H263882   5.050   4.089   6.022  2.3155 -0.6904 -1.1593
14131TIP3   OH263883   4.161   2.960   4.888  0.6105  0.1423  0.0233
14131TIP3    H163884   4.135   2.922   4.804 -2.0790 -0.2104  0.9202
14131TIP3    H263885   4.147   3.054   4.877  0.4035  0.1108  0.0048
14132TIP3   OH263886   5.539   4.134  13.609  0.0162 -0.4828  0.2505
14132TIP3    H163887   5.487   4.081  13.549  0.9416 -1.5669  0.3790
14132TIP3    H263888   5.540   4.085  13.691  2.0413 -1.0117 -0.0351
14133TIP3   OH263889   2.140   4.088   1.192 -0.1381  0.0173 -0.3183
14133TIP3    H163890   2.081   4.028   1.147  0.5475 -0.2410 -0.8782
14133TIP3    H263891   2.193   4.126   1.123  0.9809 -0.4386  0.2700
14134TIP3   OH263892   0.279   4.290  14.402 -0.2481 -0.3834  0.8222
14134TIP3    H163893   0.305   4.381  14.420  1.9532 -0.8199  0.2340
14134TIP3    H263894   0.359   4.250  14.367 -2.0074 -1.7305 -1.9331
14135TIP3   OH263895   6.447   1.556  12.031 -0.1273 -0.2000 -0.7122
14135TIP3    H163896   6.394   1.491  12.078 -2.4073  0.5951 -2.0240
14135TIP3    H263897   6.537   1.536  12.056 -0.9676 -2.0206  1.1714
14136TIP3   OH263898   5.992   1.587  14.766 -0.0996 -0.5424  0.4383
14136TIP3    H163899   5.943   1.669  14.771  0.3906 -0.1135 -1.1433
14136TIP3    H263900   6.083   1.614  14.751  0.1298 -1.3662  0.2837
14137TIP3   OH263901   1.582   4.062  12.178  0.3657 -0.1595  0.3468
14137TIP3    H163902   1.672   4.095  12.172  0.5859 -0.9830 -3.0801
14137TIP3    H263903   1.592   3.967  12.188 -0.1188 -0.2067  0.4040
14138TIP3   OH263904   4.113   1.738  10.938 -0.1601  0.0658  0.0968
14138TIP3    H163905   4.180   1.783  10.887 -0.6736 -0.0796 -0.7329
14138TIP3    H263906   4.121   1.774  11.027  1.0265  0.0155  0.0208
14139TIP3   OH263907   5.912   3.646  14.401  0.1246 -0.1713 -0.4024
14139TIP3    H163908   5.912   3.733  14.440 -1.5119 -0.8271  1.1869
14139TIP3    H263909   5.943   3.588  14.470 -1.4199 -1.1748 -0.5075
14140TIP3   OH263910   1.101   5.652  16.547 -0.0737  0.1428  0.3279
14140TIP3    H163911   1.018   5.661  16.500  0.0383  0.4165  0.1757
14140TIP3    H263912   1.080   5.601  16.625 -0.5207  0.7956  0.6423
14141TIP3   OH263913   5.358   4.255   5.517  0.4421  0.3382  0.1325
14141TIP3    H163914   5.296   4.198   5.472 -1.7782  2.6639  0.0281
14141TIP3    H263915   5.422   4.278   5.450  2.2611 -2.9547  0.5077
14142TIP3   OH263916   0.367   4.480  13.762  0.3179 -0.1142 -1.2866
14142TIP3    H163917   0.329   4.410  13.709 -0.2074 -0.7692 -0.0777
14142TIP3    H263918   0.292   4.534  13.787  0.3860 -0.4564 -0.2920
14143TIP3   OH263919   0.079   4.112  15.721  0.3060 -0.4876 -0.3347
14143TIP3    H163920   0.060   4.136  15.811  0.3737 -1.2723 -0.1058
14143TIP3    H263921   0.111   4.022  15.726  1.4091 -0.1583 -1.0165
14144TIP3   OH263922   1.980   3.857  10.280 -0.3444  0.4075  0.0125
14144TIP3    H163923   1.918   3.789  10.308  2.1541 -1.4009  1.5938
14144TIP3    H263924   1.926   3.936  10.271 -3.2407 -1.5444 -1.0890
14145TIP3   OH263925   4.905   4.825   4.384 -0.1200  0.3864 -0.0573
14145TIP3    H163926   4.967   4.898   4.386 -1.3757  1.4702  0.0794
14145TIP3    H263927   4.960   4.748   4.401  1.0065  1.4478  1.4360
14146TIP3   OH263928   6.172   5.365  14.621  0.1283  0.3335 -0.0426
14146TIP3    H163929   6.113   5.440  14.633  0.6100  0.8093 -0.5613
14146TIP3    H263930   6.129   5.310  14.556  0.1582  0.5783 -0.2712
14147TIP3   OH263931   2.951   1.276   3.404  0.0219  0.2274  0.1037
14147TIP3    H163932   2.899   1.215   3.351 -1.3784  1.0501  0.4662
14147TIP3    H263933   2.886   1.335   3.443  1.2692  1.5504  0.2749
14148TIP3   OH263934   0.619   3.641  13.865 -0.1127 -0.3986 -0.1941
14148TIP3    H163935   0.560   3.679  13.801  1.5517  1.0287 -0.9623
14148TIP3    H263936   0.593   3.549  13.869 -3.5990  0.4848  0.9813
14149TIP3   OH263937   1.847   3.281  16.688  0.2179 -0.2430  0.5530
14149TIP3    H163938   1.939   3.255  16.693  0.4575  0.5873  0.5110
14149TIP3    H263939   1.841   3.331  16.607 -0.7708 -2.2224 -0.6900
14150TIP3   OH263940   3.115   0.746  16.985 -0.1770  0.1437  0.1600
14150TIP3    H163941   3.113   0.836  16.953  1.6301 -0.1312 -0.8948
14150TIP3    H263942   3.199   0.740  17.031  0.1854 -1.2375 -0.6303
14151TIP3   OH263943   1.043   3.915  14.224  0.3104  0.1557  0.1076
14151TIP3    H163944   0.949   3.935  14.218  0.1910 -0.6023 -1.0400
14151TIP3    H263945   1.046   3.825  14.255  0.6920  0.4309  0.8840
14152TIP3   OH263946   5.009   6.230  17.095 -0.0269 -0.1924 -0.7416
14152TIP3    H163947   4.944   6.298  17.116 -1.2210 -1.1462 -1.2115
14152TIP3    H263948   4.960   6.148  17.103  1.2314 -0.9654 -0.7798
14153TIP3   OH263949   2.489   6.824  16.557  0.0072  0.5461  0.2477
14153TIP3    H163950   2.491   6.866  16.471 -0.6586  0.6813  0.2945
14153TIP3    H263951   2.472   6.732  16.538 -0.0777  0.5652  0.2317
14154TIP3   OH263952   4.730   4.692  10.610  0.7909  0.1371 -0.0692
14154TIP3    H163953   4.687   4.684  10.696  1.0683 -1.2028 -0.0304
14154TIP3    H263954   4.676   4.638  10.552  0.9503  0.5507 -0.6028
14155TIP3   OH263955   1.149   1.160  17.071  0.0523  0.1205 -0.1622
14155TIP3    H163956   1.191   1.074  17.065  0.2827  0.2449 -0.3386
14155TIP3    H263957   1.199   1.215  17.011  1.2858  0.9439  1.5100
14156TIP3   OH263958   1.514   0.973  11.130  0.2907  0.7535  0.2132
14156TIP3    H163959   1.546   1.004  11.045  2.9063  0.5088  1.0195
14156TIP3    H263960   1.422   0.950  11.114  1.0333 -0.6506 -2.9455
14157TIP3   OH263961   1.040   0.414  16.742  0.1194 -0.1593 -0.1321
14157TIP3    H163962   1.061   0.322  16.757 -0.5557 -0.4642 -0.9767
14157TIP3    H263963   1.062   0.458  16.824  3.0928 -0.5846 -0.5705
14158TIP3   OH263964   3.914   0.117  15.577 -0.0034  0.7312 -0.1172
14158TIP3    H163965   3.900   0.106  15.483 -0.2552  0.2276 -0.0252
14158TIP3    H263966   3.863   0.195  15.599 -1.3534 -0.1111 -0.1053
14159TIP3   OH263967   2.501   3.391   5.259 -0.1659 -0.3556  0.4374
14159TIP3    H163968   2.534   3.459   5.200 -2.4903  0.9689  0.5339
14159TIP3    H263969   2.406   3.402   5.257 -0.6457 -3.4587  0.6831
14160TIP3   OH263970   2.611   2.215  13.082 -0.8485  0.7196  0.1255
14160TIP3    H163971   2.652   2.297  13.053  0.4690  1.0660  2.6600
14160TIP3    H263972   2.622   2.216  13.177  1.0019 -3.3200  0.1339
14161TIP3   OH263973   5.695   0.125   1.722 -0.0383 -0.0495 -0.2217
14161TIP3    H163974   5.685   0.211   1.764  1.9115 -0.3380  0.9634
14161TIP3    H263975   5.666   0.062   1.788  0.4750 -0.3788 -0.3012
14162TIP3   OH263976   5.214   4.180   0.123 -0.4422 -0.2981  0.2706
14162TIP3    H163977   5.260   4.261   0.100  0.7140 -1.2925 -1.1051
14162TIP3    H263978   5.264   4.146   0.198  0.0900 -0.5592 -0.1959
14163TIP3   OH263979   3.233   1.202   4.803 -0.0382  0.6665 -0.7612
14163TIP3    H163980   3.240   1.107   4.810 -1.8540  0.5662  0.2783
14163TIP3    H263981   3.259   1.234   4.890 -1.6356  0.9260 -0.3392
14164TIP3   OH263982   6.224   3.726   3.617  0.1535  0.2582  0.1701
14164TIP3    H163983   6.295   3.662   3.619 -0.4656 -0.5417 -1.4226
14164TIP3    H263984   6.148   3.679   3.651 -0.2748  0.1667 -0.8865
14165TIP3   OH263985   0.072   4.194  16.240 -0.5371 -0.4195  0.9251
14165TIP3    H163986  -0.015   4.158  16.257 -0.4575 -0.2276  1.7907
14165TIP3    H263987   0.098   4.235  16.323  0.7575 -1.2674  0.9637
14166TIP3   OH263988   4.572   1.619   4.258 -0.0927 -0.2465  0.1403
14166TIP3    H163989   4.559   1.527   4.278  2.3415 -1.0519 -1.4342
14166TIP3    H263990   4.630   1.651   4.327 -0.4969 -0.0234  0.3816
14167TIP3   OH263991   4.063   1.533  16.730 -0.0481  0.6456  0.5313
14167TIP3    H163992   4.106   1.461  16.777 -1.0635 -1.0858 -1.0750
14167TIP3    H263993   4.012   1.578  16.798  0.1855 -0.4849  1.5022
14168TIP3   OH263994   6.460   4.552  12.813  0.2676  0.5402 -0.2804
14168TIP3    H163995   6.539   4.561  12.867 -0.3610  2.4894  0.3877
14168TIP3    H263996   6.461   4.629  12.757  0.4691 -1.0366 -2.5468
14169TIP3   OH263997   0.777   5.526   1.399  0.0815  0.0070 -0.3070
14169TIP3    H163998   0.735   5.527   1.313  1.1086  0.3716 -0.8291
14169TIP3    H263999   0.870   5.538   1.380  0.4010 -0.5136  0.8216
14170TIP3   OH264000   0.405   0.104   6.350  0.4355 -0.0272  0.0082
14170TIP3    H164001   0.373   0.194   6.349  0.8308  0.1186  0.2318
14170TIP3    H264002   0.374   0.069   6.433 -0.3067 -0.3184 -0.3827
14171TIP3   OH264003   2.762   3.831   4.272 -0.1059  0.2352  0.1011
14171TIP3    H164004   2.756   3.881   4.353  3.1949 -0.2976  0.8036
14171TIP3    H264005   2.726   3.890   4.205 -1.9118  1.0893  1.7467
14172TIP3   OH264006   3.546   5.873  11.321  0.3734 -0.3219 -0.3640
14172TIP3    H164007   3.470   5.858  11.377  0.3007  0.4976 -0.2327
14172TIP3    H264008   3.621   5.857  11.378  0.3058 -0.9713 -0.4488
14173TIP3   OH264009   6.245   6.026   4.149  0.4474 -0.1612  0.4995
14173TIP3    H164010   6.185   5.952   4.144 -0.3409  0.4807  0.2719
14173TIP3    H264011   6.256   6.042   4.243  1.2746 -1.0709  0.5741
14174TIP3   OH264012   1.427   6.489   2.945  0.1782  0.3890  0.2107
14174TIP3    H164013   1.468   6.458   2.864 -1.0682 -0.1127 -0.2592
14174TIP3    H264014   1.480   6.564   2.971 -0.5209  1.8675 -2.2043
14175TIP3   OH264015   2.490   4.897  12.924 -0.1925  0.0381 -0.1010
14175TIP3    H164016   2.552   4.962  12.891 -0.3423  0.3519  0.2170
14175TIP3    H264017   2.529   4.812  12.903  1.9273  0.1369  2.7803
14176TIP3   OH264018   0.897   4.713   0.109 -0.3633  0.0053 -0.3513
14176TIP3    H164019   0.905   4.804   0.135 -0.2397 -0.0007 -0.3684
14176TIP3    H264020   0.893   4.716   0.013 -1.5305  0.0855 -0.3186
14177TIP3   OH264021   5.564   5.028  14.609  0.2572 -0.8312  0.7937
14177TIP3    H164022   5.476   5.049  14.641  0.1230  0.8145 -0.5140
14177TIP3    H264023   5.605   4.982  14.681 -0.9579  0.2770  2.2605
14178TIP3   OH264024   4.574   1.599   1.621  0.4525  0.9743 -0.0349
14178TIP3    H164025   4.572   1.562   1.533  0.6920 -0.4432  0.5249
14178TIP3    H264026   4.635   1.673   1.614 -1.3716  2.4430 -1.5821
14179TIP3   OH264027   0.529   5.118   2.144 -0.0205  0.5239  0.4260
14179TIP3    H164028   0.454   5.117   2.085 -0.5506  0.2089  1.1064
14179TIP3    H264029   0.595   5.169   2.096 -0.4038  0.1943 -0.4835
14180TIP3   OH264030   3.184   0.740  15.137 -0.3765 -0.0466 -0.7549
14180TIP3    H164031   3.198   0.747  15.043 -1.2584 -0.8371 -0.9530
14180TIP3    H264032   3.124   0.812  15.158  0.4159  0.5980 -0.6566
14181TIP3   OH264033   0.258   5.947  15.180  0.0886  0.3025  0.5741
14181TIP3    H164034   0.353   5.935  15.182 -0.1086 -1.6706 -0.1358
14181TIP3    H264035   0.242   6.014  15.246  1.8875  0.0796  1.3186
14182TIP3   OH264036   4.342   0.467  14.006 -0.0817  0.2069 -0.2293
14182TIP3    H164037   4.354   0.529  13.934 -1.5109 -1.1863 -1.7488
14182TIP3    H264038   4.284   0.512  14.067  0.4060  1.0669 -0.3793
14183TIP3   OH264039   2.702   1.479  16.778  0.1747  0.0598  0.0788
14183TIP3    H164040   2.621   1.437  16.807  0.3638  0.8399  1.8218
14183TIP3    H264041   2.699   1.567  16.814  1.3973  0.4005 -0.5750
14184TIP3   OH264042   4.905   6.573   3.633  0.3159 -0.1602  0.3309
14184TIP3    H164043   4.918   6.489   3.677 -0.2561 -0.8621 -0.7972
14184TIP3    H264044   4.902   6.552   3.540 -0.1160  1.0700  0.0396
14185TIP3   OH264045   4.275   6.156   4.825 -0.2659  0.0738 -0.1791
14185TIP3    H164046   4.243   6.164   4.915 -1.9798 -0.5379 -0.6925
14185TIP3    H264047   4.360   6.200   4.826 -0.2554  0.1072  1.7248
14186TIP3   OH264048   1.322   4.149  12.157  0.0740  0.0772 -0.1976
14186TIP3    H164049   1.402   4.101  12.179 -0.5191 -1.1744 -0.6949
14186TIP3    H264050   1.307   4.130  12.065 -0.7727  0.3391 -0.1186
14187TIP3   OH264051   3.768   1.050   0.192 -0.3306 -0.0095 -0.5732
14187TIP3    H164052   3.853   1.091   0.179  0.3980 -1.6897 -1.4278
14187TIP3    H264053   3.709   1.123   0.211  1.7311  1.0041  2.8322
14188TIP3   OH264054   5.430   4.750   2.964 -0.3163 -0.3019  0.3917
14188TIP3    H164055   5.392   4.810   2.900 -1.2546 -1.2727  0.0162
14188TIP3    H264056   5.491   4.804   3.014 -0.2905  0.6949 -0.6812
14189TIP3   OH264057   3.018   0.353  13.609  0.0567 -0.6586  0.2648
14189TIP3    H164058   3.037   0.441  13.642  0.8312 -1.1681  1.2465
14189TIP3    H264059   3.103   0.320  13.578 -0.3428 -0.8365 -0.6479
14190TIP3   OH264060   6.418   4.365  15.641 -0.1010  0.0081 -0.0449
14190TIP3    H164061   6.442   4.363  15.548  0.8209 -1.9368  0.2004
14190TIP3    H264062   6.385   4.277  15.660  0.2382  0.1977  1.6036
14191TIP3   OH264063   4.235   0.260  15.147  0.3551 -0.4231  0.3781
14191TIP3    H164064   4.177   0.243  15.221  0.3847 -1.2619  0.2250
14191TIP3    H264065   4.177   0.288  15.076  0.1622 -0.9929  0.3063
14192TIP3   OH264066   4.404   3.934  15.714 -0.5690  0.1985 -0.2106
14192TIP3    H164067   4.329   3.875  15.703 -0.0990 -0.2460 -1.0605
14192TIP3    H264068   4.452   3.929  15.632 -0.0873  1.1754 -0.0059
14193TIP3   OH264069   1.977   5.230  15.597 -0.1831  0.1949  0.2971
14193TIP3    H164070   2.067   5.235  15.565 -0.4713 -0.0168 -0.5858
14193TIP3    H264071   1.959   5.318  15.630  0.7501 -0.1017  1.6633
14194TIP3   OH264072   3.816   4.506   0.350  0.0279  0.6062 -0.0526
14194TIP3    H164073   3.858   4.431   0.308  0.5091  0.5513  0.5167
14194TIP3    H264074   3.857   4.511   0.436 -1.3677  0.3321  0.6634
14195TIP3   OH264075   4.006   1.157  13.736 -0.1745  0.9381 -0.2047
14195TIP3    H164076   3.998   1.063  13.720  1.5990  1.2020 -3.6210
14195TIP3    H264077   3.970   1.197  13.657  0.4482  3.0989  0.5506
14196TIP3   OH264078   1.861   1.813   2.958  0.4813 -0.1687 -0.2440
14196TIP3    H164079   1.885   1.759   3.033  2.1311  1.5741  0.5838
14196TIP3    H264080   1.941   1.819   2.906 -0.1760  0.0003 -1.2688
14197TIP3   OH264081   6.812   5.181   2.196 -0.3071  0.1332 -0.1080
14197TIP3    H164082   6.786   5.263   2.155 -1.4784  0.1459  0.6255
14197TIP3    H264083   6.825   5.204   2.288  0.9919 -0.1713 -0.1974
14198TIP3   OH264084   6.602   4.639  16.478 -0.6171 -0.5034  0.2125
14198TIP3    H164085   6.641   4.667  16.395  0.7342  2.1519  1.6352
14198TIP3    H264086   6.593   4.544  16.469  1.4252 -0.5763 -2.1680
14199TIP3   OH264087   1.284   0.043   6.247  0.0902  0.1482  0.0559
14199TIP3    H164088   1.338   0.081   6.178  0.5047 -1.4244 -0.5315
14199TIP3    H264089   1.227   0.115   6.275  0.2416  0.9590 -1.5711
14200TIP3   OH264090   5.596   0.995  11.951 -0.1312 -0.2239  0.3534
14200TIP3    H164091   5.679   0.949  11.964 -1.3215 -2.7578 -0.3309
14200TIP3    H264092   5.538   0.957  12.017 -1.3834 -0.2830 -0.7493
14201TIP3   OH264093   2.485   3.201  15.340  0.1419  0.4073 -1.2158
14201TIP3    H164094   2.574   3.165  15.338 -0.4897 -1.6322  1.2478
14201TIP3    H264095   2.496   3.292  15.369  1.4407  0.2271 -1.0951
14202TIP3   OH264096   0.674   2.945  15.478  0.2260 -0.2404 -0.0494
14202TIP3    H164097   0.595   2.998  15.464  0.4057  0.2151  0.6332
14202TIP3    H264098   0.672   2.922  15.571  1.5549  0.8475  0.2715
14203TIP3   OH264099   6.510   4.795  12.677 -0.1903  0.0212  0.1726
14203TIP3    H164100   6.500   4.888  12.656  2.3492  0.3586  0.2140
14203TIP3    H264101   6.554   4.757  12.601 -0.9970 -1.1436  0.2472
14204TIP3   OH264102   6.221   3.285   0.490 -0.7045 -0.1327 -0.2556
14204TIP3    H164103   6.310   3.285   0.525 -1.5785 -0.5174  2.1004
14204TIP3    H264104   6.174   3.220   0.543 -2.3392 -0.1480 -1.6335
14205TIP3   OH264105   0.013   4.281  11.285 -0.1768 -0.0869  0.6683
14205TIP3    H164106  -0.030   4.352  11.333 -0.4441  0.7663 -0.7811
14205TIP3    H264107   0.091   4.322  11.246  0.3831 -0.9190  0.8788
14206TIP3   OH264108   1.727   1.653  14.043 -0.1493 -0.2607  0.2397
14206TIP3    H164109   1.705   1.579  13.987  1.5628 -0.4644 -0.2042
14206TIP3    H264110   1.793   1.619  14.104  0.0637  0.6815  0.5624
14207TIP3   OH264111   5.038   0.444  11.440 -0.0975 -0.2602 -0.3627
14207TIP3    H164112   5.100   0.374  11.460  0.7118 -0.2208 -2.4339
14207TIP3    H264113   5.026   0.438  11.345 -0.6919  1.8349 -0.4693
14208TIP3   OH264114   3.013   1.207  13.986  0.5700 -0.1984  0.3113
14208TIP3    H164115   3.041   1.213  14.078 -1.4772  0.2586  0.9501
14208TIP3    H264116   2.924   1.173  13.991  0.4395 -0.1893 -1.5294
14209TIP3   OH264117   6.260   4.582  12.516 -0.0562 -0.2334  0.1017
14209TIP3    H164118   6.222   4.547  12.596 -0.7977  0.0001 -0.1420
14209TIP3    H264119   6.212   4.663  12.500  0.2863 -0.1292 -0.4236
14210TIP3   OH264120   3.093   1.347  11.849  0.4844  0.3599 -0.7938
14210TIP3    H164121   3.050   1.432  11.838 -1.5649 -0.4412  0.3343
14210TIP3    H264122   3.122   1.347  11.940 -0.5355 -0.5402 -0.4478
14211TIP3   OH264123   2.563   0.094   2.105 -0.0801 -0.0077 -0.6349
14211TIP3    H164124   2.606   0.017   2.066  0.2491  0.1024 -0.4908
14211TIP3    H264125   2.613   0.169   2.072  1.1372  0.0235  1.1389
14212TIP3   OH264126   1.363   3.072  11.942 -0.6358  0.3084 -0.3417
14212TIP3    H164127   1.456   3.057  11.925 -0.3609  1.4634  0.0304
14212TIP3    H264128   1.318   3.037  11.865  0.2084  0.8535 -1.0987
14213TIP3   OH264129   4.649   1.806   1.344 -0.1076  0.1672 -0.1196
14213TIP3    H164130   4.740   1.821   1.369 -0.6378  0.7227  1.6019
14213TIP3    H264131   4.654   1.764   1.258  1.7596  0.2682 -0.0887
14214TIP3   OH264132   3.463   6.617   6.273  0.1353  0.1895 -0.5223
14214TIP3    H164133   3.519   6.544   6.299  0.4008 -0.2495 -2.1890
14214TIP3    H264134   3.397   6.623   6.343 -0.2193 -2.0023 -0.5767
14215TIP3   OH264135   5.479   2.762  12.502 -0.4908 -0.3586 -0.6905
14215TIP3    H164136   5.497   2.735  12.412  0.8018  1.2796 -0.9705
14215TIP3    H264137   5.566   2.773  12.541 -1.0337 -0.9666  0.7557
14216TIP3   OH264138   1.449   6.600   5.071  0.1610  0.1657  0.3364
14216TIP3    H164139   1.383   6.642   5.016 -0.4475 -0.2961  0.7023
14216TIP3    H264140   1.399   6.548   5.134  0.8235  0.9444  1.5646
14217TIP3   OH264141   1.198   0.863  16.699  0.1547 -0.0769  0.3058
14217TIP3    H164142   1.190   0.776  16.659  0.8553  0.4593 -1.0904
14217TIP3    H264143   1.109   0.885  16.727 -0.3206 -0.6057 -0.7306
14218TIP3   OH264144   4.885   6.622  15.920 -0.2264 -0.0844  0.0902
14218TIP3    H164145   4.896   6.643  15.827  0.3216  0.3680  0.2471
14218TIP3    H264146   4.968   6.648  15.960  0.3420 -2.1574  0.3923
14219TIP3   OH264147   1.857   0.986  13.300 -0.5168  0.3016  0.0761
14219TIP3    H164148   1.823   0.900  13.325  0.2325 -0.5702 -1.7116
14219TIP3    H264149   1.942   0.992  13.343 -0.8934  0.4919  0.8101
14220TIP3   OH264150   1.098   1.698  15.047 -0.8805  0.4653  0.3111
14220TIP3    H164151   1.149   1.620  15.026 -2.0710 -0.1061 -0.5742
14220TIP3    H264152   1.105   1.753  14.969 -0.2361  1.1443  0.8433
14221TIP3   OH264153   2.120   2.564   4.039  0.5451  0.0878 -0.6676
14221TIP3    H164154   2.172   2.615   3.977  1.1923 -1.1138 -1.1548
14221TIP3    H264155   2.182   2.536   4.106 -0.0303  0.8618  0.2025
14222TIP3   OH264156   2.630   6.737   2.814 -0.4752 -0.0350 -0.6267
14222TIP3    H164157   2.710   6.729   2.762  0.4325  0.6133  0.6066
14222TIP3    H264158   2.592   6.821   2.787  1.4419  1.6883  1.5497
14223TIP3   OH264159   1.096   4.961  11.855 -0.0083 -0.5011  0.1065
14223TIP3    H164160   1.053   5.046  11.862 -1.0203 -0.9032 -0.9194
14223TIP3    H264161   1.086   4.922  11.942  0.5931  0.4654  0.6275
14224TIP3   OH264162   0.879   4.593  11.150  0.4801 -0.6205  0.0166
14224TIP3    H164163   0.958   4.644  11.133  0.3118 -0.9295 -1.8665
14224TIP3    H264164   0.812   4.658  11.170  1.2973 -0.3791  2.3136
14225TIP3   OH264165   2.543   1.809   5.499 -0.3456 -0.2878  0.8575
14225TIP3    H164166   2.451   1.796   5.475 -0.4499  0.0091  1.0840
14225TIP3    H264167   2.551   1.904   5.510 -0.1418 -0.3619  1.3647
14226TIP3   OH264168   6.356   5.865   0.866  0.3372  0.3556  0.0626
14226TIP3    H164169   6.450   5.853   0.878  0.3346  2.3288  3.2517
14226TIP3    H264170   6.346   5.959   0.848 -1.0776  0.3826  0.8615
14227TIP3   OH264171   4.462   3.619  15.503  0.2633  0.1729 -0.2608
14227TIP3    H164172   4.444   3.562  15.578  1.2192  1.1501  0.7393
14227TIP3    H264173   4.429   3.570  15.428  0.4927 -1.4273  0.6333
14228TIP3   OH264174   1.023   6.105   2.501  0.2141 -0.5797 -0.1097
14228TIP3    H164175   0.991   6.094   2.411  0.9406 -2.1554 -0.2073
14228TIP3    H264176   0.980   6.185   2.532 -1.9868 -1.3448 -1.0101
14229TIP3   OH264177   4.357   2.632  15.761  0.0812  0.1297  0.3406
14229TIP3    H164178   4.427   2.691  15.792  0.8850  0.2359 -1.5004
14229TIP3    H264179   4.403   2.552  15.737 -0.2299  0.5365 -1.8065
14230TIP3   OH264180   0.675   0.503  15.057 -0.4095  0.1356  0.2527
14230TIP3    H164181   0.673   0.414  15.092 -1.3669 -0.4662 -1.2647
14230TIP3    H264182   0.749   0.503  14.996 -0.1273  0.5299  0.5874
14231TIP3   OH264183   0.638   5.179  12.504 -0.0190 -0.5525  0.0392
14231TIP3    H164184   0.609   5.102  12.552  1.1437  0.3562  2.3114
14231TIP3    H264185   0.694   5.144  12.434 -2.0845 -1.9180 -1.0680
14232TIP3   OH264186   2.144   4.200   3.497  0.0305  0.5972  0.1905
14232TIP3    H164187   2.195   4.274   3.464  1.6170 -0.5397 -0.0353
14232TIP3    H264188   2.197   4.165   3.569  0.0875 -1.2052 -0.6728
14233TIP3   OH264189   4.956   5.710   5.004  0.2815  0.4810 -0.4873
14233TIP3    H164190   4.975   5.725   4.911 -1.7909  2.2602 -0.7090
14233TIP3    H264191   5.021   5.762   5.050  0.4479  0.7276 -0.9902
14234TIP3   OH264192   4.571   2.029   6.021  0.3224  0.5441  0.5810
14234TIP3    H164193   4.487   2.073   6.014 -0.1353 -0.4064 -0.1165
14234TIP3    H264194   4.589   1.995   5.933  1.8373  1.4341  0.5099
14235TIP3   OH264195   4.125   2.235   5.569 -0.3750  0.0494  0.3586
14235TIP3    H164196   4.058   2.284   5.617  0.8961  1.8580  0.3715
14235TIP3    H264197   4.120   2.267   5.480 -0.6130 -1.0327 -0.0379
14236TIP3   OH264198   2.078   5.992  11.547 -0.2093  0.7807  0.2965
14236TIP3    H164199   2.023   5.970  11.471  0.2023  2.4799 -0.5342
14236TIP3    H264200   2.016   6.020  11.614 -0.4804  0.8828  0.0092
14237TIP3   OH264201   5.877   5.556   2.634  0.0456  0.0509  0.1261
14237TIP3    H164202   5.851   5.564   2.726  0.9904 -0.8946  0.4937
14237TIP3    H264203   5.843   5.471   2.606  0.7110 -0.1507 -0.0772
14238TIP3   OH264204   5.852   1.777   1.734 -0.2908  0.2513  0.1836
14238TIP3    H164205   5.797   1.702   1.710 -2.0065  1.3911  0.3305
14238TIP3    H264206   5.801   1.854   1.705  1.4708  1.3700 -0.0967
14239TIP3   OH264207   6.712   2.003  14.260  0.0845 -0.3418 -0.8190
14239TIP3    H164208   6.671   1.937  14.317  2.5274 -0.2128  1.2623
14239TIP3    H264209   6.658   2.081  14.272 -0.8909 -1.0124 -0.6697
14240TIP3   OH264210   5.312   0.309   0.270 -0.0793  0.3670  0.0667
14240TIP3    H164211   5.235   0.361   0.249  0.1911  0.8608  0.2660
14240TIP3    H264212   5.329   0.257   0.192 -0.8030  0.0103  0.1420
14241TIP3   OH264213   2.771   4.024   6.471 -0.1089  0.4941  0.0127
14241TIP3    H164214   2.680   4.055   6.466 -0.1067  0.2739 -1.7601
14241TIP3    H264215   2.823   4.099   6.443  0.3300  0.7841  1.4961
14242TIP3   OH264216   2.916   3.288  16.008  0.3505 -0.2722 -0.4853
14242TIP3    H164217   2.986   3.350  15.986  0.8828 -1.0287 -0.9544
14242TIP3    H264218   2.911   3.290  16.104  1.3399 -0.5722 -0.4260
14243TIP3   OH264219   3.231   1.750  14.133 -0.6696  0.6162  0.0244
14243TIP3    H164220   3.213   1.705  14.216 -0.4405 -0.3274 -0.4166
14243TIP3    H264221   3.289   1.690  14.086  2.1618  2.7060  0.6126
14244TIP3   OH264222   3.371   5.616  12.544 -0.3476  0.3556 -0.4591
14244TIP3    H164223   3.280   5.641  12.561 -0.2007 -0.0696  1.0711
14244TIP3    H264224   3.406   5.688  12.491 -1.7842  0.1292 -1.8202
14245TIP3   OH264225   1.691   5.756  15.238 -0.1417  0.0138 -0.1876
14245TIP3    H164226   1.622   5.691  15.223 -0.2867  0.0885  0.1513
14245TIP3    H264227   1.691   5.770  15.333 -0.3467  0.7739 -0.2944
14246TIP3   OH264228   0.813   6.065  14.633  0.4493 -0.3963 -0.1302
14246TIP3    H164229   0.878   6.121  14.590  1.5992 -1.0282  0.7312
14246TIP3    H264230   0.810   5.986  14.579  0.5522 -0.4521 -0.0550
14247TIP3   OH264231   6.115   0.562  11.942 -0.2071 -0.6422  0.1694
14247TIP3    H164232   6.160   0.595  12.020 -3.8162  1.3691  1.6210
14247TIP3    H264233   6.048   0.628  11.923 -2.0843 -3.0305 -2.2299
14248TIP3   OH264234   6.454   2.011   0.354 -0.3351  0.5958  0.7056
14248TIP3    H164235   6.403   2.018   0.434 -2.1685  0.3583 -0.3794
14248TIP3    H264236   6.448   1.918   0.330 -0.1064  0.7324  0.0939
14249TIP3   OH264237   0.720   4.765  13.864 -0.0430 -0.2692 -0.2300
14249TIP3    H164238   0.633   4.747  13.900 -0.1545 -1.4182 -1.0426
14249TIP3    H264239   0.728   4.861  13.868 -0.2479 -0.2764  2.3217
14250TIP3   OH264240   5.385   0.916  12.146 -0.0386 -0.0741 -0.1348
14250TIP3    H164241   5.323   0.917  12.073 -1.3879 -0.7387  0.9513
14250TIP3    H264242   5.371   0.999  12.190  0.1403 -0.0512 -0.1214
14251TIP3   OH264243   0.879   4.717   3.744 -0.7886 -0.0519  0.2751
14251TIP3    H164244   0.890   4.709   3.838  0.5624 -1.4433  0.0476
14251TIP3    H264245   0.868   4.810   3.728 -0.9537  0.2088  1.7826
14252TIP3   OH264246   2.109   5.620   6.431  0.4763  0.6646 -0.2399
14252TIP3    H164247   2.179   5.650   6.488 -0.4892  2.1870  0.2031
14252TIP3    H264248   2.144   5.541   6.389  2.9634  2.0866 -1.0573
14253TIP3   OH264249   1.905   0.213   4.623 -0.1629 -0.0619 -0.3660
14253TIP3    H164250   1.906   0.121   4.597 -0.9099  0.2078 -1.4175
14253TIP3    H264251   1.815   0.242   4.606 -0.5081  0.3668  1.8309
14254TIP3   OH264252   5.092   3.923   2.711  0.0783 -0.2068  0.2246
14254TIP3    H164253   5.037   3.845   2.711  0.4527 -0.4811 -0.4220
14254TIP3    H264254   5.175   3.894   2.749  0.4455 -0.2936 -0.6396
14255TIP3   OH264255   2.663   5.783   6.202 -0.0151  0.4167  0.4036
14255TIP3    H164256   2.734   5.844   6.182  0.5966 -1.3269 -3.5670
14255TIP3    H264257   2.704   5.714   6.254  0.3035  1.1697  1.1718
14256TIP3   OH264258   0.675   4.800   4.894 -0.1503 -0.0495  0.2480
14256TIP3    H164259   0.630   4.884   4.900  0.3925  0.2254  0.5410
14256TIP3    H264260   0.708   4.797   4.804 -0.2866 -0.0113  0.1965
14257TIP3   OH264261   4.794   6.056  13.463 -0.2551  0.6413  0.2731
14257TIP3    H164262   4.878   6.096  13.438 -0.8395  0.8708 -1.4552
14257TIP3    H264263   4.817   5.965  13.484  0.7365  1.2550  2.0398
14258TIP3   OH264264   2.379   4.064  11.498  0.2132 -0.0606  0.2683
14258TIP3    H164265   2.342   4.110  11.422  0.3799  0.7283  0.6470
14258TIP3    H264266   2.303   4.028  11.544  0.1350 -0.8743 -0.4650
14259TIP3   OH264267   2.280   4.169   0.981 -0.1802  0.5918 -0.3223
14259TIP3    H164268   2.357   4.149   1.034 -0.3253  1.4376  0.2115
14259TIP3    H264269   2.295   4.121   0.899  1.1438  1.1347 -0.4145
14260TIP3   OH264270   4.147   2.438   1.625  0.2638 -0.3095 -0.3925
14260TIP3    H164271   4.102   2.476   1.549  0.7142 -0.7073 -0.8649
14260TIP3    H264272   4.137   2.344   1.614  0.5298 -0.3757 -0.0748
14261TIP3   OH264273   1.057   4.727   5.327 -0.3310 -0.4640 -0.1349
14261TIP3    H164274   1.052   4.786   5.252  0.8016 -1.1058 -0.7545
14261TIP3    H264275   0.993   4.761   5.390 -0.2784  0.9315 -0.8045
14262TIP3   OH264276   4.495   1.532  17.048 -0.4233 -0.1874 -0.2139
14262TIP3    H164277   4.498   1.610  16.993 -1.2458  1.3749  1.8079
14262TIP3    H264278   4.580   1.530  17.092 -0.7312  0.1308  0.4165
14263TIP3   OH264279   0.463   2.577  16.599  0.0447 -0.3020 -0.2867
14263TIP3    H164280   0.541   2.617  16.561  0.7330 -1.6023 -0.3056
14263TIP3    H264281   0.436   2.638  16.668  0.1052  0.9623 -1.3395
14264TIP3   OH264282   3.731   1.446   4.393  0.2908 -0.0255 -0.1379
14264TIP3    H164283   3.737   1.529   4.441 -0.3882 -1.0291  1.8004
14264TIP3    H264284   3.823   1.418   4.383  0.4604  0.3884  0.2285
14265TIP3   OH264285   1.341   4.149   1.533 -0.2577 -1.0240  0.0495
14265TIP3    H164286   1.321   4.059   1.509 -3.2825 -0.1909 -1.0679
14265TIP3    H264287   1.369   4.190   1.451 -1.2479 -0.4484 -0.0300
14266TIP3   OH264288   5.829   2.515  17.114  0.0119 -0.5661 -0.0687
14266TIP3    H164289   5.920   2.485  17.114 -0.2488 -1.3968 -0.6898
14266TIP3    H264290   5.785   2.457  17.052 -0.5476  1.0504 -1.2580
14267TIP3   OH264291   3.444   2.362  11.791  0.6275  0.5895 -0.0769
14267TIP3    H164292   3.406   2.440  11.832  0.5738  0.7017 -0.3390
14267TIP3    H264293   3.536   2.386  11.777  0.2939  1.1362 -1.4477
14268TIP3   OH264294   1.578   6.813   3.498  0.0180 -0.6269 -0.1132
14268TIP3    H164295   1.540   6.728   3.476  1.4322 -1.0781 -1.0293
14268TIP3    H264296   1.586   6.857   3.413 -0.0137  0.1157  0.2686
14269TIP3   OH264297   3.048   1.660   5.829 -0.0557  0.4921  0.0023
14269TIP3    H164298   2.962   1.653   5.870 -0.1076 -0.4057 -0.2513
14269TIP3    H264299   3.030   1.675   5.737  0.0362 -0.8386 -0.2521
14270TIP3   OH264300   1.753   3.939  11.621 -0.0570 -0.1994 -0.6663
14270TIP3    H164301   1.821   3.877  11.646 -0.5745 -0.7307 -0.5671
14270TIP3    H264302   1.792   3.990  11.549  0.9046  0.3591  0.2131
14271TIP3   OH264303   6.556   2.118   1.366  0.4478  0.1382  0.1845
14271TIP3    H164304   6.640   2.158   1.388 -0.4153  1.2883  1.4973
14271TIP3    H264305   6.526   2.079   1.447 -1.0128  1.1068  0.1334
14272TIP3   OH264306   6.015   5.911   3.360  0.4997 -0.6272 -0.2663
14272TIP3    H164307   6.019   6.002   3.388 -0.2317 -1.2551  2.2069
14272TIP3    H264308   5.934   5.904   3.311 -0.0711 -0.1601  0.5731
14273TIP3   OH264309   6.116   4.523  11.546  0.0032  0.5431 -0.1496
14273TIP3    H164310   6.192   4.497  11.493 -0.1998  1.3698 -0.8618
14273TIP3    H264311   6.043   4.524  11.484 -0.9710 -1.8676  0.8418
14274TIP3   OH264312   6.434   2.017  15.218  0.3134 -0.2866  0.0436
14274TIP3    H164313   6.445   1.922  15.213  1.8665 -0.0714 -2.7398
14274TIP3    H264314   6.511   2.048  15.265 -0.6736 -0.4024  1.8269
14275TIP3   OH264315   0.673   3.870   4.778 -0.2510  0.8386 -0.2017
14275TIP3    H164316   0.591   3.884   4.731 -0.6808  0.5770  0.4498
14275TIP3    H264317   0.720   3.804   4.726 -1.5385 -0.8512  0.6661
14276TIP3   OH264318   5.870   5.897   1.825 -0.2081  0.4800 -0.6587
14276TIP3    H164319   5.784   5.857   1.817 -0.5082 -0.0111  3.0291
14276TIP3    H264320   5.932   5.825   1.816 -0.3721  0.3038 -0.3734
14277TIP3   OH264321   3.680   3.413   3.086  0.7150 -0.3180 -0.8876
14277TIP3    H164322   3.613   3.416   3.154  0.2991  0.0195 -1.3075
14277TIP3    H264323   3.735   3.490   3.101  0.7100 -0.3230 -0.8460
14278TIP3   OH264324   1.046   4.250   4.577  0.5615  0.1734  0.2449
14278TIP3    H164325   1.108   4.318   4.602  1.1094  0.4564 -1.7902
14278TIP3    H264326   1.097   4.189   4.524 -0.4540 -0.6457  0.1821
14279TIP3   OH264327   5.787   5.937  10.923  0.4260  0.4066 -0.1923
14279TIP3    H164328   5.843   5.966  10.851 -0.7745  2.0882 -0.5198
14279TIP3    H264329   5.830   5.971  11.001  2.0308 -1.8954  0.0236
14280TIP3   OH264330   5.214   0.487  17.198 -0.1742  0.4406  0.2314
14280TIP3    H164331   5.128   0.467  17.235  0.1742 -0.5697  0.5536
14280TIP3    H264332   5.199   0.562  17.141 -1.0662  0.9377  1.0757
14281TIP3   OH264333   1.589   0.940  15.149  0.0474 -0.4666 -0.6927
14281TIP3    H164334   1.602   0.927  15.243 -1.1183 -1.5954 -0.6554
14281TIP3    H264335   1.675   0.922  15.110  0.5317 -0.0081  0.1445
14282TIP3   OH264336   1.173   2.206  14.817 -0.4235  0.6514  0.1117
14282TIP3    H164337   1.110   2.197  14.745 -1.3697  2.2189  0.6772
14282TIP3    H264338   1.142   2.147  14.885  0.6201 -1.0348 -0.7991
14283TIP3   OH264339   6.706   3.295  14.898  1.2408 -0.2245  0.3506
14283TIP3    H164340   6.753   3.330  14.974 -1.7218  3.6348  0.6974
14283TIP3    H264341   6.721   3.359  14.829 -0.8427 -0.5428 -0.4696
14284TIP3   OH264342   2.801   6.277   1.497 -0.0537 -0.1513  0.1281
14284TIP3    H164343   2.799   6.196   1.447 -0.9013 -0.4880  0.6763
14284TIP3    H264344   2.711   6.309   1.495  0.2446  0.7149  0.0290
14285TIP3   OH264345   2.355   0.896   5.392  0.3000 -0.1648 -0.4168
14285TIP3    H164346   2.363   0.801   5.394 -1.5457 -0.3592 -0.6357
14285TIP3    H264347   2.292   0.914   5.322 -0.0398  1.1607  0.1940
14286TIP3   OH264348   6.764   3.289  15.484  0.0779 -0.4941 -0.6416
14286TIP3    H164349   6.696   3.242  15.436  0.5565  0.1016 -1.9313
14286TIP3    H264350   6.787   3.363  15.428  0.7997  0.1139  0.4222
14287TIP3   OH264351   0.891   5.316   3.697 -0.6916  0.0639 -0.0248
14287TIP3    H164352   0.800   5.345   3.702 -0.3653  0.9610  0.9334
14287TIP3    H264353   0.924   5.322   3.786  0.2911 -0.3191 -0.3461
14288TIP3   OH264354   6.488   1.421   3.656 -0.0448 -0.0209 -0.1528
14288TIP3    H164355   6.413   1.480   3.659  0.3689  0.6208 -1.6868
14288TIP3    H264356   6.525   1.433   3.569  1.4600 -0.8014  0.3434
14289TIP3   OH264357   3.670   3.556  12.179 -0.7554  0.0863 -0.0011
14289TIP3    H164358   3.691   3.588  12.092 -1.0445 -0.4468 -0.2730
14289TIP3    H264359   3.749   3.573  12.231 -0.4103 -0.0274 -0.4839
14290TIP3   OH264360   0.169   5.959   3.602  0.2097  0.0778  0.4213
14290TIP3    H164361   0.089   5.908   3.617  2.1674 -3.1059  1.0562
14290TIP3    H264362   0.172   5.970   3.507  0.0692 -1.7843  0.1536
14291TIP3   OH264363   5.838   4.274   2.791  0.2257 -0.2510  0.1732
14291TIP3    H164364   5.836   4.221   2.711 -2.1086 -0.8023  0.5390
14291TIP3    H264365   5.873   4.214   2.858 -0.1772 -0.5986  0.0784
14292TIP3   OH264366   6.639   6.333  14.018  0.3563 -0.8362  0.3195
14292TIP3    H164367   6.653   6.404  14.081 -1.7662 -0.5083  0.4918
14292TIP3    H264368   6.612   6.259  14.071  0.0749 -1.0225 -0.0787
14293TIP3   OH264369   1.470   5.082  16.945 -0.3085  0.0079  0.0482
14293TIP3    H164370   1.527   5.157  16.958 -0.8488  0.3643  0.3661
14293TIP3    H264371   1.468   5.038  17.030 -0.3054 -0.1511 -0.0327
14294TIP3   OH264372   5.639   1.251  15.369  0.3998  0.4906  0.3813
14294TIP3    H164373   5.596   1.314  15.311  0.1306  0.5019  0.5856
14294TIP3    H264374   5.623   1.285  15.457  1.2459  0.7452  0.4375
14295TIP3   OH264375   3.186   0.701   3.563  0.0527  0.3059 -0.1638
14295TIP3    H164376   3.145   0.634   3.617 -0.3168  1.5364  1.1265
14295TIP3    H264377   3.114   0.753   3.528  0.3870  0.8590 -0.0495
14296TIP3   OH264378   6.120   4.689  15.348 -0.0228 -0.2222 -0.0172
14296TIP3    H164379   6.168   4.614  15.313  0.8214 -0.5479  1.7252
14296TIP3    H264380   6.027   4.666  15.338  0.2267 -1.6445  0.7414
14297TIP3   OH264381   6.811   1.042   4.835 -0.2121 -0.2502 -0.0412
14297TIP3    H164382   6.790   1.084   4.751  2.1132 -0.6682 -0.9179
14297TIP3    H264383   6.861   1.107   4.883  0.1621 -0.6890  0.1795
14298TIP3   OH264384   1.296   0.229  13.216  0.4997  0.3674  0.0714
14298TIP3    H164385   1.242   0.301  13.247 -0.4113  0.0759 -0.7961
14298TIP3    H264386   1.355   0.210  13.290 -0.6073  0.6544  1.0659
14299TIP3   OH264387   3.218   5.840   4.076 -0.5457 -0.4177  0.4551
14299TIP3    H164388   3.271   5.826   4.154 -0.4234 -0.9221  0.2851
14299TIP3    H264389   3.168   5.759   4.066  0.6929 -1.0413 -0.9518
14300TIP3   OH264390   6.596   1.251  12.383  0.4654 -0.2693  0.2449
14300TIP3    H164391   6.609   1.163  12.347 -2.1923 -0.4124 -0.5523
14300TIP3    H264392   6.638   1.248  12.469  1.5846 -1.8714 -0.3049
14301TIP3   OH264393   2.846   4.340  15.287 -0.5658  0.1821 -0.3461
14301TIP3    H164394   2.939   4.356  15.299 -0.3201 -1.1041 -0.3218
14301TIP3    H264395   2.842   4.278  15.214 -1.4037  0.2345 -0.3524
14302TIP3   OH264396   3.708   4.291  11.970  0.1103  0.0585  0.3379
14302TIP3    H164397   3.620   4.324  11.952  0.2691 -0.1837 -0.9144
14302TIP3    H264398   3.694   4.218  12.031 -0.7187 -1.0653 -1.1444
14303TIP3   OH264399   4.280   2.211  17.094  0.4523  0.1323  0.3525
14303TIP3    H164400   4.185   2.205  17.081  0.5770 -0.0146 -0.5230
14303TIP3    H264401   4.307   2.282  17.036  0.8662  0.2471  0.6856
14304TIP3   OH264402   0.998   0.924  12.252  0.2436 -0.3456 -0.3199
14304TIP3    H164403   1.092   0.913  12.238  0.3334  1.4710 -1.5747
14304TIP3    H264404   0.992   0.994  12.317 -0.2896 -2.6183  2.2657
14305TIP3   OH264405   4.479   2.438  15.613 -0.5771  0.1855  0.3273
14305TIP3    H164406   4.525   2.413  15.533 -2.4470  0.2840 -0.8385
14305TIP3    H264407   4.456   2.355  15.655 -0.8460  0.0842 -0.0128
14306TIP3   OH264408   3.268   6.256  12.791 -0.7657  0.0510  0.5236
14306TIP3    H164409   3.340   6.305  12.831 -0.8581  0.3176  0.3688
14306TIP3    H264410   3.234   6.201  12.862 -1.2078  0.8356  0.9354
14307TIP3   OH264411   0.301   5.959   2.543  0.1809 -0.4601  0.6293
14307TIP3    H164412   0.365   5.969   2.614  1.1164 -0.9007 -0.1276
14307TIP3    H264413   0.309   5.867   2.517 -1.8975 -0.9565  1.5567
14308TIP3   OH264414   0.484   1.172  16.692 -0.5092 -0.4192 -0.1443
14308TIP3    H164415   0.530   1.171  16.776 -0.5107 -0.9768 -0.1495
14308TIP3    H264416   0.524   1.244  16.643 -0.5059 -0.0918  0.3320
14309TIP3   OH264417   1.444   3.013   2.326 -0.6543 -0.4241 -0.2465
14309TIP3    H164418   1.518   3.071   2.340 -2.2890  2.0468 -1.0858
14309TIP3    H264419   1.440   2.958   2.405  1.7691 -0.3782 -0.0351
14310TIP3   OH264420   4.997   0.521  12.574 -0.0556  0.1160 -0.1489
14310TIP3    H164421   4.945   0.601  12.585 -1.4561 -0.7172 -0.4821
14310TIP3    H264422   5.085   0.546  12.602 -0.7077  1.4694  0.8260
14311TIP3   OH264423   1.013   0.509   4.740 -0.0768  0.2701  0.4175
14311TIP3    H164424   0.985   0.512   4.831 -0.4405 -1.0142  0.3644
14311TIP3    H264425   0.934   0.487   4.691 -0.0666  1.7503 -0.3230
14312TIP3   OH264426   4.890   4.664  11.397 -0.1640 -0.0297 -0.0770
14312TIP3    H164427   4.921   4.620  11.318  0.6525  0.6185 -0.1343
14312TIP3    H264428   4.933   4.618  11.469 -0.5082 -0.2913 -0.0329
14313TIP3   OH264429   5.646   2.134   2.376  0.0564  0.2803 -0.0012
14313TIP3    H164430   5.559   2.105   2.348 -0.0120 -0.3751  0.8114
14313TIP3    H264431   5.664   2.081   2.454  0.3626  1.7707  0.9750
14314TIP3   OH264432   6.439   2.970   0.834 -0.5654 -0.2861 -0.4121
14314TIP3    H164433   6.445   2.902   0.767  0.1297 -1.6166  0.9640
14314TIP3    H264434   6.528   3.002   0.845 -1.0097  1.6468 -1.7661
14315TIP3   OH264435   6.411   2.954  11.704 -0.1997  0.6272 -0.0986
14315TIP3    H164436   6.375   3.025  11.757 -0.9192  0.2730 -0.1040
14315TIP3    H264437   6.429   2.884  11.766 -1.1517  0.1700 -0.3111
14316TIP3   OH264438   4.449   3.867   6.227  0.1371 -0.1264  0.4414
14316TIP3    H164439   4.457   3.913   6.310  1.2379 -2.2945  1.6481
14316TIP3    H264440   4.384   3.798   6.244  0.0270 -0.3238 -0.6619
14317TIP3   OH264441   4.802   4.639   0.433  0.1280 -0.8282 -0.2512
14317TIP3    H164442   4.757   4.662   0.352 -0.0067  0.9535  0.2951
14317TIP3    H264443   4.889   4.678   0.425 -0.0497 -0.2169  0.6414
14318TIP3   OH264444   0.347   5.430  13.539 -0.5762 -0.0491  0.2937
14318TIP3    H164445   0.435   5.412  13.570 -0.2006  0.4789 -0.4556
14318TIP3    H264446   0.333   5.368  13.468  0.2758  1.6835 -1.4899
14319TIP3   OH264447   4.691   4.925   4.577 -0.2951  0.2380 -0.6642
14319TIP3    H164448   4.602   4.958   4.568 -0.4345 -0.3988 -1.6785
14319TIP3    H264449   4.738   4.959   4.501  0.7638  1.8421  0.6236
14320TIP3   OH264450   6.262   0.234  12.144  0.6584 -0.5834  0.0200
14320TIP3    H164451   6.174   0.254  12.176  1.1835  3.3566 -0.4222
14320TIP3    H264452   6.249   0.174  12.071 -1.5924 -0.5769  0.3627
14321TIP3   OH264453   5.422   0.584  14.858  0.0330 -0.5135  0.0982
14321TIP3    H164454   5.421   0.488  14.860  1.7206 -0.5624 -0.2600
14321TIP3    H264455   5.514   0.608  14.864 -0.3467  1.0999  0.0843
14322TIP3   OH264456   0.195   5.516  14.254  0.4153  0.3283  0.1369
14322TIP3    H164457   0.173   5.514  14.161  0.2083  1.3758  0.1449
14322TIP3    H264458   0.116   5.484  14.298  0.1544  0.7599 -0.0067
14323TIP3   OH264459   6.643   3.182  14.304 -0.4278  0.2814 -0.7608
14323TIP3    H164460   6.718   3.233  14.271 -0.3272 -0.1646 -1.2388
14323TIP3    H264461   6.601   3.149  14.225 -0.5688 -0.2677 -0.4560
14324TIP3   OH264462   0.636   1.443   0.301 -0.7992  0.4397  0.0710
14324TIP3    H164463   0.657   1.510   0.236  0.7824  1.3321  1.4498
14324TIP3    H264464   0.702   1.453   0.369 -2.0129 -0.9014  1.5243
14325TIP3   OH264465   4.864   4.419  16.207 -0.0378  0.2004  0.1424
14325TIP3    H164466   4.946   4.375  16.230 -0.8045  0.0626  2.9884
14325TIP3    H264467   4.803   4.347  16.188 -0.2516  0.1787  0.8969
14326TIP3   OH264468   3.603   2.352  12.675 -0.2419 -0.0681 -0.5142
14326TIP3    H164469   3.665   2.327  12.743 -1.4125 -2.4624 -0.2520
14326TIP3    H264470   3.653   2.410  12.618  1.3719  0.3401  1.2122
14327TIP3   OH264471   6.153   3.642   2.425  0.5066  0.3990  0.5523
14327TIP3    H164472   6.175   3.717   2.369  0.6808  0.7048  1.0226
14327TIP3    H264473   6.077   3.671   2.475  0.0650 -0.0424  0.1463
14328TIP3   OH264474   4.565   0.885  17.033  0.2727 -0.1727  0.0368
14328TIP3    H164475   4.521   0.856  17.114  2.3707 -0.3823  1.1733
14328TIP3    H264476   4.628   0.950  17.063  1.4755 -0.6530 -1.3534
14329TIP3   OH264477   0.559   5.123  16.328  0.2239  0.2769 -0.4183
14329TIP3    H164478   0.653   5.135  16.340  0.0082  0.7381  0.9747
14329TIP3    H264479   0.538   5.042  16.374 -0.1064  0.3400 -0.4536
14330TIP3   OH264480   1.431   2.690   0.417  0.0707 -0.2386 -0.0319
14330TIP3    H164481   1.482   2.706   0.496 -0.1466  0.2962  0.0005
14330TIP3    H264482   1.452   2.599   0.393  1.6833  0.2319 -0.4966
14331TIP3   OH264483   3.683   0.475   5.299  1.0413 -0.0280  0.1149
14331TIP3    H164484   3.628   0.401   5.325 -0.2702  0.6865 -0.5178
14331TIP3    H264485   3.622   0.538   5.260  1.8499  2.0280  1.9194
14332TIP3   OH264486   1.183   3.297  11.790  0.1419  0.3121  0.1432
14332TIP3    H164487   1.261   3.277  11.738  0.6421  0.6154  0.7706
14332TIP3    H264488   1.210   3.370  11.846  0.0949 -0.9868  1.9345
14333TIP3   OH264489   0.259   4.371   2.389 -0.1771 -0.3105  0.4065
14333TIP3    H164490   0.280   4.277   2.393  1.3687 -0.0053 -0.1136
14333TIP3    H264491   0.172   4.377   2.430 -1.8078 -2.3979 -2.3948
14334TIP3   OH264492   3.243   2.711  12.561 -0.0049 -0.2815 -0.1510
14334TIP3    H164493   3.202   2.626  12.579  2.9288 -1.7044  0.3733
14334TIP3    H264494   3.296   2.695  12.482  1.5896  0.6470  0.6886
14335TIP3   OH264495   0.274   0.756  16.002 -0.0701 -0.9983  0.2485
14335TIP3    H164496   0.209   0.817  15.968 -0.6081 -0.7674  1.6136
14335TIP3    H264497   0.245   0.670  15.970  0.8473 -0.5547 -1.9069
14336TIP3   OH264498   4.582   1.279  16.298  0.4131 -0.0322  0.4065
14336TIP3    H164499   4.673   1.303  16.317  0.7466  0.1951 -1.2661
14336TIP3    H264500   4.586   1.184  16.282  0.3179 -0.0639  0.5775
14337TIP3   OH264501   2.532   6.401   5.364 -0.4414 -0.0517  0.5275
14337TIP3    H164502   2.522   6.378   5.456 -0.8536  0.9947  0.7641
14337TIP3    H264503   2.548   6.496   5.364 -1.4399  0.1477 -0.5175
14338TIP3   OH264504   2.700   2.245   2.201  0.0519 -0.5075  0.7347
14338TIP3    H164505   2.767   2.310   2.181 -0.6145  0.0156  0.1840
14338TIP3    H264506   2.708   2.231   2.295  0.7924 -0.2992  0.7097
14339TIP3   OH264507   1.305   3.870  13.187 -0.5373 -0.0959 -0.8730
14339TIP3    H164508   1.242   3.902  13.252  0.5689  1.1888 -0.4024
14339TIP3    H264509   1.321   3.779  13.213 -2.5166 -0.6210 -1.2921
14340TIP3   OH264510   6.649   0.668   0.674 -0.6498 -0.6716 -0.2571
14340TIP3    H164511   6.592   0.596   0.649  1.0202 -2.6493  1.2728
14340TIP3    H264512   6.736   0.628   0.682 -0.0704  0.9016  3.0677
14341TIP3   OH264513   4.645   1.277  14.772  0.1943  0.0909  0.4031
14341TIP3    H164514   4.714   1.342  14.785  0.6774  0.3372 -2.6857
14341TIP3    H264515   4.691   1.196  14.752 -0.3598  0.0275 -0.7392
14342TIP3   OH264516   2.157   3.550  12.905 -0.2803 -0.1767  0.1684
14342TIP3    H164517   2.197   3.468  12.875 -1.5602 -0.3978 -1.0531
14342TIP3    H264518   2.090   3.569  12.840 -0.3486  1.5983  0.7073
14343TIP3   OH264519   0.379   2.409  12.848  0.3378 -0.1241  0.0461
14343TIP3    H164520   0.327   2.405  12.767 -1.1460 -0.1810  0.9572
14343TIP3    H264521   0.465   2.378  12.823 -0.2672 -0.7415 -1.3854
14344TIP3   OH264522   4.511   1.039   0.216  0.1952  0.6724  0.2028
14344TIP3    H164523   4.447   1.045   0.145 -0.1620 -0.2340  0.4255
14344TIP3    H264524   4.458   1.039   0.296  0.5125  0.5514  0.4147
14345TIP3   OH264525   4.105   0.787   3.342 -0.6482 -0.0054  0.3390
14345TIP3    H164526   4.055   0.710   3.371  0.5480 -1.6902 -1.7786
14345TIP3    H264527   4.193   0.753   3.325  0.5205  2.3253  1.3383
14346TIP3   OH264528   6.146   6.430   3.166 -0.0467  0.3382 -0.5037
14346TIP3    H164529   6.190   6.346   3.153 -0.2220  0.2473 -0.5024
14346TIP3    H264530   6.182   6.464   3.249 -2.1790 -1.1332  1.1390
14347TIP3   OH264531   6.064   5.838   1.550 -0.2101  0.6384  0.1817
14347TIP3    H164532   6.094   5.780   1.481  0.2386  0.6134  0.3962
14347TIP3    H264533   6.091   5.795   1.631  1.3942  1.8121  0.3206
14348TIP3   OH264534   0.919   0.122  14.137  0.0377  0.0048 -0.2952
14348TIP3    H164535   1.012   0.142  14.123  0.1093 -0.2221 -0.1564
14348TIP3    H264536   0.874   0.165  14.065  0.1304  1.0936  0.2593
14349TIP3   OH264537   1.488   2.344   0.406  0.3877 -0.0029  0.3804
14349TIP3    H164538   1.399   2.364   0.379  0.1760 -0.8698  0.4169
14349TIP3    H264539   1.544   2.384   0.339 -0.1186 -2.3766 -1.6012
14350TIP3   OH264540   5.809   4.755  13.355 -0.2390  0.4989 -0.2179
14350TIP3    H164541   5.764   4.831  13.392 -1.2674 -0.4481  0.5516
14350TIP3    H264542   5.851   4.713  13.430  0.2116  0.2216 -0.6164
14351TIP3   OH264543   6.698   6.798   3.193  0.0335  0.2797 -0.1853
14351TIP3    H164544   6.764   6.796   3.262 -0.6457 -1.7227  0.4608
14351TIP3    H264545   6.745   6.831   3.116  1.7588 -0.9169  0.3061
14352TIP3   OH264546   0.414   4.823   1.002 -0.3812 -0.1371  0.5515
14352TIP3    H164547   0.455   4.745   0.966  0.9238  0.1982  1.2402
14352TIP3    H264548   0.383   4.871   0.925  1.0570 -0.1270 -0.0601
14353TIP3   OH264549   6.478   5.356   1.642  0.3671  0.1343  0.3091
14353TIP3    H164550   6.507   5.265   1.648 -0.8624 -0.3309 -0.3856
14353TIP3    H264551   6.401   5.360   1.699  0.0076  0.5564 -0.1977
14354TIP3   OH264552   0.027   4.604   0.867 -0.2442 -0.4555  0.0073
14354TIP3    H164553   0.102   4.565   0.822  1.3650  2.1623  0.2117
14354TIP3    H264554  -0.017   4.656   0.800  0.1235  0.6597  0.5922
14355TIP3   OH264555   2.115   3.213   0.782  0.3015 -0.4326  0.0759
14355TIP3    H164556   2.177   3.280   0.751  1.5513 -1.8528 -0.5915
14355TIP3    H264557   2.140   3.198   0.873  1.2338 -1.2951 -0.3104
14356TIP3   OH264558   2.258   2.067   2.029 -0.0158  0.0096  0.1225
14356TIP3    H164559   2.347   2.093   2.052 -0.5287  1.2540  0.7532
14356TIP3    H264560   2.205   2.144   2.047 -1.2889 -0.8485  0.1344
14357TIP3   OH264561   1.925   6.215  15.913  0.5169 -0.1982 -0.0064
14357TIP3    H164562   1.933   6.126  15.880  1.5984  0.0716 -0.5119
14357TIP3    H264563   1.960   6.270  15.843 -0.0825  0.6302  0.3215
14358TIP3   OH264564   2.595   4.368  11.469  0.0531  0.0428  0.1648
14358TIP3    H164565   2.570   4.420  11.545 -1.6688 -1.3412  0.6079
14358TIP3    H264566   2.670   4.316  11.499 -1.3498 -1.3781  1.3744
14359TIP3   OH264567   4.371   5.950   3.119 -0.0554 -0.1623  0.1478
14359TIP3    H164568   4.432   5.998   3.063 -0.7637  1.0073  0.3492
14359TIP3    H264569   4.424   5.919   3.192  0.2673  1.0405  0.4422
14360TIP3   OH264570   4.475   4.083  16.890 -0.8917  0.0627  0.0644
14360TIP3    H164571   4.506   4.107  16.978  0.1728 -0.3664 -0.1820
14360TIP3    H264572   4.382   4.109  16.890 -0.7060  0.8071  1.0363
14361TIP3   OH264573   2.450   4.905   4.288  0.0473 -0.2511 -0.4681
14361TIP3    H164574   2.521   4.943   4.340  0.2373 -0.3950 -0.6231
14361TIP3    H264575   2.373   4.956   4.312  0.0733 -0.5136  0.1800
14362TIP3   OH264576   0.284   0.425  17.024 -0.3270 -0.1136  0.1112
14362TIP3    H164577   0.287   0.446  16.931 -2.8895 -2.4628 -0.6158
14362TIP3    H264578   0.205   0.467  17.056  0.3413  0.3764  1.1843
14363TIP3   OH264579   3.118   2.419   4.402  0.8105  0.0750  0.9593
14363TIP3    H164580   3.207   2.439   4.431  0.7989 -1.7367  2.4522
14363TIP3    H264581   3.124   2.420   4.306  2.3087  0.5030  1.0211
14364TIP3   OH264582   2.678   2.828   3.696 -0.3830 -1.0184  0.4544
14364TIP3    H164583   2.632   2.884   3.632 -0.0210 -0.7083  0.4628
14364TIP3    H264584   2.618   2.823   3.770 -0.7911 -1.3478  0.1096
14365TIP3   OH264585   1.433   3.056   2.793  0.0412 -0.5161  0.9003
14365TIP3    H164586   1.479   3.139   2.806 -2.0260  1.0636 -1.0869
14365TIP3    H264587   1.502   2.995   2.766  1.3981  0.9688  0.8558
14366TIP3   OH264588   1.891   1.509  13.638 -0.4969 -0.4468 -0.2237
14366TIP3    H164589   1.832   1.453  13.586  0.8195 -1.5786 -0.5732
14366TIP3    H264590   1.885   1.595  13.596 -1.4269 -0.6898 -0.6241
14367TIP3   OH264591   0.893   4.986   3.705  0.0996 -0.6531  1.2942
14367TIP3    H164592   0.801   5.013   3.707 -0.1899 -1.4316  0.0280
14367TIP3    H264593   0.932   5.040   3.637 -0.3550 -2.8441 -0.8602
14368TIP3   OH264594   6.077   0.913   5.212 -0.0545 -0.0219  0.3436
14368TIP3    H164595   6.163   0.876   5.231 -0.2763  0.1245  1.7725
14368TIP3    H264596   6.061   0.891   5.121  1.6918  0.3569 -0.0969
14369TIP3   OH264597   1.145   5.467  11.668 -0.3368 -0.3523 -0.1238
14369TIP3    H164598   1.231   5.502  11.694 -0.8376  0.3579  0.6327
14369TIP3    H264599   1.165   5.382  11.629  0.6363 -0.7142  1.0684
14370TIP3   OH264600   3.089   6.747   0.070 -0.2069 -0.4684  0.3665
14370TIP3    H164601   3.037   6.725   0.147  0.2563 -2.3438  0.1745
14370TIP3    H264602   3.176   6.712   0.089  0.1815 -0.0539 -0.5920
14371TIP3   OH264603   3.969   5.190   4.610 -0.6432 -0.6392  0.0086
14371TIP3    H164604   3.926   5.275   4.595 -2.8125 -1.7475 -0.4144
14371TIP3    H264605   4.051   5.197   4.561 -1.0023  1.0236 -0.4428
14372TIP3   OH264606   6.561   2.712   1.540 -0.1962  0.8880  0.3492
14372TIP3    H164607   6.501   2.753   1.603  0.8282  0.7553  1.4301
14372TIP3    H264608   6.586   2.630   1.581 -1.3119 -0.3392 -1.2822
14373TIP3   OH264609   0.960   5.983  16.711 -0.3811  0.4387 -0.5762
14373TIP3    H164610   0.995   5.896  16.691  3.0779  1.8168 -1.2090
14373TIP3    H264611   0.980   5.996  16.804  2.0057  1.6174 -1.1663
14374TIP3   OH264612   6.055   5.877   1.251  0.6239  0.1226  0.1114
14374TIP3    H164613   5.992   5.947   1.265 -0.5781 -0.4804 -1.8367
14374TIP3    H264614   6.140   5.921   1.247 -0.1424  1.5379 -1.4384
14375TIP3   OH264615   4.182   4.565  15.695 -0.2943 -0.7312  0.0342
14375TIP3    H164616   4.159   4.657  15.708 -0.5394 -0.7024 -0.5817
14375TIP3    H264617   4.116   4.532  15.634  0.6835 -0.9294 -0.9471
14376TIP3   OH264618   2.898   0.832  15.047 -0.6079 -0.1540  0.4989
14376TIP3    H164619   2.896   0.739  15.069 -0.2470  0.0513  1.4509
14376TIP3    H264620   2.836   0.873  15.108  0.0979  0.3706  0.8879
14377TIP3   OH264621   0.956   3.289   5.181 -0.1975  0.3548  0.0371
14377TIP3    H164622   0.897   3.217   5.204  0.2964 -0.1181 -0.1757
14377TIP3    H264623   1.004   3.307   5.261  1.0813 -0.8807 -0.4039
14378TIP3   OH264624   0.366   4.676  16.370  0.3347 -0.8270 -0.4600
14378TIP3    H164625   0.340   4.708  16.284  0.4146  0.1222 -0.1391
14378TIP3    H264626   0.381   4.755  16.422 -2.3365 -1.3128  1.2409
14379TIP3   OH264627   6.537   6.117   1.514  0.1413 -0.4331 -0.6638
14379TIP3    H164628   6.618   6.066   1.514 -0.2097 -1.0128 -1.6710
14379TIP3    H264629   6.468   6.052   1.508 -0.3920  0.0764 -0.0938
14380TIP3   OH264630   6.411   0.520  15.647 -0.3917 -0.3165 -0.2649
14380TIP3    H164631   6.503   0.544  15.660 -0.7914 -0.1133  2.7022
14380TIP3    H264632   6.365   0.603  15.637 -0.5582 -0.2616  0.8307
14381TIP3   OH264633   3.426   5.497   1.234 -0.3273  0.1491  0.1544
14381TIP3    H164634   3.383   5.481   1.150  0.7055  0.0123 -0.3530
14381TIP3    H264635   3.469   5.581   1.224  2.5100 -1.2802 -0.6313
14382TIP3   OH264636   0.127   5.985  14.943  0.2722  0.5075  0.4319
14382TIP3    H164637   0.179   5.987  15.024 -0.2666  1.1613  0.7759
14382TIP3    H264638   0.175   5.926  14.885 -0.5720 -1.9821  2.0701
14383TIP3   OH264639   1.318   2.731  12.109 -0.1567  0.1585  0.9537
14383TIP3    H164640   1.393   2.731  12.049 -0.8984 -1.4327 -0.0353
14383TIP3    H264641   1.290   2.822  12.113  0.5164  0.4380 -0.3478
14384TIP3   OH264642   4.921   0.704  12.999 -0.5264  0.3032  0.3988
14384TIP3    H164643   5.010   0.695  13.032 -0.0303  1.4511 -0.5705
14384TIP3    H264644   4.928   0.764  12.925 -1.7734 -1.2446 -1.0566
14385TIP3   OH264645   6.464   3.810   0.784  0.4498 -0.0297 -0.5016
14385TIP3    H164646   6.430   3.887   0.739  0.0027  1.4685  2.1544
14385TIP3    H264647   6.429   3.736   0.736  0.9046  1.3702 -3.1848
14386TIP3   OH264648   2.213   1.601   5.437 -0.2040 -0.8131  0.1016
14386TIP3    H164649   2.246   1.685   5.469 -0.5824 -0.2268 -1.0120
14386TIP3    H264650   2.270   1.579   5.363 -0.2412 -1.4362  0.2521
14387TIP3   OH264651   1.754   0.975   6.189  0.2228 -0.3344 -0.1560
14387TIP3    H164652   1.719   0.938   6.108  0.5954 -0.5758 -0.2083
14387TIP3    H264653   1.677   0.992   6.243 -0.0185 -0.2894 -0.5125
14388TIP3   OH264654   2.389   2.883  13.399  0.2414  0.0317  0.4522
14388TIP3    H164655   2.306   2.930  13.390 -0.4159 -0.9334  1.2287
14388TIP3    H264656   2.417   2.902  13.488  1.4944  1.3232 -0.1829
14389TIP3   OH264657   5.627   3.824   3.327 -0.3099  0.1522 -0.1536
14389TIP3    H164658   5.665   3.812   3.240  1.8508  2.0467  0.4285
14389TIP3    H264659   5.575   3.905   3.319  2.6407  2.3477  0.9899
14390TIP3   OH264660   2.137   0.411  16.193  0.0222 -0.9590  0.6865
14390TIP3    H164661   2.222   0.436  16.229  0.1660 -0.6453  0.1413
14390TIP3    H264662   2.133   0.454  16.108 -0.5225 -1.2829  0.5404
14391TIP3   OH264663   2.670   5.592  15.814 -0.1150 -0.0024  0.5125
14391TIP3    H164664   2.606   5.538  15.861  0.4810 -2.2554 -1.0936
14391TIP3    H264665   2.755   5.563  15.847  0.2296 -0.1566 -0.4741
14392TIP3   OH264666   0.917   2.925  16.819 -0.5517  0.3003  0.0743
14392TIP3    H164667   0.973   3.001  16.832 -0.2574  0.1631 -0.3577
14392TIP3    H264668   0.959   2.855  16.868 -1.7060  0.7934  1.8702
14393TIP3   OH264669   0.558   4.229   0.241 -0.1106 -0.4078 -0.3968
14393TIP3    H164670   0.602   4.218   0.157 -1.3527 -0.2113 -1.1063
14393TIP3    H264671   0.474   4.270   0.219 -0.9017 -1.2967  0.8129
14394TIP3   OH264672   2.884   0.882  12.493  0.0889 -0.6426  0.0471
14394TIP3    H164673   2.944   0.851  12.561 -0.1310 -1.5599 -0.1623
14394TIP3    H264674   2.941   0.911  12.421  0.4457  2.5244  1.4317
14395TIP3   OH264675   4.065   0.185   1.287  0.5030  0.3879 -0.2567
14395TIP3    H164676   4.018   0.164   1.206  0.5440  0.2665 -0.2496
14395TIP3    H264677   3.996   0.205   1.350  0.4361 -0.2488 -0.1171
14396TIP3   OH264678   2.102   4.759  16.604  0.2929  0.1941 -0.3517
14396TIP3    H164679   2.047   4.705  16.659 -0.3782  0.6923 -0.5265
14396TIP3    H264680   2.191   4.745  16.637  0.1315 -0.9931 -0.3864
14397TIP3   OH264681   6.220   6.423   3.742  0.1481 -0.4056  0.1387
14397TIP3    H164682   6.216   6.510   3.782 -1.3245 -0.8259  1.0021
14397TIP3    H264683   6.201   6.363   3.814  0.3396 -1.3954 -0.6122
14398TIP3   OH264684   2.514   4.956   4.621 -0.1320 -0.0101 -0.3628
14398TIP3    H164685   2.546   4.972   4.710  0.6979 -1.1603 -0.4290
14398TIP3    H264686   2.418   4.952   4.630 -0.2066  2.0158  0.0877
14399TIP3   OH264687   5.329   6.501   4.201  0.1867 -0.1309  0.4570
14399TIP3    H164688   5.234   6.495   4.199 -0.0169  1.1273  3.2192
14399TIP3    H264689   5.350   6.569   4.137 -0.5955 -1.3603 -1.1853
14400TIP3   OH264690   0.614   5.149   3.857  0.1832  0.2582  0.1220
14400TIP3    H164691   0.550   5.079   3.865  0.0146  0.4152  0.1411
14400TIP3    H264692   0.696   5.110   3.888  0.2638 -0.1758 -0.6212
14401TIP3   OH264693   6.288   0.572   3.354  0.5786 -0.0149 -0.8659
14401TIP3    H164694   6.263   0.559   3.446 -0.1562 -2.0024 -1.3188
14401TIP3    H264695   6.220   0.629   3.318  1.5132  1.8084  0.0602
14402TIP3   OH264696   5.738   3.054   4.585  0.3215  0.3347 -0.0819
14402TIP3    H164697   5.831   3.076   4.597  0.3067  0.6074 -0.4334
14402TIP3    H264698   5.694   3.091   4.662  0.5005  0.2294  0.0712
14403TIP3   OH264699   5.870   6.693   2.290 -0.3686  0.4412 -0.3062
14403TIP3    H164700   5.808   6.626   2.318  1.0500 -0.1860  1.5735
14403TIP3    H264701   5.921   6.652   2.221 -1.2672  0.5771 -1.0752
14404TIP3   OH264702   5.867   2.694  12.962 -0.1308 -0.4415 -0.1224
14404TIP3    H164703   5.924   2.641  13.018  0.2343 -0.9772 -0.9851
14404TIP3    H264704   5.915   2.777  12.952  1.3201 -1.4575 -2.1544
14405TIP3   OH264705   4.395   5.562  15.080 -0.3674  0.4471 -0.2142
14405TIP3    H164706   4.457   5.626  15.116 -0.5642  1.5739 -1.7787
14405TIP3    H264707   4.402   5.572  14.985  0.0711 -2.3513 -0.5603
14406TIP3   OH264708   4.547   1.815  16.908 -0.2319  0.0535  0.1768
14406TIP3    H164709   4.453   1.826  16.893 -0.5883 -2.4297  0.2674
14406TIP3    H264710   4.587   1.837  16.824 -0.9061  0.7780  0.0281
14407TIP3   OH264711   4.387   1.417   4.041 -0.3836  0.4662 -0.6786
14407TIP3    H164712   4.389   1.328   4.004  1.7243  0.3258 -0.3562
14407TIP3    H264713   4.467   1.458   4.009 -0.4272  1.6518  0.6408
14408TIP3   OH264714   6.275   3.254   3.449 -0.1739 -0.2527  0.0199
14408TIP3    H164715   6.249   3.337   3.490  0.3442 -0.4558  0.7951
14408TIP3    H264716   6.288   3.276   3.357 -1.9126  0.0977 -0.1766
14409TIP3   OH264717   6.060   0.580  16.577 -0.1701  0.4501  0.2846
14409TIP3    H164718   6.119   0.626  16.517  0.6930  1.0823  1.5726
14409TIP3    H264719   6.118   0.535  16.639 -1.0321  0.1673  0.9108
14410TIP3   OH264720   5.615   6.253   6.488  0.1970  0.7989  0.3030
14410TIP3    H164721   5.651   6.166   6.476  0.3264  0.9871 -0.7394
14410TIP3    H264722   5.564   6.270   6.409 -0.0925  1.5456  0.6336
14411TIP3   OH264723   6.339   1.082  15.853  0.0137 -0.0989 -0.5718
14411TIP3    H164724   6.284   1.005  15.835  2.3937 -1.2627 -3.6910
14411TIP3    H264725   6.290   1.155  15.817 -0.3942 -0.8109 -1.5057
14412TIP3   OH264726   1.961   4.282  12.537 -0.4023 -0.0984 -0.3295
14412TIP3    H164727   1.996   4.244  12.617  0.4649  1.9591  0.3334
14412TIP3    H264728   1.866   4.282  12.550 -0.3036 -0.3900  0.4080
14413TIP3   OH264729   0.454   0.206   0.216 -0.3487 -0.1161  0.0438
14413TIP3    H164730   0.418   0.216   0.128  2.1487  0.1162 -1.0188
14413TIP3    H264731   0.504   0.286   0.230  0.7880 -0.9623  0.9337
14414TIP3   OH264732   1.426   6.267   1.253  0.3440  0.0319  0.3948
14414TIP3    H164733   1.520   6.273   1.269  0.4198  1.6138 -0.4109
14414TIP3    H264734   1.418   6.203   1.183  1.0470  1.2601 -0.8723
14415TIP3   OH264735   3.914   5.461   2.154 -0.8680  0.0227 -0.1605
14415TIP3    H164736   3.855   5.460   2.079 -2.3449 -0.3291  0.9689
14415TIP3    H264737   3.859   5.486   2.228  0.6585  0.8824  0.7473
14416TIP3   OH264738   3.331   1.248  17.214 -0.1656 -0.0108  0.2051
14416TIP3    H164739   3.420   1.227  17.185  0.0292  0.7283  0.2624
14416TIP3    H264740   3.275   1.187  17.166  0.5394 -2.0000  1.7774
14417TIP3   OH264741   5.063   5.587  16.880  0.5245 -0.2133 -0.6214
14417TIP3    H164742   4.988   5.567  16.937  1.4257 -0.3062  0.5665
14417TIP3    H264743   5.040   5.548  16.796 -1.3947  0.9840 -0.7061
14418TIP3   OH264744   2.098   3.551  14.089  0.4365 -0.4054  0.4056
14418TIP3    H164745   2.009   3.586  14.094 -0.1795 -1.6980 -0.8292
14418TIP3    H264746   2.119   3.550  13.996  3.6799  4.2967  0.7497
14419TIP3   OH264747   6.026   0.417   4.975  0.4445  0.0380  0.3418
14419TIP3    H164748   6.038   0.322   4.975  0.9476  0.0857 -0.7406
14419TIP3    H264749   5.933   0.430   4.957  0.2186 -0.2468  1.2504
14420TIP3   OH264750   5.462   5.722   5.479  0.6311 -0.3823  0.1891
14420TIP3    H164751   5.537   5.674   5.514  1.3256  0.1328 -0.5534
14420TIP3    H264752   5.457   5.695   5.387 -0.9412 -1.4443  0.5485
14421TIP3   OH264753   1.115   1.169  11.574 -0.4008 -0.2999 -0.1120
14421TIP3    H164754   1.161   1.113  11.635  0.6316  1.3754  0.7217
14421TIP3    H264755   1.076   1.238  11.628 -1.7023 -0.2238 -1.0759
14422TIP3   OH264756   5.469   0.214  14.520  0.5000  0.4273 -0.0946
14422TIP3    H164757   5.471   0.152  14.593  0.5444  0.6682  0.1070
14422TIP3    H264758   5.475   0.159  14.442 -2.5054 -0.1369 -0.0680
14423TIP3   OH264759   2.221   2.457  16.132  0.6473  0.6507 -0.0646
14423TIP3    H164760   2.166   2.379  16.142  2.7893 -0.8894  0.5723
14423TIP3    H264761   2.216   2.500  16.218 -0.3476  1.1024 -0.3381
14424TIP3   OH264762   5.444   2.275  15.805  0.7900  0.0983  0.0391
14424TIP3    H164763   5.438   2.214  15.878 -1.2313  1.4696  1.1098
14424TIP3    H264764   5.355   2.307  15.793  1.3467  1.0500 -2.0676
14425TIP3   OH264765   2.149   2.840  12.910  1.0037  0.2929 -0.1109
14425TIP3    H164766   2.090   2.866  12.980  0.3409  1.0568 -0.9317
14425TIP3    H264767   2.121   2.751  12.887 -0.4215  0.9595 -1.0729
14426TIP3   OH264768   3.774   0.516  15.901 -0.2052  0.4259 -0.0929
14426TIP3    H164769   3.771   0.460  15.979  0.1814 -1.3818 -1.3305
14426TIP3    H264770   3.836   0.585  15.924  0.4688 -0.4946  0.9503
14427TIP3   OH264771   6.547   5.462  11.198  0.2436  0.2695  0.5257
14427TIP3    H164772   6.596   5.433  11.121  1.2393  2.2393  0.3411
14427TIP3    H264773   6.463   5.491  11.163 -0.7912 -2.2399  0.7222
14428TIP3   OH264774   3.081   3.515   3.794 -0.3788 -0.7400  0.3145
14428TIP3    H164775   3.010   3.545   3.851  1.1062 -0.0016  1.8671
14428TIP3    H264776   3.037   3.466   3.725 -2.4106 -0.0736  1.0616
14429TIP3   OH264777   3.612   0.064   4.448 -0.0040 -0.0271 -0.4130
14429TIP3    H164778   3.588   0.118   4.524 -1.3878 -0.4326 -0.5416
14429TIP3    H264779   3.675   0.001   4.483 -0.4345 -0.0502  0.3430
14430TIP3   OH264780   5.251   5.749  17.199  0.3371 -0.5875  0.1779
14430TIP3    H164781   5.172   5.757  17.145 -0.6133 -0.8436  1.4795
14430TIP3    H264782   5.250   5.827  17.254 -0.1819 -1.6158  1.6700
14431TIP3   OH264783   4.606   5.484   0.474 -0.0053  0.4402 -0.7026
14431TIP3    H164784   4.699   5.462   0.466  0.1129  0.5703  0.1555
14431TIP3    H264785   4.596   5.514   0.565 -0.9078  0.3302 -0.7516
14432TIP3   OH264786   5.027   5.369  13.899 -0.3800  0.2852 -0.3894
14432TIP3    H164787   5.007   5.293  13.844 -0.3400 -0.6432  0.8209
14432TIP3    H264788   4.973   5.439  13.864 -0.4436 -0.3022 -1.5259
14433TIP3   OH264789   6.375   2.542  13.920 -0.9759  0.0681 -0.2349
14433TIP3    H164790   6.453   2.578  13.877 -1.9812  1.4717 -0.9296
14433TIP3    H264791   6.383   2.447  13.908  0.6794  0.1752 -0.1764
14434TIP3   OH264792   4.317   5.650  16.495  0.4538 -0.1893 -0.0923
14434TIP3    H164793   4.331   5.587  16.424 -0.0735 -0.4658  0.0436
14434TIP3    H264794   4.222   5.664  16.497  0.1186 -2.1894  2.2512
14435TIP3   OH264795   3.194   6.380  16.507  0.2220 -0.5345 -0.1041
14435TIP3    H164796   3.284   6.390  16.478 -0.0085  0.0860 -0.6339
14435TIP3    H264797   3.196   6.306  16.568  0.7193 -1.9319 -1.7408
14436TIP3   OH264798   4.701   5.121  10.978 -0.2813 -0.0230  0.2028
14436TIP3    H164799   4.650   5.047  10.946 -1.7861  0.8475  0.4859
14436TIP3    H264800   4.686   5.190  10.913  0.2131  0.3725  0.4995
14437TIP3   OH264801   1.161   4.425   6.229  0.5542 -0.0050  0.2899
14437TIP3    H164802   1.241   4.393   6.187  0.5147  1.1462 -0.6987
14437TIP3    H264803   1.111   4.346   6.246  0.9485 -0.5906 -1.0881
14438TIP3   OH264804   4.572   5.317  14.265  0.0744  0.3979 -0.5686
14438TIP3    H164805   4.493   5.313  14.318 -1.5867 -1.0644 -2.9419
14438TIP3    H264806   4.563   5.398  14.215  0.1457  0.2957 -0.7477
14439TIP3   OH264807   0.532   2.987   5.001  0.5146 -0.6068  0.5248
14439TIP3    H164808   0.620   2.951   4.998  0.9743  0.4517  0.8426
14439TIP3    H264809   0.483   2.937   4.936  1.2091 -1.5548  0.7140
14440TIP3   OH264810   1.083   4.752   2.116 -0.3544 -0.0773  0.0273
14440TIP3    H164811   1.049   4.841   2.105  0.8066  0.1162 -2.9063
14440TIP3    H264812   1.004   4.698   2.123 -1.1644  0.9312 -0.8214
14441TIP3   OH264813   1.594   4.758  13.807 -0.4092  0.3037  0.0113
14441TIP3    H164814   1.575   4.744  13.714 -0.4498  0.8759 -0.0727
14441TIP3    H264815   1.653   4.834  13.807 -1.1851  0.9185  0.5149
14442TIP3   OH264816   5.897   2.634  12.578  0.4036  0.1057 -0.0439
14442TIP3    H164817   5.838   2.679  12.638  0.7437  1.4493 -0.6646
14442TIP3    H264818   5.980   2.628  12.625  0.5904  0.8992 -0.2593
14443TIP3   OH264819   5.262   3.070   1.945  0.3468  0.3276 -0.0372
14443TIP3    H164820   5.287   3.039   2.032 -2.4404  0.5405  0.9245
14443TIP3    H264821   5.254   2.990   1.893  1.6864  0.1754 -0.0588
14444TIP3   OH264822   1.220   5.227  15.829 -0.2380  0.2843 -0.6246
14444TIP3    H164823   1.178   5.147  15.861 -1.1319  0.2156 -1.9086
14444TIP3    H264824   1.148   5.288  15.813  0.3944  1.1767 -0.1498
14445TIP3   OH264825   3.872   1.177   0.759  0.0359  0.3698 -0.1342
14445TIP3    H164826   3.939   1.234   0.721 -0.8261  1.4152 -0.1375
14445TIP3    H264827   3.897   1.168   0.851  1.0699 -0.5927 -0.4942
14446TIP3   OH264828   5.032   2.095  12.082 -0.2429 -0.0253  0.4189
14446TIP3    H164829   5.123   2.072  12.064 -0.2173  0.3709  0.0372
14446TIP3    H264830   4.986   2.011  12.086 -0.3339 -0.1425 -1.9183
14447TIP3   OH264831   4.824   3.508   1.392  0.5905 -0.4963 -0.6017
14447TIP3    H164832   4.764   3.444   1.430  2.3943 -2.3651 -0.7151
14447TIP3    H264833   4.794   3.593   1.426 -0.9078 -1.5540  0.8590
14448TIP3   OH264834   1.848   4.267   2.380  0.3546 -0.6381  0.2309
14448TIP3    H164835   1.817   4.182   2.348 -1.2453 -0.2541  0.6618
14448TIP3    H264836   1.769   4.311   2.410  1.1128  1.1527 -0.2862
14449TIP3   OH264837   2.081   6.200   3.583 -0.0527  0.4812  0.0395
14449TIP3    H164838   2.142   6.175   3.514 -1.1548  0.1932 -0.8506
14449TIP3    H264839   1.997   6.164   3.555 -0.2660 -0.9348  2.2326
14450TIP3   OH264840   3.902   5.527   4.610  0.1402 -0.0517  0.1897
14450TIP3    H164841   3.840   5.557   4.543 -0.2997  0.5710  0.8612
14450TIP3    H264842   3.985   5.568   4.586 -0.2646  1.0442  0.6262
14451TIP3   OH264843   2.675   0.387   4.401  0.2185  0.5550  0.1512
14451TIP3    H164844   2.721   0.452   4.348  1.0112 -0.3781 -0.3432
14451TIP3    H264845   2.672   0.425   4.489  0.7464  1.2200 -0.1103
14452TIP3   OH264846   6.400   0.818   1.539  0.7547  0.1946  0.9116
14452TIP3    H164847   6.474   0.870   1.508  0.3001  0.9015  0.9774
14452TIP3    H264848   6.433   0.773   1.616  1.1095  0.5305  0.9588
14453TIP3   OH264849   4.632   0.997  16.318 -0.3613  0.3364 -0.1917
14453TIP3    H164850   4.726   0.989  16.331 -0.0869  1.9793 -0.8696
14453TIP3    H264851   4.607   0.916  16.274  0.5023 -0.6338  1.0315
14454TIP3   OH264852   3.836   3.622   5.637 -0.5269 -0.4182 -0.2336
14454TIP3    H164853   3.751   3.592   5.606 -2.1425  2.3005  1.1629
14454TIP3    H264854   3.836   3.602   5.730  0.0071  0.3042 -0.0643
14455TIP3   OH264855   2.996   6.545   2.054 -0.0029 -0.4034 -0.5304
14455TIP3    H164856   3.023   6.472   1.997 -0.5905  0.7874 -2.4339
14455TIP3    H264857   3.039   6.621   2.016 -0.7390  0.5010  0.4091
14456TIP3   OH264858   0.792   3.041   1.805 -0.0051  0.0644 -0.3910
14456TIP3    H164859   0.793   3.080   1.718 -1.2468  0.1924 -0.3634
14456TIP3    H264860   0.755   3.109   1.862 -0.1833 -0.3811  0.0398
14457TIP3   OH264861   3.451   6.620  14.429 -0.3379 -0.8862  0.0060
14457TIP3    H164862   3.534   6.599  14.472 -1.2132  0.4909  2.5622
14457TIP3    H264863   3.399   6.541  14.438  0.2296 -1.3306 -0.4942
14458TIP3   OH264864   0.256   5.478  11.860 -1.1343  0.1807  0.3432
14458TIP3    H164865   0.172   5.436  11.880 -0.1479 -1.0822  2.1043
14458TIP3    H264866   0.290   5.506  11.945  0.3593  0.4312 -0.3007
14459TIP3   OH264867   2.102   0.429   0.306  0.0454 -0.0118  0.1001
14459TIP3    H164868   2.172   0.392   0.252  1.2067 -0.8752  2.0685
14459TIP3    H264869   2.062   0.354   0.350 -0.6855  0.6659  0.6319
14460TIP3   OH264870   4.223   5.436   6.437  0.9351  0.1379 -0.1761
14460TIP3    H164871   4.266   5.510   6.395  1.0956  0.2676  0.2133
14460TIP3    H264872   4.187   5.385   6.364 -0.4307  1.3575 -0.4200
14461TIP3   OH264873   4.406   5.537  12.787 -0.2526 -0.6060  0.0520
14461TIP3    H164874   4.388   5.625  12.821 -0.3741 -1.1444  1.4174
14461TIP3    H264875   4.495   5.544  12.750 -0.3239  0.1242  0.0025
14462TIP3   OH264876   6.198   6.801   5.435  0.4086  0.8143 -0.1380
14462TIP3    H164877   6.168   6.769   5.350 -0.2416  1.1061 -0.0281
14462TIP3    H264878   6.155   6.886   5.445  1.5530  1.4007 -0.1151
14463TIP3   OH264879   5.702   2.670  12.766  0.3194 -0.0338  0.3923
14463TIP3    H164880   5.758   2.696  12.839  0.2719  0.9051  0.1110
14463TIP3    H264881   5.614   2.694  12.795  0.2977  0.3053  0.0543
14464TIP3   OH264882   6.295   6.237   2.828 -0.0672  0.2667  0.1153
14464TIP3    H164883   6.371   6.180   2.813  1.1943  1.4626  1.6070
14464TIP3    H264884   6.239   6.187   2.888  0.0946 -0.1680 -0.0932
14465TIP3   OH264885   2.393   3.830   5.421 -0.1314 -0.6633 -0.6616
14465TIP3    H164886   2.351   3.784   5.349  0.3685 -1.4528 -0.4658
14465TIP3    H264887   2.479   3.787   5.430 -1.0529 -2.2367  1.8923
14466TIP3   OH264888   3.785   0.341  14.224 -0.2774 -0.0199  0.4965
14466TIP3    H164889   3.878   0.325  14.205 -0.2083 -0.4905  1.2091
14466TIP3    H264890   3.780   0.434  14.243 -0.6548  0.9943 -3.5577
14467TIP3   OH264891   6.513   3.113  15.443 -0.0087  0.4442 -0.0735
14467TIP3    H164892   6.481   3.073  15.525 -0.0782  0.8471  0.0984
14467TIP3    H264893   6.575   3.050  15.408 -1.1626 -0.4843 -0.5343
14468TIP3   OH264894   3.274   2.993  14.218  0.2765 -0.1133 -0.0065
14468TIP3    H164895   3.185   3.029  14.224  1.8398  4.2861  0.3616
14468TIP3    H264896   3.316   3.045  14.150  2.7349 -1.8104  0.1021
14469TIP3   OH264897   6.250   5.906   2.706 -0.2258  0.0752 -0.0262
14469TIP3    H164898   6.277   5.937   2.619 -0.8787  1.6776  0.3057
14469TIP3    H264899   6.238   5.812   2.695 -0.1093  0.2134 -1.6272
14470TIP3   OH264900   2.573   5.542   1.419 -0.2739  0.0750 -1.1815
14470TIP3    H164901   2.478   5.549   1.413 -0.2226 -0.0034 -2.2628
14470TIP3    H264902   2.600   5.626   1.456 -0.5784  1.2297 -3.3949
14471TIP3   OH264903   5.214   4.310  16.001  0.0981 -0.0877  0.6483
14471TIP3    H164904   5.123   4.308  15.974  0.1533 -0.0818  0.4623
14471TIP3    H264905   5.257   4.369  15.939  0.2149 -0.0324  0.7795
14472TIP3   OH264906   5.017   1.063   0.889  0.4667  0.0558  0.3440
14472TIP3    H164907   5.068   1.018   0.821  2.5474  2.4509  0.1362
14472TIP3    H264908   5.073   1.059   0.967  0.4065  1.5479  0.5025
14473TIP3   OH264909   2.501   2.256  11.914 -0.4164  0.1918  0.2270
14473TIP3    H164910   2.437   2.223  11.977  1.1336 -1.0016  1.2451
14473TIP3    H264911   2.487   2.351  11.913 -2.7864 -0.0895 -0.2989
14474TIP3   OH264912   1.067   3.357   1.886  0.2402  0.5296  0.0157
14474TIP3    H164913   1.005   3.326   1.821 -0.3551  2.4106 -0.3797
14474TIP3    H264914   1.136   3.290   1.888 -1.5284 -1.3543  0.1302
14475TIP3   OH264915   6.133   3.725   3.191  0.3782  0.4282 -0.4565
14475TIP3    H164916   6.081   3.708   3.113  1.4644  1.1360 -1.3632
14475TIP3    H264917   6.206   3.664   3.185 -0.2360 -0.4611  0.7348
14476TIP3   OH264918   4.948   2.582   3.205  0.2099  0.1928  0.7378
14476TIP3    H164919   4.876   2.544   3.155 -0.7565  2.0074  0.6598
14476TIP3    H264920   4.988   2.508   3.250 -2.3111 -0.7714  1.5560
14477TIP3   OH264921   4.266   1.009   5.240 -0.0323 -0.7698 -1.0844
14477TIP3    H164922   4.284   1.085   5.295 -0.2340 -1.6801  0.3108
14477TIP3    H264923   4.200   1.038   5.178 -1.1393 -0.1648  0.3349
14478TIP3   OH264924   3.428   3.731   5.581 -0.3044 -0.5776 -0.1122
14478TIP3    H164925   3.378   3.682   5.646  0.3034 -0.1626  0.6856
14478TIP3    H264926   3.450   3.667   5.514  0.5503 -1.4449  0.9537
14479TIP3   OH264927   4.494   5.836   2.279  0.2119  0.6669 -0.3138
14479TIP3    H164928   4.493   5.819   2.185  0.2830  0.6991 -0.3206
14479TIP3    H264929   4.483   5.750   2.320  2.5905  0.3108 -0.3161
14480TIP3   OH264930   5.562   1.719   1.075  0.0172 -0.8325 -0.3316
14480TIP3    H164931   5.575   1.705   0.981  0.7843  0.4830 -0.4564
14480TIP3    H264932   5.519   1.640   1.106 -0.4807 -1.1790 -1.8408
14481TIP3   OH264933   4.770   4.360  12.828  0.5519 -0.5231 -0.4614
14481TIP3    H164934   4.737   4.300  12.761 -0.8487  0.0384 -0.3005
14481TIP3    H264935   4.720   4.339  12.907  0.2277  0.6615 -0.3305
14482TIP3   OH264936   2.745   4.892   2.148 -0.2670 -0.0450  0.1167
14482TIP3    H164937   2.735   4.938   2.065 -0.6439  1.2471  0.8551
14482TIP3    H264938   2.834   4.913   2.176 -1.0475  1.8214  1.3476
14483TIP3   OH264939   3.685   0.288  16.569 -0.7211  0.0202 -0.3256
14483TIP3    H164940   3.680   0.264  16.661  3.3314 -2.4849 -0.5171
14483TIP3    H264941   3.596   0.311  16.545 -1.8179  1.6396  4.3566
14484TIP3   OH264942   0.599   1.751   2.464 -0.0439  0.0802  0.3765
14484TIP3    H164943   0.662   1.820   2.485  0.2987  0.3489 -1.3770
14484TIP3    H264944   0.598   1.695   2.541  2.6759 -0.1763  0.3363
14485TIP3   OH264945   5.013   0.046   1.097  0.3890 -0.2853 -0.8856
14485TIP3    H164946   5.004   0.067   1.190  1.1579  1.1763 -1.1281
14485TIP3    H264947   4.979   0.123   1.051 -0.0756 -1.0282 -1.8332
14486TIP3   OH264948   6.602   5.368  13.772 -0.1770  0.4640  0.0855
14486TIP3    H164949   6.608   5.273  13.782  2.2734  0.5204 -0.3922
14486TIP3    H264950   6.627   5.403  13.857 -0.5403  0.6906  0.1008
14487TIP3   OH264951   0.990   2.067  17.190 -0.3179  0.4474  0.3330
14487TIP3    H164952   1.043   2.026  17.121 -1.1185 -2.4758  1.3069
14487TIP3    H264953   0.903   2.028  17.179 -1.1813  1.9905  1.3434
14488TIP3   OH264954   5.630   3.201  15.929 -0.0790  0.2085  0.3353
14488TIP3    H164955   5.620   3.153  16.011 -2.3635 -0.3547 -0.2019
14488TIP3    H264956   5.648   3.134  15.863 -4.2195 -0.2881 -0.5901
14489TIP3   OH264957   2.164   2.924   2.028 -0.1611  0.8293 -0.1913
14489TIP3    H164958   2.185   2.840   1.987 -0.2263 -0.3909  2.0666
14489TIP3    H264959   2.247   2.972   2.029  0.4946 -0.2587  0.6496
14490TIP3   OH264960   2.916   3.641  15.098 -0.1973  0.1061 -0.0710
14490TIP3    H164961   3.006   3.671  15.086 -0.5314  0.6995 -1.3021
14490TIP3    H264962   2.922   3.570  15.161  0.8537  1.5611  1.5455
14491TIP3   OH264963   4.355   5.928   1.286 -0.0010 -0.3920 -0.7832
14491TIP3    H164964   4.422   5.995   1.301 -0.6378  0.4431 -1.6057
14491TIP3    H264965   4.394   5.870   1.221  0.4196 -0.6556 -0.3112
14492TIP3   OH264966   0.210   0.619  14.116 -0.4020  0.2619  0.2425
14492TIP3    H164967   0.305   0.615  14.105 -0.2035  0.0227  1.7524
14492TIP3    H264968   0.195   0.701  14.163 -0.9540  0.3590 -0.1036
14493TIP3   OH264969   5.143   4.686  10.631 -0.5817  0.4982  0.1056
14493TIP3    H164970   5.186   4.677  10.716  0.7743  0.1814 -0.5841
14493TIP3    H264971   5.146   4.780  10.613 -0.5592  0.5257  0.2494
14494TIP3   OH264972   2.224   5.386   6.325 -0.0553  0.2979 -0.0782
14494TIP3    H164973   2.294   5.398   6.260  1.3554  0.1120  1.3436
14494TIP3    H264974   2.208   5.292   6.325 -0.7678  0.4070 -0.8390
14495TIP3   OH264975   2.440   3.021  17.034 -0.0330  0.0855  0.0853
14495TIP3    H164976   2.467   2.940  16.989  0.9612  0.1949  0.4713
14495TIP3    H264977   2.519   3.050  17.080 -0.4755  1.1096  0.2062
14496TIP3   OH264978   2.844   0.221   0.794  0.3467 -0.1063 -0.2430
14496TIP3    H164979   2.853   0.298   0.851  0.2602 -0.5514  0.3905
14496TIP3    H264980   2.802   0.254   0.715  0.8396  0.6036 -0.2157
14497TIP3   OH264981   5.100   2.785   4.770 -0.5666 -0.2050 -0.2374
14497TIP3    H164982   5.160   2.857   4.790 -2.4370  1.7464 -1.2108
14497TIP3    H264983   5.157   2.712   4.747  1.4204  1.0796  0.3523
14498TIP3   OH264984   3.489   3.293   1.427 -0.3508  0.0843 -0.2550
14498TIP3    H164985   3.529   3.375   1.457 -0.1674 -0.3888  0.8470
14498TIP3    H264986   3.531   3.275   1.343  0.8902  0.2248  0.3122
14499TIP3   OH264987   2.363   3.363  16.261 -0.2497  0.5800  0.2970
14499TIP3    H164988   2.423   3.414  16.207  2.0697 -2.7160 -0.5861
14499TIP3    H264989   2.421   3.308  16.314 -2.4980 -1.1168  1.1279
14500TIP3   OH264990   4.122   4.722   0.417 -0.3569  0.0349 -0.4554
14500TIP3    H164991   4.145   4.659   0.485 -0.9742 -0.7644 -0.9609
14500TIP3    H264992   4.157   4.684   0.336  2.8867  2.3267 -0.2975
14501TIP3   OH264993   3.203   1.077   5.844  0.1836  0.1269 -0.1947
14501TIP3    H164994   3.238   0.990   5.824  2.0182  0.7772 -0.0348
14501TIP3    H264995   3.212   1.085   5.939  0.5815  0.7023 -0.2751
14502TIP3   OH264996   2.186   3.477  14.611  0.6623 -0.3171  0.2696
14502TIP3    H164997   2.206   3.430  14.530  1.7094  0.2704  0.1693
14502TIP3    H264998   2.103   3.440  14.640 -0.1365 -0.0119 -1.4796
14503TIP3   OH264999   3.416   0.274   4.030 -0.0967 -0.1062 -0.6040
14503TIP3    H165000   3.364   0.347   4.065 -1.0024 -0.5356 -1.0390
14503TIP3    H265001   3.473   0.315   3.965  0.5420  0.4580  0.2718
14504TIP3   OH265002   0.917   3.743  12.116 -0.3507 -0.3433  0.0881
14504TIP3    H165003   0.994   3.740  12.173 -1.0921 -2.8844  1.0967
14504TIP3    H265004   0.843   3.723  12.174 -1.5929  0.4258 -1.1582
14505TIP3   OH265005   5.788   2.576   3.997  0.4970  0.5933  0.5267
14505TIP3    H165006   5.841   2.500   3.972 -0.6350 -0.4561  1.2186
14505TIP3    H265007   5.782   2.571   4.092 -1.1221  0.4754  0.4445
14506TIP3   OH265008   1.378   6.396  14.020  0.0783 -0.5172 -0.3855
14506TIP3    H165009   1.325   6.317  14.031  0.5068 -0.6318  1.0413
14506TIP3    H265010   1.461   6.375  14.064  0.0421  0.8789  0.3968
14507TIP3   OH265011   2.166   0.158   6.988 -0.2960  0.1364  0.0614
14507TIP3    H165012   2.150   0.245   7.024  0.1623  0.5803 -0.7819
14507TIP3    H265013   2.109   0.153   6.911 -1.3444 -0.8403  0.8791
14508TIP3   OH265014   3.419   5.826   2.660  0.2117 -0.4915  0.3072
14508TIP3    H165015   3.425   5.805   2.753  1.6337 -0.0257  0.3561
14508TIP3    H265016   3.384   5.747   2.619  0.4270 -1.0235  1.1310
14509TIP3   OH265017   5.455   3.296   0.185  0.1640 -0.8230  0.2516
14509TIP3    H165018   5.419   3.382   0.208  1.2711 -0.6013  1.2579
14509TIP3    H265019   5.378   3.241   0.170 -0.5686  0.1322  0.3661
14510TIP3   OH265020   2.000   5.069   3.151  0.1370  0.2369  0.0249
14510TIP3    H165021   2.020   5.162   3.143 -0.1561  0.3252  0.2675
14510TIP3    H265022   2.031   5.030   3.070 -0.3336  0.6542 -0.3604
14511TIP3   OH265023   0.640   0.563  14.085  0.2466  0.2919 -0.2985
14511TIP3    H165024   0.590   0.562  14.003  1.3797 -1.1253 -1.0176
14511TIP3    H265025   0.588   0.617  14.145 -1.7176 -0.4730 -1.2543
14512TIP3   OH265026   3.028   6.214  15.369  0.1881  0.1235 -0.5524
14512TIP3    H165027   2.938   6.209  15.338  0.1558  1.2616 -0.6753
14512TIP3    H265028   3.073   6.267  15.304  0.7529  0.2638 -0.0553
14513TIP3   OH265029   4.470   6.357   4.481  0.1424 -0.1494  0.2102
14513TIP3    H165030   4.512   6.395   4.558  0.8631  1.7340 -1.0555
14513TIP3    H265031   4.514   6.273   4.468  0.2365 -0.3422  1.6306
14514TIP3   OH265032   5.283   2.516   1.290  0.4503  0.1292 -0.1191
14514TIP3    H165033   5.266   2.572   1.214  0.5778 -1.6680 -1.5663
14514TIP3    H265034   5.372   2.485   1.278  1.2427  1.4280  1.9376
14515TIP3   OH265035   3.593   2.677   4.317 -0.1372  0.0653  0.0285
14515TIP3    H165036   3.672   2.656   4.366 -0.6197 -0.4785  0.6010
14515TIP3    H265037   3.620   2.742   4.252  0.6882  0.1708  0.4753
14516TIP3   OH265038   6.318   0.237   4.490 -0.1119 -0.0094  0.4449
14516TIP3    H165039   6.377   0.162   4.489 -0.0335  0.0324  1.2347
14516TIP3    H265040   6.376   0.313   4.497 -0.0460  0.3232 -2.4726
14517TIP3   OH265041   3.490   0.060   1.568 -0.3459  0.1010 -0.5345
14517TIP3    H165042   3.509   0.095   1.481  1.1981 -0.8037 -0.6000
14517TIP3    H265043   3.569   0.079   1.619 -1.0097  0.1176  0.5156
14518TIP3   OH265044   4.880   5.443  13.294 -0.1704  0.3298  0.7500
14518TIP3    H165045   4.828   5.364  13.308 -0.3548  0.2553 -0.2582
14518TIP3    H265046   4.823   5.515  13.323 -1.1878  0.3149 -1.0639
14519TIP3   OH265047   2.289   5.846  10.506 -0.2097  0.5638 -0.2495
14519TIP3    H165048   2.215   5.907  10.505 -0.3238  0.4608  0.7103
14519TIP3    H265049   2.250   5.762  10.483 -0.5681  0.3537  1.0158
14520TIP3   OH265050   5.108   2.445   3.468 -0.4084 -0.0760 -1.2007
14520TIP3    H165051   5.197   2.447   3.503 -1.4310 -2.2130  1.9129
14520TIP3    H265052   5.078   2.536   3.476  0.9648  0.3741 -0.7828
14521TIP3   OH265053   0.155   3.090  14.440 -0.2912  0.2089  0.9712
14521TIP3    H165054   0.081   3.130  14.487 -1.5941  1.2209 -1.7176
14521TIP3    H265055   0.118   3.013  14.397  0.5176  0.0556  0.5304
14522TIP3   OH265056   0.895   1.023  16.539 -0.1744 -0.3761  0.1841
14522TIP3    H165057   0.896   1.061  16.627  0.0641  0.1562 -0.0427
14522TIP3    H265058   0.835   1.079  16.489 -0.8086 -1.0525  0.1658
14523TIP3   OH265059   1.262   4.398   0.626 -0.6011 -0.6881 -0.4019
14523TIP3    H165060   1.354   4.377   0.641 -0.2649  0.8153 -0.2346
14523TIP3    H265061   1.257   4.426   0.535 -0.7613 -0.1619 -0.2399
14524TIP3   OH265062   2.204   5.046  13.358 -0.2077  0.0108 -0.1221
14524TIP3    H165063   2.280   5.101  13.377  1.2029 -1.9490  0.0771
14524TIP3    H265064   2.213   5.024  13.265  0.7484 -2.0500  0.4136
14525TIP3   OH265065   3.522   4.211   3.446  0.1428 -0.4647 -0.3815
14525TIP3    H165066   3.459   4.283   3.443 -0.1869 -0.7686 -1.4067
14525TIP3    H265067   3.515   4.170   3.359  0.3784 -1.6823  0.1565
14526TIP3   OH265068   4.519   1.387  14.087  0.2296  0.4504 -0.8571
14526TIP3    H165069   4.603   1.344  14.100  0.3710  1.0311  0.2283
14526TIP3    H265070   4.455   1.327  14.124  0.5530  1.7191  1.9955
14527TIP3   OH265071   2.208   4.967  10.426  0.6826  0.1547 -1.0449
14527TIP3    H165072   2.186   4.909  10.499  0.1664 -0.0244 -1.3404
14527TIP3    H265073   2.264   4.914  10.369 -0.0312 -0.1569 -1.4647
14528TIP3   OH265074   3.454   2.719   3.718  0.2919 -0.3789 -0.6099
14528TIP3    H165075   3.508   2.772   3.659 -0.9005 -1.5160 -2.8833
14528TIP3    H265076   3.425   2.645   3.664 -1.2466 -1.2693  1.3021
14529TIP3   OH265077   2.523   4.870   2.537 -0.1279 -0.0459  0.1059
14529TIP3    H165078   2.484   4.917   2.463  1.6763 -0.0420 -0.8999
14529TIP3    H265079   2.541   4.782   2.503 -0.3997 -0.4395  0.9406
14530TIP3   OH265080   0.638   0.554   2.989  0.6713 -0.4211  0.3864
14530TIP3    H165081   0.600   0.569   2.903 -0.1364  0.8025  0.9233
14530TIP3    H265082   0.657   0.460   2.992  0.8914 -0.4440 -1.1815
14531TIP3   OH265083   4.965   4.841   4.776 -0.2015  0.1072 -0.3897
14531TIP3    H165084   5.023   4.916   4.790 -1.0141  0.5587  0.6427
14531TIP3    H265085   4.892   4.877   4.725  1.9474 -1.1630 -4.8303
14532TIP3   OH265086   0.542   0.458  14.421  0.2760  0.3022  0.4188
14532TIP3    H165087   0.564   0.387  14.361  1.2025 -0.3563  1.4830
14532TIP3    H265088   0.621   0.510  14.427 -0.7277  2.1197 -1.1979
14533TIP3   OH265089   4.011   3.735   1.932  0.0995  0.5886 -0.3021
14533TIP3    H165090   4.003   3.798   2.003  0.4066  1.2270 -0.8183
14533TIP3    H265091   4.083   3.768   1.878 -0.1550  0.1431 -0.9356
14534TIP3   OH265092   3.136   0.447   6.260  0.8467  0.1602  0.0710
14534TIP3    H165093   3.111   0.391   6.334  0.2375  1.6175  1.0068
14534TIP3    H265094   3.211   0.402   6.220  0.7691 -0.9958  1.1637
14535TIP3   OH265095   2.952   4.314   0.180  0.4432  0.4911 -0.5254
14535TIP3    H165096   2.913   4.387   0.131  3.1444  0.8106 -2.4577
14535TIP3    H265097   2.948   4.240   0.119  0.1933 -0.2361  0.3594
14536TIP3   OH265098   5.777   2.481  16.019 -0.2659 -0.3063 -0.2471
14536TIP3    H165099   5.844   2.550  16.029  0.0026 -0.4826 -0.7607
14536TIP3    H265100   5.694   2.525  16.038  0.1389 -0.5595  2.4421
14537TIP3   OH265101   3.925   3.379  15.431  0.0959  0.5850 -0.6072
14537TIP3    H165102   3.862   3.343  15.368  1.8499 -2.5307 -0.7901
14537TIP3    H265103   4.010   3.363  15.390  1.2022  0.2918  1.6797
14538TIP3   OH265104   2.473   1.752  16.589 -0.5244 -0.2386  0.3204
14538TIP3    H165105   2.491   1.658  16.586  1.5585 -0.0094  2.6357
14538TIP3    H265106   2.523   1.788  16.515 -2.3558 -0.9835 -1.3884
14539TIP3   OH265107   2.534   6.104  16.402  0.2171  0.0895 -0.3080
14539TIP3    H165108   2.542   6.173  16.468  1.5887 -0.4138  0.0787
14539TIP3    H265109   2.458   6.053  16.431  1.2413 -0.5692  1.3309
14540TIP3   OH265110   1.573   6.266   5.277 -0.3575 -0.0395  0.0911
14540TIP3    H165111   1.625   6.234   5.351  1.1316 -0.6022 -1.1498
14540TIP3    H265112   1.624   6.337   5.239 -1.2880  0.5108 -0.1812
14541TIP3   OH265113   1.573   4.913  15.038 -0.0697 -0.3880  0.0020
14541TIP3    H165114   1.521   4.838  15.067 -0.4823 -0.2286 -0.3212
14541TIP3    H265115   1.601   4.955  15.119 -1.6404  0.3487  0.2076
14542TIP3   OH265116   0.447   3.133  15.044 -0.1185 -0.4904 -0.1562
14542TIP3    H165117   0.459   3.223  15.012  0.6895 -0.0597  1.2751
14542TIP3    H265118   0.372   3.138  15.103  1.2825 -0.2281  1.6885
14543TIP3   OH265119   0.230   5.583  13.984 -0.5463  0.5284  0.3684
14543TIP3    H165120   0.324   5.577  13.965  0.0715  1.1726  2.8077
14543TIP3    H265121   0.203   5.666  13.944  0.3290  1.1484  1.0262
14544TIP3   OH265122   3.920   4.523   0.609 -0.1991  0.4593 -0.0512
14544TIP3    H165123   3.972   4.473   0.672 -1.3327 -0.2427  0.3473
14544TIP3    H265124   3.893   4.601   0.658 -2.9790 -1.1411  1.1585
14545TIP3   OH265125   2.254   3.943   1.468 -0.3347 -0.5209  0.2811
14545TIP3    H165126   2.198   3.866   1.469 -0.0008 -0.7631  1.1598
14545TIP3    H265127   2.230   3.989   1.388  0.6532 -2.4164 -1.1820
14546TIP3   OH265128   4.436   3.401  14.577  0.1528  0.5499  0.3078
14546TIP3    H165129   4.386   3.469  14.533 -1.7691 -2.0772 -1.8764
14546TIP3    H265130   4.403   3.401  14.667 -0.3243  1.9769  0.1514
14547TIP3   OH265131   6.295   2.067  15.482  0.9889  0.0286 -0.1845
14547TIP3    H165132   6.377   2.107  15.454  0.6293  0.4197 -0.7001
14547TIP3    H265133   6.321   1.988  15.529  1.8665  2.0555  3.0462
14548TIP3   OH265134   5.171   5.352   1.373  0.0033  0.0739  0.2810
14548TIP3    H165135   5.080   5.326   1.390  0.3367  1.0302  4.5674
14548TIP3    H265136   5.215   5.271   1.350 -1.5183 -0.7941  0.2721
14549TIP3   OH265137   4.206   5.540   3.313 -0.2995  0.1992  0.1501
14549TIP3    H165138   4.232   5.465   3.367  0.2271 -0.0383 -0.4065
14549TIP3    H265139   4.278   5.602   3.323  0.5375 -0.4609 -1.4053
14550TIP3   OH265140   3.475   4.916  14.426 -0.3452  0.1885 -0.5729
14550TIP3    H165141   3.421   4.904  14.348  0.1587  1.1980 -1.0929
14550TIP3    H265142   3.467   5.009  14.447  2.0521  0.6310 -1.3239
14551TIP3   OH265143   1.136   4.203  15.380 -0.1173 -0.3953 -0.2961
14551TIP3    H165144   1.111   4.164  15.296  1.5123 -2.3680  0.0384
14551TIP3    H265145   1.082   4.157  15.445  0.9503 -1.2876 -0.0077
14552TIP3   OH265146   6.568   2.855   0.393 -0.5117  0.5500 -0.7226
14552TIP3    H165147   6.480   2.867   0.428 -0.4853  0.8644 -0.7640
14552TIP3    H265148   6.562   2.777   0.338 -0.4936 -0.1303  0.1989
14553TIP3   OH265149   3.620   3.402   5.170 -0.0903  0.2468  0.1975
14553TIP3    H165150   3.554   3.369   5.109 -0.2545  1.4998 -0.3374
14553TIP3    H265151   3.689   3.438   5.114  1.6929 -2.1173  0.7143
14554TIP3   OH265152   1.141   6.634   6.205 -0.3013 -0.1077  0.5168
14554TIP3    H165153   1.051   6.664   6.217 -0.6329 -0.6597 -0.4189
14554TIP3    H265154   1.193   6.714   6.205 -0.6551  0.1597  2.0245
14555TIP3   OH265155   1.167   4.928  10.537 -0.1291  0.2158  0.3695
14555TIP3    H165156   1.208   5.007  10.573 -2.0188  1.3046  0.2501
14555TIP3    H265157   1.182   4.934  10.442 -1.2190  1.0618  0.2257
14556TIP3   OH265158   5.410   3.617  16.648 -0.0088  0.1578  0.6388
14556TIP3    H165159   5.362   3.548  16.694  0.5301 -0.4211  0.3462
14556TIP3    H265160   5.344   3.662  16.596 -0.4473  0.1756  1.2036
14557TIP3   OH265161   3.281   0.718   1.882 -0.2058 -0.1347 -0.6204
14557TIP3    H165162   3.236   0.689   1.802 -1.6441 -0.6270  0.3188
14557TIP3    H265163   3.214   0.712   1.950  0.6800  1.3402  0.4278
14558TIP3   OH265164   0.823   5.633   0.245 -0.0172 -0.1213 -0.1423
14558TIP3    H165165   0.785   5.630   0.333  0.3269  0.9331  0.0512
14558TIP3    H265166   0.863   5.546   0.234 -0.3495 -0.3805  0.6018
14559TIP3   OH265167   2.937   2.148  15.768  0.6995 -0.4033 -0.1803
14559TIP3    H165168   2.942   2.218  15.833 -0.5849  1.0297 -1.5511
14559TIP3    H265169   2.855   2.102  15.789  0.3010  0.0408 -0.7553
14560TIP3   OH265170   4.218   0.010   4.893  0.3427  0.4947  0.0876
14560TIP3    H165171   4.175  -0.027   4.816  0.5597 -0.2996  0.3408
14560TIP3    H265172   4.283   0.070   4.858  1.6764 -1.2012 -0.4203
14561TIP3   OH265173   5.450   3.224   4.658 -0.3166 -0.2680  0.8538
14561TIP3    H165174   5.397   3.283   4.605  0.0607  0.7987  1.6479
14561TIP3    H265175   5.422   3.136   4.631 -1.1983  0.2671 -0.0171
14562TIP3   OH265176   0.813   6.271   4.810  0.3934 -0.3653  0.0892
14562TIP3    H165177   0.768   6.263   4.726  0.2842 -0.4876  0.1601
14562TIP3    H265178   0.837   6.181   4.833 -3.2525 -0.9875  2.2403
14563TIP3   OH265179   1.087   6.230  11.274 -0.2192 -0.0893 -0.3013
14563TIP3    H165180   1.059   6.308  11.225 -1.1579 -0.1915  0.0452
14563TIP3    H265181   1.176   6.213  11.243  0.2150  1.4311 -0.0181
14564TIP3   OH265182   5.628   6.236  10.857  0.2850  0.4317 -0.4453
14564TIP3    H165183   5.674   6.265  10.778  0.0053  2.3831  0.0603
14564TIP3    H265184   5.542   6.210  10.826  0.4854  0.2903 -0.8957
14565TIP3   OH265185   2.037   5.630  13.449 -0.1900  0.5454  0.0851
14565TIP3    H165186   2.007   5.565  13.386 -1.2502  0.9025  0.2016
14565TIP3    H265187   2.097   5.583  13.507  1.7082  0.4643 -1.8375
14566TIP3   OH265188   5.879   6.165   4.892 -0.2500  0.0020  0.4893
14566TIP3    H165189   5.865   6.244   4.840 -0.6804 -0.4200 -0.0363
14566TIP3    H265190   5.852   6.093   4.836  2.0483 -0.7107  0.1593
14567TIP3   OH265191   0.467   5.275   1.686 -0.2249 -0.2271  0.2251
14567TIP3    H165192   0.390   5.257   1.739 -1.6773 -0.1555 -1.7651
14567TIP3    H265193   0.462   5.213   1.614  0.4268  1.1326 -1.0492
14568TIP3   OH265194   3.689   1.804   2.500 -0.0954  0.8527  0.2398
14568TIP3    H165195   3.757   1.870   2.519  1.6295 -1.3313  2.4161
14568TIP3    H265196   3.730   1.745   2.437  0.4061 -0.8767  2.0918
14569TIP3   OH265197   1.563   6.676  11.573  0.6030 -0.6950 -0.4111
14569TIP3    H165198   1.558   6.632  11.658  2.8481 -0.7450 -0.2551
14569TIP3    H265199   1.547   6.768  11.592 -0.9384 -0.9569 -0.2782
14570TIP3   OH265200   1.455   4.856  16.387 -0.1466  0.2105 -0.2122
14570TIP3    H165201   1.509   4.810  16.451  0.7884  1.9491  0.3387
14570TIP3    H265202   1.470   4.811  16.305  3.2427  1.3511 -0.3688
14571TIP3   OH265203   3.468   1.943   1.865 -0.4895 -0.2046 -0.1494
14571TIP3    H165204   3.395   1.912   1.919 -0.1741 -1.3014 -0.3233
14571TIP3    H265205   3.511   1.863   1.835 -0.3534  0.3862 -1.6132
14572TIP3   OH265206   3.962   3.348  14.043 -0.3463  0.0107 -0.1589
14572TIP3    H165207   4.031   3.383  14.099 -0.7466  0.9710 -0.2445
14572TIP3    H265208   3.893   3.414  14.045 -1.7281 -1.4057  0.7560
14573TIP3   OH265209   2.041   0.214   6.366 -0.1065  0.3331 -0.2712
14573TIP3    H165210   2.038   0.264   6.447 -0.4659  0.9876 -0.6819
14573TIP3    H265211   1.998   0.131   6.387  1.7446 -0.4205  0.8124
14574TIP3   OH265212   1.265   1.455   4.667  0.2089  0.3213  0.9315
14574TIP3    H165213   1.359   1.455   4.689  0.3776  3.8113  0.7276
14574TIP3    H265214   1.263   1.462   4.572 -0.3563 -1.3831  0.7804
14575TIP3   OH265215   1.000   3.775   1.283  0.4904 -0.5984  0.4084
14575TIP3    H165216   0.980   3.683   1.297 -1.3424 -0.1403  0.9660
14575TIP3    H265217   1.009   3.783   1.188  1.3861 -1.4593  0.3973
14576TIP3   OH265218   0.653   1.347  14.807 -0.0075 -0.1494 -0.2654
14576TIP3    H165219   0.745   1.328  14.826  0.1951  0.0759 -0.9883
14576TIP3    H265220   0.656   1.421  14.745 -0.6308 -0.7852 -1.0758
14577TIP3   OH265221   4.547   0.325   5.206  0.3310 -0.6977  0.2518
14577TIP3    H165222   4.632   0.346   5.245  0.3880 -0.9713  0.2734
14577TIP3    H265223   4.534   0.393   5.140 -0.0315  0.1056  1.1292
14578TIP3   OH265224   5.736   3.268   5.938  0.1528 -0.1898  0.3807
14578TIP3    H165225   5.751   3.312   6.022  1.4391  0.3414 -0.0963
14578TIP3    H265226   5.815   3.215   5.925 -0.8247 -1.6628  0.3374
14579TIP3   OH265227   5.030   0.340  12.208 -0.4669  0.5233  0.3305
14579TIP3    H165228   5.048   0.431  12.232 -1.0429  0.7042  0.0914
14579TIP3    H265229   4.981   0.305  12.282 -2.3586  1.1196 -0.5841
14580TIP3   OH265230   0.825   6.099  16.496  0.1422  0.1085 -0.2007
14580TIP3    H165231   0.865   6.052  16.569 -0.4943 -0.0563  0.0549
14580TIP3    H265232   0.741   6.130  16.531 -0.1853 -0.0037 -0.8726
14581TIP3   OH265233   5.608   1.444   2.499  0.6483  0.3252  0.2173
14581TIP3    H165234   5.536   1.382   2.512  2.6468 -1.7902  2.0915
14581TIP3    H265235   5.584   1.492   2.420 -0.9098 -3.0806 -1.5774
14582TIP3   OH265236   3.669   4.960  16.564  0.4841 -0.6887  0.1999
14582TIP3    H165237   3.691   4.934  16.475 -1.2137 -0.8544 -0.2151
14582TIP3    H265238   3.752   4.989  16.603  1.6163 -2.5325 -0.7436
14583TIP3   OH265239   5.284   3.051   1.011 -0.2948 -0.0771  0.4738
14583TIP3    H165240   5.197   3.011   1.020  0.0381 -0.8347  0.4687
14583TIP3    H265241   5.289   3.114   1.083 -0.8722  0.0143  0.4388
14584TIP3   OH265242   6.417   0.322  14.421 -0.4131  0.5637  0.5518
14584TIP3    H165243   6.400   0.410  14.454  2.1095  0.9566  0.9803
14584TIP3    H265244   6.489   0.289  14.476 -0.3097 -1.2014 -0.5538
14585TIP3   OH265245   3.594   5.058   0.548  0.1809  0.0591  0.2867
14585TIP3    H165246   3.589   4.983   0.489  0.1029  0.2604  0.0354
14585TIP3    H265247   3.684   5.089   0.540  0.1895  0.0454  0.3279
14586TIP3   OH265248   4.723   3.708  15.529  0.2252 -0.2761 -0.4443
14586TIP3    H165249   4.732   3.683  15.621 -0.3283 -0.6139 -0.4758
14586TIP3    H265250   4.650   3.655  15.497  0.1377  0.1516 -0.9691
14587TIP3   OH265251   1.446   1.470  14.097  0.0541  0.5327 -0.1732
14587TIP3    H165252   1.476   1.513  14.018  0.4226 -0.0150 -0.3338
14587TIP3    H265253   1.374   1.413  14.068 -1.0143  1.6592  0.1720
14588TIP3   OH265254   6.041   5.023  16.927 -0.1978 -0.5345  0.1309
14588TIP3    H165255   6.058   5.028  16.833  2.6658 -2.3491  0.4477
14588TIP3    H265256   5.988   5.101  16.946 -0.9079 -0.1439 -2.9427
14589TIP3   OH265257   5.819   4.283   4.482  0.3391  0.2717  0.0135
14589TIP3    H165258   5.763   4.294   4.405  2.2135 -2.0311 -1.8467
14589TIP3    H265259   5.876   4.360   4.482 -0.3244  0.7782 -0.2650
14590TIP3   OH265260   4.274   4.892   4.535 -1.0090  0.0665  0.4297
14590TIP3    H165261   4.186   4.855   4.543 -0.2515 -1.9237  0.0810
14590TIP3    H265262   4.303   4.867   4.448  0.5899 -0.9733  1.2077
14591TIP3   OH265263   2.311   6.151   0.323 -0.1531  0.5522  0.4185
14591TIP3    H165264   2.377   6.150   0.392 -0.4524 -1.9925  0.7684
14591TIP3    H265265   2.320   6.066   0.280 -0.9807  1.4898 -1.7239
14592TIP3   OH265266   2.596   1.566  15.410 -0.2722 -0.1240  0.4866
14592TIP3    H165267   2.504   1.577  15.432 -0.1158  1.4845  0.4501
14592TIP3    H265268   2.596   1.544  15.317 -0.6026  0.3825  0.3635
14593TIP3   OH265269   1.580   1.851  14.817  0.3021 -0.6780  0.5331
14593TIP3    H165270   1.675   1.867  14.815  0.6573 -2.5236  0.8658
14593TIP3    H265271   1.566   1.784  14.750 -1.0221  0.6054 -0.5475
14594TIP3   OH265272   0.807   2.464   3.416 -0.0894  0.8016  0.0981
14594TIP3    H165273   0.733   2.404   3.420  0.2825  0.4295  2.4933
14594TIP3    H265274   0.879   2.412   3.382  0.4876 -0.5061  3.0369
14595TIP3   OH265275   5.880   5.538  13.666 -0.1395 -0.1169 -0.7442
14595TIP3    H165276   5.901   5.584  13.584 -1.0542  1.2910 -0.2317
14595TIP3    H265277   5.793   5.502  13.652  0.1849 -0.9068 -0.7958
14596TIP3   OH265278   5.704   1.837  10.745  0.6714 -0.3156 -0.1063
14596TIP3    H165279   5.742   1.862  10.660  0.3912 -1.1923 -0.5009
14596TIP3    H265280   5.700   1.742  10.742 -2.4704 -0.2586 -0.4908
14597TIP3   OH265281   2.655   2.361   0.246 -0.2396 -0.5778 -0.2752
14597TIP3    H165282   2.576   2.340   0.296 -0.5493 -1.1507 -0.9857
14597TIP3    H265283   2.664   2.288   0.184  2.0022 -1.5804  1.1402
14598TIP3   OH265284   0.458   6.369   4.001  0.3428  0.1558 -0.0226
14598TIP3    H165285   0.452   6.327   4.086 -2.7111  0.7285  0.1407
14598TIP3    H265286   0.397   6.321   3.945  0.1354  1.5649 -1.0642
14599TIP3   OH265287   0.807   3.256  14.246  0.2029  0.3867  0.3474
14599TIP3    H165288   0.820   3.233  14.153 -0.2162 -1.5395  0.7115
14599TIP3    H265289   0.712   3.251  14.258  0.2038  1.2619  0.7485
14600TIP3   OH265290   6.678   1.120   3.748  0.0632  0.3501 -0.2738
14600TIP3    H165291   6.726   1.047   3.709 -0.7431 -1.7071  2.2906
14600TIP3    H265292   6.746   1.175   3.787  0.5466 -0.9533  0.7920
14601TIP3   OH265293   6.650   0.014  16.381 -0.1070  0.2791 -0.5087
14601TIP3    H165294   6.599   0.017  16.462 -2.0724  0.0494 -1.6561
14601TIP3    H265295   6.653   0.105  16.351 -0.7622  0.1645 -0.9505
14602TIP3   OH265296   6.049   6.059   2.003  0.0082 -0.7752  0.3500
14602TIP3    H165297   6.129   6.012   2.023  1.6211  1.2249 -1.0394
14602TIP3    H265298   5.987   5.991   1.975  1.9879 -2.1589 -0.9002
14603TIP3   OH265299   1.113   2.173  13.576 -0.0161  0.1558 -0.1977
14603TIP3    H165300   1.181   2.213  13.522 -1.7746  1.5098 -1.5280
14603TIP3    H265301   1.106   2.083  13.544  0.0903  0.4701 -1.1273
14604TIP3   OH265302   5.593   2.520  15.756 -0.2166 -0.1606  0.0905
14604TIP3    H165303   5.564   2.440  15.801  1.3658 -0.3288  0.8991
14604TIP3    H265304   5.687   2.523  15.773  0.1214  0.7518 -1.7328
14605TIP3   OH265305   5.637   3.666   0.941  0.2806 -0.0211  0.3906
14605TIP3    H165306   5.698   3.739   0.952  0.4469 -0.0932 -0.0484
14605TIP3    H265307   5.615   3.640   1.031 -1.3872  1.8692  0.5733
14606TIP3   OH265308   4.662   2.673   3.952  0.7366  0.2139 -0.2969
14606TIP3    H165309   4.593   2.738   3.961 -1.1744 -1.8140  0.6015
14606TIP3    H265310   4.616   2.589   3.946  3.0268 -1.0407 -2.3862
14607TIP3   OH265311   0.860   3.680  15.368  0.3738  0.1310  0.2128
14607TIP3    H165312   0.775   3.637  15.356  0.3178  0.3018 -0.0272
14607TIP3    H265313   0.839   3.759  15.417  0.0246  1.3871 -1.8319
14608TIP3   OH265314   3.765   3.682   3.869 -0.0040 -0.3065 -0.1576
14608TIP3    H165315   3.788   3.590   3.854  0.7105 -0.0299 -0.7965
14608TIP3    H265316   3.848   3.729   3.866 -0.1362  0.1629  1.8869
14609TIP3   OH265317   2.669   3.943   4.506  0.2308  0.1141  0.4405
14609TIP3    H165318   2.667   4.038   4.501  0.1185  0.2376  2.2437
14609TIP3    H265319   2.579   3.918   4.524  0.1790 -0.3874 -0.4367
14610TIP3   OH265320   5.201   2.857  11.821  0.1679 -0.1121  0.0289
14610TIP3    H165321   5.158   2.941  11.800  0.1991 -0.3867 -1.2147
14610TIP3    H265322   5.141   2.815  11.883 -0.7977  0.0164 -0.7890
14611TIP3   OH265323   1.276   4.677   5.507 -0.5118  0.2113 -0.4874
14611TIP3    H165324   1.210   4.696   5.574 -0.1991  0.7879 -0.3440
14611TIP3    H265325   1.283   4.758   5.456 -0.7121 -0.2052 -1.1958
14612TIP3   OH265326   3.285   5.211   1.649  0.1195 -0.1361 -0.2418
14612TIP3    H165327   3.342   5.265   1.705 -0.6675 -0.0469  0.4889
14612TIP3    H265328   3.312   5.233   1.560  3.3120 -2.2826  0.0291
14613TIP3   OH265329   0.572   0.803   1.197 -0.5812  0.1215 -0.5053
14613TIP3    H165330   0.547   0.778   1.286  2.4562  2.7099  1.3119
14613TIP3    H265331   0.629   0.732   1.167  2.0022  1.1358  1.5791
14614TIP3   OH265332   2.600   4.659   5.075  0.0331 -0.0749 -0.3784
14614TIP3    H165333   2.628   4.731   5.132  0.2728  1.0489 -1.8450
14614TIP3    H265334   2.535   4.612   5.125  0.2589  0.8581  0.8295
14615TIP3   OH265335   4.073   6.801   1.961  0.0107  0.2267 -0.5470
14615TIP3    H165336   4.130   6.832   1.891  1.0447 -1.5919 -0.5775
14615TIP3    H265337   4.093   6.857   2.035  3.0550 -1.2376 -0.0946
14616TIP3   OH265338   4.981   4.263   3.926 -0.7713 -0.0048  0.0070
14616TIP3    H165339   4.980   4.358   3.936  0.4928  0.0382 -0.2084
14616TIP3    H265340   4.890   4.237   3.941 -1.3245  1.3293 -0.9090
14617TIP3   OH265341   5.158   1.745  11.148 -0.1545  0.0071 -0.3561
14617TIP3    H165342   5.149   1.727  11.055 -2.1826 -0.3933 -0.1405
14617TIP3    H265343   5.109   1.826  11.162 -1.2896 -0.7920  0.5783
14618TIP3   OH265344   4.188   5.170  13.241 -0.6852 -0.2490  0.4537
14618TIP3    H165345   4.223   5.223  13.312 -0.3795 -0.4544  0.4580
14618TIP3    H265346   4.099   5.201  13.230 -0.0597  1.3213 -0.5480
14619TIP3   OH265347   2.229   6.390   4.713 -0.7843 -0.2112  0.2397
14619TIP3    H165348   2.161   6.389   4.780 -0.6997  0.0834  0.3309
14619TIP3    H265349   2.204   6.320   4.652 -1.3479  0.1090  0.0941
14620TIP3   OH265350   6.065   5.599   1.128  0.0893  0.1456 -0.3359
14620TIP3    H165351   6.121   5.561   1.196  0.3075  0.0097 -0.5893
14620TIP3    H265352   6.055   5.691   1.154 -0.3128 -0.0456  0.1914
14621TIP3   OH265353   5.720   3.688   3.102 -0.5259  0.0434  0.4518
14621TIP3    H165354   5.752   3.626   3.035 -1.7529  1.4238 -1.5098
14621TIP3    H265355   5.655   3.638   3.151  1.0101 -1.2635  1.2549
14622TIP3   OH265356   5.941   1.182   2.031 -0.9470 -0.8813  0.0593
14622TIP3    H165357   6.019   1.190   2.086 -0.3504 -2.2734 -0.5262
14622TIP3    H265358   5.921   1.088   2.031 -2.8312 -0.5174  0.4535
14623TIP3   OH265359   4.231   3.836   0.418 -0.2506 -0.1180  0.6515
14623TIP3    H165360   4.257   3.776   0.488 -2.1332 -1.1042  0.5850
14623TIP3    H265361   4.139   3.815   0.402  0.0437  0.2369 -1.9675
14624TIP3   OH265362   0.333   3.885  14.370 -0.0528 -0.2236 -0.3672
14624TIP3    H165363   0.389   3.955  14.339  1.6750 -2.0166 -1.5368
14624TIP3    H265364   0.360   3.871  14.461 -0.2954  0.4873 -0.1811
14625TIP3   OH265365   1.678   1.533  14.680 -0.0282 -0.1843  0.0346
14625TIP3    H165366   1.747   1.532  14.614  0.9786  1.3718  1.0012
14625TIP3    H265367   1.620   1.604  14.654 -0.1800 -0.2255  0.2575
14626TIP3   OH265368   3.466   0.439   2.266  0.4099 -0.4548 -0.3808
14626TIP3    H165369   3.395   0.403   2.318 -0.8413  0.9804 -1.0217
14626TIP3    H265370   3.516   0.493   2.327 -1.6974  2.1187 -0.7748
14627TIP3   OH265371   1.959   5.436   3.476 -0.2795  0.1267  0.1609
14627TIP3    H165372   1.883   5.458   3.422  1.3129 -0.0626 -2.3017
14627TIP3    H265373   1.926   5.374   3.541 -2.3316  0.5196 -0.4441
14628TIP3   OH265374   2.661   3.054  16.742 -0.3974  0.3728 -0.3758
14628TIP3    H165375   2.710   3.044  16.823  0.5690 -1.0458 -1.0799
14628TIP3    H265376   2.631   3.145  16.742  1.0268  0.8784  0.7530
14629TIP3   OH265377   3.472   3.970  15.792  0.3432  0.1372 -0.2190
14629TIP3    H165378   3.564   3.944  15.799  0.5810  1.1205  0.4179
14629TIP3    H265379   3.426   3.911  15.852  0.3243 -1.3408 -1.6150
14630TIP3   OH265380   1.254   6.293  16.247  0.1560 -0.4040 -0.1305
14630TIP3    H165381   1.174   6.242  16.263  0.1880 -0.6118 -0.6368
14630TIP3    H265382   1.239   6.376  16.294 -0.9332  0.1110 -1.3312
14631TIP3   OH265383   2.963   1.597  11.791  0.0358  0.3608 -0.7094
14631TIP3    H165384   2.873   1.566  11.803 -0.1545  0.8873 -0.7848
14631TIP3    H265385   2.980   1.651  11.868  0.4485 -0.1071 -0.4668
14632TIP3   OH265386   3.965   6.596  16.869 -0.4578  0.4564  0.5109
14632TIP3    H165387   3.980   6.645  16.788 -1.1664 -1.1820 -0.6535
14632TIP3    H265388   3.887   6.637  16.907 -0.3212  1.0177  0.1981
14633TIP3   OH265389   2.821   0.079   3.371 -0.4483  0.0587  0.5425
14633TIP3    H165390   2.835   0.164   3.328  0.4117 -0.2921  0.0910
14633TIP3    H265391   2.731   0.055   3.348 -0.9676  1.2009  1.3280
14634TIP3   OH265392   2.438   0.022  14.966 -0.1479  0.1234 -0.4778
14634TIP3    H165393   2.470  -0.004  15.052 -2.8418 -3.7626 -0.3805
14634TIP3    H265394   2.483  -0.036  14.904  0.0749  1.2824 -1.4426
14635TIP3   OH265395   3.533   0.553  11.944  0.2943  0.1293  0.2010
14635TIP3    H165396   3.500   0.563  11.855  0.6918 -0.1814  0.0144
14635TIP3    H265397   3.487   0.620  11.994  0.1605  0.3942 -0.2626
14636TIP3   OH265398   5.893   2.583  13.834  0.4321  0.6407  0.2964
14636TIP3    H165399   5.843   2.564  13.913  1.8082 -3.2448  0.4781
14636TIP3    H265400   5.836   2.554  13.762  0.5595  0.7868  0.1356
14637TIP3   OH265401   1.341   5.196  14.141 -0.6214  0.0289 -0.0250
14637TIP3    H165402   1.376   5.247  14.068 -2.1514  0.0346 -0.8015
14637TIP3    H265403   1.249   5.223  14.147 -0.7484 -0.6190  1.3481
14638TIP3   OH265404   2.945   5.495  16.391  0.0175  0.2832  0.1512
14638TIP3    H165405   2.908   5.448  16.466 -0.6458  0.5264 -0.0118
14638TIP3    H265406   2.870   5.544  16.355 -0.0287 -0.9899 -1.5689
14639TIP3   OH265407   1.243   6.810  12.838  0.1578 -0.2442  0.4096
14639TIP3    H165408   1.205   6.747  12.899 -0.9259 -2.1228 -2.0498
14639TIP3    H265409   1.329   6.773  12.816 -0.3780 -0.7918 -0.8528
14640TIP3   OH265410   5.699   6.259  12.242 -0.2971 -0.5871  0.2308
14640TIP3    H165411   5.703   6.164  12.233  0.3502 -0.4926 -0.5433
14640TIP3    H265412   5.699   6.292  12.152 -0.9956  0.1318  0.4792
14641TIP3   OH265413   3.211   0.686  12.092  0.2854  1.3078  0.0231
14641TIP3    H165414   3.259   0.742  12.030 -0.0273  1.4854 -0.0597
14641TIP3    H265415   3.165   0.623  12.037  1.7090  0.0860  0.1649
14642TIP3   OH265416   3.946   1.693  16.926  0.2607  0.4707 -0.2685
14642TIP3    H165417   3.898   1.750  16.867 -1.7664 -1.1578 -0.2874
14642TIP3    H265418   3.983   1.752  16.991 -0.7929  1.9068 -0.9130
14643TIP3   OH265419   5.769   4.883  17.046  0.1853 -0.2103  0.5893
14643TIP3    H165420   5.786   4.967  17.004 -0.5966  0.1680  1.0074
14643TIP3    H265421   5.788   4.899  17.139  0.0506 -0.5019  0.6674
14644TIP3   OH265422   4.411   5.910   3.899 -0.0055 -0.6093 -0.3607
14644TIP3    H165423   4.454   5.824   3.899  0.8874 -0.1783 -0.0478
14644TIP3    H265424   4.318   5.890   3.887  0.2106 -1.6052 -0.5103
14645TIP3   OH265425   0.424   6.338  16.724  0.1622 -0.1247  0.0962
14645TIP3    H165426   0.450   6.428  16.744 -1.3656  0.2403  0.5389
14645TIP3    H265427   0.379   6.308  16.802 -2.2310 -0.1217 -1.1876
14646TIP3   OH265428   6.305   3.977  14.609  0.0540  0.1141  0.3186
14646TIP3    H165429   6.210   3.978  14.621  0.2123  0.7023  1.6975
14646TIP3    H265430   6.337   4.046  14.667  1.3696 -0.4456  0.2836
14647TIP3   OH265431   6.570   0.805   2.193 -0.7568 -0.6470  0.5829
14647TIP3    H165432   6.533   0.718   2.178  1.0810 -1.4208  0.2258
14647TIP3    H265433   6.621   0.823   2.114  1.5945 -0.7418  1.9670
14648TIP3   OH265434   0.660   4.079   5.985  0.5573  0.0627 -0.2972
14648TIP3    H165435   0.616   4.102   6.067  2.1542  0.5503  0.4668
14648TIP3    H265436   0.722   4.151   5.970  0.9611 -0.4965 -1.4388
14649TIP3   OH265437   6.143   5.637   4.349 -0.4332 -0.1278  0.1926
14649TIP3    H165438   6.213   5.636   4.414 -0.1931  0.1115 -0.0535
14649TIP3    H265439   6.103   5.723   4.358 -0.9023 -0.3756  0.5392
14650TIP3   OH265440   5.830   0.094   2.131  0.1498  0.2580  0.3433
14650TIP3    H165441   5.756   0.145   2.164 -1.4831 -0.9441 -1.2485
14650TIP3    H265442   5.837   0.020   2.191 -1.5566 -0.9035 -0.8264
14651TIP3   OH265443   5.656   3.634   4.068 -0.4855  0.5448 -0.4589
14651TIP3    H165444   5.597   3.659   4.139  0.3334  1.3704 -0.0537
14651TIP3    H265445   5.675   3.715   4.021  0.1896  0.2698 -0.6834
14652TIP3   OH265446   5.277   4.659  12.878  0.0773  0.6778 -0.3892
14652TIP3    H165447   5.327   4.691  12.953  3.0378 -1.0129 -1.4737
14652TIP3    H265448   5.213   4.599  12.916  1.3100  0.0888  0.8618
14653TIP3   OH265449   3.427   2.765   4.035 -0.0612 -0.0954  0.4321
14653TIP3    H165450   3.441   2.766   3.940  0.2632  1.0227  0.4784
14653TIP3    H265451   3.450   2.676   4.062 -1.0928 -0.7192 -0.6618
14654TIP3   OH265452   5.055   1.955  16.630 -0.1050 -0.0606  0.1322
14654TIP3    H165453   5.115   1.996  16.692 -0.6162  4.5220 -1.9818
14654TIP3    H265454   4.985   1.919  16.685  1.6462 -0.2763  2.3474
14655TIP3   OH265455   5.992   3.942  15.309  0.2689  0.5300 -0.1729
14655TIP3    H165456   5.975   3.848  15.314  0.7610  0.4771  0.5670
14655TIP3    H265457   5.940   3.971  15.233 -0.1623 -0.2688 -0.1998
14656TIP3   OH265458   1.556   4.838  15.889 -0.1635  0.0663 -0.0333
14656TIP3    H165459   1.542   4.790  15.807 -0.3520  1.0949 -0.6284
14656TIP3    H265460   1.504   4.918  15.879  1.9447  1.5143 -0.1005
14657TIP3   OH265461   6.240   0.942   2.481 -0.0897 -0.5049  0.5065
14657TIP3    H165462   6.286   0.860   2.461  1.4934  0.5580 -0.3716
14657TIP3    H265463   6.157   0.935   2.433  1.1443 -0.5210 -1.7558
14658TIP3   OH265464   1.339   3.313   5.698 -0.4220 -0.6731 -0.7877
14658TIP3    H165465   1.409   3.252   5.723  1.4209  1.7057  0.2791
14658TIP3    H265466   1.270   3.257   5.663  2.0484 -3.2012 -2.0757
14659TIP3   OH265467   0.279   0.031   4.804  0.4066  0.2503  0.2023
14659TIP3    H165468   0.206   0.093   4.796 -1.1678 -1.2130  2.1498
14659TIP3    H265469   0.357   0.087   4.803 -0.7423  1.9578 -1.0755
14660TIP3   OH265470   0.218   2.189  11.438  0.4791 -0.5313  0.2458
14660TIP3    H165471   0.162   2.125  11.481 -0.0154  0.0581  0.5112
14660TIP3    H265472   0.307   2.156  11.448  0.4341 -0.1762  2.1726
14661TIP3   OH265473   1.786   2.279  12.580  0.3570  0.0334 -0.4948
14661TIP3    H165474   1.818   2.328  12.656  2.1176 -0.0893 -1.1084
14661TIP3    H265475   1.804   2.187  12.601 -1.2715 -0.2254 -0.1142
14662TIP3   OH265476   1.058   2.527  13.600  0.0010 -0.6684  0.1724
14662TIP3    H165477   1.076   2.601  13.658 -0.9015  0.1889 -0.6227
14662TIP3    H265478   1.061   2.451  13.659  1.9122 -0.1587  0.8300
14663TIP3   OH265479   4.229   2.941   1.348  0.1499  0.2517  0.5648
14663TIP3    H165480   4.172   2.905   1.416 -0.9475 -0.2595 -0.6028
14663TIP3    H265481   4.317   2.930   1.383 -0.2265 -2.1883  0.9291
14664TIP3   OH265482   4.540   3.937   0.995  0.3114 -0.4667 -0.0710
14664TIP3    H165483   4.574   4.022   1.024  1.4748 -0.7799 -0.4423
14664TIP3    H265484   4.546   3.881   1.073  1.8407 -0.8438 -0.4127
14665TIP3   OH265485   5.878   2.922   2.683  0.0664  0.3592 -0.1990
14665TIP3    H165486   5.883   2.932   2.588  1.6956 -1.4832 -0.3766
14665TIP3    H265487   5.965   2.949   2.714  0.2354 -0.9451  0.5312
14666TIP3   OH265488   2.044   3.333  16.064 -0.7816 -0.3343 -0.2355
14666TIP3    H165489   2.038   3.399  16.133 -0.6068  0.6579 -1.1376
14666TIP3    H265490   1.959   3.338  16.019 -0.1955  0.4304 -1.3030
14667TIP3   OH265491   6.681   3.504  13.011  0.0842  0.4498  0.2809
14667TIP3    H165492   6.598   3.492  12.964  0.5886 -0.7922 -0.3231
14667TIP3    H265493   6.734   3.559  12.953 -0.5892  2.0009  1.0530
14668TIP3   OH265494   0.084   5.397  17.164 -0.6182 -0.2273 -0.1904
14668TIP3    H165495   0.144   5.323  17.165  1.1858  1.1730  1.4498
14668TIP3    H265496   0.058   5.406  17.073 -0.2954 -2.3768 -0.5427
14669TIP3   OH265497   0.347   5.276   5.581  0.2849 -0.0453 -0.4752
14669TIP3    H165498   0.352   5.202   5.521  1.7985  0.9331 -1.6525
14669TIP3    H265499   0.429   5.324   5.566  0.6070  0.4049  2.1870
14670TIP3   OH265500   6.288   2.379  15.514 -0.6033 -0.1244  0.0238
14670TIP3    H165501   6.209   2.372  15.568 -1.0755 -0.5246 -0.7009
14670TIP3    H265502   6.261   2.432  15.438  0.5767  2.2124  1.1027
14671TIP3   OH265503   4.910   3.376  17.039 -0.5608  0.5944 -0.3400
14671TIP3    H165504   4.920   3.467  17.067 -3.4927  1.8363 -2.7194
14671TIP3    H265505   4.833   3.344  17.086 -1.1898  0.3212 -1.5041
14672TIP3   OH265506   1.440   6.357   2.263 -0.3176  0.2848  0.2147
14672TIP3    H165507   1.442   6.430   2.201 -0.3265 -2.2539 -3.0956
14672TIP3    H265508   1.351   6.355   2.296 -0.6842  1.0110 -0.6993
14673TIP3   OH265509   6.648   2.579  12.219 -0.5673 -0.0846 -0.4291
14673TIP3    H165510   6.706   2.649  12.187  1.7436 -0.1800  2.9796
14673TIP3    H265511   6.584   2.625  12.273 -0.0577 -0.3990  0.4718
14674TIP3   OH265512   3.804   6.028  11.278 -0.0663  0.5364 -0.3448
14674TIP3    H165513   3.865   6.028  11.205 -0.4686  1.5953 -0.6975
14674TIP3    H265514   3.718   6.019  11.238 -0.3153  1.4843 -0.0474
14675TIP3   OH265515   2.675   3.267   0.700  0.4092 -0.0649  0.2251
14675TIP3    H165516   2.736   3.340   0.695  1.3496 -0.7762  0.9603
14675TIP3    H265517   2.639   3.260   0.612  1.1952  0.5296 -0.1549
14676TIP3   OH265518   3.436   0.098   2.122  0.3384 -0.2588  0.1487
14676TIP3    H165519   3.371   0.166   2.139  0.7647  1.1454 -3.1234
14676TIP3    H265520   3.520   0.137   2.146  0.3309 -0.7447  0.9979
14677TIP3   OH265521   4.159   2.682   3.666  0.6399 -0.3281 -0.0454
14677TIP3    H165522   4.146   2.669   3.760 -1.7060 -1.8525 -0.5103
14677TIP3    H265523   4.201   2.768   3.659 -2.8138  1.7910  2.2535
14678TIP3   OH265524   5.981   5.278   6.023 -0.3732  0.3543  0.1050
14678TIP3    H165525   5.955   5.201   6.073 -1.3914  0.3897 -0.3512
14678TIP3    H265526   5.943   5.264   5.936  0.5567  0.7453 -0.3805
14679TIP3   OH265527   5.786   6.676   5.569 -0.0894 -0.0936 -0.1265
14679TIP3    H165528   5.850   6.640   5.631  1.2737  0.6512 -1.0483
14679TIP3    H265529   5.752   6.600   5.523  1.1352 -0.4127 -0.5385
14680TIP3   OH265530   5.749   0.968  10.891  0.3538  0.2489  0.4630
14680TIP3    H165531   5.753   0.873  10.891 -0.7270  0.1426  2.7823
14680TIP3    H265532   5.827   0.995  10.843  1.7529 -1.7940  1.4500
14681TIP3   OH265533   4.661   1.945  10.434  0.3820 -0.0697 -0.0709
14681TIP3    H165534   4.579   1.910  10.468 -0.0273  1.0166  0.0719
14681TIP3    H265535   4.635   2.008  10.367  0.9980  1.8301  1.3971
14682TIP3   OH265536   4.262   1.456  13.776 -0.3979 -0.1226  0.5155
14682TIP3    H165537   4.173   1.425  13.762 -0.3472 -1.5233  2.8019
14682TIP3    H265538   4.255   1.518  13.849  0.0844  2.5266 -1.4928
14683TIP3   OH265539   6.310   5.457  13.932 -0.2213 -0.1761  0.4200
14683TIP3    H165540   6.253   5.403  13.878  2.0932 -1.2634 -1.1181
14683TIP3    H265541   6.333   5.531  13.876  2.0611 -1.2213 -0.1524
14684TIP3   OH265542   5.433   3.738   4.228 -0.0393  0.3303  0.0503
14684TIP3    H165543   5.340   3.719   4.232  0.0473  0.0634  1.0602
14684TIP3    H265544   5.457   3.760   4.318  0.7204  1.1361 -0.3269
14685TIP3   OH265545   6.006   5.836   3.623 -0.1588 -0.2484 -0.4508
14685TIP3    H165546   5.947   5.851   3.697  0.2372  0.7603 -0.3155
14685TIP3    H265547   5.956   5.864   3.546  0.3955  1.4150 -0.2513
14686TIP3   OH265548   1.314   6.327   3.677  0.9429  0.0707  0.3821
14686TIP3    H165549   1.308   6.422   3.686  1.7983  0.0911  0.8826
14686TIP3    H265550   1.227   6.294   3.700  0.9737  0.6552  1.3737
14687TIP3   OH265551   1.425   1.234  12.827  0.7234 -0.4405 -0.0694
14687TIP3    H165552   1.473   1.233  12.910  0.6448 -0.2993 -0.0217
14687TIP3    H265553   1.462   1.162  12.776 -1.4283 -2.6713  1.3266
14688TIP3   OH265554   2.544   1.617   1.739 -0.5959  0.1569  0.2802
14688TIP3    H165555   2.503   1.645   1.658  0.4546  0.2669 -0.2382
14688TIP3    H265556   2.622   1.570   1.711 -0.2227  0.1834  1.2271
14689TIP3   OH265557   3.296   1.863   2.293 -0.2765 -0.3901  0.0568
14689TIP3    H165558   3.375   1.866   2.240 -0.4643  1.9421 -0.2108
14689TIP3    H265559   3.224   1.870   2.230 -0.7307 -2.3868  0.3008
14690TIP3   OH265560   4.612   2.891   3.511  0.2390 -0.6137 -0.1865
14690TIP3    H165561   4.682   2.932   3.460  0.6221  0.3153  1.0380
14690TIP3    H265562   4.655   2.863   3.592 -0.4157 -1.8089 -0.2316
14691TIP3   OH265563   2.911   5.051  13.560 -0.4478 -0.3456  0.4193
14691TIP3    H165564   2.842   5.095  13.512  0.0347 -0.0901 -0.0440
14691TIP3    H265565   2.945   4.985  13.500 -1.5432 -1.7801  1.2933
14692TIP3   OH265566   4.158   1.669   0.044 -0.1880  0.0297 -0.0886
14692TIP3    H165567   4.251   1.675   0.021  0.0598 -0.6040  0.7021
14692TIP3    H265568   4.141   1.749   0.095 -0.4128  0.7822 -1.3028
14693TIP3   OH265569   2.130   5.726  15.859  0.3461 -1.0286 -0.0140
14693TIP3    H165570   2.203   5.723  15.798  0.0380 -1.0055 -0.3838
14693TIP3    H265571   2.171   5.718  15.945  0.5841 -4.1098 -0.2915
14694TIP3   OH265572   1.839   6.112  16.812  0.1047 -0.3995 -0.5992
14694TIP3    H165573   1.833   6.098  16.906 -2.1626  0.0693 -0.6175
14694TIP3    H265574   1.778   6.183  16.794 -1.7647 -2.3527 -2.7474
14695TIP3   OH265575   5.685   2.398  11.249  0.4192 -0.6932  0.1581
14695TIP3    H165576   5.752   2.368  11.188 -0.2086 -0.7009 -0.5504
14695TIP3    H265577   5.703   2.352  11.331  1.8292  0.0111  0.2601
14696TIP3   OH265578   6.147   3.822   1.331 -0.7981 -0.0531 -0.0517
14696TIP3    H165579   6.200   3.898   1.356  0.3324 -0.1006 -2.0960
14696TIP3    H265580   6.062   3.838   1.370 -0.0648  1.3811  1.0468
14697TIP3   OH265581   3.272   0.779   3.087  0.2763 -0.1077  0.5981
14697TIP3    H165582   3.310   0.784   3.000 -1.9142  0.2787 -0.4124
14697TIP3    H265583   3.311   0.701   3.127  1.8753  0.1348 -0.4085
14698TIP3   OH265584   6.468   4.275  14.948 -0.2212  0.6101 -0.3909
14698TIP3    H165585   6.476   4.271  15.043  1.5641 -0.3939 -0.5504
14698TIP3    H265586   6.458   4.368  14.929 -1.3761  0.7643  0.8052
14699TIP3   OH265587   5.415   3.833  16.996  0.3434  0.2133 -0.3377
14699TIP3    H165588   5.509   3.852  17.009  0.4594  0.1297 -1.0083
14699TIP3    H265589   5.411   3.738  16.989  0.1756  0.2021 -0.0698
14700TIP3   OH265590   0.454   3.160  16.608 -0.3254 -0.5584 -0.2212
14700TIP3    H165591   0.513   3.097  16.565 -0.4994 -0.6632 -0.3073
14700TIP3    H265592   0.473   3.151  16.701  0.3941  0.0083 -0.3040
14701TIP3   OH265593   4.286   3.841  12.738  0.5739 -0.4821 -0.5792
14701TIP3    H165594   4.334   3.861  12.818  1.2062 -0.6210 -0.9102
14701TIP3    H265595   4.227   3.770  12.762 -0.8628  0.9566  0.3174
14702TIP3   OH265596   6.068   6.716  13.181 -0.5762 -0.2107  0.3295
14702TIP3    H165597   5.998   6.732  13.119  0.1115 -0.7480 -0.6126
14702TIP3    H265598   6.086   6.801  13.220 -2.2722 -0.1925  1.1904
14703TIP3   OH265599   5.862   1.966  13.053  0.3519 -0.5811  0.7900
14703TIP3    H165600   5.831   1.980  13.142  0.8927  1.3425  0.7315
14703TIP3    H265601   5.809   2.025  12.999  0.7331 -0.9475 -0.0128
14704TIP3   OH265602   0.528   4.335  15.230 -0.6701  0.0633 -0.0906
14704TIP3    H165603   0.588   4.394  15.275  1.0819 -1.1691 -0.7314
14704TIP3    H265604   0.500   4.385  15.153  0.0866  0.3978 -0.1593
14705TIP3   OH265605   3.716   4.290  11.563  0.2019  0.2033 -0.3027
14705TIP3    H165606   3.675   4.377  11.555  0.3461  0.3353  0.3863
14705TIP3    H265607   3.786   4.302  11.627 -0.5991 -0.7154  0.7929
14706TIP3   OH265608   4.644   4.543  13.967  0.5680  0.0826  0.0471
14706TIP3    H165609   4.673   4.614  14.024 -0.1817 -0.1946  0.7818
14706TIP3    H265610   4.722   4.489  13.955  1.8478  2.2074 -2.4112
14707TIP3   OH265611   2.848   5.523  11.044  0.0824  0.7341  0.4561
14707TIP3    H165612   2.899   5.469  10.982  0.5040  0.3430  1.1269
14707TIP3    H265613   2.887   5.504  11.129 -2.4917 -1.2346  1.3488
14708TIP3   OH265614   1.289   3.861  15.098  0.0079 -0.2120 -0.0414
14708TIP3    H165615   1.384   3.856  15.092  0.2353  2.0943  0.4482
14708TIP3    H265616   1.272   3.886  15.189 -0.9665  0.6032 -0.4211
14709TIP3   OH265617   2.369   1.583  13.999  0.1475 -0.2102  0.2588
14709TIP3    H165618   2.434   1.556  14.064  1.5424  1.4697 -0.3634
14709TIP3    H265619   2.339   1.502  13.960  2.2009 -1.0401  0.2884
14710TIP3   OH265620   2.587   0.204  16.968 -0.8012  0.5748  0.4426
14710TIP3    H165621   2.654   0.176  16.905  0.7618  2.4252  1.1998
14710TIP3    H265622   2.505   0.197  16.919 -0.3516 -3.1439 -0.0846
14711TIP3   OH265623   4.318   4.282  15.006 -0.4804  0.1509  0.3153
14711TIP3    H165624   4.317   4.260  14.913  1.4124 -2.3471  0.7531
14711TIP3    H265625   4.267   4.212  15.047  2.1135 -1.1987  1.4450
14712TIP3   OH265626   3.957   5.977  11.064 -0.3119  0.1769 -0.0056
14712TIP3    H165627   4.036   5.928  11.037 -0.4834  0.3970 -0.9588
14712TIP3    H265628   3.901   5.975  10.986 -0.8342  0.8524  0.3472
14713TIP3   OH265629   5.655   3.556   1.201  0.1154 -0.2060  0.0214
14713TIP3    H165630   5.688   3.555   1.291  1.8297  1.0825 -0.5323
14713TIP3    H265631   5.690   3.475   1.162 -0.8966 -0.9273  0.5669
14714TIP3   OH265632   2.307   0.986  12.506 -0.3016  0.1874 -0.4171
14714TIP3    H165633   2.295   0.959  12.415  0.7871 -1.2419 -0.1777
14714TIP3    H265634   2.398   0.962  12.525 -0.2689  1.2062  0.8126
14715TIP3   OH265635   5.079   0.665   4.632  0.1687  0.1537 -0.4441
14715TIP3    H165636   5.141   0.599   4.665 -1.3091 -0.1371  1.9581
14715TIP3    H265637   5.128   0.747   4.636  0.5174 -0.1040  1.1821
14716TIP3   OH265638   2.461   2.661   0.426 -0.4892  0.2408  0.3062
14716TIP3    H165639   2.510   2.594   0.474  0.9957  0.2497 -1.1200
14716TIP3    H265640   2.369   2.641   0.444 -0.0356 -0.2509  2.4327
14717TIP3   OH265641   5.343   3.413  13.527  0.5535 -0.3450 -0.4177
14717TIP3    H165642   5.256   3.406  13.488  0.7995 -0.0700 -1.0318
14717TIP3    H265643   5.384   3.329  13.509 -0.1385 -1.1043  1.2984
14718TIP3   OH265644   1.628   2.950   3.043 -0.5867  0.4819  0.5626
14718TIP3    H165645   1.717   2.953   3.077 -0.5567 -0.6917  0.6397
14718TIP3    H265646   1.591   3.036   3.064  0.2002  0.6251  1.4235
14719TIP3   OH265647   5.114   2.143  16.152  0.0133  0.8508  0.1103
14719TIP3    H165648   5.113   2.080  16.224 -1.7337  2.8538  1.9847
14719TIP3    H265649   5.067   2.100  16.081  1.5099 -1.0529  0.2051
14720TIP3   OH265650   6.475   3.636   2.257  0.8405  0.6334 -0.2696
14720TIP3    H165651   6.451   3.544   2.254  0.0963  0.7296  1.3426
14720TIP3    H265652   6.402   3.681   2.214 -0.5863  0.6910  2.0339
14721TIP3   OH265653   5.581   3.052   1.934 -0.3304  0.2730 -0.7797
14721TIP3    H165654   5.515   3.091   1.991 -0.5064  0.8880 -1.3982
14721TIP3    H265655   5.555   3.076   1.845  1.0300  1.0622 -1.0097
14722TIP3   OH265656   1.799   3.585  15.873 -0.1897  0.9033 -0.1232
14722TIP3    H165657   1.833   3.496  15.880 -1.2593  0.3438 -1.5619
14722TIP3    H265658   1.796   3.616  15.964  2.1625  0.2745  0.2277
14723TIP3   OH265659   0.670   2.214   0.014 -0.3903 -0.2635 -0.2600
14723TIP3    H165660   0.645   2.207  -0.078  3.8318  2.4155 -1.9056
14723TIP3    H265661   0.727   2.139   0.029  0.6105  0.4311 -0.5323
14724TIP3   OH265662   0.191   0.737  12.853  0.5882  0.0284 -0.0708
14724TIP3    H165663   0.252   0.736  12.779  1.3466 -0.2731  0.5473
14724TIP3    H265664   0.174   0.645  12.872 -1.1410  0.1004 -1.0935
14725TIP3   OH265665   4.053   2.603   0.652  0.0566  0.1010  0.2129
14725TIP3    H165666   3.987   2.554   0.603  0.2703  0.4271 -0.4093
14725TIP3    H265667   4.003   2.671   0.696 -0.3801 -1.1917  1.8255
14726TIP3   OH265668   1.719   2.378   2.083  0.4914  0.7290  0.9490
14726TIP3    H165669   1.683   2.463   2.059  1.5309  0.9095 -0.0766
14726TIP3    H265670   1.798   2.398   2.132  0.2426  0.3414  1.5210
14727TIP3   OH265671   6.248   5.420   4.867 -0.4083  0.2643  0.5541
14727TIP3    H165672   6.339   5.450   4.865 -0.2300 -0.2854 -0.7849
14727TIP3    H265673   6.213   5.457   4.948  1.1977 -0.0874  1.4645
14728TIP3   OH265674   0.760   3.794   5.572 -0.6375  0.1224  0.2566
14728TIP3    H165675   0.725   3.840   5.647 -0.4177  0.2324  0.2942
14728TIP3    H265676   0.725   3.841   5.496  1.1772  1.6394  0.2732
14729TIP3   OH265677   4.952   3.182   1.773 -0.0064  0.5492  0.0961
14729TIP3    H165678   4.986   3.130   1.700  1.2079 -0.1511  1.1190
14729TIP3    H265679   4.882   3.235   1.735  0.3281 -0.1016 -1.4776
14730TIP3   OH265680   0.883   3.382  13.172  0.2063  0.4023 -0.2206
14730TIP3    H165681   0.944   3.455  13.166  0.8347 -0.1115 -0.3282
14730TIP3    H265682   0.937   3.309  13.204  0.0781 -0.5424 -2.0537
14731TIP3   OH265683   4.396   3.143  12.749  0.1769  0.0527  0.0350
14731TIP3    H165684   4.421   3.051  12.762  0.0603  0.3528  2.8913
14731TIP3    H265685   4.307   3.138  12.715  0.3174 -0.8879 -0.2487
14732TIP3   OH265686   0.313   5.895  16.934 -0.3507  0.6759 -0.0751
14732TIP3    H165687   0.373   5.831  16.973  0.7160  2.2262  0.9844
14732TIP3    H265688   0.369   5.951  16.881 -1.3866  0.2967 -1.6318
14733TIP3   OH265689   6.695   4.000   3.481  1.1906 -0.3398 -0.5307
14733TIP3    H165690   6.775   3.954   3.509  0.5181 -0.8141  0.6811
14733TIP3    H265691   6.688   4.074   3.542 -0.2796 -1.3639  0.5894
14734TIP3   OH265692   3.150   5.217  11.324 -0.0966  0.4922 -0.0156
14734TIP3    H165693   3.150   5.235  11.418 -0.8516 -1.2119  0.3529
14734TIP3    H265694   3.241   5.194  11.304  0.1907  1.4359  0.1558
14735TIP3   OH265695   1.261   5.361  10.428  0.1435  0.4577 -0.5023
14735TIP3    H165696   1.259   5.269  10.454  0.7700  0.5836  0.0106
14735TIP3    H265697   1.171   5.391  10.440  0.4551  0.5962  1.8782
14736TIP3   OH265698   0.764   6.076   6.420 -0.0695  0.7577 -0.6979
14736TIP3    H165699   0.836   6.033   6.373 -1.2551  0.4197 -2.3111
14736TIP3    H265700   0.704   6.104   6.350 -1.3072  1.3833  0.5749
14737TIP3   OH265701   0.773   3.772   2.772 -0.0391  0.0459  0.2525
14737TIP3    H165702   0.689   3.782   2.728  0.3758  0.4071 -0.4766
14737TIP3    H265703   0.756   3.710   2.843 -0.7981 -0.2941 -0.2184
14738TIP3   OH265704   0.845   4.070  13.853  0.2558  0.0055  0.2863
14738TIP3    H165705   0.794   4.001  13.895  1.4163 -0.5432  0.8450
14738TIP3    H265706   0.806   4.151  13.884 -0.8793 -0.3765 -0.0740
14739TIP3   OH265707   3.222   2.854  13.489  0.0893  0.2796  0.2636
14739TIP3    H165708   3.244   2.802  13.566 -0.2741  2.0597  1.6324
14739TIP3    H265709   3.148   2.808  13.450 -1.1050  0.4150  2.2024
14740TIP3   OH265710   0.674   6.698   3.723 -0.5777 -0.8131 -0.3420
14740TIP3    H165711   0.712   6.697   3.635  0.9689  1.0597  0.2566
14740TIP3    H265712   0.617   6.775   3.724  0.9350  0.3425  0.8622
14741TIP3   OH265713   4.905   0.835   1.792 -0.2998 -0.0101 -0.1827
14741TIP3    H165714   4.882   0.928   1.786  0.6002  0.2826  0.5846
14741TIP3    H265715   4.824   0.792   1.820 -0.3545  0.7583  0.9124
14742TIP3   OH265716   5.629   5.833  14.665 -0.3010  0.1156 -0.2076
14742TIP3    H165717   5.624   5.915  14.615  2.1191  0.9881  0.7986
14742TIP3    H265718   5.713   5.795  14.639 -0.4554 -1.0119  0.8819
14743TIP3   OH265719   5.644   4.535  12.916 -0.1546  0.0554 -0.3505
14743TIP3    H165720   5.615   4.520  12.826 -0.5140 -0.5666 -0.1365
14743TIP3    H265721   5.637   4.630  12.927  0.5028  0.2144 -1.1754
14744TIP3   OH265722   4.456   5.268  12.416 -0.1759  0.5845 -0.3049
14744TIP3    H165723   4.515   5.291  12.487  0.7434 -1.3294 -0.3864
14744TIP3    H265724   4.509   5.216  12.356 -1.7256 -0.5002 -0.8163
14745TIP3   OH265725   1.312   1.876  14.086 -0.1581 -0.1375 -0.2287
14745TIP3    H165726   1.248   1.928  14.134  0.0782 -0.2946  0.2633
14745TIP3    H265727   1.396   1.900  14.124 -0.0042 -0.5314 -0.3157
14746TIP3   OH265728   5.022   5.210   4.283  0.0594 -0.3065  0.8242
14746TIP3    H165729   4.956   5.255   4.337  0.1252  0.2625  0.4416
14746TIP3    H265730   5.073   5.159   4.346 -0.5959 -0.5700  1.1561
14747TIP3   OH265731   4.571   4.315  11.593 -0.1885 -0.5761 -0.4784
14747TIP3    H165732   4.555   4.342  11.503 -1.1309  1.0572  0.1348
14747TIP3    H265733   4.665   4.326  11.605 -0.3538  1.4225 -0.6287
14748TIP3   OH265734   2.679   4.593  17.119 -0.9164  0.1583 -0.0750
14748TIP3    H165735   2.736   4.604  17.044  2.3360  1.9431  2.3731
14748TIP3    H265736   2.690   4.674  17.170 -4.1727 -0.2505  1.6044
14749TIP3   OH265737   6.141   3.047  11.803 -0.3055 -0.3516  0.0145
14749TIP3    H165738   6.187   3.103  11.866  1.9682 -2.6941  0.6319
14749TIP3    H265739   6.057   3.029  11.843 -0.8119  1.9708  0.1162
14750TIP3   OH265740   1.836   3.566   2.110  0.0561 -0.2043 -0.0886
14750TIP3    H165741   1.746   3.532   2.111  0.4785 -1.5349  2.4684
14750TIP3    H265742   1.861   3.564   2.018 -1.7916 -1.9750 -0.6448
14751TIP3   OH265743   2.846   2.048  16.354  0.0598  0.5444  0.3075
14751TIP3    H165744   2.915   2.038  16.419  1.2522 -1.0110 -1.1252
14751TIP3    H265745   2.892   2.058  16.271 -1.3148 -2.2765 -0.9466
14752TIP3   OH265746   3.482   5.466  11.709 -0.4076  0.4653 -0.2833
14752TIP3    H165747   3.536   5.515  11.771 -0.5780  0.1767  0.0904
14752TIP3    H265748   3.407   5.524  11.692 -0.2351  0.6525 -0.4203
14753TIP3   OH265749   0.316   2.675   1.289  0.0486 -0.1173 -0.1934
14753TIP3    H165750   0.385   2.737   1.267 -0.0537  0.1216  0.1371
14753TIP3    H265751   0.327   2.661   1.383  1.8491 -2.7849 -0.7105
14754TIP3   OH265752   6.585   2.402  14.045  0.0243  0.0318  0.1639
14754TIP3    H165753   6.530   2.344  14.097 -1.2116  0.1173 -0.9964
14754TIP3    H265754   6.539   2.486  14.047 -1.2669 -0.4739 -2.7619
14755TIP3   OH265755   6.135   2.858   5.715  0.0085 -0.2090 -0.3200
14755TIP3    H165756   6.219   2.825   5.746  0.1961 -0.3296 -0.9436
14755TIP3    H265757   6.085   2.876   5.795  0.1118 -1.4667  0.0422
14756TIP3   OH265758   1.224   6.162  14.047  0.4010 -0.3999 -0.0537
14756TIP3    H165759   1.167   6.118  13.984  0.5613  1.4410 -1.5527
14756TIP3    H265760   1.303   6.107  14.050  0.3391 -0.5968 -1.3816
14757TIP3   OH265761   0.485   1.062   2.869 -0.3058 -0.0247 -0.4365
14757TIP3    H165762   0.523   1.037   2.785 -1.9241 -0.5480 -1.0362
14757TIP3    H265763   0.391   1.058   2.856 -0.6155 -0.8225  1.5919
14758TIP3   OH265764   6.353   1.364  14.050 -0.1883 -0.1080  0.1556
14758TIP3    H165765   6.390   1.382  14.136 -0.9409  0.7419  0.3228
14758TIP3    H265766   6.422   1.317  14.003  0.3566 -0.2772  1.0998
14759TIP3   OH265767   5.585   6.065  16.839 -0.0742  0.5599 -0.5553
14759TIP3    H165768   5.540   6.043  16.920  1.6037  0.9262  0.5350
14759TIP3    H265769   5.515   6.071  16.774 -1.3776 -0.5576  0.6639
14760TIP3   OH265770   0.474   6.105   2.802  0.2012 -0.5844 -0.3269
14760TIP3    H165771   0.484   6.015   2.771  2.7081  0.0124 -1.4778
14760TIP3    H265772   0.539   6.115   2.871 -0.1758  0.2964 -0.0756
14761TIP3   OH265773   5.460   5.824  16.463 -0.2573 -0.0456  0.1593
14761TIP3    H165774   5.496   5.807  16.550  0.3038  1.7586  0.3298
14761TIP3    H265775   5.411   5.746  16.442 -1.6021 -0.0011  2.7149
14762TIP3   OH265776   4.344   4.993   4.944 -0.1283 -0.1205 -0.1434
14762TIP3    H165777   4.259   4.949   4.940 -1.0978  1.5622  0.7380
14762TIP3    H265778   4.405   4.930   4.907 -1.6905 -1.5421 -0.4415
14763TIP3   OH265779   3.956   0.829  15.403  0.1967  0.0235 -0.0491
14763TIP3    H165780   4.012   0.772  15.350  1.0178 -0.3098  1.1305
14763TIP3    H265781   3.945   0.782  15.485  0.2044  1.1827  0.6344
14764TIP3   OH265782   2.142   1.900  15.230  0.2256  0.2758  0.0023
14764TIP3    H165783   2.154   1.945  15.314  0.4737  0.2645 -0.0248
14764TIP3    H265784   2.190   1.817  15.240 -0.7729 -0.2789  0.2786
14765TIP3   OH265785   5.235   1.204  16.887 -0.2373 -0.0049 -0.0127
14765TIP3    H165786   5.268   1.119  16.857 -0.9213 -0.2213 -0.1954
14765TIP3    H265787   5.239   1.200  16.982  1.8074  0.6239 -0.0272
14766TIP3   OH265788   5.995   2.939  12.281 -0.0155  0.6487  0.0251
14766TIP3    H165789   5.978   2.849  12.253  0.2527  0.7852 -0.5790
14766TIP3    H265790   6.031   2.930  12.369 -0.0400  0.1690 -0.0125
14767TIP3   OH265791   5.608   2.742  16.906 -0.0562 -0.0263 -0.3695
14767TIP3    H165792   5.616   2.782  16.819  1.2178  1.1167  0.2237
14767TIP3    H265793   5.676   2.786  16.958 -1.0954 -0.3536  1.3312
14768TIP3   OH265794   3.284   4.657   2.175 -0.3189 -0.4770  0.4884
14768TIP3    H165795   3.228   4.731   2.200  0.8569 -0.4598  3.4700
14768TIP3    H265796   3.346   4.695   2.113 -0.5576  0.7181  0.9527
14769TIP3   OH265797   0.970   2.288  15.085 -0.0699  0.3136  0.3170
14769TIP3    H165798   1.054   2.243  15.094  0.8689  2.0969  1.0938
14769TIP3    H265799   0.994   2.377  15.057 -1.5133  1.4110  2.2897
14770TIP3   OH265800   3.778   0.143   2.874  0.3686 -1.1235  0.3162
14770TIP3    H165801   3.836   0.194   2.931  1.3510 -2.3812  0.5030
14770TIP3    H265802   3.834   0.117   2.801  0.0315 -2.2746  0.4490
14771TIP3   OH265803   4.045   1.652   1.059 -0.1752  0.5346  0.0076
14771TIP3    H165804   4.038   1.676   0.967 -0.7609  1.1879  0.2140
14771TIP3    H265805   3.955   1.644   1.089 -0.0021 -1.1140  0.1700
14772TIP3   OH265806   2.092   0.206   6.079  0.6776 -0.0304 -0.1389
14772TIP3    H165807   2.105   0.186   6.172  1.0681 -0.3801 -0.2606
14772TIP3    H265808   2.022   0.147   6.052  0.0085  0.6377  0.1174
14773TIP3   OH265809   5.791   1.490   0.494  0.1934 -0.0049 -0.0588
14773TIP3    H165810   5.855   1.554   0.527  0.6895 -0.5340  0.0300
14773TIP3    H265811   5.723   1.543   0.454 -0.8468  0.7321  2.4708
14774TIP3   OH265812   4.456   4.659  14.733  0.3045  0.3556  0.3867
14774TIP3    H165813   4.525   4.596  14.710  0.9026  1.4193 -0.9227
14774TIP3    H265814   4.410   4.619  14.806  0.3409 -1.8198 -0.7075
14775TIP3   OH265815   1.083   4.653  12.250  0.0687 -0.3436  0.1024
14775TIP3    H165816   1.052   4.710  12.179  4.3514  0.9558 -0.9934
14775TIP3    H265817   1.128   4.582  12.206  0.6727 -0.8739  1.5272
14776TIP3   OH265818   3.980   6.775   3.201  0.4180  0.2550 -0.1841
14776TIP3    H165819   4.021   6.698   3.161  0.3345  1.5145 -2.8574
14776TIP3    H265820   3.888   6.750   3.211  0.8808 -0.9214  1.5464
14777TIP3   OH265821   4.035   6.694   2.745  0.9568  0.5453 -0.0948
14777TIP3    H165822   3.988   6.649   2.675 -0.2657 -3.0465  2.7226
14777TIP3    H265823   3.999   6.782   2.746 -0.6543 -0.0023 -2.4391
14778TIP3   OH265824   5.618   0.849  13.235  0.0139  0.0998 -0.0876
14778TIP3    H165825   5.705   0.829  13.198  0.4268 -0.8665  1.3295
14778TIP3    H265826   5.586   0.764  13.266 -0.2838  0.8724  1.7942
14779TIP3   OH265827   3.103   2.690  14.858 -0.0849  0.4441 -0.8871
14779TIP3    H165828   3.127   2.681  14.950  2.6344 -1.4076 -1.6432
14779TIP3    H265829   3.038   2.761  14.856  0.9380  1.6152  2.2152
14780TIP3   OH265830   2.929   2.755  12.613 -0.3780 -0.2946  0.3343
14780TIP3    H165831   2.994   2.787  12.675 -1.0372  0.5056  0.6300
14780TIP3    H265832   2.974   2.687  12.563  0.0647 -1.2273  1.9344
14781TIP3   OH265833   1.651   4.688  15.262  0.1159 -0.9953 -0.1655
14781TIP3    H165834   1.649   4.619  15.328  0.2997  0.1018  1.0390
14781TIP3    H265835   1.596   4.757  15.298  2.5577  0.8554  0.2968
14782TIP3   OH265836   3.887   2.437   5.216 -0.6236 -0.2026  0.1624
14782TIP3    H165837   3.828   2.363   5.202 -1.1707  0.1870  0.3634
14782TIP3    H265838   3.972   2.397   5.233 -0.4931 -0.7372 -1.6054
14783TIP3   OH265839   2.462   6.004   1.049 -0.1762 -0.4192  0.0330
14783TIP3    H165840   2.457   5.909   1.057 -1.4850 -0.4207 -0.5641
14783TIP3    H265841   2.503   6.019   0.964  1.2381 -0.4173  0.6780
14784TIP3   OH265842   1.320   1.568  14.700  0.0680  0.4048  0.4348
14784TIP3    H165843   1.360   1.502  14.758 -1.6392 -0.3963  0.7526
14784TIP3    H265844   1.394   1.624  14.674  1.1175 -0.0053  2.3141
14785TIP3   OH265845   4.769   4.626  16.416 -0.5921 -0.7918  0.4600
14785TIP3    H165846   4.685   4.585  16.397 -0.6955 -0.1040 -0.6838
14785TIP3    H265847   4.834   4.561  16.390 -0.7663 -0.6341 -0.4162
14786TIP3   OH265848   4.895   2.150   2.317  0.3161  0.3146 -0.0147
14786TIP3    H165849   4.817   2.193   2.353  1.0977  1.8197 -0.0537
14786TIP3    H265850   4.968   2.204   2.347  1.6068 -2.2860  1.9043
14787TIP3   OH265851   5.199   2.670   1.076 -0.0780 -0.5391  0.0852
14787TIP3    H165852   5.155   2.755   1.072  0.6385 -0.1570  0.1347
14787TIP3    H265853   5.131   2.606   1.055 -0.2901  0.1535 -1.3818
14788TIP3   OH265854   6.246   3.796  16.827  0.3388  0.4378  0.9816
14788TIP3    H165855   6.283   3.715  16.794  1.1992  0.9997  0.5445
14788TIP3    H265856   6.282   3.805  16.916 -1.0707 -0.4847  1.6916
14789TIP3   OH265857   6.375   5.576  15.655 -0.3135 -0.2411 -0.8337
14789TIP3    H165858   6.417   5.560  15.739  0.7712 -0.2142 -1.3575
14789TIP3    H265859   6.340   5.490  15.629 -1.3391 -0.0918 -0.0085
14790TIP3   OH265860   0.383   2.221   0.805  0.1149 -0.3908  0.0966
14790TIP3    H165861   0.444   2.282   0.763 -2.2237  1.9090 -0.2539
14790TIP3    H265862   0.331   2.186   0.733  0.3493 -1.5677  0.4770
14791TIP3   OH265863   5.470   2.253  16.845  0.7306  0.0979 -0.4099
14791TIP3    H165864   5.564   2.271  16.850  0.5948  1.4388 -1.8367
14791TIP3    H265865   5.438   2.271  16.933  1.5538  1.4774 -0.3534
14792TIP3   OH265866   0.616   3.555   2.878 -0.5501  0.2675  0.3703
14792TIP3    H165867   0.534   3.557   2.828 -0.9988 -2.8350  0.7531
14792TIP3    H265868   0.638   3.462   2.883  2.7564  0.9500  0.7413
14793TIP3   OH265869   1.978   2.042   4.550 -0.3847  0.3662  0.3465
14793TIP3    H165870   1.999   2.100   4.624  0.9324 -0.0687  0.3381
14793TIP3    H265871   2.057   1.991   4.536 -1.0156 -0.3907 -0.6268
14794TIP3   OH265872   1.594   1.444  11.574  0.2702 -0.0534  0.3537
14794TIP3    H165873   1.680   1.403  11.584  0.7443  1.2735  2.2859
14794TIP3    H265874   1.612   1.530  11.536 -0.2060  0.1997  0.6845
14795TIP3   OH265875   5.600   4.938  13.360  0.1096  0.0461 -0.1711
14795TIP3    H165876   5.549   4.966  13.284  0.6910 -0.6965 -0.8518
14795TIP3    H265877   5.545   4.873  13.403  0.1232 -0.1286 -0.4171
14796TIP3   OH265878   4.925   6.160  12.998  0.5621 -0.2446 -0.9586
14796TIP3    H165879   4.984   6.123  13.063 -1.1257  1.3115  1.6306
14796TIP3    H265880   4.957   6.250  12.986 -1.5474  0.8788  1.0582
14797TIP3   OH265881   2.274   0.051   0.208  0.2716 -0.6027  0.1543
14797TIP3    H165882   2.323  -0.031   0.195  0.5179 -0.2977 -0.8591
14797TIP3    H265883   2.242   0.044   0.298  1.3684 -1.2434  0.5202
14798TIP3   OH265884   2.308   6.338   5.816 -0.0960  0.2759  0.3118
14798TIP3    H165885   2.295   6.318   5.908 -1.3549 -1.7009 -0.2303
14798TIP3    H265886   2.312   6.253   5.773  0.7357  1.1450 -1.4347
14799TIP3   OH265887   0.608   1.023  13.139  0.4422  0.1566  0.1435
14799TIP3    H165888   0.655   0.940  13.144  0.9453  0.4247  0.0064
14799TIP3    H265889   0.516   1.000  13.146  0.6122 -0.3498  0.7314
14800TIP3   OH265890   1.434   1.500  17.108  0.0383 -0.0893  0.0180
14800TIP3    H165891   1.431   1.432  17.040 -0.8450  1.2299 -1.3425
14800TIP3    H265892   1.419   1.582  17.060 -3.7721  0.6993  2.1151
14801TIP3   OH265893   2.079   0.151  11.846 -0.1277 -0.8020  0.3038
14801TIP3    H165894   2.123   0.072  11.814  1.4398 -0.1796  0.8516
14801TIP3    H265895   2.143   0.221  11.835 -1.5700  0.4810 -0.3966
14802TIP3   OH265896   0.628   1.351  17.080  0.3231  0.0512  0.5078
14802TIP3    H165897   0.613   1.437  17.118 -0.0068  0.1741  0.1052
14802TIP3    H265898   0.593   1.290  17.145 -2.9342  0.3425 -0.7751
14803TIP3   OH265899   2.431   5.500   4.802 -0.4671  0.4154 -0.0240
14803TIP3    H165900   2.390   5.470   4.883 -1.8598 -0.2794 -0.9403
14803TIP3    H265901   2.427   5.596   4.807 -1.3882  0.3741  0.3361
14804TIP3   OH265902   6.270   2.511   4.684  0.3568  0.5245  0.1187
14804TIP3    H165903   6.198   2.542   4.630  0.7237 -1.3993 -1.5842
14804TIP3    H265904   6.245   2.422   4.710  0.8446  0.8707  1.9751
14805TIP3   OH265905   4.765   5.785  13.517 -0.0009 -0.0113  0.1703
14805TIP3    H165906   4.695   5.729  13.485 -0.0174 -0.4786  0.9953
14805TIP3    H265907   4.844   5.732  13.510 -0.0977 -0.3696  1.4690
14806TIP3   OH265908   0.919   2.567   4.324 -0.0817  0.4171 -0.4846
14806TIP3    H165909   0.956   2.649   4.358 -0.1115  0.5023 -0.6589
14806TIP3    H265910   0.953   2.500   4.383  0.3270  0.5001 -0.6248
14807TIP3   OH265911   0.723   0.415  11.724  0.5947 -0.4244  0.4223
14807TIP3    H165912   0.735   0.393  11.816 -0.5443 -0.8142  0.4831
14807TIP3    H265913   0.679   0.501  11.726 -0.4254 -0.9321  0.2699
14808TIP3   OH265914   0.957   4.584  11.904 -0.0358  0.4944 -0.2894
14808TIP3    H165915   0.927   4.525  11.973 -0.6967  1.0302 -0.1055
14808TIP3    H265916   0.880   4.638  11.884  0.0962  0.2319 -1.5718
14809TIP3   OH265917   3.685   1.587  13.728 -0.1683  0.0815 -0.4469
14809TIP3    H165918   3.607   1.605  13.676 -0.3537 -2.3399 -1.1251
14809TIP3    H265919   3.654   1.534  13.802  0.2358  2.6903  1.7600
14810TIP3   OH265920   2.265   3.174  13.148 -0.1739  0.5800  0.6069
14810TIP3    H165921   2.252   3.260  13.187 -2.0617  0.8257 -0.4752
14810TIP3    H265922   2.209   3.115  13.198 -0.1132  0.2814  0.3316
14811TIP3   OH265923   1.557   3.990  12.558 -0.2813  0.4308  0.2347
14811TIP3    H165924   1.478   3.992  12.612  0.0786 -1.3436  0.8777
14811TIP3    H265925   1.531   3.946  12.478 -0.1000  0.4343  0.1719
14812TIP3   OH265926   2.290   0.284   4.562  1.2237  0.5626  0.0445
14812TIP3    H165927   2.303   0.226   4.487  2.1681  1.4115 -0.4805
14812TIP3    H265928   2.209   0.332   4.542  0.5638 -0.3933  0.3766
14813TIP3   OH265929   4.873   6.190   4.594  0.2611  1.1198  0.3840
14813TIP3    H165930   4.886   6.238   4.676 -0.0036  2.2617 -0.2207
14813TIP3    H265931   4.794   6.139   4.608  1.3662 -0.3635  1.5760
14814TIP3   OH265932   1.366   0.209   0.391  0.2764 -0.3671 -0.5848
14814TIP3    H165933   1.284   0.257   0.396 -0.0390 -0.6974 -2.1836
14814TIP3    H265934   1.346   0.123   0.426  0.2076 -0.1499 -0.0724
14815TIP3   OH265935   5.242   5.205  12.312  0.0283 -0.0370  0.5120
14815TIP3    H165936   5.171   5.143  12.295  0.0299 -0.2486  1.2132
14815TIP3    H265937   5.239   5.266  12.239  0.2134 -1.0340 -0.3591
14816TIP3   OH265938   4.140   3.206  15.021 -0.4316 -0.0053  0.0982
14816TIP3    H165939   4.112   3.194  14.930  2.9344 -3.1512 -0.7414
14816TIP3    H265940   4.126   3.121  15.062 -1.2761  1.1761  2.4144
14817TIP3   OH265941   5.868   0.864  13.143 -0.1155  0.6037 -0.3611
14817TIP3    H165942   5.882   0.944  13.091  1.9985  1.0324  0.7439
14817TIP3    H265943   5.936   0.804  13.113 -0.7673 -0.2470 -0.1637
14818TIP3   OH265944   6.430   1.298   4.286 -0.5372 -0.5875 -0.1139
14818TIP3    H165945   6.411   1.344   4.205  0.6142  0.4456  0.1813
14818TIP3    H265946   6.344   1.272   4.320 -1.4034  2.5730  0.4283
14819TIP3   OH265947   6.201   2.628   5.252  0.5071 -0.4265 -0.4869
14819TIP3    H165948   6.215   2.713   5.294  0.1879 -0.6541  0.0907
14819TIP3    H265949   6.208   2.646   5.158 -3.9489  1.1861 -0.7660
14820TIP3   OH265950   3.806   3.496   6.548  0.9158  0.3399  0.0197
14820TIP3    H165951   3.767   3.550   6.479 -0.4525 -0.7043 -0.0658
14820TIP3    H265952   3.764   3.527   6.629  2.2214  1.2903  0.3639
14821TIP3   OH265953   6.560   4.819  11.205  0.2159 -0.2186 -0.3237
14821TIP3    H165954   6.645   4.782  11.182  0.0824 -1.2726  0.7830
14821TIP3    H265955   6.497   4.765  11.157  0.1152 -0.1119 -0.3126
14822TIP3   OH265956   6.084   5.711   6.038 -0.4193  0.1699 -0.4321
14822TIP3    H165957   6.056   5.779   6.100  2.4851  0.5842  0.5569
14822TIP3    H265958   6.022   5.718   5.965 -1.1853  2.8001  0.3602
14823TIP3   OH265959   3.058   6.064   4.457  0.6295 -0.2160  0.1230
14823TIP3    H165960   3.106   5.989   4.492 -0.7945 -1.1150  0.2206
14823TIP3    H265961   2.989   6.081   4.521 -0.1407  0.0493 -0.7440
14824TIP3   OH265962   0.751   3.006   0.750  0.0012  0.3618  0.0035
14824TIP3    H165963   0.770   2.986   0.658 -4.0779  1.6549 -1.3293
14824TIP3    H265964   0.801   3.085   0.768  1.4562 -0.3297 -0.7815
14825TIP3   OH265965   2.589   0.660   1.594 -0.1505 -0.4552 -0.3502
14825TIP3    H165966   2.533   0.725   1.551  1.2329 -0.2018 -1.8754
14825TIP3    H265967   2.582   0.582   1.539 -0.7568 -1.1774  0.7251
14826TIP3   OH265968   2.225   4.810  12.737  0.5269 -0.0895  0.0722
14826TIP3    H165969   2.267   4.887  12.776  1.0236 -0.0534 -0.5189
14826TIP3    H265970   2.165   4.779  12.805 -0.2890  1.2933  0.0255
14827TIP3   OH265971   3.838   3.241  12.334 -0.6363 -0.6740  0.6615
14827TIP3    H165972   3.770   3.251  12.267  0.5423  2.4110 -0.2229
14827TIP3    H265973   3.903   3.184  12.294 -1.0552 -0.7882  0.1330
14828TIP3   OH265974   3.922   5.139   2.514 -0.1272  0.1087 -0.2372
14828TIP3    H165975   3.886   5.199   2.580 -1.2740 -0.7824 -0.0276
14828TIP3    H265976   3.966   5.196   2.452 -0.6271  1.1235  0.3111
14829TIP3   OH265977   5.512   1.843  13.907 -0.2665 -0.9685  0.2970
14829TIP3    H165978   5.459   1.767  13.879 -1.8583  0.3975 -0.5901
14829TIP3    H265979   5.448   1.913  13.918  1.1823  0.2791  1.0340
14830TIP3   OH265980   2.290   2.517  12.099 -0.2058  0.2555 -0.1878
14830TIP3    H165981   2.263   2.426  12.082 -1.3121  0.2513  1.3388
14830TIP3    H265982   2.364   2.509  12.159 -0.7653  0.3451  0.5335
14831TIP3   OH265983   3.526   0.405   2.003 -0.5102  0.3622  0.4844
14831TIP3    H165984   3.514   0.412   2.098  1.5330  1.5162  0.7256
14831TIP3    H265985   3.437   0.395   1.968 -1.4887  1.7146  2.3797
14832TIP3   OH265986   6.114   3.419  12.390  0.4177 -0.0857  0.3000
14832TIP3    H165987   6.155   3.410  12.476  0.6859  0.0628  0.1882
14832TIP3    H265988   6.173   3.476  12.341  0.9422 -1.2189 -0.4115
14833TIP3   OH265989   1.507   3.702   1.249 -0.4847  0.1216 -0.1387
14833TIP3    H165990   1.506   3.777   1.308 -0.2505 -0.4548  0.6167
14833TIP3    H265991   1.532   3.628   1.304 -1.3807 -0.6415 -0.7243
14834TIP3   OH265992   5.651   1.294   4.202  0.5149 -0.0260 -0.4436
14834TIP3    H165993   5.658   1.205   4.238  0.0826  0.3704  0.6889
14834TIP3    H265994   5.679   1.351   4.274  0.4794  0.7735 -1.0445
14835TIP3   OH265995   5.260   3.636  10.804 -0.2782 -0.4038  0.2633
14835TIP3    H165996   5.167   3.619  10.820 -0.8515  2.4151  0.4013
14835TIP3    H265997   5.304   3.603  10.882 -1.7175  2.0268  2.2690
14836TIP3   OH265998   4.919   5.292  16.914 -0.1766  0.3771 -0.0142
14836TIP3    H165999   4.903   5.384  16.932  2.3516  0.6978  1.0347
14836TIP3    H266000   4.900   5.248  16.998 -0.1139  0.1276 -0.1300
14837TIP3   OH266001   0.212   1.040   0.659 -0.3897 -0.9241 -0.1430
14837TIP3    H166002   0.178   1.100   0.726  1.3856  0.0658 -0.0555
14837TIP3    H266003   0.283   0.993   0.703  2.4809  1.4600 -1.8037
14838TIP3   OH266004   6.000   4.666   5.720  0.3867  0.1193 -0.6170
14838TIP3    H166005   5.929   4.602   5.719 -0.2608  0.7883 -2.5321
14838TIP3    H266006   6.057   4.638   5.791 -0.9451 -1.3804 -0.0878
14839TIP3   OH266007   1.349   1.408  15.430 -0.4880 -0.5208 -0.2823
14839TIP3    H166008   1.273   1.466  15.439 -0.5694 -0.4666 -1.2505
14839TIP3    H266009   1.312   1.320  15.434 -0.6676 -0.4959 -1.1601
14840TIP3   OH266010   3.903   5.854   1.485  0.0801 -0.1045 -0.1561
14840TIP3    H166011   3.925   5.868   1.393  0.6030 -0.4241 -0.0851
14840TIP3    H266012   3.888   5.760   1.492  1.3582 -0.2870  0.3505
14841TIP3   OH266013   6.557   4.806  14.579  0.1447 -0.1029  0.6059
14841TIP3    H166014   6.584   4.840  14.664  2.6110 -0.7365  0.1613
14841TIP3    H266015   6.505   4.728  14.600  2.1832 -1.2880  1.6060
14842TIP3   OH266016   2.403   4.183  16.766  0.0331 -0.0899 -0.1775
14842TIP3    H166017   2.309   4.174  16.749 -0.1477  2.0441 -0.5547
14842TIP3    H266018   2.444   4.129  16.698 -0.8934 -0.8454 -0.1702
14843TIP3   OH266019   3.669   4.390  14.214  0.0500  0.5531  0.0518
14843TIP3    H166020   3.617   4.327  14.164 -1.7606  0.4245  1.9817
14843TIP3    H266021   3.715   4.337  14.279 -1.0937  1.1029  1.3591
14844TIP3   OH266022   0.213   1.683   3.654  0.1168  0.3790 -0.0000
14844TIP3    H166023   0.145   1.718   3.597 -2.2698 -2.8840  0.5644
14844TIP3    H266024   0.251   1.610   3.605 -0.3795 -1.0116  1.5488
14845TIP3   OH266025   4.225   0.171   4.471 -0.5299 -0.3581  0.0720
14845TIP3    H166026   4.305   0.176   4.419 -0.4028  2.1999  0.3873
14845TIP3    H266027   4.255   0.182   4.561 -1.1160 -1.0002  0.3592
14846TIP3   OH266028   0.404   6.592   5.346  0.6528  0.6866 -0.0298
14846TIP3    H166029   0.321   6.544   5.341  1.0535  0.1251 -2.1014
14846TIP3    H266030   0.456   6.542   5.408  0.3154 -0.4041 -0.5951
14847TIP3   OH266031   3.510   4.579  13.875  0.0341 -0.3769 -0.3697
14847TIP3    H166032   3.595   4.622  13.869 -0.3972  0.3629 -1.4581
14847TIP3    H266033   3.486   4.562  13.784  0.0899 -2.7556 -0.0012
14848TIP3   OH266034   5.200   3.375  15.847  0.1000  0.1911 -0.0816
14848TIP3    H166035   5.254   3.347  15.921 -1.4320 -0.1227  0.9644
14848TIP3    H266036   5.154   3.295  15.819 -0.5034  0.6325 -0.3691
14849TIP3   OH266037   3.150   1.641  15.318  0.4666  0.5268  0.0848
14849TIP3    H166038   3.188   1.709  15.375 -0.2674 -0.3181  1.6436
14849TIP3    H266039   3.059   1.634  15.348  0.5477 -1.1732 -0.0106
14850TIP3   OH266040   3.451   1.582  15.406 -0.2184 -0.7381  0.1534
14850TIP3    H166041   3.365   1.557  15.371 -0.4826 -0.2821  0.4640
14850TIP3    H266042   3.511   1.570  15.333 -0.2314 -2.7807  0.4140
14851TIP3   OH266043   3.551   2.856   1.529 -0.0141 -0.4279  0.1279
14851TIP3    H166044   3.575   2.877   1.439 -0.2428 -1.3818 -0.1730
14851TIP3    H266045   3.477   2.913   1.549  0.5109  0.3185 -0.0180
14852TIP3   OH266046   3.774   0.285   6.191  0.4579  0.0701 -0.1007
14852TIP3    H166047   3.715   0.210   6.198  0.8102 -0.0478  2.5314
14852TIP3    H266048   3.791   0.312   6.281 -0.1869  3.7897 -0.9166
14853TIP3   OH266049   6.034   1.935   2.094 -0.0319  0.1421 -0.3553
14853TIP3    H166050   5.938   1.937   2.098 -0.0395 -1.4876  1.1211
14853TIP3    H266051   6.061   1.886   2.171  1.8729 -1.5981 -1.9960
14854TIP3   OH266052   0.462   0.452  16.776 -0.0676 -0.2403  0.1474
14854TIP3    H166053   0.539   0.491  16.735  0.4048 -0.4044  0.8599
14854TIP3    H266054   0.388   0.485  16.725  0.5881 -1.9019 -2.0444
14855TIP3   OH266055   0.329   5.347   6.014  0.1703  0.3610 -0.3728
14855TIP3    H166056   0.424   5.357   6.005  0.5778 -0.8070  1.9793
14855TIP3    H266057   0.294   5.434   5.994  1.8608  1.1991  0.1133
14856TIP3   OH266058   1.355   2.642   5.444 -0.5364 -0.4530 -0.0721
14856TIP3    H166059   1.351   2.554   5.480 -1.0264  0.0228  1.0746
14856TIP3    H266060   1.279   2.687   5.481 -0.3831  0.4017 -0.7666
14857TIP3   OH266061   1.078   0.758   6.308  0.0549 -0.0519  0.2584
14857TIP3    H166062   1.026   0.804   6.374  0.1015  2.2345 -1.1889
14857TIP3    H266063   1.167   0.757   6.344 -0.5962 -2.8262  2.1519
14858TIP3   OH266064   0.816   2.513  11.221 -0.1840  0.1763  0.7131
14858TIP3    H166065   0.722   2.510  11.201  0.1571 -1.4368 -0.9551
14858TIP3    H266066   0.840   2.604  11.208 -1.3098  0.4041  0.0256
14859TIP3   OH266067   1.816   4.757   3.700  0.2645 -0.1263 -0.1626
14859TIP3    H166068   1.774   4.835   3.662  2.2232  0.4228 -1.3436
14859TIP3    H266069   1.802   4.689   3.635  0.0371 -0.3052  0.0735
14860TIP3   OH266070   5.814   6.313  15.262 -0.0100  0.3102  0.7679
14860TIP3    H166071   5.803   6.219  15.277  0.9451  0.3668  2.0171
14860TIP3    H266072   5.790   6.353  15.346  0.1228  1.1415  0.4164
14861TIP3   OH266073   4.703   5.295  13.970 -0.1459  0.2593 -0.2680
14861TIP3    H166074   4.670   5.215  14.011 -0.0305  1.2404  1.9094
14861TIP3    H266075   4.787   5.311  14.013 -0.6825  2.1092  0.1816
14862TIP3   OH266076   0.088   6.782   3.791 -0.2671  0.1929 -0.1332
14862TIP3    H166077  -0.001   6.768   3.758 -0.5871  0.8800  0.4198
14862TIP3    H266078   0.124   6.693   3.800 -1.0675 -0.1213  0.0956
14863TIP3   OH266079   2.107   5.928   4.661 -0.1145 -0.3310  0.2972
14863TIP3    H166080   2.052   5.987   4.610 -0.6807  0.9305  2.2739
14863TIP3    H266081   2.175   5.899   4.600 -0.4579  1.5146 -1.0265
14864TIP3   OH266082   1.882   1.932  15.126 -0.2673  0.3024  0.6938
14864TIP3    H166083   1.810   1.870  15.135  0.2563 -0.5063 -0.4401
14864TIP3    H266084   1.946   1.905  15.192 -0.4511  0.2311  0.8427
14865TIP3   OH266085   6.406   1.441   5.490  0.4098  0.3110  0.1804
14865TIP3    H166086   6.486   1.417   5.444  0.5757 -0.7428  0.9823
14865TIP3    H266087   6.401   1.536   5.481  0.7007  0.1941 -1.5470
14866TIP3   OH266088   1.028   3.057  12.457 -0.6011 -0.8866  0.8374
14866TIP3    H166089   1.045   2.988  12.521 -0.2912 -1.0896  0.5448
14866TIP3    H266090   1.016   3.010  12.374  1.0486 -0.5258  0.3460
14867TIP3   OH266091   6.660   2.140  11.531  0.2489 -0.1751 -0.1445
14867TIP3    H166092   6.610   2.167  11.608  2.4883  0.3291  1.2556
14867TIP3    H266093   6.632   2.200  11.462 -0.0612  1.0240  0.9729
14868TIP3   OH266094   6.325   1.053  16.941 -0.3519 -0.7482  0.2182
14868TIP3    H166095   6.305   0.959  16.936  1.0288 -1.0595  0.3065
14868TIP3    H266096   6.380   1.062  17.019 -2.9360  0.6219  2.0417
14869TIP3   OH266097   5.926   3.680   4.807 -0.0106  0.0503  0.8466
14869TIP3    H166098   5.915   3.737   4.730 -1.4928 -1.2556  0.0341
14869TIP3    H266099   5.906   3.737   4.881  1.6831  1.4016  0.3144
14870TIP3   OH266100   1.030   0.384  15.145  0.4091  0.3638  0.5391
14870TIP3    H166101   0.952   0.329  15.156  0.3414  0.4625  0.5446
14870TIP3    H266102   1.028   0.410  15.053  0.0419  0.9679  0.7160
14871TIP3   OH266103   4.141   0.158  14.462  0.1521  0.1214  0.1758
14871TIP3    H166104   4.144   0.240  14.511  1.9150  0.8639 -1.0523
14871TIP3    H266105   4.195   0.097  14.513 -1.7249 -0.5905  1.4628
14872TIP3   OH266106   1.466   0.302  11.351  0.4624 -0.1395 -0.1341
14872TIP3    H166107   1.458   0.324  11.258  0.8815 -0.3590 -0.2214
14872TIP3    H266108   1.404   0.230  11.364  0.5102 -0.2060 -0.2735
14873TIP3   OH266109   5.770   2.736   1.627 -0.6274 -0.0869 -0.2372
14873TIP3    H166110   5.725   2.778   1.700  0.0672  0.7343 -0.2721
14873TIP3    H266111   5.861   2.728   1.656 -0.6821 -1.3218 -0.3417
14874TIP3   OH266112   3.334   6.444  10.586 -0.5419  0.5645 -0.3985
14874TIP3    H166113   3.287   6.528  10.582  0.8649  1.3916 -0.2297
14874TIP3    H266114   3.422   6.465  10.554 -0.0724 -0.7847 -0.0308
14875TIP3   OH266115   5.435   1.962   2.238  0.5439 -0.4597 -0.6478
14875TIP3    H166116   5.449   1.882   2.187 -1.2229 -0.1411 -1.6993
14875TIP3    H266117   5.371   1.938   2.305  1.0007 -0.2456 -0.1263
14876TIP3   OH266118   2.247   0.994  17.065  0.6399  0.1641 -0.3393
14876TIP3    H166119   2.193   1.055  17.017  1.7096  1.8481  0.5090
14876TIP3    H266120   2.335   1.004  17.028  0.8701 -0.7774 -0.0992
14877TIP3   OH266121   2.786   3.836   2.878  0.2030  0.1633  0.5816
14877TIP3    H166122   2.724   3.907   2.867 -0.0383 -0.3920 -2.2394
14877TIP3    H266123   2.844   3.841   2.802  2.7276 -0.2696  2.3362
14878TIP3   OH266124   3.727   2.480   1.484 -0.0768 -0.2478  0.0251
14878TIP3    H166125   3.760   2.390   1.482 -3.0454 -1.4586 -0.4642
14878TIP3    H266126   3.684   2.492   1.400 -1.2689  0.9667  0.7634
14879TIP3   OH266127   6.578   1.037   4.252 -0.2602 -0.0397  0.1165
14879TIP3    H166128   6.531   1.120   4.259  0.0883  0.1228  0.5562
14879TIP3    H266129   6.526   0.976   4.304 -0.7173 -0.1951 -0.5049
14880TIP3   OH266130   3.789   6.635  12.287 -0.1356  0.2926 -0.2846
14880TIP3    H166131   3.837   6.706  12.245  1.0079 -0.4908 -0.3464
14880TIP3    H266132   3.816   6.638  12.379 -0.5456  0.3160 -0.1634
14881TIP3   OH266133   0.499   6.006  13.200 -0.1969  0.2308 -0.4541
14881TIP3    H166134   0.565   5.938  13.188  0.6357  0.9559 -0.1253
14881TIP3    H266135   0.526   6.052  13.279 -0.0151  1.7347 -1.3521
14882TIP3   OH266136   3.783   2.347   4.312 -0.2293  0.1400  0.5193
14882TIP3    H166137   3.729   2.356   4.391 -1.4618  1.1046 -0.3962
14882TIP3    H266138   3.816   2.435   4.295 -1.7696  0.4387 -1.2428
14883TIP3   OH266139   2.268   2.771   5.660 -0.2061 -0.3983 -0.6635
14883TIP3    H166140   2.283   2.864   5.641  0.6517 -0.4479 -0.2905
14883TIP3    H266141   2.219   2.738   5.584 -0.6376  0.3820 -0.7367
14884TIP3   OH266142   5.216   3.597   4.796  0.0826 -0.6610 -0.3082
14884TIP3    H166143   5.134   3.621   4.753 -0.5691 -0.1693  1.1492
14884TIP3    H266144   5.252   3.680   4.828  0.4870 -1.0164  0.1834
14885TIP3   OH266145   2.368   4.133  15.791  0.3568 -0.2169 -0.1201
14885TIP3    H166146   2.458   4.100  15.790  0.9641  1.3064  0.7456
14885TIP3    H266147   2.364   4.194  15.717  0.5935  1.0430  0.8803
14886TIP3   OH266148   1.649   4.581  12.136  0.0739 -0.1335  0.4005
14886TIP3    H166149   1.711   4.538  12.195  0.4041 -2.1476 -1.2902
14886TIP3    H266150   1.586   4.513  12.113 -1.5342  1.3036  0.4032
14887TIP3   OH266151   1.571   5.371   5.181 -0.2864 -0.4496  0.3143
14887TIP3    H166152   1.635   5.304   5.157 -0.3254 -0.2080 -0.4776
14887TIP3    H266153   1.488   5.323   5.188 -0.0963 -0.6984  0.9908
14888TIP3   OH266154   2.578   6.474   4.741  0.0579 -0.9391 -0.5207
14888TIP3    H166155   2.620   6.537   4.799 -2.5436 -0.7935  1.3877
14888TIP3    H266156   2.599   6.389   4.780 -1.0287 -0.8786  0.2743
14889TIP3   OH266157   0.378   3.995  12.184  0.4777  0.4659 -0.2323
14889TIP3    H166158   0.400   3.903  12.197  2.5207  1.0569  0.9751
14889TIP3    H266159   0.386   4.034  12.271 -1.9251  1.5416 -0.3924
14890TIP3   OH266160   1.698   3.745  12.607  0.4935  0.2434 -0.4506
14890TIP3    H166161   1.714   3.837  12.627 -0.6227  0.4364 -0.3966
14890TIP3    H266162   1.658   3.746  12.521 -0.2808 -0.1261 -0.0970
14891TIP3   OH266163   3.757   0.501  13.509 -0.0971  0.0604  0.4995
14891TIP3    H166164   3.720   0.570  13.564  0.7632  1.9930 -1.2411
14891TIP3    H266165   3.693   0.488  13.439  1.1674  1.5151 -1.0201
14892TIP3   OH266166   0.403   0.636   1.781 -0.5314  0.6779  0.0553
14892TIP3    H166167   0.471   0.572   1.801 -1.4467 -0.2979  0.1643
14892TIP3    H266168   0.326   0.583   1.761 -1.2791  1.7515  0.0088
14893TIP3   OH266169   4.105   3.218   4.571  0.0790 -0.5494  0.4098
14893TIP3    H166170   4.033   3.225   4.634 -1.3273 -1.9981 -0.9429
14893TIP3    H266171   4.151   3.138   4.597 -0.9284 -1.5435 -0.7500
14894TIP3   OH266172   4.047   3.858   1.458 -0.2906 -0.4264 -0.5088
14894TIP3    H166173   4.017   3.773   1.427  0.7488 -0.4766 -1.4031
14894TIP3    H266174   4.126   3.840   1.508 -1.0403 -0.1592  0.8280
14895TIP3   OH266175   2.750   5.029  15.225  0.2193  0.0909  0.1069
14895TIP3    H166176   2.771   4.938  15.201  0.7099  0.2782 -0.1925
14895TIP3    H266177   2.677   5.053  15.167 -0.6128 -0.4430  0.8982
14896TIP3   OH266178   1.529   5.733  15.887  0.5463  0.3156  0.1974
14896TIP3    H166179   1.477   5.660  15.853  0.0054  0.9756 -0.4223
14896TIP3    H266180   1.464   5.797  15.917  0.9089  1.8066 -1.9563
14897TIP3   OH266181   4.956   4.633   4.927  0.0463  0.7781  0.1749
14897TIP3    H166182   4.972   4.561   4.866  3.1110 -0.4918  2.1821
14897TIP3    H266183   4.975   4.712   4.877 -1.5190  0.1232 -1.5657
14898TIP3   OH266184   1.797   3.820  13.060 -0.5342  0.5387  0.4891
14898TIP3    H166185   1.720   3.815  13.003 -1.2450 -2.9555  1.5399
14898TIP3    H266186   1.763   3.802  13.148  1.2142  0.9679  1.3058
14899TIP3   OH266187   2.136   1.419  12.731  0.0216 -0.0213  0.1101
14899TIP3    H166188   2.056   1.380  12.768 -0.3728  0.9577  0.3231
14899TIP3    H266189   2.170   1.474  12.801 -0.0519  0.8840 -0.5564
14900TIP3   OH266190   0.495   0.161   4.244 -0.6507  0.2224 -0.1830
14900TIP3    H166191   0.487   0.234   4.184 -3.3067 -0.3518 -0.6604
14900TIP3    H266192   0.483   0.199   4.331 -1.0614  0.5082 -0.3622
14901TIP3   OH266193   2.277   4.634  10.554  0.5801 -0.7222  0.0944
14901TIP3    H166194   2.302   4.712  10.505  0.4892 -0.2233  0.8360
14901TIP3    H266195   2.202   4.662  10.607  0.6771 -1.2523  0.5201
14902TIP3   OH266196   1.637   3.861  14.318 -0.6801  0.2929  0.2364
14902TIP3    H166197   1.581   3.784  14.305  1.5029 -1.3868  0.1882
14902TIP3    H266198   1.683   3.842  14.400  1.1610  0.6902 -0.6599
14903TIP3   OH266199   5.929   1.244  16.267 -0.7526 -0.1740  0.3356
14903TIP3    H166200   5.973   1.227  16.350  1.0132  0.5897 -0.3937
14903TIP3    H266201   5.947   1.336  16.248  0.1377 -0.6708 -1.5568
14904TIP3   OH266202   1.636   2.878   2.757 -0.3719 -0.2733 -0.4022
14904TIP3    H166203   1.712   2.822   2.737  0.6852  0.7139  0.6898
14904TIP3    H266204   1.629   2.874   2.853 -2.0088 -0.7013 -0.5155
14905TIP3   OH266205   3.108   1.094   1.264  0.0411 -0.6544 -0.3558
14905TIP3    H166206   3.121   1.101   1.170 -0.3917  0.8167 -0.3228
14905TIP3    H266207   3.013   1.100   1.276 -0.1163 -2.9074  0.0532
14906TIP3   OH266208   6.650   1.938  17.012 -0.3414  0.5628 -0.6915
14906TIP3    H166209   6.680   2.022  16.976 -0.9040  1.0998  0.0594
14906TIP3    H266210   6.697   1.872  16.961  0.9228  1.3445 -0.5842
14907TIP3   OH266211   4.739   0.005  15.604 -0.1793  0.7455 -0.3744
14907TIP3    H166212   4.673   0.073  15.612 -1.3552 -0.3453 -0.4758
14907TIP3    H266213   4.808   0.032  15.665 -0.5451  2.0788 -0.5207
14908TIP3   OH266214   1.037   1.421   1.216  0.4941 -0.0155 -0.5997
14908TIP3    H166215   0.999   1.334   1.209 -0.3620  0.4798 -3.6971
14908TIP3    H266216   0.983   1.466   1.280 -1.5046 -0.6650 -1.7434
14909TIP3   OH266217   3.864   0.687   1.037 -0.3420  0.2960 -0.1939
14909TIP3    H166218   3.809   0.741   0.980 -1.8328  0.7921  1.5868
14909TIP3    H266219   3.875   0.605   0.989  0.1229  1.3661 -2.0098
14910TIP3   OH266220   2.492   1.448   6.043 -0.5007  0.1272  0.3728
14910TIP3    H166221   2.423   1.385   6.066 -0.6304  0.5552  1.1752
14910TIP3    H266222   2.458   1.493   5.966 -0.2201 -1.0756 -0.4958
14911TIP3   OH266223   1.949   2.210   3.647  0.2254  0.2097 -0.1212
14911TIP3    H166224   1.898   2.185   3.570 -0.0365  0.4842 -0.0331
14911TIP3    H266225   2.024   2.259   3.611 -0.2913  0.9899 -0.1465
14912TIP3   OH266226   5.244   5.145   3.611  0.3601 -0.3815 -0.1494
14912TIP3    H166227   5.258   5.238   3.594 -1.0646 -0.1620 -0.2057
14912TIP3    H266228   5.324   5.103   3.578  1.3639  0.8753  0.5882
14913TIP3   OH266229   2.710   3.058   4.638  0.1441  0.3178 -0.0126
14913TIP3    H166230   2.752   2.972   4.632  1.5983  0.9601  0.3879
14913TIP3    H266231   2.662   3.055   4.720 -0.7620 -0.4888 -0.5471
14914TIP3   OH266232   2.318   3.380  11.092 -0.5611 -0.1691  0.5528
14914TIP3    H166233   2.319   3.476  11.094 -0.8573 -0.0235 -2.4528
14914TIP3    H266234   2.301   3.358  11.001 -0.6098 -3.1189  1.1852
14915TIP3   OH266235   0.416   0.745  12.708  0.0970 -0.1175  0.2961
14915TIP3    H166236   0.441   0.816  12.767 -0.9380  0.5114 -0.0073
14915TIP3    H266237   0.495   0.690  12.702  0.5663  0.4108  1.3746
14916TIP3   OH266238   4.709   3.358   3.568 -0.0288  0.1469 -0.2951
14916TIP3    H166239   4.786   3.302   3.567 -1.0458 -1.3421  0.2866
14916TIP3    H266240   4.709   3.402   3.483  1.3065 -0.0202 -0.3911
14917TIP3   OH266241   4.995   5.600  12.644 -0.2130 -0.2344 -0.4235
14917TIP3    H166242   5.020   5.671  12.584 -2.4659  0.8997 -0.1346
14917TIP3    H266243   5.069   5.539  12.641  0.9685  1.1674 -2.1760
14918TIP3   OH266244   0.461   3.412  11.208  0.0451 -0.2766 -0.2451
14918TIP3    H166245   0.387   3.373  11.254  0.2262 -0.8002 -0.3909
14918TIP3    H266246   0.522   3.339  11.194  1.7761  0.5671  2.1422
14919TIP3   OH266247   4.001   6.439   3.511 -1.0619  0.1760  0.1730
14919TIP3    H166248   4.012   6.387   3.590 -0.6909 -0.5282 -0.3299
14919TIP3    H266249   4.043   6.523   3.531 -0.1477 -0.3248  0.4008
14920TIP3   OH266250   2.934   1.122  11.862 -0.4812  0.0565 -0.7122
14920TIP3    H166251   2.983   1.044  11.836  0.2084  0.3325 -0.2722
14920TIP3    H266252   2.992   1.195  11.841  0.5579  0.2751  2.3597
14921TIP3   OH266253   0.004   4.968  11.442 -0.2274  0.5709 -0.5035
14921TIP3    H166254  -0.032   5.032  11.504 -1.4657  0.6543 -1.2660
14921TIP3    H266255  -0.058   4.968  11.369 -0.4010 -1.6421 -0.4382
14922TIP3   OH266256   4.199   5.233  14.111  0.2123 -0.1779  0.0923
14922TIP3    H166257   4.146   5.177  14.166  0.4768 -0.9477 -0.4177
14922TIP3    H266258   4.137   5.294  14.071 -0.3275 -1.1893 -0.6432
14923TIP3   OH266259   4.012   2.014  11.689  0.0358  0.0480  0.1117
14923TIP3    H166260   3.966   1.939  11.727  0.3562 -0.7254 -0.9814
14923TIP3    H266261   3.976   2.090  11.735 -2.6578 -0.4788 -0.9573
14924TIP3   OH266262   1.607   1.218   5.520 -0.0030  0.3017  0.0132
14924TIP3    H166263   1.702   1.201   5.525 -0.1657 -0.3048  1.7075
14924TIP3    H266264   1.594   1.250   5.431  2.0880  2.2451  0.3006
14925TIP3   OH266265   1.824   4.696  11.943  0.0823  0.2633  0.3196
14925TIP3    H166266   1.798   4.639  12.015  2.2075 -1.0327  0.1563
14925TIP3    H266267   1.819   4.641  11.865  1.2225  0.5593  0.0145
14926TIP3   OH266268   0.906   2.206   4.127  0.0870 -0.1776  0.4261
14926TIP3    H166269   0.853   2.155   4.188  1.1186 -1.0260  0.6384
14926TIP3    H266270   0.956   2.140   4.078 -0.7257  0.4778 -1.3548
14927TIP3   OH266271   5.557   4.035  15.389  0.4590  0.1514 -0.2627
14927TIP3    H166272   5.537   3.944  15.367 -1.5563 -0.0237  1.7983
14927TIP3    H266273   5.645   4.032  15.425  0.4748 -0.9809 -0.3423
14928TIP3   OH266274   0.319   6.442   1.863  0.3861 -0.1177 -0.4478
14928TIP3    H166275   0.383   6.493   1.813  0.0878  1.3669  0.6434
14928TIP3    H266276   0.251   6.505   1.887 -0.5909 -1.2861 -0.0568
14929TIP3   OH266277   5.912   4.949  10.695  0.1706  0.0518  0.1428
14929TIP3    H166278   5.890   4.879  10.633  2.2921  0.0796 -0.7148
14929TIP3    H266279   5.942   5.021  10.640  0.4957  0.6852  1.1354
14930TIP3   OH266280   0.375   1.350  15.370 -0.2825 -0.3395 -0.2040
14930TIP3    H166281   0.357   1.311  15.285  0.4404 -0.0319 -0.5011
14930TIP3    H266282   0.289   1.352  15.413 -1.3041  2.2232 -2.0685
14931TIP3   OH266283   2.274   3.949  14.742 -0.7209 -0.3182 -0.5964
14931TIP3    H166284   2.239   3.885  14.680 -3.6055  1.9552 -1.5374
14931TIP3    H266285   2.311   4.018  14.686 -1.1618  0.6387  0.2614
14932TIP3   OH266286   4.102   2.967   0.190  0.9610 -0.0236  0.3325
14932TIP3    H166287   4.181   2.914   0.202  1.7507  1.1938  0.8048
14932TIP3    H266288   4.095   3.018   0.271 -1.1248 -1.0922  0.9071
14933TIP3   OH266289   2.843   4.305   0.729  0.1918 -0.0021  0.1006
14933TIP3    H166290   2.872   4.376   0.786 -0.8934  1.1157 -0.6774
14933TIP3    H266291   2.914   4.294   0.666  0.9943 -0.6174  1.0778
14934TIP3   OH266292   4.775   2.768   0.878  0.2585  0.4413  0.5735
14934TIP3    H166293   4.739   2.792   0.793  1.8424 -1.4667 -0.7262
14934TIP3    H266294   4.870   2.762   0.864  0.4698 -0.9481  2.1805
14935TIP3   OH266295   2.033   0.913   5.414  0.4151 -0.1429  0.2927
14935TIP3    H166296   2.029   0.896   5.320 -0.1152 -0.4128  0.3643
14935TIP3    H266297   2.050   0.828   5.453 -0.0134 -0.1426  0.4875
14936TIP3   OH266298   1.876   2.464  11.112  0.1464  0.3939  0.0973
14936TIP3    H166299   1.914   2.411  11.042 -0.8634 -0.6047  0.2584
14936TIP3    H266300   1.941   2.532  11.130  1.1555 -0.3410 -0.6563
14937TIP3   OH266301   6.561   1.510   3.388  0.4438  0.3452  0.2091
14937TIP3    H166302   6.542   1.603   3.391 -0.7817  0.1276 -0.1053
14937TIP3    H266303   6.503   1.476   3.319  0.8973 -0.6361  0.2912
14938TIP3   OH266304   1.580   3.173   1.273  0.0193 -0.1914  0.2710
14938TIP3    H166305   1.608   3.208   1.357 -3.8540 -0.9647  2.1009
14938TIP3    H266306   1.641   3.102   1.255  2.3890  1.5040  1.1140
14939TIP3   OH266307   3.481   0.198   2.439  0.6416  0.5768 -0.5742
14939TIP3    H166308   3.538   0.246   2.499 -2.4565 -0.3789  3.5560
14939TIP3    H266309   3.509   0.107   2.447 -0.9350  0.1756  1.0903
14940TIP3   OH266310   4.136   4.630  11.563  0.3296 -0.2701 -0.0044
14940TIP3    H166311   4.117   4.630  11.656 -0.0130 -0.3166 -0.0744
14940TIP3    H266312   4.144   4.723  11.540  0.1743 -0.2495  0.0231
14941TIP3   OH266313   3.475   0.175  17.119 -0.1080  0.3095 -0.0549
14941TIP3    H166314   3.409   0.106  17.110 -0.9013  0.8902  1.1284
14941TIP3    H266315   3.426   0.257  17.112  0.4417  0.7518  1.0360
14942TIP3   OH266316   0.459   4.944  15.751 -0.2780  0.0102 -0.8409
14942TIP3    H166317   0.548   4.909  15.751 -0.2466 -0.0717  1.4727
14942TIP3    H266318   0.406   4.875  15.711  0.3223 -1.1622  0.3028
14943TIP3   OH266319   5.330   4.886  14.977 -0.4366 -0.7377  0.1627
14943TIP3    H166320   5.308   4.883  14.884  1.2820  1.2601 -0.4007
14943TIP3    H266321   5.275   4.956  15.012 -0.2987 -0.7505  0.4063
14944TIP3   OH266322   6.407   0.252  15.304 -0.1179 -0.0950 -0.0234
14944TIP3    H166323   6.366   0.251  15.391 -0.9819 -1.7405 -0.3914
14944TIP3    H266324   6.344   0.297  15.248 -0.0526  0.0199 -0.0042
14945TIP3   OH266325   4.971   2.486   5.726 -0.1177 -0.1077  0.0420
14945TIP3    H166326   5.000   2.507   5.637 -2.4136  0.2953 -0.7047
14945TIP3    H266327   4.969   2.571   5.771  1.2379 -0.3400  0.5571
14946TIP3   OH266328   1.211   5.579   5.492 -0.5465  0.0794 -0.1626
14946TIP3    H166329   1.130   5.604   5.537 -0.3965 -0.9430  0.6878
14946TIP3    H266330   1.182   5.525   5.418 -0.5821 -1.5322  0.9926
14947TIP3   OH266331   1.152   4.644  13.114  0.6175 -0.6198  0.2018
14947TIP3    H166332   1.096   4.648  13.192  1.4435  2.3850  0.7779
14947TIP3    H266333   1.110   4.703  13.051  1.6939 -0.4082 -0.3363
14948TIP3   OH266334   6.320   3.124   5.790  0.0199  0.7780  0.5280
14948TIP3    H166335   6.266   3.188   5.743 -0.3994  0.4440  0.5475
14948TIP3    H266336   6.342   3.059   5.724 -1.5168 -0.2999  1.0130
14949TIP3   OH266337   6.613   2.506  16.487  0.2105  0.3084  0.0271
14949TIP3    H166338   6.628   2.560  16.564  1.5345 -0.0896  0.0606
14949TIP3    H266339   6.544   2.445  16.514  1.0702 -0.2243  1.1142
14950TIP3   OH266340   5.943   0.706   1.032  0.5222 -0.1066 -0.6292
14950TIP3    H166341   5.879   0.681   0.965  0.6415  0.9018 -1.1458
14950TIP3    H266342   5.904   0.678   1.114 -2.0716  3.0875 -0.5612
14951TIP3   OH266343   3.311   1.848   0.290  0.4686 -0.5633  0.1918
14951TIP3    H166344   3.393   1.884   0.258  0.2793  0.4730  0.8264
14951TIP3    H266345   3.249   1.859   0.217  0.6677 -0.5114  0.0317
14952TIP3   OH266346   5.426   3.106  13.951  0.2877 -0.3616 -0.0462
14952TIP3    H166347   5.473   3.125  14.032  1.6359 -0.1200 -0.8533
14952TIP3    H266348   5.334   3.100  13.978  0.5829  0.6636  1.3404
14953TIP3   OH266349   6.595   1.509  15.029  0.1302 -0.7457 -0.4920
14953TIP3    H166350   6.538   1.444  14.987 -0.4377 -0.0421 -0.8283
14953TIP3    H266351   6.664   1.525  14.965  0.1828 -0.8958 -0.4740
14954TIP3   OH266352   0.005   4.759   5.643  0.0058  0.6726 -0.8842
14954TIP3    H166353  -0.053   4.690   5.674  0.7551  0.1619 -0.5923
14954TIP3    H266354  -0.016   4.835   5.697  0.7813  0.0062  0.3812
14955TIP3   OH266355   5.772   2.709  11.947  0.2231  0.2503 -0.0591
14955TIP3    H166356   5.790   2.731  11.855 -0.7205  1.0168 -0.0721
14955TIP3    H266357   5.763   2.614  11.947  1.1985  0.1365 -0.5758
14956TIP3   OH266358   1.913   4.732  15.586  0.2849  0.0066  0.3860
14956TIP3    H166359   1.903   4.641  15.558  3.7254  0.0672 -1.6789
14956TIP3    H266360   1.987   4.730  15.646  1.3249  1.5350 -0.7697
14957TIP3   OH266361   1.092   0.758  16.080  0.0474  0.0041  0.6123
14957TIP3    H166362   1.044   0.747  15.998 -0.5517  1.0649  0.8008
14957TIP3    H266363   1.182   0.736  16.058 -0.2091 -0.2843 -0.1901
14958TIP3   OH266364   1.568   0.533  14.157  0.2332 -0.4423  0.1848
14958TIP3    H166365   1.614   0.581  14.226  0.6258 -0.1463 -0.2845
14958TIP3    H266366   1.595   0.442  14.169  0.1160 -0.4312  0.5653
14959TIP3   OH266367   4.742   4.788  14.826  0.6353 -0.8157  0.3866
14959TIP3    H166368   4.653   4.770  14.797  0.0791  0.2114  1.3896
14959TIP3    H266369   4.797   4.761  14.753 -0.5681 -0.3786 -0.7082
14960TIP3   OH266370   6.068   1.536  15.884  0.0429 -0.6953 -0.1383
14960TIP3    H166371   6.142   1.591  15.911 -0.8123  0.2239  0.3802
14960TIP3    H266372   6.055   1.558  15.791 -0.9489  0.7938  0.3176
14961TIP3   OH266373   1.021   1.397   5.850  0.4701  0.2619  0.4641
14961TIP3    H166374   1.064   1.467   5.802 -3.0460  0.7945 -2.3601
14961TIP3    H266375   0.950   1.441   5.897 -1.3634 -1.1806 -0.7826
14962TIP3   OH266376   5.059   5.097  12.811  0.1814  0.0678  0.1081
14962TIP3    H166377   5.051   5.015  12.859 -0.5950  0.4713  0.6918
14962TIP3    H266378   5.144   5.132  12.838  1.1869 -1.2067 -1.2409
14963TIP3   OH266379   5.075   4.651   5.509 -0.0634  0.0482  0.1251
14963TIP3    H166380   5.045   4.573   5.461  0.5123 -0.0603 -0.0605
14963TIP3    H266381   5.151   4.621   5.559  0.4274  0.5989 -0.2820
14964TIP3   OH266382   1.882   5.142   5.603  0.2160  0.1703  0.3307
14964TIP3    H166383   1.847   5.226   5.573 -0.9212  0.1809  1.5832
14964TIP3    H266384   1.811   5.080   5.588  1.0906 -0.6132 -0.6993
14965TIP3   OH266385   1.499   4.990   0.590 -0.1242 -0.0402 -0.7880
14965TIP3    H166386   1.563   4.937   0.542  0.5892  0.9598 -0.9733
14965TIP3    H266387   1.525   4.981   0.682  0.3625  0.4499 -0.8726
14966TIP3   OH266388   6.107   4.404   4.293 -0.1419 -0.6844  0.0813
14966TIP3    H166389   6.108   4.310   4.272 -0.0832 -0.7863  0.5368
14966TIP3    H266390   6.177   4.441   4.240 -1.3584 -0.5778 -1.5631
14967TIP3   OH266391   5.404   0.744  16.225  0.2102 -0.4117  0.2465
14967TIP3    H166392   5.334   0.764  16.287  0.4019  0.4590  0.1827
14967TIP3    H266393   5.478   0.718  16.280  1.2484  2.9084  0.5842
14968TIP3   OH266394   4.973   2.671   3.463 -0.9900  0.6054 -0.5781
14968TIP3    H166395   4.965   2.657   3.369 -0.0041  0.6397 -0.6766
14968TIP3    H266396   4.960   2.765   3.475 -1.0159  0.6158 -0.6892
14969TIP3   OH266397   0.019   5.331   3.370 -0.2296  0.2908 -0.0716
14969TIP3    H166398   0.114   5.325   3.367 -0.2517 -1.6614  1.4101
14969TIP3    H266399   0.000   5.384   3.447 -0.3637  0.7153 -0.3892
14970TIP3   OH266400   3.143   4.919   6.225  0.2103  0.6262 -0.5859
14970TIP3    H166401   3.199   4.945   6.152  0.2265  0.9582 -0.4563
14970TIP3    H266402   3.058   4.901   6.184  0.7829 -1.3697 -1.0132
14971TIP3   OH266403   0.035   6.602   2.515  0.6488  0.4099 -1.1777
14971TIP3    H166404  -0.024   6.547   2.464 -0.1992  0.8931 -0.7461
14971TIP3    H266405  -0.020   6.637   2.586  1.4806  0.7889 -0.7031
14972TIP3   OH266406   4.304   3.703   4.451  0.0389 -0.1777  0.3865
14972TIP3    H166407   4.259   3.770   4.503 -1.2146  1.2603 -2.3031
14972TIP3    H266408   4.395   3.706   4.481 -0.5534  0.7267  2.2582
14973TIP3   OH266409   0.959   0.544   2.355  0.3111  0.5008 -0.1199
14973TIP3    H166410   0.866   0.528   2.341  0.2513  0.1115  0.6889
14973TIP3    H266411   1.003   0.493   2.287  0.0605 -1.8924  1.3936
14974TIP3   OH266412   1.070   4.795   2.385 -0.0058 -0.5864 -0.4032
14974TIP3    H166413   1.146   4.767   2.435 -0.4292  0.0916  0.6617
14974TIP3    H266414   1.095   4.783   2.293  1.2863 -0.5883 -0.0635
14975TIP3   OH266415   0.045   5.336  13.323  0.4227 -0.1875 -0.0744
14975TIP3    H166416   0.121   5.291  13.360 -1.2363 -2.5247  0.7619
14975TIP3    H266417   0.004   5.380  13.398 -0.2489 -0.8123 -0.0647
14976TIP3   OH266418   4.209   2.737   0.481  0.4669 -0.1474  0.4140
14976TIP3    H166419   4.179   2.678   0.550  1.0331 -1.3503 -0.3214
14976TIP3    H266420   4.222   2.680   0.405  1.7740  0.7945 -0.1145
14977TIP3   OH266421   4.542   4.085  14.308 -0.0946 -0.7478  0.1534
14977TIP3    H166422   4.637   4.091  14.309  0.0216 -2.0331  2.1961
14977TIP3    H266423   4.514   4.146  14.239  2.2051 -0.7710 -0.8754
14978TIP3   OH266424   4.332   3.863   1.552 -0.1064  0.1787 -0.3007
14978TIP3    H166425   4.364   3.849   1.641 -1.8453  0.3518  0.4051
14978TIP3    H266426   4.373   3.794   1.500  0.5372 -0.2491  0.7384
14979TIP3   OH266427   2.665   0.145  15.719  0.0582 -0.3644  0.3449
14979TIP3    H166428   2.745   0.189  15.748 -0.1066 -0.8713  1.6657
14979TIP3    H266429   2.610   0.141  15.798 -0.1996 -2.2816  0.1179
14980TIP3   OH266430   3.309   3.574  14.911 -0.2566  0.1513 -0.3731
14980TIP3    H166431   3.306   3.560  15.005 -1.3640 -1.1499 -0.5714
14980TIP3    H266432   3.398   3.605  14.894  0.1724 -0.2608  1.0220
14981TIP3   OH266433   5.896   4.197   5.086 -0.2693  0.7241  0.3354
14981TIP3    H166434   5.929   4.227   5.170  0.0402  1.7835 -0.1477
14981TIP3    H266435   5.975   4.179   5.035 -0.4527 -0.1984  0.3544
14982TIP3   OH266436   3.783   2.523   6.129 -0.4443  0.3078 -0.0427
14982TIP3    H166437   3.759   2.568   6.210 -0.2081 -1.0090  0.7866
14982TIP3    H266438   3.701   2.485   6.097 -0.6185  1.1933 -0.6674
14983TIP3   OH266439   6.120   3.156  12.138  0.3765 -0.1211 -0.4312
14983TIP3    H166440   6.096   3.079  12.189 -1.3707  0.9784  0.5128
14983TIP3    H266441   6.037   3.194  12.110  1.0802  2.0719  0.1773
14984TIP3   OH266442   5.990   3.223   4.096 -0.2445  0.2680  0.4233
14984TIP3    H166443   6.025   3.207   4.008 -2.1083 -0.2880 -0.2762
14984TIP3    H266444   5.900   3.254   4.080 -1.0490 -1.0376  2.1451
14985TIP3   OH266445   0.868   0.222   5.227  0.5875  0.4778 -0.5073
14985TIP3    H166446   0.905   0.288   5.286 -1.5261  1.6221 -0.3735
14985TIP3    H266447   0.800   0.179   5.278 -0.7048  0.9017 -1.8060
14986TIP3   OH266448   1.057   6.231   3.763  0.0769 -0.4925  0.1425
14986TIP3    H166449   1.014   6.312   3.735 -0.7700 -0.5399  1.2420
14986TIP3    H266450   0.991   6.187   3.817  0.8211 -1.5241  0.2214
14987TIP3   OH266451   3.669   1.956   5.258 -0.3879 -0.2122 -0.0980
14987TIP3    H166452   3.603   1.899   5.298 -0.0492 -0.7164 -0.2519
14987TIP3    H266453   3.752   1.925   5.293 -0.1107 -0.4814 -0.9840
14988TIP3   OH266454   4.101   1.630   5.595  0.1411 -0.1450 -0.1607
14988TIP3    H166455   4.006   1.636   5.579 -0.3021 -2.5249  1.0675
14988TIP3    H266456   4.137   1.708   5.554 -2.3724  0.9203 -0.5545
14989TIP3   OH266457   4.548   5.508   5.625  1.0030 -0.1794 -0.2282
14989TIP3    H166458   4.609   5.445   5.588  1.8152 -1.9704  3.6881
14989TIP3    H266459   4.603   5.580   5.656  0.5000  0.6308 -1.1492
14990TIP3   OH266460   0.635   5.618  11.720 -0.5889  0.2874 -0.7313
14990TIP3    H166461   0.729   5.634  11.727 -0.7620  0.7585  0.8188
14990TIP3    H266462   0.629   5.536  11.671  0.5168  1.4652 -3.0217
14991TIP3   OH266463   0.537   2.511  11.202 -0.2843  0.2897  0.4476
14991TIP3    H166464   0.447   2.485  11.218 -0.9731  2.2550  0.0976
14991TIP3    H266465   0.569   2.539  11.288 -0.1245 -0.0917  0.5114
14992TIP3   OH266466   0.779   4.508   6.524  0.4300  0.3802 -0.1495
14992TIP3    H166467   0.852   4.474   6.576 -0.1996  0.7240  0.9962
14992TIP3    H266468   0.769   4.445   6.453  1.9694  0.4382 -0.4585
14993TIP3   OH266469   6.286   2.068  12.504 -0.5542 -0.3558 -0.1534
14993TIP3    H166470   6.352   2.115  12.555 -0.9518  1.0819 -0.9155
14993TIP3    H266471   6.312   1.976  12.510  1.3553  0.1386 -0.1996
14994TIP3   OH266472   6.823   1.558   4.573  0.2482  0.4959 -0.5250
14994TIP3    H166473   6.846   1.511   4.653  0.4108  0.0015 -0.8564
14994TIP3    H266474   6.728   1.543   4.563  0.1550  0.8837 -0.2165
14995TIP3   OH266475   5.617   5.269   2.762 -0.7027 -0.3165  0.3072
14995TIP3    H166476   5.619   5.173   2.760  0.3040 -0.3640  1.7545
14995TIP3    H266477   5.582   5.291   2.849 -0.3762  0.6159  0.2158
14996TIP3   OH266478   6.163   3.042   2.549 -0.5471  0.1967  0.3347
14996TIP3    H166479   6.230   3.006   2.608 -2.7941 -0.8293  2.4122
14996TIP3    H266480   6.143   3.128   2.585 -0.1221  0.6815 -0.5346
14997TIP3   OH266481   2.406   3.168  14.086 -0.1642 -0.1694  0.2299
14997TIP3    H166482   2.380   3.096  14.142  0.2132 -1.1940 -0.8827
14997TIP3    H266483   2.497   3.186  14.110  0.7032 -2.0266 -1.4640
14998TIP3   OH266484   1.324   4.397  14.734  0.2983 -0.5222  0.5756
14998TIP3    H166485   1.252   4.344  14.769 -0.4628  0.1905  0.1051
14998TIP3    H266486   1.309   4.401  14.640  0.1664  0.7817  0.6324
14999TIP3   OH266487   0.724   5.418  15.238  0.2394  0.4273 -0.5926
14999TIP3    H166488   0.772   5.486  15.285 -1.2798  0.8246  0.4673
14999TIP3    H266489   0.766   5.336  15.264 -0.2458  0.6833  1.0954
15000TIP3   OH266490   5.315   3.892  10.699  0.4943 -0.6396  0.1479
15000TIP3    H166491   5.288   3.926  10.785 -0.9370  0.3401 -0.6413
15000TIP3    H266492   5.328   3.799  10.714  1.7654 -0.2645  1.7536
15001TIP3   OH266493   2.028   2.227  14.776  0.3756  0.3602 -0.3404
15001TIP3    H166494   2.025   2.157  14.842  1.3616  0.8082  0.1975
15001TIP3    H266495   2.047   2.306  14.826  0.6011  0.7917 -1.0984
15002TIP3   OH266496   0.385   2.762  16.178 -0.2762 -0.5714  0.3304
15002TIP3    H166497   0.406   2.811  16.099 -1.0502  0.6645  0.8460
15002TIP3    H266498   0.468   2.759  16.227  0.0449 -0.7614 -0.2215
15003TIP3   OH266499   4.379   0.537   2.791 -0.2803 -0.7993  0.0719
15003TIP3    H166500   4.471   0.517   2.808 -0.4268 -1.1406  0.5054
15003TIP3    H266501   4.353   0.593   2.864 -0.2238 -0.0868 -0.4453
15004TIP3   OH266502   6.420   1.082   3.378  0.5241  0.8221  0.2429
15004TIP3    H166503   6.326   1.100   3.383  0.2755 -0.3402  0.0932
15004TIP3    H266504   6.443   1.103   3.288 -0.2502 -1.6841 -0.6153
15005TIP3   OH266505   3.315   2.212  17.171  0.2928 -0.6282  0.2324
15005TIP3    H166506   3.336   2.262  17.250  2.8362 -0.9322 -0.1635
15005TIP3    H266507   3.281   2.278  17.110  1.9486  0.3671  0.3149
15006TIP3   OH266508   0.291   5.210   3.418  0.3631 -0.5832  0.0340
15006TIP3    H166509   0.320   5.275   3.481 -1.0012  1.0047 -0.8790
15006TIP3    H266510   0.371   5.182   3.373  0.8986  1.3423 -0.3141
15007TIP3   OH266511   0.706   6.526  10.958  0.0544  0.7911 -0.0801
15007TIP3    H166512   0.644   6.455  10.942  1.2080 -0.1700 -0.3577
15007TIP3    H266513   0.688   6.590  10.890  0.8534 -0.5117 -1.5818
15008TIP3   OH266514   6.659   3.142  10.947 -0.4706 -0.1959 -0.4373
15008TIP3    H166515   6.592   3.209  10.960 -0.6478  0.3061 -3.1754
15008TIP3    H266516   6.726   3.186  10.894  1.0479 -1.2756  0.5050
15009TIP3   OH266517   5.667   3.954  16.435  0.0546  0.3832  0.0030
15009TIP3    H166518   5.640   3.875  16.386  0.0985  0.1501  0.3531
15009TIP3    H266519   5.746   3.927  16.481  0.1166  0.6607  0.0549
15010TIP3   OH266520   3.351   2.833   3.208 -0.2530  0.1120 -0.3811
15010TIP3    H166521   3.395   2.751   3.186 -1.0375 -0.3282 -0.3807
15010TIP3    H266522   3.258   2.810   3.209 -0.4162  0.7169  0.7994
15011TIP3   OH266523   3.888   3.944   5.487 -0.0478 -0.3966 -0.2919
15011TIP3    H166524   3.928   4.023   5.524  1.1723 -1.2093  0.1955
15011TIP3    H266525   3.822   3.919   5.551 -1.2993  0.8816 -1.0324
15012TIP3   OH266526   5.227   0.992   2.100  0.3952 -0.0836 -0.3868
15012TIP3    H166527   5.293   1.057   2.076 -0.5545  0.5298 -1.4185
15012TIP3    H266528   5.145   1.027   2.065 -0.3197 -1.2954  0.0324
15013TIP3   OH266529   6.806   1.725  11.444  0.0946 -0.7986 -0.4841
15013TIP3    H166530   6.862   1.747  11.369 -1.8355 -0.4767 -1.9032
15013TIP3    H266531   6.719   1.753  11.418 -0.6316 -0.5128  1.9954
15014TIP3   OH266532   4.119   4.537   6.280 -0.0356  0.7125 -0.0026
15014TIP3    H166533   4.194   4.566   6.333  0.9678 -0.3473 -0.7753
15014TIP3    H266534   4.072   4.477   6.337 -0.6811  1.8664  0.7112
15015TIP3   OH266535   0.428   4.360  16.180  0.0945  0.0569  0.1184
15015TIP3    H166536   0.354   4.370  16.240  0.1434  0.6739  0.0895
15015TIP3    H266537   0.421   4.271  16.147  1.3369 -1.0827  2.6982
15016TIP3   OH266538   5.589   2.229   3.560  0.1430 -0.1711 -0.0456
15016TIP3    H166539   5.621   2.295   3.498  0.3798  0.3985  0.6659
15016TIP3    H266540   5.627   2.254   3.644 -0.2432 -0.8784  0.3552
15017TIP3   OH266541   5.666   1.961   0.441 -0.4316 -0.4889 -0.6330
15017TIP3    H166542   5.642   2.045   0.479 -0.6229 -1.0561  0.5511
15017TIP3    H266543   5.655   1.973   0.346 -0.8773  0.6728 -0.4464
15018TIP3   OH266544   5.725   6.163  11.115  0.3841  0.5235 -0.0446
15018TIP3    H166545   5.694   6.178  11.026  1.4746  0.5625 -0.4227
15018TIP3    H266546   5.699   6.073  11.135  0.9678  0.1903 -0.7565
15019TIP3   OH266547   0.721   6.711  10.717 -0.2837  0.0357 -0.2076
15019TIP3    H166548   0.809   6.688  10.746 -1.0796 -0.9130  1.6369
15019TIP3    H266549   0.694   6.781  10.776 -0.8277  0.2095 -0.6591
15020TIP3   OH266550   0.273   3.002  11.582  0.0744  0.4142 -0.3201
15020TIP3    H166551   0.234   3.060  11.647 -1.0729 -0.9090  0.2353
15020TIP3    H266552   0.367   3.021  11.586  0.2054 -0.3442  2.4994
15021TIP3   OH266553   2.949   1.679  12.076 -1.1322 -0.9271  0.2432
15021TIP3    H166554   2.903   1.599  12.101 -0.2553 -1.0526  1.5316
15021TIP3    H266555   2.895   1.750  12.111 -0.9759 -1.0250  0.6806
15022TIP3   OH266556   2.844   2.452  11.620  0.0630  0.9416 -0.1316
15022TIP3    H166557   2.767   2.507  11.630  0.1646  1.1249 -0.3640
15022TIP3    H266558   2.813   2.364  11.643  0.1107  1.2222  1.0623
15023TIP3   OH266559   0.294   4.085   2.500 -0.2907 -0.3914  0.1167
15023TIP3    H166560   0.217   4.043   2.538 -0.4117  0.2936  0.6445
15023TIP3    H266561   0.317   4.029   2.426 -0.8696 -0.9929  0.3770
15024TIP3   OH266562   4.558   2.407  10.371  0.4265 -0.4784  0.2411
15024TIP3    H166563   4.554   2.459  10.451 -0.3992  0.9521 -0.6905
15024TIP3    H266564   4.635   2.442  10.325 -0.2099  0.0188 -0.4504
15025TIP3   OH266565   0.273   4.530  12.414 -0.4743 -0.3038 -0.2685
15025TIP3    H166566   0.252   4.620  12.391 -0.4741 -0.1667  0.2586
15025TIP3    H266567   0.224   4.477  12.351 -1.6786  0.0281  0.3628
15026TIP3   OH266568   2.297   3.577   1.286  0.4791  0.4006 -0.4330
15026TIP3    H166569   2.295   3.567   1.381 -0.7038  2.0076 -0.2425
15026TIP3    H266570   2.345   3.659   1.271  2.1850 -0.7027 -1.3592
15027TIP3   OH266571   2.497   5.124   1.999  0.1972 -0.2279  0.1269
15027TIP3    H166572   2.539   5.139   2.084  0.7297  0.5149 -0.2636
15027TIP3    H266573   2.537   5.044   1.967 -0.0809 -0.5725  0.6161
15028TIP3   OH266574   1.860   0.970   0.605  0.2392  0.3822 -0.4524
15028TIP3    H166575   1.908   1.012   0.534 -1.2661  0.9491 -1.1657
15028TIP3    H266576   1.797   1.035   0.635  1.7656  0.6947  2.4390
15029TIP3   OH266577   4.777   6.040   1.253  0.5279  0.0318  0.5651
15029TIP3    H166578   4.717   6.115   1.260  2.2741  1.3397  2.7159
15029TIP3    H266579   4.725   5.965   1.281 -0.9833  0.5440 -0.7043
15030TIP3   OH266580   5.568   2.843  16.666  0.3468  0.4903 -1.0343
15030TIP3    H166581   5.578   2.768  16.608 -0.2702 -0.4252 -0.0049
15030TIP3    H266582   5.477   2.869  16.655  0.4751  0.8888 -1.1533
15031TIP3   OH266583   2.657   2.462  14.547  0.2730  0.8455  0.1554
15031TIP3    H166584   2.563   2.446  14.536 -0.0079  0.3330  2.6851
15031TIP3    H266585   2.667   2.556  14.532 -1.1172  1.3870  2.1538
15032TIP3   OH266586   1.306   0.512   0.999 -0.9514 -0.4689  0.1037
15032TIP3    H166587   1.263   0.458   0.933  1.1790 -0.7656 -1.1372
15032TIP3    H266588   1.332   0.591   0.951 -1.9235  0.6238  1.3185
15033TIP3   OH266589   3.480   6.601   5.168  0.1865 -0.2641  0.3628
15033TIP3    H166590   3.500   6.663   5.098  0.6243  0.9687  1.5526
15033TIP3    H266591   3.455   6.521   5.122  1.9499  0.0152 -1.2254
15034TIP3   OH266592   5.671   5.297   0.955  0.4675  0.6098 -0.1592
15034TIP3    H166593   5.764   5.289   0.979  0.2007  1.4657  1.3258
15034TIP3    H266594   5.659   5.390   0.937 -0.4381  0.8075  1.3138
15035TIP3   OH266595   5.325   5.537  16.930 -0.0003  0.4758 -0.6066
15035TIP3    H166596   5.274   5.602  16.882  0.3906  1.8221  0.7216
15035TIP3    H266597   5.267   5.507  17.000 -0.0493 -0.3438 -0.9896
15036TIP3   OH266598   0.602   0.023  12.988 -0.5046 -0.1030  0.2230
15036TIP3    H166599   0.589  -0.060  13.034  0.6795 -0.6408 -0.3726
15036TIP3    H266600   0.626   0.085  13.056  0.2261 -0.6457  0.4769
15037TIP3   OH266601   5.108   5.939   0.113  0.1054  0.0873  0.8273
15037TIP3    H166602   5.055   5.959   0.190 -1.1630 -0.5548  0.1727
15037TIP3    H266603   5.051   5.884   0.059  1.1781  0.0189 -0.2894
15038TIP3   OH266604   2.066   2.073  11.365  0.0789  0.1175  0.3182
15038TIP3    H166605   2.080   2.016  11.288 -0.1211  0.4521  0.0328
15038TIP3    H266606   2.154   2.105  11.386  0.2442 -0.5401  0.6784
15039TIP3   OH266607   6.140   1.272  12.508  0.4855 -0.6298 -0.2877
15039TIP3    H166608   6.116   1.353  12.554  1.1499 -0.6466  0.0971
15039TIP3    H266609   6.064   1.215  12.519  0.8296 -0.8444  1.3035
15040TIP3   OH266610   5.792   2.265  16.191  0.2170 -0.8221  0.3126
15040TIP3    H166611   5.743   2.210  16.129 -2.6383  2.0438 -0.2571
15040TIP3    H266612   5.831   2.334  16.136 -1.5162  1.1948  1.4658
15041TIP3   OH266613   2.810   4.651   5.783  0.1407  0.1143  0.2372
15041TIP3    H166614   2.848   4.564   5.794  0.7606  0.6122  2.6148
15041TIP3    H266615   2.716   4.634   5.772  0.3828 -0.8842 -0.4609
15042TIP3   OH266616   5.357   2.642   3.693 -0.5864  0.2689 -0.5557
15042TIP3    H166617   5.335   2.735   3.699 -0.4525  0.2570  0.2515
15042TIP3    H266618   5.399   2.622   3.777 -2.1540 -0.9131 -0.0157
15043TIP3   OH266619   4.667   2.364  15.011  0.2167 -0.0036  0.2258
15043TIP3    H166620   4.621   2.322  14.939  0.2354  0.0664  0.1730
15043TIP3    H266621   4.606   2.361  15.084 -0.3554  1.1973 -0.1762
15044TIP3   OH266622   6.085   4.073  12.127 -0.4955  0.2260  0.0447
15044TIP3    H166623   6.010   4.054  12.183  0.3574 -1.2017  0.7690
15044TIP3    H266624   6.059   4.041  12.041  0.2475 -3.0123  0.8728
15045TIP3   OH266625   2.919   1.504  14.332 -0.2281  0.4113  0.0080
15045TIP3    H166626   2.859   1.439  14.297  0.1263 -0.0925  0.3114
15045TIP3    H266627   3.003   1.457  14.339 -0.5619  0.0210  2.8117
15046TIP3   OH266628   1.078   5.398  13.609 -0.2656  0.1929  0.2187
15046TIP3    H166629   1.073   5.447  13.527  0.9348  0.7829  0.4754
15046TIP3    H266630   1.092   5.307  13.582  0.4826  0.4354 -0.2381
15047TIP3   OH266631   0.986   6.036   5.952 -0.3631 -0.0564 -0.6602
15047TIP3    H166632   1.027   6.116   5.921 -1.1417 -0.1339 -1.9909
15047TIP3    H266633   1.037   6.009   6.028 -0.2651  1.8531 -0.0128
15048TIP3   OH266634   5.701   5.989  12.296 -0.6114  0.5415 -0.0882
15048TIP3    H166635   5.659   5.947  12.371 -3.0559  3.3005  0.2696
15048TIP3    H266636   5.674   5.936  12.221  2.2706 -2.5581  0.8092
15049TIP3   OH266637   4.912   3.973   1.051  0.0755 -0.6135  0.4892
15049TIP3    H166638   4.881   3.890   1.013 -4.0272 -0.3571  2.6823
15049TIP3    H266639   4.862   4.040   1.005  1.6306  0.4993  0.3532
15050TIP3   OH266640   1.040   3.574  10.948  0.5102 -0.3739 -0.0013
15050TIP3    H166641   1.082   3.649  10.907 -0.5784  0.4475  0.3334
15050TIP3    H266642   0.962   3.557  10.894 -0.2977 -0.0203  1.0178
15051TIP3   OH266643   4.350   5.746  15.379 -0.4122  0.0788  0.1005
15051TIP3    H166644   4.270   5.798  15.387 -0.8071 -0.1899 -1.6244
15051TIP3    H266645   4.336   5.672  15.437 -1.4825 -0.0246 -0.2628
15052TIP3   OH266646   2.046   0.517  17.232 -0.6638  0.2728 -0.2258
15052TIP3    H166647   2.128   0.485  17.269 -0.5489  0.8884  0.0603
15052TIP3    H266648   2.010   0.576  17.298  0.3270  2.6485 -1.6466
15053TIP3   OH266649   0.172   3.962  14.153 -0.2783  0.4748 -0.2175
15053TIP3    H166650   0.223   3.919  14.222 -1.0183  1.3524  0.9242
15053TIP3    H266651   0.236   4.012  14.103  0.3294 -0.5074 -0.4307
15054TIP3   OH266652   1.271   6.738   2.350  0.0478  0.0095 -0.4015
15054TIP3    H166653   1.184   6.702   2.371 -0.0925  1.1018  1.0550
15054TIP3    H266654   1.274   6.738   2.255 -1.0017 -1.3301 -0.4704
15055TIP3   OH266655   0.547   0.049  11.622  0.3851  0.5530 -0.3962
15055TIP3    H166656   0.569  -0.032  11.667 -2.8915 -0.0164  0.4211
15055TIP3    H266657   0.477   0.025  11.561 -1.0779  2.7857  0.2520
15056TIP3   OH266658   6.685   1.496  15.276 -0.1793 -0.6416  0.2826
15056TIP3    H166659   6.673   1.467  15.185 -1.2997 -0.3949  0.3391
15056TIP3    H266660   6.732   1.579  15.269 -1.4162  0.0460 -0.1610
15057TIP3   OH266661   4.017   0.005  13.281  0.3459  0.4775  0.1303
15057TIP3    H166662   3.996  -0.024  13.193  0.9458 -0.6956  0.3464
15057TIP3    H266663   3.999  -0.070  13.337  0.1366  1.1428  0.9928
15058TIP3   OH266664   1.211   2.928  16.075 -0.1231  0.2407 -0.1318
15058TIP3    H166665   1.222   2.931  15.980  1.5756  0.6975  0.0379
15058TIP3    H266666   1.249   2.845  16.102 -0.5289  0.1450  0.1571
15059TIP3   OH266667   0.154   3.680  12.150 -0.0316 -0.1243  0.1185
15059TIP3    H166668   0.141   3.742  12.078 -0.5576  0.1785  0.4603
15059TIP3    H266669   0.105   3.602  12.123 -0.5416  0.1256  0.3112
15060TIP3   OH266670   4.575   1.469   3.335 -0.4065  0.2257 -0.4660
15060TIP3    H166671   4.648   1.491   3.393 -0.1524 -2.0055  0.1491
15060TIP3    H266672   4.614   1.462   3.248 -0.0099 -0.3021 -0.2500
15061TIP3   OH266673   4.837   5.239   3.106  0.1418  0.1205  0.7043
15061TIP3    H166674   4.892   5.317   3.118 -0.5405  0.8532 -0.6237
15061TIP3    H266675   4.767   5.268   3.047 -1.9959 -0.6338  2.7361
15062TIP3   OH266676   3.672   2.428  13.758  0.1880  0.1574 -0.5985
15062TIP3    H166677   3.630   2.401  13.676 -0.3093  0.6672 -0.5194
15062TIP3    H266678   3.618   2.388  13.826  2.4112 -3.0092 -0.4755
15063TIP3   OH266679   5.278   0.750   3.920 -0.0138 -0.3324 -0.2351
15063TIP3    H166680   5.264   0.812   3.849  0.2691  0.3028  0.2512
15063TIP3    H266681   5.255   0.665   3.883 -0.7243  0.1014 -0.8158
15064TIP3   OH266682   4.135   4.019   3.610 -0.1808 -0.6035  0.2071
15064TIP3    H166683   4.070   3.987   3.672 -0.9634  1.8093  0.7607
15064TIP3    H266684   4.117   3.971   3.529 -2.5999 -0.1358  0.3872
15065TIP3   OH266685   2.448   1.820   2.245 -0.4556  0.2363  0.0945
15065TIP3    H166686   2.447   1.897   2.188 -0.2062  0.7860  0.8175
15065TIP3    H266687   2.358   1.816   2.280 -1.6134 -1.9640 -2.7261
15066TIP3   OH266688   2.526   4.742  16.350 -0.6024 -1.1794 -0.2481
15066TIP3    H166689   2.611   4.749  16.394 -1.1676 -0.1583  0.7307
15066TIP3    H266690   2.535   4.666  16.293  1.0351 -0.9725 -0.3125
15067TIP3   OH266691   2.319   6.475  14.288  0.6495  0.0413  0.6329
15067TIP3    H166692   2.310   6.429  14.205  0.3681  0.4117  0.4568
15067TIP3    H266693   2.255   6.545  14.284  0.2813 -0.2373  1.3679
15068TIP3   OH266694   0.162   5.742  12.916  0.2053 -0.3925 -0.9559
15068TIP3    H166695   0.072   5.730  12.885 -0.2758  2.0106 -0.6828
15068TIP3    H266696   0.163   5.700  13.002 -1.1898  1.0011 -0.2194
15069TIP3   OH266697   2.208   0.387  10.948 -0.0620  0.5842 -0.1259
15069TIP3    H166698   2.132   0.440  10.972  0.2142  0.4861  1.0759
15069TIP3    H266699   2.196   0.367  10.856 -2.3717 -0.8332  0.3980
15070TIP3   OH266700   4.803   2.767  12.354  0.1775 -0.6153  0.3707
15070TIP3    H166701   4.811   2.819  12.434 -1.7033 -0.8951  0.7852
15070TIP3    H266702   4.858   2.690  12.369  0.7845 -0.0947  0.8812
15071TIP3   OH266703   3.022   1.944  14.191  0.3162  0.1064  0.6444
15071TIP3    H166704   3.108   1.968  14.158  0.1535  0.8014  0.7254
15071TIP3    H266705   3.039   1.903  14.276  0.5674  0.1582  0.6180
15072TIP3   OH266706   5.265   3.795  11.263 -0.3719 -0.0422 -0.4260
15072TIP3    H166707   5.328   3.753  11.205 -0.3620 -0.7455  0.0842
15072TIP3    H266708   5.315   3.862  11.310 -0.1291 -0.2278 -0.4187
15073TIP3   OH266709   6.279   1.760  16.713 -0.1938 -0.2183  0.4717
15073TIP3    H166710   6.283   1.665  16.717  0.7377 -0.1850  0.5764
15073TIP3    H266711   6.318   1.783  16.629 -0.6630  0.0641  0.3249
15074TIP3   OH266712   4.911   1.552   4.582  0.0640 -0.0317  0.0934
15074TIP3    H166713   4.965   1.602   4.521 -0.0553 -0.9186 -0.7502
15074TIP3    H266714   4.821   1.575   4.560  0.0311 -0.0464  0.2069
15075TIP3   OH266715   1.835   2.527   1.139 -0.2324  0.0302  0.4308
15075TIP3    H166716   1.877   2.476   1.207  0.4771  0.3456  0.2347
15075TIP3    H266717   1.819   2.613   1.178  0.5081  0.3289  0.0934
15076TIP3   OH266718   3.237   1.598   2.964  0.1040 -0.5580  0.0291
15076TIP3    H166719   3.285   1.591   2.882  1.1543  1.6197  0.3924
15076TIP3    H266720   3.145   1.599   2.938  0.4033 -0.5269 -1.0601
15077TIP3   OH266721   0.567   0.963   4.026  0.1638 -0.1143 -0.1593
15077TIP3    H166722   0.558   1.058   4.016 -2.1310 -0.1964  0.4255
15077TIP3    H266723   0.644   0.952   4.082  0.7166  1.3717 -0.5707
15078TIP3   OH266724   3.441   3.549   3.196  0.2233 -0.9817  0.5744
15078TIP3    H166725   3.354   3.555   3.236 -0.3140 -1.6760 -0.4127
15078TIP3    H266726   3.423   3.544   3.102  1.2858 -1.8237  0.3904
15079TIP3   OH266727   4.121   0.043  13.947  0.2828  0.1439 -0.5138
15079TIP3    H166728   4.213   0.031  13.971 -0.0774  1.0415  1.6137
15079TIP3    H266729   4.075   0.045  14.031 -1.4977  1.1546 -1.4479
15080TIP3   OH266730   6.022   5.062   5.127  0.2726  0.0884  0.2186
15080TIP3    H166731   6.084   5.017   5.070  0.3604  0.2622  0.1749
15080TIP3    H266732   5.943   5.008   5.125 -0.0640  0.5884 -0.8323
15081TIP3   OH266733   2.378   5.891   4.239  0.2427  0.0190  0.2799
15081TIP3    H166734   2.458   5.860   4.197  0.5282  1.3432 -0.2118
15081TIP3    H266735   2.364   5.831   4.312  0.7795 -1.2048 -0.5890
15082TIP3   OH266736   4.751   3.322  16.247 -0.2901 -0.6066  0.1658
15082TIP3    H166737   4.833   3.311  16.199 -1.0547 -0.7094 -1.1734
15082TIP3    H266738   4.777   3.357  16.332  1.0944 -0.1522 -0.4207
15083TIP3   OH266739   0.806   2.857  17.145  0.2161  0.0703  0.2486
15083TIP3    H166740   0.843   2.807  17.073  1.0183 -0.1564  0.8070
15083TIP3    H266741   0.878   2.869  17.206 -0.7178 -0.8015  1.5985
15084TIP3   OH266742   3.967   6.657  15.467 -0.5990  0.2365  0.5812
15084TIP3    H166743   3.967   6.751  15.488  0.4514 -0.0342  1.9019
15084TIP3    H266744   3.985   6.614  15.550  0.9149 -1.0474 -0.3579
15085TIP3   OH266745   4.823   5.875   4.297  0.0732 -0.5340 -0.1337
15085TIP3    H166746   4.872   5.952   4.327  3.7813 -2.8590  0.4228
15085TIP3    H266747   4.826   5.880   4.202  2.1594 -0.9181 -0.1427
15086TIP3   OH266748   1.613   4.138  14.513 -0.1560  0.4985  0.5892
15086TIP3    H166749   1.617   4.050  14.551 -1.4217 -0.5484 -1.4914
15086TIP3    H266750   1.688   4.184  14.550  1.1660 -1.7877  0.9416
15087TIP3   OH266751   0.363   2.232  14.087  0.2707  0.5727  0.1306
15087TIP3    H166752   0.379   2.252  14.180  0.1538  0.3268  0.2057
15087TIP3    H266753   0.346   2.138  14.086 -0.1785  0.6536 -0.0788
15088TIP3   OH266754   3.120   3.242  15.723 -0.3056 -0.2848  0.1098
15088TIP3    H166755   3.035   3.261  15.761  0.0547 -0.6424  1.1391
15088TIP3    H266756   3.126   3.146  15.723 -0.3634 -0.3006 -1.0251
15089TIP3   OH266757   5.616   4.351  14.427  0.4207 -0.0333 -0.4202
15089TIP3    H166758   5.552   4.281  14.416  1.4782 -1.0653 -0.2644
15089TIP3    H266759   5.569   4.421  14.473 -0.3727 -1.0768  0.3900
15090TIP3   OH266760   5.982   1.348   2.757  0.3847  0.2990  0.6745
15090TIP3    H166761   6.034   1.353   2.837  0.2774  0.5574  0.7268
15090TIP3    H266762   6.040   1.381   2.688  0.4465  0.1598  0.6593
15091TIP3   OH266763   4.171   6.465  12.850 -0.0164 -0.3152 -0.0356
15091TIP3    H166764   4.187   6.556  12.873 -1.3481  0.1677 -0.9215
15091TIP3    H266765   4.128   6.468  12.764 -0.3457 -1.7470  0.0425
15092TIP3   OH266766   4.226   6.545  14.535 -0.1697  0.9489 -0.4711
15092TIP3    H166767   4.164   6.522  14.466 -0.2577  0.7406 -0.3231
15092TIP3    H266768   4.270   6.463  14.557 -1.0812  0.7220  0.6444
15093TIP3   OH266769   6.321   5.706  12.841 -0.6147  0.1243 -0.0174
15093TIP3    H166770   6.402   5.711  12.791  0.1628  0.2109  1.1903
15093TIP3    H266771   6.251   5.725  12.778  0.3518  0.7040 -0.9331
15094TIP3   OH266772   5.672   1.553  10.641 -0.9565  0.2629  0.6951
15094TIP3    H166773   5.644   1.491  10.708  0.2257  0.0831  1.0506
15094TIP3    H266774   5.748   1.512  10.600 -2.1114  0.0045 -1.3292
15095TIP3   OH266775   1.137   4.390  15.044  0.1706  0.2112 -0.2497
15095TIP3    H166776   1.078   4.332  15.093  0.5954  0.3990  0.4918
15095TIP3    H266777   1.089   4.410  14.964 -0.5311 -0.1074  0.0805
15096TIP3   OH266778   2.128   1.819   2.043  0.1939 -0.0819  0.4597
15096TIP3    H166779   2.168   1.901   2.013  0.6212 -0.6711 -0.6363
15096TIP3    H266780   2.118   1.831   2.138 -0.7515  1.6466  0.1903
15097TIP3   OH266781   4.428   1.186   5.892  0.3201 -0.1401 -0.2798
15097TIP3    H166782   4.393   1.274   5.903  1.3173  0.1513  0.6497
15097TIP3    H266783   4.442   1.154   5.981  0.6132 -0.9736 -0.6142
15098TIP3   OH266784   3.100   1.291   3.638  0.2138  0.2795  0.1917
15098TIP3    H166785   3.170   1.347   3.605  0.2093 -0.4556 -1.1767
15098TIP3    H266786   3.034   1.291   3.568  0.2514 -1.4570  0.1123
15099TIP3   OH266787   6.364   4.996  12.023  0.0696 -0.4585  0.1047
15099TIP3    H166788   6.296   5.043  11.974 -0.5376  0.6021  1.8600
15099TIP3    H266789   6.395   5.060  12.087  0.6594 -1.8541  1.2603
15100TIP3   OH266790   4.998   6.505  13.181  0.1842  0.3468  0.2176
15100TIP3    H166791   5.029   6.452  13.107 -0.9140 -0.1058  0.0608
15100TIP3    H266792   5.073   6.561  13.203  1.4925 -1.4148  0.5445
15101TIP3   OH266793   6.752   2.523   5.629 -0.0152  0.0681 -0.4680
15101TIP3    H166794   6.841   2.493   5.650 -0.4953  0.2978  2.2751
15101TIP3    H266795   6.714   2.451   5.580  1.8633  0.2465 -2.3286
15102TIP3   OH266796   6.520   0.589  15.385  0.1108 -0.2047  0.0046
15102TIP3    H166797   6.509   0.554  15.474  0.6083  0.0210  0.1577
15102TIP3    H266798   6.565   0.519  15.338  0.4437 -0.0632  0.1114
15103TIP3   OH266799   4.695   0.663  13.724 -0.2008 -0.2083 -0.1304
15103TIP3    H166800   4.739   0.606  13.786 -1.1543  1.0255  1.7625
15103TIP3    H266801   4.761   0.680  13.657  1.3992 -0.3853  1.3318
15104TIP3   OH266802   2.401   4.288  15.566 -0.2911  0.1459  0.8578
15104TIP3    H166803   2.409   4.382  15.576 -1.2541  0.3246  0.1071
15104TIP3    H266804   2.451   4.268  15.487  0.4676 -0.0820  1.3820
15105TIP3   OH266805   3.107   5.468   3.888  0.3389  0.3897  0.2609
15105TIP3    H166806   3.051   5.500   3.817 -1.4259  1.8231  2.1700
15105TIP3    H266807   3.196   5.486   3.859 -0.3477  1.4704 -1.3175
15106TIP3   OH266808   2.614   6.041   2.956  0.2652 -0.4253 -0.3024
15106TIP3    H166809   2.571   6.106   2.900  0.4941 -0.2126 -0.2293
15106TIP3    H266810   2.541   5.989   2.992  0.1531 -1.0933 -1.4361
15107TIP3   OH266811   0.692   0.176  11.862 -0.6552  0.5431 -0.3998
15107TIP3    H166812   0.655   0.112  11.923  0.6536 -0.4967 -0.6299
15107TIP3    H266813   0.672   0.141  11.776  0.5938  0.0897 -0.5268
15108TIP3   OH266814   2.385   3.507  13.616 -0.4016 -0.0757  0.0801
15108TIP3    H166815   2.350   3.586  13.574  0.7229  1.4081  1.8108
15108TIP3    H266816   2.432   3.462  13.547 -2.9174 -0.4720 -1.5158
15109TIP3   OH266817   0.194   0.399  14.296  0.0186  0.4542 -0.3066
15109TIP3    H166818   0.106   0.424  14.266 -0.6462 -1.5274 -0.1530
15109TIP3    H266819   0.253   0.439  14.233 -1.1660 -0.7016 -2.2621
15110TIP3   OH266820   5.364   3.937   2.804 -0.2192  0.2058 -0.0943
15110TIP3    H166821   5.401   3.991   2.734 -1.7881  0.4793 -0.7704
15110TIP3    H266822   5.438   3.916   2.860  0.7086  1.8131 -0.6395
15111TIP3   OH266823   1.957   5.088  10.250 -0.4808  0.3676  0.3004
15111TIP3    H166824   1.885   5.136  10.210 -0.5337  0.2134  0.2110
15111TIP3    H266825   1.953   5.001  10.211  0.1546  0.5536 -0.1874
15112TIP3   OH266826   6.594   5.363  13.180  0.2799  0.3432  0.0689
15112TIP3    H166827   6.545   5.281  13.175 -1.4499  1.1941  1.7793
15112TIP3    H266828   6.661   5.347  13.246 -1.5718  0.9429  2.2141
15113TIP3   OH266829   2.460   4.579   5.787  0.4925 -0.4634 -0.1092
15113TIP3    H166830   2.471   4.654   5.846 -0.2577 -0.5764  0.1956
15113TIP3    H266831   2.407   4.517   5.837 -0.1808 -0.5532 -0.9060
15114TIP3   OH266832   3.322   0.892   4.755  0.1456  0.3667  0.0114
15114TIP3    H166833   3.286   0.847   4.678  2.3076  0.6795 -1.2513
15114TIP3    H266834   3.383   0.956   4.719 -0.0644  1.7343  1.9549
15115TIP3   OH266835   0.597   2.301   3.406  0.8314 -0.3179  0.4883
15115TIP3    H166836   0.597   2.208   3.428  0.8884 -0.3138  0.5080
15115TIP3    H266837   0.525   2.338   3.458  0.1316 -0.5274 -0.3083
15116TIP3   OH266838   3.950   6.384   2.427  0.0532 -0.2349  0.0843
15116TIP3    H166839   3.914   6.459   2.474  2.6613  0.7261  0.7555
15116TIP3    H266840   4.045   6.394   2.437  0.4969 -3.5890  0.0647
15117TIP3   OH266841   3.726   0.924   3.963 -0.6242 -0.2345 -0.6936
15117TIP3    H166842   3.691   0.840   3.991 -1.0448  0.4148  0.8512
15117TIP3    H266843   3.808   0.903   3.918 -0.3038 -1.4169  0.3951
15118TIP3   OH266844   5.117   3.701   3.570 -0.4745 -0.0568 -0.7359
15118TIP3    H166845   5.160   3.700   3.485  1.6501  1.2187  0.2344
15118TIP3    H266846   5.102   3.794   3.589  0.9354 -0.1328  1.0872
15119TIP3   OH266847   2.573   0.831  11.539  0.2315 -0.3940  0.1832
15119TIP3    H166848   2.516   0.754  11.536  0.7011 -0.7506  0.2582
15119TIP3    H266849   2.655   0.801  11.500 -0.3694  0.7611 -2.1988
15120TIP3   OH266850   1.707   2.233  11.360 -0.5158  0.7578 -0.0706
15120TIP3    H166851   1.626   2.184  11.354  1.1766 -2.2091 -0.7868
15120TIP3    H266852   1.746   2.226  11.272  1.8617 -0.6218  0.9730
15121TIP3   OH266853   4.332   2.629  12.818  0.3884  0.2089  0.1140
15121TIP3    H166854   4.265   2.650  12.884 -0.4488  0.8735 -0.9185
15121TIP3    H266855   4.415   2.647  12.862 -0.1802  1.4984  0.7193
15122TIP3   OH266856   2.583   6.537   4.189 -0.4110 -1.0533  0.3317
15122TIP3    H166857   2.577   6.629   4.214 -0.7910 -0.4377 -1.8246
15122TIP3    H266858   2.588   6.538   4.093 -1.3877 -3.3229  0.1874
15123TIP3   OH266859   0.658   4.084   2.534 -0.0052  1.1282 -0.2822
15123TIP3    H166860   0.661   4.114   2.625  2.6650  1.7063 -0.4779
15123TIP3    H266861   0.660   4.164   2.482  0.9026  0.7693 -0.8237
15124TIP3   OH266862   4.745   3.382  10.724  0.0393 -0.2073  0.3197
15124TIP3    H166863   4.756   3.461  10.670  0.5912 -0.9535 -0.6882
15124TIP3    H266864   4.828   3.335  10.714 -0.8075 -1.6321 -0.2857
15125TIP3   OH266865   3.882   5.125  16.144  0.3302 -0.2526 -0.5285
15125TIP3    H166866   3.912   5.120  16.053  0.1314  1.6705 -0.7341
15125TIP3    H266867   3.907   5.213  16.173  0.7404 -0.9540  1.4187
15126TIP3   OH266868   6.431   0.655   4.767  0.2694  0.0470 -0.0110
15126TIP3    H166869   6.384   0.581   4.804 -0.7807  0.1626 -1.0614
15126TIP3    H266870   6.490   0.684   4.837  1.5156 -2.4440  0.0842
15127TIP3   OH266871   3.435   6.789  11.316 -0.1874 -0.6093 -0.1654
15127TIP3    H166872   3.460   6.788  11.223  1.2081 -0.7531  0.1954
15127TIP3    H266873   3.370   6.859  11.322  0.1877 -0.1540 -1.1399
15128TIP3   OH266874   1.529   4.523  11.568  0.2794 -0.1975 -0.2436
15128TIP3    H166875   1.540   4.592  11.634 -0.4877 -1.0830  0.8589
15128TIP3    H266876   1.440   4.534  11.536 -1.0705 -2.4857  2.2359
15129TIP3   OH266877   0.864   6.029  13.627 -0.1616 -0.1278 -0.5390
15129TIP3    H166878   0.955   6.014  13.599 -0.3128  0.9361 -1.6740
15129TIP3    H266879   0.820   5.946  13.608 -0.1249  0.3497 -3.0935
15130TIP3   OH266880   0.733   0.117   0.701  0.1253 -0.2905 -0.2555
15130TIP3    H166881   0.764   0.041   0.751  1.3201 -0.0445 -0.5773
15130TIP3    H266882   0.641   0.099   0.685  0.3206 -1.5600 -0.1075
15131TIP3   OH266883   6.696   3.802   4.461  0.1564 -0.1741 -0.5334
15131TIP3    H166884   6.646   3.786   4.380 -0.9549  2.2610 -0.4036
15131TIP3    H266885   6.786   3.814   4.431  0.1216 -1.2786 -1.1531
15132TIP3   OH266886   2.081   4.688   4.235  0.2936  0.3156 -0.1353
15132TIP3    H166887   2.168   4.701   4.198  0.2489  0.8290 -0.0684
15132TIP3    H266888   2.060   4.597   4.215  1.7435 -0.4991  1.7142
15133TIP3   OH266889   2.945   2.112   3.301 -0.3875  0.5306 -0.4388
15133TIP3    H166890   2.902   2.141   3.381  0.5576  0.2811  0.1704
15133TIP3    H266891   3.031   2.081   3.329 -0.2638 -0.1264 -1.4632
15134TIP3   OH266892   3.992   0.464  12.655 -0.3495 -0.1872  0.1868
15134TIP3    H166893   3.904   0.496  12.636 -0.3712 -0.8818 -0.9279
15134TIP3    H266894   4.050   0.528  12.614 -0.3829 -1.0341 -1.2387
15135TIP3   OH266895   0.009   0.939   5.647 -0.1841 -0.0790 -0.3336
15135TIP3    H166896   0.060   0.916   5.569 -1.7709 -0.3750 -1.3329
15135TIP3    H266897   0.018   0.863   5.704  0.3063 -0.2252 -0.5970
15136TIP3   OH266898   3.315   4.736  14.537  0.8242  0.0425  0.1119
15136TIP3    H166899   3.343   4.723  14.628  1.6275 -0.9453 -0.2532
15136TIP3    H266900   3.383   4.789  14.497  1.0952 -0.5320 -0.2121
15137TIP3   OH266901   4.046   0.399   4.707  0.2881  0.5876  0.5696
15137TIP3    H166902   4.016   0.416   4.796 -1.3775 -0.8629  0.3492
15137TIP3    H266903   3.979   0.439   4.651 -0.5170 -1.3582  0.0513
15138TIP3   OH266904   0.818   5.262   6.304 -0.2765 -0.4788  0.0691
15138TIP3    H166905   0.780   5.234   6.387 -0.2983 -1.2942 -0.2133
15138TIP3    H266906   0.836   5.181   6.256 -0.7107 -0.0111 -0.9264
15139TIP3   OH266907   1.438   4.312  16.727  0.0525  0.5697 -0.0121
15139TIP3    H166908   1.501   4.361  16.674  0.9958  0.9753  1.4291
15139TIP3    H266909   1.357   4.362  16.721  0.1286  0.5867 -1.0838
15140TIP3   OH266910   3.087   1.049   5.069 -0.2444 -0.2481 -0.1802
15140TIP3    H166911   3.134   1.133   5.063 -0.8556  0.0276 -1.5639
15140TIP3    H266912   3.156   0.983   5.063  0.1322  0.1545 -0.4006
15141TIP3   OH266913   4.931   1.370  11.909 -0.5098  0.0402  0.0489
15141TIP3    H166914   4.924   1.316  11.830  0.0192  0.5486 -0.3564
15141TIP3    H266915   4.846   1.361  11.952 -0.3135 -1.4338  0.2089
15142TIP3   OH266916   4.823   1.381   5.600  0.3548 -0.5030 -0.4473
15142TIP3    H166917   4.917   1.387   5.617  0.1800 -0.3000  0.5233
15142TIP3    H266918   4.799   1.293   5.630  0.0895 -0.2395  0.1416
15143TIP3   OH266919   3.778   0.277   1.944 -0.0048  0.0306 -0.1646
15143TIP3    H166920   3.834   0.333   1.998 -0.9416  0.7613  0.0862
15143TIP3    H266921   3.691   0.318   1.949  0.0273  0.6322 -2.8932
15144TIP3   OH266922   4.757   6.425  14.751  0.1993 -0.2366 -0.2972
15144TIP3    H166923   4.816   6.363  14.794  1.1853  0.7777 -0.1210
15144TIP3    H266924   4.673   6.411  14.793  0.7095 -0.5529  0.6622
15145TIP3   OH266925   6.122   5.047   1.714 -0.3111 -0.4110 -0.2202
15145TIP3    H166926   6.138   4.988   1.640  2.8658  0.4298 -0.3396
15145TIP3    H266927   6.066   5.116   1.678  0.1522 -0.6865 -1.5205
15146TIP3   OH266928   2.071   2.004  14.931  0.1670  0.1293  0.0798
15146TIP3    H166929   2.165   1.999  14.952  0.0847 -0.5573  0.2952
15146TIP3    H266930   2.028   2.021  15.015  0.1466  1.1242 -0.1205
15147TIP3   OH266931   3.742   1.071   2.095  0.1552  0.3360 -0.1945
15147TIP3    H166932   3.791   1.152   2.104 -1.0445  1.0977 -0.3499
15147TIP3    H266933   3.809   1.002   2.098  1.2068  1.3261 -0.2654
15148TIP3   OH266934   1.228   1.954  16.236  0.5666 -0.2398  0.5708
15148TIP3    H166935   1.186   1.902  16.304  0.2065 -0.0907  0.4648
15148TIP3    H266936   1.186   1.927  16.155  0.0725  0.5145  0.5606
15149TIP3   OH266937   0.818   0.232   2.008  0.3457 -0.5561 -0.4312
15149TIP3    H166938   0.868   0.244   2.088 -0.6026 -1.8195  0.3912
15149TIP3    H266939   0.729   0.211   2.038 -0.6539  1.3678 -1.8281
15150TIP3   OH266940   1.115   2.904  15.171 -0.2885  0.3391 -0.3286
15150TIP3    H166941   1.145   2.832  15.226  0.2786  0.3378 -0.6330
15150TIP3    H266942   1.067   2.962  15.232 -0.2933 -0.0258  0.0171
15151TIP3   OH266943   2.389   2.816   4.503  0.0153 -0.0177 -0.0854
15151TIP3    H166944   2.363   2.893   4.554 -1.4140  0.0439 -0.8343
15151TIP3    H266945   2.446   2.767   4.561 -0.4155  0.7601  1.0362
15152TIP3   OH266946   0.810   4.787  15.321 -0.4517 -0.1712  0.2080
15152TIP3    H166947   0.829   4.841  15.243 -0.7905 -0.0655  0.1996
15152TIP3    H266948   0.877   4.813  15.384  3.0540 -3.6939 -1.6348
15153TIP3   OH266949   3.237   2.039   6.488 -0.6646  0.3063 -0.4189
15153TIP3    H166950   3.186   2.117   6.512  0.6060  2.1023 -3.0466
15153TIP3    H266951   3.244   1.989   6.569 -2.9480  2.0757  1.0075
15154TIP3   OH266952   0.961   6.457   3.575 -0.3850  0.0117 -0.3916
15154TIP3    H166953   1.021   6.498   3.513  2.0180 -1.5379  0.7529
15154TIP3    H266954   0.918   6.388   3.524  0.4052 -0.2292 -0.7656
15155TIP3   OH266955   0.829   5.659  15.389  0.0706 -0.0513  0.7970
15155TIP3    H166956   0.895   5.726  15.377  0.7503 -0.7699  0.4581
15155TIP3    H266957   0.767   5.697  15.451  0.0378  1.1698  0.0382
15156TIP3   OH266958   0.150   2.404   5.693 -0.7585 -0.4587  0.0506
15156TIP3    H166959   0.230   2.410   5.745 -0.5233  0.3607 -0.3758
15156TIP3    H266960   0.102   2.330   5.730 -0.8920  0.4624  1.8321
15157TIP3   OH266961   4.035   1.151  14.889 -0.2344 -0.1990  0.0003
15157TIP3    H166962   3.958   1.153  14.833 -0.3199 -1.6741  0.0095
15157TIP3    H266963   4.011   1.202  14.966 -0.6195  0.6627 -0.6732
15158TIP3   OH266964   1.971   1.226   4.026 -0.0807  0.8729  0.5106
15158TIP3    H166965   1.915   1.155   3.993 -0.8327  1.4195  0.5692
15158TIP3    H266966   2.059   1.188   4.029 -0.3023  0.2516 -0.3856
15159TIP3   OH266967   1.892   6.172   0.693 -0.2682 -0.3911  0.1840
15159TIP3    H166968   1.895   6.136   0.782 -2.3003 -0.1614  0.3814
15159TIP3    H266969   1.865   6.098   0.638  0.2622 -0.3410 -0.1595
15160TIP3   OH266970   1.896   5.731  11.800  0.1620  0.2467  0.0442
15160TIP3    H166971   1.908   5.654  11.745 -1.8649 -0.2228  0.1983
15160TIP3    H266972   1.978   5.738  11.850  0.0274 -2.4014  0.7655
15161TIP3   OH266973   6.506   5.082  15.184  0.3713 -1.1049  0.3455
15161TIP3    H166974   6.553   5.036  15.115 -1.0403 -0.8906 -0.8080
15161TIP3    H266975   6.422   5.035  15.191 -1.3436  1.5053 -1.2414
15162TIP3   OH266976   5.492   4.237  16.863 -0.1095 -0.0194  0.2458
15162TIP3    H166977   5.510   4.237  16.957 -2.0812 -2.1743  0.7246
15162TIP3    H266978   5.534   4.157  16.830  0.7712  0.8411 -0.7713
15163TIP3   OH266979   1.836   2.117  13.518 -0.0532 -0.0202 -0.2487
15163TIP3    H166980   1.760   2.145  13.467 -0.2928 -2.0533 -1.1199
15163TIP3    H266981   1.803   2.107  13.607 -0.2184  1.2424 -0.1416
15164TIP3   OH266982   4.568   2.534   0.398 -0.0953  0.0381  0.3829
15164TIP3    H166983   4.595   2.616   0.357 -1.1401  1.0372  1.6234
15164TIP3    H266984   4.627   2.522   0.472  0.4399 -0.6638 -0.1424
15165TIP3   OH266985   3.309   5.090  15.408  0.0950  0.2894  0.4070
15165TIP3    H166986   3.241   5.023  15.414  1.9086 -1.7771 -0.6329
15165TIP3    H266987   3.310   5.132  15.494 -1.5930 -0.5202  0.8470
15166TIP3   OH266988   2.284   5.331  16.584  0.4596 -0.3406  0.3405
15166TIP3    H166989   2.274   5.308  16.677 -2.4968 -0.7597  0.0339
15166TIP3    H266990   2.215   5.396  16.569  1.3252  0.2121 -1.4250
15167TIP3   OH266991   6.204   6.593   6.013  1.1925 -0.4660 -0.0354
15167TIP3    H166992   6.112   6.577   6.036  0.5799  0.2851 -1.7973
15167TIP3    H266993   6.232   6.660   6.076  0.7988 -1.2428  1.0045
15168TIP3   OH266994   6.248   3.934  16.557  0.4776  0.1971  0.2917
15168TIP3    H166995   6.200   4.017  16.558  2.5672  1.4784  0.2101
15168TIP3    H266996   6.251   3.906  16.648  1.2409  1.1404  0.5684
15169TIP3   OH266997   5.087   0.215   0.430 -0.7086 -0.3310 -0.1845
15169TIP3    H166998   5.143   0.271   0.377  0.5429 -0.8965  0.5072
15169TIP3    H266999   5.089   0.255   0.517 -1.0587 -0.5811 -0.0585
15170TIP3   OH267000   2.850   6.557   1.475  0.3033  0.1159 -0.4723
15170TIP3    H167001   2.854   6.595   1.562  0.9275  0.5298 -0.6730
15170TIP3    H267002   2.834   6.464   1.490  3.7175 -0.4993  0.2878
15171TIP3   OH267003   0.621   3.665  12.727  0.7954  0.1239 -0.0259
15171TIP3    H167004   0.627   3.599  12.658 -2.3382 -0.6500  0.2770
15171TIP3    H267005   0.649   3.747  12.685  3.4036 -1.0769 -0.8123
15172TIP3   OH267006   6.114   6.622  12.502  0.5739  0.1057 -0.7025
15172TIP3    H167007   6.029   6.667  12.499  0.0885 -0.8286 -1.8113
15172TIP3    H267008   6.178   6.692  12.488 -0.1806  0.4838 -2.5838
15173TIP3   OH267009   1.357   5.486  12.065  0.3260 -0.7581  0.1169
15173TIP3    H167010   1.364   5.475  12.160 -1.2096 -0.3561  0.2924
15173TIP3    H267011   1.285   5.429  12.039  1.0978 -1.2921 -0.8987
15174TIP3   OH267012   3.310   5.896  15.697 -1.0824  0.4605 -0.6488
15174TIP3    H167013   3.324   5.849  15.779 -0.8022 -0.4519 -1.1930
15174TIP3    H267014   3.228   5.943  15.709 -0.2692  1.5949  0.6992
15175TIP3   OH267015   0.463   4.668  13.586  0.1371 -0.3430  0.0046
15175TIP3    H167016   0.459   4.607  13.660 -0.9610 -0.4975 -0.1681
15175TIP3    H267017   0.420   4.621  13.515  3.0560 -1.0794 -1.4161
15176TIP3   OH267018   6.527   5.548   3.009 -0.3665 -0.6797 -0.2141
15176TIP3    H167019   6.479   5.622   2.970 -1.0225 -0.0116  1.7137
15176TIP3    H267020   6.468   5.515   3.077  2.0129  0.4671  2.5992
15177TIP3   OH267021   6.005   5.949   0.670  0.0455 -0.4929  0.6006
15177TIP3    H167022   6.064   5.929   0.743  2.6273 -0.7361 -1.4284
15177TIP3    H267023   5.975   6.038   0.688  1.4041 -0.1842  1.5073
15178TIP3   OH267024   3.746   5.380  12.862 -0.1107 -0.0321  0.2570
15178TIP3    H167025   3.714   5.290  12.867 -0.7439  0.2465  1.3484
15178TIP3    H267026   3.675   5.429  12.821  0.4086 -0.0968 -0.7507
15179TIP3   OH267027   5.764   0.243   3.104  0.3188 -0.0753 -0.6877
15179TIP3    H167028   5.693   0.291   3.061  2.3409  2.0728 -1.8797
15179TIP3    H267029   5.734   0.229   3.193 -0.7597  2.7422 -0.5317
15180TIP3   OH267030   5.643   0.624  15.417  0.0969 -0.3908 -0.0105
15180TIP3    H167031   5.695   0.658  15.344 -0.7524 -1.1272 -0.9711
15180TIP3    H267032   5.638   0.698  15.478  0.7332  0.2742 -0.7359
15181TIP3   OH267033   5.823   3.241  15.631  0.1407  0.2855 -0.0720
15181TIP3    H167034   5.737   3.260  15.594 -0.4288 -0.3699  0.8674
15181TIP3    H267035   5.855   3.166  15.580 -0.0638  0.2115 -0.0924
15182TIP3   OH267036   6.414   3.035  16.201  0.3585 -0.2195 -0.2770
15182TIP3    H167037   6.319   3.030  16.196  0.1929 -0.0353  1.9061
15182TIP3    H267038   6.443   3.032  16.109 -1.7447  0.1951 -1.0071
15183TIP3   OH267039   0.618   6.108   3.996 -0.2357  0.1410 -0.4747
15183TIP3    H167040   0.626   6.016   4.022 -1.4374 -0.2993 -1.5749
15183TIP3    H267041   0.584   6.152   4.074 -1.8268 -0.7767 -0.6144
15184TIP3   OH267042   3.827   6.194  17.011  0.6706 -0.3371 -0.2090
15184TIP3    H167043   3.918   6.204  16.983  0.4660  1.3859 -0.3630
15184TIP3    H267044   3.776   6.228  16.937  0.0473  2.4009  1.3604
15185TIP3   OH267045   0.161   1.786   3.211 -0.2845  0.4674 -0.2351
15185TIP3    H167046   0.214   1.709   3.190 -0.4263  0.0487  0.9126
15185TIP3    H267047   0.089   1.783   3.148 -0.4918 -0.5481  0.0325
15186TIP3   OH267048   4.603   0.600  15.211 -0.0177 -0.2524  0.2976
15186TIP3    H167049   4.669   0.645  15.264  0.6211 -0.7024 -0.0962
15186TIP3    H267050   4.580   0.522  15.262  0.1313 -0.3543  0.2126
15187TIP3   OH267051   2.657   3.215  12.238 -0.0744 -0.0235  0.0443
15187TIP3    H167052   2.623   3.155  12.304  0.6995 -0.4134  0.1084
15187TIP3    H267053   2.593   3.285  12.233 -0.0227  0.1479  1.4065
15188TIP3   OH267054   0.197   3.196   0.853  0.0456 -0.0272 -0.3165
15188TIP3    H167055   0.194   3.290   0.871  0.2951  0.1589 -1.1838
15188TIP3    H267056   0.246   3.189   0.771  2.4361 -1.1182  1.1055
15189TIP3   OH267057   4.139   0.714   1.902 -0.5877  0.0310  0.3097
15189TIP3    H167058   4.147   0.620   1.918  1.3208 -0.1726 -1.3913
15189TIP3    H267059   4.053   0.725   1.863 -0.4604 -1.1671 -0.3305
15190TIP3   OH267060   5.759   3.145  16.769  0.4291 -0.0941  0.2133
15190TIP3    H167061   5.722   3.232  16.784  0.0915 -0.0632 -0.7128
15190TIP3    H267062   5.695   3.085  16.805 -1.1308 -0.0912 -2.2927
15191TIP3   OH267063   1.488   1.980  11.626  0.7778 -0.4662  0.3680
15191TIP3    H167064   1.471   2.014  11.538 -1.4208 -0.5019  0.7034
15191TIP3    H267065   1.544   2.045  11.667 -0.2619  0.8813 -0.2511
15192TIP3   OH267066   3.653   5.469   4.843  0.6423 -0.7369  0.6482
15192TIP3    H167067   3.593   5.451   4.770 -0.3717  1.8432  0.7307
15192TIP3    H267068   3.611   5.427   4.919 -0.7948  0.4335  0.5640
15193TIP3   OH267069   3.987   5.304   2.879 -0.1009 -0.0210 -0.0440
15193TIP3    H167070   3.952   5.216   2.892  0.7742 -0.4038 -0.2006
15193TIP3    H267071   3.920   5.350   2.828 -0.8174 -0.4111  0.5319
15194TIP3   OH267072   0.049   2.883   0.360 -0.4393  0.4053 -0.0901
15194TIP3    H167073   0.096   2.804   0.336 -1.8879 -0.2805 -0.7661
15194TIP3    H267074   0.046   2.935   0.280  1.6411  1.8114  0.6531
15195TIP3   OH267075   0.354   4.587  15.216 -0.4352 -0.0365  0.1141
15195TIP3    H167076   0.390   4.676  15.216 -0.7336  0.1009  1.3755
15195TIP3    H267077   0.295   4.585  15.292 -2.2398 -0.5937 -1.2261
15196TIP3   OH267078   5.759   3.897  14.458  0.4017  0.0345 -0.1201
15196TIP3    H167079   5.694   3.837  14.423  1.2895 -0.8348 -0.3397
15196TIP3    H267080   5.749   3.890  14.553  1.3301 -1.4935 -0.0827
15197TIP3   OH267081   1.064   0.274  15.481 -0.0325 -0.2102  0.4905
15197TIP3    H167082   1.121   0.270  15.557 -0.3031 -0.9060  0.6675
15197TIP3    H267083   1.115   0.235  15.410  0.5143  1.1486  0.1066
15198TIP3   OH267084   1.579   4.189   0.693  0.0438  0.1591 -0.3288
15198TIP3    H167085   1.660   4.147   0.665  2.4288  2.5059  2.2747
15198TIP3    H267086   1.546   4.133   0.763  0.1062 -0.2359 -0.6182
15199TIP3   OH267087   2.719   1.993  15.067  0.1762  0.1203  0.1534
15199TIP3    H167088   2.771   2.045  15.128 -1.2216 -0.6539  2.1366
15199TIP3    H267089   2.631   1.993  15.105 -1.1964  0.8715 -2.7339
15200TIP3   OH267090   5.281   2.117  12.982  0.2057 -0.1073  0.7303
15200TIP3    H167091   5.268   2.142  13.074 -0.3684  0.1994  0.5749
15200TIP3    H267092   5.371   2.144  12.963  0.2208  0.1328  1.1085
15201TIP3   OH267093   4.644   3.125  11.223  0.5481  0.2356  0.3494
15201TIP3    H167094   4.634   3.034  11.194  0.3508 -0.5095  2.5478
15201TIP3    H267095   4.641   3.176  11.143 -0.8810 -1.5711 -0.8357
15202TIP3   OH267096   1.585   5.274  15.473 -0.0615  0.5614 -0.3587
15202TIP3    H167097   1.492   5.268  15.449  0.3871 -0.5588 -1.9622
15202TIP3    H267098   1.588   5.243  15.563 -1.3988  1.8598  0.1750
15203TIP3   OH267099   1.430   5.008  17.193 -0.6121  0.2557 -0.8433
15203TIP3    H167100   1.450   4.922  17.156 -2.3533 -0.4836 -0.2071
15203TIP3    H267101   1.445   4.998  17.287  0.1166  0.9523 -0.8820
15204TIP3   OH267102   4.095   1.407   6.581 -0.7307 -0.0234 -0.1780
15204TIP3    H167103   4.157   1.447   6.641  0.6002  1.3400 -2.3378
15204TIP3    H267104   4.068   1.478   6.523 -1.7824 -1.3143 -1.3368
15205TIP3   OH267105   3.799   6.280   4.870  0.0944 -0.1051 -0.2222
15205TIP3    H167106   3.735   6.341   4.834  0.0441 -0.9980 -1.7337
15205TIP3    H267107   3.880   6.300   4.822  0.4696 -0.2328  0.3487
15206TIP3   OH267108   2.350   5.657  16.414 -0.0681  0.1489 -0.0318
15206TIP3    H167109   2.260   5.688  16.419 -0.6965 -1.5057 -0.6460
15206TIP3    H267110   2.397   5.712  16.477 -1.8912 -0.3529  1.8743
15207TIP3   OH267111   3.493   3.569  11.171  0.2779 -0.1347  0.5793
15207TIP3    H167112   3.428   3.593  11.236 -0.1819  0.4709 -0.0822
15207TIP3    H267113   3.449   3.504  11.116  0.3850 -0.0585  0.4023
15208TIP3   OH267114   3.040   5.336  12.907 -0.3681 -0.7316 -0.5042
15208TIP3    H167115   2.976   5.379  12.964 -0.6431 -1.5600 -0.1634
15208TIP3    H267116   3.002   5.249  12.891 -0.4022 -0.4449 -2.1301
15209TIP3   OH267117   3.456   5.732   3.980  0.5471 -0.6350 -0.2095
15209TIP3    H167118   3.394   5.802   4.002  0.7547 -0.4264 -0.2861
15209TIP3    H267119   3.490   5.756   3.894  2.1186  0.2411  0.6081
15210TIP3   OH267120   3.379   2.338   4.682 -0.3710  0.0820  0.1179
15210TIP3    H167121   3.351   2.257   4.640 -0.1669  0.7166 -1.2881
15210TIP3    H267122   3.375   2.319   4.776 -1.3606 -1.1973 -0.1596
15211TIP3   OH267123   6.796   0.868   3.477  0.1172 -0.3349  0.1037
15211TIP3    H167124   6.781   0.950   3.431  0.8426 -0.5127 -0.4666
15211TIP3    H267125   6.801   0.802   3.408  0.2999 -0.7370  0.4967
15212TIP3   OH267126   2.702   0.371  14.013  0.1487 -0.1712  0.0643
15212TIP3    H167127   2.682   0.305  14.079 -0.4187  0.7721  0.8564
15212TIP3    H267128   2.761   0.327  13.952  1.8572 -0.6323  1.9464
15213TIP3   OH267129   6.376   5.366   3.998  0.5691 -0.3690  0.2169
15213TIP3    H167130   6.330   5.447   4.018  0.1945  0.0524 -2.0992
15213TIP3    H267131   6.312   5.312   3.951  1.2758 -1.4024  0.3942
15214TIP3   OH267132   4.596   0.225  12.432 -0.0949  0.3901 -0.3778
15214TIP3    H167133   4.576   0.261  12.519  0.7065 -0.7406  0.3108
15214TIP3    H267134   4.689   0.243  12.420  0.3064 -1.3241 -0.0488
15215TIP3   OH267135   3.062   1.618   0.786 -0.0377  0.1568 -0.3887
15215TIP3    H167136   3.113   1.625   0.705 -0.7361  1.2313 -0.7711
15215TIP3    H267137   3.107   1.674   0.848  0.7169 -0.9726  0.1080
15216TIP3   OH267138   0.337   0.736   0.998 -0.0636  0.3647  0.0100
15216TIP3    H167139   0.391   0.686   0.936  0.0483  2.0894 -1.3839
15216TIP3    H267140   0.393   0.746   1.075  0.4191 -0.4908 -0.2107
15217TIP3   OH267141   1.532   2.457   0.649  0.0311  0.7784  0.5594
15217TIP3    H167142   1.544   2.408   0.568  1.2474  1.2504  0.4379
15217TIP3    H267143   1.574   2.404   0.716  1.2720  1.5858  0.4443
15218TIP3   OH267144   3.775   3.878  12.488  0.4420 -0.7297  0.1398
15218TIP3    H167145   3.781   3.954  12.431  0.4144 -0.6466  0.2460
15218TIP3    H267146   3.738   3.912  12.570  2.0606 -0.5204  0.8188
15219TIP3   OH267147   6.727   3.784  16.616 -0.6491 -0.4638  0.0873
15219TIP3    H167148   6.790   3.821  16.678  1.2844  0.8413 -2.4953
15219TIP3    H267149   6.781   3.742  16.549 -2.5560 -0.0137 -1.8293
15220TIP3   OH267150   0.185   1.258   1.300  0.0217  0.3023 -0.6122
15220TIP3    H167151   0.178   1.312   1.379 -1.9195 -0.5221 -0.1436
15220TIP3    H267152   0.198   1.321   1.229  0.6511  1.1433  0.2209
15221TIP3   OH267153   0.536   4.757  14.910 -0.0049 -0.2721  0.0105
15221TIP3    H167154   0.621   4.716  14.924  0.5632  0.5110 -1.0236
15221TIP3    H267155   0.518   4.802  14.992  0.8498  0.0348  0.0399
15222TIP3   OH267156   4.142   1.414  15.449  0.2312 -0.2092  0.4548
15222TIP3    H167157   4.178   1.412  15.538  0.3640  0.5589  0.4229
15222TIP3    H267158   4.052   1.384  15.458  0.3899 -0.5938  0.7753
15223TIP3   OH267159   1.498   1.787   2.244  0.4394  0.4751  0.4029
15223TIP3    H167160   1.578   1.775   2.193  0.5146  1.9591  0.1495
15223TIP3    H267161   1.436   1.828   2.184 -0.6159 -0.8137  0.5365
15224TIP3   OH267162   4.423   3.934  13.979 -0.1424 -0.1231  0.2728
15224TIP3    H167163   4.386   3.849  14.002 -0.3000 -0.1155  0.0455
15224TIP3    H267164   4.409   3.942  13.885 -1.8274  0.9579  0.5682
15225TIP3   OH267165   0.006   3.603  11.653 -0.3211 -0.0417 -0.7966
15225TIP3    H167166   0.086   3.578  11.606  0.6068  0.3648  0.5241
15225TIP3    H267167  -0.020   3.523  11.699  0.5128  0.3538  0.4101
15226TIP3   OH267168   0.013   3.375   2.255  0.2274 -0.7136 -0.1021
15226TIP3    H167169  -0.028   3.425   2.185  1.7112 -0.7647 -1.0586
15226TIP3    H267170  -0.021   3.414   2.336  1.3988  2.0034 -0.8074
15227TIP3   OH267171   3.530   6.682  13.798 -0.3589  0.2297  0.0095
15227TIP3    H167172   3.584   6.728  13.734 -1.0607  0.4266 -0.4540
15227TIP3    H267173   3.538   6.590  13.775  0.0551  0.2228  0.1662
15228TIP3   OH267174   0.555   1.732  11.627  0.7735 -0.1709 -0.5862
15228TIP3    H167175   0.523   1.648  11.659 -0.2057  0.2810 -0.3171
15228TIP3    H267176   0.501   1.750  11.550  1.1523  0.0941 -0.7937
15229TIP3   OH267177   5.225   2.878  14.084 -0.3146  0.3256  0.5092
15229TIP3    H167178   5.148   2.830  14.115  0.0118 -1.5019 -1.2502
15229TIP3    H267179   5.215   2.878  13.988  1.9607 -0.1590  0.2250
15230TIP3   OH267180   6.116   4.186   2.762 -0.3098 -0.3305  0.2740
15230TIP3    H167181   6.123   4.184   2.858 -2.5753  2.0389  0.6007
15230TIP3    H267182   6.174   4.258   2.736  0.8015 -1.3802 -0.2638
15231TIP3   OH267183   2.885   2.578   1.559 -0.0839  0.0540 -0.2040
15231TIP3    H167184   2.889   2.486   1.533 -0.0438 -0.9012  2.8549
15231TIP3    H267185   2.972   2.598   1.594 -0.1710  1.2002 -0.5745
15232TIP3   OH267186   4.275   4.876   5.291 -1.0130  0.3731 -0.2511
15232TIP3    H167187   4.218   4.907   5.220 -1.3799 -0.5434 -0.3688
15232TIP3    H267188   4.328   4.807   5.250  0.8749  1.8297 -0.4049
15233TIP3   OH267189   3.873   1.969  16.280  0.1130  0.2438  0.1885
15233TIP3    H167190   3.951   2.010  16.316 -0.9325  3.3428 -0.7023
15233TIP3    H267191   3.876   1.990  16.186 -1.4962 -0.0100  0.0436
15234TIP3   OH267192   6.302   2.376   3.997  0.4410 -0.3322  0.1162
15234TIP3    H167193   6.394   2.400   3.986  0.5779 -0.9457 -0.1071
15234TIP3    H267194   6.263   2.450   4.044  1.4588 -0.9070  1.9439
15235TIP3   OH267195   2.275   1.529   6.280  0.1809  0.0080  0.1090
15235TIP3    H167196   2.322   1.595   6.331 -1.0217  0.2254  0.9779
15235TIP3    H267197   2.315   1.446   6.305 -0.1132  0.1557  1.0915
15236TIP3   OH267198   0.767   3.518  11.259 -0.5314 -0.2377 -0.3516
15236TIP3    H167199   0.693   3.490  11.205 -0.8236 -2.1041  0.9047
15236TIP3    H267200   0.730   3.526  11.347  0.7375 -1.2754  0.3213
15237TIP3   OH267201   4.049   6.589   5.043  0.5047  0.5981 -0.0420
15237TIP3    H167202   4.006   6.656   4.990  0.7649  1.6484  1.0121
15237TIP3    H267203   4.001   6.590   5.126 -1.1135 -2.3537 -0.8162
15238TIP3   OH267204   5.712   0.456  12.731 -0.2285 -0.1083  0.0450
15238TIP3    H167205   5.632   0.473  12.781 -0.8791  1.0424 -1.2842
15238TIP3    H267206   5.681   0.411  12.652  0.3187  0.9111 -0.7782
15239TIP3   OH267207   3.856   3.325   1.813 -0.3440  0.5846  0.0228
15239TIP3    H167208   3.791   3.275   1.763 -0.3808  0.4566  0.1980
15239TIP3    H267209   3.867   3.275   1.894  2.1965 -1.0623 -1.2307
15240TIP3   OH267210   1.569   4.336  13.045 -0.1429 -0.1847  0.0887
15240TIP3    H167211   1.508   4.288  13.101  0.3706 -0.7454  0.1798
15240TIP3    H267212   1.603   4.270  12.985 -0.4498  0.3488 -0.6839
15241TIP3   OH267213   0.919   2.067   5.447  0.1775 -0.0185 -0.4843
15241TIP3    H167214   0.934   2.057   5.542 -2.3407  0.6171  0.0445
15241TIP3    H267215   0.868   1.990   5.423  0.2028  0.1851 -1.1964
15242TIP3   OH267216   5.312   5.263  17.149  0.2816 -0.0619  0.1361
15242TIP3    H167217   5.396   5.304  17.128  0.0707  1.0208  1.2605
15242TIP3    H267218   5.270   5.248  17.064 -0.8960  4.8204 -0.4948
15243TIP3   OH267219   4.358   1.977   2.940 -0.4219  0.1371  0.3829
15243TIP3    H167220   4.306   2.057   2.942 -0.3314  0.2991 -1.7230
15243TIP3    H267221   4.403   1.980   2.856  0.2695 -1.7152  0.6452
15244TIP3   OH267222   3.320   4.520   1.650  0.4940  0.6754 -0.0018
15244TIP3    H167223   3.402   4.472   1.670 -1.1393 -1.9342  1.0270
15244TIP3    H267224   3.294   4.487   1.564 -0.3293  0.1411  0.4415
15245TIP3   OH267225   4.316   1.226   1.950 -0.0094 -0.4454 -0.1133
15245TIP3    H167226   4.293   1.235   1.857 -0.1323  1.4950  0.0596
15245TIP3    H267227   4.398   1.275   1.959  0.5566 -1.4842  0.6280
15246TIP3   OH267228   5.941   0.798  14.601  0.0518  0.1929  0.7115
15246TIP3    H167229   5.865   0.856  14.588 -0.3260  0.0280  2.1054
15246TIP3    H267230   5.927   0.727  14.538 -0.9848  0.1440  0.9712
15247TIP3   OH267231   2.516   2.845   0.732 -0.2636 -0.1206 -0.1664
15247TIP3    H167232   2.481   2.762   0.764  0.5918 -0.6376 -0.5286
15247TIP3    H267233   2.610   2.829   0.723 -0.2937  0.4383 -1.6282
15248TIP3   OH267234   2.573   1.611  12.108  0.1248 -0.4091  0.2567
15248TIP3    H167235   2.569   1.706  12.110  0.6592 -0.3894  0.5938
15248TIP3    H267236   2.483   1.583  12.093 -0.0084  0.1517 -0.0025
15249TIP3   OH267237   3.049   0.550  12.821 -0.3861 -0.1454  0.5698
15249TIP3    H167238   3.077   0.472  12.868 -0.7993 -0.0763  0.9428
15249TIP3    H267239   3.116   0.564  12.754  1.1426  0.7128  2.1730
15250TIP3   OH267240   1.542   0.365  12.308  0.8328 -0.2236 -0.1138
15250TIP3    H167241   1.547   0.356  12.403 -1.0830  3.8607  0.5865
15250TIP3    H267242   1.633   0.379  12.281  1.5245 -2.3174  0.8786
15251TIP3   OH267243   5.636   5.352   3.442 -0.6700 -0.2505  0.7993
15251TIP3    H167244   5.551   5.394   3.430 -0.8455 -0.8011  0.0330
15251TIP3    H267245   5.623   5.293   3.517 -1.6923 -2.1057 -0.7468
15252TIP3   OH267246   6.676   2.766   2.332  0.2059  0.0040  0.0855
15252TIP3    H167247   6.728   2.767   2.251 -0.8569  0.2664 -0.6162
15252TIP3    H267248   6.665   2.858   2.355 -2.3511  0.1688 -1.4125
15253TIP3   OH267249   3.037   0.087  11.967 -0.2694  0.5761  0.0295
15253TIP3    H167250   2.947   0.115  11.950  0.3613  2.2860 -0.7712
15253TIP3    H267251   3.063   0.039  11.888  0.5454  2.9654 -1.2750
15254TIP3   OH267252   1.464   6.406  13.362  0.4113  0.5904 -0.1407
15254TIP3    H167253   1.513   6.346  13.417 -1.1411 -0.5898  0.0342
15254TIP3    H267254   1.524   6.429  13.292  1.8699  0.8093  1.1222
15255TIP3   OH267255   4.995   3.113   0.843 -0.2577  0.2604  0.6731
15255TIP3    H167256   5.077   3.081   0.804 -0.7139  0.4693 -0.5017
15255TIP3    H267257   5.016   3.200   0.876 -0.1457  0.5715 -0.1882
15256TIP3   OH267258   4.053   2.806   4.413 -0.2631 -0.2666  0.0089
15256TIP3    H167259   4.123   2.802   4.347 -0.7480 -1.3714 -0.4618
15256TIP3    H267260   4.009   2.889   4.396  0.3426  0.0023 -0.2925
15257TIP3   OH267261   0.159   4.921   4.187  0.4361  0.1689 -0.6221
15257TIP3    H167262   0.127   4.985   4.250  0.2938  0.0210 -0.5408
15257TIP3    H267263   0.162   4.839   4.236  0.8404  0.1598 -0.6614
15258TIP3   OH267264   6.150   1.779  15.983  0.1615  0.5449  0.3464
15258TIP3    H167265   6.108   1.807  15.901 -0.9448 -0.8868  0.3792
15258TIP3    H267266   6.096   1.818  16.052 -1.2032 -1.2750  0.3880
15259TIP3   OH267267   2.031   5.337  13.820 -0.1112  0.0303  0.0944
15259TIP3    H167268   1.954   5.370  13.774  0.3185  0.1101 -0.5955
15259TIP3    H267269   2.041   5.248  13.788 -0.5601 -0.3726  1.0340
15260TIP3   OH267270   2.065   4.494  15.983 -0.5067  0.2431 -0.2917
15260TIP3    H167271   2.132   4.509  15.916 -0.3631 -2.6531 -0.9509
15260TIP3    H267272   2.055   4.578  16.026  1.2366  1.5904 -2.2884
15261TIP3   OH267273   2.133   6.459   3.718 -0.5179  0.1004  0.1676
15261TIP3    H167274   2.085   6.473   3.799 -1.3895 -1.2653 -0.0694
15261TIP3    H267275   2.108   6.370   3.691 -0.3742  0.5794 -1.6734
15262TIP3   OH267276   6.526   2.214   0.823  0.0469 -0.3686  0.4063
15262TIP3    H167277   6.436   2.198   0.850  0.1220  3.2367  3.5994
15262TIP3    H267278   6.578   2.199   0.901  1.6269  1.6496 -0.1735
15263TIP3   OH267279   0.218   0.863   2.913  0.2024 -0.2124  0.2260
15263TIP3    H167280   0.235   0.928   2.846 -0.8904 -1.5542 -1.4495
15263TIP3    H267281   0.163   0.908   2.977 -0.2234  0.6157 -0.6993
15264TIP3   OH267282   3.411   6.576  10.867  0.1275 -0.4512  0.3125
15264TIP3    H167283   3.449   6.604  10.951  2.9227 -0.5535 -0.7990
15264TIP3    H267284   3.381   6.657  10.826  1.4243  0.0090  0.2256
15265TIP3   OH267285   3.684   3.891   1.896  0.8138  0.3782  0.0718
15265TIP3    H167286   3.768   3.848   1.881  1.9191  0.1005  5.1104
15265TIP3    H267287   3.623   3.819   1.914  0.1507  0.6758 -0.9200
15266TIP3   OH267288   1.071   4.342  11.776  0.3890  0.0637  0.0365
15266TIP3    H167289   1.037   4.375  11.859  1.6954 -0.5487  0.8696
15266TIP3    H267290   1.031   4.396  11.709 -1.4064 -0.0091  1.0012
15267TIP3   OH267291   0.753   4.612  15.018 -0.6617  0.8873  0.4130
15267TIP3    H167292   0.791   4.643  14.936 -0.9923  1.0762  0.3273
15267TIP3    H267293   0.827   4.576  15.067 -0.7250 -0.8562 -0.6931
15268TIP3   OH267294   0.981   0.001   5.520 -0.1681 -0.0267 -0.2929
15268TIP3    H167295   0.890   0.023   5.497 -0.1784 -0.7342 -0.9583
15268TIP3    H267296   1.014   0.079   5.564 -1.3397 -0.0340  0.6692
15269TIP3   OH267297   4.221   0.003   5.583  0.5037 -0.7091  0.3588
15269TIP3    H167298   4.280  -0.063   5.620  0.0569 -1.4954 -0.2972
15269TIP3    H267299   4.134  -0.024   5.611  0.4445  0.6086  1.5629
15270TIP3   OH267300   3.232   0.754  16.613  0.2586 -0.1185 -0.0646
15270TIP3    H167301   3.190   0.669  16.626  1.1674 -0.5311  0.2439
15270TIP3    H267302   3.321   0.743  16.647  0.3004  1.0418  0.2456
15271TIP3   OH267303   2.807   1.973   2.730  0.0259  0.7017  0.6012
15271TIP3    H167304   2.782   2.053   2.682 -1.0435 -0.3415 -0.6785
15271TIP3    H267305   2.902   1.972   2.727  0.0165  0.9633 -1.1203
15272TIP3   OH267306   0.396   6.427  11.374  0.1501 -0.5889  0.1209
15272TIP3    H167307   0.384   6.466  11.287  0.5807 -0.9803 -0.1195
15272TIP3    H267308   0.369   6.336  11.364 -0.3611 -0.4905  0.5533
15273TIP3   OH267309   3.483   5.290   0.647 -0.2208 -0.1386 -0.1972
15273TIP3    H167310   3.388   5.278   0.647 -0.2231 -0.7054  2.4237
15273TIP3    H267311   3.515   5.226   0.584 -1.5512 -0.0053 -1.0589
15274TIP3   OH267312   4.360   5.248  13.500 -0.1515  0.4410 -0.0993
15274TIP3    H167313   4.407   5.327  13.474 -0.4100  0.2396 -1.2324
15274TIP3    H267314   4.282   5.281  13.545 -0.5477  0.8614 -1.0673
15275TIP3   OH267315   5.463   0.357  14.269  0.7415 -0.4111 -0.3818
15275TIP3    H167316   5.496   0.368  14.358  0.8192  2.8778 -0.6870
15275TIP3    H267317   5.534   0.388  14.213 -0.0858 -0.3993 -1.4546
15276TIP3   OH267318   2.429   0.572  11.584 -0.5297 -0.2822 -0.3070
15276TIP3    H167319   2.349   0.557  11.534 -1.7028  0.0455  1.4288
15276TIP3    H267320   2.491   0.507  11.550 -1.6833 -0.8948 -1.2975
15277TIP3   OH267321   4.658   0.785   1.314 -0.5571 -0.2776  0.0050
15277TIP3    H167322   4.700   0.871   1.309  0.2830 -0.5232  1.9178
15277TIP3    H267323   4.569   0.800   1.282 -0.8261  1.6231  1.4275
15278TIP3   OH267324   2.086   5.057  13.746 -0.1707 -0.0093 -0.7682
15278TIP3    H167325   2.154   5.020  13.802 -0.3353  1.7870  0.7286
15278TIP3    H267326   2.027   4.984  13.728  1.3522 -1.2569 -0.8714
15279TIP3   OH267327   4.756   5.671   3.842 -0.4668 -0.0855 -0.0990
15279TIP3    H167328   4.695   5.709   3.779  0.1145  0.7072 -0.1906
15279TIP3    H267329   4.797   5.598   3.795  0.6103  1.0385 -0.9696
15280TIP3   OH267330   5.891   4.329  10.371 -0.6242 -0.1764 -1.0867
15280TIP3    H167331   5.819   4.267  10.365 -0.5870 -0.7282  2.2647
15280TIP3    H267332   5.849   4.413  10.391 -0.4780  0.3659 -2.8089
15281TIP3   OH267333   1.176   3.521  12.439 -0.0886 -0.1137  0.5573
15281TIP3    H167334   1.244   3.486  12.382  0.6513  1.1423  0.6453
15281TIP3    H267335   1.126   3.581  12.384  0.4165  0.8469  1.1277
15282TIP3   OH267336   3.182   1.173  16.172  0.4519 -0.2844 -0.1872
15282TIP3    H167337   3.212   1.260  16.197 -0.4047  0.1931 -0.8087
15282TIP3    H267338   3.100   1.187  16.126 -0.5697 -1.5337  1.1390
15283TIP3   OH267339   2.253   5.519  16.104  0.1743 -0.5267 -0.0788
15283TIP3    H167340   2.210   5.475  16.178  2.9874 -0.3509  1.8156
15283TIP3    H267341   2.230   5.612  16.115 -2.4351 -0.8867 -1.7042
15284TIP3   OH267342   3.793   6.640   4.251  0.5628 -0.1849  0.4247
15284TIP3    H167343   3.772   6.596   4.333  0.4232  1.4832  1.3393
15284TIP3    H267344   3.876   6.685   4.268  1.0346 -0.5921 -0.6784
15285TIP3   OH267345   3.894   3.544  12.978  0.0049  0.0312 -0.3850
15285TIP3    H167346   3.918   3.636  12.974 -0.6859  0.4665  2.6480
15285TIP3    H267347   3.799   3.543  12.965 -0.0837 -0.1526  0.2373
15286TIP3   OH267348   1.849   1.919   6.857  0.1122 -0.1518 -0.3479
15286TIP3    H167349   1.821   2.000   6.816 -0.1825  0.2296  0.5749
15286TIP3    H267350   1.926   1.943   6.909  1.0110 -0.8042 -1.3459
15287TIP3   OH267351   4.918   2.331  10.628 -0.0705  0.0637  0.1172
15287TIP3    H167352   4.866   2.263  10.586  1.1113  0.6434 -2.4709
15287TIP3    H267353   4.858   2.371  10.691 -2.0595 -0.7205 -1.1854
15288TIP3   OH267354   6.237   0.499  16.017 -0.0853 -0.1880  0.7410
15288TIP3    H167355   6.158   0.452  16.045  0.8370 -1.4430  1.3382
15288TIP3    H267356   6.211   0.591  16.018 -2.1825 -0.6654 -1.2303
15289TIP3   OH267357   6.305   2.961   4.768 -0.1520 -0.5317  0.3312
15289TIP3    H167358   6.233   2.912   4.728 -0.3170  0.1279 -0.2097
15289TIP3    H267359   6.294   3.050   4.735 -0.0335 -0.0588  1.5131
15290TIP3   OH267360   0.963   5.772  16.883 -0.2715 -0.6896 -0.1856
15290TIP3    H167361   1.016   5.696  16.857 -0.0795 -1.1032  1.3044
15290TIP3    H267362   1.008   5.807  16.960 -0.9066  0.3428 -0.2717
15291TIP3   OH267363   2.285   2.249   3.340  0.2616  0.0281 -0.2789
15291TIP3    H167364   2.230   2.314   3.384 -0.4939  0.4548 -1.7972
15291TIP3    H267365   2.229   2.171   3.334  0.8633 -0.5202  0.7467
15292TIP3   OH267366   3.596   6.699  14.819  0.0881  0.2433 -0.4670
15292TIP3    H167367   3.654   6.775  14.817 -2.0125  1.9501 -0.9407
15292TIP3    H267368   3.617   6.650  14.740  1.3074  0.4516 -0.2886
15293TIP3   OH267369   6.326   1.976   1.838  0.1809 -0.5335 -0.1354
15293TIP3    H167370   6.288   2.032   1.906 -1.2318 -1.2377 -0.3196
15293TIP3    H267371   6.256   1.965   1.774  0.5414 -2.2172 -0.2760
15294TIP3   OH267372   6.296   0.794   4.538  0.4467 -0.5010  0.1354
15294TIP3    H167373   6.293   0.741   4.618 -1.4761 -1.1041 -0.2730
15294TIP3    H267374   6.207   0.828   4.529  0.5858 -0.5370 -1.8092
15295TIP3   OH267375   5.985   2.438  12.815  0.3795  0.2209 -0.4161
15295TIP3    H167376   6.019   2.476  12.896  0.1858 -0.6875  0.1089
15295TIP3    H267377   6.050   2.373  12.790 -0.7249 -1.2509  0.3833
15296TIP3   OH267378   4.654   1.910  13.197 -0.0745 -0.4954  0.0872
15296TIP3    H167379   4.732   1.965  13.199 -1.5165  1.6837  0.6479
15296TIP3    H267380   4.650   1.876  13.108  1.9511 -1.3884  0.2935
15297TIP3   OH267381   0.849   4.474  13.354  0.0879 -0.2237 -0.0390
15297TIP3    H167382   0.770   4.522  13.331  1.3476  1.2212 -1.6459
15297TIP3    H267383   0.841   4.390  13.310 -0.6592 -0.1788  0.0083
15298TIP3   OH267384   2.336   4.916  14.485  0.1327 -0.5068 -0.8351
15298TIP3    H167385   2.306   4.920  14.394  0.0432  0.7791 -0.7684
15298TIP3    H267386   2.362   5.005  14.505 -0.7887 -0.5589  0.7138
15299TIP3   OH267387   5.251   3.430  16.806  0.2994  0.4180  0.7658
15299TIP3    H167388   5.249   3.425  16.902 -2.3980 -3.0971  0.7144
15299TIP3    H267389   5.266   3.340  16.778 -3.1973  0.5334 -2.0703
15300TIP3   OH267390   4.484   5.593   3.406 -0.5406 -0.9366 -0.0793
15300TIP3    H167391   4.465   5.571   3.497 -0.6149 -0.3488  0.0486
15300TIP3    H267392   4.570   5.552   3.390  0.6456  0.9762  1.0113
15301TIP3   OH267393   1.543   6.204   3.592 -0.8451 -0.2129  0.0475
15301TIP3    H167394   1.545   6.132   3.655  0.8097 -0.1274  0.1371
15301TIP3    H267395   1.466   6.255   3.616 -1.4932 -1.3961  0.6023
15302TIP3   OH267396   0.818   2.078  15.016 -0.2832 -0.2130 -0.1156
15302TIP3    H167397   0.850   2.045  14.932  0.8193 -3.0925  1.3024
15302TIP3    H267398   0.864   2.161  15.028 -0.1878  0.0829 -2.1475
15303TIP3   OH267399   4.624   2.116   1.699 -0.4812 -0.1482 -0.2240
15303TIP3    H167400   4.633   2.203   1.739  0.5534 -0.8808  1.2138
15303TIP3    H267401   4.585   2.061   1.767 -2.4984 -0.5331 -1.5911
15304TIP3   OH267402   3.910   2.625   3.556  0.1645  0.0672  0.2510
15304TIP3    H167403   3.875   2.687   3.620  1.0253  0.9313 -0.1041
15304TIP3    H267404   3.995   2.599   3.592 -0.8243 -2.1223  1.1784
15305TIP3   OH267405   5.752   5.058   2.986  0.5780 -0.0557 -0.4161
15305TIP3    H167406   5.846   5.075   2.981  0.9653 -2.0383 -0.7456
15305TIP3    H267407   5.743   4.965   2.966 -1.4493  0.0355 -0.1876
15306TIP3   OH267408   1.181   5.651  15.244  0.9089  0.6624 -0.2055
15306TIP3    H167409   1.190   5.740  15.209  0.7412 -0.0671 -2.2491
15306TIP3    H267410   1.124   5.607  15.182  0.7165 -0.7929  0.9600
15307TIP3   OH267411   1.473   6.343   2.694  0.2818 -0.1141 -0.0128
15307TIP3    H167412   1.424   6.385   2.624  2.2866  1.0497 -0.8115
15307TIP3    H267413   1.474   6.250   2.671 -1.5904 -0.1930  0.1071
15308TIP3   OH267414   6.542   6.640  14.675 -0.6909 -0.2556  0.2583
15308TIP3    H167415   6.583   6.607  14.755  0.5852  0.3668 -0.1214
15308TIP3    H267416   6.604   6.619  14.606 -1.8144 -0.8598 -0.6040
15309TIP3   OH267417   1.649   2.778  17.174  0.3820  0.2647 -0.3568
15309TIP3    H167418   1.619   2.850  17.118  2.1559  1.1956 -0.1559
15309TIP3    H267419   1.744   2.783  17.171  0.5295 -1.1534  0.8700
15310TIP3   OH267420   6.620   1.925  14.976  0.4902 -0.5049 -0.7638
15310TIP3    H167421   6.664   1.990  15.032 -1.3844  1.5915 -1.6013
15310TIP3    H267422   6.571   1.870  15.037  0.5363  0.1158 -0.1594
15311TIP3   OH267423   2.848   5.009  11.476  0.3110 -0.2578 -0.5781
15311TIP3    H167424   2.896   5.090  11.494 -1.3233  0.4151  1.1028
15311TIP3    H267425   2.810   4.985  11.560 -0.1876 -2.1711 -1.3018
15312TIP3   OH267426   0.477   4.807  16.130  0.0260 -0.3039 -0.6211
15312TIP3    H167427   0.499   4.854  16.211 -1.8399 -0.8358  0.2557
15312TIP3    H267428   0.504   4.866  16.060  1.6092  0.2094  0.3732
15313TIP3   OH267429   2.870   2.524   4.469  0.3821 -0.6245  0.1951
15313TIP3    H167430   2.959   2.493   4.455  0.3867 -0.3351 -0.4665
15313TIP3    H267431   2.870   2.557   4.559  1.5716  1.3790 -0.4550
15314TIP3   OH267432   1.296   0.252  12.948 -0.3497  0.0129  1.3183
15314TIP3    H167433   1.292   0.224  13.040  0.1270 -1.9103  0.7915
15314TIP3    H267434   1.236   0.193  12.902 -1.7193  1.8925  0.5669
15315TIP3   OH267435   2.744   5.200  13.109  0.9891 -0.1198 -0.1001
15315TIP3    H167436   2.799   5.136  13.065  0.3122 -0.8375  0.0721
15315TIP3    H267437   2.727   5.267  13.043 -0.1789 -1.2770 -1.0243
15316TIP3   OH267438   2.204   0.591  11.187  0.2581  0.1769  0.4854
15316TIP3    H167439   2.283   0.619  11.142  0.7605 -2.2720 -0.2954
15316TIP3    H267440   2.137   0.584  11.119 -0.4918  1.6371  1.0395
15317TIP3   OH267441   0.025   5.976   5.969  0.2614  0.7710  0.4625
15317TIP3    H167442   0.020   6.003   6.061  0.2535 -1.4041  1.1543
15317TIP3    H267443   0.110   5.932   5.962 -1.1557 -2.2473  0.4386
15318TIP3   OH267444   3.935   5.747   1.165 -0.3318  0.3082  0.5214
15318TIP3    H167445   3.875   5.822   1.166 -1.2323 -0.3643 -0.4109
15318TIP3    H267446   3.886   5.677   1.208  0.5281  0.2564  1.4447
15319TIP3   OH267447   6.272   6.504  14.548  0.0754 -0.2057 -0.3110
15319TIP3    H167448   6.219   6.576  14.583 -2.0777 -2.0448  0.4986
15319TIP3    H267449   6.300   6.535  14.462 -1.8517  1.1426 -0.5337
15320TIP3   OH267450   1.311   5.669  12.502 -0.2210 -0.0386  0.1978
15320TIP3    H167451   1.395   5.682  12.546  0.5219  1.0849 -1.4765
15320TIP3    H267452   1.291   5.753  12.460 -2.5852 -0.0273  1.1576
15321TIP3   OH267453   3.693   3.106   1.747  0.0489 -0.7862 -0.5152
15321TIP3    H167454   3.620   3.105   1.685  0.1121 -1.0571 -0.5887
15321TIP3    H267455   3.672   3.036   1.809 -0.8144  0.5064  0.7138
15322TIP3   OH267456   0.284   1.992   5.960 -0.3746  0.2897 -0.5214
15322TIP3    H167457   0.327   2.013   5.877 -0.4985 -0.8638 -0.8954
15322TIP3    H267458   0.357   1.968   6.018 -0.4393 -1.6014 -1.1364
15323TIP3   OH267459   1.938   4.292  11.580  0.0729  0.0767 -0.0813
15323TIP3    H167460   2.032   4.304  11.591  0.4320 -1.0703 -1.4852
15323TIP3    H267461   1.914   4.349  11.508 -0.3424  0.4534  0.3457
15324TIP3   OH267462   2.402   6.082  13.807  0.0802 -0.2205 -0.3751
15324TIP3    H167463   2.458   6.131  13.747  1.8234 -2.9474 -1.1600
15324TIP3    H267464   2.454   6.077  13.888 -0.9651  0.8580  0.4039
15325TIP3   OH267465   6.778   1.658  10.869  0.0937 -0.5192 -0.2301
15325TIP3    H167466   6.714   1.603  10.824 -0.1169 -0.5471  0.1020
15325TIP3    H267467   6.830   1.597  10.921 -0.5759 -0.3407  0.6690
15326TIP3   OH267468   6.379   0.396   3.831 -0.2608 -0.2604  0.1113
15326TIP3    H167469   6.458   0.360   3.873  0.0145  0.9324  0.6567
15326TIP3    H267470   6.412   0.437   3.751 -0.5515 -1.0581 -0.4276
15327TIP3   OH267471   5.067   4.036  14.022  0.0692 -0.1216 -0.3820
15327TIP3    H167472   5.019   4.044  13.939  0.0416  0.3483 -0.3236
15327TIP3    H267473   5.006   4.067  14.088  0.4663  0.5130 -0.3097
15328TIP3   OH267474   3.431   4.976   1.122 -0.0809 -0.6026  0.2787
15328TIP3    H167475   3.346   4.993   1.080 -0.0739 -0.3192  0.3814
15328TIP3    H267476   3.477   5.060   1.118  0.3840 -0.8711 -0.1997
15329TIP3   OH267477   5.018   5.914  16.530  0.1598 -0.0727  0.1799
15329TIP3    H167478   4.933   5.873  16.510 -0.1849  0.2960  0.8567
15329TIP3    H267479   5.058   5.928  16.445  0.3499 -1.9346 -0.0780
15330TIP3   OH267480   1.742   1.663   2.158 -0.2521  0.4462  0.2622
15330TIP3    H167481   1.801   1.631   2.227 -2.0655 -2.3350  0.7250
15330TIP3    H267482   1.760   1.606   2.083 -1.3274  0.4674 -0.0361
15331TIP3   OH267483   5.323   1.200  12.937  0.1943 -0.0524  0.0829
15331TIP3    H167484   5.344   1.116  12.979  0.9112 -1.2386 -2.4825
15331TIP3    H267485   5.228   1.199  12.929  0.2477 -0.9648 -0.5553
15332TIP3   OH267486   4.826   4.998  14.144  0.0376 -0.2934  0.3674
15332TIP3    H167487   4.881   5.074  14.159 -1.9605  1.2904  0.0151
15332TIP3    H267488   4.743   5.033  14.113 -0.9111 -2.6287  0.0223
15333TIP3   OH267489   1.109   0.426   0.348  0.1870 -0.9091  0.0070
15333TIP3    H167490   1.170   0.458   0.281  0.2362  0.3522  0.6231
15333TIP3    H267491   1.126   0.481   0.424 -0.7536 -1.4831  0.6534
15334TIP3   OH267492   3.412   0.347  16.493  0.0383  0.1440 -0.4994
15334TIP3    H167493   3.347   0.409  16.525 -0.1033 -1.2482  2.2714
15334TIP3    H267494   3.398   0.344  16.398 -1.4653  2.5422 -0.4451
15335TIP3   OH267495   2.333   3.054  11.001 -0.7124  0.0108  0.2495
15335TIP3    H167496   2.277   3.024  10.929 -2.3297 -1.5673  2.0189
15335TIP3    H267497   2.422   3.038  10.971 -1.3482 -0.6635 -1.3780
15336TIP3   OH267498   3.876   1.986   5.758  0.4453 -0.1104 -0.1155
15336TIP3    H167499   3.965   1.981   5.722  0.0135  0.3765 -1.2820
15336TIP3    H267500   3.889   1.985   5.853  1.5869 -2.0723 -0.2280
15337TIP3   OH267501   0.446   2.505  12.252  0.4635  0.2514 -0.4409
15337TIP3    H167502   0.374   2.568  12.251  0.1412 -0.0235  1.5977
15337TIP3    H267503   0.454   2.477  12.161 -2.9149 -0.7158 -0.5638
15338TIP3   OH267504   2.074   6.368  12.871 -0.3059 -0.1554 -0.0526
15338TIP3    H167505   2.002   6.424  12.898 -0.5593 -0.2398 -0.5403
15338TIP3    H267506   2.058   6.352  12.778 -1.9533 -3.5194  0.6437
15339TIP3   OH267507   0.414   2.247   4.680  0.2724  0.3180 -0.3392
15339TIP3    H167508   0.423   2.336   4.713 -0.0599  0.3794 -0.4086
15339TIP3    H267509   0.319   2.235   4.669  0.2862 -0.1652  0.0195
15340TIP3   OH267510   4.292   3.443   3.470  0.9489 -0.6814 -0.3510
15340TIP3    H167511   4.275   3.491   3.551  0.3151 -3.5648  1.3605
15340TIP3    H267512   4.339   3.505   3.414 -2.6704  3.0212  0.2776
15341TIP3   OH267513   4.966   1.028   0.120  0.3725 -0.0937 -0.4216
15341TIP3    H167514   4.877   1.033   0.084 -0.1200 -0.9285  0.6184
15341TIP3    H267515   4.978   1.110   0.167 -0.1757 -0.3177  0.1262
15342TIP3   OH267516   4.297   5.944  11.691 -0.1906 -0.1023 -0.3092
15342TIP3    H167517   4.368   5.941  11.626  0.6142 -1.3585  0.5709
15342TIP3    H267518   4.341   5.925  11.774 -1.6467 -1.5127  0.1872
15343TIP3   OH267519   2.255   5.193  11.964 -0.2076  0.2622  0.1877
15343TIP3    H167520   2.250   5.201  12.059 -0.9479  2.2227  0.0479
15343TIP3    H267521   2.338   5.234  11.941 -0.4981  0.7162 -0.0683
15344TIP3   OH267522   5.039   2.891   1.033 -0.0179  0.2146  0.0038
15344TIP3    H167523   4.965   2.878   1.093  0.0951  0.8872  0.2938
15344TIP3    H267524   4.999   2.925   0.953 -0.0897 -0.0223 -0.0629
15345TIP3   OH267525   1.166   6.470  10.802 -0.2751 -0.3262  0.1022
15345TIP3    H167526   1.185   6.553  10.760  1.2633 -0.5880  0.1998
15345TIP3    H267527   1.218   6.406  10.752  0.3077 -0.8746  1.3701
15346TIP3   OH267528   4.839   6.755  13.992  0.0960 -0.2582  0.8095
15346TIP3    H167529   4.778   6.721  14.058  0.7774 -1.3422  0.9005
15346TIP3    H267530   4.782   6.793  13.925 -0.6012  2.1032  2.6075
15347TIP3   OH267531   3.300   4.655   4.025 -0.0941  0.1772 -0.3454
15347TIP3    H167532   3.368   4.719   4.044  0.2819  0.0769 -1.2881
15347TIP3    H267533   3.291   4.605   4.106  0.6723  0.4406 -0.0836
15348TIP3   OH267534   3.447   0.081   4.779 -0.1419  0.4168  0.3925
15348TIP3    H167535   3.417   0.136   4.851 -0.7348 -3.2560  3.2135
15348TIP3    H267536   3.530   0.045   4.808 -0.3648 -1.1501 -0.7737
15349TIP3   OH267537   6.063   1.181  17.026  0.3403 -0.1465  0.4627
15349TIP3    H167538   6.027   1.107  17.075 -0.5806 -0.0708 -0.0741
15349TIP3    H267539   6.148   1.151  16.996  0.6794 -0.3946  1.6231
15350TIP3   OH267540   2.891   4.753  10.220 -0.0732  0.3845 -0.1219
15350TIP3    H167541   2.928   4.697  10.152 -2.9335 -0.0589 -1.4495
15350TIP3    H267542   2.944   4.735  10.298  2.0938 -0.5275 -1.7175
15351TIP3   OH267543   0.058   2.816   4.165 -0.1469  0.3419  0.2204
15351TIP3    H167544   0.106   2.801   4.247 -1.3892 -1.9581  0.6022
15351TIP3    H267545  -0.028   2.777   4.180 -0.7407  0.7375 -1.8668
15352TIP3   OH267546   6.700   2.518  17.172 -0.7256 -0.4738 -0.4715
15352TIP3    H167547   6.725   2.593  17.118 -0.1146 -1.2439 -1.2869
15352TIP3    H267548   6.783   2.478  17.198 -1.0409 -0.7437  0.1460
15353TIP3   OH267549   1.818   3.023   0.074 -0.0360 -0.2922 -0.3863
15353TIP3    H167550   1.730   3.060   0.081 -0.1822 -0.1998 -2.1997
15353TIP3    H267551   1.855   3.065  -0.004  1.8116  0.0324  0.6179
15354TIP3   OH267552   3.275   2.344   0.833 -0.4419 -0.4192 -0.6703
15354TIP3    H167553   3.276   2.254   0.866 -0.7252  0.0911  0.7924
15354TIP3    H267554   3.344   2.346   0.766 -0.1753 -1.6114 -0.4502
15355TIP3   OH267555   4.543   4.394   3.602  0.4650 -0.9682 -0.1166
15355TIP3    H167556   4.470   4.364   3.655  0.8737 -2.5723 -0.3968
15355TIP3    H267557   4.557   4.485   3.628 -0.6596 -1.1005  1.0103
15356TIP3   OH267558   3.508   4.942  13.128  0.5681 -0.3238  0.0953
15356TIP3    H167559   3.532   5.017  13.074  1.8481 -1.5976 -1.1946
15356TIP3    H267560   3.415   4.954  13.147  1.0866  2.4926  1.4773
15357TIP3   OH267561   5.152   4.765  17.163 -0.0407 -0.9036 -0.0850
15357TIP3    H167562   5.215   4.783  17.233 -0.7978 -2.6151  1.1080
15357TIP3    H267563   5.136   4.671  17.169 -2.4088 -0.6005 -0.5780
15358TIP3   OH267564   4.858   1.305   0.865  0.7358  0.4854 -0.0825
15358TIP3    H167565   4.906   1.223   0.869 -1.7133 -1.1517 -1.5800
15358TIP3    H267566   4.845   1.330   0.956  1.8924 -0.5396  0.3893
15359TIP3   OH267567   3.963   2.702  16.928 -0.1480 -0.2001 -0.4072
15359TIP3    H167568   3.883   2.678  16.976  0.8969 -0.7599  1.1516
15359TIP3    H267569   3.932   2.757  16.856 -1.9064 -0.1372  0.3279
15360TIP3   OH267570   3.482   5.368   0.237  0.2894 -0.3862  0.4921
15360TIP3    H167571   3.392   5.368   0.204  0.1369 -0.3079  0.9122
15360TIP3    H267572   3.488   5.289   0.289  0.7527 -0.8969 -0.3119
15361TIP3   OH267573   6.377   5.160   3.539  0.2264 -0.2666 -0.7572
15361TIP3    H167574   6.437   5.180   3.467  0.8677 -0.7572 -0.3694
15361TIP3    H267575   6.433   5.120   3.606 -0.4955 -0.5015 -0.2900
15362TIP3   OH267576   1.332   5.494  14.962  0.3843  0.4116  0.1656
15362TIP3    H167577   1.259   5.508  14.902  0.7222 -1.1472 -0.6548
15362TIP3    H267578   1.336   5.399  14.974  2.9727  0.3126 -0.7447
15363TIP3   OH267579   2.366   5.218   3.150  0.3051 -0.4573  0.5155
15363TIP3    H167580   2.322   5.260   3.224  2.3276  2.0996  0.4366
15363TIP3    H267581   2.437   5.168   3.190  0.6238 -0.1008  0.4097
15364TIP3   OH267582   3.437   3.006  15.771  0.4082  1.1364  0.0637
15364TIP3    H167583   3.524   3.000  15.732  0.6734 -0.0304  0.8032
15364TIP3    H267584   3.379   2.965  15.707  0.7527 -0.2127  0.5973
15365TIP3   OH267585   4.196   0.398   2.595 -0.0793  0.2647 -0.6785
15365TIP3    H167586   4.212   0.410   2.689 -1.3344 -0.1536 -0.3877
15365TIP3    H267587   4.261   0.453   2.553  0.4100  0.5877  0.4485
15366TIP3   OH267588   0.289   1.518   1.136  0.2607 -0.1563 -0.5953
15366TIP3    H167589   0.236   1.591   1.103 -1.4520 -0.5388  1.1212
15366TIP3    H267590   0.327   1.551   1.218 -1.2765 -1.4064  0.6858
15367TIP3   OH267591   3.762   6.813  11.626  0.0622 -0.4513  0.1393
15367TIP3    H167592   3.713   6.755  11.685 -0.0628  1.2865  1.8495
15367TIP3    H267593   3.843   6.831  11.674  1.4720 -1.5282 -1.6849
15368TIP3   OH267594   1.378   4.050   3.203  0.5573  0.2523 -0.3665
15368TIP3    H167595   1.446   3.988   3.177  2.2808  0.6617  2.6861
15368TIP3    H267596   1.417   4.136   3.187 -0.3653  0.5542 -1.1032
15369TIP3   OH267597   4.956   2.999   3.995 -0.4574  0.0476  0.1805
15369TIP3    H167598   4.978   2.909   3.973 -2.1637 -0.8524  1.8683
15369TIP3    H267599   4.924   3.037   3.912 -0.7909 -1.2494 -0.3048
15370TIP3   OH267600   0.489   2.975  13.115  0.3053 -0.6146  0.4758
15370TIP3    H167601   0.515   2.886  13.139 -0.1075 -0.6322  0.8809
15370TIP3    H267602   0.524   3.030  13.185  2.3109 -0.1908 -0.8012
15371TIP3   OH267603   0.593   2.428   3.773  0.2792 -0.3545 -0.2160
15371TIP3    H167604   0.622   2.503   3.825 -0.6760 -0.1069 -0.0224
15371TIP3    H267605   0.641   2.354   3.810 -1.4659 -0.4444  2.0879
15372TIP3   OH267606   6.448   3.936   3.306 -0.4901 -0.0307 -0.6031
15372TIP3    H167607   6.392   3.889   3.244  1.2910 -1.5955 -1.1205
15372TIP3    H267608   6.483   4.009   3.256 -1.1635  0.2786 -0.6244
15373TIP3   OH267609   5.078   4.955   1.274 -0.0656  0.7560 -0.8773
15373TIP3    H167610   5.064   4.903   1.195 -1.7415  0.4409 -0.3968
15373TIP3    H267611   5.074   4.892   1.346 -0.7389  1.3448 -0.3843
15374TIP3   OH267612   4.153   3.218  12.614 -0.0094  0.1327 -0.3899
15374TIP3    H167613   4.109   3.299  12.591 -0.0288  0.2874  0.1730
15374TIP3    H267614   4.112   3.191  12.697  1.6219  0.8150  0.6892
15375TIP3   OH267615   5.983   5.345   1.829 -0.5286 -0.5331  0.5781
15375TIP3    H167616   5.973   5.286   1.904 -0.0953  2.0078  2.8186
15375TIP3    H267617   5.894   5.359   1.796 -0.9083 -0.6116  1.5443
15376TIP3   OH267618   3.285   1.079  13.555 -0.4423 -0.5285  0.1892
15376TIP3    H167619   3.229   1.059  13.630  2.6803 -2.7106  2.1638
15376TIP3    H267620   3.264   1.010  13.491 -1.9456  0.3686 -0.3304
15377TIP3   OH267621   6.673   0.742   4.643 -0.3952 -0.5351  0.2015
15377TIP3    H167622   6.580   0.732   4.664 -0.5724  2.1830  1.1660
15377TIP3    H267623   6.715   0.758   4.727  0.4838  0.9436 -0.4761
15378TIP3   OH267624   3.828   3.106   0.461 -0.0924 -0.1579  0.2133
15378TIP3    H167625   3.921   3.109   0.439  0.0446 -1.1036  0.6166
15378TIP3    H267626   3.806   3.013   0.457 -0.2529 -0.3234  3.1937
15379TIP3   OH267627   0.647   2.651  16.292 -0.3623 -0.3590 -0.2796
15379TIP3    H167628   0.680   2.672  16.205 -2.9091  1.9778 -0.8064
15379TIP3    H267629   0.711   2.690  16.352  0.8154 -1.0040 -1.0758
15380TIP3   OH267630   3.417   4.778   0.758  0.1344  0.1457  0.5987
15380TIP3    H167631   3.471   4.856   0.747  0.1177 -0.0970 -1.6554
15380TIP3    H267632   3.339   4.809   0.804  1.4172  0.8050  2.4566
15381TIP3   OH267633   2.189   5.358   0.190 -0.5352 -0.2924  0.1050
15381TIP3    H167634   2.127   5.422   0.156  0.4102  0.0159 -1.1113
15381TIP3    H267635   2.136   5.298   0.242 -1.5835  0.9129  0.4627
15382TIP3   OH267636   4.576   6.182  13.588  0.4075 -0.9371 -0.5046
15382TIP3    H167637   4.498   6.134  13.562 -0.5061 -0.0994  0.5833
15382TIP3    H267638   4.644   6.152  13.528  0.0947 -4.1145  0.5170
15383TIP3   OH267639   2.403   1.374  13.080 -0.5747 -0.2345 -0.2391
15383TIP3    H167640   2.403   1.414  13.168  0.2734  0.8335 -0.7008
15383TIP3    H267641   2.386   1.448  13.021 -2.0167 -1.0833 -0.9421
15384TIP3   OH267642   2.028   6.247  13.319  0.5354  0.2495 -0.6096
15384TIP3    H167643   2.034   6.337  13.288  0.5668  0.5707  0.3046
15384TIP3    H267644   2.119   6.220  13.331  0.5092  0.8337  1.1528
15385TIP3   OH267645   3.552   5.211  15.557 -0.2773  0.3064 -0.1067
15385TIP3    H167646   3.579   5.144  15.619  0.9033  1.3791  0.5864
15385TIP3    H267647   3.634   5.240  15.516 -0.6349  1.8815  0.2195
15386TIP3   OH267648   6.453   0.013   0.067 -0.2997 -0.4757 -1.1475
15386TIP3    H167649   6.517  -0.048   0.103  1.0049  1.2044 -0.4867
15386TIP3    H267650   6.502   0.095   0.054 -1.7777  0.2257 -2.7476
15387TIP3   OH267651   5.168   2.086   2.885  0.0506 -0.0990  0.3874
15387TIP3    H167652   5.232   2.028   2.926  1.3148 -0.1055 -1.4835
15387TIP3    H267653   5.087   2.034   2.883  0.3460 -0.6300  1.4773
15388TIP3   OH267654   3.924   6.755  14.091 -0.0147  0.1389  0.2056
15388TIP3    H167655   3.983   6.681  14.075 -0.2850 -0.0783  0.2127
15388TIP3    H267656   3.913   6.796  14.005  1.1917  0.9712  0.4261
15389TIP3   OH267657   2.987   6.462  15.971  0.5970 -0.2154  0.4170
15389TIP3    H167658   2.963   6.474  16.063 -0.6639  0.2463  0.0523
15389TIP3    H267659   3.000   6.368  15.960 -1.4672 -0.5512  0.5743
15390TIP3   OH267660   6.512   2.396   5.948  0.0621  0.4746  0.0401
15390TIP3    H167661   6.482   2.327   5.889  0.4550  0.4899 -0.1852
15390TIP3    H267662   6.524   2.353   6.032 -1.4455  0.6521  0.3805
15391TIP3   OH267663   2.278   4.965   1.270  0.1875  0.1006 -0.0467
15391TIP3    H167664   2.334   5.041   1.256 -2.0062  1.5152 -1.8372
15391TIP3    H267665   2.302   4.903   1.202 -1.0079  1.1351 -1.4782
15392TIP3   OH267666   4.421   4.412  13.886 -0.7213  0.2617 -0.6995
15392TIP3    H167667   4.457   4.397  13.798 -1.0880  0.2466 -0.8486
15392TIP3    H267668   4.490   4.461  13.931 -0.8177  0.9098 -1.2294
15393TIP3   OH267669   1.884   3.770   3.585  0.0118 -0.2902 -0.3369
15393TIP3    H167670   1.915   3.687   3.547  3.0452 -0.0248  1.2165
15393TIP3    H267671   1.840   3.815   3.513  1.8869 -1.5380 -2.3973
15394TIP3   OH267672   1.756   3.469  14.869 -0.1825  0.2788  0.1498
15394TIP3    H167673   1.745   3.431  14.956 -0.0729  1.9615  0.9480
15394TIP3    H267674   1.810   3.547  14.883 -1.1224  1.2337 -1.2439
15395TIP3   OH267675   5.085   5.881   3.383 -0.4856  0.1069  0.0740
15395TIP3    H167676   5.106   5.845   3.297  0.3308 -2.1558  1.1497
15395TIP3    H267677   5.115   5.972   3.379 -0.0427 -0.0948 -1.8799
15396TIP3   OH267678   2.765   4.995  15.684  0.4036  0.1645  0.3741
15396TIP3    H167679   2.711   5.066  15.650 -0.4820  0.1862  1.7324
15396TIP3    H267680   2.738   4.918  15.635  0.5644  0.5440 -0.3198
15397TIP3   OH267681   4.571   2.254  11.516 -0.6150 -0.0196  0.2289
15397TIP3    H167682   4.492   2.242  11.463  0.3372 -0.5570 -1.0967
15397TIP3    H267683   4.634   2.191  11.481  0.5294  0.6486  1.0229
15398TIP3   OH267684   0.366   3.896  10.281 -0.1892 -0.5790  0.1225
15398TIP3    H167685   0.376   3.842  10.360 -0.1515  1.8890  1.9257
15398TIP3    H267686   0.454   3.928  10.262 -0.1702 -1.2862 -1.0826
15399TIP3   OH267687   2.557   1.775  15.766  0.7247 -0.9160 -0.2557
15399TIP3    H167688   2.523   1.686  15.778 -3.7148  0.4606 -0.8485
15399TIP3    H267689   2.548   1.791  15.672  2.5051 -0.1180 -0.3276
15400TIP3   OH267690   5.828   5.536   3.507  0.0940 -0.4741  0.2399
15400TIP3    H167691   5.861   5.586   3.433  0.2464 -1.3437 -0.2908
15400TIP3    H267692   5.749   5.494   3.475 -1.6818  1.6922  1.5478
15401TIP3   OH267693   3.399   4.890   6.605  0.4464 -0.0687  0.1070
15401TIP3    H167694   3.376   4.798   6.621 -0.7314  0.0479 -0.8014
15401TIP3    H267695   3.315   4.936   6.603  0.8690  0.6915 -1.4716
15402TIP3   OH267696   0.512   5.999   3.405  0.2673  0.6281 -0.9567
15402TIP3    H167697   0.435   5.944   3.418 -0.2259  0.9296 -2.3852
15402TIP3    H267698   0.553   6.005   3.491 -1.3800  0.5499 -0.1357
15403TIP3   OH267699   3.492   1.944   0.068  0.6861 -0.1700 -0.0538
15403TIP3    H167700   3.440   1.925  -0.010  0.4240 -0.8945  0.2841
15403TIP3    H267701   3.529   1.859   0.093  1.7164  0.2647 -0.0589
15404TIP3   OH267702   3.976   3.402  13.202 -0.6685 -0.4160 -0.2115
15404TIP3    H167703   3.953   3.435  13.115 -0.4469  0.2992 -0.0074
15404TIP3    H267704   4.004   3.480  13.250  0.5096 -1.0001  0.0850
15405TIP3   OH267705   4.108   1.141   3.326 -0.3669 -0.0227  0.0875
15405TIP3    H167706   4.015   1.131   3.347 -0.1716 -1.6465  0.3016
15405TIP3    H267707   4.154   1.125   3.409  0.0836  2.4296  0.3851
15406TIP3   OH267708   4.372   2.421   5.703  0.0439 -0.2100  0.0434
15406TIP3    H167709   4.298   2.369   5.674 -0.2157  0.7389 -1.0727
15406TIP3    H267710   4.378   2.492   5.639  1.8503 -0.2090  0.1675
15407TIP3   OH267711   6.207   0.157  11.554 -0.1982 -0.5037  0.2928
15407TIP3    H167712   6.235   0.243  11.522 -1.2444 -0.0854  0.4860
15407TIP3    H267713   6.250   0.148  11.639  1.5511 -1.0683 -0.5874
15408TIP3   OH267714   1.603   3.563   1.452  0.1877  0.3150  0.3273
15408TIP3    H167715   1.623   3.626   1.521  2.3364  0.8307 -0.6693
15408TIP3    H267716   1.621   3.477   1.491  0.9457  0.5742  0.5579
15409TIP3   OH267717   2.535   1.629   4.049 -0.8354  0.4154  0.0388
15409TIP3    H167718   2.539   1.670   4.135  1.4779  0.3337  0.0435
15409TIP3    H267719   2.521   1.702   3.988  0.6542  0.9352  0.2691
15410TIP3   OH267720   6.006   5.686  12.396 -0.1030  0.0159 -0.3876
15410TIP3    H167721   6.010   5.754  12.330  0.6950  0.3653  0.0111
15410TIP3    H267722   6.091   5.642  12.391  0.4783  0.8814  1.2715
15411TIP3   OH267723   4.226   0.605  17.173 -0.5284 -0.2096 -0.0231
15411TIP3    H167724   4.225   0.640  17.084  0.0490 -0.8909 -0.3080
15411TIP3    H267725   4.136   0.618  17.204 -0.5981  0.5298 -0.4993
15412TIP3   OH267726   0.668   0.516   1.845 -0.7749 -0.0282 -0.3068
15412TIP3    H167727   0.675   0.429   1.805  2.4700  0.7302 -1.7172
15412TIP3    H267728   0.681   0.500   1.939  1.1398 -1.0182 -0.6784
15413TIP3   OH267729   0.568   5.228  13.313 -0.4717 -0.2835  0.4276
15413TIP3    H167730   0.490   5.281  13.331 -0.9313 -0.7815 -0.0759
15413TIP3    H267731   0.546   5.140  13.343  0.8757  0.0927  2.7942
15414TIP3   OH267732   1.173   5.739   2.751  0.3474  0.4499  0.3176
15414TIP3    H167733   1.218   5.661   2.717 -2.1012 -0.9553  0.0633
15414TIP3    H267734   1.082   5.727   2.724 -0.6854  1.9230  2.8822
15415TIP3   OH267735   3.165   2.745   4.598  0.1235 -0.3791 -0.0314
15415TIP3    H167736   3.202   2.701   4.674 -1.3737 -1.4281  0.1470
15415TIP3    H267737   3.206   2.702   4.523 -0.8830 -1.7370  0.1571
15416TIP3   OH267738   4.906   6.587  14.981 -0.0186  0.1929  0.5357
15416TIP3    H167739   4.816   6.557  14.988 -0.0991 -0.3758 -1.9000
15416TIP3    H267740   4.901   6.666  14.927  0.8989  0.4285  0.7730
15417TIP3   OH267741   6.754   5.894  12.598  0.3513 -0.2862  0.0442
15417TIP3    H167742   6.818   5.949  12.644 -0.7713  0.3096  0.9345
15417TIP3    H267743   6.807   5.843  12.536  1.6771  0.2283  0.7098
15418TIP3   OH267744   1.497   5.881   5.250 -0.0184 -0.2631 -0.1992
15418TIP3    H167745   1.554   5.804   5.254  1.4503  0.8355  2.9574
15418TIP3    H267746   1.441   5.873   5.326 -0.9880  0.9947 -0.7479
15419TIP3   OH267747   2.558   5.219  11.691 -0.2320 -0.2275 -0.0755
15419TIP3    H167748   2.511   5.246  11.612 -0.0184  1.0319  0.2058
15419TIP3    H267749   2.571   5.125  11.680  0.0759 -0.0312 -1.7097
15420TIP3   OH267750   0.736   6.528  13.458 -0.2901  0.9205  0.1002
15420TIP3    H167751   0.801   6.457  13.460 -2.2042 -0.9468  0.0986
15420TIP3    H267752   0.732   6.553  13.365  0.5417  1.2072  0.1292
15421TIP3   OH267753   5.738   1.940  13.306 -0.0565  0.2855  0.4684
15421TIP3    H167754   5.750   1.859  13.356  1.3395 -0.8391 -1.5010
15421TIP3    H267755   5.648   1.966  13.324 -1.7111 -3.4837 -1.1793
15422TIP3   OH267756   3.467   2.947  10.447 -0.0726  0.3704  0.5041
15422TIP3    H167757   3.427   2.870  10.406 -0.2431  1.3967 -1.3465
15422TIP3    H267758   3.561   2.932  10.438 -0.1104  0.6429 -0.4010
15423TIP3   OH267759   0.720   3.536   4.760 -0.3515  0.7502  0.4541
15423TIP3    H167760   0.664   3.556   4.685 -0.4469 -2.6031 -0.5238
15423TIP3    H267761   0.808   3.559   4.730 -0.4748  0.0955 -0.4643
15424TIP3   OH267762   0.461   4.450   1.789 -0.4216 -0.0210  0.1235
15424TIP3    H167763   0.427   4.533   1.824 -0.5492  0.0878 -0.2502
15424TIP3    H267764   0.553   4.468   1.770 -0.3989 -0.0229  0.2355
15425TIP3   OH267765   0.798   1.438  14.532 -0.4300 -0.0319 -0.6390
15425TIP3    H167766   0.874   1.476  14.575 -0.5008  0.1112 -0.6396
15425TIP3    H267767   0.767   1.507  14.473  1.4588 -1.2119 -3.2177
15426TIP3   OH267768   4.887   3.587  16.106 -0.3029 -0.4845 -0.0971
15426TIP3    H167769   4.928   3.668  16.136  2.8134 -2.1272  0.4778
15426TIP3    H267770   4.865   3.540  16.187  0.7747 -1.4895 -0.3632
15427TIP3   OH267771   1.677   5.529  15.506 -0.0576  0.7848  0.2073
15427TIP3    H167772   1.654   5.448  15.461  2.2091 -0.8147  1.7318
15427TIP3    H267773   1.604   5.545  15.566 -1.2011  0.7481 -1.1006
15428TIP3   OH267774   0.592   0.886  16.787 -0.5976 -0.3089 -0.3433
15428TIP3    H167775   0.687   0.896  16.796 -0.9550  1.5261  2.7747
15428TIP3    H267776   0.569   0.941  16.713  0.6609 -0.0888 -0.5910
15429TIP3   OH267777   5.563   2.638  11.157  0.0260 -0.2406  0.2895
15429TIP3    H167778   5.612   2.681  11.087 -0.6802  0.1480  0.0275
15429TIP3    H267779   5.608   2.555  11.170  0.2941 -0.2200 -0.4739
15430TIP3   OH267780   5.928   6.540  13.905 -0.6685 -0.4286 -0.1419
15430TIP3    H167781   5.925   6.602  13.977 -0.0011 -1.2529  0.6229
15430TIP3    H267782   5.857   6.567  13.847 -1.8887 -0.3564  1.3343
15431TIP3   OH267783   5.369   3.046   3.314  0.2541 -0.0875  0.4857
15431TIP3    H167784   5.407   3.025   3.228  0.3257  1.5421  0.0962
15431TIP3    H267785   5.438   3.094   3.360 -0.2214  0.1259  0.9859
15432TIP3   OH267786   2.663   4.115   5.524 -0.0582 -0.1831 -0.3400
15432TIP3    H167787   2.697   4.135   5.437  0.4192 -1.0456 -0.3605
15432TIP3    H267788   2.721   4.047   5.557  1.6100  2.1149  1.8500
15433TIP3   OH267789   0.909   6.245  15.050 -0.0711  0.1633 -0.8150
15433TIP3    H167790   0.956   6.162  15.052  1.3864  0.8434  3.4179
15433TIP3    H267791   0.828   6.227  15.099  0.3478  1.1901  0.3032
15434TIP3   OH267792   0.846   0.535  16.231 -0.2466 -0.2850  0.4751
15434TIP3    H167793   0.891   0.555  16.149 -1.7765 -1.9994 -0.8559
15434TIP3    H267794   0.784   0.607  16.242  1.8692  1.5027  1.7489
15435TIP3   OH267795   6.133   0.113  12.751 -0.3858 -0.9084  0.3640
15435TIP3    H167796   6.093   0.120  12.665  1.8818 -0.7189 -0.7348
15435TIP3    H267797   6.066   0.071  12.805 -2.3605  0.2133 -1.1101
15436TIP3   OH267798   3.553   4.199   4.883 -0.0189  0.0616 -0.1295
15436TIP3    H167799   3.579   4.288   4.906 -0.5228  0.3881 -0.7887
15436TIP3    H267800   3.493   4.173   4.953  2.0739 -0.7446  1.4731
15437TIP3   OH267801   1.630   5.232   0.872  0.3613  0.8394  0.5646
15437TIP3    H167802   1.582   5.313   0.856  1.7857  1.8693  1.2738
15437TIP3    H267803   1.635   5.226   0.968  0.1097 -0.1904  0.5178
15438TIP3   OH267804   1.271   0.984   2.161  0.9191  0.7852 -0.1330
15438TIP3    H167805   1.212   0.914   2.131  0.2837  0.6126  1.4090
15438TIP3    H267806   1.358   0.957   2.131  0.6154 -0.4519  0.0472
15439TIP3   OH267807   1.567   4.927  13.331  0.4403 -0.4099 -0.0685
15439TIP3    H167808   1.475   4.915  13.308  0.3206  0.4878 -0.0989
15439TIP3    H267809   1.598   4.995  13.271  0.1657  1.8933  2.2025
15440TIP3   OH267810   5.897   5.590   0.456 -0.5443 -0.1789 -0.1349
15440TIP3    H167811   5.894   5.671   0.507  2.5840 -0.9996  1.6138
15440TIP3    H267812   5.857   5.525   0.513  1.1863 -0.7197  0.5078
15441TIP3   OH267813   2.254   3.789   3.071 -0.2913 -0.3473  0.6437
15441TIP3    H167814   2.254   3.744   2.986 -0.4794  0.2456  0.3263
15441TIP3    H267815   2.225   3.878   3.051  2.0680  0.5440  0.9390
15442TIP3   OH267816   5.691   4.711   1.485  0.4969 -0.3258 -0.2750
15442TIP3    H167817   5.701   4.675   1.397  0.6258 -1.1603  0.0688
15442TIP3    H267818   5.774   4.755   1.502  0.2531  0.3458 -0.7915
15443TIP3   OH267819   3.099   3.426   4.531  0.7362 -0.4138 -0.1962
15443TIP3    H167820   3.057   3.413   4.446  0.1889 -0.4943  0.0872
15443TIP3    H267821   3.074   3.350   4.583  1.3010 -0.5041 -0.0516
15444TIP3   OH267822   3.719   5.774   3.914  0.3294  0.2433 -0.6972
15444TIP3    H167823   3.653   5.709   3.891 -0.1297  0.7819 -0.9500
15444TIP3    H267824   3.697   5.800   4.003  1.2831 -0.8579 -0.1253
15445TIP3   OH267825   3.051   0.255   0.136 -0.1947 -0.1493 -0.1206
15445TIP3    H167826   3.070   0.177   0.085 -1.8028 -0.4431 -0.3418
15445TIP3    H267827   3.056   0.226   0.227 -1.4243 -0.7295 -0.2047
15446TIP3   OH267828   5.310   1.821   2.966 -0.1954 -0.7073 -0.3059
15446TIP3    H167829   5.228   1.774   2.946 -0.2052 -1.7680  2.0061
15446TIP3    H267830   5.354   1.767   3.031  2.0451  0.2200 -0.9706
15447TIP3   OH267831   1.154   3.909   0.179 -0.0022  0.0341  0.3497
15447TIP3    H167832   1.070   3.866   0.159 -1.3352  1.5967  2.1949
15447TIP3    H267833   1.189   3.934   0.093 -1.2685 -0.9130 -0.4810
15448TIP3   OH267834   6.759   3.166  14.578 -0.8251  0.0077 -0.1299
15448TIP3    H167835   6.678   3.184  14.530 -0.3996  3.6995  0.2394
15448TIP3    H267836   6.767   3.240  14.639  2.2761 -0.7894  0.5917
15449TIP3   OH267837   3.413   2.937  12.016  0.1412  0.0943 -0.2257
15449TIP3    H167838   3.360   2.891  11.952 -0.5737  1.3491 -0.5561
15449TIP3    H267839   3.355   2.951  12.091  0.5510 -0.1045  0.1402
15450TIP3   OH267840   4.956   3.218  16.656  0.7015 -0.3354 -0.0562
15450TIP3    H167841   5.017   3.227  16.582 -0.1860 -3.2958 -1.2955
15450TIP3    H267842   4.886   3.280  16.638  1.8963  1.0199 -0.1488
15451TIP3   OH267843   2.920   6.663   4.315 -0.1384 -0.1737  0.0454
15451TIP3    H167844   2.877   6.735   4.268  0.6152 -0.0168 -0.4353
15451TIP3    H267845   2.957   6.705   4.393  0.5089  0.0216 -0.3573
15452TIP3   OH267846   4.269   1.917  13.928 -0.0604  1.3384  0.5015
15452TIP3    H167847   4.337   1.977  13.960  0.3800  2.0161 -1.5226
15452TIP3    H267848   4.262   1.938  13.835 -0.7931 -0.9192  0.0031
15453TIP3   OH267849   3.897   4.227   1.689 -0.6390  0.1222 -0.1222
15453TIP3    H167850   3.857   4.255   1.772  0.9244  2.9263 -0.2139
15453TIP3    H267851   3.827   4.237   1.625 -0.5882  2.6592  0.1175
15454TIP3   OH267852   4.680   6.776  13.781  0.2737  0.7564 -0.5704
15454TIP3    H167853   4.751   6.723  13.744 -1.4205 -1.1201 -1.3558
15454TIP3    H267854   4.639   6.818  13.705  0.1679  1.3148 -0.2084
15455TIP3   OH267855   3.543   4.846   0.359 -0.5943  0.0809  0.3426
15455TIP3    H167856   3.542   4.845   0.263  0.4812 -1.2650  0.3198
15455TIP3    H267857   3.553   4.755   0.384 -3.0620  0.1329  1.8211
15456TIP3   OH267858   1.633   1.497   0.754 -0.1197  0.8420  0.3821
15456TIP3    H167859   1.588   1.480   0.836  1.8019 -1.7010  1.0180
15456TIP3    H267860   1.711   1.547   0.779  1.5361 -1.6557  0.4978
15457TIP3   OH267861   1.159   5.471  14.290  0.6263 -0.2477 -0.0152
15457TIP3    H167862   1.161   5.511  14.377  0.1831 -1.1348  0.4225
15457TIP3    H267863   1.127   5.540  14.232  0.7005  0.2830  0.5725
15458TIP3   OH267864   6.825   3.551  16.219  0.9778  0.0980 -0.0164
15458TIP3    H167865   6.729   3.540  16.219  1.0277 -0.4795 -1.1824
15458TIP3    H267866   6.849   3.550  16.311 -0.0097 -1.1243  0.2638
15459TIP3   OH267867   5.690   4.888  15.263  0.1525  0.0368  0.3128
15459TIP3    H167868   5.619   4.905  15.325  0.1777  1.9837 -0.1349
15459TIP3    H267869   5.763   4.860  15.318  0.5017  2.7186  1.3917
15460TIP3   OH267870   2.184   5.856   5.847 -0.3751 -0.0184  0.2179
15460TIP3    H167871   2.098   5.886   5.876  0.1622  1.3777  0.4788
15460TIP3    H267872   2.203   5.909   5.769 -0.0017 -0.7238 -0.1781
15461TIP3   OH267873   3.388   0.412  14.627 -0.6336 -0.2348 -0.0430
15461TIP3    H167874   3.404   0.500  14.592 -0.9715 -0.4990 -0.8731
15461TIP3    H267875   3.339   0.428  14.708 -1.0603  0.3321 -0.4035
15462TIP3   OH267876   6.018   1.983   1.175  0.5175 -0.0715  0.2007
15462TIP3    H167877   5.922   1.987   1.176  0.4942 -0.3754 -0.2938
15462TIP3    H267878   6.045   2.055   1.231 -0.0065 -0.2494  0.6957
15463TIP3   OH267879   0.140   3.385  13.786 -0.1030 -0.1375  0.1441
15463TIP3    H167880   0.118   3.415  13.698  0.3111  0.6432  0.2963
15463TIP3    H267881   0.155   3.465  13.836  0.7764 -0.5881  0.6344
15464TIP3   OH267882   0.074   4.411   3.553  0.1951 -0.4066 -0.2411
15464TIP3    H167883   0.126   4.453   3.621  2.2003 -0.8721 -1.4208
15464TIP3    H267884   0.018   4.350   3.601 -0.3633  1.1407  1.1866
15465TIP3   OH267885   5.744   2.889   1.371  0.1309 -0.5226 -0.1295
15465TIP3    H167886   5.763   2.826   1.440  0.1540  0.1952  0.5376
15465TIP3    H267887   5.802   2.963   1.389  0.9107 -0.7453 -1.5424
15466TIP3   OH267888   4.631   1.396   3.085 -0.2127 -0.5874 -0.6157
15466TIP3    H167889   4.584   1.319   3.053 -0.3233 -0.4027 -0.9052
15466TIP3    H267890   4.676   1.430   3.008  0.8633 -1.0890 -0.2233
15467TIP3   OH267891   1.011   1.650  17.141 -0.2944  0.1523 -0.4103
15467TIP3    H167892   1.073   1.614  17.205 -0.3518  1.5392  0.4602
15467TIP3    H267893   1.055   1.638  17.056  0.0023 -1.2517 -0.0928
15468TIP3   OH267894   1.483   0.962   1.821 -0.3738  0.1936 -0.8971
15468TIP3    H167895   1.410   1.023   1.816 -0.5071 -0.0215 -1.7638
15468TIP3    H267896   1.464   0.897   1.753 -0.3130 -0.8923  0.0962
15469TIP3   OH267897   2.251   2.561   5.842  0.2053  0.0842 -0.3128
15469TIP3    H167898   2.156   2.550   5.835  0.0634  1.1676 -0.2361
15469TIP3    H267899   2.270   2.638   5.789  1.0570 -0.1467 -0.3615
15470TIP3   OH267900   5.985   2.105  16.301  1.0519 -0.4036  0.1543
15470TIP3    H167901   5.994   2.156  16.381 -1.2936 -2.3441  1.7712
15470TIP3    H267902   5.915   2.149  16.253  1.6520  0.0664 -0.3141
15471TIP3   OH267903   5.956   1.838  12.637  0.6638  0.0345  0.3649
15471TIP3    H167904   5.988   1.787  12.563 -1.2725  0.6495 -0.9555
15471TIP3    H267905   5.861   1.833  12.631  0.4362  0.3252  2.6772
15472TIP3   OH267906   3.892   5.457   5.202 -0.1395 -0.0151  0.1273
15472TIP3    H167907   3.955   5.456   5.274 -0.7748  0.0731  0.6979
15472TIP3    H267908   3.895   5.369   5.165  0.7875  0.1758 -0.2823
15473TIP3   OH267909   6.824   3.728   4.059  0.6585  0.0627 -0.0497
15473TIP3    H167910   6.759   3.658   4.055  0.5236  0.0322  1.9194
15473TIP3    H267911   6.775   3.805   4.088  1.0913  0.6171 -0.7533
15474TIP3   OH267912   4.502   4.325  11.297  0.0049  0.8344 -0.3442
15474TIP3    H167913   4.418   4.295  11.263 -1.2679  1.2787  2.2097
15474TIP3    H267914   4.500   4.420  11.284 -0.4461  0.9935  0.8429
15475TIP3   OH267915   0.868   4.362   1.419  0.5268  0.5039 -0.0834
15475TIP3    H167916   0.913   4.346   1.502 -0.1135 -1.3342 -0.0509
15475TIP3    H267917   0.929   4.329   1.352 -0.1713 -0.7551 -0.1241
15476TIP3   OH267918   2.571   4.258  16.086 -0.9857  0.0832  0.3330
15476TIP3    H167919   2.623   4.260  16.006 -1.2814  1.1036  0.1463
15476TIP3    H267920   2.635   4.269  16.157 -0.5663 -2.1099  0.3612
15477TIP3   OH267921   0.491   4.652  12.084 -0.3949 -0.1028 -0.1749
15477TIP3    H167922   0.473   4.583  12.148 -0.6224  1.3604  1.4038
15477TIP3    H267923   0.483   4.608  11.999 -2.0918 -1.6646  0.7142
15478TIP3   OH267924   0.389   3.412   1.554  0.6187 -0.5231 -0.0023
15478TIP3    H167925   0.298   3.419   1.585  0.6558  0.5933 -0.0841
15478TIP3    H267926   0.390   3.332   1.502 -0.3862 -0.4252 -0.2055
15479TIP3   OH267927   3.553   2.668   0.571  0.5710 -0.1612 -0.0259
15479TIP3    H167928   3.490   2.708   0.511  1.0570  3.1464  1.4508
15479TIP3    H267929   3.615   2.622   0.514 -1.7237 -1.4440 -1.6398
15480TIP3   OH267930   2.193   5.325  14.289 -0.1714  0.0710 -0.1233
15480TIP3    H167931   2.186   5.229  14.291  1.3911 -0.0655  1.1873
15480TIP3    H267932   2.160   5.350  14.203 -0.5470 -1.6563 -0.5191
15481TIP3   OH267933   3.468   4.463   3.535 -0.9134  0.1010 -0.4658
15481TIP3    H167934   3.408   4.487   3.465 -2.2410  2.6296  1.3649
15481TIP3    H267935   3.437   4.513   3.611  1.0429 -1.7161  1.6724
15482TIP3   OH267936   4.361   0.379   1.411  0.5990  0.0627 -0.0203
15482TIP3    H167937   4.391   0.468   1.393 -0.1272  0.1029 -1.1083
15482TIP3    H267938   4.367   0.370   1.507  0.6923  1.2669  0.0934
15483TIP3   OH267939   1.565   3.581   5.091  0.2979 -0.5926 -0.5828
15483TIP3    H167940   1.508   3.504   5.092  0.5907 -0.8197  1.0102
15483TIP3    H267941   1.505   3.655   5.079  0.0487 -1.0570 -2.4634
15484TIP3   OH267942   1.374   0.526  14.553  0.1145  0.2218 -0.0324
15484TIP3    H167943   1.398   0.542  14.644 -0.6351 -0.4877  0.3012
15484TIP3    H267944   1.376   0.613  14.512  1.9432  0.3632  0.2729
15485TIP3   OH267945   1.619   3.383   4.468 -0.0978 -0.0559  0.4529
15485TIP3    H167946   1.627   3.419   4.556  2.8887  0.9286 -0.0854
15485TIP3    H267947   1.702   3.337   4.454 -1.3746 -2.0724 -1.1142
15486TIP3   OH267948   4.763   6.484  13.932  0.1925 -0.2098  0.3163
15486TIP3    H167949   4.753   6.577  13.954 -2.1678 -0.2032 -0.5695
15486TIP3    H267950   4.708   6.472  13.855 -0.9927 -2.7528  1.4887
15487TIP3   OH267951   5.962   6.320   6.005  0.1180 -0.0980  0.2686
15487TIP3    H167952   5.956   6.313   5.910 -0.1697  0.5778  0.2280
15487TIP3    H267953   5.892   6.264   6.038  1.8890 -2.5132  0.1929
15488TIP3   OH267954   4.168   0.728  11.305  0.2535 -0.0117  0.1157
15488TIP3    H167955   4.122   0.665  11.361 -0.3082 -0.3900 -0.7380
15488TIP3    H267956   4.246   0.752  11.354 -0.0606 -0.5741  0.9143
15489TIP3   OH267957   1.594   1.803   2.924  0.3646  0.2031  0.3391
15489TIP3    H167958   1.685   1.831   2.920  0.0367  1.2485 -0.1569
15489TIP3    H267959   1.594   1.727   2.983  1.5303  0.2459  0.4054
15490TIP3   OH267960   0.430   2.383  11.512 -1.6003 -0.2310 -0.4251
15490TIP3    H167961   0.433   2.342  11.598  0.0150 -2.0780 -1.3001
15490TIP3    H267962   0.430   2.311  11.450 -0.4725  1.0427 -2.0104
15491TIP3   OH267963   2.142   0.178  17.212 -0.2810  0.4922  0.3832
15491TIP3    H167964   2.196   0.101  17.231  0.6656  0.9897 -0.2001
15491TIP3    H267965   2.077   0.179  17.282  0.5457 -0.0647  1.1838
15492TIP3   OH267966   0.761   4.993  14.127 -0.0133 -0.1484 -0.3937
15492TIP3    H167967   0.692   5.059  14.124  0.8602  0.9276  1.4764
15492TIP3    H267968   0.823   5.019  14.059 -0.4975 -0.0399 -0.8008
15493TIP3   OH267969   3.167   1.981   1.306 -0.1006 -0.2377 -0.1895
15493TIP3    H167970   3.246   1.997   1.255  0.3791  0.7559  0.8474
15493TIP3    H267971   3.173   1.888   1.331  0.9413 -0.0587  0.2370
15494TIP3   OH267972   0.368   6.133  11.366  0.5577  0.3989  0.5417
15494TIP3    H167973   0.351   6.078  11.290 -2.1529  0.2112  1.1494
15494TIP3    H267974   0.321   6.089  11.437  1.3816  1.5933  1.8813
15495TIP3   OH267975   0.235   4.253  13.634 -0.4536  0.4427  0.5041
15495TIP3    H167976   0.297   4.204  13.581  0.0877  0.4566  1.1116
15495TIP3    H267977   0.216   4.195  13.708  0.5370  1.3013  1.4695
15496TIP3   OH267978   3.220   2.902  12.257 -0.5097 -0.1674  0.1830
15496TIP3    H167979   3.273   2.899  12.337  0.1888 -1.3883 -0.3048
15496TIP3    H267980   3.250   2.827  12.206 -2.6423 -0.8566 -0.1507
15497TIP3   OH267981   5.629   2.391  13.948 -0.3128  0.1043  0.4526
15497TIP3    H167982   5.585   2.423  14.027  0.6302 -1.3274  1.6128
15497TIP3    H267983   5.715   2.362  13.979  1.0990  1.8545 -1.5665
15498TIP3   OH267984   3.710   4.608  11.880  0.6317 -0.4850 -0.3040
15498TIP3    H167985   3.793   4.570  11.852  1.5176  0.8497  0.3929
15498TIP3    H267986   3.646   4.577  11.816  2.1633  0.7205 -2.5651
15499TIP3   OH267987   5.349   4.704   0.820  0.3800 -0.0483  0.8084
15499TIP3    H167988   5.369   4.772   0.756  1.1881 -2.2718 -1.4658
15499TIP3    H267989   5.301   4.750   0.889 -1.5397  2.3377 -1.8725
15500TIP3   OH267990   5.605   6.600  15.062  0.4702 -0.0673  0.6315
15500TIP3    H167991   5.679   6.654  15.089  1.5734 -1.7385  1.0672
15500TIP3    H267992   5.642   6.537  15.001 -0.8356 -0.1972 -0.0691
15501TIP3   OH267993   6.770   1.379   2.192 -0.3227 -0.1738 -0.1146
15501TIP3    H167994   6.780   1.348   2.102  0.4595  0.7452 -0.3634
15501TIP3    H267995   6.855   1.361   2.232 -0.2675  0.5144  0.0823
15502TIP3   OH267996   0.160   5.416   3.996 -0.2234 -0.5393 -0.6501
15502TIP3    H167997   0.139   5.456   3.912  1.7160  0.3135 -0.7814
15502TIP3    H267998   0.081   5.367   4.020 -1.1473 -0.0372 -2.4994
15503TIP3   OH267999   5.863   4.411   1.378  0.2706  0.5966 -0.5121
15503TIP3    H168000   5.949   4.388   1.343 -0.2173 -2.6698  0.0573
15503TIP3    H268001   5.807   4.419   1.301  0.5976  0.1994 -0.7962
15504TIP3   OH268002   3.294   0.623  15.392 -0.3201  0.0259 -0.1595
15504TIP3    H168003   3.252   0.631  15.306 -1.7155  0.8508  0.5753
15504TIP3    H268004   3.375   0.575  15.374 -0.1934  0.8593 -2.0631
15505TIP3   OH268005   3.937   2.947   3.445  1.0246  0.1004  0.1747
15505TIP3    H168006   3.846   2.924   3.427  1.1515 -0.1923 -0.1194
15505TIP3    H268007   3.988   2.878   3.401  1.3548 -1.3483  2.6468
15506TIP3   OH268008   1.657   0.582   3.306  0.0823  0.0643  0.5731
15506TIP3    H168009   1.602   0.602   3.382 -1.5417 -0.6413 -0.3567
15506TIP3    H268010   1.605   0.610   3.230  0.5930 -1.4381 -0.3911
15507TIP3   OH268011   3.532   0.514  15.336 -0.0722 -0.3400 -0.4775
15507TIP3    H168012   3.589   0.564  15.278 -0.5616  0.3275 -0.4017
15507TIP3    H268013   3.546   0.423  15.311  0.0794 -0.0963 -1.3200
15508TIP3   OH268014   1.018   1.662  11.185  0.2541  0.4185  0.3978
15508TIP3    H168015   0.931   1.670  11.146  1.4750  1.9171 -2.3651
15508TIP3    H268016   1.075   1.639  11.112  2.5381  1.8984  1.5709
15509TIP3   OH268017   2.896   5.187  10.813  0.0399  0.6487  0.3143
15509TIP3    H168018   2.859   5.192  10.724  1.8482 -0.6315 -0.5718
15509TIP3    H268019   2.853   5.111  10.852  0.4898  0.1636 -0.1141
15510TIP3   OH268020   2.238   4.322  11.569  0.1763  0.2695 -0.4893
15510TIP3    H168021   2.290   4.333  11.649  1.4526 -0.1578 -1.2251
15510TIP3    H268022   2.285   4.374  11.504 -0.4288  0.0012 -1.1410
15511TIP3   OH268023   6.168   2.933  17.017 -0.5745 -0.6787 -0.5708
15511TIP3    H168024   6.206   3.007  16.970  1.5432 -3.1002 -3.0364
15511TIP3    H268025   6.076   2.934  16.993 -0.5268  0.9567 -0.7971
15512TIP3   OH268026   6.618   5.095  12.876 -0.3537 -0.2985  0.3857
15512TIP3    H168027   6.570   5.177  12.864  1.2928  0.5723 -0.6873
15512TIP3    H268028   6.675   5.089  12.799  1.4582 -1.0953  1.7190
15513TIP3   OH268029   3.500   5.910   6.307 -0.5023 -0.4045  0.1543
15513TIP3    H168030   3.470   5.850   6.376  2.3457  0.3809  2.2616
15513TIP3    H268031   3.595   5.900   6.307 -0.2983  0.2916 -3.1727
15514TIP3   OH268032   2.104   6.125   4.367 -0.0099 -0.0036 -0.8288
15514TIP3    H168033   2.025   6.080   4.395  0.5869  0.2171  1.3805
15514TIP3    H268034   2.124   6.088   4.281 -1.2849 -1.6107 -0.4711
15515TIP3   OH268035   0.389   6.400  17.181 -0.1557  0.0430 -0.5821
15515TIP3    H168036   0.407   6.490  17.153 -0.6413 -0.6044 -3.2511
15515TIP3    H268037   0.325   6.409  17.251  1.1110  1.8162  0.4286
15516TIP3   OH268038   0.114   1.222   4.503  0.3034  0.3839 -0.1720
15516TIP3    H168039   0.026   1.243   4.472 -0.0942  1.3488  1.4853
15516TIP3    H268040   0.166   1.299   4.479 -0.2497  1.6453  2.3310
15517TIP3   OH268041   1.657   3.449   1.008  0.2323 -0.1344  0.6815
15517TIP3    H168042   1.582   3.401   1.044  0.1007 -0.6275 -0.2309
15517TIP3    H268043   1.733   3.408   1.049  0.0230  0.2280  1.4478
15518TIP3   OH268044   5.404   3.704   5.189  0.3263  1.1373  0.0691
15518TIP3    H168045   5.451   3.716   5.107 -0.4261  1.9260 -0.2539
15518TIP3    H268046   5.333   3.767   5.186 -1.1849 -0.4641  0.2341
15519TIP3   OH268047   2.238   1.173  16.493  0.2803 -0.1846 -0.0563
15519TIP3    H168048   2.318   1.201  16.539  1.2653 -1.1155 -1.1397
15519TIP3    H268049   2.199   1.109  16.551 -1.2270  2.2042  1.7782
15520TIP3   OH268050   5.640   3.313  14.664  0.2042 -0.3901  0.1700
15520TIP3    H168051   5.672   3.336  14.577 -0.4228  0.3595  0.1264
15520TIP3    H268052   5.595   3.230  14.652  1.5841 -1.1550  0.1182
15521TIP3   OH268053   6.397   4.262  14.385  0.3409  0.2250  0.5527
15521TIP3    H168054   6.369   4.322  14.316  0.1320  0.8864  1.2034
15521TIP3    H268055   6.343   4.184  14.372 -0.3073  0.6776  0.4909
15522TIP3   OH268056   0.752   3.523   5.605 -0.4540  0.7349  0.2382
15522TIP3    H168057   0.710   3.497   5.523 -0.9387  0.7073  0.4949
15522TIP3    H268058   0.760   3.618   5.600 -2.5556  1.0052  1.1209
15523TIP3   OH268059   1.542   2.524  14.055  0.1744 -0.0824 -0.1899
15523TIP3    H168060   1.635   2.518  14.034  0.0453  1.0350 -1.2091
15523TIP3    H268061   1.498   2.522  13.970 -0.8251 -1.6223  0.3199
15524TIP3   OH268062   3.413   4.723  14.794 -0.0647  0.3816 -0.0508
15524TIP3    H168063   3.340   4.744  14.853  0.6952  1.1512  0.6382
15524TIP3    H268064   3.492   4.741  14.846  0.6165  0.6492 -1.1502
15525TIP3   OH268065   5.675   4.359   5.025 -0.0318 -0.5970 -0.1542
15525TIP3    H168066   5.747   4.303   5.056 -1.3551 -1.8645  0.8016
15525TIP3    H268067   5.638   4.312   4.950 -0.0954 -0.1529 -0.4029
15526TIP3   OH268068   5.720   0.367  15.370 -0.0509  0.5139  0.3968
15526TIP3    H168069   5.648   0.313  15.403 -0.8353  1.7241  0.7533
15526TIP3    H268070   5.692   0.457  15.388  1.5785  1.0183  0.5893
15527TIP3   OH268071   2.652   0.459   3.289  0.2159 -0.4058  0.3798
15527TIP3    H168072   2.570   0.420   3.260  0.7807 -0.8023 -0.7672
15527TIP3    H268073   2.678   0.408   3.365 -0.0388 -1.0041  0.0692
15528TIP3   OH268074   0.216   3.082   4.105 -0.0314  0.7778  0.4267
15528TIP3    H168075   0.251   3.162   4.065  0.6785  0.2344 -0.0661
15528TIP3    H268076   0.169   3.112   4.183  0.2254  1.6702  0.2434
15529TIP3   OH268077   3.612   3.812  15.409 -0.1930 -0.3035  0.0241
15529TIP3    H168078   3.653   3.815  15.323  0.3751  1.3078  0.3074
15529TIP3    H268079   3.674   3.766  15.464 -0.0919 -0.4432 -0.2053
15530TIP3   OH268080   4.094   4.119  15.438 -0.8615  0.6466  0.5578
15530TIP3    H168081   4.140   4.155  15.514 -1.0103  1.4935  0.2523
15530TIP3    H268082   4.003   4.145  15.450 -1.0113  0.1962  0.4311
15531TIP3   OH268083   1.211   1.053  15.500  0.4976  0.5894 -0.0626
15531TIP3    H168084   1.159   1.106  15.561 -0.7152 -1.7378  1.0645
15531TIP3    H268085   1.166   1.062  15.416 -0.0983  0.7865  0.2707
15532TIP3   OH268086   5.205   0.385   6.232 -0.0706 -0.0537 -0.2183
15532TIP3    H168087   5.223   0.306   6.181 -0.6651 -1.1953  1.2672
15532TIP3    H268088   5.117   0.371   6.266  0.1553  0.8668  0.7629
15533TIP3   OH268089   3.766   5.616  12.549  0.6036 -0.6145 -0.1326
15533TIP3    H168090   3.691   5.649  12.500 -0.2066 -1.0175  0.8007
15533TIP3    H268091   3.737   5.532  12.584  1.1482 -0.3392  1.0290
15534TIP3   OH268092   5.518   2.419  14.456 -0.2598  0.6276  0.1216
15534TIP3    H168093   5.428   2.388  14.471 -1.2851  1.1907 -3.7120
15534TIP3    H268094   5.517   2.510  14.488 -1.7508  1.2906 -1.6507
15535TIP3   OH268095   4.916   1.910   1.342 -0.4387 -0.0249  0.1984
15535TIP3    H168096   4.966   1.919   1.423 -0.8607 -0.9764  0.5753
15535TIP3    H268097   4.894   2.000   1.317  0.4791  0.3363  0.6359
15536TIP3   OH268098   2.183   3.305  14.205 -0.0858 -0.5739  0.0028
15536TIP3    H168099   2.229   3.265  14.131  0.7500 -0.7547  0.5985
15536TIP3    H268100   2.187   3.399  14.188  0.4631 -0.5914  0.0117
15537TIP3   OH268101   3.443   0.002   0.409 -0.5472 -0.6799 -0.4559
15537TIP3    H168102   3.455   0.093   0.384 -1.5017 -0.5506 -0.4998
15537TIP3    H268103   3.529  -0.038   0.399 -0.0804  0.2634 -0.2281
15538TIP3   OH268104   0.968   0.244   2.481  0.2454 -0.6884  0.7254
15538TIP3    H168105   0.965   0.318   2.541 -0.3581  1.8878 -2.2296
15538TIP3    H268106   0.876   0.222   2.465  0.2798  0.1564 -0.8486
15539TIP3   OH268107   4.340   1.004  16.015 -0.7106 -0.3031 -0.1559
15539TIP3    H168108   4.262   0.969  16.057  0.3613 -0.1988  2.0721
15539TIP3    H268109   4.312   1.089  15.979 -1.8510 -0.7435 -0.3371
15540TIP3   OH268110   6.118   6.726  16.978  0.1678  0.2014  0.3158
15540TIP3    H168111   6.101   6.756  17.067 -2.1420  0.0764 -0.0272
15540TIP3    H268112   6.031   6.715  16.939  0.9123 -3.7465 -0.6697
15541TIP3   OH268113   3.132   4.088   3.429 -0.5013 -0.1099  0.8302
15541TIP3    H168114   3.109   4.152   3.496 -0.5350  0.5400  0.2055
15541TIP3    H268115   3.154   4.140   3.352 -1.9803 -0.8588 -0.1540
15542TIP3   OH268116   4.302   1.375   4.459  0.3871  0.0329  0.2218
15542TIP3    H168117   4.292   1.280   4.463  0.0936  0.0715  0.3668
15542TIP3    H268118   4.384   1.387   4.410  0.0744 -0.2840 -0.3961
15543TIP3   OH268119   0.637   3.875   5.793 -0.3702  0.4054 -0.0411
15543TIP3    H168120   0.614   3.792   5.834  0.9494 -1.0861 -2.1135
15543TIP3    H268121   0.637   3.939   5.865 -2.6611 -1.0812  1.3913
15544TIP3   OH268122   5.916   0.214  14.628 -0.1197 -0.1132 -0.0191
15544TIP3    H168123   5.957   0.189  14.711 -1.1970  1.5645  1.0776
15544TIP3    H268124   5.824   0.230  14.650 -0.6505 -0.5134 -1.7396
15545TIP3   OH268125   3.859   4.810   1.003  0.4489 -0.2391  0.2540
15545TIP3    H168126   3.890   4.737   1.056  0.1147 -0.8426 -0.3714
15545TIP3    H268127   3.810   4.770   0.932  0.3098  0.5915 -0.1383
15546TIP3   OH268128   2.419   1.683  11.779 -0.1183  0.7668  0.5549
15546TIP3    H168129   2.344   1.661  11.724 -0.0175  1.2472  0.2177
15546TIP3    H268130   2.495   1.669  11.722  0.0408  0.4892  0.8290
15547TIP3   OH268131   5.328   6.550   4.912  0.0431  0.4477 -0.1781
15547TIP3    H168132   5.424   6.554   4.914  0.1474 -1.0003 -1.0566
15547TIP3    H268133   5.307   6.523   4.822 -1.2435  1.4950 -0.2279
15548TIP3   OH268134   4.621   3.276  13.989  0.1973  0.1655 -0.0778
15548TIP3    H168135   4.662   3.349  13.943  0.2271  0.9103  1.0790
15548TIP3    H268136   4.555   3.242  13.928 -0.1986  1.5139 -0.4273
15549TIP3   OH268137   1.101   0.156  16.778 -0.1764 -0.0089 -0.0061
15549TIP3    H168138   1.029   0.118  16.829 -0.3680 -0.8534 -0.8806
15549TIP3    H268139   1.104   0.104  16.698  0.4322  0.9939 -0.6551
15550TIP3   OH268140   2.977   5.329   5.261  0.3715  0.0118 -0.3457
15550TIP3    H168141   3.068   5.302   5.274 -0.3304 -2.2136  0.5378
15550TIP3    H268142   2.927   5.247   5.263 -1.7721  1.2423  0.1521
15551TIP3   OH268143   3.001   3.573  11.547  0.2302 -0.2805  0.1711
15551TIP3    H168144   2.996   3.666  11.566 -0.0967  0.1176 -1.6469
15551TIP3    H268145   3.090   3.548  11.573  0.0761  0.3528  1.3562
15552TIP3   OH268146   0.508   5.456  14.217  0.0990  0.2402 -0.2829
15552TIP3    H168147   0.487   5.519  14.148 -0.3109 -0.3448 -0.7167
15552TIP3    H268148   0.465   5.490  14.295 -0.9790 -0.0001 -0.7430
15553TIP3   OH268149   2.109   4.398   5.086  0.3005 -0.0204  0.1949
15553TIP3    H168150   2.041   4.408   5.154  1.3802  1.3312  1.1419
15553TIP3    H268151   2.162   4.325   5.116 -0.3581 -0.7022 -0.2471
15554TIP3   OH268152   4.714   0.578  16.958  0.3607  0.5120  0.6332
15554TIP3    H168153   4.688   0.548  16.872  2.0822 -1.7130  0.8129
15554TIP3    H268154   4.634   0.615  16.996 -0.6131  0.7858 -1.5525
15555TIP3   OH268155   4.102   1.068  15.528 -0.4693  0.0549  0.2491
15555TIP3    H168156   4.034   1.016  15.483 -0.6526  0.6143 -0.1411
15555TIP3    H268157   4.164   1.003  15.561 -1.0356 -0.4507  0.3416
15556TIP3   OH268158   1.359   4.944   5.478  0.7760 -0.2942 -0.7440
15556TIP3    H168159   1.298   4.996   5.426 -0.8650 -2.3369 -0.9833
15556TIP3    H268160   1.446   4.968   5.445  0.1540  2.4790 -0.6019
15557TIP3   OH268161   0.810   3.169  14.741  0.2929  0.4763  0.2439
15557TIP3    H168162   0.801   3.164  14.836 -0.4045 -1.0657  0.1265
15557TIP3    H268163   0.897   3.206  14.727  0.7658 -0.1140  1.4848
15558TIP3   OH268164   3.137   6.236  14.663  0.3020 -0.0810 -0.1226
15558TIP3    H168165   3.108   6.309  14.608  0.2960  0.0422  0.0426
15558TIP3    H268166   3.073   6.233  14.733  0.1117 -0.4607 -0.3105
15559TIP3   OH268167   4.435   4.028  11.570 -0.4176  0.6070 -0.7508
15559TIP3    H168168   4.344   4.021  11.541 -1.0494  0.4543  1.1667
15559TIP3    H268169   4.452   4.123  11.570 -1.2789  0.7909  0.8539
15560TIP3   OH268170   1.727   6.817  11.776  0.4898 -0.1769  0.1588
15560TIP3    H168171   1.770   6.861  11.702 -1.1163  0.8092 -0.2551
15560TIP3    H268172   1.715   6.727  11.746 -2.1616  0.6967 -1.8298
15561TIP3   OH268173   2.211   2.482   4.963  0.0917  0.7816 -0.3047
15561TIP3    H168174   2.256   2.462   4.881  0.8346  1.0219  0.0361
15561TIP3    H268175   2.275   2.459   5.031 -0.0069  1.8704  0.1657
15562TIP3   OH268176   4.269   1.622  11.234 -0.3343  0.4617 -0.2366
15562TIP3    H168177   4.280   1.663  11.319  1.8816  0.7020 -0.5792
15562TIP3    H268178   4.262   1.695  11.172 -0.6646  0.2939 -0.4006
15563TIP3   OH268179   2.026   6.373   5.823 -0.3943  0.1407  0.1354
15563TIP3    H168180   2.093   6.439   5.843 -0.6613  0.3923  0.2151
15563TIP3    H268181   2.021   6.320   5.903  0.4351 -0.5195 -0.2410
15564TIP3   OH268182   0.902   1.273   0.064 -0.1911 -0.0872 -0.4188
15564TIP3    H168183   0.991   1.278   0.030  0.9866 -1.0378  2.2476
15564TIP3    H268184   0.856   1.214   0.004  0.9436  0.4088 -1.8288
15565TIP3   OH268185   4.044   3.015  15.810  0.2663  0.3216 -0.7252
15565TIP3    H168186   4.021   2.967  15.731 -0.4688  0.3637 -0.5394
15565TIP3    H268187   4.122   3.065  15.785  1.2003 -1.1445 -0.8413
15566TIP3   OH268188   3.813   3.164  15.284  0.5309  0.1237  0.1891
15566TIP3    H168189   3.888   3.191  15.231  1.2383 -0.6799  0.7438
15566TIP3    H268190   3.832   3.073  15.307 -0.4121  0.0451  0.7038
15567TIP3   OH268191   2.917   6.389   2.284 -0.0427  0.5671  0.2198
15567TIP3    H168192   2.875   6.315   2.241  0.6680 -0.3408  1.0631
15567TIP3    H268193   2.931   6.453   2.214  1.8355 -1.1877 -1.0882
15568TIP3   OH268194   6.154   5.121   4.836 -0.1258 -0.5888  0.6469
15568TIP3    H168195   6.124   5.209   4.860  0.1574 -0.2488 -0.1898
15568TIP3    H268196   6.074   5.075   4.810 -0.5199 -1.1469  2.6941
15569TIP3   OH268197   1.502   3.512   0.600  0.3254  0.7294  0.0784
15569TIP3    H168198   1.410   3.534   0.585 -0.0054 -0.1979  0.6333
15569TIP3    H268199   1.546   3.596   0.608 -0.6928  1.1926  1.0059
15570TIP3   OH268200   2.851   0.481  15.549  0.1876 -0.0145 -0.7271
15570TIP3    H168201   2.759   0.488  15.520  0.3805 -0.9532 -1.6376
15570TIP3    H268202   2.847   0.492  15.644 -1.0562 -1.4108 -0.5774
15571TIP3   OH268203   1.304   3.118  13.337  0.7208  0.2192  0.3753
15571TIP3    H168204   1.274   3.029  13.317 -2.2100  1.1791  0.0350
15571TIP3    H268205   1.313   3.119  13.432  1.0099 -0.5097  0.3598
15572TIP3   OH268206   0.459   2.811   0.833 -0.5458  0.0038 -0.6092
15572TIP3    H168207   0.523   2.828   0.902 -0.3379 -0.8670 -0.5720
15572TIP3    H268208   0.391   2.877   0.846 -1.6609 -1.4861  1.8476
15573TIP3   OH268209   2.156   0.656  12.531 -0.1415  0.0125  0.4717
15573TIP3    H168210   2.098   0.690  12.463  0.2344 -0.7472 -0.2546
15573TIP3    H268211   2.218   0.726  12.549 -0.1065  0.1381 -0.1389
15574TIP3   OH268212   5.077   2.592  14.763 -0.1971 -0.2789 -0.3596
15574TIP3    H168213   5.105   2.684  14.770  0.2864 -0.3736 -0.9877
15574TIP3    H268214   5.092   2.570  14.671  3.7036 -2.2699  0.5397
15575TIP3   OH268215   1.241   3.648  17.147  0.3771  0.5520  0.2321
15575TIP3    H168216   1.278   3.702  17.076  1.2651 -0.7939 -0.3772
15575TIP3    H268217   1.318   3.606  17.187 -0.3389 -1.0757 -0.0199
15576TIP3   OH268218   0.490   1.238   0.644 -0.1148  0.2864  0.4068
15576TIP3    H168219   0.577   1.215   0.612 -0.1400  2.6215 -1.6931
15576TIP3    H268220   0.478   1.185   0.722  2.7605 -0.8673  0.1871
15577TIP3   OH268221   6.576   1.368   4.770 -0.5839  0.1776  0.0769
15577TIP3    H168222   6.489   1.366   4.730 -0.3826 -2.0551 -0.3378
15577TIP3    H268223   6.558   1.369   4.864 -1.1655 -2.6666  0.0878
15578TIP3   OH268224   2.632   5.050  13.659 -0.0678 -0.4838  0.2453
15578TIP3    H168225   2.664   4.986  13.596 -0.9895 -0.7995  0.0857
15578TIP3    H268226   2.709   5.071  13.712  0.7707 -0.0588 -1.0900
15579TIP3   OH268227   0.483   3.097   0.601  0.6485  0.5364  0.0089
15579TIP3    H168228   0.506   3.090   0.509 -0.4025  0.1431 -0.2360
15579TIP3    H268229   0.556   3.054   0.647  0.1875 -1.1505 -0.7693
15580TIP3   OH268230   5.153   6.326  12.024  0.2309  0.5882  0.7452
15580TIP3    H168231   5.242   6.359  12.038  0.7395 -0.0957 -0.7265
15580TIP3    H268232   5.108   6.343  12.107  2.8309 -2.6929  3.0642
15581TIP3   OH268233   1.680   4.902   5.542  0.0983 -0.1025  0.1503
15581TIP3    H168234   1.628   4.926   5.619 -0.0215  0.3054 -0.0568
15581TIP3    H268235   1.663   4.808   5.530  1.0739 -0.4622  1.3507
15582TIP3   OH268236   5.469   5.710  15.888 -0.4848  0.5266  0.4737
15582TIP3    H168237   5.426   5.750  15.963  0.8205 -0.4328  1.7852
15582TIP3    H268238   5.515   5.635  15.924 -0.5645 -0.5040 -1.4547
15583TIP3   OH268239   4.277   3.253   4.365  0.1917  0.8329 -0.1168
15583TIP3    H168240   4.202   3.259   4.424  0.1003 -1.1772  0.0358
15583TIP3    H268241   4.329   3.180   4.399  0.0876 -0.4846 -2.5453
15584TIP3   OH268242   3.708   3.940  13.337 -0.7356  0.2094 -0.6597
15584TIP3    H168243   3.696   3.846  13.324 -1.2103  0.5403 -3.3804
15584TIP3    H268244   3.641   3.965  13.400 -1.2662 -1.1411 -0.6688
15585TIP3   OH268245   0.010   0.305  12.975  0.3475  0.8127  0.5479
15585TIP3    H168246   0.053   0.329  13.057  1.1963 -0.3637  0.4733
15585TIP3    H268247   0.032   0.213  12.962  0.2238  0.9666 -0.9979
15586TIP3   OH268248   1.935   2.331   5.630 -0.4453  0.4462  0.5994
15586TIP3    H168249   1.877   2.316   5.705 -0.2425 -0.1550  0.6420
15586TIP3    H268250   1.887   2.294   5.556  1.2691 -3.2898  1.1257
15587TIP3   OH268251   0.211   6.244   3.733 -0.0479  0.6606  0.1123
15587TIP3    H168252   0.294   6.197   3.733 -0.6910 -0.4968  0.3639
15587TIP3    H268253   0.162   6.206   3.660 -1.1804 -0.1886  1.2864
15588TIP3   OH268254   0.857   4.600  14.511 -0.3325 -0.3566  0.2306
15588TIP3    H168255   0.764   4.623  14.506 -0.2216  0.3513  1.2339
15588TIP3    H268256   0.884   4.590  14.419 -1.1270  0.5204 -0.1137
15589TIP3   OH268257   5.231   5.222  16.883  0.2411  0.2554  0.3115
15589TIP3    H168258   5.137   5.201  16.877 -0.0007  1.3369  0.1153
15589TIP3    H268259   5.246   5.284  16.812  1.6261 -1.6055 -1.1163
15590TIP3   OH268260   6.594   3.762   2.004  0.1315  0.2444 -0.5060
15590TIP3    H168261   6.671   3.718   2.041 -0.1846  0.3124  0.2386
15590TIP3    H268262   6.523   3.743   2.066 -0.2282  0.9912 -0.6802
15591TIP3   OH268263   0.058   1.717  12.739  0.6649 -0.1711 -0.1643
15591TIP3    H168264   0.118   1.778  12.780 -0.5116  1.1138 -0.2721
15591TIP3    H268265   0.038   1.756  12.653 -0.9851 -0.0837  0.2243
15592TIP3   OH268266   0.760   0.323  12.895  0.5525 -0.1631  0.5140
15592TIP3    H168267   0.748   0.311  12.801  1.1644 -0.2587  0.4447
15592TIP3    H268268   0.839   0.273  12.915  0.0506 -0.6999  1.1965
15593TIP3   OH268269   0.954   1.312   4.052  0.1217 -0.1503  0.3135
15593TIP3    H168270   0.924   1.371   3.982  0.7656  0.5529  0.6155
15593TIP3    H268271   0.954   1.225   4.011  1.1062  0.3262 -0.7858
15594TIP3   OH268272   1.487   6.417   4.786  0.3073 -0.2302 -0.7611
15594TIP3    H168273   1.528   6.502   4.803 -0.7324 -0.1064  1.4360
15594TIP3    H268274   1.421   6.408   4.855  1.1906 -3.3445 -0.2033
15595TIP3   OH268275   4.746   1.901   5.347 -0.2621 -0.3158 -0.5803
15595TIP3    H168276   4.769   1.959   5.274 -1.4761 -2.0603 -2.4522
15595TIP3    H268277   4.830   1.879   5.387  0.2220  3.2211  0.7241
15596TIP3   OH268278   4.481   1.276  15.749 -0.0574 -0.0005 -0.0354
15596TIP3    H168279   4.521   1.360  15.729 -0.5025 -0.0011 -1.0014
15596TIP3    H268280   4.445   1.286  15.837 -0.5128  0.9769 -0.3222
15597TIP3   OH268281   3.353   0.287  14.012  0.7452  0.3351  0.0372
15597TIP3    H168282   3.331   0.198  14.040  1.1851 -0.8854 -3.0868
15597TIP3    H268283   3.406   0.321  14.084 -0.3550 -1.4782  1.8314
15598TIP3   OH268284   4.830   5.231   4.538  0.3790 -0.0203 -0.1951
15598TIP3    H168285   4.832   5.318   4.578 -0.4594  0.1332 -0.4627
15598TIP3    H268286   4.738   5.206   4.539  0.2414  0.1833 -2.3959
15599TIP3   OH268287   4.236   2.657   6.084 -0.1172  0.1230  0.0018
15599TIP3    H168288   4.163   2.616   6.131 -0.7056 -0.2686 -1.1858
15599TIP3    H268289   4.195   2.729   6.035  0.6426  1.1350  0.8304
15600TIP3   OH268290   5.089   5.903  11.750  0.3518 -0.1527 -0.4255
15600TIP3    H168291   5.054   5.818  11.722  0.5726 -0.3819 -0.0232
15600TIP3    H268292   5.166   5.880  11.803  1.1468  0.3324 -1.3392
15601TIP3   OH268293   1.692   0.880   3.838  0.2964 -0.4708  0.1901
15601TIP3    H168294   1.625   0.825   3.878  1.4815 -0.9105  1.6711
15601TIP3    H268295   1.733   0.824   3.772 -1.9027  0.3695 -2.0582
15602TIP3   OH268296   3.154   3.084  13.340 -0.0240 -0.1047  0.1931
15602TIP3    H168297   3.170   3.008  13.395 -1.5938 -0.3869  0.2986
15602TIP3    H268298   3.153   3.049  13.250 -0.9677 -0.2588  0.2582
15603TIP3   OH268299   3.137   2.384  10.695  0.3726 -0.6299  0.1009
15603TIP3    H168300   3.221   2.356  10.730  0.7968  0.5689  0.0752
15603TIP3    H268301   3.149   2.477  10.674 -0.8439 -0.5309 -0.2351
15604TIP3   OH268302   5.975   4.718  14.385  0.0135 -0.3659 -0.0301
15604TIP3    H168303   5.958   4.656  14.457  1.8883 -1.0387 -0.1070
15604TIP3    H268304   5.986   4.662  14.308  1.2794  0.0672 -0.1870
15605TIP3   OH268305   3.588   4.070  12.633 -0.0621 -0.0412 -0.6305
15605TIP3    H168306   3.662   4.129  12.618 -0.2181 -0.1817 -2.1029
15605TIP3    H268307   3.511   4.121  12.607 -0.3806 -0.2915 -0.2022
15606TIP3   OH268308   5.739   4.000  15.594 -0.2183  0.4058  0.7962
15606TIP3    H168309   5.687   4.020  15.671 -1.0312  0.3482  0.2696
15606TIP3    H268310   5.726   3.906  15.580  0.4770  0.2726  0.9798
15607TIP3   OH268311   1.665   4.082   5.656  0.5000 -0.0334 -0.4079
15607TIP3    H168312   1.679   3.991   5.680  1.3896 -0.0083 -0.8164
15607TIP3    H268313   1.698   4.132   5.730  2.0255  0.0040 -1.0728
15608TIP3   OH268314   6.220   2.549  13.291 -0.3499 -0.1528  0.3868
15608TIP3    H168315   6.248   2.636  13.317 -1.0842 -0.2463  1.5636
15608TIP3    H268316   6.171   2.516  13.366  0.6696 -1.9359  0.3235
15609TIP3   OH268317   3.356   0.689   3.931  0.3573 -0.2365  0.2940
15609TIP3    H168318   3.360   0.643   4.015  1.4570 -0.4380  0.1384
15609TIP3    H268319   3.294   0.760   3.946  0.4727 -0.3202  1.2522
15610TIP3   OH268320   2.861   1.910   3.128  0.4608 -0.0364  0.3651
15610TIP3    H168321   2.945   1.888   3.088  0.0640 -1.3457  0.2216
15610TIP3    H268322   2.882   1.978   3.192  1.6758 -0.6035  0.5851
15611TIP3   OH268323   3.623   3.497  13.511  0.1327 -0.3112  0.0138
15611TIP3    H168324   3.566   3.423  13.531 -0.4851 -0.4135 -1.9000
15611TIP3    H268325   3.600   3.563  13.576  0.1883 -1.5225  1.3065
15612TIP3   OH268326   4.818   0.461  12.885  0.2177 -0.2695  0.0708
15612TIP3    H168327   4.800   0.541  12.836  0.2521 -0.1813  0.2025
15612TIP3    H268328   4.882   0.487  12.951  0.3022 -0.4273  0.0502
15613TIP3   OH268329   0.334   5.619  16.515  0.0560 -0.0544 -0.2421
15613TIP3    H168330   0.352   5.627  16.421  3.4271 -1.2486  0.1570
15613TIP3    H268331   0.356   5.704  16.551 -0.8435  0.2759 -0.4366
15614TIP3   OH268332   4.589   0.103  12.171  0.4163 -0.6927 -0.1390
15614TIP3    H168333   4.601   0.157  12.250 -0.1887  0.0413 -0.5320
15614TIP3    H268334   4.650   0.140  12.108 -0.2191 -0.2416 -0.5083
15615TIP3   OH268335   3.226   6.582   6.128 -0.4132 -0.4250 -0.4098
15615TIP3    H168336   3.303   6.570   6.184 -1.6784 -0.5222  1.3960
15615TIP3    H268337   3.157   6.609   6.188 -1.7456 -0.1190 -2.0187
15616TIP3   OH268338   5.646   3.647   0.016 -0.1596 -0.3024 -0.3663
15616TIP3    H168339   5.731   3.677   0.048  0.0895 -0.6725 -0.6630
15616TIP3    H268340   5.663   3.559  -0.017 -0.7168 -0.4851 -0.1854
15617TIP3   OH268341   6.234   0.997   2.837 -0.1175 -0.7694 -0.3387
15617TIP3    H168342   6.171   1.066   2.857  0.2940 -0.2349 -0.8611
15617TIP3    H268343   6.202   0.921   2.886 -1.1526 -0.5028 -0.5722
15618TIP3   OH268344   3.758   2.908  12.015  0.1968  0.0241  1.0323
15618TIP3    H168345   3.684   2.967  12.001  1.4737  1.5628  0.3894
15618TIP3    H268346   3.751   2.843  11.946 -0.5877  0.0945  1.0330
15619TIP3   OH268347   0.172   5.482  11.346  0.1567 -0.2434  0.3206
15619TIP3    H168348   0.146   5.427  11.419  0.0589 -0.8303 -0.1533
15619TIP3    H268349   0.267   5.492  11.356  0.3994 -1.7080 -0.4150
15620TIP3   OH268350   2.217   1.166  16.102  0.5237 -0.1942 -0.0480
15620TIP3    H168351   2.203   1.119  16.184  2.0207 -0.9333 -0.1853
15620TIP3    H268352   2.137   1.151  16.051  0.0428 -0.6604  0.8301
15621TIP3   OH268353   2.876   4.806   4.988 -0.2753 -0.3742 -0.1266
15621TIP3    H168354   2.807   4.741   5.001 -0.3520 -0.3170 -0.2536
15621TIP3    H268355   2.834   4.890   5.007 -0.5538 -0.2246 -1.3355
15622TIP3   OH268356   1.974   2.056   4.132 -0.5324  0.0778 -0.2982
15622TIP3    H168357   1.987   2.150   4.145 -0.1916 -0.0318  0.1837
15622TIP3    H268358   1.896   2.036   4.184 -1.3102  0.3033 -1.3390
15623TIP3   OH268359   1.029   6.380  16.036 -0.5382  0.9163 -0.0364
15623TIP3    H168360   0.949   6.327  16.030 -0.2131  0.3564  0.5419
15623TIP3    H268361   1.045   6.389  16.129  0.7692 -0.0365 -0.1433
15624TIP3   OH268362   6.105   6.748   2.837 -0.6744  0.5112 -0.3066
15624TIP3    H168363   6.027   6.701   2.868 -0.7030  1.2917  0.8706
15624TIP3    H268364   6.156   6.681   2.791 -1.2517 -0.4143  0.3434
15625TIP3   OH268365   0.605   2.551  14.465  0.2434 -0.2487 -0.1060
15625TIP3    H168366   0.547   2.591  14.530 -0.7381  2.0391 -2.2080
15625TIP3    H268367   0.651   2.624  14.425  2.1256 -1.7349 -0.8080
15626TIP3   OH268368   2.522   2.611   2.791  0.5001 -0.6658 -0.0684
15626TIP3    H168369   2.587   2.550   2.756  1.4997  0.8827 -1.0312
15626TIP3    H268370   2.574   2.675   2.841 -0.2426  0.6575 -0.9338
15627TIP3   OH268371   4.963   4.259  12.532 -0.2974  0.0772  0.2104
15627TIP3    H168372   5.000   4.266  12.620  1.8325 -0.5303 -0.5773
15627TIP3    H268373   4.967   4.165  12.512  0.0072  0.3113 -0.8492
15628TIP3   OH268374   6.291   6.019   1.781 -0.0608  0.1218 -0.2430
15628TIP3    H168375   6.366   6.057   1.828 -0.9036  0.9334  0.4754
15628TIP3    H268376   6.244   5.969   1.846 -0.4558  0.0705 -0.5635
15629TIP3   OH268377   2.289   5.328  15.775  0.1041 -0.4528  0.0195
15629TIP3    H168378   2.314   5.355  15.863 -0.5160 -0.4663  0.2061
15629TIP3    H268379   2.212   5.380  15.755 -0.8531 -1.7388  0.2138
15630TIP3   OH268380   6.715   5.202  16.769 -0.1397 -0.2187 -0.1988
15630TIP3    H168381   6.641   5.261  16.756 -0.1643 -0.0822  0.5448
15630TIP3    H268382   6.681   5.133  16.826  0.6769  0.5926  1.3301
15631TIP3   OH268383   5.142   5.336   3.128  0.1586 -0.1215  0.1464
15631TIP3    H168384   5.128   5.314   3.036 -0.3778  0.9137 -0.0425
15631TIP3    H268385   5.234   5.314   3.145  0.6569  0.9513 -1.0285
15632TIP3   OH268386   3.221   6.761   2.811  0.0607 -0.4906  0.2601
15632TIP3    H168387   3.208   6.841   2.861 -1.9900 -0.8483  0.3840
15632TIP3    H268388   3.143   6.708   2.830  0.3373 -1.6097 -1.5061
15633TIP3   OH268389   4.578   3.606   0.889  0.3084 -0.7733  0.2034
15633TIP3    H168390   4.499   3.557   0.868 -0.0913 -0.4838  0.9881
15633TIP3    H268391   4.559   3.647   0.973  1.2830 -0.6681  0.3821
15634TIP3   OH268392   3.325   2.866  11.422 -0.1660 -0.0054 -0.0914
15634TIP3    H168393   3.350   2.895  11.334  2.5489 -1.7030 -0.0007
15634TIP3    H268394   3.292   2.946  11.465  0.1182  1.2512 -2.0728
15635TIP3   OH268395   0.586   6.502   2.471  0.8142  0.2106 -0.1029
15635TIP3    H168396   0.521   6.550   2.522  2.3502  1.6762  0.5939
15635TIP3    H268397   0.550   6.414   2.461 -2.1208  1.4341 -1.3788
15636TIP3   OH268398   6.821   3.930   0.033 -0.0599 -0.6411  0.5017
15636TIP3    H168399   6.775   3.861   0.081  1.1305 -1.2905  0.7583
15636TIP3    H268400   6.835   3.999   0.098  3.5391 -2.4269  1.8831
15637TIP3   OH268401   2.517   3.548  12.805 -0.0037 -0.0667 -0.2690
15637TIP3    H168402   2.460   3.625  12.796  1.9168  1.2531 -1.8362
15637TIP3    H268403   2.509   3.523  12.897  0.2486  2.7783  0.6043
15638TIP3   OH268404   5.325   2.507  11.253  0.4096  1.0779  0.3887
15638TIP3    H168405   5.378   2.565  11.199 -0.7280  1.5171 -0.3050
15638TIP3    H268406   5.332   2.421  11.211  0.5832  1.1277  0.3178
15639TIP3   OH268407   5.981   6.795   3.666 -0.4011  0.6474  0.2709
15639TIP3    H168408   5.991   6.891   3.665 -2.7824  0.9790  1.6863
15639TIP3    H268409   5.914   6.777   3.601  0.4196 -0.1627 -0.3811
15640TIP3   OH268410   3.961   1.862  11.919  0.1735  0.4128 -0.5841
15640TIP3    H168411   3.929   1.778  11.953 -1.6282  0.9775 -0.8147
15640TIP3    H268412   4.049   1.870  11.955 -0.9328  0.1253  2.5065
15641TIP3   OH268413   3.451   0.342  13.750  0.2464  0.4297  0.4338
15641TIP3    H168414   3.546   0.329  13.746  0.0390 -1.9724  1.7529
15641TIP3    H268415   3.431   0.340  13.843 -1.1664  0.3382  0.1445
15642TIP3   OH268416   0.565   3.101  16.127 -0.4082  0.3048  0.2169
15642TIP3    H168417   0.651   3.141  16.118 -0.1965 -0.1170  0.3572
15642TIP3    H268418   0.535   3.128  16.213 -0.1417 -0.0706  0.4303
15643TIP3   OH268419   1.976   2.484   0.713 -0.2389  0.0621 -0.4585
15643TIP3    H168420   2.005   2.472   0.803 -1.4729  0.1860 -0.0302
15643TIP3    H268421   2.019   2.414   0.665  0.4095 -0.0229  0.2301
15644TIP3   OH268422   1.667   0.287  14.247  0.6654  0.0676 -0.1664
15644TIP3    H168423   1.725   0.287  14.323  1.4903 -3.5089 -0.6221
15644TIP3    H268424   1.579   0.275  14.283  0.4948  2.3699  0.3439
15645TIP3   OH268425   3.799   3.062  16.157  0.0849 -0.0007  0.1197
15645TIP3    H168426   3.756   3.132  16.205  0.4607  0.9094 -0.8405
15645TIP3    H268427   3.889   3.061  16.190  0.2694  0.4449 -0.3569
15646TIP3   OH268428   2.155   6.363  15.024  0.5459  0.5154 -0.7230
15646TIP3    H168429   2.203   6.444  15.043 -0.3425  0.3678  2.7719
15646TIP3    H268430   2.215   6.293  15.047  0.4619  0.1966 -1.4400
15647TIP3   OH268431   3.157   5.640  13.567  0.4841 -0.2325 -0.0690
15647TIP3    H168432   3.097   5.694  13.619  0.7721 -0.2720  0.3067
15647TIP3    H268433   3.100   5.574  13.526 -0.0196  0.9228 -1.3271
15648TIP3   OH268434   2.168   4.450   1.696 -0.3704 -0.3051  0.1845
15648TIP3    H168435   2.089   4.463   1.643 -0.4618  0.5538  0.5113
15648TIP3    H268436   2.204   4.538   1.708 -0.6459 -0.3894  1.9761
15649TIP3   OH268437   2.431   4.340   4.135  0.5204 -0.2966  0.0468
15649TIP3    H168438   2.476   4.378   4.210  0.2761 -0.2356  0.1655
15649TIP3    H268439   2.451   4.399   4.063  0.9682 -0.4964  0.0044
15650TIP3   OH268440   3.777   2.024  14.283  0.4889 -0.0592  0.1005
15650TIP3    H168441   3.682   2.030  14.286  0.4867 -0.5931  1.3485
15650TIP3    H268442   3.796   1.932  14.299  1.2632  0.3030  1.3789
15651TIP3   OH268443   1.739   2.093   3.490  0.0883 -0.4561 -0.1911
15651TIP3    H168444   1.733   2.139   3.406  2.0314  0.6326  0.1926
15651TIP3    H268445   1.700   2.008   3.474  1.3232 -0.6621 -2.5378
15652TIP3   OH268446   2.234   1.180  10.836 -0.6667 -0.2750 -0.1085
15652TIP3    H168447   2.313   1.130  10.855 -1.4594 -2.8098 -2.7582
15652TIP3    H268448   2.266   1.259  10.792  0.4318 -1.0070 -0.6708
15653TIP3   OH268449   4.593   5.245   2.979  0.2046 -1.0635 -0.4169
15653TIP3    H168450   4.524   5.248   3.045  0.5802  2.2642 -0.0101
15653TIP3    H268451   4.574   5.318   2.921  3.9302  0.7801  0.3919
15654TIP3   OH268452   2.986   5.849  12.702 -0.1349 -0.1390  0.2869
15654TIP3    H168453   2.942   5.805  12.774  0.1510  0.7538  1.0278
15654TIP3    H268454   3.016   5.932  12.739  0.6602  0.0198 -0.6627
15655TIP3   OH268455   4.029   6.489  12.600 -0.4991 -0.3137 -0.2005
15655TIP3    H168456   4.101   6.460  12.544 -0.3614  1.4097 -0.9986
15655TIP3    H268457   3.983   6.409  12.623  2.6338 -1.7263  1.8107
15656TIP3   OH268458   5.420   6.221  11.556 -0.7128  0.2430  0.2193
15656TIP3    H168459   5.370   6.240  11.636 -1.1725  1.0355 -0.2410
15656TIP3    H268460   5.511   6.216  11.585 -1.0482 -1.6161  1.1412
15657TIP3   OH268461   0.494   2.856   4.012  0.3336  0.2865  0.1085
15657TIP3    H168462   0.529   2.795   4.077 -0.1793 -3.6950 -2.9914
15657TIP3    H268463   0.552   2.847   3.936 -1.6727  1.1358 -1.6325
15658TIP3   OH268464   0.782   4.560   3.397  0.0082  0.3273  0.4342
15658TIP3    H168465   0.851   4.610   3.354 -2.2962  0.4327 -3.6182
15658TIP3    H268466   0.725   4.625   3.437  1.1430  0.3463  2.0974
15659TIP3   OH268467   0.969   3.920   5.939 -0.0388  0.0039 -0.0218
15659TIP3    H168468   0.902   3.988   5.927 -1.0370 -1.3628 -3.3742
15659TIP3    H268469   1.051   3.963   5.914 -0.2766  0.6296  0.2484
15660TIP3   OH268470   5.184   2.139   0.756 -0.2453 -0.1113 -0.1690
15660TIP3    H168471   5.271   2.162   0.790 -0.1487 -1.2783  0.4230
15660TIP3    H268472   5.201   2.114   0.665 -0.4475  2.6275 -1.0517
15661TIP3   OH268473   1.496   5.335  11.183 -0.2617  0.2145 -0.1610
15661TIP3    H168474   1.531   5.340  11.094 -0.4877  2.0737 -0.1752
15661TIP3    H268475   1.567   5.297  11.235 -0.2856 -1.2989 -1.1756
15662TIP3   OH268476   2.139   1.108   0.052  0.5421 -0.2895  0.3618
15662TIP3    H168477   2.166   1.131   0.140 -0.3464  0.2194  0.5233
15662TIP3    H268478   2.220   1.089   0.005  1.0359 -0.3314  1.2225
15663TIP3   OH268479   2.302   4.103  17.081  0.4127 -0.0944  0.1502
15663TIP3    H168480   2.357   4.071  17.152  0.1908 -0.2028  0.2779
15663TIP3    H268481   2.349   4.178  17.046  1.1963 -0.8552 -0.4830
15664TIP3   OH268482   4.699   1.672  10.675  0.4354  0.4896  0.2074
15664TIP3    H168483   4.740   1.750  10.714  1.0662  0.1759  0.1835
15664TIP3    H268484   4.616   1.704  10.639  0.7816  1.1914  0.0234
15665TIP3   OH268485   2.051   0.781  16.363 -0.3093  0.4554 -0.9701
15665TIP3    H168486   2.014   0.862  16.329 -0.3954  0.6591 -0.4056
15665TIP3    H268487   2.140   0.778  16.328  0.2398  1.5831  0.2542
15666TIP3   OH268488   4.165   0.241  13.224  1.1073 -0.0460 -0.5416
15666TIP3    H168489   4.147   0.205  13.311  2.8955 -1.5685 -0.7219
15666TIP3    H268490   4.097   0.204  13.169  1.3225 -1.0259 -0.1889
15667TIP3   OH268491   1.354   3.430   0.321 -0.1725  0.0982 -0.3531
15667TIP3    H168492   1.449   3.429   0.310  0.0092  0.3635  1.0052
15667TIP3    H268493   1.328   3.338   0.316  0.0287  0.0853 -1.5389
15668TIP3   OH268494   0.043   3.748  10.978  0.2669  0.1455  0.7516
15668TIP3    H168495   0.118   3.706  11.020 -1.1260 -1.6935  1.5013
15668TIP3    H268496  -0.002   3.794  11.048 -0.2627 -0.2349  0.6722
15669TIP3   OH268497   6.303   2.328  15.120 -0.4026  0.2546  0.2608
15669TIP3    H168498   6.307   2.235  15.097 -0.0588  0.3990 -0.2822
15669TIP3    H268499   6.231   2.334  15.184  0.0627 -0.4989  0.8816
15670TIP3   OH268500   3.428   6.820   5.648 -0.3158  0.0947 -0.8315
15670TIP3    H168501   3.487   6.791   5.718 -1.6356 -1.5452 -0.3489
15670TIP3    H268502   3.445   6.914   5.642  0.6971  0.0811  0.8797
15671TIP3   OH268503   4.650   3.630   3.024 -0.3992 -1.1058 -0.1972
15671TIP3    H168504   4.744   3.644   3.035 -0.6597  0.5208  0.1617
15671TIP3    H268505   4.643   3.580   2.943  0.7220 -0.0213 -1.0108
15672TIP3   OH268506   1.899   0.551  15.000  0.2943 -0.2155  0.2287
15672TIP3    H168507   1.907   0.534  15.094 -1.9726 -2.3034  0.1303
15672TIP3    H268508   1.861   0.639  14.995  2.4881  0.8744  1.1119
15673TIP3   OH268509   2.476   4.620  11.962  0.1047 -0.1886  0.0077
15673TIP3    H168510   2.561   4.662  11.956  0.5764 -1.2252 -1.0288
15673TIP3    H268511   2.447   4.612  11.871 -0.9152 -0.2320  0.3200
15674TIP3   OH268512   2.664   4.112   1.830  0.8680 -0.1370 -0.3334
15674TIP3    H168513   2.575   4.093   1.801  0.0950  1.8716  0.5642
15674TIP3    H268514   2.692   4.184   1.773  1.1415  0.5873  0.6887
15675TIP3   OH268515   2.480   4.943  11.702 -0.2657 -0.2508  0.3218
15675TIP3    H168516   2.436   4.859  11.688 -1.7105  0.8412 -2.2783
15675TIP3    H268517   2.418   4.993  11.755 -0.4751 -0.0123 -0.1472
15676TIP3   OH268518   6.659   4.865  15.124 -0.1055 -0.0284  0.0818
15676TIP3    H168519   6.587   4.804  15.111  0.0006 -0.5410  1.6346
15676TIP3    H268520   6.736   4.809  15.138  0.4261  0.4998 -0.6626
15677TIP3   OH268521   2.676   2.570   5.877  1.1784 -0.0150  0.4760
15677TIP3    H168522   2.633   2.600   5.957 -0.3961  0.1502 -0.3860
15677TIP3    H268523   2.718   2.649   5.842 -0.0180  0.4462  0.0157
15678TIP3   OH268524   3.982   1.778   3.022 -0.5317  0.0236  0.4161
15678TIP3    H168525   3.900   1.777   3.072 -2.1400 -0.5174 -2.0154
15678TIP3    H268526   4.006   1.685   3.013  0.0157  0.1425  0.6156
15679TIP3   OH268527   2.291   1.343   1.218 -0.1477  0.1037 -0.1641
15679TIP3    H168528   2.199   1.337   1.243 -0.0019 -0.5514  0.2424
15679TIP3    H268529   2.322   1.423   1.261 -0.4690  0.2103 -0.1265
15680TIP3   OH268530   3.189   4.481  14.605 -0.4276 -0.0785  0.2571
15680TIP3    H168531   3.232   4.555  14.562 -0.7694  0.4834  0.8629
15680TIP3    H268532   3.255   4.448  14.666 -1.0301  1.1944  1.6624
15681TIP3   OH268533   5.496   0.759  14.201 -0.5610  0.0952  0.1562
15681TIP3    H168534   5.409   0.790  14.177 -0.3150  1.2757  0.7076
15681TIP3    H268535   5.481   0.697  14.271 -0.9372  0.8292  0.7439
15682TIP3   OH268536   5.934   6.278   2.420 -0.6396  0.3077 -0.6281
15682TIP3    H168537   5.970   6.254   2.335 -1.8860 -2.0962 -0.5721
15682TIP3    H268538   5.997   6.244   2.484  0.2616  2.0517 -0.5201
15683TIP3   OH268539   3.936   5.161   5.422  0.2299 -0.3883  0.2190
15683TIP3    H168540   3.972   5.078   5.450  1.2219 -0.4864 -1.2096
15683TIP3    H268541   3.864   5.137   5.362  1.4770 -0.2980 -1.3956
15684TIP3   OH268542   0.806   3.379   0.628  0.0389 -0.5046  0.4306
15684TIP3    H168543   0.815   3.297   0.675 -1.8363 -0.8605  0.2473
15684TIP3    H268544   0.743   3.361   0.558 -1.8066  1.4921  1.4638
15685TIP3   OH268545   1.305   0.093  12.543 -0.0992  0.0240 -0.1439
15685TIP3    H168546   1.342   0.008  12.568 -0.5211 -0.0568  0.2082
15685TIP3    H268547   1.365   0.157  12.581  0.6906 -0.1074 -1.1126
15686TIP3   OH268548   2.849   3.655  13.118  0.1709 -0.5804 -0.4054
15686TIP3    H168549   2.887   3.743  13.117 -0.1467 -0.4302  0.3149
15686TIP3    H268550   2.755   3.669  13.130 -0.2646 -0.9181 -2.9014
15687TIP3   OH268551   3.667   3.030  15.643  0.3947  0.0035 -0.3719
15687TIP3    H168552   3.730   2.961  15.622  2.3554  1.7967 -0.5971
15687TIP3    H268553   3.720   3.104  15.672 -1.5387  1.9242 -1.4453
15688TIP3   OH268554   0.449   0.278  16.434 -0.1412 -0.6190  0.4464
15688TIP3    H168555   0.489   0.206  16.483 -1.1782  0.1430  2.5268
15688TIP3    H268556   0.506   0.353  16.452  1.7874 -1.0824 -2.8930
15689TIP3   OH268557   4.543   1.355   4.327  0.3327  0.1578 -0.0260
15689TIP3    H168558   4.600   1.324   4.397 -0.2903  0.0902  0.4588
15689TIP3    H268559   4.509   1.275   4.286  0.1990  0.1967  0.0079
15690TIP3   OH268560   5.106   6.655  12.018 -0.0492  0.3276  0.4575
15690TIP3    H168561   5.103   6.588  12.086  0.5675 -1.8322 -1.5316
15690TIP3    H268562   5.197   6.656  11.988 -0.7344 -0.5124 -1.9023
15691TIP3   OH268563   3.960   5.411   4.860 -0.6132 -0.0805 -0.4551
15691TIP3    H168564   4.035   5.382   4.808 -0.7750  0.8552 -1.2440
15691TIP3    H268565   3.989   5.402   4.951 -0.2132 -1.4528 -0.6985
15692TIP3   OH268566   2.220   3.131  15.329  0.0269 -0.7089 -0.4300
15692TIP3    H168567   2.315   3.145  15.334 -0.2948  2.0129 -0.5871
15692TIP3    H268568   2.197   3.092  15.414  1.3271 -1.9603 -0.6159
15693TIP3   OH268569   2.165   0.904   2.609 -0.1679 -0.2313 -0.4247
15693TIP3    H168570   2.182   0.860   2.526 -1.5986 -0.7359 -0.4691
15693TIP3    H268571   2.106   0.845   2.656  0.0064  0.4095  0.6290
15694TIP3   OH268572   5.285   3.583  14.337  0.9197  0.0686  0.4503
15694TIP3    H168573   5.208   3.640  14.332  0.3265 -0.4686  2.5762
15694TIP3    H268574   5.283   3.533  14.255 -0.5520  0.6281  0.1199
15695TIP3   OH268575   6.209   4.494   3.630  0.2252  0.4631 -0.8937
15695TIP3    H168576   6.230   4.554   3.558 -0.9274 -0.8612 -2.3922
15695TIP3    H268577   6.136   4.442   3.598 -0.4454 -0.0768  1.3297
15696TIP3   OH268578   0.166   1.769   4.492  0.2879  0.7785  0.2408
15696TIP3    H168579   0.097   1.706   4.474  1.2853 -0.6788  1.2751
15696TIP3    H268580   0.199   1.745   4.579  0.9484  2.5083  0.5106
15697TIP3   OH268581   3.847   2.612  11.266  0.8436 -0.1595 -0.0902
15697TIP3    H168582   3.844   2.613  11.170  0.7204 -0.7815 -0.0922
15697TIP3    H268583   3.883   2.527  11.288  1.4229  0.2069  0.4107
15698TIP3   OH268584   6.093   2.839   4.697  0.6781 -0.3029  0.4273
15698TIP3    H168585   6.036   2.890   4.755 -0.5735  1.9275 -2.5133
15698TIP3    H268586   6.042   2.760   4.677  0.1884 -0.0614  0.6938
15699TIP3   OH268587   5.129   0.541   5.460 -0.3793  0.0763 -0.3708
15699TIP3    H168588   5.188   0.528   5.386 -0.2130  0.6736 -0.3495
15699TIP3    H268589   5.126   0.457   5.504  0.1762 -0.0540 -0.5782
15700TIP3   OH268590   2.518   1.863   2.966 -0.2720 -0.4645 -0.0464
15700TIP3    H168591   2.566   1.823   3.039 -2.5274 -1.3151  1.0728
15700TIP3    H268592   2.521   1.797   2.897 -1.1817 -1.2129  0.6094
15701TIP3   OH268593   5.733   1.046   0.434 -0.0760  0.4861 -0.0992
15701TIP3    H168594   5.739   0.951   0.427  0.0547  0.3136  1.7375
15701TIP3    H268595   5.799   1.079   0.373  0.5860 -0.6360 -0.0146
15702TIP3   OH268596   0.651   4.275   1.566  0.0932 -0.6620 -0.3087
15702TIP3    H168597   0.727   4.279   1.509  0.3188  0.8513  0.0474
15702TIP3    H268598   0.578   4.254   1.507  0.3069  0.9571 -1.2246
15703TIP3   OH268599   1.806   3.119  11.580  0.3624 -0.4678 -0.0753
15703TIP3    H168600   1.778   3.125  11.672 -0.4149  1.4543 -0.3869
15703TIP3    H268601   1.901   3.118  11.584  0.3368 -1.6157  0.7927
15704TIP3   OH268602   6.804   5.834   4.184  0.2862  0.1929 -0.0437
15704TIP3    H168603   6.720   5.837   4.231  1.3416 -0.6460  2.0353
15704TIP3    H268604   6.857   5.902   4.226  0.6586  0.7634 -1.3826
15705TIP3   OH268605   4.484   5.886  11.506 -0.0725  0.2297  0.2737
15705TIP3    H168606   4.505   5.806  11.554 -0.0843  0.0520 -0.0162
15705TIP3    H268607   4.521   5.872  11.419 -2.7831 -0.7744 -0.7977
15706TIP3   OH268608   5.184   4.454  14.820  0.1804  0.2213 -0.2084
15706TIP3    H168609   5.242   4.379  14.829  0.1385  0.2919  0.7825
15706TIP3    H268610   5.156   4.474  14.909 -0.7787  0.6515 -0.5810
15707TIP3   OH268611   0.057   1.113   0.910  0.2472  0.0988  0.5502
15707TIP3    H168612  -0.015   1.159   0.866 -1.4965 -2.3920  0.6308
15707TIP3    H268613   0.119   1.183   0.932 -0.4774  1.9245 -2.5662
15708TIP3   OH268614   3.250   4.402   0.996  0.2215  0.9811  0.4887
15708TIP3    H168615   3.279   4.493   0.995 -0.9425  1.4038 -1.5883
15708TIP3    H268616   3.278   4.367   0.912  1.1256 -0.7749  1.4680
15709TIP3   OH268617   0.425   5.293  15.858  0.0930  0.2186  0.0533
15709TIP3    H168618   0.411   5.279  15.764 -0.4021 -0.4807  0.2221
15709TIP3    H268619   0.410   5.386  15.871 -0.1970  0.2511 -0.5001
15710TIP3   OH268620   1.506   6.644  12.363  0.1485 -0.7106 -0.2704
15710TIP3    H168621   1.427   6.698  12.361 -0.2187 -1.2501 -2.0481
15710TIP3    H268622   1.517   6.621  12.456 -1.9488 -0.8479 -0.0044
15711TIP3   OH268623   1.087   0.553  12.152 -0.6567 -0.3076 -0.2777
15711TIP3    H168624   1.180   0.536  12.137 -0.5935 -0.8003  0.6410
15711TIP3    H268625   1.067   0.625  12.092  0.7319  0.9822  0.7167
15712TIP3   OH268626   4.739   5.124   5.162 -0.1197 -0.4442  0.6337
15712TIP3    H168627   4.774   5.112   5.074  0.0800 -0.1316  0.6671
15712TIP3    H268628   4.645   5.139   5.149 -0.0497 -0.1482  0.4521
15713TIP3   OH268629   0.164   2.368   6.631 -0.1661  0.0216 -0.5567
15713TIP3    H168630   0.077   2.398   6.660  1.0408  1.7629  1.6173
15713TIP3    H268631   0.191   2.433   6.567  0.4344  0.8325  0.4894
15714TIP3   OH268632   6.681   5.351   1.931  0.2583  0.2105  0.0176
15714TIP3    H168633   6.609   5.404   1.897  2.1571  1.8750 -1.6973
15714TIP3    H268634   6.729   5.410   1.988  1.1193 -0.3714 -0.0869
15715TIP3   OH268635   5.804   0.016   2.952  0.2055 -0.1370  0.1653
15715TIP3    H168636   5.765   0.082   3.009  1.0704 -1.3170  2.2268
15715TIP3    H268637   5.803   0.057   2.865 -2.1836  1.2960  0.7517
15716TIP3   OH268638   2.865   4.518  12.716  0.4857 -0.1848  0.2321
15716TIP3    H168639   2.948   4.559  12.692 -0.6358  2.6960  0.8319
15716TIP3    H268640   2.818   4.509  12.634  0.6416  0.0220  0.1183
15717TIP3   OH268641   3.161   0.436  11.961 -0.1950  0.2615  0.0637
15717TIP3    H168642   3.194   0.351  11.992  1.4529  0.8250 -0.0482
15717TIP3    H268643   3.223   0.462  11.893 -0.8508  1.4334 -0.1083
15718TIP3   OH268644   3.503   1.929   3.347  0.1188 -0.2138  0.6628
15718TIP3    H168645   3.597   1.928   3.365  0.1269  0.9951  0.7830
15718TIP3    H268646   3.496   1.954   3.255 -0.0824 -0.3628  0.6366
15719TIP3   OH268647   0.989   0.901   6.507 -0.3748  0.3100  0.0966
15719TIP3    H168648   1.064   0.945   6.468  1.0676 -1.2240  1.0122
15719TIP3    H268649   0.939   0.971   6.549  0.5375  1.3690 -0.5397
15720TIP3   OH268650   5.331   0.231  13.124 -0.3578 -0.6188  0.0032
15720TIP3    H168651   5.313   0.278  13.042  0.6645 -1.7823 -0.9340
15720TIP3    H268652   5.251   0.182  13.142 -0.8980  0.3046  0.1888
15721TIP3   OH268653   6.056   3.940   3.513 -0.2229 -0.5615 -0.2907
15721TIP3    H168654   6.081   3.849   3.531  0.8803 -0.4571 -1.2086
15721TIP3    H268655   5.973   3.951   3.559  0.7029 -1.3556  1.7109
15722TIP3   OH268656   5.476   5.454   1.362 -0.1151 -0.4085 -0.0115
15722TIP3    H168657   5.439   5.395   1.427 -1.0434 -0.8404 -0.8938
15722TIP3    H268658   5.560   5.415   1.338 -0.0832 -0.6049  0.4193
15723TIP3   OH268659   1.398   0.893   3.423  1.2003 -0.2719  0.2122
15723TIP3    H168660   1.352   0.943   3.489 -1.0473 -0.0445 -1.4179
15723TIP3    H268661   1.422   0.811   3.467  0.2432  0.0728  1.4235
15724TIP3   OH268662   2.890   1.251  11.080 -0.3036  0.1259 -0.4834
15724TIP3    H168663   2.818   1.233  11.140 -0.8820  1.5292 -0.7202
15724TIP3    H268664   2.868   1.336  11.041  0.9336  0.0617 -1.3753
15725TIP3   OH268665   6.437   2.483  16.956 -0.0955  0.1900 -0.2617
15725TIP3    H168666   6.388   2.564  16.943  1.2212  1.2867  1.1577
15725TIP3    H268667   6.438   2.471  17.051 -0.5252 -1.6849 -0.4637
15726TIP3   OH268668   4.320   4.446   6.128 -0.1305 -0.4445 -0.6694
15726TIP3    H168669   4.262   4.430   6.203  0.5151 -2.8842 -0.5932
15726TIP3    H268670   4.408   4.440   6.164  0.2057 -2.3373 -1.6775
15727TIP3   OH268671   2.427   4.373   4.441  0.3286  0.3709 -0.4974
15727TIP3    H168672   2.358   4.338   4.496  0.0081 -0.6429 -1.5018
15727TIP3    H268673   2.437   4.464   4.469  1.9656 -0.7188  2.9716
15728TIP3   OH268674   4.269   4.524  16.240  0.3745 -0.0955  0.0474
15728TIP3    H168675   4.199   4.481  16.289 -0.5545 -0.7900 -1.7932
15728TIP3    H268676   4.223   4.576  16.175  1.5707  0.3299 -0.4713
15729TIP3   OH268677   1.972   1.247  10.949  0.2351 -0.5693 -0.4989
15729TIP3    H168678   1.964   1.222  11.041  1.1907  1.2524  0.1299
15729TIP3    H268679   2.066   1.239  10.929  0.2582  0.3742 -0.8690
15730TIP3   OH268680   6.673   6.165  16.621 -0.0740 -0.0229 -0.2504
15730TIP3    H168681   6.679   6.070  16.606  1.6089 -0.2806  1.5309
15730TIP3    H268682   6.680   6.204  16.534  0.1410 -1.5065 -0.9332
15731TIP3   OH268683   0.366   5.065  10.337 -0.2682 -0.1564 -0.1877
15731TIP3    H168684   0.411   5.109  10.409 -0.0167 -0.5565 -0.0939
15731TIP3    H268685   0.293   5.123  10.314 -0.3385 -0.0207  0.3759
15732TIP3   OH268686   6.524   1.467   1.962  0.5097  0.0234  0.1416
15732TIP3    H168687   6.575   1.409   1.907  2.5059  2.1012 -0.3548
15732TIP3    H268688   6.503   1.415   2.040  1.0031 -1.7419 -0.8679
15733TIP3   OH268689   5.495   0.022  13.074 -0.0281 -0.6288 -0.4072
15733TIP3    H168690   5.443   0.092  13.114 -0.4580 -0.0576 -1.8974
15733TIP3    H268691   5.575   0.018  13.126  0.0682  1.0871 -0.3929
15734TIP3   OH268692   5.473   6.107  14.979  0.1769 -0.0354 -0.3001
15734TIP3    H168693   5.458   6.191  14.935  0.7182 -0.3643 -1.1511
15734TIP3    H268694   5.453   6.123  15.071  1.7480  1.4609 -0.1622
15735TIP3   OH268695   0.669   2.602   0.176  0.2392  0.2860 -0.1536
15735TIP3    H168696   0.725   2.576   0.103  1.3405  1.1671  0.3536
15735TIP3    H268697   0.706   2.685   0.207  0.2818 -0.4511  1.9169
15736TIP3   OH268698   3.166   1.136  10.720  0.3923  0.2209  0.1611
15736TIP3    H168699   3.155   1.209  10.659 -2.4310 -0.1227  0.1469
15736TIP3    H268700   3.185   1.061  10.664  1.2737  0.5353  0.0203
15737TIP3   OH268701   5.212   5.119  16.298 -0.4440 -0.2983  0.0373
15737TIP3    H168702   5.128   5.079  16.320 -0.8553 -0.7544 -2.1111
15737TIP3    H268703   5.278   5.056  16.328 -0.7825  0.3560  2.3210
15738TIP3   OH268704   6.546   0.709   4.110  0.3619 -0.3417 -0.4351
15738TIP3    H168705   6.462   0.706   4.064  0.0875 -1.3975  0.0995
15738TIP3    H268706   6.523   0.720   4.202  0.8434  0.2388 -0.3806
15739TIP3   OH268707   0.012   3.664   0.153 -0.5142 -0.0977 -0.7435
15739TIP3    H168708  -0.078   3.688   0.173 -0.8037 -2.5640  1.5428
15739TIP3    H268709   0.005   3.580   0.107  0.6031  0.6399 -2.3629
15740TIP3   OH268710   5.605   2.462   3.386  0.8665 -0.1176 -0.0938
15740TIP3    H168711   5.669   2.454   3.315 -0.0833  1.0241 -1.1174
15740TIP3    H268712   5.544   2.529   3.356  0.8472  0.9575  2.1199
15741TIP3   OH268713   3.843   6.087  15.613  0.1254  0.3388  0.6334
15741TIP3    H168714   3.812   5.999  15.590  0.0857  0.5313 -0.0923
15741TIP3    H268715   3.766   6.143  15.602  0.3398  0.5786  0.3231
15742TIP3   OH268716   1.079   2.289   5.182  0.1917  0.1889  0.2044
15742TIP3    H168717   1.083   2.323   5.093 -0.2121 -0.6772 -0.1612
15742TIP3    H268718   1.017   2.216   5.177  0.2231  0.0767  1.1767
15743TIP3   OH268719   4.399   3.327   5.123 -0.7259  0.0574  0.4292
15743TIP3    H168720   4.386   3.389   5.051 -1.4792 -0.3661  0.1931
15743TIP3    H268721   4.485   3.289   5.106 -1.3873 -0.9318 -0.9614
15744TIP3   OH268722   5.481   0.305  13.381  0.4140  0.0630 -0.3788
15744TIP3    H168723   5.431   0.306  13.299  1.6443  1.9585 -1.1629
15744TIP3    H268724   5.540   0.230  13.373 -1.7056 -1.8197  0.2831
15745TIP3   OH268725   1.238   5.086  12.549  0.5374  0.1410 -0.0743
15745TIP3    H168726   1.199   5.001  12.528  1.6730 -0.5112  0.3842
15745TIP3    H268727   1.317   5.089  12.496 -0.2353  1.5774 -1.2197
15746TIP3   OH268728   4.890   1.015  16.908 -0.4985 -0.1239 -0.2519
15746TIP3    H168729   4.948   0.993  16.981 -0.8541 -0.2257  0.0010
15746TIP3    H268730   4.857   0.930  16.877 -1.4814  0.0080  0.4023
15747TIP3   OH268731   0.209   2.646  14.991  0.3608  0.4139  0.1518
15747TIP3    H168732   0.140   2.582  15.013  0.2760  0.0121 -1.2355
15747TIP3    H268733   0.171   2.731  15.016  0.2040  0.0103  1.3632
15748TIP3   OH268734   3.926   0.546   3.578  0.5011  0.5094 -0.0232
15748TIP3    H168735   3.916   0.466   3.630 -2.0569  1.5213  1.2246
15748TIP3    H268736   4.000   0.528   3.520  0.3047 -2.5778  0.5084
15749TIP3   OH268737   5.525   4.423  13.735 -0.4788  0.7250 -0.4990
15749TIP3    H168738   5.533   4.514  13.764  1.1821  0.2984  0.5149
15749TIP3    H268739   5.537   4.372  13.815 -0.2276 -0.4056 -1.2427
15750TIP3   OH268740   6.633   2.844   4.328 -0.3006 -0.0109 -0.0493
15750TIP3    H168741   6.548   2.887   4.321 -0.9488 -1.5223 -2.3578
15750TIP3    H268742   6.623   2.785   4.403 -0.9583  0.4463  0.2383
15751TIP3   OH268743   1.485   4.567  14.111 -0.1147 -0.5110  0.1524
15751TIP3    H168744   1.394   4.544  14.129  0.0551 -1.7461 -0.4360
15751TIP3    H268745   1.515   4.610  14.191 -0.8135 -1.3644  0.9085
15752TIP3   OH268746   0.195   1.985  14.304  0.0259 -0.0579 -0.0380
15752TIP3    H168747   0.099   1.982  14.298 -0.2747  0.2311  2.9973
15752TIP3    H268748   0.216   1.927  14.377  2.2371 -0.5330 -0.9973
15753TIP3   OH268749   5.549   3.641   5.849 -0.1810  0.2683 -0.0343
15753TIP3    H168750   5.638   3.609   5.864  0.3929  0.7186 -2.1788
15753TIP3    H268751   5.494   3.562   5.853  0.3427 -0.0723  0.8456
15754TIP3   OH268752   5.284   0.229  16.997 -0.1956  1.0607  0.0970
15754TIP3    H168753   5.305   0.138  16.976  0.4149  1.0516  0.7265
15754TIP3    H268754   5.341   0.280  16.939  0.7951  1.0324  1.0090
15755TIP3   OH268755   4.726   4.622   5.277 -0.5121  0.5720 -0.2008
15755TIP3    H168756   4.738   4.621   5.182 -2.4738  0.1285 -0.4888
15755TIP3    H268757   4.814   4.613   5.313  0.1452 -0.6367 -1.9928
15756TIP3   OH268758   5.429   3.452  16.188 -0.1419 -0.2327 -0.6270
15756TIP3    H168759   5.376   3.528  16.212 -1.1989 -1.1766  0.1532
15756TIP3    H268760   5.422   3.393  16.264 -1.7776 -2.3654 -2.3080
15757TIP3   OH268761   0.050   1.283   2.634  0.1946 -0.0425  0.5973
15757TIP3    H168762  -0.005   1.312   2.561 -0.5271 -2.5965  0.0200
15757TIP3    H268763   0.137   1.314   2.613 -0.4441  1.3752 -0.0872
15758TIP3   OH268764   5.017   2.809  16.205 -0.1311  0.7936 -0.0033
15758TIP3    H168765   4.945   2.746  16.200  0.0270  0.6554 -0.5842
15758TIP3    H268766   4.982   2.881  16.258 -0.0616 -0.1034  1.3314
15759TIP3   OH268767   2.511   3.729   1.426  0.6091  0.6158 -0.1636
15759TIP3    H168768   2.512   3.714   1.520 -0.9054 -0.5660 -0.2937
15759TIP3    H268769   2.497   3.823   1.417  1.7721  0.8993  0.7608
15760TIP3   OH268770   3.718   0.317  11.627 -0.2006 -0.0093  0.1967
15760TIP3    H168771   3.772   0.394  11.643  1.3334 -0.6105 -1.6126
15760TIP3    H268772   3.712   0.273  11.712  2.4381 -0.0291  0.4616
15761TIP3   OH268773   6.435   6.516   3.922 -0.0702 -0.2419 -0.5903
15761TIP3    H168774   6.420   6.609   3.902  0.4732 -0.2402 -1.0225
15761TIP3    H268775   6.515   6.494   3.874 -0.8002 -1.2313 -1.3958
15762TIP3   OH268776   4.373   4.306   2.847  0.1928  0.3421  0.3653
15762TIP3    H168777   4.384   4.351   2.763  2.1393 -0.1878  0.2874
15762TIP3    H268778   4.426   4.357   2.909  1.1444 -0.9006  0.6134
15763TIP3   OH268779   3.099   1.157  11.498  0.0063  0.1395 -0.1520
15763TIP3    H168780   3.055   1.147  11.582 -0.2654 -2.4587 -0.5270
15763TIP3    H268781   3.037   1.207  11.444 -0.8440 -0.2181  0.4730
15764TIP3   OH268782   6.252   1.546   5.178  0.7755 -0.2252  0.4637
15764TIP3    H168783   6.204   1.544   5.261 -0.8428  1.0375 -0.3928
15764TIP3    H268784   6.304   1.627   5.183  0.3893  0.0495  0.1163
15765TIP3   OH268785   0.512   4.546   4.842  0.2944  0.3196 -0.6970
15765TIP3    H168786   0.448   4.544   4.771  0.1172 -0.7032 -0.5280
15765TIP3    H268787   0.562   4.626   4.827 -2.9867  2.9108  0.9344
15766TIP3   OH268788   6.501   0.887  12.035 -0.2915  0.4150 -0.0810
15766TIP3    H168789   6.495   0.935  11.952  0.3327 -0.6811 -0.7769
15766TIP3    H268790   6.490   0.955  12.102  1.7422  1.7783 -1.0051
15767TIP3   OH268791   1.524   4.183   0.332  0.3398  0.3409  0.6499
15767TIP3    H168792   1.515   4.092   0.304  0.6206  0.8306 -1.1505
15767TIP3    H268793   1.441   4.203   0.374 -0.6802 -0.0528 -1.0843
15768TIP3   OH268794   3.984   5.580   4.230  0.0232 -0.6662 -0.0416
15768TIP3    H168795   4.049   5.602   4.296 -0.9238  0.0044  0.6883
15768TIP3    H268796   3.953   5.664   4.197  0.4706 -0.9873 -1.3506
15769TIP3   OH268797   1.455   3.554   0.059  0.1871  0.0451  0.3002
15769TIP3    H168798   1.542   3.518   0.046 -0.0850 -0.1007 -1.4295
15769TIP3    H268799   1.422   3.513   0.138  1.0911 -1.0861  0.1027
15770TIP3   OH268800   5.934   6.101  12.049 -1.0617 -0.2917 -0.1607
15770TIP3    H168801   5.844   6.094  12.016 -0.4968 -0.3739 -1.7492
15770TIP3    H268802   5.986   6.125  11.972  0.6549 -2.5858  0.1943
15771TIP3   OH268803   4.748   1.052   4.470 -0.2881  0.0984 -0.1622
15771TIP3    H168804   4.792   0.977   4.509  1.3896  0.5154 -1.1754
15771TIP3    H268805   4.777   1.127   4.522 -0.8249  0.2307 -0.0456
15772TIP3   OH268806   3.115   1.178  15.468  0.2263 -0.1824  0.0470
15772TIP3    H168807   3.170   1.110  15.431  2.7161  0.5160  2.1564
15772TIP3    H268808   3.124   1.252  15.408 -0.2508 -0.7965 -0.7940
15773TIP3   OH268809   2.901   0.916  13.870 -0.0692 -0.5457  0.6388
15773TIP3    H168810   2.900   0.876  13.957  0.1868 -1.5153  0.2008
15773TIP3    H268811   2.819   0.966  13.866 -0.2920 -0.8516  1.2669
15774TIP3   OH268812   4.040   3.653  11.970  0.2962  0.0829  0.1278
15774TIP3    H168813   4.086   3.664  11.887 -0.1614  3.1246  0.1728
15774TIP3    H268814   4.099   3.690  12.035  0.8153 -2.6159  1.3185
15775TIP3   OH268815   5.236   6.568   2.648  0.0030 -0.7600 -0.7417
15775TIP3    H168816   5.202   6.480   2.635  2.4312 -1.7833 -0.5617
15775TIP3    H268817   5.247   6.576   2.743  0.5269 -0.5451 -0.8203
15776TIP3   OH268818   2.038   3.834   0.432 -0.0016 -0.4357 -0.0700
15776TIP3    H168819   2.090   3.757   0.455 -1.3568 -0.8601  1.7398
15776TIP3    H268820   2.049   3.893   0.506  2.8213  2.2223 -2.3270
15777TIP3   OH268821   6.032   1.379   5.196 -0.0301 -0.4072 -0.4306
15777TIP3    H168822   5.992   1.432   5.265  0.0328  0.1878 -0.8457
15777TIP3    H268823   6.088   1.439   5.149  0.7247 -1.0519 -0.3716
15778TIP3   OH268824   5.375   2.687   1.933  0.5993 -0.1796 -0.1019
15778TIP3    H168825   5.298   2.666   1.986  0.7783  0.0405  0.2512
15778TIP3    H268826   5.341   2.738   1.860  0.5656  1.1103  0.7799
15779TIP3   OH268827   3.772   5.833  16.680  0.0615  0.6979 -0.2098
15779TIP3    H168828   3.792   5.861  16.591  0.8441  1.4137  0.1749
15779TIP3    H268829   3.736   5.745  16.670 -0.2440  0.9280 -1.2606
15780TIP3   OH268830   6.210   4.677  14.981 -0.3019  0.0574 -0.4281
15780TIP3    H168831   6.238   4.761  14.944  0.5649 -1.1389 -2.7329
15780TIP3    H268832   6.145   4.700  15.047  0.4484  2.5661 -0.4488
15781TIP3   OH268833   6.592   5.544   4.072 -0.0468 -0.2747  0.0247
15781TIP3    H168834   6.514   5.506   4.031  0.0786  0.2746 -0.7357
15781TIP3    H268835   6.566   5.631   4.099  0.0471 -0.4162  0.5910
15782TIP3   OH268836   2.717   6.434  11.578  0.2667 -0.3449  0.1269
15782TIP3    H168837   2.769   6.428  11.658  1.0321  1.3537 -0.1948
15782TIP3    H268838   2.701   6.527  11.567 -0.4621 -0.6123 -1.3134
15783TIP3   OH268839   1.500   3.475  13.495  0.2959 -0.0034  0.4583
15783TIP3    H168840   1.503   3.451  13.588 -0.6592 -2.0010  0.0293
15783TIP3    H268841   1.569   3.422  13.455  0.4236  0.5373 -0.0486
15784TIP3   OH268842   0.373   4.053  13.237 -0.3465 -0.4499  0.4414
15784TIP3    H168843   0.308   4.012  13.179 -0.1779  0.9155 -0.7780
15784TIP3    H268844   0.453   4.003  13.222 -0.0498  0.4666 -1.2967
15785TIP3   OH268845   4.316   6.159   3.944  0.3651 -0.3321  0.2695
15785TIP3    H168846   4.270   6.143   4.026  1.3187 -0.1789  0.8411
15785TIP3    H268847   4.362   6.077   3.925 -1.3578 -1.0553 -1.1400
15786TIP3   OH268848   2.984   5.518  16.905  0.2685  0.2591  0.0604
15786TIP3    H168849   2.894   5.551  16.905  0.6212  1.4814  2.4814
15786TIP3    H268850   2.990   5.465  16.826 -1.5998  2.7086 -1.8919
15787TIP3   OH268851   2.739   4.972   2.882  0.0929  0.0019  0.1465
15787TIP3    H168852   2.748   4.997   2.974  1.7307 -0.4381  0.1330
15787TIP3    H268853   2.698   5.048   2.840  1.1255  0.9803  0.8725
15788TIP3   OH268854   5.798   4.123   0.906 -0.1663 -0.4426 -0.4190
15788TIP3    H168855   5.816   4.135   0.812  0.8556  1.4194 -0.0329
15788TIP3    H268856   5.725   4.183   0.924  0.5394  0.2363  0.2325
15789TIP3   OH268857   6.242   6.765   4.679 -0.4347  0.3734  0.7729
15789TIP3    H168858   6.299   6.841   4.674  0.8822 -0.6335 -0.0307
15789TIP3    H268859   6.288   6.703   4.736 -0.9151 -0.3035  0.4500
15790TIP3   OH268860   4.274   1.966   1.155  0.5822 -0.0379 -0.5972
15790TIP3    H168861   4.278   1.885   1.103 -2.0576 -1.7610  1.5818
15790TIP3    H268862   4.285   1.936   1.245  2.9631  2.5814  0.1042
15791TIP3   OH268863   6.524   6.013   4.717 -0.3734 -0.4121 -0.5129
15791TIP3    H168864   6.523   5.978   4.628 -3.0805 -0.4448 -0.5720
15791TIP3    H268865   6.590   5.962   4.763  3.7935  1.9699 -3.2534
15792TIP3   OH268866   4.711   2.073   4.788 -0.0552  0.3699 -0.2588
15792TIP3    H168867   4.674   2.142   4.843 -0.5286  0.3579 -0.5492
15792TIP3    H268868   4.672   2.089   4.701 -1.2316 -1.0348 -0.0396
15793TIP3   OH268869   3.743   2.420   1.156 -0.4923 -1.0423  0.2831
15793TIP3    H168870   3.690   2.378   1.089 -1.4865 -0.8837  0.9473
15793TIP3    H268871   3.766   2.349   1.217  0.1994 -1.1374 -0.0690
15794TIP3   OH268872   3.662   5.133  15.180  0.5001 -0.2026 -0.1476
15794TIP3    H168873   3.757   5.133  15.171  0.4666 -0.6321 -0.5261
15794TIP3    H268874   3.640   5.043  15.200  0.0234 -0.4739 -1.7434
15795TIP3   OH268875   1.834   6.038  12.269 -0.4886 -0.4684 -0.5390
15795TIP3    H168876   1.811   6.096  12.197  0.9579  0.0433 -0.6124
15795TIP3    H268877   1.761   6.045  12.330 -1.2446 -0.1127 -1.4695
15796TIP3   OH268878   6.121   0.169   0.560  0.1404  0.2054 -0.2304
15796TIP3    H168879   6.073   0.180   0.478  1.7309 -0.6137 -1.3214
15796TIP3    H268880   6.204   0.215   0.546  0.7970 -0.6832  0.5824
15797TIP3   OH268881   6.304   2.359   5.539 -0.2809  0.1471 -0.7690
15797TIP3    H168882   6.304   2.273   5.495 -0.0691  0.3189 -1.1160
15797TIP3    H268883   6.212   2.377   5.557 -0.2867 -0.3836 -0.2303
15798TIP3   OH268884   0.264   2.977   3.410  0.1671  0.1800  0.2825
15798TIP3    H168885   0.178   2.942   3.389  0.6685 -0.3739 -0.8845
15798TIP3    H268886   0.298   2.919   3.478 -1.3289  1.8041  2.5791
15799TIP3   OH268887   0.717   5.418  12.598 -0.0867  0.1924 -0.0422
15799TIP3    H168888   0.713   5.395  12.691  0.3305 -0.1189 -0.0973
15799TIP3    H268889   0.694   5.337  12.552  0.1225  0.2318 -0.2172
15800TIP3   OH268890   3.704   5.477  13.446  0.2097 -0.1085  0.7862
15800TIP3    H168891   3.669   5.517  13.525  0.5807  0.7095  0.5419
15800TIP3    H268892   3.799   5.478  13.458  0.3414  0.9914 -0.1027
15801TIP3   OH268893   5.061   0.936  14.021 -0.3773 -0.4396 -0.9218
15801TIP3    H168894   5.030   0.854  13.981  0.0750 -0.2269 -1.7232
15801TIP3    H268895   5.049   1.002  13.953  1.8352 -0.3462 -1.3084
15802TIP3   OH268896   3.721   0.383   3.092 -0.2008 -0.5826 -0.4991
15802TIP3    H168897   3.795   0.324   3.109 -0.9764 -1.9534 -1.6612
15802TIP3    H268898   3.673   0.385   3.174  0.9188  0.0508  0.1647
15803TIP3   OH268899   5.604   2.325  12.247  0.0857 -0.5680  0.5840
15803TIP3    H168900   5.680   2.379  12.269 -0.2134 -0.1451  0.5943
15803TIP3    H268901   5.592   2.268  12.323  0.1617 -0.3665  0.7482
15804TIP3   OH268902   0.659   1.310  15.470  0.8052 -0.0168  0.0933
15804TIP3    H168903   0.566   1.290  15.479  1.0452 -0.6982  1.1572
15804TIP3    H268904   0.702   1.225  15.470  1.2902  0.1111 -2.8878
15805TIP3   OH268905   5.942   0.736   0.074  0.1799 -0.0582 -0.1819
15805TIP3    H168906   5.892   0.675   0.128  1.3119  0.0553  1.0493
15805TIP3    H268907   5.967   0.685  -0.003 -0.8491 -0.4509 -0.2642
15806TIP3   OH268908   2.619   1.975   4.508  0.2056 -0.2375 -0.1173
15806TIP3    H168909   2.542   1.935   4.549 -0.0714 -0.4175 -0.7952
15806TIP3    H268910   2.684   1.981   4.578 -0.8296  1.0362  0.7650
15807TIP3   OH268911   2.350   6.328   4.026 -0.0965 -0.0379 -0.2276
15807TIP3    H168912   2.404   6.352   3.951  0.4935  1.1826  0.5527
15807TIP3    H268913   2.407   6.274   4.081 -0.1400  0.0299 -0.1137
15808TIP3   OH268914   6.791   5.271   2.486 -0.5339  0.0549  0.3652
15808TIP3    H168915   6.834   5.279   2.571  0.2386  0.8818 -0.0847
15808TIP3    H268916   6.786   5.361   2.454  0.0453 -0.3404 -0.8780
15809TIP3   OH268917   5.671   5.791  16.705 -0.4485 -0.1577 -0.6909
15809TIP3    H168918   5.650   5.857  16.771  1.4620 -0.3893  0.2180
15809TIP3    H268919   5.644   5.708  16.744 -2.1805 -0.0282 -1.5351
15810TIP3   OH268920   2.371   1.023   6.154 -0.5944 -0.2041 -0.3479
15810TIP3    H168921   2.364   1.074   6.073 -0.2095 -1.7001 -1.3523
15810TIP3    H268922   2.388   1.088   6.221  0.2064  0.9785 -1.6349
15811TIP3   OH268923   5.364   5.826   2.334 -0.1038 -0.3223 -0.5034
15811TIP3    H168924   5.334   5.908   2.373 -0.3252  0.6217 -2.5330
15811TIP3    H268925   5.437   5.798   2.390  0.9862  2.0730 -0.6214
15812TIP3   OH268926   4.362   4.104   5.346  0.0415  0.2105  0.3309
15812TIP3    H168927   4.288   4.054   5.312  0.3629  0.3253 -0.5573
15812TIP3    H268928   4.435   4.042   5.348  0.1351  0.3219  0.4042
15813TIP3   OH268929   3.849   2.728   5.901 -0.4414  0.3969 -0.1085
15813TIP3    H168930   3.781   2.671   5.936 -0.7046 -0.3742 -1.7821
15813TIP3    H268931   3.815   2.756   5.816  1.3196 -0.0031 -0.9889
15814TIP3   OH268932   6.691   4.080   5.046 -0.3911 -0.3209 -0.2660
15814TIP3    H168933   6.676   4.090   4.952 -0.0373 -0.5341 -0.3457
15814TIP3    H268934   6.668   3.990   5.065  0.9825 -0.7285 -0.4344
15815TIP3   OH268935   0.129   4.106   1.460 -0.1698 -0.2240  0.4139
15815TIP3    H168936   0.049   4.071   1.420 -1.2905  0.8484  1.6257
15815TIP3    H268937   0.153   4.041   1.526 -1.6720  0.7232  1.9680
15816TIP3   OH268938   4.152   2.005   5.709 -0.3437  0.2488  0.6205
15816TIP3    H168939   4.194   1.945   5.647 -1.8692  0.2151 -0.4236
15816TIP3    H268940   4.177   2.092   5.678 -0.7028  0.2190  0.2400
15817TIP3   OH268941   4.304   3.918   2.282  0.2093  1.0644  0.2108
15817TIP3    H168942   4.230   3.908   2.342 -0.6791  0.0020 -0.9830
15817TIP3    H268943   4.297   4.008   2.250 -0.4811  1.0350  0.2600
15818TIP3   OH268944   4.957   5.973   0.352  0.6093 -0.7091  0.4359
15818TIP3    H168945   4.970   6.014   0.437  0.2502  3.0762 -1.0894
15818TIP3    H268946   4.863   5.983   0.335  0.7203 -1.1507 -0.5077
15819TIP3   OH268947   0.219   2.279   2.496  0.5591 -0.0005  0.3461
15819TIP3    H168948   0.152   2.286   2.565  0.2556 -0.4016  0.0986
15819TIP3    H268949   0.276   2.208   2.526 -0.8219 -1.6851 -0.8314
15820TIP3   OH268950   3.675   1.075  14.545  0.3684 -0.3493  0.2720
15820TIP3    H168951   3.752   1.083  14.490  1.1885 -0.1729  1.4122
15820TIP3    H268952   3.647   0.984  14.534  0.5867 -0.3483 -0.3243
15821TIP3   OH268953   4.605   4.799  12.178  0.1087 -0.5379  0.4105
15821TIP3    H168954   4.548   4.840  12.113 -0.2951 -0.8104  0.5912
15821TIP3    H268955   4.635   4.718  12.136 -2.9225 -2.5509  1.8016
15822TIP3   OH268956   3.783   3.677   2.666 -0.0214 -0.7956 -0.1989
15822TIP3    H168957   3.774   3.647   2.576  1.6046 -0.2140 -0.5827
15822TIP3    H268958   3.747   3.606   2.719  0.0641 -1.6369 -1.2429
15823TIP3   OH268959   5.330   2.748   2.424  0.5425 -0.0576 -0.4407
15823TIP3    H168960   5.333   2.653   2.412  0.3873 -0.3337  1.4515
15823TIP3    H268961   5.421   2.776   2.425  0.6144 -0.2951 -0.3089
15824TIP3   OH268962   5.322   3.243  16.064  0.2479  0.1480 -0.0299
15824TIP3    H168963   5.391   3.196  16.017 -0.3170  1.0711 -1.9182
15824TIP3    H268964   5.367   3.315  16.107  0.3401  2.4262 -3.4886
15825TIP3   OH268965   2.084   4.015  12.061  0.3332  0.0376  0.2294
15825TIP3    H168966   2.177   4.037  12.055  0.5356 -1.1534 -1.9128
15825TIP3    H268967   2.050   4.029  11.973 -0.8691 -2.1675  0.2552
15826TIP3   OH268968   4.063   6.164   5.921 -0.1300  0.4985  0.0224
15826TIP3    H168969   4.070   6.073   5.949  0.5439  0.2014 -1.0585
15826TIP3    H268970   4.133   6.209   5.967  1.6762 -0.1987 -1.8821
15827TIP3   OH268971   2.771   2.759   0.780 -0.2411  0.5199 -0.5804
15827TIP3    H168972   2.780   2.811   0.860 -0.6993 -0.1815 -0.0476
15827TIP3    H268973   2.841   2.695   0.785 -0.5421  0.1907 -0.5076
15828TIP3   OH268974   4.793   5.999  10.989 -0.2463 -0.0481 -0.1740
15828TIP3    H168975   4.830   5.966  10.907 -0.4485  1.1760 -0.7878
15828TIP3    H268976   4.784   6.093  10.974 -0.4176  0.1735  1.2126
15829TIP3   OH268977   0.096   3.516   3.133 -0.3119 -0.6861 -0.0283
15829TIP3    H168978   0.063   3.427   3.137 -0.0422 -0.8464 -1.0603
15829TIP3    H268979   0.169   3.512   3.072  0.5829 -0.0203  0.9689
15830TIP3   OH268980   6.429   3.973   1.120 -0.8744 -0.2260 -0.1485
15830TIP3    H168981   6.374   4.047   1.145  0.0449  0.7097 -0.8474
15830TIP3    H268982   6.515   4.011   1.104 -0.8036 -1.1359 -2.3042
15831TIP3   OH268983   2.647   5.144   2.270  0.3329 -0.0476  0.3271
15831TIP3    H168984   2.735   5.108   2.257  0.9133  0.9482  1.3142
15831TIP3    H268985   2.662   5.229   2.312 -1.0598  0.6732 -0.5741
15832TIP3   OH268986   3.558   0.706   4.457 -0.7527 -0.5874 -0.0693
15832TIP3    H168987   3.501   0.770   4.414  1.8026  0.9588 -1.3893
15832TIP3    H268988   3.555   0.629   4.400  0.5803  0.5099 -1.7075
15833TIP3   OH268989   0.275   1.032  10.788  0.1650 -0.3409 -0.2969
15833TIP3    H168990   0.352   1.016  10.733 -0.0646  0.4834 -0.8756
15833TIP3    H268991   0.299   1.108  10.841 -0.7246  0.8147 -1.4683
15834TIP3   OH268992   4.748   6.050  16.190 -0.0699 -0.0821  0.1628
15834TIP3    H168993   4.745   5.980  16.124  2.7524 -0.1598 -0.0138
15834TIP3    H268994   4.674   6.032  16.248  1.7511 -4.7255  1.5198
15835TIP3   OH268995   4.994   5.546   1.190 -0.3095 -0.0134 -0.5058
15835TIP3    H168996   5.007   5.634   1.227 -0.5412 -0.3750  0.4746
15835TIP3    H268997   5.037   5.487   1.252 -2.7133 -0.8452  0.5310
15836TIP3   OH268998   6.696   4.224   0.628 -0.4091  0.0819 -0.2798
15836TIP3    H168999   6.683   4.145   0.680 -1.5321  0.5255  0.1444
15836TIP3    H269000   6.731   4.288   0.690  1.0730 -0.2269 -0.7518
15837TIP3   OH269001   3.682   4.148  13.164  0.3110  0.6568  0.0494
15837TIP3    H169002   3.718   4.066  13.198  0.7626  0.4156 -0.9658
15837TIP3    H269003   3.685   4.208  13.238 -2.6811 -0.9814  1.7362
15838TIP3   OH269004   2.285   5.425   4.220  0.3483  0.0465 -0.0851
15838TIP3    H169005   2.230   5.476   4.161 -1.1816  1.1508  2.1320
15838TIP3    H269006   2.268   5.462   4.307  4.8939  0.7109  0.7967
15839TIP3   OH269007   5.918   1.192   1.542  0.7962 -0.1728 -0.2793
15839TIP3    H169008   5.946   1.280   1.518  1.3827 -0.4582 -0.6988
15839TIP3    H269009   5.997   1.151   1.578 -0.1110  0.3022  2.4207
15840TIP3   OH269010   3.719   2.867  13.968  0.3569  0.1908 -0.3248
15840TIP3    H169011   3.807   2.903  13.975  0.1280  0.6073  0.4204
15840TIP3    H269012   3.733   2.776  13.941  1.0707 -0.0697  0.8472
15841TIP3   OH269013   6.699   2.880  10.907  0.6498 -0.2772 -0.0125
15841TIP3    H169014   6.688   2.970  10.940  2.6233 -0.2096  0.6217
15841TIP3    H269015   6.644   2.876  10.829 -1.5293  0.6509  1.3789
15842TIP3   OH269016   5.712   5.181  11.105  0.3148  0.5164  0.5264
15842TIP3    H169017   5.742   5.198  11.016 -1.1514 -0.3415 -0.1714
15842TIP3    H269018   5.786   5.136  11.147  0.3026 -0.9213 -0.9108
15843TIP3   OH269019   4.083   1.211  16.590 -0.2068  0.9444  0.3099
15843TIP3    H169020   4.102   1.223  16.684  2.1394  1.1120 -0.1119
15843TIP3    H269021   4.165   1.234  16.547 -0.7070 -0.7748 -1.6917
15844TIP3   OH269022   3.320   1.624  16.442 -0.0857 -0.3802  0.6381
15844TIP3    H169023   3.354   1.634  16.353 -1.4830 -0.0323  0.1158
15844TIP3    H269024   3.266   1.545  16.438 -0.8002  0.0835  0.9638
15845TIP3   OH269025   3.099   1.471  15.835 -0.1911 -0.9047 -0.2477
15845TIP3    H169026   3.166   1.410  15.805  0.2994 -0.9458  0.8673
15845TIP3    H269027   3.127   1.556  15.801  1.2402 -0.6727  1.3719
15846TIP3   OH269028   2.779   0.227   5.352  0.1997  0.1248 -0.2780
15846TIP3    H169029   2.691   0.248   5.383 -0.5986 -1.6306 -1.1690
15846TIP3    H269030   2.836   0.290   5.395 -1.2354 -0.0004  1.9680
15847TIP3   OH269031   4.823   3.065   2.006  0.0916 -0.0604  0.0548
15847TIP3    H169032   4.869   3.115   1.938  0.5370 -0.1088  0.3189
15847TIP3    H269033   4.892   3.016   2.051 -0.3906 -1.2867 -0.4985
15848TIP3   OH269034   3.274   2.428  15.079  0.3311  0.0336  0.3173
15848TIP3    H169035   3.345   2.490  15.058 -0.7250  1.0956 -0.2415
15848TIP3    H269036   3.317   2.359  15.128  1.7531  0.6910  0.0592
15849TIP3   OH269037   5.532   5.311   2.211 -0.3803  0.6703  0.6354
15849TIP3    H169038   5.522   5.334   2.118 -0.0495 -0.6284  0.2526
15849TIP3    H269039   5.448   5.332   2.250 -1.2249 -0.6317 -0.4000
15850TIP3   OH269040   5.654   5.235   5.999 -0.4961 -0.0822  0.1810
15850TIP3    H169041   5.563   5.209   6.009 -0.1679 -1.0182  0.8777
15850TIP3    H269042   5.704   5.155   6.013  0.4756  0.5905  0.6958
15851TIP3   OH269043   2.779   6.027  13.845 -0.2737  0.6023 -0.0702
15851TIP3    H169044   2.704   6.021  13.904 -0.0531 -0.2555  0.1262
15851TIP3    H269045   2.852   6.053  13.902 -0.5134  1.9576 -0.3469
15852TIP3   OH269046   5.130   4.581   4.701  0.0875  0.1854 -0.6375
15852TIP3    H169047   5.166   4.590   4.789 -0.3389  0.6705 -0.5101
15852TIP3    H269048   5.180   4.643   4.648  0.5142 -0.2841 -0.7982
15853TIP3   OH269049   1.513   2.510   4.384  0.2194 -0.0687  0.2569
15853TIP3    H169050   1.534   2.455   4.308 -1.5108 -3.6612  2.1192
15853TIP3    H269051   1.567   2.475   4.455 -0.5099  1.0688  1.4296
15854TIP3   OH269052   2.302   0.163  16.280  0.3586  0.3423 -0.3797
15854TIP3    H169053   2.364   0.199  16.343 -1.7706 -0.0862  2.1178
15854TIP3    H269054   2.224   0.219  16.289 -0.9197 -1.3128 -0.6796
15855TIP3   OH269055   2.348   5.747  15.704 -0.1481  0.3181  0.6350
15855TIP3    H169056   2.306   5.795  15.633  0.7097  2.6731  1.6076
15855TIP3    H269057   2.379   5.666  15.663 -1.8028  0.4725 -1.0689
15856TIP3   OH269058   3.778   2.465   0.802  0.4167  0.6882 -0.9459
15856TIP3    H169059   3.783   2.421   0.718 -1.5970 -0.4437 -0.5495
15856TIP3    H269060   3.777   2.394   0.866  1.2875  1.5092  0.0190
15857TIP3   OH269061   6.818   0.179  14.038 -0.1726 -0.2091 -0.0021
15857TIP3    H169062   6.868   0.228  13.973 -1.4887  0.7364 -0.3446
15857TIP3    H269063   6.763   0.245  14.081 -1.2880 -1.2261  0.1877
15858TIP3   OH269064   0.463   3.727  12.329 -0.1154 -0.2264  0.1233
15858TIP3    H169065   0.425   3.656  12.277 -0.6254  0.9176 -1.1519
15858TIP3    H269066   0.543   3.690  12.366 -0.8951 -1.7579  0.3499
15859TIP3   OH269067   6.382   6.214  15.425 -0.0362  0.2166 -0.2134
15859TIP3    H169068   6.463   6.237  15.470  0.7537  1.3376 -2.1235
15859TIP3    H269069   6.398   6.126  15.391  0.5850  0.6335 -1.0177
15860TIP3   OH269070   2.844   6.314  16.760 -0.3480  0.2162  0.2128
15860TIP3    H169071   2.907   6.385  16.767 -1.7090  1.3942  1.1642
15860TIP3    H269072   2.823   6.292  16.851 -0.1025 -1.2983 -0.0610
15861TIP3   OH269073   4.721   0.686   4.321  0.1218  0.2377 -0.1534
15861TIP3    H169074   4.686   0.724   4.241  0.6536 -1.0612 -1.0395
15861TIP3    H269075   4.659   0.713   4.390 -1.5300 -0.3516 -1.3396
15862TIP3   OH269076   5.472   1.624   2.682  0.9343  0.3425 -0.3177
15862TIP3    H169077   5.551   1.617   2.736  2.3043  0.7300 -2.1658
15862TIP3    H269078   5.491   1.571   2.605 -1.1465 -0.5695 -0.2492
15863TIP3   OH269079   2.261   5.477  11.721 -0.4614  0.7640 -0.7578
15863TIP3    H169080   2.342   5.475  11.670  0.3075  0.8122  0.4258
15863TIP3    H269081   2.194   5.503  11.658  0.4695  0.9303 -1.7150
15864TIP3   OH269082   5.966   0.132  14.902  0.3984  0.6529  0.1829
15864TIP3    H169083   5.922   0.173  14.977  0.0017  1.9676 -0.7450
15864TIP3    H269084   6.059   0.138  14.922  0.2707 -0.5294  1.3239
15865TIP3   OH269085   5.511   0.977  12.473 -0.0937  0.0276  0.2576
15865TIP3    H169086   5.573   1.025  12.528 -0.1217  0.8798 -0.4341
15865TIP3    H269087   5.437   1.037  12.462 -0.4351 -0.4431 -0.0641
15866TIP3   OH269088   3.780   4.769   4.558 -0.1606 -0.7379 -0.0383
15866TIP3    H169089   3.779   4.837   4.625 -0.0217 -1.1341  0.3729
15866TIP3    H269090   3.809   4.813   4.479  0.0862 -0.3558  0.2651
15867TIP3   OH269091   5.095   4.107  14.401  0.6549  0.3407 -0.7693
15867TIP3    H169092   5.161   4.072  14.342 -0.3996 -1.4661 -0.9375
15867TIP3    H269093   5.132   4.096  14.489  0.7541 -0.2651 -0.8859
15868TIP3   OH269094   4.457   2.422  13.927  0.5184  0.3222  0.2339
15868TIP3    H169095   4.514   2.472  13.869 -0.1275 -1.2859 -1.9510
15868TIP3    H269096   4.368   2.450  13.904  0.2689 -0.0056  0.7779
15869TIP3   OH269097   5.184   2.159   1.282 -0.5009 -0.1574  0.4119
15869TIP3    H169098   5.093   2.157   1.254 -0.4936 -2.8160  0.3455
15869TIP3    H269099   5.234   2.158   1.200 -0.3262  2.3432  0.4136
15870TIP3   OH269100   2.469   1.941  15.183 -0.2263  0.2138  0.2297
15870TIP3    H169101   2.409   1.969  15.252 -0.9254 -1.7873  0.5058
15870TIP3    H269102   2.463   1.846  15.184  2.3749 -0.0196 -0.2907
15871TIP3   OH269103   3.120   4.262  13.987 -0.2865  0.0209 -1.0567
15871TIP3    H169104   3.057   4.235  13.921  0.3592 -2.7825 -0.6297
15871TIP3    H269105   3.103   4.205  14.062  2.2308 -0.3407 -0.6533
15872TIP3   OH269106   2.964   0.797  14.603 -0.2246 -0.3298  0.3585
15872TIP3    H169107   2.886   0.804  14.549 -0.6725  1.4401  1.1332
15872TIP3    H269108   2.934   0.752  14.683  0.3969 -2.7846 -0.6970
15873TIP3   OH269109   0.928   4.917  14.646  0.3798 -0.1237  0.6583
15873TIP3    H169110   0.988   4.981  14.682  1.0989 -1.2223  1.4914
15873TIP3    H269111   0.975   4.878  14.573  0.6102 -0.8113  1.1575
15874TIP3   OH269112   1.836   6.062   0.127 -0.2910 -0.0172 -0.1898
15874TIP3    H169113   1.887   6.142   0.114 -0.3068  0.2389  1.2512
15874TIP3    H269114   1.783   6.079   0.205 -0.7453 -1.2090 -0.2210
15875TIP3   OH269115   0.608   5.569   0.092 -0.1152 -0.6811 -0.1750
15875TIP3    H169116   0.545   5.641   0.086 -1.7776 -2.0650  0.1555
15875TIP3    H269117   0.690   5.612   0.116 -0.8646  1.1959 -0.7949
15876TIP3   OH269118   4.809   4.006  14.411 -0.3204  0.6514  0.7759
15876TIP3    H169119   4.905   4.001  14.407 -0.3509 -2.1245  1.1818
15876TIP3    H269120   4.791   4.049  14.494  0.6812 -1.3100  2.1027
15877TIP3   OH269121   3.302   5.146  11.748 -0.0916  0.1767  0.1052
15877TIP3    H169122   3.210   5.149  11.773 -0.4653 -0.9272 -1.0464
15877TIP3    H269123   3.319   5.233  11.711 -0.8144  0.2218 -0.1419
15878TIP3   OH269124   0.646   1.905  13.185  0.0387  0.4849 -0.2371
15878TIP3    H169125   0.696   1.857  13.118  0.9282  1.6496 -0.4288
15878TIP3    H269126   0.562   1.859  13.189  0.7355 -0.8846 -0.6489
15879TIP3   OH269127   1.971   5.360  14.125 -0.7329  0.5437  0.1360
15879TIP3    H169128   1.931   5.326  14.045 -0.7348  1.4001 -0.2402
15879TIP3    H269129   1.899   5.399  14.174 -1.0336 -1.4329  1.3786
15880TIP3   OH269130   3.397   2.625  15.339 -0.1389  0.1403  0.2951
15880TIP3    H169131   3.406   2.706  15.388 -0.6354 -0.4870  1.4471
15880TIP3    H269132   3.367   2.560  15.403 -0.4801 -0.7819 -0.7538
15881TIP3   OH269133   3.876   6.697  14.361 -0.2599 -0.1965  0.1864
15881TIP3    H169134   3.953   6.641  14.373 -0.0296  0.3544  1.4609
15881TIP3    H269135   3.861   6.697  14.266  0.5754 -1.2796  0.0372
15882TIP3   OH269136   3.745   0.918  11.296 -0.0719 -0.3927  0.5222
15882TIP3    H169137   3.692   0.868  11.234  0.0683  0.9404 -0.7133
15882TIP3    H269138   3.836   0.898  11.271 -0.0112 -0.2141  0.6016
15883TIP3   OH269139   6.095   0.300  16.394  0.0398 -0.2397  0.0756
15883TIP3    H169140   6.109   0.322  16.302  0.0261  0.2573  0.1863
15883TIP3    H269141   6.119   0.380  16.441 -0.8040 -0.1896  0.4394
15884TIP3   OH269142   0.324   0.684   3.095  0.2458 -0.0482  0.5900
15884TIP3    H169143   0.263   0.735   3.042 -0.8409 -1.4278  0.4392
15884TIP3    H269144   0.387   0.748   3.128 -0.0156  1.1087 -1.0042
15885TIP3   OH269145   3.901   6.089   6.260 -0.3778 -0.7419  0.2354
15885TIP3    H169146   3.850   6.012   6.234 -1.1982  0.0414 -0.5205
15885TIP3    H269147   3.849   6.129   6.330 -1.0206  0.2714 -0.7950
15886TIP3   OH269148   4.518   4.531  11.773 -0.1218  0.1521  0.2774
15886TIP3    H169149   4.520   4.467  11.702 -0.7822  0.8308 -0.3718
15886TIP3    H269150   4.504   4.615  11.729 -1.6962  0.4491  1.2736
15887TIP3   OH269151   1.246   5.969   3.122  0.1266  0.8555  0.1911
15887TIP3    H169152   1.334   5.957   3.086 -0.1056  1.3361 -0.5853
15887TIP3    H269153   1.207   6.036   3.065 -1.3618 -0.6005 -0.6061
15888TIP3   OH269154   3.653   5.303  14.415  0.4646  0.3317  0.3820
15888TIP3    H169155   3.584   5.243  14.441  1.5129 -1.4753 -0.7863
15888TIP3    H269156   3.732   5.268  14.456  0.8708  1.8059  0.9146
15889TIP3   OH269157   0.294   4.526  13.384 -0.4840  0.4854 -0.1219
15889TIP3    H169158   0.210   4.566  13.361 -0.4162  0.1156 -1.0635
15889TIP3    H269159   0.308   4.460  13.316  0.8042  0.8653 -0.2428
15890TIP3   OH269160   6.502   0.113   1.507  0.1115  0.8428 -0.6011
15890TIP3    H169161   6.437   0.042   1.508 -0.2743  1.1915  0.6048
15890TIP3    H269162   6.497   0.148   1.418  0.8098 -1.0744 -1.4595
15891TIP3   OH269163   4.818   6.493  13.383  0.9024  0.3036 -0.1301
15891TIP3    H169164   4.744   6.438  13.356  1.6641 -1.1337  0.6158
15891TIP3    H269165   4.869   6.504  13.303  0.7301 -0.0638 -0.2970
15892TIP3   OH269166   2.170   6.285  16.606  0.4861  0.2695  0.7029
15892TIP3    H169167   2.190   6.273  16.513  0.9322  0.7936  0.7271
15892TIP3    H269168   2.088   6.334  16.607 -0.1294 -0.7357  0.5960
15893TIP3   OH269169   5.166   6.169  11.733  0.0202  0.0514 -0.5966
15893TIP3    H169170   5.154   6.203  11.821  0.8390 -0.6239 -0.2112
15893TIP3    H269171   5.168   6.074  11.743  2.7691 -0.0086 -0.9385
15894TIP3   OH269172   2.994   0.287  13.169 -0.0221  0.0593 -0.3486
15894TIP3    H169173   2.955   0.318  13.251 -0.3958  1.9774 -1.1925
15894TIP3    H269174   3.082   0.324  13.169  0.0488 -0.1073 -0.7264
15895TIP3   OH269175   2.960   1.486   2.048 -0.3423  0.1758  0.2444
15895TIP3    H169176   3.028   1.418   2.046 -0.5573 -0.0548  0.6920
15895TIP3    H269177   2.957   1.519   1.958  0.0906 -0.0823  0.1313
15896TIP3   OH269178   4.696   3.720   3.413 -0.1721 -0.1024 -0.2833
15896TIP3    H169179   4.749   3.679   3.481 -1.5573 -1.7299 -0.1165
15896TIP3    H269180   4.744   3.704   3.332  0.7310  0.5030  0.1186
15897TIP3   OH269181   3.906   0.456  16.601  0.2291  0.3556  0.7391
15897TIP3    H169182   3.831   0.397  16.597  0.7441 -0.2565 -0.2735
15897TIP3    H269183   3.982   0.400  16.583  0.6848  1.3756 -0.6946
15898TIP3   OH269184   4.878   2.789  13.815 -0.2109 -0.0775 -0.2627
15898TIP3    H169185   4.932   2.867  13.822  0.6895 -0.7139  0.1994
15898TIP3    H269186   4.828   2.800  13.735 -0.0968  0.9633 -0.1986
15899TIP3   OH269187   3.746   5.441   1.148  0.6252 -0.1355  0.0111
15899TIP3    H169188   3.799   5.403   1.078  2.4603 -0.4044  1.4612
15899TIP3    H269189   3.703   5.366   1.189 -0.5798  0.0383 -0.8769
15900TIP3   OH269190   5.152   1.769  12.635  0.2421 -0.4352  0.4157
15900TIP3    H169191   5.210   1.817  12.576 -0.6350 -2.1803 -2.0267
15900TIP3    H269192   5.144   1.826  12.712  3.9911  0.4904  0.2987
15901TIP3   OH269193   0.227   2.907   3.783 -0.4584 -0.3468  0.4786
15901TIP3    H169194   0.145   2.863   3.761 -1.2434  1.1524  0.2791
15901TIP3    H269195   0.282   2.896   3.705 -0.3913 -1.4721  0.6657
15902TIP3   OH269196   4.434   5.466   4.176 -0.1610  0.3696  0.5767
15902TIP3    H169197   4.498   5.528   4.210  0.1721 -0.3105  1.2405
15902TIP3    H269198   4.366   5.520   4.136  2.5585  1.1357 -3.6537
15903TIP3   OH269199   1.962   0.369  11.569 -0.4472 -0.1648 -0.2796
15903TIP3    H169200   2.054   0.367  11.543 -0.6083 -3.4984 -1.0279
15903TIP3    H269201   1.914   0.384  11.488 -0.6364  0.3124 -0.0858
15904TIP3   OH269202   5.589   0.817  16.466  0.0306  0.8690 -0.2773
15904TIP3    H169203   5.678   0.839  16.438 -0.5270  2.9018 -0.5785
15904TIP3    H269204   5.572   0.732  16.425  2.3392 -0.3207  1.0415
15905TIP3   OH269205   4.275   2.046   4.690 -0.4281  0.2026 -0.1622
15905TIP3    H169206   4.346   2.110   4.682  0.7601 -1.0007  0.3714
15905TIP3    H269207   4.319   1.961   4.684 -1.1453 -0.7349  4.1488
15906TIP3   OH269208   0.744   4.172  12.915  0.0705  0.0858 -0.2884
15906TIP3    H169209   0.822   4.207  12.958  0.2885  0.9549 -1.3587
15906TIP3    H269210   0.711   4.105  12.976  0.7518  0.7998  0.8993
15907TIP3   OH269211   5.271   5.718  13.371 -0.2405 -0.5749 -0.5788
15907TIP3    H169212   5.304   5.693  13.457 -0.6362  2.9021  0.7492
15907TIP3    H269213   5.176   5.716  13.381 -0.3332  2.8337  0.2092
15908TIP3   OH269214   3.512   6.307  14.777 -0.4188  0.4230 -0.1298
15908TIP3    H169215   3.576   6.357  14.727 -0.6416  1.2824  0.4404
15908TIP3    H269216   3.528   6.331  14.868 -1.3346  0.3938  0.0439
15909TIP3   OH269217   1.514   5.813  11.899 -0.5155 -0.6379  0.2152
15909TIP3    H169218   1.460   5.800  11.977 -2.0197  1.5705 -0.3813
15909TIP3    H269219   1.483   5.895  11.861  3.5792  1.0600  0.0669
15910TIP3   OH269220   0.964   5.535  12.630 -0.3267  0.0918  0.2461
15910TIP3    H169221   0.889   5.484  12.600  0.1505 -0.5610  0.1480
15910TIP3    H269222   0.925   5.614  12.669 -1.0958 -0.6756  1.0665
15911TIP3   OH269223   6.439   4.187  13.403 -0.0092 -0.6102  0.4654
15911TIP3    H169224   6.486   4.105  13.391  1.0049 -0.2959  1.9466
15911TIP3    H269225   6.347   4.162  13.404  0.2280 -1.5490 -0.3295
15912TIP3   OH269226   0.705   1.609   2.243  0.2824 -0.1330 -0.4534
15912TIP3    H169227   0.656   1.662   2.306  0.0566 -1.0337  0.1386
15912TIP3    H269228   0.652   1.613   2.163  0.8747  1.5110 -0.8099
15913TIP3   OH269229   5.573   3.074  16.174 -0.4724  0.4955  0.2764
15913TIP3    H169230   5.610   2.985  16.172  0.1516  0.6887 -3.2779
15913TIP3    H269231   5.489   3.063  16.219  0.1167 -1.6603  0.9968
15914TIP3   OH269232   6.029   0.836   0.654 -0.5714 -0.0811  0.0127
15914TIP3    H169233   6.093   0.902   0.679 -0.6951 -0.4355  1.3455
15914TIP3    H269234   6.069   0.753   0.681 -1.2978 -0.3585  0.2682
15915TIP3   OH269235   5.968   1.396  13.264  0.2725  0.5617  0.4051
15915TIP3    H169236   5.943   1.379  13.355  2.6200  2.2840  1.4987
15915TIP3    H269237   5.987   1.310  13.228  1.4029 -0.0506  2.2805
15916TIP3   OH269238   1.693   3.586  11.137  0.3320 -0.0964  0.1334
15916TIP3    H169239   1.694   3.658  11.200  0.3446  0.3584 -0.3847
15916TIP3    H269240   1.654   3.513  11.186 -1.3243  0.7486  0.1290
15917TIP3   OH269241   6.011   6.049   3.853 -0.1413  0.2397 -0.3522
15917TIP3    H169242   6.061   6.128   3.874  1.4415 -0.8867  0.3374
15917TIP3    H269243   5.960   6.031   3.932  2.3869 -1.4729  1.0286
15918TIP3   OH269244   2.797   0.925  16.323 -0.3146 -0.5069  0.1471
15918TIP3    H169245   2.793   1.021  16.314 -1.3450 -0.4691  0.8181
15918TIP3    H269246   2.871   0.910  16.382 -1.5062  0.0432  1.8527
15919TIP3   OH269247   1.138   0.931  12.600 -0.1494 -0.0921 -0.5803
15919TIP3    H169248   1.153   0.838  12.584 -0.6526  0.0120 -1.7561
15919TIP3    H269249   1.070   0.955  12.537  1.2804  1.4765 -1.6153
15920TIP3   OH269250   2.907   5.207   3.365  0.2688  0.1827 -0.4411
15920TIP3    H169251   2.888   5.182   3.456  2.4338 -1.6612 -0.3962
15920TIP3    H269252   3.002   5.219   3.364  0.0242  2.3814 -2.0087
15921TIP3   OH269253   5.683   0.949  14.579  0.1853  0.1970  0.1631
15921TIP3    H169254   5.601   0.932  14.532  0.3424  0.6857 -0.2912
15921TIP3    H269255   5.662   1.021  14.639  0.3454  0.4933 -0.1332
15922TIP3   OH269256   1.209   1.904  10.664 -0.0143  0.1096  0.3131
15922TIP3    H169257   1.240   1.852  10.590 -0.4061 -1.3835  1.1541
15922TIP3    H269258   1.276   1.892  10.732 -2.0832 -2.9237  2.0496
15923TIP3   OH269259   5.710   6.450  14.473 -0.0910  0.1251  0.0643
15923TIP3    H169260   5.671   6.479  14.555  1.0772 -0.5659  0.9142
15923TIP3    H269261   5.659   6.492  14.404 -0.1540  1.9538  1.1702
15924TIP3   OH269262   5.529   5.567  12.670  0.0420  0.0672  0.5415
15924TIP3    H169263   5.503   5.508  12.599 -0.6649  0.2556  0.6294
15924TIP3    H269264   5.446   5.598  12.706  0.3742  1.8967 -0.1458
15925TIP3   OH269265   0.464   3.529   0.996 -0.3481  0.0146 -0.6091
15925TIP3    H169266   0.408   3.456   1.022 -0.7755  0.1879 -1.0387
15925TIP3    H269267   0.403   3.600   0.974 -0.0908 -0.5138 -3.3819
15926TIP3   OH269268   1.573   3.607  14.299 -0.0364  0.3926 -0.9086
15926TIP3    H169269   1.609   3.614  14.387  2.2062 -0.8720 -1.6285
15926TIP3    H269270   1.584   3.514  14.277 -1.2110  0.5515 -2.2583
15927TIP3   OH269271   3.515   1.665  13.068  0.5686  0.1734 -0.3882
15927TIP3    H169272   3.555   1.745  13.102  1.0018 -0.4505  0.5965
15927TIP3    H269273   3.454   1.638  13.136 -0.1962  0.1095 -1.0846
15928TIP3   OH269274   2.240   2.653   1.939 -0.1249 -0.2482  0.2433
15928TIP3    H169275   2.286   2.644   2.023 -1.3961 -1.5616  0.8478
15928TIP3    H269276   2.309   2.650   1.873  0.7851 -0.5929  1.1876
15929TIP3   OH269277   3.628   2.791   5.389  0.0254  0.2720 -0.1730
15929TIP3    H169278   3.562   2.722   5.378  0.5389 -0.4214  0.9771
15929TIP3    H269279   3.711   2.745   5.390  0.3186  0.7504  1.6471
15930TIP3   OH269280   5.923   2.466  16.627  0.0339 -0.3221  0.4894
15930TIP3    H169281   5.830   2.445  16.633  0.1427 -0.7652  0.6748
15930TIP3    H269282   5.935   2.496  16.537 -0.1026 -1.2025  0.1664
15931TIP3   OH269283   6.203   5.519   6.548  0.0333  0.3491  0.0441
15931TIP3    H169284   6.181   5.484   6.462  0.5569  0.3272 -0.0857
15931TIP3    H269285   6.257   5.451   6.589  1.2354  1.0621 -0.2920
15932TIP3   OH269286   3.185   1.270   0.211  0.4731 -0.0860  0.2909
15932TIP3    H169287   3.108   1.327   0.208 -1.1993 -2.2377 -0.5065
15932TIP3    H269288   3.229   1.285   0.127 -1.0782 -1.3441 -0.8022
15933TIP3   OH269289   1.490   6.250  15.782  0.3655  0.1308 -0.2147
15933TIP3    H169290   1.414   6.265  15.838  1.2571  1.3136  0.7261
15933TIP3    H269291   1.518   6.161  15.803  1.1296  0.7922  1.8585
15934TIP3   OH269292   1.955   4.365   5.309  0.0626  0.0643 -0.7631
15934TIP3    H169293   1.882   4.427   5.309 -0.6274 -0.7257 -0.4475
15934TIP3    H269294   1.982   4.361   5.401  1.1502  1.0743 -1.0161
15935TIP3   OH269295   6.048   1.803  16.875  0.2795  0.3762 -0.1774
15935TIP3    H169296   6.105   1.748  16.929 -1.1951 -3.1119 -1.8734
15935TIP3    H269297   6.090   1.805  16.790 -1.3286 -1.0761 -1.0645
15936TIP3   OH269298   5.704   2.498   5.311 -0.0652  0.5037  0.0541
15936TIP3    H169299   5.660   2.570   5.355 -1.1989 -0.3424  0.3556
15936TIP3    H269300   5.783   2.483   5.363 -0.2981  0.9291  0.5417
15937TIP3   OH269301   0.831   2.593   3.854  0.1482 -0.1339 -0.6942
15937TIP3    H169302   0.814   2.571   3.946 -1.0876  0.0470 -0.8597
15937TIP3    H269303   0.911   2.545   3.832  1.2358  0.8914  0.8501
15938TIP3   OH269304   4.396   4.464  14.199  0.1026  0.2301  0.1976
15938TIP3    H169305   4.337   4.409  14.148  1.7831 -1.2013 -0.3090
15938TIP3    H269306   4.483   4.428  14.182  0.9491  1.0241  2.4174
15939TIP3   OH269307   1.799   0.090   2.635 -0.2808  0.1586 -0.2307
15939TIP3    H169308   1.843   0.117   2.716  0.2741 -0.4984 -0.3083
15939TIP3    H269309   1.845   0.137   2.566  1.1512 -1.4666 -0.4369
15940TIP3   OH269310   5.696   4.485   1.164  0.2088 -0.6541  0.0872
15940TIP3    H169311   5.690   4.524   1.076 -2.6977 -0.8334  0.1138
15940TIP3    H269312   5.686   4.391   1.149 -0.6372 -0.6538  0.6074
15941TIP3   OH269313   1.883   2.821  11.853 -0.5929 -0.3012 -0.2063
15941TIP3    H169314   1.812   2.884  11.840  0.4821  0.6918 -1.4119
15941TIP3    H269315   1.928   2.852  11.932 -0.9274 -0.4083  0.0316
15942TIP3   OH269316   2.848   5.070   5.295 -0.0605  0.3371  0.0747
15942TIP3    H169317   2.857   5.031   5.382  0.1183 -0.8291 -0.4492
15942TIP3    H269318   2.766   5.034   5.261  0.2291  0.2283 -0.5148
15943TIP3   OH269319   3.677   1.458   3.321  0.1037 -0.1260 -0.2702
15943TIP3    H169320   3.652   1.388   3.380 -0.8070  0.5396  0.1483
15943TIP3    H269321   3.734   1.514   3.373 -1.3010  0.8684  0.2383
15944TIP3   OH269322   1.354   3.652  13.365  0.3536  0.7077  0.4061
15944TIP3    H169323   1.410   3.590  13.411  2.2933  2.5195  0.6423
15944TIP3    H269324   1.270   3.647  13.410  0.8483 -0.8097  1.2060
15945TIP3   OH269325   5.465   6.342   6.067  0.3234  0.3551  0.1680
15945TIP3    H169326   5.468   6.266   6.125  0.4321 -1.2027 -1.7467
15945TIP3    H269327   5.530   6.322   5.999 -0.8498  1.3342 -1.3137
15946TIP3   OH269328   0.123   5.194   5.868  0.1228  0.2857 -0.2952
15946TIP3    H169329   0.147   5.104   5.892 -0.4690 -0.0113 -0.7844
15946TIP3    H269330   0.131   5.243   5.949  1.5823  0.0404 -0.2612
15947TIP3   OH269331   3.461   0.406   5.911 -0.1418 -0.5965 -0.2189
15947TIP3    H169332   3.507   0.468   5.967 -1.2762 -0.9025  1.0905
15947TIP3    H269333   3.475   0.439   5.822 -0.9694  1.7531  0.4426
15948TIP3   OH269334   6.227   2.140   2.011  0.4615 -0.1232 -0.3213
15948TIP3    H169335   6.143   2.116   2.050 -0.6825  1.2406 -1.8040
15948TIP3    H269336   6.273   2.187   2.080 -0.4452  0.0521  0.1754
15949TIP3   OH269337   6.660   3.348  12.277 -0.0690 -0.2271  0.2598
15949TIP3    H169338   6.566   3.337  12.266 -0.0765 -0.7545  0.7925
15949TIP3    H269339   6.671   3.366  12.371  0.3804 -0.4076  0.2437
15950TIP3   OH269340   4.828   6.758  12.588 -0.0443  0.1057 -0.6397
15950TIP3    H169341   4.757   6.747  12.525  0.2933 -0.1051 -0.9856
15950TIP3    H269342   4.784   6.768  12.673 -0.5323  1.3610 -1.0323
15951TIP3   OH269343   1.875   1.318   6.852  0.1433  0.1167 -0.2453
15951TIP3    H169344   1.902   1.249   6.790  0.3538  0.8353 -0.9680
15951TIP3    H269345   1.957   1.354   6.885  0.0418  0.4183 -0.3202
15952TIP3   OH269346   1.850   2.071  14.143 -0.2691 -0.0356  0.7072
15952TIP3    H169347   1.889   2.065  14.231 -2.3589  0.0570  1.7026
15952TIP3    H269348   1.911   2.025  14.087  0.5265 -1.2038  2.4389
15953TIP3   OH269349   4.932   3.739   2.405  0.4531 -0.5253 -0.1235
15953TIP3    H169350   4.849   3.766   2.445  0.3423  1.4142 -1.4928
15953TIP3    H269351   4.975   3.686   2.471 -0.6748  0.7100  1.6950
15954TIP3   OH269352   2.207   2.932   3.060  0.3215 -0.1218 -0.2259
15954TIP3    H169353   2.219   2.971   2.973  1.4729  1.9630  0.7792
15954TIP3    H269354   2.267   2.857   3.061 -1.5906 -1.7868 -2.0556
15955TIP3   OH269355   0.127   5.206   0.380 -0.0452 -0.5170 -1.1338
15955TIP3    H169356   0.055   5.183   0.321  0.0527 -1.3224 -0.9471
15955TIP3    H269357   0.152   5.123   0.421  1.2458 -0.3310 -1.4926
15956TIP3   OH269358   3.107   6.011  10.795 -0.0061 -0.1821  0.1559
15956TIP3    H169359   3.199   6.037  10.793 -0.2507  0.7049 -1.6249
15956TIP3    H269360   3.097   5.954  10.719 -0.5545 -1.7992  1.3707
15957TIP3   OH269361   0.668   1.357   1.193 -0.2970 -0.0316 -0.2336
15957TIP3    H169362   0.606   1.314   1.134 -1.0890 -0.0625  0.6063
15957TIP3    H269363   0.623   1.436   1.221  0.1571  0.0822  0.1836
15958TIP3   OH269364   4.878   2.563  14.379 -0.0814  0.2384 -0.0091
15958TIP3    H169365   4.888   2.478  14.335 -0.3651 -1.7528  3.3886
15958TIP3    H269366   4.784   2.581  14.373 -0.0197  0.3574 -0.7601
15959TIP3   OH269367   2.968   3.971  12.470 -0.0318 -0.1025  0.2602
15959TIP3    H169368   2.955   3.972  12.375 -2.1047  1.2255  0.4916
15959TIP3    H269369   2.890   3.926  12.504 -0.2975  1.1676  1.4185
15960TIP3   OH269370   3.987   4.385   0.170 -0.1470 -0.6131 -0.8453
15960TIP3    H169371   3.936   4.333   0.108  1.6437 -1.6552 -1.5234
15960TIP3    H269372   4.065   4.332   0.187  0.7180  0.9118  0.1553
15961TIP3   OH269373   4.194   5.110  14.997 -0.2192 -0.1155 -0.1457
15961TIP3    H169374   4.269   5.090  15.054 -0.6375 -0.9949  0.1016
15961TIP3    H269375   4.212   5.063  14.916  0.2509  0.9361 -0.6779
15962TIP3   OH269376   5.826   4.235   2.518 -0.4149 -0.3236  0.2522
15962TIP3    H169377   5.818   4.330   2.508  0.3036 -0.1738  0.9621
15962TIP3    H269378   5.738   4.202   2.501 -0.1468  0.1973 -2.6714
15963TIP3   OH269379   5.843   4.964  16.348 -0.4464  0.1214 -0.1469
15963TIP3    H169380   5.785   4.892  16.371 -0.5049  0.5397  1.0736
15963TIP3    H269381   5.925   4.944  16.392  0.7041 -0.9316 -2.5954
15964TIP3   OH269382   0.493   5.764   4.825 -0.3198  0.7895 -0.2720
15964TIP3    H169383   0.402   5.736   4.827 -0.2836  0.6391 -0.6455
15964TIP3    H269384   0.497   5.829   4.755 -0.2392  1.1554  0.0687
15965TIP3   OH269385   2.484   3.066   0.524  0.0663  0.1028 -0.2902
15965TIP3    H169386   2.394   3.098   0.512  0.2299  1.8738  2.5282
15965TIP3    H269387   2.481   3.018   0.607  1.2912 -1.7928 -1.2812
15966TIP3   OH269388   4.956   3.981  12.484  0.4640 -0.1378  0.0587
15966TIP3    H169389   4.889   3.916  12.507  0.5791  0.3104  1.7450
15966TIP3    H269390   5.039   3.937  12.502  0.5735  0.0205 -0.0637
15967TIP3   OH269391   5.093   1.852  12.258 -0.4550 -0.2149  0.4455
15967TIP3    H169392   5.184   1.827  12.269 -0.2546 -0.6257 -1.7300
15967TIP3    H269393   5.060   1.795  12.188 -2.3525  0.0065  1.0803
15968TIP3   OH269394   2.750   0.024   1.612 -0.4320 -0.3335  0.6979
15968TIP3    H169395   2.784  -0.054   1.655  0.4242  0.4467  1.4900
15968TIP3    H269396   2.725   0.081   1.685 -1.2150  0.0565  0.1284
15969TIP3   OH269397   6.398   1.123  12.188  0.5871 -0.3416 -0.2338
15969TIP3    H169398   6.461   1.073  12.239  0.1500  0.0141  0.6657
15969TIP3    H269399   6.402   1.212  12.222  1.5003  0.3359 -1.9597
15970TIP3   OH269400   0.441   4.156  13.509  0.5781  0.2757 -0.3024
15970TIP3    H169401   0.502   4.083  13.501 -0.7855 -1.0617  0.9057
15970TIP3    H269402   0.402   4.164  13.422 -1.2701 -2.3520  0.1561
15971TIP3   OH269403   5.683   6.042  14.479  0.1984  0.0680 -0.1340
15971TIP3    H169404   5.618   6.089  14.427 -0.8136 -0.3616  0.7040
15971TIP3    H269405   5.705   6.102  14.550  1.9928  0.8735 -1.3280
15972TIP3   OH269406   5.045   0.931  14.431 -0.4113  0.6362  0.5300
15972TIP3    H169407   5.074   0.845  14.400 -0.1453  0.5765  0.9361
15972TIP3    H269408   4.969   0.951  14.377 -0.0330  0.4781 -0.0759
15973TIP3   OH269409   4.975   6.325   3.746 -0.2835 -0.4134 -0.6620
15973TIP3    H169410   4.942   6.266   3.813  1.4869 -0.7248 -0.0115
15973TIP3    H269411   5.010   6.268   3.678  0.6081 -0.1422 -0.4533
15974TIP3   OH269412   1.905   1.952   4.957  0.0421  0.5043 -0.1891
15974TIP3    H169413   1.816   1.981   4.979  0.1904  0.5280  0.3945
15974TIP3    H269414   1.904   1.858   4.974  1.2766  1.0483  3.9709
15975TIP3   OH269415   0.705   3.023   2.999 -0.6040  0.1292  0.2114
15975TIP3    H169416   0.752   2.949   2.961  1.6917  1.7043 -0.2054
15975TIP3    H269417   0.616   3.016   2.964  0.6612 -0.0265 -3.2925
15976TIP3   OH269418   1.382   6.256   5.758  0.0414  0.4803 -0.7876
15976TIP3    H169419   1.296   6.280   5.793  0.9985  1.6954  0.8471
15976TIP3    H269420   1.364   6.229   5.668 -2.0821  0.4517 -0.4068
15977TIP3   OH269421   4.812   2.269  13.196  0.4454 -0.2433  0.3164
15977TIP3    H169422   4.847   2.182  13.214 -1.0777 -1.4799 -2.1506
15977TIP3    H269423   4.765   2.293  13.275  0.7060 -1.7784  0.9745
15978TIP3   OH269424   5.789   0.773   0.459 -0.2008  0.5119  0.5163
15978TIP3    H169425   5.723   0.711   0.490 -0.1197  0.4177  0.4992
15978TIP3    H269426   5.871   0.742   0.496  0.4510 -1.4052 -2.2467
15979TIP3   OH269427   5.830   3.878  15.013 -0.0332  0.2830  0.2458
15979TIP3    H169428   5.913   3.829  15.020 -0.1758  0.1777  1.4090
15979TIP3    H269429   5.857   3.970  15.013  0.0962  0.2523  0.7060
15980TIP3   OH269430   1.506   2.957  16.937  0.3193 -0.1559  0.3072
15980TIP3    H169431   1.467   2.946  16.851 -1.5717  0.6353  1.0076
15980TIP3    H269432   1.552   3.041  16.933 -1.4551  0.8733  0.6181
15981TIP3   OH269433   4.991   0.261   0.727 -0.1201  0.1646 -0.3823
15981TIP3    H169434   5.071   0.256   0.779 -1.0570 -2.2443  1.0204
15981TIP3    H269435   4.924   0.292   0.788 -0.9604 -1.3853 -0.4692
15982TIP3   OH269436   2.605   5.620   0.442  0.2005  0.4366  0.4682
15982TIP3    H169437   2.633   5.587   0.357  0.1871 -0.0274  0.6402
15982TIP3    H269438   2.512   5.601   0.447  0.3683 -0.3193  0.9324
15983TIP3   OH269439   5.897   1.596  13.081 -0.2957  0.8906  0.0326
15983TIP3    H169440   5.925   1.513  13.121  0.0337  0.5605 -0.8642
15983TIP3    H269441   5.808   1.609  13.114 -0.5837 -0.1354 -0.2823
15984TIP3   OH269442   1.245   0.565   0.131 -0.5706  0.8313  0.3972
15984TIP3    H169443   1.189   0.638   0.154  1.1325  2.4618 -0.3746
15984TIP3    H269444   1.320   0.571   0.190 -1.3308 -1.5984  1.7511
15985TIP3   OH269445   4.574   4.090   4.612  0.1292 -0.3658 -0.1528
15985TIP3    H169446   4.651   4.135   4.577 -0.2341 -0.3718 -0.9817
15985TIP3    H269447   4.500   4.147   4.589 -0.1125 -0.2917  0.7530
15986TIP3   OH269448   0.485   3.149   1.087  0.0454  0.7699 -0.2299
15986TIP3    H169449   0.553   3.084   1.069  1.5468  1.6862  1.8104
15986TIP3    H269450   0.454   3.175   1.001  2.1666  0.1973 -1.2374
15987TIP3   OH269451   3.730   6.332  14.526  0.3045  0.4766  0.2398
15987TIP3    H169452   3.675   6.255  14.540 -1.2794  1.4956 -0.1995
15987TIP3    H269453   3.776   6.314  14.444 -0.0422 -0.0098  0.1516
15988TIP3   OH269454   3.596   4.455   2.851  0.5483  0.1377  0.7023
15988TIP3    H169455   3.638   4.529   2.807 -0.6885  1.4916  1.7010
15988TIP3    H269456   3.596   4.479   2.944 -2.9136  0.5551  0.7321
15989TIP3   OH269457   3.692   0.722  15.175 -0.0784 -1.1517  0.4861
15989TIP3    H169458   3.695   0.780  15.099 -1.8956  0.3919  1.5019
15989TIP3    H269459   3.779   0.732  15.215 -0.1648  0.4936  0.3367
15990TIP3   OH269460   1.528   4.912   1.240  0.0239 -0.4577 -0.3167
15990TIP3    H169461   1.446   4.940   1.200  0.2913  0.0704 -0.5004
15990TIP3    H269462   1.514   4.820   1.261 -0.4206 -0.5126 -0.8417
15991TIP3   OH269463   1.855   6.296  14.957  0.0806  0.2439  0.8010
15991TIP3    H169464   1.862   6.392  14.953  0.1002  0.2080 -0.1888
15991TIP3    H269465   1.940   6.268  14.991  0.0948  0.5728  1.0451
15992TIP3   OH269466   4.231   3.026  11.700 -0.2233 -0.1711  0.0872
15992TIP3    H169467   4.202   3.102  11.750 -1.3103 -0.9613  0.7190
15992TIP3    H269468   4.262   3.061  11.617  1.2538  1.1488  1.1341
15993TIP3   OH269469   4.917   1.725  13.491 -0.2589 -0.1007  0.0005
15993TIP3    H169470   4.828   1.699  13.516  0.2043 -0.3245  1.5804
15993TIP3    H269471   4.919   1.718  13.396 -2.0446  0.2843 -0.0958
15994TIP3   OH269472   2.552   0.213  16.388  0.6303  0.3613 -0.4471
15994TIP3    H169473   2.623   0.160  16.351  0.9279 -0.2504  0.9416
15994TIP3    H269474   2.595   0.290  16.424  0.1838  1.6689 -2.5638
15995TIP3   OH269475   4.628   6.725  13.279 -0.1672 -0.3747 -0.6147
15995TIP3    H169476   4.543   6.764  13.258  0.7324  0.4084 -3.1876
15995TIP3    H269477   4.666   6.785  13.344 -0.9737  0.0998 -0.5628
15996TIP3   OH269478   5.468   1.299   4.775  0.3325 -0.0429 -0.6706
15996TIP3    H169479   5.532   1.258   4.834 -0.1672 -0.6542 -0.5390
15996TIP3    H269480   5.396   1.237   4.772  1.1904 -1.0445 -3.5808
15997TIP3   OH269481   5.412   2.017   4.819  0.0066  0.5678  0.5697
15997TIP3    H169482   5.390   2.081   4.887 -0.1723  1.6649 -0.4794
15997TIP3    H269483   5.355   1.942   4.837  0.2715  0.6526  1.8739
15998TIP3   OH269484   5.410   5.098   5.738  0.5647 -0.0984 -0.4348
15998TIP3    H169485   5.432   5.091   5.831  0.6352  2.7369 -0.1288
15998TIP3    H269486   5.390   5.191   5.726  0.6136 -0.3745 -3.2867
15999TIP3   OH269487   2.630   0.837  15.431  0.3333 -0.5031  0.2390
15999TIP3    H169488   2.619   0.743  15.448  0.1577 -0.3511  0.9974
15999TIP3    H269489   2.623   0.878  15.517 -0.4350  0.2897 -0.1875
16000TIP3   OH269490   5.359   6.202   4.329 -0.3707 -0.7828  0.5351
16000TIP3    H169491   5.286   6.256   4.358 -2.1250 -2.4842 -0.4635
16000TIP3    H269492   5.378   6.232   4.241  0.6024  0.0815  1.0219
16001TIP3   OH269493   0.701   1.516   2.759  0.1577 -0.1350  0.1642
16001TIP3    H169494   0.721   1.606   2.733  1.9811 -0.1093  1.4833
16001TIP3    H269495   0.782   1.468   2.741 -0.5564 -1.3605  0.1522
16002TIP3   OH269496   3.016   3.765   0.693  0.1227  0.1571 -0.7699
16002TIP3    H169497   2.985   3.793   0.607  1.1120  1.3896 -0.7493
16002TIP3    H269498   3.110   3.751   0.682  0.0851 -0.7376 -0.1379
16003TIP3   OH269499   3.914   2.470   0.441  0.1462 -0.2594  0.0503
16003TIP3    H169500   3.957   2.511   0.366  0.2638 -0.4423  0.0200
16003TIP3    H269501   3.821   2.484   0.425  0.1113 -1.2124 -0.6522
16004TIP3   OH269502   2.543   2.126  14.523  0.1235 -0.7022  0.1815
16004TIP3    H169503   2.454   2.092  14.518  0.1806 -0.7127 -0.8964
16004TIP3    H269504   2.583   2.075  14.594 -0.5353 -1.1462  0.2491
16005TIP3   OH269505   4.439   5.796   5.075 -0.5238  0.2464 -0.4992
16005TIP3    H169506   4.377   5.766   5.142 -1.4113 -0.4455 -1.5961
16005TIP3    H269507   4.521   5.751   5.098 -1.0116 -0.5723 -0.2879
16006TIP3   OH269508   3.047   1.724   7.037 -0.2751 -0.7704 -0.1833
16006TIP3    H169509   3.033   1.630   7.029 -0.8445 -0.7406  0.4194
16006TIP3    H269510   3.137   1.738   7.007 -0.5642 -1.3537 -1.3465
16007TIP3   OH269511   4.696   5.940  12.652 -0.8262 -0.1232 -0.0674
16007TIP3    H169512   4.707   5.919  12.744 -1.0351 -0.5250 -0.1320
16007TIP3    H269513   4.651   6.025  12.652 -0.5874  0.0041  0.1963
16008TIP3   OH269514   0.376   5.513  14.465  0.0216  0.3187 -0.5052
16008TIP3    H169515   0.310   5.494  14.398  0.0124  1.6677 -0.9015
16008TIP3    H269516   0.325   5.522  14.546  0.1123 -2.0985 -0.1156
16009TIP3   OH269517   0.702   0.236  15.146 -0.2299  0.0035  0.2267
16009TIP3    H169518   0.657   0.211  15.226  0.5094  0.6400  0.8600
16009TIP3    H269519   0.705   0.156  15.093 -1.6250 -0.1702  0.3809
16010TIP3   OH269520   4.631   6.693   4.407  0.2039 -0.3251  0.1955
16010TIP3    H169521   4.705   6.726   4.356  0.0410 -0.9012 -0.4226
16010TIP3    H269522   4.654   6.603   4.428  0.1306 -0.1885  0.8927
16011TIP3   OH269523   4.729   5.963  12.939  0.7019 -0.3308 -0.0411
16011TIP3    H169524   4.741   5.869  12.955  0.2484 -0.2572  0.8008
16011TIP3    H269525   4.806   6.004  12.979 -0.6400 -0.1125  2.4813
16012TIP3   OH269526   5.450   3.101   2.754  0.1456 -0.3328 -0.0067
16012TIP3    H169527   5.447   3.079   2.661 -1.2993 -0.4367  0.0460
16012TIP3    H269528   5.400   3.032   2.796  0.2899  0.0399  0.7908
16013TIP3   OH269529   0.428   6.219   5.308 -0.4423 -0.5487  0.7129
16013TIP3    H169530   0.456   6.134   5.340  0.2258 -0.1805  1.1280
16013TIP3    H269531   0.450   6.280   5.379  0.2691  0.1580 -0.0987
16014TIP3   OH269532   0.911   0.190  10.861  0.0806 -0.4120  0.5577
16014TIP3    H169533   0.896   0.284  10.861 -0.8914 -0.5555  0.9534
16014TIP3    H269534   1.003   0.180  10.836  0.4518  0.6707  1.4392
16015TIP3   OH269535   2.785   2.267   2.672  0.0018  0.1167  0.0184
16015TIP3    H169536   2.860   2.325   2.658 -0.4582  0.3986 -1.4441
16015TIP3    H269537   2.728   2.317   2.732  0.3859  0.4454  0.1160
16016TIP3   OH269538   1.139   0.939   5.055 -0.1694  0.2400 -0.2432
16016TIP3    H169539   1.081   0.892   5.115  0.0570  0.3158  0.0375
16016TIP3    H269540   1.214   0.881   5.044  0.7675  1.1257  1.2208
16017TIP3   OH269541   4.047   5.125  12.510 -0.3673  0.6889  0.0853
16017TIP3    H169542   4.008   5.200  12.463  1.6960  1.7834  0.0247
16017TIP3    H269543   3.991   5.115  12.587 -2.6382  0.1386 -1.5091
16018TIP3   OH269544   2.616   2.467   0.572  0.5217 -0.7839  0.2178
16018TIP3    H169545   2.700   2.490   0.613 -0.4282  1.2880  1.1459
16018TIP3    H269546   2.565   2.428   0.642  0.5274 -1.6484 -0.2429
16019TIP3   OH269547   2.171   1.920  11.162 -0.4101 -0.3266 -0.2967
16019TIP3    H169548   2.245   1.963  11.206  0.4937 -1.1797 -0.9418
16019TIP3    H269549   2.151   1.977  11.088 -2.9740  1.9728  1.9711
16020TIP3   OH269550   5.337   4.428   0.138 -0.8513  0.2125  0.0903
16020TIP3    H169551   5.366   4.405   0.226 -2.7461  1.4459  1.1239
16020TIP3    H269552   5.418   4.441   0.088  0.4417  2.6493  2.5411
16021TIP3   OH269553   1.046   1.438   3.054  0.2059 -0.0593  0.0131
16021TIP3    H169554   1.006   1.523   3.035 -0.0887 -0.6295 -2.0920
16021TIP3    H269555   0.972   1.377   3.051  0.7662 -0.7042 -0.8522
16022TIP3   OH269556   0.999   6.496   1.911  0.7670 -0.3777  0.2498
16022TIP3    H169557   1.094   6.511   1.911  0.7332 -0.0589 -1.2975
16022TIP3    H269558   0.961   6.581   1.889  0.1608 -0.7420 -0.1256
16023TIP3   OH269559   2.831   1.987  10.966  0.5012 -0.0774 -0.3593
16023TIP3    H169560   2.791   1.902  10.983  0.8110 -0.0260  0.6482
16023TIP3    H269561   2.798   2.012  10.879 -1.5809 -0.0700  0.3958
16024TIP3   OH269562   1.898   1.799  16.729 -0.3997  0.1347 -0.4435
16024TIP3    H169563   1.939   1.741  16.665 -2.3118  2.0900 -3.7435
16024TIP3    H269564   1.929   1.886  16.704 -0.8300  0.9584  1.7195
16025TIP3   OH269565   4.247   2.182   1.621 -0.2059 -0.3043 -0.5542
16025TIP3    H169566   4.286   2.201   1.706  0.8033 -1.6120 -0.6862
16025TIP3    H269567   4.170   2.128   1.641  0.3653 -1.1135 -0.4713
16026TIP3   OH269568   5.782   4.422   3.108 -0.3471  0.1191  0.1373
16026TIP3    H169569   5.802   4.336   3.145  0.9897  0.5107  0.3544
16026TIP3    H269570   5.865   4.453   3.072 -0.5349  1.8394  1.1028
16027TIP3   OH269571   3.314   6.639  11.512 -0.4395  0.1392 -0.2023
16027TIP3    H169572   3.358   6.707  11.563  1.3873 -2.6550  2.2823
16027TIP3    H269573   3.354   6.645  11.425  1.8339  0.4441  0.7790
16028TIP3   OH269574   5.295   2.381  16.154 -0.2625 -0.2759  0.1562
16028TIP3    H169575   5.244   2.414  16.080 -2.0682 -2.8641  0.1193
16028TIP3    H269576   5.385   2.376  16.120 -0.3719  1.9027 -0.6357
16029TIP3   OH269577   3.473   4.375  11.860  0.1952  0.0323 -0.0051
16029TIP3    H169578   3.444   4.314  11.792 -1.2603  0.6286  0.0305
16029TIP3    H269579   3.462   4.461  11.820 -0.2116  0.3663  0.7962
16030TIP3   OH269580   2.643   4.508   0.801 -0.1603 -0.5274 -0.4121
16030TIP3    H169581   2.663   4.600   0.783 -2.0626 -0.2455 -1.3725
16030TIP3    H269582   2.686   4.460   0.730  0.0269 -0.2940 -0.4584
16031TIP3   OH269583   4.999   5.635  13.800  0.4638  0.6225 -0.5579
16031TIP3    H169584   5.090   5.658  13.782  0.6131 -0.1076 -0.7501
16031TIP3    H269585   4.954   5.646  13.717  0.9489 -1.7398 -1.2109
16032TIP3   OH269586   3.071   0.084   5.415  0.1142  0.3483  0.0351
16032TIP3    H169587   3.061   0.010   5.354 -2.1336 -0.0019  0.7453
16032TIP3    H269588   2.990   0.134   5.406  1.3043  2.3972  0.0807
16033TIP3   OH269589   0.275   2.244  14.362  0.1395  0.2592 -0.3423
16033TIP3    H169590   0.236   2.163  14.330 -0.1352  0.0712  0.4481
16033TIP3    H269591   0.206   2.285  14.414  0.1464  1.1983 -1.0530
16034TIP3   OH269592   4.155   2.645   1.809 -0.0986  0.8076  0.1175
16034TIP3    H169593   4.185   2.581   1.744 -1.6239  1.3194 -1.1721
16034TIP3    H269594   4.200   2.622   1.889  2.2694  0.4444 -1.2381
16035TIP3   OH269595   6.619   3.563  10.190  0.0762 -0.4924 -0.6334
16035TIP3    H169596   6.650   3.641  10.235  2.0610 -0.9167 -1.1326
16035TIP3    H269597   6.548   3.594  10.134 -0.3852  0.5902  0.5005
16036TIP3   OH269598   2.844   1.721  16.264  0.7374 -0.7059  0.3139
16036TIP3    H169599   2.766   1.675  16.297  0.1863  0.7723  1.1849
16036TIP3    H269600   2.845   1.702  16.170 -1.5117  0.3621  0.0116
16037TIP3   OH269601   4.541   0.861  15.921 -0.3188  0.2865  0.3218
16037TIP3    H169602   4.481   0.922  15.963  1.9206  2.4251  0.6749
16037TIP3    H269603   4.546   0.891  15.830 -2.6517 -2.3158 -0.8062
16038TIP3   OH269604   0.785   3.302  16.212 -0.0700  0.1425 -0.1072
16038TIP3    H169605   0.714   3.339  16.264  0.2191 -1.0622  1.2106
16038TIP3    H269606   0.825   3.378  16.168 -1.0726  1.0425  0.5011
16039TIP3   OH269607   2.041   3.201  12.903 -0.3214  0.1717  0.0515
16039TIP3    H169608   2.028   3.293  12.924 -0.1370  0.2626 -0.2351
16039TIP3    H269609   2.124   3.178  12.945 -0.7117 -0.0496  0.7174
16040TIP3   OH269610   6.358   4.526  11.370 -0.0603 -0.2015  0.3206
16040TIP3    H169611   6.386   4.515  11.279  0.6979 -0.6328  0.5949
16040TIP3    H269612   6.379   4.617  11.392  0.1003 -0.2062  0.1814
16041TIP3   OH269613   5.838   2.924  14.600 -0.6274 -0.1079 -0.0517
16041TIP3    H169614   5.781   2.978  14.545 -0.1014 -0.3576 -0.8576
16041TIP3    H269615   5.891   2.986  14.650 -1.8867  0.1378  1.0373
16042TIP3   OH269616   6.680   0.567   3.916  0.8960  0.1997  0.0306
16042TIP3    H169617   6.625   0.576   3.994  2.9203  0.4354  1.5171
16042TIP3    H269618   6.669   0.476   3.889  1.8006 -0.5594  1.9732
16043TIP3   OH269619   2.082   0.288  12.114 -0.3041  0.2727  0.2094
16043TIP3    H169620   2.012   0.309  12.053 -0.5212 -0.3585  0.2363
16043TIP3    H269621   2.127   0.214  12.074  1.0314  1.3437 -0.3528
16044TIP3   OH269622   5.611   4.693  13.874 -0.1671  0.6734 -0.1768
16044TIP3    H169623   5.688   4.676  13.928  0.0705  2.3093  0.0211
16044TIP3    H269624   5.537   4.670  13.931  0.1235  0.9450  0.3137
16045TIP3   OH269625   6.613   3.137   1.414 -0.2872 -0.0558  0.1322
16045TIP3    H169626   6.608   3.223   1.456 -1.6063 -0.8652  1.7599
16045TIP3    H269627   6.641   3.078   1.485  0.3140 -1.0164 -0.8771
16046TIP3   OH269628   1.432   1.301  11.432  0.3470  0.1423  0.0912
16046TIP3    H169629   1.365   1.347  11.382  1.5854  0.5154 -1.2923
16046TIP3    H269630   1.475   1.370  11.484  1.6843  0.5030 -1.3953
16047TIP3   OH269631   5.580   6.747  11.816 -0.1227 -0.4094  0.0418
16047TIP3    H169632   5.655   6.787  11.773 -1.0994  1.1570 -0.2976
16047TIP3    H269633   5.598   6.653  11.815  1.0156 -0.2117 -1.5997
16048TIP3   OH269634   1.210   6.116   3.482  0.0657 -0.1497 -0.4447
16048TIP3    H169635   1.117   6.097   3.470  0.0618 -0.9545  0.7024
16048TIP3    H269636   1.211   6.204   3.520 -0.3733 -0.8805  1.3733
16049TIP3   OH269637   4.773   2.405  10.841 -0.6970  0.3287  0.7401
16049TIP3    H169638   4.706   2.396  10.908  0.8039 -0.2216  2.2423
16049TIP3    H269639   4.814   2.490  10.858 -0.3416  0.2099  0.5001
16050TIP3   OH269640   0.331   0.301   4.482  0.0348  0.1549 -0.1134
16050TIP3    H169641   0.242   0.303   4.518 -0.3595  2.0090 -1.0704
16050TIP3    H269642   0.345   0.389   4.446  2.5980  0.1824  0.7495
16051TIP3   OH269643   4.161   3.130   2.881 -0.2933  0.0075 -0.5169
16051TIP3    H169644   4.222   3.181   2.829 -0.9146  0.4852 -0.7860
16051TIP3    H269645   4.145   3.184   2.959  0.4557 -0.6002  0.0714
16052TIP3   OH269646   5.120   4.204   1.896 -0.8922 -0.6422  0.3552
16052TIP3    H169647   5.141   4.168   1.810  1.0455  1.3618 -0.0842
16052TIP3    H269648   5.029   4.232   1.888 -0.7518 -0.5296 -1.0296
16053TIP3   OH269649   3.298   1.800  15.481 -0.3095 -0.4972  0.8243
16053TIP3    H169650   3.367   1.734  15.474 -0.8308 -1.4416  3.3899
16053TIP3    H269651   3.339   1.873  15.528 -0.8440 -0.7834  1.7583
16054TIP3   OH269652   6.469   2.954  16.453 -0.0664  0.2729 -0.0928
16054TIP3    H169653   6.427   2.982  16.372 -1.4597  0.9215  0.7976
16054TIP3    H269654   6.395   2.932  16.511  0.9128 -1.3554  0.5978
16055TIP3   OH269655   6.684   1.558  12.854  0.3338 -0.7511 -0.7549
16055TIP3    H169656   6.594   1.586  12.835 -0.3788 -1.1316  1.6768
16055TIP3    H269657   6.736   1.637  12.844 -0.5902 -0.0728 -0.3605
16056TIP3   OH269658   5.552   2.277  11.546  0.4200  0.2537  0.4247
16056TIP3    H169659   5.594   2.211  11.490  1.0085  2.1835 -1.5295
16056TIP3    H269660   5.624   2.327  11.584 -0.0338  1.1833  0.0956
16057TIP3   OH269661   5.933   1.754   5.248  0.8662 -0.0096 -0.2630
16057TIP3    H169662   5.855   1.739   5.302 -0.5431 -2.1773 -2.6884
16057TIP3    H269663   6.005   1.719   5.300 -0.3986 -1.8283  0.3524
16058TIP3   OH269664   1.233   1.843  13.050  0.0418  0.1989 -0.0730
16058TIP3    H169665   1.310   1.790  13.028 -0.5192 -0.7062  0.1036
16058TIP3    H269666   1.253   1.929  13.013  0.7670 -0.2532 -0.7968
16059TIP3   OH269667   3.851   2.948  13.744  0.1979  0.1963  0.0023
16059TIP3    H169668   3.764   2.942  13.705 -0.3240  0.3419  1.0849
16059TIP3    H269669   3.856   3.038  13.777  1.4676  0.7625 -1.6023
16060TIP3   OH269670   2.249   3.908   2.704 -0.6954 -0.2096  0.3916
16060TIP3    H169671   2.199   3.899   2.623  0.3643  0.8715 -0.4242
16060TIP3    H269672   2.261   3.818   2.735 -1.1833 -0.6365 -0.6101
16061TIP3   OH269673   5.272   5.803  14.479  0.0401 -0.0245 -0.8170
16061TIP3    H169674   5.320   5.751  14.544  1.6182  0.8082 -1.2576
16061TIP3    H269675   5.180   5.786  14.498  0.4762 -1.9497 -0.1275
16062TIP3   OH269676   4.537   1.008   4.960 -0.3763 -0.0931  0.5000
16062TIP3    H169677   4.490   0.950   5.020 -0.7131 -0.3247  0.0159
16062TIP3    H269678   4.534   1.094   5.002  2.0974 -0.7921  2.3907
16063TIP3   OH269679   3.088   0.466   3.655 -0.3012 -0.2239 -0.0197
16063TIP3    H169680   3.160   0.427   3.605  0.1400  0.8596 -0.2537
16063TIP3    H269681   3.046   0.391   3.698  1.1172 -0.8552  0.3302
16064TIP3   OH269682   0.236   5.444  10.606 -0.1056  0.4176 -0.2417
16064TIP3    H169683   0.242   5.350  10.625  0.4788  0.6368  0.7102
16064TIP3    H269684   0.143   5.466  10.620  0.2095  0.4934  2.1480
16065TIP3   OH269685   3.485   3.176   3.264  0.2897  0.4270 -0.7637
16065TIP3    H169686   3.410   3.193   3.207 -0.6520 -1.6832 -0.2325
16065TIP3    H269687   3.461   3.217   3.347 -0.6307 -0.7815 -0.3939
16066TIP3   OH269688   5.239   2.958  12.893  0.3330 -0.5060  0.2190
16066TIP3    H169689   5.260   2.998  12.809 -2.4311 -1.0271 -0.8080
16066TIP3    H269690   5.322   2.961  12.942  1.2400  2.7111 -1.2635
16067TIP3   OH269691   6.109   4.423  13.864 -0.0698  0.1642  0.3488
16067TIP3    H169692   6.197   4.446  13.894 -0.4004 -0.4733  1.9025
16067TIP3    H269693   6.053   4.493  13.897 -0.4398 -0.5410  1.2737
16068TIP3   OH269694   2.821   2.670   6.373  0.9266 -0.8106  0.0156
16068TIP3    H169695   2.795   2.727   6.446  0.6211  1.0445 -1.4822
16068TIP3    H269696   2.740   2.627   6.346  1.1466 -1.9862  1.1058
16069TIP3   OH269697   6.082   3.824   2.715 -0.2862  0.3074  0.2180
16069TIP3    H169698   6.172   3.831   2.747 -0.4118  0.4350  0.5466
16069TIP3    H269699   6.064   3.910   2.677 -0.4666  0.4733  0.6752
16070TIP3   OH269700   3.022   2.790   1.113  0.7272  0.2602 -0.0003
16070TIP3    H169701   3.072   2.723   1.158 -0.2650 -1.4030 -1.2391
16070TIP3    H269702   3.087   2.838   1.061  1.2223 -0.9975 -0.5703
16071TIP3   OH269703   5.287   2.160   2.386  0.3176 -0.3128  0.3378
16071TIP3    H169704   5.261   2.229   2.447  2.1415 -0.3033  1.1599
16071TIP3    H269705   5.323   2.091   2.442  1.4941 -0.5476 -0.6734
16072TIP3   OH269706   2.046   4.145  13.219 -0.4966 -0.6548  0.3511
16072TIP3    H169707   2.061   4.057  13.186  2.1589 -0.3938  0.6860
16072TIP3    H269708   2.062   4.203  13.145  1.2420 -0.3081  0.9520
16073TIP3   OH269709   0.135   5.788   3.973 -0.7175  0.7957  0.0033
16073TIP3    H169710   0.219   5.826   3.997 -0.7573  2.9771 -2.8036
16073TIP3    H269711   0.078   5.805   4.048  0.8669  0.7288  1.2816
16074TIP3   OH269712   4.377   6.597  14.216 -0.1926  0.0364  0.6361
16074TIP3    H169713   4.389   6.502  14.218  0.1247  0.0135 -0.8402
16074TIP3    H269714   4.373   6.623  14.308  0.0801 -1.3585  1.0675
16075TIP3   OH269715   4.477   4.219  11.864  0.4235  0.2509 -0.2664
16075TIP3    H169716   4.453   4.129  11.844  0.0402 -0.0446  1.3738
16075TIP3    H269717   4.502   4.256  11.780 -2.4334 -0.4453 -1.5665
16076TIP3   OH269718   4.917   0.760   5.168 -0.2965  0.3946  0.5766
16076TIP3    H169719   4.854   0.828   5.144  0.8821  1.0359 -0.8364
16076TIP3    H269720   4.974   0.802   5.232 -0.8211  0.0489  1.2876
16077TIP3   OH269721   5.151   2.933  15.774  0.2229  0.1170 -0.5910
16077TIP3    H169722   5.125   2.868  15.839  1.6837  0.4480  0.3909
16077TIP3    H269723   5.222   2.891  15.725 -0.1461  0.2657 -1.2639
16078TIP3   OH269724   3.361   3.394  13.285  0.0572 -0.0147  0.1633
16078TIP3    H169725   3.377   3.341  13.362  1.4091  0.5967  0.3241
16078TIP3    H269726   3.322   3.475  13.318  0.8767  0.3543  0.2467
16079TIP3   OH269727   3.620   3.638  12.492  0.3620 -0.1176  0.0931
16079TIP3    H169728   3.684   3.649  12.421  1.1465  0.0271  0.8147
16079TIP3    H269729   3.590   3.547  12.483  1.6390 -0.6004  0.5347
16080TIP3   OH269730   4.426   3.325   2.181  0.0831 -0.1674 -0.1425
16080TIP3    H169731   4.520   3.305   2.183  0.2885  0.5341 -1.5182
16080TIP3    H269732   4.384   3.241   2.200  0.9795 -0.5051  0.4434
16081TIP3   OH269733   1.692   5.639  13.887  0.1163  0.0932 -0.3240
16081TIP3    H169734   1.730   5.695  13.954 -2.0315 -0.2168  1.2730
16081TIP3    H269735   1.608   5.680  13.867 -0.4397 -1.2500 -0.8603
16082TIP3   OH269736   5.631   3.598  14.875  0.1840  0.6768  0.3200
16082TIP3    H169737   5.540   3.624  14.862  0.7370  1.4210 -2.9285
16082TIP3    H269738   5.636   3.507  14.846  0.6019  0.9013 -0.3470
16083TIP3   OH269739   0.732   0.760   3.801 -0.0436  0.2455  0.5915
16083TIP3    H169740   0.656   0.795   3.755  0.5237 -1.0502 -1.4776
16083TIP3    H269741   0.710   0.668   3.816  0.6920  0.1220  0.9595
16084TIP3   OH269742   1.483   0.643  15.320 -0.0604 -0.3416 -0.7038
16084TIP3    H169743   1.458   0.605  15.404 -2.6692  1.5699 -0.4766
16084TIP3    H269744   1.531   0.723  15.344 -0.1137 -0.2063 -1.0497
16085TIP3   OH269745   2.073   4.694  12.364 -0.0353 -0.3905  0.5439
16085TIP3    H169746   2.145   4.686  12.302 -0.1005  1.2632  0.2158
16085TIP3    H269747   2.018   4.617  12.348  0.4308 -0.4544 -0.8150
16086TIP3   OH269748   6.148   1.958  15.212 -0.3992 -0.4056 -0.0031
16086TIP3    H169749   6.117   2.036  15.259 -1.3156 -0.4907 -0.4272
16086TIP3    H269750   6.243   1.962  15.218 -0.4315  0.7574 -0.0235
16087TIP3   OH269751   2.250   0.991  15.791 -0.4508 -0.1306  0.2212
16087TIP3    H169752   2.208   0.986  15.877  2.0222 -1.4255  1.4470
16087TIP3    H269753   2.177   0.993  15.729 -2.3314 -1.6439  2.2206
16088TIP3   OH269754   5.721   6.465   6.145 -0.5629 -0.9635  0.4088
16088TIP3    H169755   5.704   6.373   6.125 -1.9728 -0.8108  0.7993
16088TIP3    H269756   5.660   6.486   6.215 -1.3810  0.6682 -0.7125
16089TIP3   OH269757   5.610   5.850  15.440  0.0732  0.6599  0.0962
16089TIP3    H169758   5.618   5.806  15.525 -0.5063 -0.5288 -0.4485
16089TIP3    H269759   5.584   5.781  15.379  0.9206  1.4028 -1.1527
16090TIP3   OH269760   0.230   4.996  12.133 -0.2183 -0.0488 -0.0589
16090TIP3    H169761   0.216   5.087  12.160 -1.2220  0.0389 -0.7875
16090TIP3    H269762   0.315   4.972  12.169  0.1525  1.2520 -0.0352
16091TIP3   OH269763   5.773   0.165  11.731  0.1166 -0.9852  0.1823
16091TIP3    H169764   5.706   0.219  11.688  0.7928  0.5401  0.9445
16091TIP3    H269765   5.787   0.092  11.671  0.3424  0.5407 -1.7564
16092TIP3   OH269766   1.385   6.606  13.710 -0.0568 -0.0931 -0.0703
16092TIP3    H169767   1.426   6.636  13.629 -1.3161  0.4967 -0.5080
16092TIP3    H269768   1.358   6.516  13.691  0.5946 -0.3307  0.0738
16093TIP3   OH269769   6.207   0.261  14.620 -0.5127 -0.3464 -0.5792
16093TIP3    H169770   6.120   0.300  14.623  0.0709  1.1532 -1.8388
16093TIP3    H269771   6.219   0.237  14.528  0.4336 -0.4303 -0.4402
16094TIP3   OH269772   3.553   3.090  16.048 -0.4163 -0.3456 -0.4032
16094TIP3    H169773   3.524   3.045  15.968 -0.0207 -1.7467  0.2136
16094TIP3    H269774   3.648   3.083  16.046 -0.3548  0.4108 -0.2479
16095TIP3   OH269775   4.377   4.337   5.137 -0.3544 -0.0918 -0.1905
16095TIP3    H169776   4.340   4.336   5.226 -0.4626  0.7257 -0.2249
16095TIP3    H269777   4.439   4.264   5.137 -0.8442 -0.5214  0.3445
16096TIP3   OH269778   6.226   4.352   4.586  0.0415 -0.5113  0.3819
16096TIP3    H169779   6.203   4.376   4.496 -1.7763  0.0211  0.9417
16096TIP3    H269780   6.319   4.331   4.582 -0.0570 -0.7980 -1.6793
16097TIP3   OH269781   5.119   3.014   4.362 -0.1587 -0.0294 -0.1446
16097TIP3    H169782   5.167   2.943   4.405  0.1304 -1.0008 -1.9654
16097TIP3    H269783   5.051   3.038   4.425  1.4154 -0.0087  1.6486
16098TIP3   OH269784   2.353   6.716   3.845 -0.1405  0.2857  0.0802
16098TIP3    H169785   2.382   6.672   3.765 -0.7765  0.7312 -0.4064
16098TIP3    H269786   2.259   6.727   3.834 -0.0923  1.2105  0.4672
16099TIP3   OH269787   0.144   2.234  16.030  0.2471  0.6301 -0.2629
16099TIP3    H169788   0.138   2.203  16.120  0.2945 -0.4672 -0.6315
16099TIP3    H269789   0.163   2.156  15.978 -1.2965  0.9859 -1.4271
16100TIP3   OH269790   2.279   0.266  12.740  0.1472 -0.1521  0.1985
16100TIP3    H169791   2.324   0.343  12.774 -0.2041  0.7978 -1.3802
16100TIP3    H269792   2.349   0.202  12.725  0.4326 -0.2025  1.5806
16101TIP3   OH269793   4.411   0.879  11.205 -0.1453 -0.2423 -0.3198
16101TIP3    H169794   4.438   0.851  11.292 -1.3889 -0.9264 -0.1246
16101TIP3    H269795   4.333   0.934  11.221 -0.7592 -0.8829 -1.0208
16102TIP3   OH269796   5.122   4.129  10.695  0.3055 -0.9155 -0.8026
16102TIP3    H169797   5.058   4.058  10.694  1.4087 -2.0145  0.8868
16102TIP3    H269798   5.205   4.087  10.673  0.8683 -0.0358 -0.4224
16103TIP3   OH269799   4.138   5.529  14.807 -0.0831 -0.4294 -0.3388
16103TIP3    H169800   4.101   5.496  14.725 -0.9386  1.2649 -0.6873
16103TIP3    H269801   4.225   5.560  14.784 -0.0626 -0.5881 -0.4686
16104TIP3   OH269802   6.173   6.436   0.034 -0.3286  0.3432  0.1982
16104TIP3    H169803   6.240   6.487  -0.011  0.3554 -1.1586 -0.5580
16104TIP3    H269804   6.188   6.346   0.005 -0.6752 -0.4967  2.4555
16105TIP3   OH269805   1.011   5.672   1.295  0.0896 -0.6053  0.6922
16105TIP3    H169806   0.981   5.751   1.341 -0.4408  0.2994 -1.1150
16105TIP3    H269807   1.105   5.668   1.314  0.3673  1.1379 -0.0946
16106TIP3   OH269808   3.453   1.472   0.072 -0.2932  0.5909 -0.3120
16106TIP3    H169809   3.414   1.546   0.027 -1.1508  1.3743  1.6028
16106TIP3    H269810   3.396   1.398   0.051 -0.2805  0.7844 -1.0435
16107TIP3   OH269811   3.802   2.174   0.860  0.1648 -0.0641 -0.4523
16107TIP3    H169812   3.831   2.139   0.776  2.9085  1.7802 -0.3941
16107TIP3    H269813   3.865   2.137   0.924  2.1402  3.3602 -0.1791
16108TIP3   OH269814   4.235   4.974  11.734  0.0630  0.4647  0.2137
16108TIP3    H169815   4.193   4.949  11.652  1.8088 -1.8792 -0.0697
16108TIP3    H269816   4.169   4.959  11.801 -0.6715  0.2447 -0.5389
16109TIP3   OH269817   4.091   0.927   0.262  0.2965 -0.3784 -0.0646
16109TIP3    H169818   4.092   1.008   0.212  0.0895 -0.3671 -0.0503
16109TIP3    H269819   4.078   0.858   0.197  0.4599 -0.3994 -0.0753
16110TIP3   OH269820   6.056   1.743   1.909  0.4129 -0.1727  0.0945
16110TIP3    H169821   6.052   1.822   1.961  1.3457  0.1155 -0.2493
16110TIP3    H269822   5.983   1.751   1.847 -0.1223 -0.0808  0.7255
16111TIP3   OH269823   3.253   2.642  15.688  0.3773 -0.5414  0.2942
16111TIP3    H169824   3.282   2.688  15.767  0.4751  0.8815 -0.5415
16111TIP3    H269825   3.240   2.552  15.717  2.7094 -0.5961  1.4063
16112TIP3   OH269826   4.044   1.556   5.850  0.1778 -0.5382  0.2444
16112TIP3    H169827   4.026   1.586   5.761 -0.4777 -0.3364  0.4334
16112TIP3    H269828   4.121   1.500   5.842  2.0946  1.9917  0.0314
16113TIP3   OH269829   3.005   5.460   1.169  0.2681  0.3717 -0.1882
16113TIP3    H169830   2.928   5.458   1.112  0.5976  1.4507 -0.6951
16113TIP3    H269831   3.004   5.375   1.214 -0.3546 -0.2439 -1.3261
16114TIP3   OH269832   4.940   4.396   9.940 -0.0975  0.2795 -0.0741
16114TIP3    H169833   4.873   4.457   9.969 -0.4015  1.0060 -2.1372
16114TIP3    H269834   4.901   4.309   9.951 -1.3405  0.6833 -1.0633
16115TIP3   OH269835   1.066   6.412  11.951 -0.3206 -0.5653  0.3965
16115TIP3    H169836   1.157   6.388  11.934  0.0577  0.9902  0.0090
16115TIP3    H269837   1.015   6.334  11.929  0.7645 -0.8540 -1.2031
16116TIP3   OH269838   5.120   0.222  13.987  0.2564 -0.2831  0.4356
16116TIP3    H169839   5.030   0.250  13.969  0.6109 -0.3101 -1.5512
16116TIP3    H269840   5.114   0.127  13.998  0.4105 -0.7707 -2.8555
16117TIP3   OH269841   1.697   6.388   3.775 -0.1747  0.1867  0.5149
16117TIP3    H169842   1.682   6.311   3.830 -0.8774 -1.6424 -2.0121
16117TIP3    H269843   1.611   6.429   3.767 -0.2676 -0.0762  0.1085
16118TIP3   OH269844   6.726   3.004  11.633  0.0688  0.5968 -0.0546
16118TIP3    H169845   6.762   2.940  11.572 -1.1418  0.5674 -0.7636
16118TIP3    H269846   6.640   2.969  11.656  0.0870  1.1317  0.8804
16119TIP3   OH269847   2.272   1.861   5.459 -0.1613 -0.0354  0.3418
16119TIP3    H169848   2.311   1.943   5.489  0.6807 -0.4809  0.5070
16119TIP3    H269849   2.311   1.847   5.372  0.0456 -0.4786  0.5033
16120TIP3   OH269850   4.488   1.897  15.414 -0.2262 -0.0656  0.2621
16120TIP3    H169851   4.420   1.895  15.346  0.1801 -0.6466 -0.1386
16120TIP3    H269852   4.543   1.821  15.395  0.4757  0.3368  0.6473
16121TIP3   OH269853   4.841   3.978  12.076 -0.2834 -0.8581 -0.5747
16121TIP3    H169854   4.896   4.029  12.136 -0.5363 -0.6023 -0.5577
16121TIP3    H269855   4.833   3.893  12.118  0.1906 -0.9360 -0.6309
16122TIP3   OH269856   5.370   0.383   4.369 -0.3280 -0.4243 -0.0133
16122TIP3    H169857   5.353   0.303   4.319  0.8326 -0.4631 -0.3746
16122TIP3    H269858   5.465   0.385   4.379 -0.4141  0.4620  0.7501
16123TIP3   OH269859   3.408   3.927  14.712  0.0286 -0.3943  0.0131
16123TIP3    H169860   3.409   4.007  14.661  0.5246 -0.1576  0.3811
16123TIP3    H269861   3.493   3.886  14.694  1.4063  1.0004  2.6343
16124TIP3   OH269862   1.678   3.770   1.051 -0.7825 -0.0594 -0.3763
16124TIP3    H169863   1.656   3.686   1.009 -1.5949 -0.1070  0.1242
16124TIP3    H269864   1.630   3.768   1.133  0.4177  0.2390  0.3493
16125TIP3   OH269865   1.969   3.997  11.477  0.0494  0.2584 -0.8567
16125TIP3    H169866   1.958   3.990  11.382  2.1316 -1.3264 -1.0629
16125TIP3    H269867   2.031   4.069  11.488 -1.2499  1.3689 -0.5551
16126TIP3   OH269868   0.330   6.383   2.309 -0.0151  1.1022 -0.3447
16126TIP3    H169869   0.273   6.333   2.250  0.0992  1.1914 -0.5324
16126TIP3    H269870   0.364   6.318   2.371  1.5668  0.5793 -1.6745
16127TIP3   OH269871   6.332   3.992  11.857 -0.0550 -0.0856 -0.0713
16127TIP3    H169872   6.339   4.068  11.915 -0.0831 -1.0145  1.1956
16127TIP3    H269873   6.407   4.000  11.798 -0.0413  0.9034  0.0650
16128TIP3   OH269874   3.818   6.659   1.731  0.3183  0.1369 -0.3201
16128TIP3    H169875   3.899   6.697   1.698 -0.9665  2.6614 -0.8267
16128TIP3    H269876   3.815   6.685   1.823  0.9312 -1.5623  0.2103
16129TIP3   OH269877   3.971   3.039  14.039  0.2711 -0.7791  0.1559
16129TIP3    H169878   3.973   3.135  14.045 -1.8255 -0.6471 -0.6463
16129TIP3    H269879   3.952   3.010  14.128  1.2878 -0.4969  0.4830
16130TIP3   OH269880   3.376   0.929   5.485 -0.0062  0.3351  0.5372
16130TIP3    H169881   3.388   0.910   5.577 -0.7923 -0.6866  0.4440
16130TIP3    H269882   3.290   0.972   5.480 -0.0882  0.1472  0.2601
16131TIP3   OH269883   0.731   6.439  12.414  0.4275 -0.0026 -0.3161
16131TIP3    H169884   0.650   6.404  12.451  1.6837 -0.9468  1.7065
16131TIP3    H269885   0.729   6.412  12.322 -1.2095 -0.6382 -0.1227
16132TIP3   OH269886   1.970   5.433   4.346 -0.2147  0.8286 -0.2784
16132TIP3    H169887   1.875   5.442   4.352 -0.2216  1.3212 -0.9895
16132TIP3    H269888   1.994   5.481   4.267  0.3505 -1.2864 -1.4705
16133TIP3   OH269889   1.831   3.828   2.191  0.3914 -0.1474  0.3158
16133TIP3    H169890   1.810   3.735   2.186  1.8006 -0.4219 -1.0810
16133TIP3    H269891   1.815   3.861   2.103  2.0491  0.4290  0.2068
16134TIP3   OH269892   3.337   1.813   5.577  0.0856 -0.3508  0.1766
16134TIP3    H169893   3.261   1.840   5.525 -0.5230 -2.5507 -0.1389
16134TIP3    H269894   3.304   1.813   5.668 -0.2673 -1.2095  0.0507
16135TIP3   OH269895   3.790   2.020  15.802  0.2284  0.4121  0.6029
16135TIP3    H169896   3.835   2.088  15.853  0.7726  0.6853 -0.2337
16135TIP3    H269897   3.853   1.948  15.796  0.4142  0.6434 -0.2434
16136TIP3   OH269898   6.737   2.297   5.443 -0.0023 -0.4102 -0.1522
16136TIP3    H169899   6.795   2.286   5.368 -0.8085  0.3104 -0.9154
16136TIP3    H269900   6.674   2.363   5.414 -1.5819 -1.6191  0.4155
16137TIP3   OH269901   5.686   5.462   4.112  0.0173 -0.2043  0.0511
16137TIP3    H169902   5.764   5.511   4.087 -0.1095 -0.1498 -0.2557
16137TIP3    H269903   5.712   5.370   4.107  0.6305 -0.1629  1.8977
16138TIP3   OH269904   4.898   4.761  14.573 -0.0663  0.2733  0.0075
16138TIP3    H169905   4.960   4.812  14.625 -0.1538  0.5190 -0.1299
16138TIP3    H269906   4.932   4.671  14.577  0.3902  0.4336 -0.2066
16139TIP3   OH269907   3.889   3.460   1.078 -0.1757 -0.4504 -0.1866
16139TIP3    H169908   3.906   3.366   1.077  1.1275 -0.2259 -1.0687
16139TIP3    H269909   3.817   3.471   1.015 -0.1297 -0.8200 -0.3098
16140TIP3   OH269910   5.648   0.665  11.361 -0.3449 -0.0681 -0.0549
16140TIP3    H169911   5.647   0.702  11.273 -1.7058  2.3599  0.8813
16140TIP3    H269912   5.660   0.571  11.348 -0.4864  0.2280 -2.8039
16141TIP3   OH269913   2.665   5.441   3.572 -0.3234 -0.0354  0.0768
16141TIP3    H169914   2.585   5.395   3.549 -0.5267 -0.4050  1.4240
16141TIP3    H269915   2.636   5.526   3.604  0.0380  1.0278 -2.1895
16142TIP3   OH269916   3.961   2.599  14.492 -0.2288  0.2783  0.1796
16142TIP3    H169917   3.980   2.518  14.445  0.8314  1.3428 -1.3126
16142TIP3    H269918   4.046   2.630  14.523 -0.6734  0.6381  1.0724
16143TIP3   OH269919   2.283   0.612   5.364  0.0326  0.4915  0.4290
16143TIP3    H169920   2.338   0.566   5.300 -0.7155 -1.1466  0.9129
16143TIP3    H269921   2.288   0.558   5.442 -1.4459  0.8632  0.8078
16144TIP3   OH269922   0.460   6.239  15.779  0.6281  0.0187 -0.7905
16144TIP3    H169923   0.552   6.214  15.777  0.7167  0.2533  0.1631
16144TIP3    H269924   0.450   6.302  15.708  1.3591  0.5352 -0.4380
16145TIP3   OH269925   1.984   4.392   4.857  0.4019 -0.0315  0.4652
16145TIP3    H169926   1.943   4.479   4.859  1.9764  0.7518  0.4586
16145TIP3    H269927   2.046   4.394   4.930  1.6338 -0.5190 -0.5298
16146TIP3   OH269928   1.400   0.737  14.299 -0.0192  0.6245  0.3405
16146TIP3    H169929   1.470   0.748  14.363 -1.5160 -0.0534  2.1721
16146TIP3    H269930   1.321   0.766  14.344 -0.9937  1.1353 -1.5833
16147TIP3   OH269931   1.531   5.470  13.059  0.1125 -0.0197  0.1483
16147TIP3    H169932   1.621   5.448  13.034 -0.0318  0.5799 -0.9370
16147TIP3    H269933   1.504   5.537  12.997 -0.8267  0.3760  0.9455
16148TIP3   OH269934   6.559   5.179   4.137  0.1923 -0.5541 -0.0693
16148TIP3    H169935   6.502   5.236   4.084  2.6760  0.2437 -2.0949
16148TIP3    H269936   6.527   5.090   4.118 -0.1061 -0.1653 -1.5818
16149TIP3   OH269937   3.564   5.280  15.960 -0.1864 -0.5032 -0.2107
16149TIP3    H169938   3.553   5.306  16.051 -0.3414 -0.5500 -0.2149
16149TIP3    H269939   3.482   5.305  15.917 -0.4834 -1.3114 -0.1380
16150TIP3   OH269940   1.713   5.399   3.637 -0.2649  0.0617  0.4030
16150TIP3    H169941   1.748   5.409   3.726  1.2130  0.5198 -0.1990
16150TIP3    H269942   1.634   5.453   3.636  1.3125  2.5638  0.6132
16151TIP3   OH269943   3.534   4.530  16.169 -0.5446 -0.4621  0.2592
16151TIP3    H169944   3.520   4.590  16.096 -1.0348  1.1537  1.5956
16151TIP3    H269945   3.608   4.567  16.217 -1.3129 -0.4854  1.5126
16152TIP3   OH269946   4.599   6.646   2.311  0.2957  0.4651 -0.2999
16152TIP3    H169947   4.604   6.603   2.396 -1.3481  2.5088  0.9531
16152TIP3    H269948   4.675   6.704   2.309  0.1980  0.6051 -0.0803
16153TIP3   OH269949   5.973   4.107   6.657  0.1069 -0.3196 -0.1568
16153TIP3    H169950   5.923   4.188   6.661  0.0736 -0.2936  5.1882
16153TIP3    H269951   5.914   4.040   6.690  1.7796 -1.4411  0.7060
16154TIP3   OH269952   3.111   4.808  10.381 -0.5905 -0.0409  0.4758
16154TIP3    H169953   3.200   4.829  10.408 -0.3626 -0.5382  0.1373
16154TIP3    H269954   3.071   4.892  10.360  0.9563  0.0139 -2.8984
16155TIP3   OH269955   1.317   1.343   4.207  0.1335  0.0039 -0.2320
16155TIP3    H169956   1.335   1.403   4.135 -2.9805 -0.6176 -1.6935
16155TIP3    H269957   1.224   1.355   4.226  0.1457 -2.0841  1.6120
16156TIP3   OH269958   5.872   1.304  13.530 -0.0172 -0.5445  0.1352
16156TIP3    H169959   5.955   1.260  13.544 -0.5836 -1.4394  0.7504
16156TIP3    H269960   5.810   1.258  13.586 -0.7156  0.7928  0.5089
16157TIP3   OH269961   3.690   4.069   0.288  0.2381 -0.6048  0.5242
16157TIP3    H169962   3.730   4.094   0.372  0.7023  0.2319  0.0685
16157TIP3    H269963   3.596   4.077   0.303  0.3599  1.1456  0.5044
16158TIP3   OH269964   5.047   2.602   0.351  0.0838 -0.1417 -0.9045
16158TIP3    H169965   5.060   2.512   0.382 -0.4310 -0.6752 -2.1763
16158TIP3    H269966   5.123   2.619   0.296 -0.5937 -0.3997 -1.9554
16159TIP3   OH269967   4.353   1.807  14.633  0.7413  0.1997 -0.1170
16159TIP3    H169968   4.434   1.763  14.607  1.1253 -0.5438  2.1387
16159TIP3    H269969   4.335   1.867  14.561  0.9352 -2.6069 -2.7552
16160TIP3   OH269970   0.546   1.787  15.058 -0.3431  0.6343  0.6638
16160TIP3    H169971   0.539   1.878  15.031 -2.5774 -0.0433 -1.5173
16160TIP3    H269972   0.639   1.768  15.057  0.1532  2.8013  0.9580
16161TIP3   OH269973   0.971   6.646  10.883 -0.6489  0.7099 -0.0773
16161TIP3    H169974   1.036   6.578  10.867 -1.8541 -0.0614 -1.9775
16161TIP3    H269975   0.902   6.602  10.932  0.0140  1.4422  1.6164
16162TIP3   OH269976   5.289   1.807   3.496  0.1160 -0.4280  0.6938
16162TIP3    H169977   5.359   1.787   3.558 -0.1631  0.8921  1.4718
16162TIP3    H269978   5.336   1.832   3.416  0.4880 -1.2229  0.6439
16163TIP3   OH269979   0.245   6.282  14.271  0.0873  0.1440  0.1864
16163TIP3    H169980   0.337   6.302  14.288 -0.5020  1.9372  1.6147
16163TIP3    H269981   0.240   6.186  14.276  2.0117 -0.0605 -0.8659
16164TIP3   OH269982   4.831   6.002   0.650 -0.1485 -0.0429  0.1188
16164TIP3    H169983   4.781   6.041   0.721  0.5106 -0.5209  0.8641
16164TIP3    H269984   4.801   5.911   0.647 -0.1120 -0.0473 -0.1645
16165TIP3   OH269985   4.897   3.761  11.682  0.0364  0.0362 -0.5365
16165TIP3    H169986   4.837   3.819  11.728 -0.1236  0.0980 -0.8208
16165TIP3    H269987   4.975   3.815  11.666  0.2079 -0.0723 -0.0859
16166TIP3   OH269988   1.079   3.044  16.293  0.3927  0.5715  0.3396
16166TIP3    H169989   1.005   3.097  16.261  0.3878  1.6152  1.9561
16166TIP3    H269990   1.105   2.992  16.217 -2.1130  0.0197 -0.2504
16167TIP3   OH269991   6.732   5.864   3.789 -0.0734  0.4332 -0.6264
16167TIP3    H169992   6.754   5.804   3.861 -0.5631  0.5528 -0.3724
16167TIP3    H269993   6.709   5.946   3.833 -0.8703  0.3578 -0.8943
16168TIP3   OH269994   3.117   2.882  10.767  0.2813 -0.8259  0.2160
16168TIP3    H169995   3.056   2.820  10.806 -1.3329  0.3747 -0.3025
16168TIP3    H269996   3.108   2.868  10.672  1.2401 -1.0116  0.1391
16169TIP3   OH269997   3.397   5.499  11.426 -0.1737  0.4261 -0.0251
16169TIP3    H169998   3.420   5.443  11.352 -0.3101 -0.7900  0.8151
16169TIP3    H269999   3.460   5.474  11.494 -0.4728  1.0418  0.4802
16170TIP3   OH270000   3.387   1.994   4.712  0.3080 -0.1735 -0.3852
16170TIP3    H170001   3.461   2.047   4.682 -0.5861  1.1905 -0.2772
16170TIP3    H270002   3.408   1.972   4.803 -0.3037  1.9721  0.3352
16171TIP3   OH270003   5.048   1.195  16.015 -0.5837 -0.2944  0.2471
16171TIP3    H170004   5.070   1.225  16.103  1.3143 -1.2446  0.1629
16171TIP3    H270005   4.991   1.119  16.028  1.7621 -2.0782  0.8497
16172TIP3   OH270006   2.012   5.442  11.898  0.4384 -0.5933 -0.5698
16172TIP3    H170007   2.030   5.474  11.986  0.7334 -1.2114 -0.3983
16172TIP3    H270008   2.099   5.429  11.859  0.3326  1.5056 -1.6506
16173TIP3   OH270009   2.612   0.037  13.080 -0.7046  0.3263  0.3707
16173TIP3    H170010   2.623  -0.007  13.165 -1.2285  0.4368  0.4943
16173TIP3    H270011   2.597   0.129  13.102 -0.9880  0.3312  0.1640
16174TIP3   OH270012   0.935   6.460   2.839  0.0626 -0.1724  0.2913
16174TIP3    H170013   0.985   6.530   2.881 -0.9361 -0.1420  1.4808
16174TIP3    H270014   0.844   6.485   2.850 -0.2929 -1.3747  0.2305
16175TIP3   OH270015   6.580   1.460   1.274  0.4871  0.0614  0.3584
16175TIP3    H170016   6.611   1.426   1.190 -2.2349 -2.0769  0.0922
16175TIP3    H270017   6.661   1.477   1.323  2.2167  1.8300 -2.7194
16176TIP3   OH270018   6.542   1.691   5.906  0.1995 -0.1426 -0.2728
16176TIP3    H170019   6.552   1.784   5.886 -0.2225 -0.1504 -0.5349
16176TIP3    H270020   6.516   1.689   5.998 -1.0919  0.0871 -0.5981
16177TIP3   OH270021   5.938   0.451  11.513  0.7945  0.4719 -0.0044
16177TIP3    H170022   5.943   0.521  11.448 -3.7026 -1.3346 -2.7942
16177TIP3    H270023   5.999   0.385  11.482  1.5885  1.1995 -0.0366
16178TIP3   OH270024   6.216   0.595  14.842  0.0758 -0.1813 -0.0687
16178TIP3    H170025   6.146   0.549  14.889  1.1123 -1.2973  0.4243
16178TIP3    H270026   6.270   0.525  14.806  0.9813  0.6665 -0.3874
16179TIP3   OH270027   4.991   0.985   5.611 -0.2987  0.0899 -0.1035
16179TIP3    H170028   5.039   1.026   5.539 -1.4074  0.2723 -0.7656
16179TIP3    H270029   4.988   0.892   5.587  3.3607 -0.7515  2.0415
16180TIP3   OH270030   0.579   1.773  13.807  0.2414 -0.0658 -0.0160
16180TIP3    H170031   0.608   1.853  13.850 -1.0300 -0.0185  0.8029
16180TIP3    H270032   0.484   1.774  13.817  0.3286 -3.1046  2.6888
16181TIP3   OH270033   3.172   5.483  13.910  0.7493 -0.2670 -0.1073
16181TIP3    H170034   3.229   5.559  13.900  0.0189  0.2799 -0.1398
16181TIP3    H270035   3.096   5.502  13.855  0.9476 -1.4136 -0.8108
16182TIP3   OH270036   4.128   2.704  13.374  0.2548 -0.0967  0.5288
16182TIP3    H170037   4.038   2.737  13.370  0.2630 -0.1686 -0.4936
16182TIP3    H270038   4.139   2.675  13.465 -0.6131  0.2984  0.7701
16183TIP3   OH270039   5.264   5.373  13.717 -0.1296  0.2768 -0.1913
16183TIP3    H170040   5.297   5.283  13.711  0.4514  0.4052  0.7940
16183TIP3    H270041   5.179   5.364  13.760 -0.6133  0.1045 -1.1537
16184TIP3   OH270042   2.752   4.381   3.578  0.2165 -0.1242 -0.3596
16184TIP3    H170043   2.740   4.304   3.634  2.4628 -0.2648  0.0329
16184TIP3    H270044   2.751   4.454   3.639 -2.0774  0.2481 -0.7507
16185TIP3   OH270045   4.617   4.145   1.559  0.1462 -0.0002  0.0748
16185TIP3    H170046   4.639   4.222   1.612  0.5725 -1.1166  1.6109
16185TIP3    H270047   4.522   4.138   1.566 -0.1590  1.4771 -1.7324
16186TIP3   OH270048   3.419   0.033   4.246  0.4158  0.0096 -0.2232
16186TIP3    H170049   3.468   0.021   4.327  0.0423 -2.2011 -0.2773
16186TIP3    H270050   3.337   0.075   4.274 -0.1881 -1.7279  0.7606
16187TIP3   OH270051   1.886   4.873  12.549  0.2227  0.4111 -0.7313
16187TIP3    H170052   1.906   4.938  12.482  2.1500 -0.9382 -1.5657
16187TIP3    H270053   1.935   4.796  12.522  0.0894 -0.5656  1.6222
16188TIP3   OH270054   0.997   0.187   2.209  0.6799 -0.0596  0.0485
16188TIP3    H170055   0.984   0.207   2.301  0.2073  0.2652 -0.0809
16188TIP3    H270056   1.070   0.242   2.182  0.3144  0.4319  0.0443
16189TIP3   OH270057   3.721   1.832   4.375 -0.0952  0.1792 -0.1234
16189TIP3    H170058   3.801   1.883   4.383 -0.3300  0.5873 -0.3287
16189TIP3    H270059   3.686   1.856   4.289 -1.3460  1.3507  0.6698
16190TIP3   OH270060   4.289   0.441   0.985 -0.1741  0.5880  0.5247
16190TIP3    H170061   4.229   0.466   1.055 -0.0131  3.6351 -0.3015
16190TIP3    H270062   4.248   0.473   0.905  1.1044 -0.0471 -0.4213
16191TIP3   OH270063   4.436   2.297   4.304 -0.4342 -0.0464 -0.0285
16191TIP3    H170064   4.389   2.257   4.231 -0.0887  1.6770 -1.2504
16191TIP3    H270065   4.398   2.385   4.312  0.2865  0.1792  1.1589
16192TIP3   OH270066   2.079   0.050  11.308  0.5471  0.4168 -0.3284
16192TIP3    H170067   1.994   0.007  11.318  0.2796  1.2066  1.0203
16192TIP3    H270068   2.066   0.115  11.240 -0.1885  1.1331  0.4817
16193TIP3   OH270069   1.945   0.134   2.892  0.4965  0.1039 -0.2472
16193TIP3    H170070   1.910   0.175   2.971  0.5757 -1.5695  0.6907
16193TIP3    H270071   2.036   0.165   2.887  0.5696  0.0053  0.4623
16194TIP3   OH270072   3.495   1.687  14.728  0.0821 -0.5913 -0.6764
16194TIP3    H170073   3.401   1.684  14.709 -0.2720 -0.6362  0.9579
16194TIP3    H270074   3.516   1.780  14.732  0.3327 -0.5742 -1.9826
16195TIP3   OH270075   5.169   4.146   4.829 -0.3422 -0.0800  0.4346
16195TIP3    H170076   5.193   4.193   4.749 -2.8561  1.3350  0.4161
16195TIP3    H270077   5.164   4.214   4.896 -1.2195 -0.7763  1.0971
16196TIP3   OH270078   2.445   3.217   1.072  0.4508  0.4459 -0.6690
16196TIP3    H170079   2.497   3.179   1.001 -0.3050  1.9521 -2.0904
16196TIP3    H270080   2.388   3.145   1.101  1.2071 -0.3695 -1.1413
16197TIP3   OH270081   4.981   1.254  12.581 -0.8078  0.5901 -0.1922
16197TIP3    H170082   4.937   1.248  12.496  2.7593  1.1543 -2.2841
16197TIP3    H270083   5.013   1.345  12.584  1.8328 -0.2711  0.1770
16198TIP3   OH270084   0.622   5.483  15.659 -0.6086  0.3114 -0.4117
16198TIP3    H170085   0.563   5.417  15.624 -0.3951  0.5393 -1.2151
16198TIP3    H270086   0.626   5.464  15.753 -0.5622 -0.8075 -0.6260
16199TIP3   OH270087   0.300   2.902   1.903 -0.0012 -0.1623  0.4340
16199TIP3    H170088   0.312   2.808   1.917  0.4230 -0.1449  0.2007
16199TIP3    H270089   0.373   2.943   1.949  1.1350 -0.0807 -1.3257
16200TIP3   OH270090   4.698   6.259  17.079  0.3756  0.0304 -0.9168
16200TIP3    H170091   4.707   6.275  17.173  0.5797  1.0770 -1.1042
16200TIP3    H270092   4.639   6.183  17.073 -1.6746  1.4698  0.0264
16201TIP3   OH270093   1.202   0.696   2.430  0.6432  0.3191 -0.1004
16201TIP3    H170094   1.172   0.728   2.515  0.1597  1.2351 -0.5913
16201TIP3    H270095   1.136   0.632   2.404  2.5949 -2.6365  1.7389
16202TIP3   OH270096   0.739   5.299  16.536 -0.1714 -0.0948  0.5312
16202TIP3    H170097   0.728   5.205  16.553 -0.8594 -0.1121  0.0536
16202TIP3    H270098   0.807   5.327  16.597  1.0290 -1.1913 -0.2694
16203TIP3   OH270099   3.160   0.906  16.186 -0.3021  0.4594 -0.0237
16203TIP3    H170100   3.245   0.883  16.148 -0.3293 -1.7120  1.0983
16203TIP3    H270101   3.163   1.001  16.196  2.0290  0.4265  0.0727
16204TIP3   OH270102   2.624   0.748   0.297  0.4241  0.3774  0.5632
16204TIP3    H170103   2.581   0.687   0.237  0.6419 -2.1121  2.7326
16204TIP3    H270104   2.561   0.819   0.307  0.0881  0.5188 -1.9770
16205TIP3   OH270105   6.197   6.681  15.300  0.0549 -0.0671 -0.3478
16205TIP3    H170106   6.234   6.650  15.383  0.7975 -0.0747 -0.6735
16205TIP3    H270107   6.164   6.602  15.258 -0.4530 -0.0441  0.0023
16206TIP3   OH270108   2.574   4.158  13.142 -0.0655 -0.1965 -0.0037
16206TIP3    H170109   2.546   4.072  13.110  2.2025 -0.9399 -0.1378
16206TIP3    H270110   2.500   4.188  13.195 -0.8006 -2.4004  0.3452
16207TIP3   OH270111   1.613   3.378   4.770 -0.1348 -0.1324  0.1709
16207TIP3    H170112   1.525   3.410   4.787 -0.3402 -0.2406 -0.6320
16207TIP3    H270113   1.670   3.449   4.800 -0.5312  0.3172 -0.1099
16208TIP3   OH270114   3.964   4.070  16.686  0.1513  0.4290 -0.0138
16208TIP3    H170115   3.946   3.976  16.689  0.2380  0.4230  0.4809
16208TIP3    H270116   3.926   4.103  16.767  0.0300  0.8387 -0.2365
16209TIP3   OH270117   5.704   2.083  13.873 -0.0932  0.2234 -0.0799
16209TIP3    H170118   5.658   2.009  13.834 -2.3683  1.7049 -0.4191
16209TIP3    H270119   5.681   2.080  13.966 -1.0723  1.0320 -0.2709
16210TIP3   OH270120   5.269   3.766  16.028 -0.2919  0.3138 -0.2730
16210TIP3    H170121   5.221   3.775  16.111  1.2665 -0.5480  0.7617
16210TIP3    H270122   5.213   3.710  15.974 -0.5604 -0.4967  0.8222
16211TIP3   OH270123   0.185   2.588  13.673 -0.3302  0.6558 -0.7479
16211TIP3    H170124   0.280   2.601  13.666 -0.2562  0.2822 -0.5065
16211TIP3    H270125   0.170   2.502  13.633 -0.3143 -0.0995  0.7921
16212TIP3   OH270126   6.324   1.798  12.562 -0.3229  0.4826 -0.2593
16212TIP3    H170127   6.234   1.772  12.542  0.1845  0.1553 -2.4001
16212TIP3    H270128   6.378   1.739  12.510  1.0275  2.3001 -1.0354
16213TIP3   OH270129   2.573   5.060   3.313 -0.3720  0.0799 -0.2449
16213TIP3    H170130   2.646   5.108   3.275 -0.2821  1.4541  1.5518
16213TIP3    H270131   2.583   5.071   3.408 -3.0389  0.5868  0.0580
16214TIP3   OH270132   3.454   5.866   1.845 -0.0775 -0.4345  0.4643
16214TIP3    H170133   3.491   5.803   1.907  0.9490  1.6254  2.0515
16214TIP3    H270134   3.524   5.880   1.781  0.1604 -0.0365  0.8035
16215TIP3   OH270135   2.677   3.103   5.993  0.0316  0.0689 -0.5659
16215TIP3    H170136   2.606   3.164   5.974  0.6206  0.6277 -1.0541
16215TIP3    H270137   2.673   3.089   6.087  0.8257  2.1128 -0.1704
16216TIP3   OH270138   3.290   3.927  13.888 -0.9299  0.1607 -0.2689
16216TIP3    H170139   3.213   3.908  13.941 -1.0273 -1.6849 -1.0280
16216TIP3    H270140   3.361   3.880  13.931 -0.8440 -0.6670 -1.2911
16217TIP3   OH270141   0.574   3.944  12.609 -0.1485 -0.5004  0.3620
16217TIP3    H170142   0.484   3.936  12.578 -0.1482  1.6479 -0.3512
16217TIP3    H270143   0.610   4.017  12.559  1.9627 -1.2051  0.7397
16218TIP3   OH270144   6.823   1.609   0.232 -0.0127 -0.1828  0.2559
16218TIP3    H170145   6.883   1.679   0.204 -0.4127  0.5704  1.2035
16218TIP3    H270146   6.805   1.628   0.324 -3.5665  1.0475 -0.5085
16219TIP3   OH270147   4.519   1.222  14.503 -0.5913 -0.3040  0.6365
16219TIP3    H170148   4.553   1.232  14.592 -1.2122 -0.6780  0.9204
16219TIP3    H270149   4.478   1.136  14.503 -0.5506 -0.3249 -0.0315
16220TIP3   OH270150   1.102   6.284   5.855 -0.1937  0.3286 -0.5467
16220TIP3    H170151   1.051   6.363   5.869  0.7828  0.9698 -0.5112
16220TIP3    H270152   1.144   6.266   5.939  0.6274  0.5443 -0.8915
16221TIP3   OH270153   1.487   4.413  13.629  0.3843 -0.4479 -0.5892
16221TIP3    H170154   1.504   4.427  13.536  0.6622  0.3758 -0.4218
16221TIP3    H270155   1.573   4.412  13.670  0.3899 -2.6426 -0.5556
16222TIP3   OH270156   5.753   3.740  15.998  0.2910  0.9880  0.3317
16222TIP3    H170157   5.839   3.705  16.021 -0.9159 -0.5965  2.7946
16222TIP3    H270158   5.712   3.670  15.947  0.7355  2.1368 -1.7317
16223TIP3   OH270159   3.177   1.855  12.934 -0.2967  0.0810  0.5791
16223TIP3    H170160   3.270   1.874  12.931 -0.1694  0.2931  3.5010
16223TIP3    H270161   3.135   1.940  12.946 -0.9483  0.0110 -0.8676
16224TIP3   OH270162   1.363   3.136  16.082 -0.3573 -0.0205  0.1468
16224TIP3    H170163   1.311   3.211  16.111  0.4628  0.5343  0.1815
16224TIP3    H270164   1.304   3.061  16.094 -0.5367  0.3543  1.9029
16225TIP3   OH270165   3.923   4.006  15.659  0.0234  0.3656  0.4132
16225TIP3    H170166   3.864   3.949  15.708  0.3180 -1.3446 -1.1203
16225TIP3    H270167   4.009   3.992  15.700  0.2598 -1.0202 -0.4885
16226TIP3   OH270168   4.655   6.638  14.189  0.4018  0.0799 -0.4904
16226TIP3    H170169   4.661   6.548  14.219 -1.4494 -0.1349 -0.6274
16226TIP3    H270170   4.562   6.658  14.194  0.7648  1.9515 -0.5802
16227TIP3   OH270171   5.722   6.714  13.452 -0.2955  0.0184  0.0703
16227TIP3    H170172   5.675   6.783  13.498 -0.1146 -0.3838  0.8753
16227TIP3    H270173   5.691   6.721  13.361 -0.5078  0.9449  0.2027
16228TIP3   OH270174   0.466   0.692   5.836  0.2345  0.3580  0.2669
16228TIP3    H170175   0.477   0.641   5.917  3.1033 -2.2636 -1.5439
16228TIP3    H270176   0.380   0.667   5.804  0.2431 -0.8386  1.1021
16229TIP3   OH270177   2.223   3.752   3.648  1.0746 -0.4141 -0.8926
16229TIP3    H170178   2.130   3.743   3.631  1.0294 -0.3236 -0.7049
16229TIP3    H270179   2.236   3.709   3.732  1.2838 -0.8147 -1.1288
16230TIP3   OH270180   4.848   3.723  13.848  0.0649 -0.3590  0.0149
16230TIP3    H170181   4.774   3.762  13.803  1.1223  2.3854  0.5028
16230TIP3    H270182   4.923   3.739  13.791  0.7317 -0.5707  0.8151
16231TIP3   OH270183   4.322   1.073  16.712 -0.3556 -0.3017  0.1449
16231TIP3    H170184   4.413   1.052  16.694 -0.2390  0.0246  0.3332
16231TIP3    H270185   4.308   1.048  16.803  0.3669  2.2316  1.0371
16232TIP3   OH270186   2.822   6.695  16.830 -0.3160  0.3267  0.1920
16232TIP3    H170187   2.902   6.646  16.812 -0.1109  0.2713  1.2195
16232TIP3    H270188   2.836   6.735  16.916 -0.8808  1.3714 -0.1761
16233TIP3   OH270189   0.113   4.681  14.755 -0.0133 -0.1843  0.1696
16233TIP3    H170190   0.077   4.770  14.756  0.8767  0.2103 -0.6705
16233TIP3    H270191   0.040   4.626  14.727 -0.5882  0.2751  0.7471
16234TIP3   OH270192   1.453   2.060  11.378  0.8575 -0.0258 -0.2335
16234TIP3    H170193   1.426   1.986  11.323  0.0049  0.1678 -0.1032
16234TIP3    H270194   1.384   2.126  11.364  1.0018  0.2955  0.5241
16235TIP3   OH270195   4.398   3.489  10.324  0.5023 -0.0884 -0.3449
16235TIP3    H170196   4.457   3.414  10.326  0.1414 -0.3456  0.8538
16235TIP3    H270197   4.339   3.476  10.397 -0.3241  0.7645 -0.8385
16236TIP3   OH270198   6.552   4.147  15.891  0.0726  0.1556  0.1043
16236TIP3    H170199   6.546   4.243  15.892  1.5045  0.2892 -0.6478
16236TIP3    H270200   6.465   4.117  15.916 -0.3765  1.6545  0.4459
16237TIP3   OH270201   5.392   5.879  12.264 -0.4115  0.3536 -0.3314
16237TIP3    H170202   5.310   5.831  12.260 -0.7098  0.9091 -1.8223
16237TIP3    H270203   5.369   5.968  12.236  0.4791  0.8420  0.4199
16238TIP3   OH270204   4.737   4.434  15.844  0.1377  0.3030  0.3046
16238TIP3    H170205   4.719   4.523  15.874 -1.3038  0.0575  0.2123
16238TIP3    H270206   4.654   4.388  15.853  0.7973 -0.9764  0.1085
16239TIP3   OH270207   5.328   2.278   0.482  0.7214  0.5550 -0.1711
16239TIP3    H170208   5.410   2.229   0.469  0.6980  0.4614  0.0289
16239TIP3    H270209   5.262   2.225   0.437  1.0400  1.4890 -1.8091
16240TIP3   OH270210   5.287   1.958  14.748 -0.0061  0.0897 -0.9125
16240TIP3    H170211   5.360   2.002  14.706 -0.3710 -0.6327 -2.3858
16240TIP3    H270212   5.326   1.905  14.818  1.0778 -1.3430 -2.5385
16241TIP3   OH270213   0.350   0.224   2.497  0.8977 -0.3695  0.6643
16241TIP3    H170214   0.310   0.288   2.556 -1.1078 -0.1648 -0.8280
16241TIP3    H270215   0.381   0.154   2.555  1.2423  0.9416  2.1365
16242TIP3   OH270216   3.718   2.368  15.943 -0.7762  0.3921 -0.2529
16242TIP3    H170217   3.732   2.460  15.921 -3.0302  0.2779 -2.5340
16242TIP3    H270218   3.623   2.355  15.936 -0.3180 -2.8213 -3.3829
16243TIP3   OH270219   3.935   5.593   3.918 -0.5337 -0.4736  0.0056
16243TIP3    H170220   3.896   5.599   3.831 -1.1795  1.2333  0.3772
16243TIP3    H270221   3.863   5.611   3.979  0.6403  2.2612  0.7294
16244TIP3   OH270222   2.173   1.468  16.091 -0.4640  0.1054  0.7486
16244TIP3    H170223   2.230   1.513  16.153 -1.6216  1.5349  0.8222
16244TIP3    H270224   2.211   1.380  16.083  2.0526  1.1334  0.3986
16245TIP3   OH270225   0.656   2.826   3.798  0.6416  0.5872  0.2044
16245TIP3    H170226   0.723   2.772   3.841  0.6618  1.2674  1.0602
16245TIP3    H270227   0.673   2.815   3.705  1.3226 -0.0331  0.3870
16246TIP3   OH270228   0.383   6.515  14.858  0.2401 -0.0778 -0.3342
16246TIP3    H170229   0.442   6.544  14.928  0.8449 -1.2332 -0.3440
16246TIP3    H270230   0.296   6.520  14.897  0.6439 -1.6509  0.8877
16247TIP3   OH270231   4.134   2.789  14.623 -0.0722  0.2010  0.2276
16247TIP3    H170232   4.192   2.744  14.684  0.2215 -0.6028 -0.6423
16247TIP3    H270233   4.192   2.842  14.568 -0.3451  0.9972  0.6824
16248TIP3   OH270234   4.162   2.028  15.316 -0.0609 -0.2791 -0.0781
16248TIP3    H170235   4.091   2.087  15.290  0.0677 -0.2736 -0.4294
16248TIP3    H270236   4.187   1.984  15.234  1.4960  0.9534 -0.2936
16249TIP3   OH270237   1.248   4.596  10.295  0.0329  0.0537  0.3715
16249TIP3    H170238   1.200   4.541  10.356 -0.4402 -1.1292 -1.0083
16249TIP3    H270239   1.334   4.556  10.289  0.1097  0.2224  0.3597
16250TIP3   OH270240   4.315   4.169   6.269 -0.7720 -0.2316 -0.0815
16250TIP3    H170241   4.385   4.231   6.247 -0.7508  0.0426  0.7187
16250TIP3    H270242   4.353   4.114   6.337 -0.4562 -1.7754 -1.4468
16251TIP3   OH270243   5.399   4.184  14.386 -0.0158  0.2129 -0.1798
16251TIP3    H170244   5.367   4.121  14.322 -0.1574 -0.0536  0.1509
16251TIP3    H270245   5.416   4.132  14.465 -3.7910  1.0631  1.4168
16252TIP3   OH270246   0.350   6.239   1.600 -0.1420 -0.0533 -0.6708
16252TIP3    H170247   0.342   6.295   1.677  1.3950  0.0315 -0.5537
16252TIP3    H270248   0.318   6.293   1.528  1.8880  1.2615 -0.6581
16253TIP3   OH270249   0.532   3.448   5.155  0.3646  0.1656  0.2124
16253TIP3    H170250   0.438   3.445   5.172  0.4745 -1.5665  0.6997
16253TIP3    H270251   0.552   3.363   5.116  1.5047  1.0530 -1.2036
16254TIP3   OH270252   5.616   1.250  13.146 -0.7890 -0.0470  0.0072
16254TIP3    H170253   5.631   1.311  13.218 -1.5912  1.0234 -0.7023
16254TIP3    H270254   5.703   1.231  13.111 -0.4484 -0.0867  0.8471
16255TIP3   OH270255   5.967   5.233  14.471  0.3018 -0.3683  0.4666
16255TIP3    H170256   5.921   5.312  14.442  1.4168 -0.2338 -1.0848
16255TIP3    H270257   5.922   5.162  14.425  0.3516 -0.4617  0.5619
16256TIP3   OH270258   3.355   0.741   0.426 -0.1100  0.0379 -0.2162
16256TIP3    H170259   3.337   0.660   0.473  1.3412 -0.7519 -0.9309
16256TIP3    H270260   3.414   0.789   0.483  1.1926 -0.6649 -0.9079
16257TIP3   OH270261   6.248   3.977  15.440 -0.3033 -0.8357 -0.7449
16257TIP3    H170262   6.214   3.952  15.354 -0.0813  0.7311 -1.3214
16257TIP3    H270263   6.325   3.922  15.453  0.9067  0.3182 -2.5350
16258TIP3   OH270264   5.434   0.090   3.198 -0.0833  0.9137 -0.1743
16258TIP3    H170265   5.472   0.102   3.111 -0.0230 -1.3837 -0.5275
16258TIP3    H270266   5.506   0.106   3.259  0.1216  1.5751 -0.5794
16259TIP3   OH270267   1.197   6.191   1.401 -0.3476  0.7853 -0.3445
16259TIP3    H170268   1.284   6.190   1.361 -0.0102  1.4705  0.3329
16259TIP3    H270269   1.203   6.125   1.471 -0.9829 -0.5200 -1.4707
16260TIP3   OH270270   2.738   0.336   0.539  0.0859 -0.0853 -0.3044
16260TIP3    H170271   2.710   0.423   0.566  2.9228  0.9408 -0.3371
16260TIP3    H270272   2.728   0.335   0.443 -0.1710  0.0985 -0.2789
16261TIP3   OH270273   5.976   0.563   0.537  0.2564 -0.6552 -0.3683
16261TIP3    H170274   5.996   0.535   0.626 -1.3932 -3.1809 -0.7006
16261TIP3    H270275   6.061   0.569   0.494  0.9086 -2.1327  0.6437
16262TIP3   OH270276   4.758   2.888   0.534  0.4146 -0.3833  0.0062
16262TIP3    H170277   4.680   2.854   0.490 -0.3647 -0.1215  1.1310
16262TIP3    H270278   4.802   2.810   0.568 -0.1795 -0.4343  0.6744
16263TIP3   OH270279   4.139   5.913  11.447 -0.9775  0.1945  0.1678
16263TIP3    H170280   4.221   5.902  11.494 -0.8769  0.1691 -0.0121
16263TIP3    H270281   4.165   5.929  11.356 -1.1987 -1.8223 -0.3075
16264TIP3   OH270282   2.556   4.667  13.730 -0.4595 -0.4324  0.6191
16264TIP3    H170283   2.651   4.658  13.722 -0.4442 -1.3746  1.6217
16264TIP3    H270284   2.534   4.740  13.672  0.8125 -0.4969  0.0187
16265TIP3   OH270285   2.616   2.059  12.367  0.3788 -0.2274 -0.2655
16265TIP3    H170286   2.645   2.054  12.459 -1.2478  2.5824  0.5285
16265TIP3    H270287   2.681   2.115  12.325  0.6108 -0.7454 -0.5995
16266TIP3   OH270288   1.385   0.118  11.980 -0.2060  0.3823  0.4931
16266TIP3    H170289   1.394   0.162  12.064 -3.0850  2.0335  0.0831
16266TIP3    H270290   1.317   0.053  11.994 -0.0783  0.0536 -0.3334
16267TIP3   OH270291   3.447   1.453   4.385  0.2087  0.6347  0.4932
16267TIP3    H170292   3.536   1.417   4.391  0.6539  1.7633  1.0406
16267TIP3    H270293   3.403   1.420   4.464  0.0466 -0.1358  0.0920
16268TIP3   OH270294   6.805   5.949   0.458 -0.4309  0.3240  0.1526
16268TIP3    H170295   6.738   5.987   0.402 -0.7804  1.4592  1.2763
16268TIP3    H270296   6.815   5.859   0.427 -0.5804  0.9049 -1.7072
16269TIP3   OH270297   3.127   2.368  17.015 -0.1285  0.0034  0.5006
16269TIP3    H170298   3.091   2.293  16.968 -1.6078 -1.1533  3.2352
16269TIP3    H270299   3.060   2.436  17.006 -0.7243 -0.4464  1.4540
16270TIP3   OH270300   5.312   1.778  16.380  0.5272 -0.1758  0.0331
16270TIP3    H170301   5.287   1.701  16.431  0.8614  0.9975  2.0765
16270TIP3    H270302   5.402   1.797  16.407  1.1756 -0.1856 -1.9369
16271TIP3   OH270303   0.382   3.264   0.026 -0.0039  0.0438  0.1493
16271TIP3    H170304   0.400   3.311   0.108 -0.5123 -0.8872  0.8085
16271TIP3    H270305   0.296   3.295  -0.001 -0.1335 -0.1643  0.3289
16272TIP3   OH270306   0.237   1.322   5.795 -0.0237  0.5211  0.1643
16272TIP3    H170307   0.213   1.259   5.863  1.7399 -1.1970 -0.7201
16272TIP3    H270308   0.332   1.312   5.786 -0.2949  0.0835 -3.1046
16273TIP3   OH270309   3.637   4.481   4.861  0.7590 -0.1173 -0.0850
16273TIP3    H170310   3.676   4.484   4.948 -0.6703 -0.3097  0.5942
16273TIP3    H270311   3.613   4.572   4.842 -0.4940 -0.3025  0.4948
16274TIP3   OH270312   6.213   3.582   4.869 -0.4174 -0.1724 -0.1381
16274TIP3    H170313   6.279   3.529   4.824 -1.2278  0.7413 -2.5964
16274TIP3    H270314   6.143   3.592   4.804 -1.4235  1.7677  1.1439
16275TIP3   OH270315   2.467   4.064   4.094 -0.1876 -0.0265  0.2965
16275TIP3    H170316   2.472   4.155   4.123  1.3227 -0.6042  2.0250
16275TIP3    H270317   2.558   4.034   4.090 -0.6721 -1.6310  0.3931
16276TIP3   OH270318   5.666   3.588   6.667 -0.2743 -0.2805  0.1625
16276TIP3    H170319   5.577   3.564   6.642 -0.0051 -0.1795 -0.9496
16276TIP3    H270320   5.722   3.538   6.608  0.3332  1.8122 -1.1503
16277TIP3   OH270321   0.475   2.165   0.518  0.3427 -0.7992  0.1677
16277TIP3    H170322   0.512   2.190   0.433  0.0558  0.5469  0.4169
16277TIP3    H270323   0.436   2.079   0.502 -0.3074 -0.2858 -1.2703
16278TIP3   OH270324   3.760   1.998  11.478 -0.5078  0.1190  0.0015
16278TIP3    H170325   3.681   1.994  11.424 -1.0495  2.6093  0.4530
16278TIP3    H270326   3.731   2.042  11.559  1.0503 -0.1709  0.7492
16279TIP3   OH270327   2.598   3.333  14.244  0.1866  0.0076  0.1490
16279TIP3    H170328   2.554   3.325  14.329 -0.0244  2.6007  0.3695
16279TIP3    H270329   2.571   3.419  14.211  0.6680 -0.7113 -2.3386
16280TIP3   OH270330   0.768   2.045   2.932 -0.3117 -0.1659 -0.5595
16280TIP3    H170331   0.782   2.140   2.928  0.3068 -0.2864 -3.0944
16280TIP3    H270332   0.847   2.011   2.972 -1.9606  0.5267  3.7772
16281TIP3   OH270333   6.021   6.302  12.479 -0.0102  0.4315 -0.2866
16281TIP3    H170334   5.956   6.331  12.543  0.6795  1.4600 -0.0308
16281TIP3    H270335   6.042   6.381  12.429  1.9547  0.4242  0.4618
16282TIP3   OH270336   4.501   0.636  13.017 -0.0962  0.1435  0.1031
16282TIP3    H170337   4.455   0.552  13.014 -0.4963  0.3795 -0.9810
16282TIP3    H270338   4.574   0.621  13.076 -0.8425 -0.6140  0.8586
16283TIP3   OH270339   4.438   1.077   1.268 -0.3347  0.5389  0.2072
16283TIP3    H170340   4.409   1.012   1.332  0.1633 -1.4241 -1.4555
16283TIP3    H270341   4.361   1.092   1.212  0.1011 -0.1488 -0.5988
16284TIP3   OH270342   2.647   4.835   1.410 -0.2901  0.1102 -0.4054
16284TIP3    H170343   2.630   4.741   1.424 -0.9267  0.1442 -0.9184
16284TIP3    H270344   2.726   4.852   1.461 -0.6618 -0.5136  0.4113
16285TIP3   OH270345   5.098   1.340  14.994 -0.1349  0.0681  0.4510
16285TIP3    H170346   5.103   1.270  14.929 -1.2780 -1.5507  2.0120
16285TIP3    H270347   5.169   1.321  15.055  0.3897  1.0847  0.1901
16286TIP3   OH270348   5.071   4.768  13.611  0.4191 -0.8400 -0.0117
16286TIP3    H170349   4.998   4.712  13.638  2.4694 -3.1833  0.9977
16286TIP3    H270350   5.148   4.727  13.648  2.3200  1.5300 -1.0626
16287TIP3   OH270351   0.956   2.217  15.390  0.1996 -0.4529  0.4149
16287TIP3    H170352   0.893   2.214  15.318  0.8418  0.2899 -0.1789
16287TIP3    H270353   0.940   2.135  15.438  0.5150 -1.4857 -1.1797
16288TIP3   OH270354   5.872   6.480  12.660 -0.8185  0.3331 -0.1640
16288TIP3    H170355   5.782   6.449  12.672 -0.9495  1.0268  0.7972
16288TIP3    H270356   5.866   6.575  12.671  0.0204  0.3896 -0.1308
16289TIP3   OH270357   1.770   0.340   5.869  0.1761  0.4461 -0.6723
16289TIP3    H170358   1.846   0.396   5.887  1.2636 -0.7731 -1.3029
16289TIP3    H270359   1.764   0.282   5.944  0.0738  0.3224 -0.7758
16290TIP3   OH270360   1.120   2.967   3.763  0.2091  0.1079 -0.4058
16290TIP3    H170361   1.161   3.053   3.777  0.9908 -0.2181 -0.6062
16290TIP3    H270362   1.078   2.974   3.678 -1.4358  0.9232  0.4310
16291TIP3   OH270363   2.544   6.224  11.645  0.2233 -0.0836  0.6463
16291TIP3    H170364   2.574   6.313  11.627  1.3698 -0.5199  0.2890
16291TIP3    H270365   2.517   6.226  11.737  0.7049  0.5133  0.7841
16292TIP3   OH270366   3.597   4.953  13.564 -0.5757 -0.1328  0.5430
16292TIP3    H170367   3.685   4.990  13.576 -0.7160  1.1830 -1.8902
16292TIP3    H270368   3.538   5.018  13.604 -0.8186  2.6471 -3.6680
16293TIP3   OH270369   0.278   1.642   1.396 -0.4009  0.5238  0.0852
16293TIP3    H170370   0.236   1.696   1.329 -0.4926 -0.0308 -0.3232
16293TIP3    H270371   0.346   1.697   1.433 -2.3965  1.9773  1.7927
16294TIP3   OH270372   2.310   5.020  11.351 -0.2436  0.1455  0.4992
16294TIP3    H170373   2.263   4.939  11.374 -1.6599  1.0431  0.9280
16294TIP3    H270374   2.243   5.075  11.311  0.9900  0.6634 -0.9289
16295TIP3   OH270375   2.994   5.505   0.325  0.0560  0.1852  0.4437
16295TIP3    H170376   3.082   5.537   0.345 -0.3401  0.9381  1.0362
16295TIP3    H270377   2.952   5.577   0.278 -0.2805 -0.1332  0.2453
16296TIP3   OH270378   4.910   6.075   3.168 -0.3872 -0.7379  0.3158
16296TIP3    H170379   4.821   6.072   3.131 -0.7898  0.7405  1.0858
16296TIP3    H270380   4.939   6.164   3.151  0.9019 -1.1610  0.2364
16297TIP3   OH270381   0.276   5.216   4.747 -0.2698  0.0355 -0.1596
16297TIP3    H170382   0.331   5.146   4.710  0.5030  1.0382 -0.9566
16297TIP3    H270383   0.256   5.272   4.672 -0.5077  0.9246  0.5604
16298TIP3   OH270384   4.645   5.088  12.275  0.1699  0.2660  0.0533
16298TIP3    H170385   4.727   5.079  12.323 -0.9414 -0.0562  2.0001
16298TIP3    H270386   4.620   4.998  12.253  0.2583  0.3509 -0.3986
16299TIP3   OH270387   3.225   2.063  16.373  0.7659 -0.0898  0.3221
16299TIP3    H170388   3.182   1.991  16.328  1.4519 -0.2438 -0.0973
16299TIP3    H270389   3.153   2.113  16.412  0.2217 -0.3867 -0.2855
16300TIP3   OH270390   1.627   1.965   5.826  0.0252  0.4042  0.0474
16300TIP3    H170391   1.670   1.881   5.812  0.4247  0.5558  0.3537
16300TIP3    H270392   1.616   2.001   5.738  1.0964  0.6391 -0.0092
16301TIP3   OH270393   6.757   0.820  11.709 -0.0226 -0.4121 -0.5017
16301TIP3    H170394   6.742   0.901  11.660 -0.5241 -0.7482 -0.9082
16301TIP3    H270395   6.683   0.764  11.687  0.2570 -0.9390 -0.1260
16302TIP3   OH270396   5.981   6.329   0.489  0.3037  0.2022 -0.3126
16302TIP3    H170397   6.002   6.401   0.429  1.3457  0.8146  0.7380
16302TIP3    H270398   5.903   6.288   0.451  0.6130  0.9056 -1.7715
16303TIP3   OH270399   1.305   3.982  11.648  0.7895 -0.0076  0.0713
16303TIP3    H170400   1.226   3.938  11.615  1.3510 -0.3585 -0.8160
16303TIP3    H270401   1.377   3.946  11.597  1.3818  1.2842 -0.0564
16304TIP3   OH270402   0.817   6.475   4.617 -0.5431 -0.4658 -0.0393
16304TIP3    H170403   0.872   6.476   4.696 -1.1210 -0.2047  0.3695
16304TIP3    H270404   0.873   6.514   4.549 -0.9753  2.0529  0.9216
16305TIP3   OH270405   0.245   4.063   0.976  0.3426  0.3161  0.3159
16305TIP3    H170406   0.256   3.974   1.011  0.8882 -0.2299 -1.1789
16305TIP3    H270407   0.219   4.050   0.885 -0.1187  1.7017  0.2230
16306TIP3   OH270408   3.137   2.777  15.475  0.5075  0.1789  0.1045
16306TIP3    H170409   3.181   2.862  15.472 -1.5077  1.2949  0.4185
16306TIP3    H270410   3.183   2.729  15.544  2.1346  0.7110 -0.5431
16307TIP3   OH270411   1.188   1.026  14.213 -0.4697 -0.0449  0.2651
16307TIP3    H170412   1.201   1.064  14.126  0.5694 -1.2355 -0.1495
16307TIP3    H270413   1.275   1.025  14.252 -0.7401 -0.5349  0.8781
16308TIP3   OH270414   4.450   2.068   5.631 -0.2220 -0.1369 -0.4567
16308TIP3    H170415   4.455   2.030   5.544 -0.7097 -0.5611 -0.2994
16308TIP3    H270416   4.362   2.104   5.638  0.6557  2.3315 -1.1306
16309TIP3   OH270417   0.823   1.107  14.988  0.3237  0.1647  0.0627
16309TIP3    H170418   0.914   1.129  15.010 -0.4121  2.0147  1.5982
16309TIP3    H270419   0.771   1.157  15.051 -1.7636 -1.4770 -0.2464
16310TIP3   OH270420   3.598   5.922   4.982  0.9287  0.0357  0.1317
16310TIP3    H170421   3.508   5.905   4.952  0.9580  0.6303 -0.3192
16310TIP3    H270422   3.653   5.886   4.912  1.0044  1.1168 -0.3892
16311TIP3   OH270423   3.934   6.056   2.183 -0.1461  0.4177 -0.1064
16311TIP3    H170424   4.016   6.048   2.134  0.1394  0.5540  0.3418
16311TIP3    H270425   3.879   6.113   2.128  1.3980  3.4768  1.2443
16312TIP3   OH270426   6.747   1.115   1.225 -0.1926  0.5754  0.0886
16312TIP3    H170427   6.831   1.159   1.242  0.7045 -0.7773 -0.5900
16312TIP3    H270428   6.743   1.109   1.130 -1.7647  1.8510  0.0356
16313TIP3   OH270429   5.421   0.295  14.822 -0.0408  0.4507 -0.3899
16313TIP3    H170430   5.422   0.242  14.902  1.2204  0.2335 -0.5311
16313TIP3    H270431   5.335   0.278  14.784  0.2304 -1.3603 -0.3107
16314TIP3   OH270432   4.687   2.416   4.291  0.0277  0.3796  0.3434
16314TIP3    H170433   4.710   2.425   4.384 -0.5415 -0.6862  0.6016
16314TIP3    H270434   4.600   2.377   4.292  0.2196 -0.0889 -0.6499
16315TIP3   OH270435   0.720   0.739  13.131  0.1923  0.2275 -0.3405
16315TIP3    H170436   0.742   0.703  13.216 -2.9319  0.3890  0.6670
16315TIP3    H270437   0.645   0.687  13.102 -1.9748  3.2511 -0.6389
16316TIP3   OH270438   4.881   2.483   4.862  0.5240 -0.3065  0.5592
16316TIP3    H170439   4.947   2.457   4.798 -1.8485  1.6379 -3.0133
16316TIP3    H270440   4.918   2.560   4.904  0.2693  1.4391 -2.1860
16317TIP3   OH270441   1.435   6.491  11.388  0.2236 -0.1879  0.5028
16317TIP3    H170442   1.506   6.553  11.408  0.9030 -1.0579  0.8260
16317TIP3    H270443   1.478   6.421  11.340 -0.1839 -1.3174  1.7435
16318TIP3   OH270444   4.460   4.436  14.470 -0.0540  0.4480 -0.5665
16318TIP3    H170445   4.475   4.448  14.376 -2.3452 -2.4091 -1.4345
16318TIP3    H270446   4.368   4.461  14.482 -0.3483 -1.0663  0.4989
16319TIP3   OH270447   4.563   0.337   5.654  0.2154 -0.9813  0.0343
16319TIP3    H170448   4.549   0.403   5.586  1.3156  0.0959  0.8070
16319TIP3    H270449   4.567   0.254   5.607  0.5284 -0.3046 -1.1752
16320TIP3   OH270450   2.115   4.475  13.561 -0.0542  0.2042 -0.5154
16320TIP3    H170451   2.183   4.483  13.627 -1.1874 -1.1535  0.9160
16320TIP3    H270452   2.119   4.383  13.533 -1.1494  0.1358 -0.5218
16321TIP3   OH270453   6.486   6.170  12.244  0.3160  0.0754 -0.0232
16321TIP3    H170454   6.540   6.114  12.300 -0.1211 -1.3718 -0.9821
16321TIP3    H270455   6.546   6.200  12.175  0.5209  0.6950  0.4205
16322TIP3   OH270456   2.370   4.410  11.343 -0.1302 -0.2503 -0.4146
16322TIP3    H170457   2.463   4.386  11.354  0.0789  0.9846  0.9122
16322TIP3    H270458   2.330   4.333  11.302  0.7854 -2.2682  2.1384
16323TIP3   OH270459   6.569   4.368   6.496 -0.2494 -0.0664  0.5527
16323TIP3    H170460   6.516   4.404   6.425  0.5560  1.1535  0.5332
16323TIP3    H270461   6.508   4.316   6.548 -1.7578  2.0492  1.0726
16324TIP3   OH270462   5.827   6.381  15.538  0.1970 -0.3632  0.7051
16324TIP3    H170463   5.769   6.397  15.612 -1.1777 -0.1963 -0.3685
16324TIP3    H270464   5.891   6.318  15.571 -0.8580 -0.8945  1.8151
16325TIP3   OH270465   5.356   2.295   2.739 -0.1042  0.4897  0.3060
16325TIP3    H170466   5.445   2.296   2.773 -1.2444  1.6272  3.6929
16325TIP3    H270467   5.317   2.215   2.775 -1.2706  1.5581  1.5545
16326TIP3   OH270468   2.032   1.907  13.982 -0.5976 -0.0859  0.1161
16326TIP3    H170469   2.098   1.918  13.913 -0.3178  3.1065  0.7030
16326TIP3    H270470   2.035   1.814  14.004 -0.4424 -1.1926 -3.8534
16327TIP3   OH270471   1.070   2.336   4.899  0.8010  0.1264  0.1332
16327TIP3    H170472   1.140   2.271   4.900  1.6218  0.9895  0.1096
16327TIP3    H270473   1.085   2.385   4.818 -0.0554  0.0832 -0.0537
16328TIP3   OH270474   5.171   4.958  13.449  0.0322  0.3101  0.2076
16328TIP3    H170475   5.136   5.047  13.446  0.8003  0.6122  0.1165
16328TIP3    H270476   5.138   4.922  13.532 -0.9025  0.4086 -0.1078
16329TIP3   OH270477   3.378   2.213  15.234 -0.0063 -0.4400  0.4251
16329TIP3    H170478   3.346   2.169  15.313  0.5986  1.4670  1.7896
16329TIP3    H270479   3.402   2.141  15.175  0.0090 -1.9297  2.1542
16330TIP3   OH270480   0.247   5.991   1.186 -0.0504  0.6409  0.3395
16330TIP3    H170481   0.251   5.929   1.114 -0.1721 -0.3204  1.1334
16330TIP3    H270482   0.156   5.991   1.214  0.4293 -0.9973  2.1431
16331TIP3   OH270483   0.557   0.076  12.401 -0.2785 -0.2066  0.0657
16331TIP3    H170484   0.494   0.011  12.431 -0.3102  1.0531  3.1333
16331TIP3    H270485   0.504   0.141  12.355 -0.5078 -1.3662 -1.3558
16332TIP3   OH270486   4.919   2.661   1.911 -0.8025 -0.3983  0.1889
16332TIP3    H170487   4.899   2.752   1.928  0.7202 -0.0951  0.4753
16332TIP3    H270488   4.894   2.615   1.991  1.7389  0.3124  1.4872
16333TIP3   OH270489   6.207   5.050  13.084 -0.1000  0.4874 -0.4977
16333TIP3    H170490   6.205   4.971  13.138 -0.9543  1.0316  0.2911
16333TIP3    H270491   6.293   5.047  13.041  1.3430  0.8489  2.1433
16334TIP3   OH270492   5.019   5.455   2.416 -0.4617 -0.2294 -0.0220
16334TIP3    H170493   5.100   5.419   2.379  0.2765  0.3717  0.9811
16334TIP3    H270494   5.006   5.406   2.497 -1.7911 -1.1721 -0.7565
16335TIP3   OH270495   2.915   5.295  15.208  0.2086  0.4376  0.2029
16335TIP3    H170496   2.926   5.211  15.253  0.5923  0.8695  0.9330
16335TIP3    H270497   2.998   5.340  15.220 -0.3048  1.3019  0.6091
16336TIP3   OH270498   3.725   5.439  15.821  0.0132 -0.4914  0.3362
16336TIP3    H170499   3.684   5.359  15.854  1.0146 -0.9607  0.4829
16336TIP3    H270500   3.794   5.459  15.884  0.9426 -0.5282 -0.6271
16337TIP3   OH270501   3.710   6.807   1.333 -0.0859  0.2720  0.2412
16337TIP3    H170502   3.663   6.748   1.391 -0.0193 -1.5174 -1.4265
16337TIP3    H270503   3.648   6.878   1.315 -1.4393 -1.0000 -0.3067
16338TIP3   OH270504   2.932   6.301   6.638 -0.1106  0.6899  0.7202
16338TIP3    H170505   2.875   6.264   6.706 -1.2616  0.2016 -0.4743
16338TIP3    H270506   2.959   6.226   6.586  1.8550  0.8866  1.3900
16339TIP3   OH270507   3.133   6.198   0.890 -0.4762  0.4995  0.4599
16339TIP3    H170508   3.174   6.264   0.946  0.7810  1.0004 -1.0004
16339TIP3    H270509   3.195   6.185   0.818 -1.2040 -1.4752  0.1260
16340TIP3   OH270510   6.460   1.632   2.710  0.1897 -0.1337  1.2188
16340TIP3    H170511   6.461   1.547   2.664  0.1861  0.6689 -0.3455
16340TIP3    H270512   6.550   1.644   2.739  0.6508  0.1814 -0.2630
16341TIP3   OH270513   3.893   2.486   2.594 -0.1012 -0.5009  0.0663
16341TIP3    H170514   3.932   2.560   2.641 -0.0996 -1.7487  2.1165
16341TIP3    H270515   3.917   2.501   2.502 -0.9956  2.5824  0.2245
16342TIP3   OH270516   2.610   5.807   0.098  0.5334 -0.5565 -0.2306
16342TIP3    H170517   2.601   5.726   0.149  1.7433  0.0270  0.9658
16342TIP3    H270518   2.631   5.874   0.162 -0.8095  0.8121 -1.1640
16343TIP3   OH270519   6.484   3.510   4.574  0.2485 -0.2380 -0.4121
16343TIP3    H170520   6.507   3.440   4.512 -0.2000 -0.5283 -0.2556
16343TIP3    H270521   6.511   3.476   4.659 -1.9375 -1.1756 -0.0250
16344TIP3   OH270522   0.791   2.807  11.692 -0.1672 -0.1326  0.0837
16344TIP3    H170523   0.791   2.777  11.783 -0.7859  0.4627  0.2828
16344TIP3    H270524   0.855   2.750  11.648 -0.5829 -1.0658  0.6723
16345TIP3   OH270525   0.858   0.991   0.346  0.0439  0.0986 -0.2023
16345TIP3    H170526   0.857   0.981   0.251 -0.0597 -0.3182 -0.1580
16345TIP3    H270527   0.871   0.902   0.380  0.4128  0.2873  0.1659
16346TIP3   OH270528   6.789   1.227  16.015 -0.3333 -0.3073  1.0898
16346TIP3    H170529   6.806   1.179  15.934  0.4659  2.5836 -0.6072
16346TIP3    H270530   6.693   1.231  16.021 -0.5134  1.8556 -1.4174
16347TIP3   OH270531   1.216   3.989  17.163  0.0155  0.1646 -0.5896
16347TIP3    H170532   1.150   3.956  17.102  0.4735  1.2341 -1.6834
16347TIP3    H270533   1.299   3.956  17.128  0.2150  0.1060 -0.0722
16348TIP3   OH270534   4.194   3.728   5.751 -0.8184 -0.4692 -0.0655
16348TIP3    H170535   4.131   3.671   5.795 -0.4683  0.1617  1.3265
16348TIP3    H270536   4.274   3.719   5.803 -0.8590  1.5261  0.4291
16349TIP3   OH270537   1.899   1.003   1.560 -0.0966  0.1577 -0.0408
16349TIP3    H170538   1.964   1.036   1.498  0.4277 -0.1745  0.3203
16349TIP3    H270539   1.819   0.996   1.509  0.6532 -1.4539 -1.0633
16350TIP3   OH270540   4.980   1.861   3.677 -0.8614  0.2967  0.3003
16350TIP3    H170541   4.918   1.860   3.750  0.1371 -0.1362  1.1776
16350TIP3    H270542   4.965   1.944   3.633 -3.9871 -0.9301 -1.2625
16351TIP3   OH270543   5.047   1.726  16.222 -0.4894  0.6194  0.3040
16351TIP3    H170544   5.043   1.654  16.159 -1.1545 -0.4408  1.5062
16351TIP3    H270545   5.139   1.733  16.246 -0.5962 -0.9097  1.3209
16352TIP3   OH270546   6.348   4.297  16.168  0.4632  0.8776  0.0653
16352TIP3    H170547   6.291   4.373  16.176 -0.8415 -0.0119 -0.3785
16352TIP3    H270548   6.327   4.259  16.083  2.1151  0.8046 -0.3421
16353TIP3   OH270549   2.909   4.140  11.861  0.1896 -0.4054 -0.0405
16353TIP3    H170550   2.935   4.231  11.847  0.6426 -0.3405  1.0946
16353TIP3    H270551   2.992   4.093  11.872 -0.0695 -0.7771  0.3814
16354TIP3   OH270552   0.744   2.629   0.902  0.3197  0.0272 -0.3420
16354TIP3    H170553   0.769   2.539   0.885  0.1613 -0.0799 -0.0078
16354TIP3    H270554   0.761   2.675   0.819  1.1393 -0.1418 -0.2748
16355TIP3   OH270555   1.509   4.781  13.556  0.0844 -0.4156 -0.0381
16355TIP3    H170556   1.540   4.838  13.485  2.0813  2.2277  2.7176
16355TIP3    H270557   1.415   4.776  13.543  0.4068 -0.4131 -3.0648
16356TIP3   OH270558   2.731   2.858  11.896  0.3927 -0.7406  0.2276
16356TIP3    H170559   2.771   2.927  11.949 -1.3171 -0.6970  1.5667
16356TIP3    H270560   2.667   2.904  11.841  1.6791 -0.8729 -1.4554
16357TIP3   OH270561   2.108   1.295  15.714  0.2049  0.0504 -0.3777
16357TIP3    H170562   2.186   1.257  15.673  0.7287  1.0044 -0.2993
16357TIP3    H270563   2.086   1.370  15.659 -1.2766 -0.7864 -0.9756
16358TIP3   OH270564   6.007   1.907   5.515 -0.3292  0.1765  0.4392
16358TIP3    H170565   6.055   1.961   5.453 -0.8547  2.7869  2.1362
16358TIP3    H270566   5.916   1.937   5.509 -0.3262  0.8748  2.6863
16359TIP3   OH270567   2.148   6.529  13.305 -0.7603  0.8075  0.6247
16359TIP3    H170568   2.195   6.561  13.383 -0.7775  0.1173  0.9260
16359TIP3    H270569   2.119   6.608  13.260 -0.2882  1.2238  1.0423
16360TIP3   OH270570   1.283   5.287   3.930 -0.4169  0.0115 -0.1400
16360TIP3    H170571   1.293   5.316   4.021  1.9597 -1.3816  0.1476
16360TIP3    H270572   1.190   5.270   3.920 -0.6758 -0.3207  2.2321
16361TIP3   OH270573   5.366   6.693  12.008  0.1413 -0.5123  0.0737
16361TIP3    H170574   5.443   6.690  11.952  0.4417  1.2256  0.3478
16361TIP3    H270575   5.396   6.659  12.093  0.1558 -1.4095 -0.2817
16362TIP3   OH270576   4.792   1.044   2.683 -0.1106  0.1814 -0.5301
16362TIP3    H170577   4.856   0.984   2.647  0.3045  0.5944 -0.4853
16362TIP3    H270578   4.780   1.111   2.616 -2.0103 -0.9414 -1.4186
16363TIP3   OH270579   3.746   6.372   2.231 -0.2137  0.2380 -0.0569
16363TIP3    H170580   3.821   6.388   2.288 -0.3072  0.2135  0.0723
16363TIP3    H270581   3.785   6.340   2.149 -0.1415 -1.0106  0.4326
16364TIP3   OH270582   6.703   2.388   3.551 -0.1176  0.7061 -0.2238
16364TIP3    H170583   6.797   2.369   3.549 -0.3033 -0.3374  0.1428
16364TIP3    H270584   6.672   2.347   3.632 -0.2817  4.2056  1.6611
16365TIP3   OH270585   0.158   1.665  11.642  0.2769  0.7550 -0.0093
16365TIP3    H170586   0.106   1.653  11.721  0.0350 -2.0080 -0.4832
16365TIP3    H270587   0.093   1.686  11.574 -0.0209 -0.7286 -0.2088
16366TIP3   OH270588   4.574   1.883  16.651  0.0078 -0.0699  0.2988
16366TIP3    H170589   4.499   1.923  16.606 -0.4480 -0.7366  0.4535
16366TIP3    H270590   4.619   1.834  16.582 -0.2118 -0.4009  0.3879
16367TIP3   OH270591   2.671   2.425   3.738 -0.6056  0.1776 -0.0885
16367TIP3    H170592   2.630   2.341   3.760  0.5773 -0.9559 -1.9111
16367TIP3    H270593   2.764   2.411   3.755 -0.5796  1.8086  1.3998
16368TIP3   OH270594   2.902   2.058   5.306  0.4717  0.5647 -0.2356
16368TIP3    H170595   2.819   2.087   5.343 -0.4587 -2.8242  0.6549
16368TIP3    H270596   2.922   2.122   5.238 -2.3782  2.0012  0.1646
16369TIP3   OH270597   0.178   5.369  11.605 -0.5326 -0.0883  0.0984
16369TIP3    H170598   0.239   5.374  11.678 -0.3623  0.8624 -0.0961
16369TIP3    H270599   0.109   5.431  11.627 -1.0616 -0.6153 -0.0346
16370TIP3   OH270600   6.614   5.197  14.755 -0.1813 -0.1750  0.2146
16370TIP3    H170601   6.525   5.183  14.724 -0.6783 -2.0920  2.2795
16370TIP3    H270602   6.624   5.137  14.828  3.0125 -0.4396 -0.2935
16371TIP3   OH270603   2.277   4.138   0.478  0.2896 -0.0292  0.5051
16371TIP3    H170604   2.277   4.215   0.534  0.8908 -0.5683  1.2706
16371TIP3    H270605   2.300   4.171   0.391 -0.4777  0.7919  0.6057
16372TIP3   OH270606   6.342   1.282  12.736 -0.1949 -0.1070  0.4976
16372TIP3    H170607   6.409   1.222  12.703 -0.6317 -0.4652  0.2477
16372TIP3    H270608   6.262   1.255  12.692 -0.6989 -0.2879  1.4922
16373TIP3   OH270609   0.781   3.582  16.102 -0.3014  0.6846 -0.2105
16373TIP3    H170610   0.873   3.580  16.073 -0.5407  2.4285 -1.2200
16373TIP3    H270611   0.761   3.675  16.113 -1.9211  0.3291  0.1217
16374TIP3   OH270612   0.536   0.514   4.941  0.0298  0.0275  0.3371
16374TIP3    H170613   0.594   0.441   4.963 -0.6459  0.1053  2.6362
16374TIP3    H270614   0.591   0.592   4.948  1.0963 -0.2191 -3.4001
16375TIP3   OH270615   1.437   5.056  15.776 -0.5087  0.0329  0.1692
16375TIP3    H170616   1.369   5.123  15.780 -1.0304 -0.5271  1.1213
16375TIP3    H270617   1.405   4.994  15.710 -0.3563  0.3579 -0.2141
16376TIP3   OH270618   3.755   1.633  11.566  0.3521 -0.4281 -0.6892
16376TIP3    H170619   3.749   1.690  11.642 -0.3584  1.1678 -1.8732
16376TIP3    H270620   3.821   1.674  11.510  0.5562 -1.3299 -1.1304
16377TIP3   OH270621   4.566   1.488   0.160 -0.3906 -0.3241  0.5220
16377TIP3    H170622   4.572   1.517   0.069  1.5107 -2.4538 -0.0997
16377TIP3    H270623   4.614   1.555   0.209  0.3165 -0.2058 -0.3101
16378TIP3   OH270624   6.271   4.219  16.805 -0.8299 -0.6526 -0.3326
16378TIP3    H170625   6.256   4.270  16.885 -0.9541 -0.7961 -0.2612
16378TIP3    H270626   6.271   4.284  16.735 -0.4221 -0.4900 -0.1848
16379TIP3   OH270627   2.172   2.584  12.808  0.1018  0.0938  0.2805
16379TIP3    H170628   2.151   2.495  12.781 -0.6446  0.5527 -0.7207
16379TIP3    H270629   2.211   2.624  12.730  0.7825  0.5395  0.8352
16380TIP3   OH270630   1.771   0.744  13.419  0.0457 -0.0838 -0.0540
16380TIP3    H170631   1.744   0.685  13.490  0.1787 -0.7421 -0.5454
16380TIP3    H270632   1.807   0.687  13.352  1.0421  0.6380 -0.1557
16381TIP3   OH270633   6.181   5.668   3.533 -0.0292 -0.2588  0.2508
16381TIP3    H170634   6.111   5.729   3.558 -1.5392 -1.3513 -1.1298
16381TIP3    H270635   6.170   5.655   3.439  1.2324 -1.4841  0.2302
16382TIP3   OH270636   3.999   3.840  12.914  0.4655  0.0219 -0.0225
16382TIP3    H170637   3.981   3.793  12.832  1.5808 -1.3971  0.5081
16382TIP3    H270638   3.979   3.931  12.894 -0.1503 -0.4260 -1.6054
16383TIP3   OH270639   6.796   6.019   1.628 -0.5280 -0.3380  0.2568
16383TIP3    H170640   6.755   5.937   1.601 -1.8336 -0.7950  3.2501
16383TIP3    H270641   6.890   6.001   1.624 -0.7918 -2.0009  0.8602
16384TIP3   OH270642   4.285   1.650   1.330 -0.0754 -0.0754 -0.3272
16384TIP3    H170643   4.252   1.564   1.356  0.7404 -0.3974 -0.3145
16384TIP3    H270644   4.358   1.630   1.271  0.6860  0.6011  0.3700
16385TIP3   OH270645   0.140   3.428   0.112  0.1607  0.1963 -0.0756
16385TIP3    H170646   0.201   3.426   0.186  1.0954  0.1749 -0.8151
16385TIP3    H270647   0.181   3.489   0.050  0.3087 -1.1089 -1.3159
16386TIP3   OH270648   4.781   2.234  12.601 -0.0929  0.3010  0.4179
16386TIP3    H170649   4.792   2.142  12.579 -0.6929 -0.4759  3.0829
16386TIP3    H270650   4.862   2.258  12.647 -0.8922  0.3962  1.8292
16387TIP3   OH270651   1.144   6.464   2.187  0.5694 -0.0959 -0.6718
16387TIP3    H170652   1.151   6.554   2.155  0.3280  0.0053 -0.4391
16387TIP3    H270653   1.096   6.471   2.269 -1.9135 -0.7114 -1.9921
16388TIP3   OH270654   1.831   1.829   6.102  0.3754 -0.2352 -0.4253
16388TIP3    H170655   1.763   1.796   6.160 -0.5335  0.6280 -0.9527
16388TIP3    H270656   1.913   1.816   6.150 -0.0375 -2.1849 -0.1830
16389TIP3   OH270657   4.039   5.812  16.201  0.0904  0.2450  0.5349
16389TIP3    H170658   4.072   5.730  16.164 -1.7553  0.9621 -3.1701
16389TIP3    H270659   4.115   5.850  16.245  2.2560 -1.3494 -1.5408
16390TIP3   OH270660   0.933   1.997  11.460  0.0981 -0.1705 -0.0475
16390TIP3    H170661   0.854   1.944  11.470  0.2997 -0.2249  1.5586
16390TIP3    H270662   1.000   1.934  11.434 -0.3704 -0.1117 -1.4945
16391TIP3   OH270663   5.833   2.004   0.050  0.2966  0.0585  0.6851
16391TIP3    H170664   5.795   2.091   0.037  3.1531  1.2319 -0.8383
16391TIP3    H270665   5.918   2.009   0.006  1.8844 -2.5523  3.1439
16392TIP3   OH270666   1.785   3.697   0.291 -0.2821 -0.1721 -0.0946
16392TIP3    H170667   1.729   3.716   0.216 -1.4923 -1.7915  0.3593
16392TIP3    H270668   1.729   3.711   0.368  0.4592 -0.1111  0.4497
16393TIP3   OH270669   4.135   3.811  10.898  0.0301 -0.3622 -0.1462
16393TIP3    H170670   4.173   3.758  10.828 -0.7915  1.3391 -1.9773
16393TIP3    H270671   4.131   3.900  10.862 -1.4385  0.3847  1.6718
16394TIP3   OH270672   1.957   2.003   1.561 -0.2479 -0.3866 -0.3625
16394TIP3    H170673   1.967   1.942   1.634  0.7949 -1.0691 -1.0545
16394TIP3    H270674   1.862   2.014   1.552 -0.4239 -1.2896  0.2788
16395TIP3   OH270675   2.601   5.112   3.587  0.4744  0.5775 -0.5069
16395TIP3    H170676   2.561   5.035   3.628  1.7910 -0.6565 -1.4189
16395TIP3    H270677   2.667   5.142   3.650  0.3260  0.6251 -0.3754
16396TIP3   OH270678   0.751   6.611  14.574 -0.3953  0.2936  0.2085
16396TIP3    H170679   0.774   6.531  14.622  0.8969 -0.4755 -1.5885
16396TIP3    H270680   0.786   6.597  14.486 -0.7353  2.5773 -0.3417
16397TIP3   OH270681   3.485   6.182  15.290  0.0136 -0.2245 -0.0008
16397TIP3    H170682   3.424   6.252  15.314  1.7691  1.0877  0.8868
16397TIP3    H270683   3.501   6.135  15.372  2.9359  1.7547  0.7031
16398TIP3   OH270684   0.068   6.453  16.934  0.0114 -0.1839 -0.3459
16398TIP3    H170685   0.089   6.543  16.959 -0.3216  0.5597 -2.5589
16398TIP3    H270686   0.139   6.427  16.876 -0.8445 -0.6567 -1.2109
16399TIP3   OH270687   0.851   0.132   3.371  0.1409  0.0789 -0.1795
16399TIP3    H170688   0.889   0.164   3.289 -0.0046  0.7879  0.0238
16399TIP3    H270689   0.820   0.211   3.415  0.9790 -0.2097  0.9576
16400TIP3   OH270690   2.825   6.215   4.977 -0.0160  0.2304 -0.2022
16400TIP3    H170691   2.885   6.141   4.966  0.6403  0.7663 -0.2541
16400TIP3    H270692   2.739   6.179   4.953  0.2031 -0.6566  0.2697
16401TIP3   OH270693   4.430   2.567   4.978 -0.6686  0.3706  0.3859
16401TIP3    H170694   4.497   2.543   5.043  0.4211  0.2767 -0.7378
16401TIP3    H270695   4.364   2.498   4.985  0.2364 -0.5331  0.2864
16402TIP3   OH270696   4.692   3.348   1.034 -0.4393 -0.3626  0.5916
16402TIP3    H170697   4.741   3.415   0.986 -1.7617 -0.0307 -0.3499
16402TIP3    H270698   4.759   3.296   1.077  0.8531 -0.9030 -1.8949
16403TIP3   OH270699   6.549   5.064   3.743  0.0436  0.0053  0.2285
16403TIP3    H170700   6.470   5.060   3.797 -0.3512 -3.3116 -0.3497
16403TIP3    H270701   6.619   5.082   3.805 -0.6771 -1.5197  1.5777
16404TIP3   OH270702   2.256   0.078   5.696  0.5411 -0.1614  0.1128
16404TIP3    H170703   2.292   0.144   5.755  1.7292  1.1285 -1.9276
16404TIP3    H270704   2.328   0.016   5.683  0.2538 -0.5007  0.1299
16405TIP3   OH270705   3.029   1.066   1.769 -0.7470 -0.0147 -0.7791
16405TIP3    H170706   2.965   1.003   1.734 -0.5328 -0.5182 -0.2839
16405TIP3    H270707   3.009   1.148   1.724 -0.3667 -0.6699 -2.2435
16406TIP3   OH270708   5.122   0.851   5.313  0.1493  0.0493  0.1173
16406TIP3    H170709   5.159   0.939   5.320 -0.1895  0.3541 -1.5116
16406TIP3    H270710   5.164   0.801   5.383  2.2429  0.8626 -0.4878
16407TIP3   OH270711   1.117   0.452   3.319 -0.3716 -0.4078  0.0690
16407TIP3    H170712   1.062   0.491   3.387  0.4545  0.4784  0.2546
16407TIP3    H270713   1.166   0.526   3.282  0.3409 -1.0965 -0.4137
16408TIP3   OH270714   2.856   0.580   4.628 -0.2559  0.3564  0.4935
16408TIP3    H170715   2.852   0.558   4.535  1.6397 -1.2377  0.7362
16408TIP3    H270716   2.856   0.676   4.630 -1.6908  0.4160 -1.0451
16409TIP3   OH270717   3.275   1.674  12.711 -0.9248  0.3343 -0.0884
16409TIP3    H170718   3.344   1.621  12.749  1.3288  2.1930 -1.3309
16409TIP3    H270719   3.204   1.671  12.775 -0.5321 -3.1448  0.3953
16410TIP3   OH270720   3.874   0.133   3.434 -0.0779  0.2885 -0.0626
16410TIP3    H170721   3.787   0.102   3.407 -0.4940  2.5693 -1.6306
16410TIP3    H270722   3.935   0.087   3.376 -0.4343  0.3147 -0.4577
16411TIP3   OH270723   6.006   3.289   1.510  0.0285  0.7147  0.3699
16411TIP3    H170724   5.933   3.249   1.557  0.3854 -0.9397 -0.4203
16411TIP3    H270725   5.976   3.292   1.419  1.2076 -0.6924 -0.0942
16412TIP3   OH270726   0.521   5.736  11.922  0.9026 -0.3068 -0.2271
16412TIP3    H170727   0.547   5.682  11.848 -1.3049 -1.6636 -0.1018
16412TIP3    H270728   0.492   5.674  11.989  3.3127  0.8353  2.0786
16413TIP3   OH270729   4.009   4.405  14.722  0.4504 -0.8388  0.3537
16413TIP3    H170730   3.945   4.458  14.768 -0.3161 -1.0113 -0.4851
16413TIP3    H270731   4.034   4.337  14.785 -0.4864 -1.0001  0.5602
16414TIP3   OH270732   2.193   0.563   5.704  0.3252 -0.2373 -0.0013
16414TIP3    H170733   2.278   0.523   5.683 -0.0670 -0.3353 -1.5360
16414TIP3    H270734   2.147   0.495   5.753  1.3117  0.0201  1.3427
16415TIP3   OH270735   0.709   2.850  16.066  0.0873  0.2772  0.5847
16415TIP3    H170736   0.660   2.932  16.070 -0.5481 -0.0847  0.3123
16415TIP3    H270737   0.654   2.792  16.014  1.1775  0.1160 -0.4169
16416TIP3   OH270738   0.763   1.076  16.260 -0.0347 -0.0890  0.0703
16416TIP3    H170739   0.853   1.046  16.260 -0.2239 -0.7753 -1.6331
16416TIP3    H270740   0.728   1.049  16.175 -2.6380 -2.2189  1.6300
16417TIP3   OH270741   1.772   3.507  12.105  0.2418  0.3737  0.0211
16417TIP3    H170742   1.802   3.443  12.041 -2.1992 -1.1304  0.2328
16417TIP3    H270743   1.839   3.506  12.174  0.8628 -1.0748 -0.5607
16418TIP3   OH270744   0.653   3.664   5.054 -0.0513  0.1160  0.7140
16418TIP3    H170745   0.626   3.576   5.078 -4.3873  0.8973 -0.5172
16418TIP3    H270746   0.670   3.659   4.960 -1.4242  0.7320  0.4066
16419TIP3   OH270747   4.010   5.069  11.273  0.1456  0.4523  0.7938
16419TIP3    H170748   4.096   5.095  11.306  0.4387  2.1706 -1.0929
16419TIP3    H270749   4.029   5.011  11.200 -0.3307  0.0930  0.9528
16420TIP3   OH270750   3.567   3.343   4.323 -0.1795  0.0875  0.2293
16420TIP3    H170751   3.534   3.425   4.287 -2.7953 -1.1302 -0.3573
16420TIP3    H270752   3.567   3.356   4.418  5.0376  2.6767  0.2349
16421TIP3   OH270753   1.808   4.011   0.345  0.5974  0.1078 -0.2470
16421TIP3    H170754   1.856   3.929   0.357  2.9464  1.5807  1.2775
16421TIP3    H270755   1.861   4.077   0.390 -3.0743  1.9004  1.9299
16422TIP3   OH270756   2.393   4.029  16.087 -0.4394  0.4495  0.3685
16422TIP3    H170757   2.304   4.026  16.053  0.1244 -0.2911 -1.1279
16422TIP3    H270758   2.425   4.115  16.061 -0.5434  0.5072  0.4330
16423TIP3   OH270759   5.069   5.275   0.719 -0.4954 -0.2587  0.1817
16423TIP3    H170760   5.003   5.222   0.675 -1.1456  0.2702  0.5129
16423TIP3    H270761   5.073   5.239   0.808  0.7721 -1.2849 -0.2556
16424TIP3   OH270762   1.214   0.486   6.512 -0.3894  0.0522  0.0760
16424TIP3    H170763   1.224   0.581   6.506  0.5920  0.0419  1.1240
16424TIP3    H270764   1.202   0.469   6.605  0.4442 -0.9305  0.0233
16425TIP3   OH270765   5.664   6.259   3.179 -0.3290 -0.7662  0.1334
16425TIP3    H170766   5.751   6.297   3.185  0.1575 -1.7830 -0.3142
16425TIP3    H270767   5.657   6.227   3.090 -2.1324  1.4956 -0.6615
16426TIP3   OH270768   5.612   6.603  17.197 -0.1093  0.8766 -0.0573
16426TIP3    H170769   5.610   6.518  17.154 -1.4940  0.2234  1.2109
16426TIP3    H270770   5.703   6.616  17.221  0.0742 -0.4203  0.0159
16427TIP3   OH270771   6.709   3.067   5.667 -0.3168  0.6056 -0.0381
16427TIP3    H170772   6.759   3.008   5.724 -0.4938  1.3443  0.9111
16427TIP3    H270773   6.621   3.029   5.665 -0.6909  1.3274  1.3630
16428TIP3   OH270774   4.744   5.601  11.218 -0.2733 -0.0731  0.1725
16428TIP3    H170775   4.733   5.541  11.292  1.6319  0.2407  0.7847
16428TIP3    H270776   4.691   5.564  11.148 -2.0506 -0.4523  1.6379
16429TIP3   OH270777   1.894   6.728   0.334 -0.3874 -0.2775  0.4221
16429TIP3    H170778   1.862   6.754   0.248  0.1441  0.8729  0.5626
16429TIP3    H270779   1.831   6.766   0.395  0.7009  1.2116  0.6561
16430TIP3   OH270780   5.865   5.038   6.121  0.0803  0.1486 -0.0664
16430TIP3    H170781   5.924   5.014   6.192 -1.3422  0.1711  1.1853
16430TIP3    H270782   5.807   4.962   6.112  1.4780 -0.7518 -2.6731
16431TIP3   OH270783   5.806   5.751  10.618  0.1421  0.4204  0.2638
16431TIP3    H170784   5.738   5.740  10.551  0.0511 -0.8558  0.5466
16431TIP3    H270785   5.778   5.828  10.668  0.1196  1.2818 -1.0435
16432TIP3   OH270786   0.623   2.208  16.968  0.2129 -0.6535 -0.1367
16432TIP3    H170787   0.669   2.235  16.888  0.2214  0.9674  0.3725
16432TIP3    H270788   0.530   2.216  16.946  0.1366 -2.7950 -0.7914
16433TIP3   OH270789   2.607   2.186   3.961  0.0941 -0.3913  0.2883
16433TIP3    H170790   2.512   2.199   3.970 -0.8019 -2.8244 -3.3714
16433TIP3    H270791   2.628   2.123   4.030 -0.5277  1.2880  2.1191
16434TIP3   OH270792   1.819   3.970   3.391  0.1148 -0.1086 -0.2380
16434TIP3    H170793   1.907   4.007   3.387  0.0509  0.2796  1.4357
16434TIP3    H270794   1.808   3.927   3.306  1.0036  1.8527 -1.4330
16435TIP3   OH270795   1.919   5.563   1.631  0.1774 -0.0408  0.4169
16435TIP3    H170796   1.864   5.629   1.673  1.5159  0.9601  0.6659
16435TIP3    H270797   1.926   5.493   1.696 -2.0396 -0.9482 -0.2144
16436TIP3   OH270798   2.193   0.842  14.891 -0.2999 -0.3121 -0.1504
16436TIP3    H170799   2.279   0.852  14.930 -0.1546 -1.8239  0.0015
16436TIP3    H270800   2.134   0.889  14.950  0.5245  1.6689 -0.8432
16437TIP3   OH270801   3.670   3.542  16.419  0.1584  0.6637  0.5148
16437TIP3    H170802   3.713   3.505  16.495 -1.2849 -0.1011  1.0021
16437TIP3    H270803   3.584   3.570  16.451 -0.1336  1.1450 -0.6313
16438TIP3   OH270804   6.733   5.032  16.527 -0.1169 -0.0569  0.3358
16438TIP3    H170805   6.791   4.994  16.593 -1.4962  0.0154  1.6621
16438TIP3    H270806   6.729   5.125  16.549  1.0032  0.3832 -1.1468
16439TIP3   OH270807   5.321   1.180  10.732  0.5305  0.2924  0.1279
16439TIP3    H170808   5.349   1.272  10.726  0.8421  0.1677 -0.3389
16439TIP3    H270809   5.275   1.163  10.650  0.5202  0.0142  0.1907
16440TIP3   OH270810   0.565   2.844   1.247  0.6611 -0.0336  0.5263
16440TIP3    H170811   0.620   2.903   1.195  1.4458  0.5845  1.9750
16440TIP3    H270812   0.604   2.847   1.335 -0.7324 -0.8651  1.2084
16441TIP3   OH270813   4.078   3.883  13.172  0.4479  0.2818 -0.0488
16441TIP3    H170814   4.020   3.958  13.184 -1.2030 -0.8983 -0.2917
16441TIP3    H270815   4.063   3.856  13.081  0.9573 -0.3968  0.0628
16442TIP3   OH270816   1.253   2.183   0.834  0.3552  0.5854  0.6138
16442TIP3    H170817   1.303   2.128   0.894 -1.5416 -2.0191  0.0422
16442TIP3    H270818   1.261   2.139   0.749 -2.0976  0.5106  0.3450
16443TIP3   OH270819   3.857   5.575   1.372 -0.5294  0.8482  0.3955
16443TIP3    H170820   3.784   5.549   1.427  0.1051 -1.3985  0.2843
16443TIP3    H270821   3.843   5.528   1.290  0.4021  1.3488 -0.0671
16444TIP3   OH270822   1.305   2.729  14.893 -0.4073 -0.0303 -0.6041
16444TIP3    H170823   1.271   2.649  14.853  0.2503  0.3194 -1.9239
16444TIP3    H270824   1.399   2.728  14.873 -0.2005  0.5487  0.2830
16445TIP3   OH270825   6.729   3.447  14.689 -0.0634 -0.6627  0.1018
16445TIP3    H170826   6.711   3.455  14.595  0.3555 -2.2805 -0.1409
16445TIP3    H270827   6.812   3.494  14.701 -0.1821 -0.3345 -0.3041
16446TIP3   OH270828   2.415   5.557   1.697  0.2641  0.0119 -0.1106
16446TIP3    H170829   2.403   5.494   1.768  0.0611  0.7703  0.5377
16446TIP3    H270830   2.472   5.511   1.634  0.6828 -0.5661  0.6644
16447TIP3   OH270831   3.627   0.137   3.334  0.3716  0.2082  0.3591
16447TIP3    H170832   3.561   0.080   3.296  1.2464 -1.5405  1.3297
16447TIP3    H270833   3.579   0.216   3.359 -1.2191 -0.7393  0.4402
16448TIP3   OH270834   5.234   3.135   3.846  0.6373  0.0986 -0.5667
16448TIP3    H170835   5.221   3.068   3.779 -0.7035  0.9436 -1.1803
16448TIP3    H270836   5.163   3.198   3.832 -0.1414 -0.0528  2.0769
16449TIP3   OH270837   4.729   6.683   1.384  0.0765 -0.0589  0.2465
16449TIP3    H170838   4.695   6.766   1.353 -1.2329 -0.9892 -0.9450
16449TIP3    H270839   4.820   6.682   1.355  0.2774  1.1796  0.7877
16450TIP3   OH270840   2.761   6.173  15.869 -0.5577  0.2788  0.0782
16450TIP3    H170841   2.776   6.184  15.775 -1.1996 -0.8937 -0.1813
16450TIP3    H270842   2.841   6.205  15.910  0.5791 -1.0675 -0.9732
16451TIP3   OH270843   0.845   3.686  15.728 -0.0438  0.3503 -0.0992
16451TIP3    H170844   0.750   3.698  15.731  0.0632  2.8543 -2.6441
16451TIP3    H270845   0.879   3.750  15.790  0.0514 -0.6045  0.8758
16452TIP3   OH270846   1.552   5.156  16.375  0.6296  0.1615 -0.2338
16452TIP3    H170847   1.627   5.112  16.336 -0.1169 -1.6551  0.3054
16452TIP3    H270848   1.478   5.096  16.361 -0.6318  1.6509 -0.2793
16453TIP3   OH270849   3.155   5.006   4.699  0.5335 -0.5474  0.1538
16453TIP3    H170850   3.205   5.067   4.645 -0.3153 -1.9587 -2.3467
16453TIP3    H270851   3.117   5.061   4.768  1.1318  1.4692 -1.0486
16454TIP3   OH270852   1.872   2.755   4.169  0.1052  0.1114 -0.1223
16454TIP3    H170853   1.965   2.744   4.187 -0.1441 -0.2556  1.0525
16454TIP3    H270854   1.837   2.666   4.164 -0.2792  0.2490  0.0544
16455TIP3   OH270855   3.180   3.397  10.701  0.1424 -0.2944 -1.1272
16455TIP3    H170856   3.196   3.491  10.707 -3.0175  0.2789 -0.2530
16455TIP3    H270857   3.094   3.384  10.741  0.8661 -3.7134 -0.3357
16456TIP3   OH270858   5.148   6.083   3.887  0.7077 -0.6053  0.2042
16456TIP3    H170859   5.140   5.988   3.892 -1.4866 -0.4203  1.4961
16456TIP3    H270860   5.159   6.111   3.978  2.0574  0.3744 -0.2156
16457TIP3   OH270861   4.188   0.223  10.759  0.3530 -0.3642 -0.0738
16457TIP3    H170862   4.164   0.298  10.705 -1.1837 -0.5230  0.3302
16457TIP3    H270863   4.253   0.175  10.707 -0.9946 -0.4652 -1.7590
16458TIP3   OH270864   4.203   3.455  14.106 -0.1971 -0.4309 -0.1455
16458TIP3    H170865   4.219   3.543  14.139 -0.0779 -0.2720 -0.6261
16458TIP3    H270866   4.290   3.417  14.093 -0.1990  0.0349 -1.6763
16459TIP3   OH270867   5.191   0.109  15.340  0.4250  0.0744  0.3401
16459TIP3    H170868   5.205   0.199  15.370  1.6565  0.5474 -1.4759
16459TIP3    H270869   5.272   0.086  15.295 -0.8474 -0.9145 -1.6231
16460TIP3   OH270870   6.278   2.745   0.987  0.0638 -0.5550 -0.2885
16460TIP3    H170871   6.285   2.802   1.064  1.9651 -1.4162  0.2216
16460TIP3    H270872   6.329   2.790   0.919  2.9389 -2.3014  0.5825
16461TIP3   OH270873   0.768   4.900   0.370 -0.4170 -0.6320  0.3964
16461TIP3    H170874   0.731   4.929   0.287 -0.2246  0.2680  0.6192
16461TIP3    H270875   0.760   4.975   0.428 -1.0813 -1.4366  1.3817
16462TIP3   OH270876   5.578   2.037  14.187 -0.4902  0.2454 -0.2137
16462TIP3    H170877   5.555   1.945  14.192 -2.6637  0.7703  0.9125
16462TIP3    H270878   5.627   2.054  14.268 -1.0998  0.3053  0.1494
16463TIP3   OH270879   5.153   4.411  13.812  0.3613 -0.1282 -0.4879
16463TIP3    H170880   5.183   4.499  13.836  2.2696 -0.9668  0.3397
16463TIP3    H270881   5.065   4.406  13.849  0.2810  1.3547 -0.3865
16464TIP3   OH270882   4.412   3.313   5.452  0.4464 -0.0680 -0.1357
16464TIP3    H170883   4.343   3.351   5.397  0.7524 -0.9739 -1.1704
16464TIP3    H270884   4.365   3.267   5.521  0.0588  2.2552  1.2600
16465TIP3   OH270885   5.512   1.323   1.522 -0.2308  0.4193  0.0611
16465TIP3    H170886   5.525   1.242   1.572  0.5079  0.7646  0.4592
16465TIP3    H270887   5.587   1.326   1.463 -0.7604  0.3423 -0.6189
16466TIP3   OH270888   2.303   0.452   3.950 -0.2513 -0.0506 -0.6275
16466TIP3    H170889   2.336   0.477   4.036 -0.9402 -0.7445 -0.1471
16466TIP3    H270890   2.317   0.358   3.945 -2.8191 -0.5128 -0.0835
16467TIP3   OH270891   6.048   4.460  11.068  0.1857  0.3097  0.3419
16467TIP3    H170892   5.995   4.395  11.113 -1.0203  1.7164  1.0557
16467TIP3    H270893   6.118   4.410  11.026 -1.5259 -1.5912 -0.3877
16468TIP3   OH270894   1.370   4.201  11.888 -0.0560 -0.5301 -0.2010
16468TIP3    H170895   1.398   4.155  11.809  0.2537 -0.9417  0.1432
16468TIP3    H270896   1.274   4.205  11.881  0.0428  0.6721 -1.2696
16469TIP3   OH270897   1.295   1.922  13.323  0.2622  0.5946  0.0907
16469TIP3    H170898   1.249   1.874  13.254 -1.4408  1.8709  0.2826
16469TIP3    H270899   1.236   1.919  13.398  2.3263 -1.2816  1.7934
16470TIP3   OH270900   0.822   6.158  15.333  0.2677 -0.0512 -0.6832
16470TIP3    H170901   0.787   6.174  15.421 -0.6986 -1.6244 -0.7446
16470TIP3    H270902   0.766   6.210  15.275  1.5807  1.8574 -0.3255
16471TIP3   OH270903   3.325   6.413   1.694 -0.4826  0.1521  0.8685
16471TIP3    H170904   3.393   6.427   1.760  1.7463 -0.6637 -1.0916
16471TIP3    H270905   3.313   6.499   1.653 -1.4236  0.5204  1.8658
16472TIP3   OH270906   5.831   5.390  13.163  0.2108 -0.3720 -0.3557
16472TIP3    H170907   5.834   5.367  13.256  1.9781 -1.7116 -0.6973
16472TIP3    H270908   5.910   5.442  13.149 -0.6024  0.7643 -0.9247
16473TIP3   OH270909   5.566   1.173  12.656  0.6985  0.1184  0.1918
16473TIP3    H170910   5.560   1.098  12.714 -0.0108 -0.6023 -0.7846
16473TIP3    H270911   5.603   1.243  12.711 -0.2521 -0.4343  1.5932
16474TIP3   OH270912   4.166   0.678   6.123 -0.4008 -0.2557 -0.5605
16474TIP3    H170913   4.101   0.710   6.185  0.5788  0.7135  0.0058
16474TIP3    H270914   4.210   0.606   6.169 -1.0797 -0.9438 -0.9621
16475TIP3   OH270915   6.262   4.300   5.836  0.0079  0.4587  0.3391
16475TIP3    H170916   6.320   4.305   5.912  0.1349  1.5344  0.1803
16475TIP3    H270917   6.184   4.349   5.863 -0.5040 -0.3042  0.2620
16476TIP3   OH270918   2.993   3.202  16.835 -0.0630  0.2589 -0.1697
16476TIP3    H170919   3.059   3.191  16.766 -0.3471 -0.4213 -0.3380
16476TIP3    H270920   2.956   3.289  16.819 -0.5830 -0.1488 -1.2823
16477TIP3   OH270921   4.263   0.449   5.476  0.3767 -0.0386 -0.3085
16477TIP3    H170922   4.309   0.372   5.442  0.1286  0.2352 -1.2807
16477TIP3    H270923   4.213   0.416   5.551  1.6724 -0.4641  0.4101
16478TIP3   OH270924   1.415   4.446   3.569  0.7370 -0.0320 -0.6767
16478TIP3    H170925   1.507   4.423   3.555  1.4843  1.6872  1.0438
16478TIP3    H270926   1.407   4.534   3.534 -0.7324 -0.7647 -2.3346
16479TIP3   OH270927   2.813   0.292  17.123 -0.0749  0.0295  0.1870
16479TIP3    H170928   2.854   0.379  17.128  1.2447 -0.6193  1.3618
16479TIP3    H270929   2.734   0.306  17.071 -1.1970  2.4483  2.3253
16480TIP3   OH270930   4.630   1.922   3.056 -0.2607 -0.2250 -0.4994
16480TIP3    H170931   4.666   1.890   2.973 -1.2063  2.2643 -1.9885
16480TIP3    H270932   4.539   1.942   3.037 -0.8421 -0.6532  1.5192
16481TIP3   OH270933   5.277   0.521   1.977 -0.0290  0.4169  0.0697
16481TIP3    H170934   5.184   0.541   1.970  0.3366  1.9497 -0.8441
16481TIP3    H270935   5.320   0.607   1.982  1.4842 -0.1567 -1.8379
16482TIP3   OH270936   3.473   3.362   4.903  0.1065 -0.5486 -0.1670
16482TIP3    H170937   3.421   3.395   4.830  2.1639  1.1161 -0.9941
16482TIP3    H270938   3.410   3.348   4.974 -1.6508 -0.2032 -1.6038
16483TIP3   OH270939   6.046   3.892   2.303  0.4491  0.0397  0.2786
16483TIP3    H170940   5.962   3.847   2.304  0.2151  0.4804  1.0943
16483TIP3    H270941   6.045   3.946   2.382  1.8339 -0.5540  0.7208
16484TIP3   OH270942   2.336   5.947  16.556  0.7304 -0.9496  0.3126
16484TIP3    H170943   2.324   5.989  16.641  1.8287 -2.7221  1.4027
16484TIP3    H270944   2.249   5.915  16.532  0.4028 -0.3824  0.7160
16485TIP3   OH270945   2.658   4.797   3.165  0.3219  0.5278  0.0851
16485TIP3    H170946   2.686   4.751   3.085  1.6137  0.6702  0.4335
16485TIP3    H270947   2.625   4.881   3.134  2.1565  1.1707 -0.2108
16486TIP3   OH270948   3.414   0.076  14.402 -0.1854  0.0749  0.2867
16486TIP3    H170949   3.376   0.099  14.318 -0.3401  1.4788  0.7098
16486TIP3    H270950   3.429  -0.018  14.397  0.6004  0.2634 -1.6122
16487TIP3   OH270951   0.569   5.185  10.512  0.0735 -0.0628  0.4634
16487TIP3    H170952   0.615   5.265  10.485  0.0468  0.2636  1.3286
16487TIP3    H270953   0.637   5.133  10.555  0.0451 -0.4156  0.0791
16488TIP3   OH270954   1.751   4.864  14.838  0.4583  0.2804  0.1431
16488TIP3    H170955   1.679   4.869  14.901  0.3545  1.2242 -0.0321
16488TIP3    H270956   1.772   4.956  14.819  0.9202  0.0045 -0.7090
16489TIP3   OH270957   4.261   0.056   1.783 -0.6152 -0.3977 -0.1889
16489TIP3    H170958   4.287   0.001   1.709  0.6288 -0.0060 -0.0739
16489TIP3    H270959   4.340   0.063   1.836 -1.3198 -0.1522  0.8559
16490TIP3   OH270960   3.832   3.163   3.118 -0.0001 -0.0081  0.3653
16490TIP3    H170961   3.780   3.243   3.128  0.0639  0.2485 -1.1536
16490TIP3    H270962   3.920   3.194   3.098 -0.0786 -0.4363 -0.7137
16491TIP3   OH270963   0.053   1.588   0.498  0.1451 -0.1373 -0.2489
16491TIP3    H170964   0.071   1.669   0.546  0.8399  0.2661 -1.1627
16491TIP3    H270965   0.137   1.565   0.457 -0.6567  0.1308 -2.1610
16492TIP3   OH270966   5.560   2.666   5.714  1.1568  0.0619  0.6660
16492TIP3    H170967   5.467   2.663   5.737  0.7650  2.1290 -0.3564
16492TIP3    H270968   5.602   2.602   5.772 -0.7887 -0.3299  1.7152
16493TIP3   OH270969   3.765   4.389  17.224  0.2352  0.3968 -0.5616
16493TIP3    H170970   3.776   4.484  17.237 -0.7913  0.4980 -0.3258
16493TIP3    H270971   3.727   4.382  17.136  0.5623  0.1847 -0.6859
16494TIP3   OH270972   6.072   6.283   3.963  0.2976 -0.1351 -0.5353
16494TIP3    H170973   6.102   6.371   3.985  0.5324  0.1337 -1.8818
16494TIP3    H270974   6.035   6.250   4.045  0.7335  0.9867  0.1418
16495TIP3   OH270975   5.744   6.754  11.501 -0.2378 -0.2813 -0.6159
16495TIP3    H170976   5.738   6.834  11.449 -0.1001  1.4533  1.8504
16495TIP3    H270977   5.838   6.736  11.508 -0.1191  0.6458  0.5756
16496TIP3   OH270978   0.529   5.419   5.405  0.5157  0.0293 -0.4588
16496TIP3    H170979   0.532   5.404   5.310 -0.8165 -1.0953 -0.3520
16496TIP3    H270980   0.480   5.501   5.414 -0.0982 -0.2952 -0.7283
16497TIP3   OH270981   4.318   5.238   2.042  0.0983  0.4568  0.0805
16497TIP3    H170982   4.268   5.218   1.962  0.1609 -0.5685  0.2854
16497TIP3    H270983   4.253   5.236   2.112  0.0551  1.2925  0.0746
16498TIP3   OH270984   2.954   5.610   2.973 -0.2549 -0.0875 -0.3088
16498TIP3    H170985   2.951   5.704   2.990  0.2226 -0.0169 -0.5854
16498TIP3    H270986   2.867   5.578   2.995 -0.3514  0.3832  0.0037
16499TIP3   OH270987   1.689   6.608   1.316 -0.7586  0.0034 -0.1754
16499TIP3    H170988   1.768   6.633   1.267 -0.8587  1.7822  0.5012
16499TIP3    H270989   1.721   6.549   1.384 -0.1973 -0.1935 -0.5980
16500TIP3   OH270990   0.760   1.540   0.064 -0.4295 -0.1919  0.3628
16500TIP3    H170991   0.838   1.594   0.055 -0.5360 -0.2906 -1.4001
16500TIP3    H270992   0.794   1.453   0.085 -0.1589  0.0804  1.0954
16501TIP3   OH270993   5.360   0.720   6.434  0.2051 -0.7461  0.6293
16501TIP3    H170994   5.404   0.723   6.519 -2.3634 -1.5169  2.1049
16501TIP3    H270995   5.341   0.811   6.413  2.5812 -0.3686 -0.1768
16502TIP3   OH270996   0.732   6.728  12.293  0.3562  0.1929 -0.6251
16502TIP3    H170997   0.773   6.698  12.374  0.5426  0.5148 -0.5978
16502TIP3    H270998   0.681   6.804  12.318 -0.6166 -0.4605 -0.5816
16503TIP3   OH270999   2.725   1.307   6.109 -0.2076  0.1435 -0.1874
16503TIP3    H171000   2.774   1.386   6.131 -0.8084  0.3643  0.3878
16503TIP3    H271001   2.638   1.338   6.085 -0.1276 -0.2594 -1.0352
16504TIP3   OH271002   4.038   0.531   5.939  0.3203 -0.0887 -0.4640
16504TIP3    H171003   4.077   0.562   6.021 -1.1210 -1.7457  0.9149
16504TIP3    H271004   4.108   0.542   5.874  2.1319 -0.3653  1.3291
16505TIP3   OH271005   1.652   6.597  11.972 -0.4150 -0.4258 -0.1105
16505TIP3    H171006   1.672   6.570  11.882 -0.2287  1.3150 -0.6287
16505TIP3    H271007   1.738   6.614  12.011 -0.5392  2.0637 -0.7164
16506TIP3   OH271008   1.500   2.874   3.394  0.3544  0.3411 -0.2687
16506TIP3    H171009   1.441   2.873   3.470  0.5160  2.3700 -0.0625
16506TIP3    H271010   1.577   2.826   3.423 -0.5866 -1.0574 -0.0266
16507TIP3   OH271011   3.997   4.840  16.791  0.1951 -0.0232 -0.0271
16507TIP3    H171012   4.058   4.799  16.853 -0.0087 -1.4325 -0.7056
16507TIP3    H271013   4.053   4.869  16.719  0.1591 -0.7047 -0.3393
16508TIP3   OH271014   2.256   4.771  13.228  0.4115 -0.3202  0.2176
16508TIP3    H171015   2.186   4.710  13.250  0.2090 -0.7624 -1.4947
16508TIP3    H271016   2.298   4.733  13.150  1.3839  0.8560  0.1312
16509TIP3   OH271017   1.726   1.539  17.107  0.7059  0.7995 -0.1413
16509TIP3    H171018   1.720   1.634  17.118 -0.1132  1.0761 -2.3583
16509TIP3    H271019   1.642   1.506  17.138  0.3266  1.0092 -0.9198
16510TIP3   OH271020   0.847   6.672   5.744  0.3587 -0.1602  0.2226
16510TIP3    H171021   0.770   6.724   5.722  0.4443 -0.3163 -0.4491
16510TIP3    H271022   0.847   6.600   5.681 -0.7963 -2.0716  2.2345
16511TIP3   OH271023   6.818   5.135   1.804 -0.1172 -0.5460 -0.2193
16511TIP3    H171024   6.783   5.059   1.851 -3.2857  0.1146 -1.2963
16511TIP3    H271025   6.767   5.209   1.836  1.5151  0.8642 -0.6740
16512TIP3   OH271026   4.518   3.744  14.709  0.1585 -0.3171  0.4674
16512TIP3    H171027   4.497   3.711  14.622 -1.0537 -1.9826  1.3316
16512TIP3    H271028   4.611   3.764  14.706  0.0499  0.0747 -1.3170
16513TIP3   OH271029   4.300   4.924   5.952  0.5098 -0.1175 -0.4131
16513TIP3    H171030   4.365   4.919   6.022  0.8977 -0.3599 -0.7873
16513TIP3    H271031   4.224   4.967   5.992  1.2365  1.0421 -0.2239
16514TIP3   OH271032   4.262   2.350   5.072 -0.2325 -0.0138 -0.0353
16514TIP3    H171033   4.216   2.278   5.028 -1.2880  0.6343 -0.0170
16514TIP3    H271034   4.195   2.416   5.088 -0.0375 -0.3882  2.9253
16515TIP3   OH271035   4.892   4.006  13.522 -0.0138  0.2704  0.4317
16515TIP3    H171036   4.861   3.916  13.524  0.1078  0.2355  0.9416
16515TIP3    H271037   4.839   4.049  13.455 -1.4994  0.3362  1.6035
16516TIP3   OH271038   6.721   1.843  16.122 -0.1109  0.3623 -0.0575
16516TIP3    H171039   6.664   1.862  16.047 -1.3466 -0.8883  0.4977
16516TIP3    H271040   6.682   1.764  16.161  2.0222 -0.5505  0.3668
16517TIP3   OH271041   5.168   3.195  12.602 -0.1687  0.1921 -0.0013
16517TIP3    H171042   5.140   3.234  12.685 -0.3416 -0.6090  0.3258
16517TIP3    H271043   5.232   3.129  12.628 -0.5677 -0.3803 -0.4660
16518TIP3   OH271044   0.513   1.001   5.196  0.5735  0.3506 -0.4745
16518TIP3    H171045   0.566   1.027   5.271  0.7440  0.2004 -0.5422
16518TIP3    H271046   0.458   0.930   5.229 -0.5546  1.3987 -0.0360
16519TIP3   OH271047   6.387   6.701  11.932  0.2411 -0.8374 -0.0555
16519TIP3    H171048   6.364   6.695  12.025 -1.4583 -1.4477 -0.4776
16519TIP3    H271049   6.408   6.611  11.907 -0.4979 -0.8937 -0.5193
16520TIP3   OH271050   5.437   2.648  12.020  0.2394  0.4870 -0.2198
16520TIP3    H171051   5.490   2.609  11.950  0.5062 -1.1162  0.8150
16520TIP3    H271052   5.352   2.662  11.980  0.1322 -1.2040 -0.6874
16521TIP3   OH271053   0.030   5.253   6.147 -0.9624  0.1167 -0.3525
16521TIP3    H171054  -0.049   5.199   6.155 -1.0465  0.2346 -0.3700
16521TIP3    H271055   0.095   5.209   6.201 -1.6106  1.0759  1.2720
16522TIP3   OH271056   1.972   1.119   4.873 -0.0693  0.3878  0.1412
16522TIP3    H171057   1.912   1.083   4.808  0.6586  0.7280 -0.7361
16522TIP3    H271058   2.059   1.112   4.832  0.5512 -0.3806  1.4937
16523TIP3   OH271059   2.619   0.202  11.633 -0.5244 -0.0846 -0.1844
16523TIP3    H171060   2.547   0.165  11.583 -0.4992  1.4484 -1.4159
16523TIP3    H271061   2.639   0.285  11.590  0.8472  0.3418  1.1634
16524TIP3   OH271062   4.889   4.675   1.765  0.4492 -0.5190 -0.4733
16524TIP3    H171063   4.908   4.581   1.770  2.0296 -0.3152 -1.9727
16524TIP3    H271064   4.910   4.699   1.676  1.1905  1.5172  0.2123
16525TIP3   OH271065   4.439   5.973   1.803  0.0385 -0.4005  0.0990
16525TIP3    H171066   4.385   5.955   1.726  1.2482 -1.4033 -0.5667
16525TIP3    H271067   4.403   6.054   1.839 -1.2787 -0.5168 -0.8542
16526TIP3   OH271068   0.059   6.178  11.747 -0.2704 -0.3391 -0.3102
16526TIP3    H171069   0.070   6.155  11.655  2.2637  1.2323 -0.4944
16526TIP3    H271070  -0.005   6.249  11.746  1.4923  1.3265 -1.2088
16527TIP3   OH271071   5.179   0.921   0.657 -0.0060 -0.5815 -0.2449
16527TIP3    H171072   5.182   0.944   0.564  1.6739  0.1349 -0.0549
16527TIP3    H271073   5.269   0.932   0.687 -0.7437  0.4347  1.7689
16528TIP3   OH271074   4.802   3.123   4.182  0.2535  0.1108  0.4687
16528TIP3    H171075   4.844   3.068   4.116  0.9307  0.6509  0.4489
16528TIP3    H271076   4.795   3.209   4.141 -0.1865  0.2170  0.7549
16529TIP3   OH271077   0.866   6.776  13.559  0.3228  0.4342  0.3545
16529TIP3    H171078   0.899   6.689  13.537  0.0430 -0.4590  3.0066
16529TIP3    H271079   0.784   6.785  13.510  0.9943 -0.2583 -0.9111
16530TIP3   OH271080   0.008   0.738   3.195 -0.6328 -0.2672 -0.1483
16530TIP3    H171081   0.066   0.662   3.205 -0.7226 -0.5140 -1.3205
16530TIP3    H271082  -0.079   0.700   3.185 -0.9819  0.0926  1.3268
16531TIP3   OH271083   2.001   2.937  16.761  0.2859 -0.0727 -0.0259
16531TIP3    H171084   2.071   2.962  16.821 -1.5323  2.6279  1.1751
16531TIP3    H271085   2.039   2.947  16.673  2.1249 -1.2770  0.5837
16532TIP3   OH271086   1.366   0.701  16.025  0.2088 -0.2941 -0.1646
16532TIP3    H171087   1.354   0.675  16.117 -0.7768  0.2200 -0.1242
16532TIP3    H271088   1.436   0.645  15.992  0.0708 -0.9934  0.7005
16533TIP3   OH271089   1.407   0.532  13.051 -0.8867 -0.1832  0.6854
16533TIP3    H171090   1.369   0.593  12.988 -0.8883 -0.7537  0.1258
16533TIP3    H271091   1.384   0.445  13.018  1.3523 -0.5874 -0.0057
16534TIP3   OH271092   5.253   4.675  16.810  0.5245  0.3895 -0.3501
16534TIP3    H171093   5.307   4.690  16.888 -0.7531 -0.4454  0.7476
16534TIP3    H271094   5.270   4.584  16.786  1.5384  0.8677 -1.6021
16535TIP3   OH271095   1.890   3.609   1.856 -0.6732 -0.3584  0.6706
16535TIP3    H171096   1.896   3.704   1.845 -3.8037  0.0920  1.8050
16535TIP3    H271097   1.981   3.579   1.855  0.3659  2.4383 -1.0918
16536TIP3   OH271098   2.617   2.070   0.536 -0.4073 -0.1600 -0.1724
16536TIP3    H171099   2.659   1.993   0.498 -1.6937 -0.1627 -1.6539
16536TIP3    H271100   2.576   2.114   0.462 -0.4437  1.4887  0.7857
16537TIP3   OH271101   4.852   6.110  11.746 -0.4244 -0.3744 -0.4159
16537TIP3    H171102   4.936   6.084  11.784 -0.8649 -0.2399  0.6931
16537TIP3    H271103   4.819   6.177  11.806 -1.5225 -0.7455 -0.5876
16538TIP3   OH271104   5.304   2.509  16.582 -0.0895 -0.2614 -0.3655
16538TIP3    H171105   5.219   2.525  16.623 -0.4123 -1.9279 -0.2849
16538TIP3    H271106   5.295   2.545  16.494 -0.0381  1.6641  0.3749
16539TIP3   OH271107   3.289   6.649   1.538  0.2937 -0.9368  0.5759
16539TIP3    H171108   3.238   6.692   1.606  0.6933  0.3784  0.0808
16539TIP3    H271109   3.373   6.694   1.539  0.1192 -0.5230 -1.1428
16540TIP3   OH271110   2.900   0.005   2.179 -0.0301  0.4008  0.1891
16540TIP3    H171111   2.827   0.001   2.240  0.3409 -1.1140  0.5858
16540TIP3    H271112   2.977  -0.014   2.233  0.8725  3.2362  0.0491
16541TIP3   OH271113   4.231   5.213   0.349  0.5144  0.1336  0.3058
16541TIP3    H171114   4.248   5.148   0.417  0.1068 -1.1691 -0.7764
16541TIP3    H271115   4.258   5.170   0.268  1.1588  1.7153 -0.3563
16542TIP3   OH271116   2.862   5.617   4.346  0.4610 -0.1519 -0.5770
16542TIP3    H171117   2.911   5.540   4.318 -1.4917 -0.2939 -4.2265
16542TIP3    H271118   2.906   5.690   4.304  0.1097  0.2290 -0.2905
16543TIP3   OH271119   1.821   1.065   4.658  0.3594  0.5614  0.3222
16543TIP3    H171120   1.782   0.985   4.693 -0.2098  1.0124  0.7325
16543TIP3    H271121   1.790   1.068   4.567  1.6052 -0.4577 -0.1731
16544TIP3   OH271122   2.779   6.619   1.052 -0.4178  0.1235 -0.1365
16544TIP3    H171123   2.760   6.540   1.101 -0.3689  0.4915  0.4858
16544TIP3    H271124   2.746   6.602   0.964  1.2901 -1.3190 -0.5554
16545TIP3   OH271125   2.369   2.066   5.811 -0.4146  0.3052  0.3665
16545TIP3    H171126   2.429   2.021   5.871 -0.6208  0.5959  0.8034
16545TIP3    H271127   2.282   2.034   5.836 -0.3667 -1.2672 -1.2577
16546TIP3   OH271128   2.062   6.426  14.774  0.2312 -0.1697 -0.4384
16546TIP3    H171129   2.006   6.502  14.789 -0.3487 -0.9062  1.4351
16546TIP3    H271130   2.101   6.407  14.859 -0.4856 -2.6036 -0.5677
16547TIP3   OH271131   0.946   0.108   1.662  0.0403  0.3787 -0.6999
16547TIP3    H171132   1.007   0.061   1.606 -2.5894 -0.9245 -2.6635
16547TIP3    H271133   0.959   0.200   1.639 -0.5193 -0.0807 -3.0894
16548TIP3   OH271134   3.192   1.303   3.234  0.3490 -0.0425 -0.2339
16548TIP3    H171135   3.164   1.270   3.149  0.1466  0.4525 -0.3639
16548TIP3    H271136   3.117   1.287   3.291  0.2724  0.1410 -0.2832
16549TIP3   OH271137   0.494   5.404  17.076 -0.3553  0.0090 -0.8137
16549TIP3    H171138   0.412   5.453  17.082 -0.3947 -0.1901  1.0262
16549TIP3    H271139   0.558   5.460  17.120  0.1610 -0.4834 -0.9327
16550TIP3   OH271140   3.310   5.287  15.868 -0.6683  0.1651  0.2582
16550TIP3    H171141   3.333   5.200  15.836 -1.6533 -0.3870  1.0159
16550TIP3    H271142   3.278   5.333  15.791 -2.1996 -0.8614  0.2518
16551TIP3   OH271143   5.070   2.979   3.618  0.3093 -0.1071  0.4980
16551TIP3    H171144   4.991   2.952   3.665 -1.1624 -0.1681 -1.8544
16551TIP3    H271145   5.048   3.065   3.581  1.4801  0.0384  0.1031
16552TIP3   OH271146   2.970   1.415   2.379  0.2694  0.1513 -0.0876
16552TIP3    H171147   3.051   1.373   2.349 -0.5570 -1.1796 -0.5572
16552TIP3    H271148   2.948   1.477   2.309  0.3759 -0.1857 -0.4253
16553TIP3   OH271149   5.324   6.217   1.639 -0.2129  0.0431 -0.1545
16553TIP3    H171150   5.352   6.225   1.730 -1.5061  0.0856  0.2574
16553TIP3    H271151   5.390   6.161   1.598  0.8781  0.7448  0.5718
16554TIP3   OH271152   5.734   0.559   4.971 -0.6078 -0.5546 -0.2376
16554TIP3    H171153   5.674   0.488   4.992  0.2253 -1.6309 -1.3262
16554TIP3    H271154   5.749   0.551   4.876  1.4736 -0.5561  0.0285
16555TIP3   OH271155   0.107   5.771   1.859  0.0127 -0.0696 -0.1152
16555TIP3    H171156   0.088   5.741   1.948 -1.0313  1.7152  0.3169
16555TIP3    H271157   0.196   5.805   1.863  0.2558 -0.7109  0.0315
16556TIP3   OH271158   3.169   5.940   0.220  0.0636  0.1360  0.0037
16556TIP3    H171159   3.114   5.861   0.228  0.4456 -0.1453 -0.1142
16556TIP3    H271160   3.190   5.944   0.126  2.0299 -0.9871  0.3367
16557TIP3   OH271161   4.166   5.594   2.124 -0.2500 -0.3622  0.6943
16557TIP3    H171162   4.185   5.587   2.031  1.6284  1.3690  0.8745
16557TIP3    H271163   4.078   5.560   2.133 -0.3396 -0.9222 -1.6571
16558TIP3   OH271164   2.388   1.280  13.677  0.4158  0.1687 -1.0618
16558TIP3    H171165   2.298   1.312  13.670  0.2957  0.2962  0.6512
16558TIP3    H271166   2.442   1.359  13.682  0.3205  0.1548  0.9213
16559TIP3   OH271167   1.323   1.941  15.479 -0.1924  0.2792  0.2623
16559TIP3    H171168   1.243   1.895  15.506  0.2620 -1.0155 -0.5170
16559TIP3    H271169   1.291   2.016  15.429 -0.9304  0.1855  0.5739
16560TIP3   OH271170   3.654   3.557   2.320  0.0689  0.2067 -0.4765
16560TIP3    H171171   3.641   3.575   2.227  1.7852  1.2920 -0.5520
16560TIP3    H271172   3.741   3.515   2.324 -0.7206 -1.4568  0.4864
16561TIP3   OH271173   5.349   1.268  12.510  0.2120 -0.1774  0.3695
16561TIP3    H171174   5.340   1.363  12.518 -2.6062 -0.4126  1.0460
16561TIP3    H271175   5.413   1.244  12.578  0.4486  1.1662  0.6388
16562TIP3   OH271176   2.530   0.058  12.322  0.5192  0.1095 -0.1127
16562TIP3    H171177   2.554   0.148  12.302 -0.8288  0.2310 -1.3393
16562TIP3    H271178   2.540   0.052  12.417  2.3994  0.9792 -0.2053
16563TIP3   OH271179   6.504   4.162  11.056 -0.0915 -0.1669  0.1518
16563TIP3    H171180   6.477   4.148  10.965  0.4248 -2.8805  0.3297
16563TIP3    H271181   6.600   4.155  11.054  0.0815  1.5075  0.6942
16564TIP3   OH271182   1.017   3.434  16.110 -0.0128 -0.4788  0.1986
16564TIP3    H171183   1.077   3.472  16.045 -0.1915  0.7294  0.7180
16564TIP3    H271184   1.068   3.432  16.190 -1.0724  1.9826  1.0314
16565TIP3   OH271185   0.165   2.014  14.908 -0.1218 -0.1114  0.0803
16565TIP3    H171186   0.232   1.951  14.933 -0.3461 -0.1971  0.4707
16565TIP3    H271187   0.195   2.049  14.824 -0.8200 -1.9548 -1.0065
16566TIP3   OH271188   2.721   1.935   4.027  0.3666 -0.2538 -0.2562
16566TIP3    H171189   2.804   1.919   4.071  1.5183  1.7407 -1.5228
16566TIP3    H271190   2.737   1.913   3.936 -0.1130  1.2076 -0.7214
16567TIP3   OH271191   2.012   1.326   1.255  0.3749  0.4017  0.1477
16567TIP3    H171192   1.969   1.410   1.238  1.0031  1.0928  1.7580
16567TIP3    H271193   1.984   1.270   1.183 -1.6505  1.3988  0.0984
16568TIP3   OH271194   2.379   5.173   4.194 -0.2000 -0.2185 -0.1710
16568TIP3    H171195   2.434   5.162   4.272  0.2779 -0.0635 -0.4770
16568TIP3    H271196   2.348   5.263   4.200 -0.8369 -0.4580  0.2595
16569TIP3   OH271197   5.815   1.844   2.361 -0.0641 -0.1380 -0.5230
16569TIP3    H171198   5.834   1.833   2.454 -0.9414 -2.8680 -0.5570
16569TIP3    H271199   5.898   1.825   2.317  0.0533 -0.1009 -0.3176
16570TIP3   OH271200   3.959   4.582   2.462  0.1519  0.1352  0.4180
16570TIP3    H171201   4.048   4.583   2.497  0.7087 -2.3294 -0.7060
16570TIP3    H271202   3.951   4.497   2.419 -1.6352  1.5496 -2.3956
16571TIP3   OH271203   4.139   2.766  11.297 -0.6415 -0.1873  0.0901
16571TIP3    H171204   4.071   2.720  11.248 -1.0264  0.7396 -0.2604
16571TIP3    H271205   4.221   2.740  11.255 -0.9138  0.0295 -0.5835
16572TIP3   OH271206   2.621   0.997   2.876 -0.4793 -0.1818 -0.3870
16572TIP3    H171207   2.652   1.086   2.858 -0.4252  0.0134  0.5850
16572TIP3    H271208   2.543   0.987   2.822  1.0638 -0.5816 -2.6821
16573TIP3   OH271209   0.682   4.206  11.706 -0.9097  0.0725 -0.1039
16573TIP3    H171210   0.694   4.293  11.668  2.8285 -0.9341 -1.6924
16573TIP3    H271211   0.666   4.149  11.631  1.2293 -1.1972  0.3281
16574TIP3   OH271212   0.099   3.899   3.624 -0.1820  0.1795 -0.5964
16574TIP3    H171213   0.135   3.987   3.632  0.8237 -0.3381  1.1561
16574TIP3    H271214   0.145   3.861   3.549 -0.6870  1.1425 -1.4186
16575TIP3   OH271215   2.174   6.084  12.969  0.2487  0.3104 -0.1098
16575TIP3    H171216   2.147   6.176  12.978 -0.0785  0.2764 -0.6875
16575TIP3    H271217   2.239   6.071  13.038 -0.5327  0.6626  0.7101
16576TIP3   OH271218   3.904   2.939   1.312 -0.4464 -0.3721  0.0858
16576TIP3    H171219   3.895   2.999   1.386  0.2542  0.7786 -0.7228
16576TIP3    H271220   3.824   2.887   1.313 -0.8450  0.2408  1.1172
16577TIP3   OH271221   2.136   5.585   5.779  0.4074  0.1913  0.2713
16577TIP3    H171222   2.165   5.676   5.787  0.8850  0.3557 -2.4125
16577TIP3    H271223   2.041   5.589   5.793  0.5058  0.9880  0.7708
16578TIP3   OH271224   2.468   1.688  14.421  0.2149 -0.1718 -0.8206
16578TIP3    H171225   2.549   1.730  14.394  1.6879 -1.7162  0.8656
16578TIP3    H271226   2.497   1.606  14.463 -2.1690 -0.4738  0.3856
16579TIP3   OH271227   6.183   0.594   5.600  0.1363 -0.5427  0.3672
16579TIP3    H171228   6.136   0.677   5.595  0.2716 -0.4983 -0.4246
16579TIP3    H271229   6.184   0.571   5.693  0.9872  0.8572  0.7377
16580TIP3   OH271230   1.296   0.175  17.009 -0.3115  0.2230  0.0967
16580TIP3    H171231   1.236   0.168  16.935 -0.5687  0.2131  0.3032
16580TIP3    H271232   1.259   0.245  17.063 -0.1039  0.2575  0.1939
16581TIP3   OH271233   5.401   6.808  14.338  0.0513 -0.4419  0.4345
16581TIP3    H171234   5.330   6.824  14.400  0.9997  1.5544  1.0746
16581TIP3    H271235   5.373   6.731  14.289 -3.3684  1.2587 -0.5613
16582TIP3   OH271236   6.250   3.627  12.716 -0.1505  0.4425 -0.6604
16582TIP3    H171237   6.254   3.546  12.665  0.8952 -0.7043  1.1488
16582TIP3    H271238   6.159   3.656  12.706 -1.9656 -3.3738  2.0700
16583TIP3   OH271239   1.732   1.221   3.460 -0.5215  0.5480  0.9454
16583TIP3    H171240   1.808   1.164   3.474 -0.3767  0.7306  0.9106
16583TIP3    H271241   1.667   1.191   3.523 -0.8201 -0.3221  0.2362
16584TIP3   OH271242   1.258   6.113   3.902  0.1083 -0.0757 -0.1757
16584TIP3    H171243   1.191   6.168   3.861  1.1212  2.6242  1.4429
16584TIP3    H271244   1.340   6.161   3.887  0.9340 -0.6552  2.0794
16585TIP3   OH271245   1.618   6.354  14.131  0.1325  0.4888  0.1202
16585TIP3    H171246   1.621   6.332  14.225 -2.4973 -0.7129  0.0350
16585TIP3    H271247   1.678   6.292  14.090 -0.2139 -0.3785  0.8582
16586TIP3   OH271248   1.374   2.235  13.840 -0.4482 -0.4537  0.2455
16586TIP3    H171249   1.449   2.227  13.899  0.2454  0.1703 -0.5324
16586TIP3    H271250   1.379   2.158  13.783 -0.2583 -0.2863  0.0363
16587TIP3   OH271251   6.616   1.121  14.117  0.1739  0.0908  0.0937
16587TIP3    H171252   6.652   1.203  14.082 -0.5353  0.6516  0.6419
16587TIP3    H271253   6.542   1.101  14.059 -0.3424  0.4468  0.6172
16588TIP3   OH271254   2.393   2.853  11.548  0.1058 -0.3147  0.0392
16588TIP3    H171255   2.321   2.815  11.599  1.4426 -2.0399  0.7681
16588TIP3    H271256   2.416   2.785  11.484  1.4546 -0.0757  0.2288
16589TIP3   OH271257   2.572   2.951  16.252 -0.0760  0.3780  0.6261
16589TIP3    H171258   2.655   2.971  16.295  0.0796  0.3175  0.3533
16589TIP3    H271259   2.551   3.030  16.202  0.1447  0.1507  0.1745
16590TIP3   OH271260   0.823   4.357   4.340 -0.0434  0.8260  0.0443
16590TIP3    H171261   0.743   4.307   4.357  0.0316  0.6549 -0.1094
16590TIP3    H271262   0.875   4.347   4.420 -0.2472  1.0778  0.2125
16591TIP3   OH271263   2.664   0.013   4.514 -0.0729  0.9212 -0.0927
16591TIP3    H171264   2.612  -0.064   4.537  2.9236 -1.2593 -0.0645
16591TIP3    H271265   2.642   0.078   4.581 -2.5683  0.1118 -0.0253
16592TIP3   OH271266   3.018   4.341   3.521 -0.5344  0.0258  0.1417
16592TIP3    H171267   2.923   4.336   3.524 -0.4911 -0.4223  1.2711
16592TIP3    H271268   3.043   4.381   3.605  0.2009  1.6328 -0.7943
16593TIP3   OH271269   3.449   3.308  10.646  0.1004 -0.5220  0.0897
16593TIP3    H171270   3.489   3.394  10.634 -0.9951 -0.2577 -2.3277
16593TIP3    H271271   3.356   3.327  10.661  0.2927 -1.2267  2.5167
16594TIP3   OH271272   4.028   4.913  12.299  0.4256  0.1303  0.1118
16594TIP3    H171273   3.978   4.987  12.263  0.0047 -0.2727 -0.1364
16594TIP3    H271274   4.049   4.940  12.388 -0.7178  0.0823  0.4056
16595TIP3   OH271275   2.527   5.803  12.418 -0.1113  0.0849 -0.2324
16595TIP3    H171276   2.521   5.746  12.494 -0.4311  0.0964 -0.2494
16595TIP3    H271277   2.585   5.873  12.446  0.4854 -0.3760 -0.2919
16596TIP3   OH271278   5.247   0.181   4.179  0.2832 -0.6510 -0.3365
16596TIP3    H171279   5.329   0.210   4.140 -1.7051  1.5266 -3.4009
16596TIP3    H271280   5.222   0.104   4.127 -1.4340  1.0932 -2.2660
16597TIP3   OH271281   5.411   1.057   1.840 -0.5067 -0.2856 -0.5599
16597TIP3    H171282   5.321   1.037   1.815 -0.8016  1.4318 -0.9974
16597TIP3    H271283   5.462   1.042   1.761 -1.0245  2.4590 -1.4982
16598TIP3   OH271284   0.318   5.927  12.791  0.7910  0.1375  0.3466
16598TIP3    H171285   0.387   5.890  12.736  0.8652 -0.8835  1.1079
16598TIP3    H271286   0.267   5.852  12.821  1.0936  0.5821  2.1175
16599TIP3   OH271287   5.922   1.617  10.850 -0.3252 -0.2081 -0.0325
16599TIP3    H171288   5.842   1.650  10.891 -1.3820  1.3101 -2.9872
16599TIP3    H271289   5.927   1.525  10.877 -1.4714  0.4023  2.4932
16600TIP3   OH271290   6.177   4.996   3.636  0.5224 -0.0167 -0.3218
16600TIP3    H171291   6.210   4.926   3.692  1.1289  1.5900  1.4205
16600TIP3    H271292   6.248   5.012   3.573  0.7155 -0.3963 -0.2022
16601TIP3   OH271293   0.158   6.788   1.514  0.2040 -0.2182  0.5198
16601TIP3    H171294   0.169   6.882   1.527 -3.1961  0.1901  1.2861
16601TIP3    H271295   0.200   6.748   1.590  2.2469  0.5699 -0.1330
16602TIP3   OH271296   3.219   6.667   4.043 -0.1132 -0.7063 -0.0882
16602TIP3    H171297   3.187   6.752   4.014  0.7943 -0.1882  0.4012
16602TIP3    H271298   3.185   6.606   3.978 -0.6681  0.0417 -0.5169
16603TIP3   OH271299   0.663   3.526   0.106 -0.1366 -0.0525  0.2416
16603TIP3    H171300   0.591   3.507   0.165  0.5476  0.4194  1.2489
16603TIP3    H271301   0.731   3.463   0.128  0.1491  0.1626 -0.0053
16604TIP3   OH271302   1.373   4.954  11.301 -0.1079 -0.1861 -0.2015
16604TIP3    H171303   1.367   5.039  11.257 -1.6637 -0.1093  0.1156
16604TIP3    H271304   1.287   4.940  11.340 -0.3221 -2.5246 -1.3471
16605TIP3   OH271305   6.792   1.030   2.121  0.5803  0.2619 -0.2610
16605TIP3    H171306   6.723   1.058   2.062 -1.2417 -2.8339  0.2056
16605TIP3    H271307   6.873   1.051   2.075 -0.6698  1.8397 -1.8715
16606TIP3   OH271308   1.884   6.643  14.615  0.2130 -0.2505 -0.8405
16606TIP3    H171309   1.847   6.556  14.598  0.6313 -0.3906 -1.0399
16606TIP3    H271310   1.952   6.653  14.549  0.5054  0.0250 -0.4984
16607TIP3   OH271311   6.134   5.551  14.107 -0.2907 -0.0437  0.1305
16607TIP3    H171312   6.202   5.518  14.048 -0.0342  1.3299 -0.3865
16607TIP3    H271313   6.121   5.642  14.080 -0.1855  0.6324  2.1656
16608TIP3   OH271314   5.477   5.847  12.966 -0.2026 -0.3069 -0.5542
16608TIP3    H171315   5.413   5.812  13.029 -0.2755 -1.9001 -1.4489
16608TIP3    H271316   5.561   5.840  13.011 -0.3972 -0.2767 -0.1808
16609TIP3   OH271317   5.618   1.230   1.930 -0.1189 -0.2051  0.0276
16609TIP3    H171318   5.647   1.186   2.010 -0.1355 -0.6439 -0.2057
16609TIP3    H271319   5.534   1.190   1.910  0.3734 -0.8629 -0.8002
16610TIP3   OH271320   4.023   5.718  12.358  0.4189 -0.3367  0.4661
16610TIP3    H171321   4.102   5.707  12.410 -0.5671  0.1458  2.1540
16610TIP3    H271322   3.951   5.709  12.421 -0.7872  3.8963  0.0082
16611TIP3   OH271323   5.413   4.577   2.743  0.5950 -0.1966  0.2341
16611TIP3    H171324   5.386   4.654   2.793 -0.7805 -0.1601 -0.5197
16611TIP3    H271325   5.476   4.532   2.799  1.2180  1.3265  0.7993
16612TIP3   OH271326   2.586   0.480   3.734  0.2528  0.4611  0.4779
16612TIP3    H171327   2.545   0.544   3.676 -1.6011 -0.0826  1.1108
16612TIP3    H271328   2.577   0.396   3.687  2.1344  0.5164 -0.0830
16613TIP3   OH271329   3.697   3.421  11.535  0.1090  0.2381 -0.2265
16613TIP3    H171330   3.724   3.432  11.444  0.6309  1.6872  0.0833
16613TIP3    H271331   3.747   3.345  11.566  0.6561  0.3335 -0.8701
16614TIP3   OH271332   5.930   0.109   4.760 -0.1428  0.2231  0.1145
16614TIP3    H171333   5.864   0.117   4.690 -0.2611  0.2929  0.2342
16614TIP3    H271334   6.014   0.123   4.715 -0.3276  2.3144  0.3268
16615TIP3   OH271335   1.311   0.490  10.855 -0.1308 -0.0567 -0.3067
16615TIP3    H171336   1.380   0.469  10.918 -2.2320  0.4861  2.3909
16615TIP3    H271337   1.261   0.409  10.847 -0.9752  0.3942  0.2617
16616TIP3   OH271338   4.629   4.445   2.590 -0.4099 -0.0709  0.5189
16616TIP3    H171339   4.685   4.389   2.644 -0.4289 -0.7486 -0.1404
16616TIP3    H271340   4.667   4.439   2.502 -0.8547  0.3632  0.2949
16617TIP3   OH271341   6.365   5.055  16.042 -0.2597  0.6211  0.3463
16617TIP3    H171342   6.357   5.123  15.975 -0.8851  2.8189  2.5421
16617TIP3    H271343   6.459   5.038  16.047 -0.3012 -1.2582 -2.5387
16618TIP3   OH271344   0.650   6.473   2.864 -0.8335  0.5008 -0.1341
16618TIP3    H171345   0.615   6.446   2.949  0.3728 -0.2528  0.1409
16618TIP3    H271346   0.575   6.467   2.805 -1.2687 -0.7869  0.4984
16619TIP3   OH271347   6.105   3.262  16.277  0.0543 -0.3769 -0.1581
16619TIP3    H171348   6.070   3.351  16.267  0.6529 -0.2074 -0.8433
16619TIP3    H271349   6.149   3.264  16.362 -2.2860 -0.8592  1.1492
16620TIP3   OH271350   5.749   2.272   1.198  0.4668 -0.0510  0.1815
16620TIP3    H171351   5.660   2.299   1.172  0.6847 -0.3971 -0.9957
16620TIP3    H271352   5.760   2.186   1.159  1.5648  0.2839 -0.2963
16621TIP3   OH271353   4.750   5.432   1.608  0.0576 -0.2003 -0.1225
16621TIP3    H171354   4.778   5.344   1.635 -0.2924 -0.7532 -1.4905
16621TIP3    H271355   4.694   5.462   1.680  0.3745 -0.9990  0.4709
16622TIP3   OH271356   1.646   3.192  17.000  0.7491  0.8161 -0.4554
16622TIP3    H171357   1.707   3.259  17.030 -1.8802  3.3850 -0.3580
16622TIP3    H271358   1.641   3.205  16.905 -0.0807  1.0909 -0.3832
16623TIP3   OH271359   1.384   0.960   3.928  0.6165 -0.2924  0.1514
16623TIP3    H171360   1.451   1.008   3.977 -0.6467  0.3363  1.3521
16623TIP3    H271361   1.301   0.998   3.957 -0.2536 -0.4771 -1.8987
16624TIP3   OH271362   4.292   1.296  11.661  0.2212  0.3987  0.0604
16624TIP3    H171363   4.286   1.377  11.609  1.1060  0.5865  0.2326
16624TIP3    H271364   4.359   1.315  11.728  1.6032 -0.9703 -0.8484
16625TIP3   OH271365   2.086   0.823  14.114 -0.0894  0.2587  0.3979
16625TIP3    H171366   2.034   0.787  14.042 -1.2830 -0.6114  1.6470
16625TIP3    H271367   2.074   0.762  14.186  2.9624 -0.1427  0.6927
16626TIP3   OH271368   0.518   3.389   3.341 -0.2928  0.4063  0.6291
16626TIP3    H171369   0.532   3.370   3.249  0.0519  1.8716  0.3651
16626TIP3    H271370   0.504   3.303   3.381 -0.1784 -0.2674 -0.7274
16627TIP3   OH271371   4.473   6.371   3.343  0.5722 -0.0153  1.0173
16627TIP3    H171372   4.382   6.395   3.325  1.2786  1.9007 -0.3975
16627TIP3    H271373   4.469   6.320   3.424 -1.8102 -0.6260  0.5981
16628TIP3   OH271374   5.768   4.958   2.124 -0.5784 -0.2445 -0.5127
16628TIP3    H171375   5.826   4.913   2.063  0.1219 -1.2297  0.8202
16628TIP3    H271376   5.680   4.936   2.096 -0.3283  0.6430 -2.1097
16629TIP3   OH271377   3.834   0.944  13.900 -0.2375 -0.3799  0.0560
16629TIP3    H171378   3.871   0.869  13.853 -0.2452  0.2288 -0.9339
16629TIP3    H271379   3.744   0.951  13.868 -0.9097 -1.1447  1.6136
16630TIP3   OH271380   0.448   4.172   3.748 -0.7027  0.6251  0.1129
16630TIP3    H171381   0.510   4.244   3.759  0.8562 -0.7307  0.6145
16630TIP3    H271382   0.504   4.094   3.737 -2.3247 -0.5135 -0.3923
16631TIP3   OH271383   3.005   2.725  17.145  0.6453 -0.5190 -0.8009
16631TIP3    H171384   2.919   2.724  17.185  0.5783 -0.9317 -0.9502
16631TIP3    H271385   2.989   2.703  17.053  0.7600  0.7263 -1.1325
16632TIP3   OH271386   5.706   4.885   3.946 -0.5093  0.2002 -0.3301
16632TIP3    H171387   5.653   4.954   3.986 -0.5740 -0.3503  0.5531
16632TIP3    H271388   5.648   4.845   3.882 -0.5593  0.7880 -0.6620
16633TIP3   OH271389   0.991   6.462   4.138 -0.4843  0.5244 -0.2037
16633TIP3    H171390   0.962   6.552   4.122  1.0357  1.1591  0.4352
16633TIP3    H271391   1.078   6.457   4.098 -1.0197 -1.0476 -1.2855
16634TIP3   OH271392   0.018   5.852   6.230 -0.0823  0.1908 -0.1623
16634TIP3    H171393   0.062   5.936   6.219 -0.0827  0.0789 -1.0892
16634TIP3    H271394   0.085   5.786   6.210 -0.1020 -0.0348  0.4846
16635TIP3   OH271395   5.417   0.695  13.590 -0.1797  0.1202 -0.2917
16635TIP3    H171396   5.418   0.620  13.650  1.1471  0.0872 -0.3079
16635TIP3    H271397   5.327   0.725  13.589 -0.3227 -0.1621  1.3820
16636TIP3   OH271398   3.619   1.274  12.749 -0.1130  0.0366  0.4394
16636TIP3    H171399   3.595   1.301  12.660 -1.4030 -0.5829  0.5829
16636TIP3    H271400   3.556   1.317  12.805 -0.4638 -1.0401  0.8968
16637TIP3   OH271401   4.417   4.283   1.323 -0.5200 -0.5806 -0.1558
16637TIP3    H171402   4.383   4.236   1.246 -0.4252 -0.6605 -0.1489
16637TIP3    H271403   4.512   4.284   1.310 -0.6236  0.9457 -0.9326
16638TIP3   OH271404   6.479   0.077   5.067  0.7730  0.1876 -0.3727
16638TIP3    H171405   6.527  -0.005   5.055  1.1078  0.0343  1.6673
16638TIP3    H271406   6.545   0.140   5.097 -0.1200  0.1109  1.9744
16639TIP3   OH271407   6.506   4.648  15.132  0.1438 -0.0122 -0.3279
16639TIP3    H171408   6.452   4.574  15.158 -0.1968 -0.3014 -1.7820
16639TIP3    H271409   6.530   4.630  15.041  1.4296  0.8582 -0.1977
16640TIP3   OH271410   6.393   2.136  15.926 -0.2745  0.3392 -0.3384
16640TIP3    H171411   6.465   2.193  15.899 -1.0062  0.3838 -2.3265
16640TIP3    H271412   6.361   2.175  16.008 -0.4114  2.5058 -1.3553
16641TIP3   OH271413   2.843   2.989   4.102  0.1479  0.1061 -0.2115
16641TIP3    H171414   2.786   3.063   4.083  1.6584  1.2171 -0.5696
16641TIP3    H271415   2.861   2.950   4.017  0.0237 -0.1700 -0.1126
16642TIP3   OH271416   3.009   0.131  12.665  0.4781  0.0181 -0.1049
16642TIP3    H171417   2.961   0.089  12.736 -0.9539 -2.5032 -2.4138
16642TIP3    H271418   3.081   0.071  12.646  1.3748  1.1034 -0.2656
16643TIP3   OH271419   5.446   0.600  14.504 -0.1373 -0.2405 -0.2393
16643TIP3    H171420   5.527   0.550  14.510  0.3955  0.7357  1.0031
16643TIP3    H271421   5.402   0.585  14.588 -0.5309  0.4218 -0.3190
16644TIP3   OH271422   2.591   5.329   4.651  0.8828  0.4153  0.3934
16644TIP3    H171423   2.515   5.356   4.702 -0.8367  0.3698 -1.9584
16644TIP3    H271424   2.612   5.404   4.596  0.9066 -0.4037 -0.7706
16645TIP3   OH271425   4.786   1.567   3.500 -0.0607 -0.0142 -0.1774
16645TIP3    H171426   4.789   1.638   3.564  1.2208 -0.2264  0.0181
16645TIP3    H271427   4.855   1.589   3.436 -0.2958 -0.5898 -0.6388
16646TIP3   OH271428   6.724   2.886   1.025 -0.0901 -0.1634  0.1189
16646TIP3    H171429   6.769   2.934   0.956  0.2960 -0.9323 -0.1851
16646TIP3    H271430   6.719   2.796   0.992  0.5778 -0.6658  1.3000
16647TIP3   OH271431   2.211   3.527  11.950 -0.2472  0.3896 -0.6009
16647TIP3    H171432   2.225   3.604  12.004  2.0326 -0.8112  0.6690
16647TIP3    H271433   2.299   3.499  11.924 -0.8486 -2.3620 -0.0659
16648TIP3   OH271434   1.107   5.985   4.550  0.0657  0.0885  0.7631
16648TIP3    H171435   1.057   6.036   4.614 -0.3981 -0.6820  1.0295
16648TIP3    H271436   1.043   5.962   4.483 -0.1437 -1.5160  1.4634
16649TIP3   OH271437   0.220   4.013   4.602 -0.8303  0.3009  0.3254
16649TIP3    H171438   0.270   3.980   4.677  0.3789 -0.0848 -0.6142
16649TIP3    H271439   0.197   4.102   4.626  1.2242  0.8703  0.4174
16650TIP3   OH271440   4.989   5.765  14.430  0.3694 -0.0598  0.0317
16650TIP3    H171441   4.902   5.735  14.456 -1.1122  2.7323 -1.2388
16650TIP3    H271442   5.001   5.730  14.342 -0.2658  0.8879 -0.4565
16651TIP3   OH271443   1.643   5.812  13.006 -0.0272  0.4956  0.4825
16651TIP3    H171444   1.677   5.766  13.082  0.4336 -2.4920 -1.3631
16651TIP3    H271445   1.719   5.824  12.949 -0.5466  1.6519  0.0070
16652TIP3   OH271446   1.342   1.923   3.120  0.5521 -0.8878  0.0128
16652TIP3    H171447   1.395   1.997   3.090 -1.2697 -0.0965 -1.4772
16652TIP3    H271448   1.339   1.864   3.044  0.3283 -1.5426  0.5170
16653TIP3   OH271449   6.709   4.730   4.817  0.3691  0.2504 -0.4121
16653TIP3    H171450   6.712   4.795   4.887  4.3392 -0.8696  0.7412
16653TIP3    H271451   6.654   4.660   4.851  1.0767  0.3512  0.9980
16654TIP3   OH271452   2.716   0.213  13.626  0.0030 -0.1281 -0.8891
16654TIP3    H171453   2.760   0.257  13.553  0.7055  0.5505 -0.0760
16654TIP3    H271454   2.771   0.137  13.645  0.4935  0.3879 -0.2579
16655TIP3   OH271455   0.042   5.744  15.452  0.9681  0.0377 -0.4006
16655TIP3    H171456   0.138   5.748  15.455  0.9059  1.5201  1.6803
16655TIP3    H271457   0.018   5.802  15.380  1.6324 -0.1941 -0.8178
16656TIP3   OH271458   4.305   0.313   1.684  0.0189 -0.5436  0.1931
16656TIP3    H171459   4.283   0.382   1.747  1.2919 -0.6160  0.7564
16656TIP3    H271460   4.274   0.233   1.725  1.2720 -0.6535  1.0085
16657TIP3   OH271461   4.186   2.645   0.912  0.7565  0.3110  0.2331
16657TIP3    H171462   4.130   2.574   0.882  1.0195 -0.5989  1.8136
16657TIP3    H271463   4.146   2.676   0.993  1.0192  1.5281 -0.0768
16658TIP3   OH271464   4.810   0.914   1.024 -0.1757 -0.0651  0.0624
16658TIP3    H171465   4.738   0.958   0.981  0.8932  0.0151 -1.7411
16658TIP3    H271466   4.889   0.955   0.988  0.8380 -2.6219 -0.8457
16659TIP3   OH271467   0.344   1.507  16.453 -0.2355  0.4172  0.5537
16659TIP3    H171468   0.394   1.586  16.473 -0.0393 -0.1780  2.6256
16659TIP3    H271469   0.411   1.442  16.430 -0.3924  0.8048 -1.0866
16660TIP3   OH271470   4.640   6.075   0.946 -0.1717  0.2421  0.6909
16660TIP3    H171471   4.595   6.116   1.020 -1.2636  0.6678 -0.1750
16660TIP3    H271472   4.681   6.148   0.899  0.3516 -0.0010  0.7645
16661TIP3   OH271473   4.685   3.193  10.967  0.4337  0.2967  0.3879
16661TIP3    H171474   4.699   3.276  10.920  0.2532  0.2230  0.2026
16661TIP3    H271475   4.745   3.131  10.925  0.2345  0.2178  0.2213
16662TIP3   OH271476   6.334   6.098  13.780 -0.4564 -0.8418 -0.4399
16662TIP3    H171477   6.341   6.104  13.685  0.7616 -0.0963 -0.3336
16662TIP3    H271478   6.391   6.168  13.812 -1.1942 -0.7996  0.8372
16663TIP3   OH271479   3.424   2.168   6.212  0.5063 -0.0812  0.1953
16663TIP3    H171480   3.447   2.235   6.148  0.4449  0.6813  0.9538
16663TIP3    H271481   3.418   2.215   6.295  0.0456 -0.9539  0.6721
16664TIP3   OH271482   6.819   2.257   2.783 -0.4344  0.4648 -0.0882
16664TIP3    H171483   6.885   2.189   2.797 -1.1652 -0.0973  0.7532
16664TIP3    H271484   6.868   2.339   2.786  0.1186  0.1253  1.5220
16665TIP3   OH271485   4.646   4.221   5.214 -0.2764 -0.1629  0.2380
16665TIP3    H171486   4.648   4.229   5.309 -1.7853  2.2944  0.1516
16665TIP3    H271487   4.737   4.229   5.187  0.0609  0.1778  1.4190
16666TIP3   OH271488   1.502   5.302  13.459 -0.6960  0.0047  0.1289
16666TIP3    H171489   1.458   5.220  13.483 -0.5644 -0.8164 -2.2304
16666TIP3    H271490   1.595   5.283  13.475 -0.8337  0.5555  1.8123
16667TIP3   OH271491   0.294   5.997  17.210  0.2057  0.0358  0.0696
16667TIP3    H171492   0.209   6.005  17.254  0.6308  0.0647  0.9174
16667TIP3    H271493   0.273   5.987  17.118 -0.7603 -0.7470  0.3550
16668TIP3   OH271494   1.253   5.077  16.371  0.7865  0.1908  0.0163
16668TIP3    H171495   1.259   4.991  16.413 -0.9260 -0.5062 -1.0250
16668TIP3    H271496   1.198   5.129  16.430  1.1672  0.3144  0.2640
16669TIP3   OH271497   6.563   0.723  13.605  0.1290  0.4428  0.1119
16669TIP3    H171498   6.499   0.790  13.629  0.6364  0.8446  0.3548
16669TIP3    H271499   6.603   0.756  13.525  0.4455  0.4754  0.2831
16670TIP3   OH271500   3.320   5.678  10.478  0.3368 -0.1233 -0.0713
16670TIP3    H171501   3.407   5.708  10.502  0.5866 -0.2896 -0.7336
16670TIP3    H271502   3.336   5.605  10.417 -0.0850  3.2044 -4.7129
16671TIP3   OH271503   2.096   3.958   3.859  0.1977  0.5875 -0.3700
16671TIP3    H171504   2.054   3.873   3.852 -0.1884  0.8352 -1.2297
16671TIP3    H271505   2.026   4.019   3.881  0.6213  0.5616  1.1271
16672TIP3   OH271506   1.951   6.361   4.311 -0.1626 -0.1783  0.4823
16672TIP3    H171507   1.988   6.371   4.399 -1.3935 -0.8991  1.1020
16672TIP3    H271508   2.027   6.364   4.253  0.8332 -1.1337  1.6850
16673TIP3   OH271509   6.645   1.370  16.374 -0.6190 -0.0260  0.3987
16673TIP3    H171510   6.632   1.429  16.448 -0.0404  0.5373  0.0665
16673TIP3    H271511   6.617   1.420  16.297 -1.8225 -0.8365  0.2940
16674TIP3   OH271512   1.677   0.254  14.712 -0.3648 -0.1080 -0.4625
16674TIP3    H171513   1.730   0.175  14.724 -0.2611  0.1665  1.0672
16674TIP3    H271514   1.598   0.238  14.764 -0.3676  0.7715 -0.1789
16675TIP3   OH271515   1.034   3.503   4.240  0.1738  0.1269  0.0358
16675TIP3    H171516   0.989   3.587   4.241  1.4010  0.8101 -0.1994
16675TIP3    H271517   1.018   3.468   4.152  0.9006  0.8233 -0.3836
16676TIP3   OH271518   5.227   6.511  10.810 -0.0836 -0.5652 -0.4669
16676TIP3    H171519   5.204   6.604  10.799  0.5323 -0.2580  0.6513
16676TIP3    H271520   5.321   6.512  10.829 -0.3247 -1.3115  0.8370
16677TIP3   OH271521   4.569   1.878  13.854  0.2458  0.2617  0.9358
16677TIP3    H171522   4.522   1.960  13.837  0.7885  0.8206  1.9649
16677TIP3    H271523   4.534   1.816  13.791  0.4416  1.5302 -0.4675
16678TIP3   OH271524   1.365   6.089   6.407 -0.0287  0.0942  0.0245
16678TIP3    H171525   1.273   6.060   6.406  0.0020 -0.0263  0.5891
16678TIP3    H271526   1.393   6.077   6.497  0.2450  1.0739  0.0880
16679TIP3   OH271527   2.965   2.579  16.904  0.0626  0.5815 -1.0865
16679TIP3    H171528   2.890   2.547  16.855 -0.0702  0.3148 -0.7130
16679TIP3    H271529   3.030   2.602  16.837 -0.1284  0.2479 -1.3861
16680TIP3   OH271530   5.637   5.180  15.524 -0.2515  0.7382 -0.1115
16680TIP3    H171531   5.607   5.090  15.509 -2.7309  1.2331  1.2790
16680TIP3    H271532   5.719   5.169  15.573 -2.3106 -0.9676  3.4174
16681TIP3   OH271533   5.025   0.079  12.877 -0.6219  0.4533  0.2868
16681TIP3    H171534   5.042   0.168  12.848 -0.8127 -0.0209 -1.3902
16681TIP3    H271535   4.930   0.069  12.871 -0.9104  0.9390  3.0360
16682TIP3   OH271536   2.243   5.745  17.198  0.2100 -0.1483  0.0909
16682TIP3    H171537   2.232   5.783  17.111  2.0375 -1.1824 -0.6497
16682TIP3    H271538   2.280   5.816  17.251  1.0010 -0.0771 -0.5367
16683TIP3   OH271539   4.621   4.764   2.988 -0.1911  0.2134 -0.0287
16683TIP3    H171540   4.547   4.706   3.006  0.7338 -1.5131 -1.5369
16683TIP3    H271541   4.690   4.733   3.046 -0.4706  1.5465  1.0645
16684TIP3   OH271542   3.947   2.943  14.283  0.2829  0.3389 -0.1239
16684TIP3    H171543   3.921   2.996  14.358 -0.2894  0.6601 -0.5405
16684TIP3    H271544   4.043   2.944  14.285  0.2738  0.7804  0.3013
16685TIP3   OH271545   3.924   5.827  12.653  0.3192  0.3612 -0.4617
16685TIP3    H171546   3.830   5.820  12.636  0.4900 -1.3335 -0.8424
16685TIP3    H271547   3.932   5.901  12.714 -1.2334  0.6004 -0.5155
16686TIP3   OH271548   2.210   1.843   2.396 -0.3291 -0.2562 -0.4285
16686TIP3    H171549   2.240   1.934   2.393 -3.6569  0.9783 -0.5589
16686TIP3    H271550   2.243   1.810   2.480  0.6554  1.1906 -0.2169
16687TIP3   OH271551   2.681   4.493  10.983  0.3440  0.4011 -0.3864
16687TIP3    H171552   2.661   4.569  10.928 -0.1273  0.5811  0.0295
16687TIP3    H271553   2.733   4.436  10.927  0.0086  0.6587 -0.9650
16688TIP3   OH271554   5.294   3.929  13.678 -0.1275 -0.2634 -0.5938
16688TIP3    H171555   5.274   4.013  13.719 -1.1330 -1.0771  0.6359
16688TIP3    H271556   5.350   3.885  13.741  0.7710 -0.3715 -1.4334
16689TIP3   OH271557   4.939   0.973  10.921 -0.3410  0.5598  0.2692
16689TIP3    H171558   4.888   0.942  10.847  0.4082  1.4732 -0.6589
16689TIP3    H271559   4.899   0.931  10.998 -1.2918 -0.1859 -0.6134
16690TIP3   OH271560   1.480   1.640  13.861  0.1265  0.4413  0.3051
16690TIP3    H171561   1.397   1.598  13.839  0.2920 -1.3757  2.7769
16690TIP3    H271562   1.455   1.728  13.890 -0.5086  1.1930 -2.3066
16691TIP3   OH271563   3.576   0.952  13.811 -0.0722  0.1735  0.0346
16691TIP3    H171564   3.510   0.984  13.872  0.2819  2.7298 -0.7882
16691TIP3    H271565   3.564   1.007  13.733  1.7356 -0.6320 -0.8542
16692TIP3   OH271566   4.095   5.655   0.815 -0.1148 -0.2796  0.4588
16692TIP3    H171567   4.026   5.651   0.749 -0.5577  0.9653  0.8195
16692TIP3    H271568   4.166   5.601   0.779 -0.5297 -0.0032 -0.8103
16693TIP3   OH271569   6.006   1.469  16.549  1.1575  1.6331 -0.1017
16693TIP3    H171570   6.055   1.512  16.478  2.8337 -0.5782 -0.3908
16693TIP3    H271571   6.074   1.438  16.609  0.0732 -0.4054  0.1589
16694TIP3   OH271572   1.853   3.602   6.514 -0.0858 -0.2046  0.0908
16694TIP3    H171573   1.827   3.558   6.433  0.6215 -1.3806  0.4775
16694TIP3    H271574   1.846   3.535   6.582  1.1283  0.2279  0.6855
16695TIP3   OH271575   2.331   3.785  15.644 -0.2461  0.0311 -0.6642
16695TIP3    H171576   2.323   3.711  15.704  1.7416 -0.2016 -0.6062
16695TIP3    H271577   2.260   3.843  15.669 -1.4307 -1.5250 -0.2386
16696TIP3   OH271578   6.282   5.973   3.236  0.0304  0.6950  0.3283
16696TIP3    H171579   6.218   5.912   3.271  1.9218 -0.3802  2.1514
16696TIP3    H271580   6.258   5.983   3.143 -2.7035  0.3867  0.9204
16697TIP3   OH271581   3.926   5.375  12.390 -0.3883  0.3999  0.2976
16697TIP3    H171582   3.842   5.359  12.431 -1.4812 -0.7882 -2.1836
16697TIP3    H271583   3.972   5.435  12.450 -3.5935  2.4158  0.9816
16698TIP3   OH271584   1.655   0.666  14.663 -0.1882 -0.2307  0.0252
16698TIP3    H171585   1.643   0.595  14.726 -0.1594 -0.4087 -0.1659
16698TIP3    H271586   1.606   0.740  14.699  0.8983  0.0884  0.9269
16699TIP3   OH271587   4.285   1.356   0.610 -0.0414  0.0121  0.4630
16699TIP3    H171588   4.215   1.349   0.545 -0.9195  1.3688  1.2150
16699TIP3    H271589   4.251   1.310   0.687  0.0480  0.3510  0.7058
16700TIP3   OH271590   5.496   1.946   1.270 -0.1618 -1.0424 -0.0341
16700TIP3    H171591   5.413   1.910   1.239 -0.1570 -3.1436  2.1163
16700TIP3    H271592   5.562   1.910   1.212 -0.6581  0.3379 -1.5224
16701TIP3   OH271593   1.623   5.675  16.393  0.1250 -0.6837  0.1408
16701TIP3    H171594   1.622   5.585  16.426 -0.1569 -0.9079 -0.4576
16701TIP3    H271595   1.534   5.706  16.405  0.6929  0.2566  2.2711
16702TIP3   OH271596   1.979   0.095   0.673 -0.4104  0.0207  0.1775
16702TIP3    H171597   1.944   0.006   0.683  0.1423 -0.4379 -1.5731
16702TIP3    H271598   2.014   0.116   0.759 -2.7150 -0.4577  1.3368
16703TIP3   OH271599   1.116   4.129  11.973 -0.1658  0.4843  0.5572
16703TIP3    H171600   1.060   4.196  11.933 -1.0779 -0.2863  0.5237
16703TIP3    H271601   1.071   4.107  12.055 -0.6083 -1.0667 -0.0726
16704TIP3   OH271602   0.831   1.391  10.986  0.1903  0.1393  0.2906
16704TIP3    H171603   0.923   1.390  10.960  0.0970 -0.8258 -0.0449
16704TIP3    H271604   0.817   1.478  11.021  1.0480  0.5420 -0.3355
16705TIP3   OH271605   4.067   5.991  14.371  0.3315 -0.0180 -0.5456
16705TIP3    H171606   4.009   5.952  14.307 -0.8988 -1.6105  1.4272
16705TIP3    H271607   4.017   6.064  14.408 -0.4409 -1.2908  1.0395
16706TIP3   OH271608   3.775   4.900  15.456  0.8473 -0.3965  0.1508
16706TIP3    H171609   3.819   4.984  15.471  0.0217 -0.3559  3.0790
16706TIP3    H271610   3.683   4.917  15.478  0.5149 -1.8931  0.0405
16707TIP3   OH271611   0.077   6.590   4.118  0.4329  0.0897 -0.3154
16707TIP3    H171612   0.118   6.595   4.031  0.4497  0.8732 -0.2685
16707TIP3    H271613   0.140   6.631   4.176  0.2748 -0.1456  0.0238
16708TIP3   OH271614   6.532   5.531  17.050 -0.0822 -0.1784 -0.0237
16708TIP3    H171615   6.444   5.515  17.084  0.0691 -0.0661  0.4193
16708TIP3    H271616   6.545   5.625  17.061  2.1167 -0.7862  4.9373
16709TIP3   OH271617   5.665   5.290  16.769  0.4468 -0.4213  0.2862
16709TIP3    H171618   5.701   5.262  16.686  2.0485 -0.2977  0.9067
16709TIP3    H271619   5.591   5.231  16.785  0.9088 -1.2522 -0.6105
16710TIP3   OH271620   0.274   4.354   5.179  0.3122 -0.3076 -0.2197
16710TIP3    H171621   0.361   4.340   5.142  0.3253 -1.1421  0.1043
16710TIP3    H271622   0.248   4.441   5.148  2.3860  1.1893  1.8419
16711TIP3   OH271623   5.194   2.534   2.850 -0.1138  0.3646 -0.1961
16711TIP3    H171624   5.194   2.592   2.926 -1.2260  1.1164 -0.7285
16711TIP3    H271625   5.261   2.469   2.869  2.7039  2.9456 -0.4136
16712TIP3   OH271626   1.261   3.701   3.799  0.1503 -0.0401  0.3594
16712TIP3    H171627   1.355   3.688   3.782  0.0702  0.7560 -0.8911
16712TIP3    H271628   1.247   3.794   3.781 -1.6301 -0.8594 -3.7454
16713TIP3   OH271629   5.416   1.698   2.152 -0.0845  0.5364 -0.6992
16713TIP3    H171630   5.380   1.614   2.124 -1.1508  0.2081  1.4469
16713TIP3    H271631   5.494   1.675   2.201 -0.0831  0.8346 -0.5622
16714TIP3   OH271632   6.469   6.307   4.118 -0.4592 -0.1174  0.1591
16714TIP3    H171633   6.418   6.233   4.085 -1.7436  0.5971  0.5117
16714TIP3    H271634   6.453   6.378   4.057  0.5090 -0.0082  0.0074
16715TIP3   OH271635   3.707   3.890   5.681 -0.0273  0.4121 -1.0863
16715TIP3    H171636   3.615   3.906   5.664 -0.3510 -0.9433 -0.7598
16715TIP3    H271637   3.712   3.796   5.702  1.6581  0.0569 -2.7747
16716TIP3   OH271638   2.116   6.185   6.682  0.3435  0.4416 -0.0327
16716TIP3    H171639   2.182   6.120   6.706 -0.7116  0.0296  1.9186
16716TIP3    H271640   2.055   6.137   6.626  0.4483  0.2195  0.0415
16717TIP3   OH271641   2.354   5.301   1.865 -0.1342  0.3832  0.3016
16717TIP3    H171642   2.421   5.263   1.922 -1.6741 -3.2747 -0.0365
16717TIP3    H271643   2.371   5.263   1.779 -0.9778  1.6694 -0.4721
16718TIP3   OH271644   1.736   1.323  14.873  0.0692 -0.0068  0.0600
16718TIP3    H171645   1.695   1.395  14.824  0.7321  1.2803  1.3543
16718TIP3    H271646   1.822   1.356  14.898  0.4447 -1.3152  0.5863
16719TIP3   OH271647   6.348   0.787   5.764 -0.1725  0.0791 -0.0197
16719TIP3    H171648   6.300   0.713   5.803  0.3811  0.3302  1.2025
16719TIP3    H271649   6.280   0.849   5.738 -0.5793 -0.1745  0.4138
16720TIP3   OH271650   5.157   2.082  17.124  0.1124 -0.2088  0.9832
16720TIP3    H171651   5.147   1.991  17.099  0.4349 -0.2161  0.8759
16720TIP3    H271652   5.248   2.090  17.152  1.1346  0.8338 -2.1911
16721TIP3   OH271653   3.007   4.243  13.717  0.5915  0.5835 -0.1298
16721TIP3    H171654   3.062   4.315  13.686 -0.0880  1.7887  1.3801
16721TIP3    H271655   2.918   4.274  13.706  0.2730 -0.3018 -0.0876
16722TIP3   OH271656   2.700   4.849  13.478  0.0499  0.0758 -0.1031
16722TIP3    H171657   2.790   4.838  13.509 -0.3330 -0.6647  0.7880
16722TIP3    H271658   2.684   4.774  13.422  0.6998  1.3500 -2.1147
16723TIP3   OH271659   2.412   1.917  16.140 -0.3738 -0.0372 -0.3841
16723TIP3    H171660   2.404   1.935  16.234 -0.5022 -2.4837  0.1301
16723TIP3    H271661   2.476   1.982  16.109 -1.5910  1.9370  0.9912
16724TIP3   OH271662   3.039   4.439   2.743  0.0869  0.2266  0.1374
16724TIP3    H171663   3.125   4.459   2.706  0.9778 -0.5530  1.6793
16724TIP3    H271664   3.024   4.347   2.720 -1.3475  0.8946 -1.9261
16725TIP3   OH271665   2.054   5.899   5.537  0.0105 -0.0658 -0.4539
16725TIP3    H171666   2.024   5.958   5.607 -0.4644  0.9428 -1.4692
16725TIP3    H271667   2.004   5.926   5.460  0.0807 -1.5616 -1.0501
16726TIP3   OH271668   2.065   2.842  11.349  0.3581  0.5018 -0.1704
16726TIP3    H171669   2.144   2.882  11.386  0.9353 -2.0963  1.7582
16726TIP3    H271670   2.006   2.833  11.424 -1.1721  0.9763 -1.2707
16727TIP3   OH271671   1.527   1.836   4.137 -0.4358 -0.4258 -0.4091
16727TIP3    H171672   1.512   1.918   4.183  0.2015 -0.8543  0.6139
16727TIP3    H271673   1.462   1.776   4.174  0.3576 -0.8878  0.2820
16728TIP3   OH271674   3.068   5.451   1.928 -1.0990  1.0845  0.2285
16728TIP3    H171675   2.973   5.450   1.922 -1.2016  0.4962  1.5823
16728TIP3    H271676   3.098   5.417   1.844 -2.1129  0.2631  0.1776
16729TIP3   OH271677   2.490   5.826   5.179 -0.1158 -0.0857  0.0034
16729TIP3    H171678   2.571   5.801   5.223 -0.6565 -3.2915 -0.5875
16729TIP3    H271679   2.425   5.830   5.250  0.4115  2.1508  0.4279
16730TIP3   OH271680   0.073   0.021  12.567  0.4049  0.5203  0.0297
16730TIP3    H171681   0.047   0.009  12.476 -1.1071  3.1140  0.0187
16730TIP3    H271682   0.007  -0.026  12.617  0.6082  0.0132 -0.1686
16731TIP3   OH271683   2.564   0.394  12.556  0.0186  0.1005  0.1672
16731TIP3    H171684   2.606   0.356  12.479  1.1158 -1.2477  1.3521
16731TIP3    H271685   2.484   0.342  12.568  0.3193 -0.3010  0.4519
16732TIP3   OH271686   1.285   5.717   4.819 -0.6337 -0.2950 -0.1769
16732TIP3    H171687   1.325   5.804   4.818 -0.6802 -0.2695  0.0999
16732TIP3    H271688   1.324   5.673   4.895 -0.4676 -0.5847 -0.4263
16733TIP3   OH271689   1.154   2.383   3.997 -0.6389 -0.6623 -0.2574
16733TIP3    H171690   1.227   2.324   3.980  0.4571  0.9111 -1.2622
16733TIP3    H271691   1.091   2.330   4.046  1.6120 -1.7767  1.5921
16734TIP3   OH271692   6.230   5.683   0.026 -0.3247 -0.0346  0.3884
16734TIP3    H171693   6.181   5.671   0.108  1.2380  0.3673  1.4330
16734TIP3    H271694   6.249   5.594  -0.004  0.9266 -0.2234  1.6461
16735TIP3   OH271695   6.514   5.563   1.971 -0.4367  0.6346 -0.5673
16735TIP3    H171696   6.553   5.650   1.977 -1.3310  1.1775 -2.0339
16735TIP3    H271697   6.508   5.533   2.061 -1.2643  2.6399  0.0963
16736TIP3   OH271698   3.141   3.009  12.623  0.1060 -0.6761 -0.2509
16736TIP3    H171699   3.215   2.971  12.577  0.6383 -0.4930  0.4380
16736TIP3    H271700   3.146   3.102  12.604  0.6550 -0.5166  0.5987
16737TIP3   OH271701   1.519   5.663   1.712  0.1281 -0.1229 -0.1295
16737TIP3    H171702   1.557   5.685   1.798 -0.5238  0.2471  0.0672
16737TIP3    H271703   1.510   5.747   1.668  0.8139 -0.3468 -0.7192
16738TIP3   OH271704   5.052   3.702  14.245 -0.0947  0.6820  0.1151
16738TIP3    H171705   4.959   3.727  14.251 -0.1445  1.1135 -1.7820
16738TIP3    H271706   5.050   3.607  14.237 -0.1630  0.3736  2.8004
16739TIP3   OH271707   4.728   0.712   0.752  0.5436 -0.5404  0.5731
16739TIP3    H171708   4.708   0.793   0.706  0.7646 -0.8582 -0.1002
16739TIP3    H271709   4.663   0.707   0.822  1.8876  1.3126  2.0385
16740TIP3   OH271710   0.241   3.792   4.163 -0.1269  0.3324  0.0718
16740TIP3    H171711   0.242   3.706   4.205 -1.9414 -1.1143 -2.5680
16740TIP3    H271712   0.176   3.785   4.094  1.4921  3.0365 -1.9530
16741TIP3   OH271713   0.321   4.467  11.915 -0.0813 -0.0372  0.4234
16741TIP3    H171714   0.348   4.388  11.963  1.8119 -0.3986 -1.1300
16741TIP3    H271715   0.226   4.459  11.909  0.0994 -2.6271 -0.3567
16742TIP3   OH271716   0.419   2.355  15.609 -0.0230  0.2291  0.1223
16742TIP3    H171717   0.449   2.366  15.519  0.4005 -0.2966  0.1935
16742TIP3    H271718   0.325   2.337  15.601  0.3222 -1.4908 -0.3369
16743TIP3   OH271719   5.928   3.183   0.349  0.3246 -0.5835  0.3829
16743TIP3    H171720   6.005   3.181   0.405  0.4778  4.4919  0.8196
16743TIP3    H271721   5.963   3.194   0.260  0.0436 -1.9170  0.0838
16744TIP3   OH271722   5.520   0.206   0.937 -0.7577 -0.5241 -0.1559
16744TIP3    H171723   5.563   0.134   0.889  3.5156 -0.5078  3.0348
16744TIP3    H271724   5.488   0.166   1.017  2.3775  0.9215  2.0482
16745TIP3   OH271725   3.144   1.032  17.150 -0.4073 -0.2889 -0.1415
16745TIP3    H171726   3.171   0.942  17.167 -0.6227  0.0429  2.3248
16745TIP3    H271727   3.082   1.025  17.077 -0.6361 -2.1624  0.1772
16746TIP3   OH271728   4.351   0.689  14.791 -0.2141 -0.4937 -0.4080
16746TIP3    H171729   4.389   0.623  14.848 -0.9706 -1.0858 -0.5678
16746TIP3    H271730   4.308   0.750  14.850  1.0342  0.2448 -0.2176
16747TIP3   OH271731   0.863   4.627  13.676 -0.3018 -0.4329  0.2760
16747TIP3    H171732   0.818   4.693  13.729 -0.5098 -0.9080  0.6884
16747TIP3    H271733   0.902   4.567  13.739 -0.9824 -1.2947 -0.1064
16748TIP3   OH271734   3.159   4.100   2.944 -0.0039 -0.4299  0.0684
16748TIP3    H171735   3.107   4.133   2.871  0.0818 -2.6575 -1.1016
16748TIP3    H271736   3.231   4.163   2.953 -0.4856  0.3427 -1.2012
16749TIP3   OH271737   4.653   3.093   4.689 -0.2367  0.1115  0.5695
16749TIP3    H171738   4.689   3.004   4.688  0.3451  0.3432 -0.7883
16749TIP3    H271739   4.565   3.083   4.652 -0.0041  0.1729  0.0053
16750TIP3   OH271740   0.426   1.881   4.545  0.4937 -0.1213 -0.1122
16750TIP3    H171741   0.346   1.829   4.550  1.0205 -0.9802 -0.3595
16750TIP3    H271742   0.426   1.917   4.456  0.5360 -0.3833 -0.2202
16751TIP3   OH271743   6.300   3.987   0.262  0.4511 -0.0505 -0.4704
16751TIP3    H171744   6.307   4.071   0.217 -1.0376  0.8558  0.9093
16751TIP3    H271745   6.383   3.978   0.308  1.7241 -0.6674 -2.7128
16752TIP3   OH271746   4.258   5.828  15.115  0.2558  0.6085 -0.0574
16752TIP3    H171747   4.263   5.776  15.195  1.3140  0.4409 -0.2069
16752TIP3    H271748   4.243   5.917  15.145 -1.1495  0.3000  0.2261
16753TIP3   OH271749   0.450   6.233   4.235 -0.2193  0.4343  0.5186
16753TIP3    H171750   0.512   6.290   4.281 -0.3040  0.4069  0.6672
16753TIP3    H271751   0.425   6.167   4.300  0.8059 -0.5116 -0.0128
16754TIP3   OH271752   5.687   1.620  13.290  0.0797 -0.0978  0.2097
16754TIP3    H171753   5.627   1.546  13.292 -0.2056  0.1447  1.0560
16754TIP3    H271754   5.730   1.619  13.376  0.2513  0.5687  0.1435
16755TIP3   OH271755   3.682   4.494  13.604 -0.0455  0.1128 -0.1264
16755TIP3    H171756   3.680   4.554  13.530 -1.2055  1.0411  0.6228
16755TIP3    H271757   3.720   4.545  13.676 -1.5585  0.1736  0.6679
16756TIP3   OH271758   2.579   4.873   1.825  0.6189  0.3326 -0.4885
16756TIP3    H171759   2.586   4.778   1.810  0.6551  0.2726 -0.1119
16756TIP3    H271760   2.669   4.901   1.843  0.5718  0.3969 -0.3570
16757TIP3   OH271761   6.570   4.177  14.587  0.8295 -0.4593 -0.2289
16757TIP3    H171762   6.648   4.184  14.533  1.8589  2.1233  1.3684
16757TIP3    H271763   6.502   4.220  14.536  2.2017  3.6142  0.9672
16758TIP3   OH271764   2.043   5.437   1.323 -0.0243 -0.1941  0.3911
16758TIP3    H171765   2.005   5.416   1.238  0.1687 -0.2070  0.3067
16758TIP3    H271766   1.997   5.379   1.384 -1.9458  1.5372  0.6981
16759TIP3   OH271767   0.948   6.216   1.291  0.8438 -0.2626 -0.4512
16759TIP3    H171768   1.043   6.203   1.294  1.0008  0.4997 -1.5271
16759TIP3    H271769   0.927   6.254   1.377  1.0404 -2.9884  0.9156
16760TIP3   OH271770   6.188   2.111  15.734  0.1421 -0.1895  0.4561
16760TIP3    H171771   6.234   2.111  15.650  0.1037  0.1777  0.4312
16760TIP3    H271772   6.256   2.121  15.800  0.1617 -0.3575  0.4608
16761TIP3   OH271773   4.442   0.006   3.119 -0.1672 -0.0845  0.4448
16761TIP3    H171774   4.390   0.018   3.040  1.1319  0.9134 -0.2878
16761TIP3    H271775   4.384  -0.042   3.179 -1.4369 -0.1702 -0.8132
16762TIP3   OH271776   2.305   3.400   0.714  0.4821 -0.3748 -0.4501
16762TIP3    H171777   2.371   3.426   0.778  1.1748  0.4253 -1.4420
16762TIP3    H271778   2.352   3.401   0.630 -0.4882 -1.0178 -1.0178
16763TIP3   OH271779   5.813   4.209   0.622 -0.1108 -0.1185 -0.3097
16763TIP3    H171780   5.824   4.301   0.645 -1.7063  0.3613 -1.3246
16763TIP3    H271781   5.849   4.201   0.534 -2.4014  0.2275 -1.3674
16764TIP3   OH271782   1.151   0.151  15.264  0.4344 -0.0539  0.3371
16764TIP3    H171783   1.122   0.078  15.210  0.6585 -0.0448  0.2064
16764TIP3    H271784   1.156   0.226  15.204 -2.3125  0.7160  0.9386
16765TIP3   OH271785   5.707   1.065   2.417  0.0408  0.1635  0.3130
16765TIP3    H171786   5.757   1.014   2.353 -0.0398  0.3661  0.0856
16765TIP3    H271787   5.707   1.011   2.496  1.1045  0.4087  0.4949
16766TIP3   OH271788   1.201   5.534   1.869 -0.0568 -0.1816 -0.3989
16766TIP3    H171789   1.202   5.439   1.870 -2.0642 -0.2409 -0.5251
16766TIP3    H271790   1.247   5.559   1.949 -2.1359 -1.3672  1.2706
16767TIP3   OH271791   6.121   2.383  15.987  0.1007  0.3117 -0.0279
16767TIP3    H171792   6.114   2.308  16.046 -2.3166  1.8834  1.8929
16767TIP3    H271793   6.119   2.459  16.045  0.7200  1.9197 -1.9939
16768TIP3   OH271794   5.065   5.234   2.881 -0.2821 -0.4663 -0.2974
16768TIP3    H171795   5.101   5.290   2.813  0.7027 -1.3984 -0.5776
16768TIP3    H271796   5.045   5.152   2.837 -0.3644 -0.8146  0.3729
16769TIP3   OH271797   4.486   5.471   0.241  0.0348  0.6199 -0.2825
16769TIP3    H171798   4.540   5.496   0.316 -0.9103  0.8211  0.3505
16769TIP3    H271799   4.399   5.458   0.278 -0.2597 -0.1289 -1.2103
16770TIP3   OH271800   0.437   4.343   3.440 -0.1550  0.1415  0.1067
16770TIP3    H171801   0.526   4.312   3.423 -0.0740  0.5984 -0.3177
16770TIP3    H271802   0.381   4.277   3.400 -0.0499 -0.8808  1.5747
16771TIP3   OH271803   5.038   6.570   2.241  0.1032  0.2855  0.3058
16771TIP3    H171804   5.100   6.506   2.207 -0.5399 -0.7179  0.9504
16771TIP3    H271805   4.960   6.560   2.186  0.4383  1.4291 -0.4066
16772TIP3   OH271806   5.563   6.539  13.975  0.0543 -0.3450  0.4360
16772TIP3    H171807   5.584   6.580  13.892 -0.6381 -0.0974  0.3770
16772TIP3    H271808   5.550   6.447  13.954 -1.2116 -0.1080  0.0546
16773TIP3   OH271809   0.808   5.118  11.277  0.2242  0.0940 -0.1046
16773TIP3    H171810   0.828   5.207  11.306  0.9947 -0.7409  2.2094
16773TIP3    H271811   0.821   5.119  11.183  1.6243  2.0721  0.0563
16774TIP3   OH271812   5.542   1.944  10.928  0.2281 -0.5841  0.1495
16774TIP3    H171813   5.608   1.969  10.993  1.3494  1.1531 -1.5160
16774TIP3    H271814   5.592   1.899  10.860 -0.6014 -0.7647 -0.3543
16775TIP3   OH271815   3.888   0.908   1.221 -0.0295 -0.0275  0.1899
16775TIP3    H171816   3.847   0.860   1.293  0.1199 -0.9995 -0.3672
16775TIP3    H271817   3.930   0.841   1.167 -0.9188  0.5576 -1.3144
16776TIP3   OH271818   2.558   4.500   3.931 -0.1926  0.3398  0.0530
16776TIP3    H171819   2.549   4.472   3.840 -0.1428  2.0743 -0.5223
16776TIP3    H271820   2.650   4.526   3.938 -0.5107  1.4730  0.1953
16777TIP3   OH271821   4.292   4.728  16.941  0.6837  0.4390  0.1945
16777TIP3    H171822   4.315   4.684  16.859  0.0410  1.8847 -0.7967
16777TIP3    H271823   4.219   4.677  16.976  0.1326  0.5337 -0.7876
16778TIP3   OH271824   0.724   5.207  15.837  0.1484 -0.1694  0.0777
16778TIP3    H171825   0.757   5.175  15.754  0.1199  0.6592 -0.2649
16778TIP3    H271826   0.630   5.218  15.823  0.6062  4.0756 -1.2908
16779TIP3   OH271827   2.872   4.187  15.041 -0.9993  0.0059 -0.0402
16779TIP3    H171828   2.825   4.112  15.077 -1.8211  0.0093 -1.0342
16779TIP3    H271829   2.964   4.161  15.041 -1.0175 -0.1594  1.5806
16780TIP3   OH271830   5.661   0.453  14.082  0.8955  0.9130  0.0692
16780TIP3    H171831   5.622   0.456  13.995  1.3478  0.4525 -0.1554
16780TIP3    H271832   5.749   0.416  14.068 -0.1258 -2.2364  1.0568
16781TIP3   OH271833   1.003   4.075  10.846 -0.7326 -0.7124 -0.2761
16781TIP3    H171834   1.029   4.129  10.921 -0.2636 -0.2764 -0.7398
16781TIP3    H271835   0.970   4.138  10.782 -0.8600 -1.0538 -0.5496
16782TIP3   OH271836   0.199   2.899   2.518  0.6720 -0.5497  0.7803
16782TIP3    H171837   0.136   2.971   2.509  1.5878  0.4019  1.7215
16782TIP3    H271838   0.219   2.874   2.428 -1.1127 -0.9529  0.4504
16783TIP3   OH271839   5.485   6.055   1.013  0.4271  0.0339  0.0395
16783TIP3    H171840   5.428   6.103   1.073  0.4615  1.4904 -1.0235
16783TIP3    H271841   5.541   6.001   1.069  0.9045  1.8305  1.3733
16784TIP3   OH271842   4.072   3.458  14.974 -0.4189 -0.2171  0.3070
16784TIP3    H171843   4.056   3.501  15.057 -0.2671 -0.0767  0.2650
16784TIP3    H271844   4.095   3.368  14.997 -0.7137 -0.2681  0.3960
16785TIP3   OH271845   1.582   6.165   0.568 -0.2081  0.4977 -0.8249
16785TIP3    H171846   1.620   6.103   0.631 -1.3558  0.2026 -0.3953
16785TIP3    H271847   1.621   6.140   0.484  1.1874  0.7627 -0.2805
16786TIP3   OH271848   1.361   1.978   2.675  0.4001  0.3945 -0.5381
16786TIP3    H171849   1.305   1.939   2.608 -1.9644  1.0540  0.8971
16786TIP3    H271850   1.440   2.004   2.629 -1.1722  0.9769 -3.1223
16787TIP3   OH271851   0.260   1.977  13.251  0.0657 -0.3323  0.0670
16787TIP3    H171852   0.281   2.016  13.166  0.3063  0.8213  0.6292
16787TIP3    H271853   0.237   1.886  13.232  0.6026 -0.2191 -1.1633
16788TIP3   OH271854   0.276   2.949  12.288  0.8545 -0.7156  0.0580
16788TIP3    H171855   0.365   2.955  12.323  0.6201 -0.2405  0.5873
16788TIP3    H271856   0.219   2.971  12.362  0.3381  0.0704 -0.5510
16789TIP3   OH271857   2.206   5.232  15.284  0.0013 -0.0115 -0.1717
16789TIP3    H171858   2.207   5.327  15.289 -2.0413  0.2628 -2.7229
16789TIP3    H271859   2.219   5.203  15.374  1.9017  2.6034  0.5105
16790TIP3   OH271860   2.916   5.706   5.934  0.1452 -0.0532  0.0237
16790TIP3    H171861   2.979   5.668   5.996  1.9610  0.6538 -1.3058
16790TIP3    H271862   2.952   5.792   5.913  0.6128 -0.9171 -3.3020
16791TIP3   OH271863   0.507   4.782   1.510 -0.0070 -0.0370 -0.1014
16791TIP3    H171864   0.443   4.786   1.439  1.0258 -2.1165 -1.2630
16791TIP3    H271865   0.588   4.754   1.467  1.4874  1.5965  1.4576
16792TIP3   OH271866   6.227   4.820  12.783 -0.0794 -0.2112 -0.0876
16792TIP3    H171867   6.217   4.809  12.877 -0.5035 -2.4362 -0.3491
16792TIP3    H271868   6.322   4.827  12.770  0.0629 -1.0474  0.4156
16793TIP3   OH271869   3.721   6.361   0.796 -0.3887  0.4281  0.3115
16793TIP3    H171870   3.655   6.409   0.846 -1.2514  0.1838 -0.5503
16793TIP3    H271871   3.755   6.295   0.856 -3.5849 -1.9357 -0.2004
16794TIP3   OH271872   0.020   4.066  12.658 -0.8203 -0.1888 -0.0820
16794TIP3    H171873  -0.058   4.037  12.611 -0.6601 -0.9228  0.0866
16794TIP3    H271874   0.007   4.035  12.748  0.3999 -1.8245 -0.4164
16795TIP3   OH271875   3.401   4.232   5.136  0.7505  0.0922  0.5249
16795TIP3    H171876   3.313   4.250   5.171  0.6753  1.1440 -0.1700
16795TIP3    H271877   3.448   4.315   5.145  0.5030  0.6455 -2.4868
16796TIP3   OH271878   2.651   2.515   0.918  0.1581 -0.2174  0.0063
16796TIP3    H171879   2.698   2.592   0.948  0.8130  0.0083 -1.4995
16796TIP3    H271880   2.563   2.548   0.896  0.4660  0.1485 -0.7276
16797TIP3   OH271881   5.356   2.216  14.161  0.1616 -0.3645  0.3500
16797TIP3    H171882   5.442   2.174  14.166  0.5355 -0.7138 -4.3402
16797TIP3    H271883   5.298   2.149  14.126 -1.2913  0.7151  0.5948
16798TIP3   OH271884   6.068   5.436   6.307  0.2989  0.0614  0.0867
16798TIP3    H171885   5.991   5.490   6.323 -0.4543 -0.9913  0.1383
16798TIP3    H271886   6.037   5.346   6.318  0.9087 -0.5310 -2.3749
16799TIP3   OH271887   6.741   5.825  11.679  0.0506 -0.2372 -0.1372
16799TIP3    H171888   6.740   5.862  11.591 -0.0722  1.1706  0.4390
16799TIP3    H271889   6.824   5.778  11.684  0.1149 -0.2357 -0.9585
16800TIP3   OH271890   3.835   1.689   4.601  0.2009  0.3469 -0.0256
16800TIP3    H171891   3.810   1.759   4.540 -1.7289  1.7408  2.2103
16800TIP3    H271892   3.753   1.647   4.623  0.7756  0.1471  1.8889
16801TIP3   OH271893   0.871   2.550  14.955  0.2182  0.1193 -0.6720
16801TIP3    H171894   0.779   2.563  14.933 -0.5838 -1.2713  1.5957
16801TIP3    H271895   0.889   2.614  15.023  0.7742 -0.0305 -0.6710
16802TIP3   OH271896   0.781   5.889  14.385 -0.5122  0.2605 -0.3975
16802TIP3    H171897   0.817   5.964  14.339  1.8536 -0.5525  0.0036
16802TIP3    H271898   0.686   5.897  14.373 -0.2407  2.4457 -1.6304
16803TIP3   OH271899   5.419   3.426  11.402  0.2526  0.5047 -0.3905
16803TIP3    H171900   5.514   3.437  11.405  0.1799  1.0578 -0.0307
16803TIP3    H271901   5.399   3.420  11.309  0.8353 -1.5291 -0.4478
16804TIP3   OH271902   4.960   3.110  12.449  0.8800 -0.3986 -0.3039
16804TIP3    H171903   5.045   3.140  12.480  0.4689  0.9172 -0.3885
16804TIP3    H271904   4.897   3.160  12.501  0.1750 -0.2716 -1.2612
16805TIP3   OH271905   4.855   5.694  15.647  0.0433 -0.0343 -0.0263
16805TIP3    H171906   4.856   5.647  15.730  0.7453  0.1555  0.0747
16805TIP3    H271907   4.833   5.628  15.582  2.9978 -0.9905 -0.1737
16806TIP3   OH271908   6.457   6.127  16.369  0.0637 -0.4993 -0.6099
16806TIP3    H171909   6.476   6.113  16.462  1.5901  0.4772 -0.7410
16806TIP3    H271910   6.468   6.040  16.329  0.3520 -0.7392 -0.0290
16807TIP3   OH271911   5.985   4.947   0.302  0.2633 -0.1689  0.3141
16807TIP3    H171912   6.021   4.920   0.386 -0.4793  0.2239  0.7748
16807TIP3    H271913   6.058   4.987   0.256  0.3699  0.8858  1.3415
16808TIP3   OH271914   0.188   4.642   1.599  0.4917  0.1729 -0.2371
16808TIP3    H171915   0.169   4.561   1.645  2.8886  0.4205  1.4013
16808TIP3    H271916   0.129   4.642   1.524 -2.5954 -1.0033  1.9619
16809TIP3   OH271917   0.720   5.263   2.997 -0.3397  0.0945 -0.7664
16809TIP3    H171918   0.635   5.240   3.034  1.3262 -4.0356  1.2024
16809TIP3    H271919   0.701   5.286   2.906 -3.7325  2.0638  0.2675
16810TIP3   OH271920   1.318   1.787  17.157  1.1418 -0.1513 -0.3291
16810TIP3    H171921   1.317   1.744  17.242 -1.2126  0.8740  0.2553
16810TIP3    H271922   1.377   1.862  17.169  0.3336  0.3542  0.6362
16811TIP3   OH271923   6.810   2.788  12.075  0.2807 -0.0682  0.0893
16811TIP3    H171924   6.843   2.844  12.144  2.1368  0.4766 -1.1700
16811TIP3    H271925   6.787   2.848  12.004  3.9855 -0.7970 -1.9838
16812TIP3   OH271926   6.309   2.165   4.715 -0.2929 -0.3717  0.6028
16812TIP3    H171927   6.373   2.119   4.661  0.1834  1.2598 -0.3031
16812TIP3    H271928   6.233   2.107   4.718  0.0128 -0.8983 -1.0850
16813TIP3   OH271929   6.534   5.877   3.326 -0.2618  0.4400  0.0247
16813TIP3    H171930   6.454   5.928   3.317 -0.6766 -0.2655 -0.4170
16813TIP3    H271931   6.516   5.818   3.400  0.5940  1.5955  1.2014
16814TIP3   OH271932   0.409   4.931   1.267  0.1335  0.2511 -0.6693
16814TIP3    H171933   0.419   4.887   1.182  0.0660  0.0870 -0.5921
16814TIP3    H271934   0.417   5.024   1.246  2.9143  0.1208 -0.4668
16815TIP3   OH271935   1.584   1.269  12.160  0.4856  0.5126 -0.4935
16815TIP3    H171936   1.626   1.269  12.246 -0.3184  1.3712 -0.0765
16815TIP3    H271937   1.504   1.217  12.172 -1.0544  2.8445  0.0693
16816TIP3   OH271938   2.735   2.182  11.797  0.0530  0.3073  0.4601
16816TIP3    H171939   2.659   2.212  11.848  1.3017  0.4924  2.2960
16816TIP3    H271940   2.713   2.092  11.773 -0.4308  0.0858  1.6561
16817TIP3   OH271941   3.973   0.201   3.064  0.3683 -0.0532 -0.2391
16817TIP3    H171942   4.059   0.239   3.046  0.3430  0.1402  0.0416
16817TIP3    H271943   3.993   0.122   3.115  0.3714  0.1250  0.0431
16818TIP3   OH271944   3.674   4.998  17.132  0.4287  0.1962  0.4898
16818TIP3    H171945   3.712   5.067  17.187  0.9789  0.2618  0.0349
16818TIP3    H271946   3.640   5.043  17.055  0.9975 -0.0525  0.0817
16819TIP3   OH271947   1.693   0.688   2.618 -0.6607 -0.0671  0.2983
16819TIP3    H171948   1.707   0.653   2.706  0.6629 -1.6384 -0.4759
16819TIP3    H271949   1.598   0.689   2.608 -0.8402  0.3391  1.8132
16820TIP3   OH271950   1.891   1.438   3.427 -0.3168  0.0219  0.3489
16820TIP3    H171951   1.939   1.385   3.363  0.6101  0.7371  0.4302
16820TIP3    H271952   1.810   1.389   3.443 -0.4413 -0.3282 -1.1436
16821TIP3   OH271953   6.223   6.660  16.112 -0.1780 -0.2306 -0.0172
16821TIP3    H171954   6.226   6.577  16.158  0.3676  0.5419  1.3911
16821TIP3    H271955   6.132   6.689  16.122 -0.9657 -1.5978 -2.3476
16822TIP3   OH271956   1.013   3.462  15.463  0.2885 -0.3205  0.1834
16822TIP3    H171957   1.029   3.441  15.371  1.3495  0.0452  0.2722
16822TIP3    H271958   0.962   3.543  15.461  2.2475  0.9646 -0.0864
16823TIP3   OH271959   2.572   3.647   4.288 -0.1191  0.0961  0.0558
16823TIP3    H171960   2.655   3.689   4.269 -0.8208  0.6217 -2.0709
16823TIP3    H271961   2.514   3.719   4.315 -0.3773 -0.0015 -0.2331
16824TIP3   OH271962   2.512   3.908   6.001 -0.8445 -0.5879 -0.0403
16824TIP3    H171963   2.601   3.931   5.973 -0.6470 -1.4736 -0.1822
16824TIP3    H271964   2.466   3.992   6.005  0.0102 -0.1049  0.0922
16825TIP3   OH271965   3.598   5.675   0.727 -1.3077  0.2053  0.2246
16825TIP3    H171966   3.604   5.622   0.647  0.8939  2.6142 -1.3734
16825TIP3    H271967   3.511   5.714   0.722 -0.9446  0.9111 -1.4915
16826TIP3   OH271968   2.637   5.710   4.217 -0.0543  0.1890  0.4070
16826TIP3    H171969   2.652   5.662   4.136  0.2203 -0.5116  0.8648
16826TIP3    H271970   2.723   5.712   4.260 -0.2045  0.5212  0.6950
16827TIP3   OH271971   3.534   1.335  13.092  0.0923  0.5898 -0.4059
16827TIP3    H171972   3.611   1.299  13.048 -0.1005  0.3026 -0.5130
16827TIP3    H271973   3.563   1.418  13.128  0.3370  0.6852 -0.8194
16828TIP3   OH271974   2.915   5.090   2.351 -0.4028 -0.2300 -0.2588
16828TIP3    H171975   2.960   5.173   2.337  1.0654 -1.0874 -0.9132
16828TIP3    H271976   2.973   5.025   2.312 -2.5205 -1.3713 -1.7116
16829TIP3   OH271977   4.560   2.623   5.923 -0.2198 -0.4203 -0.3976
16829TIP3    H171978   4.482   2.580   5.957 -1.9051  2.2900 -0.4794
16829TIP3    H271979   4.629   2.602   5.986 -1.8283 -0.2758  1.4986
16830TIP3   OH271980   5.161   5.408   4.458 -0.0258  0.3024  0.3447
16830TIP3    H171981   5.171   5.351   4.382 -1.8244  1.7140 -1.0401
16830TIP3    H271982   5.219   5.369   4.524 -1.4625 -3.3992 -0.2952
16831TIP3   OH271983   6.678   1.355  12.654 -0.0586  0.1108 -0.1683
16831TIP3    H171984   6.633   1.279  12.691  1.3642 -0.4900  0.3796
16831TIP3    H271985   6.668   1.423  12.722 -0.7877  0.2366 -0.3880
16832TIP3   OH271986   1.216   3.296  16.233 -0.2203  0.1922  0.5855
16832TIP3    H171987   1.194   3.215  16.278  0.8279 -0.0447  0.6970
16832TIP3    H271988   1.201   3.365  16.298  0.6883 -0.0946  1.1258
16833TIP3   OH271989   6.437   3.253   0.086 -0.0501 -0.4865 -0.1118
16833TIP3    H171990   6.489   3.180   0.120  1.4812  1.6504  2.5248
16833TIP3    H271991   6.492   3.291   0.017  0.3392 -0.2895  0.3030
16834TIP3   OH271992   4.130   6.462   5.514  0.1344 -0.0484  0.7023
16834TIP3    H171993   4.072   6.538   5.525 -0.8203 -0.6494  0.0112
16834TIP3    H271994   4.086   6.392   5.562 -0.2393 -0.7668 -0.6330
16835TIP3   OH271995   6.537   2.735  11.838 -0.0656  0.4721 -0.7075
16835TIP3    H171996   6.586   2.654  11.850  0.1512  0.4761 -1.5062
16835TIP3    H271997   6.603   2.804  11.840 -0.1449  0.5545 -0.9100
16836TIP3   OH271998   0.776   3.092   5.300 -0.5310 -0.0684 -0.4743
16836TIP3    H171999   0.749   3.136   5.381  0.9198  0.9157 -0.4851
16836TIP3    H272000   0.808   3.006   5.329 -2.8445 -0.9746 -0.3891
16837TIP3   OH272001   1.387   2.435  16.312 -0.1327 -0.0954  0.1800
16837TIP3    H172002   1.444   2.364  16.283 -0.6537 -0.2733 -0.4172
16837TIP3    H272003   1.387   2.429  16.408  2.1264  0.9098  0.3006
16838TIP3   OH272004   3.357   1.966  10.829  0.1206  0.1655  0.9057
16838TIP3    H172005   3.410   1.887  10.824 -1.7905 -1.1493  0.3189
16838TIP3    H272006   3.342   1.979  10.923  1.8119  0.8595  1.1232
16839TIP3   OH272007   5.284   5.332  14.041  0.8268 -0.2585  0.0244
16839TIP3    H172008   5.295   5.238  14.024  2.0312  0.1195 -1.4475
16839TIP3    H272009   5.210   5.358  13.985  1.1673 -0.1262 -0.3656
16840TIP3   OH272010   3.269   0.058  11.046 -0.0371 -0.1223  0.4823
16840TIP3    H172011   3.208   0.118  11.003  1.6638 -0.3326 -2.5758
16840TIP3    H272012   3.350   0.109  11.054  0.3251 -0.8244  1.3913
16841TIP3   OH272013   5.717   4.372   3.644  0.0589 -0.2741  0.4264
16841TIP3    H172014   5.770   4.361   3.723 -3.5240 -0.2480  3.1482
16841TIP3    H272015   5.733   4.462   3.617 -0.0224  0.3807  2.3711
16842TIP3   OH272016   0.987   2.041  10.578 -0.1148  0.1439 -0.2280
16842TIP3    H172017   1.008   2.115  10.522 -0.2163  0.3856  0.0477
16842TIP3    H272018   1.071   2.013  10.614  0.0559 -0.4929 -1.0757
16843TIP3   OH272019   0.385   0.278  14.012  0.8051 -0.7141 -0.1670
16843TIP3    H172020   0.315   0.284  13.947 -0.3355  0.2864  1.0694
16843TIP3    H272021   0.416   0.188  14.006 -1.5150 -1.5992  0.1115
16844TIP3   OH272022   6.591   5.501  11.798 -0.0114 -0.3690 -0.4201
16844TIP3    H172023   6.587   5.513  11.703 -2.8469  1.4716 -0.1743
16844TIP3    H272024   6.614   5.588  11.832 -0.7831 -0.5563  0.6284
16845TIP3   OH272025   1.979   2.548   1.934  0.1444 -0.1731 -0.6217
16845TIP3    H172026   1.999   2.469   1.884 -1.3069  1.2372 -3.6657
16845TIP3    H272027   2.065   2.586   1.953  0.8685 -2.3097  0.7998
16846TIP3   OH272028   4.749   1.531  17.125 -0.0506  0.1786  0.1467
16846TIP3    H172029   4.827   1.585  17.113 -0.1137  0.1423 -0.4356
16846TIP3    H272030   4.782   1.451  17.167  0.3342 -0.1286 -0.7268
16847TIP3   OH272031   1.446   3.439   4.074  0.7565  0.0055  0.1478
16847TIP3    H172032   1.438   3.356   4.122  1.6252 -0.2698 -0.1738
16847TIP3    H272033   1.407   3.421   3.989  0.5168  0.0679  0.2444
16848TIP3   OH272034   2.525   2.615   3.871  0.3008 -0.1979  0.4970
16848TIP3    H172035   2.574   2.558   3.813 -1.4385 -1.5972  0.3305
16848TIP3    H272036   2.566   2.603   3.957  0.4138 -1.1404  0.3191
16849TIP3   OH272037   0.524   2.084   3.150  0.0446 -0.0649  0.0152
16849TIP3    H172038   0.570   2.008   3.187  1.7533 -0.4545 -2.6270
16849TIP3    H272039   0.587   2.122   3.089 -1.8190  1.8039 -0.8467
16850TIP3   OH272040   5.858   5.484  16.160  0.0972  0.0660  0.6786
16850TIP3    H172041   5.770   5.470  16.125  1.0325 -1.7808 -1.0909
16850TIP3    H272042   5.846   5.482  16.255 -1.7381 -0.3111  0.4850
16851TIP3   OH272043   6.227   0.219  13.067 -0.4058 -0.2197  0.1039
16851TIP3    H172044   6.250   0.126  13.057 -0.8669 -0.5102  1.5627
16851TIP3    H272045   6.248   0.258  12.982  0.2574 -1.5598 -0.3729
16852TIP3   OH272046   3.116   3.080   1.450 -0.3415  0.5305  0.6574
16852TIP3    H172047   3.051   3.078   1.380 -0.6191  0.3018  0.9199
16852TIP3    H272048   3.067   3.060   1.529 -0.6114  3.5551  1.3812
16853TIP3   OH272049   1.628   4.109  11.782  0.0959  0.0648 -0.2726
16853TIP3    H172050   1.599   4.171  11.715 -1.2855  0.0107  0.2337
16853TIP3    H272051   1.661   4.034  11.733 -2.1458 -0.5547 -0.9824
16854TIP3   OH272052   2.613   1.747   2.706 -0.0280 -0.9485 -0.0233
16854TIP3    H172053   2.560   1.796   2.643 -0.7105  0.1707  1.3629
16854TIP3    H272054   2.692   1.799   2.718 -0.1841 -0.8204  0.5027
16855TIP3   OH272055   3.818   0.676  16.487 -0.1517 -0.1264 -0.2862
16855TIP3    H172056   3.844   0.645  16.400  1.8253  0.4948  0.0399
16855TIP3    H272057   3.855   0.613  16.548 -0.0870  0.3451  0.1733
16856TIP3   OH272058   1.187   0.261  11.192  0.0420 -0.5452  0.0225
16856TIP3    H172059   1.246   0.209  11.247 -1.4073 -0.9710  1.2633
16856TIP3    H272060   1.113   0.281  11.250 -0.7649  0.4458 -1.3071
16857TIP3   OH272061   6.715   6.675  13.961  0.0464 -0.0302  0.8418
16857TIP3    H172062   6.634   6.693  14.009 -0.0580  1.9307 -0.0038
16857TIP3    H272063   6.686   6.647  13.874  0.2683 -2.3199  1.4334
16858TIP3   OH272064   2.604   3.467  16.105  0.1269  0.3026  0.0118
16858TIP3    H172065   2.617   3.373  16.096 -0.2603  0.2724 -0.2149
16858TIP3    H272066   2.579   3.497  16.018  0.6451  0.6792 -0.0112
16859TIP3   OH272067   4.687   3.864  14.034 -0.7111  0.6284 -0.2261
16859TIP3    H172068   4.737   3.807  13.976  0.3646 -0.0902  1.3446
16859TIP3    H272069   4.619   3.902  13.977 -0.5408 -1.0477 -1.6438
16860TIP3   OH272070   5.625   5.167   1.687 -0.2619 -0.1717 -0.1314
16860TIP3    H172071   5.618   5.077   1.719 -0.3724 -0.6482 -1.4394
16860TIP3    H272072   5.544   5.181   1.637 -0.8896  1.1390  1.1720
16861TIP3   OH272073   5.854   6.653  16.603  0.3590 -0.1310  0.1188
16861TIP3    H172074   5.871   6.646  16.509  1.2112 -0.7011  0.3042
16861TIP3    H272075   5.834   6.564  16.630 -0.5456  0.1369  0.3721
16862TIP3   OH272076   6.277   4.955   5.141  0.0700 -0.5132  0.3536
16862TIP3    H172077   6.277   4.927   5.050  0.1047 -1.1607  0.5497
16862TIP3    H272078   6.356   4.916   5.178  0.7687  0.8308  0.3370
16863TIP3   OH272079   3.283   5.161   2.247 -0.3446 -0.0409  0.3791
16863TIP3    H172080   3.221   5.227   2.216  0.0077  0.4412  0.6669
16863TIP3    H272081   3.268   5.085   2.192  0.7394  1.0215 -1.4969
16864TIP3   OH272082   6.730   0.733   5.189  0.3950  0.0793  0.0012
16864TIP3    H172083   6.760   0.819   5.219  1.1348 -0.3651  0.5709
16864TIP3    H272084   6.710   0.685   5.269  1.3490 -0.7555 -0.2443
16865TIP3   OH272085   4.499   0.243  15.207 -0.0304 -0.1915  0.5616
16865TIP3    H172086   4.418   0.248  15.156 -1.2020 -0.3528  2.2913
16865TIP3    H272087   4.499   0.154  15.243  2.5261 -1.2960 -1.8000
16866TIP3   OH272088   5.476   6.180  12.959  0.5617  0.1657  0.2413
16866TIP3    H172089   5.533   6.123  12.907 -1.1473 -1.8665  0.5073
16866TIP3    H272090   5.395   6.184  12.909  0.8688  3.1645 -0.2152
16867TIP3   OH272091   3.339   4.343   5.446  0.0134 -0.0847  0.0897
16867TIP3    H172092   3.433   4.330   5.431  0.2053  0.5624  0.6642
16867TIP3    H272093   3.311   4.264   5.492  0.3928 -0.0600  0.3727
16868TIP3   OH272094   2.714   6.185   2.307  0.3193 -0.1470  0.2613
16868TIP3    H172095   2.737   6.189   2.400  0.9155  0.8626  0.0870
16868TIP3    H272096   2.662   6.264   2.291  2.6275  1.2770 -0.8435
16869TIP3   OH272097   3.733   4.451   5.601 -0.5483 -0.0804  0.2583
16869TIP3    H172098   3.705   4.387   5.535  2.0235  1.0402 -2.1239
16869TIP3    H272099   3.769   4.398   5.672  0.1330 -1.3520 -0.9788
16870TIP3   OH272100   6.269   1.200  14.648  0.2244  0.5218  0.4320
16870TIP3    H172101   6.310   1.114  14.660 -1.9211 -0.6544 -0.1797
16870TIP3    H272102   6.270   1.214  14.553 -2.1868 -0.3215  0.2257
16871TIP3   OH272103   6.767   6.750   5.784 -0.8004  0.1847 -0.2511
16871TIP3    H172104   6.822   6.815   5.828  0.1406  0.6090 -1.9405
16871TIP3    H272105   6.754   6.681   5.849 -2.4537  2.3444  1.8642
16872TIP3   OH272106   5.814   5.089   4.417 -0.5038 -0.1746 -0.2989
16872TIP3    H172107   5.721   5.097   4.394 -1.1034 -0.4524  1.7963
16872TIP3    H272108   5.849   5.178   4.408 -1.3220  0.2100  0.1975
16873TIP3   OH272109   6.122   5.936   5.636 -0.3211  0.2013 -0.8331
16873TIP3    H172110   6.196   5.936   5.696 -1.8790 -0.2172  1.1901
16873TIP3    H272111   6.103   5.843   5.622 -2.8108  0.1772  1.8532
16874TIP3   OH272112   4.051   3.678   0.196 -0.1204  0.5978 -0.3248
16874TIP3    H172113   4.130   3.644   0.238 -0.5268 -2.1707 -1.5408
16874TIP3    H272114   4.071   3.769   0.177  2.6910  0.0807 -0.3237
16875TIP3   OH272115   1.822   5.231  11.855 -0.2986  0.5520  0.6777
16875TIP3    H172116   1.853   5.319  11.878  1.6640 -0.3413  1.6802
16875TIP3    H272117   1.816   5.185  11.939 -0.8728 -0.4085  0.1320
16876TIP3   OH272118   3.920   6.068  11.512 -0.9783 -0.7418  0.0040
16876TIP3    H172119   4.005   6.026  11.499  1.1055  2.9196  0.6404
16876TIP3    H272120   3.873   6.054  11.430  1.0883 -1.0367 -1.1876
16877TIP3   OH272121   3.046   0.679   4.148  0.4084  0.0456 -0.3447
16877TIP3    H172122   3.057   0.707   4.239 -0.6292 -1.1478  0.1837
16877TIP3    H272123   3.054   0.759   4.097 -2.3663  1.3477  1.0664
16878TIP3   OH272124   4.847   2.270  12.931  0.2781 -0.0855  0.2267
16878TIP3    H172125   4.812   2.252  13.018 -0.2360 -1.3021 -0.2214
16878TIP3    H272126   4.897   2.351  12.942 -0.8722  0.5026  1.3517
16879TIP3   OH272127   3.343   5.435  13.651  0.4986  0.2434 -0.4392
16879TIP3    H172128   3.428   5.461  13.685  0.3550  1.5404 -1.0373
16879TIP3    H272129   3.281   5.492  13.696  0.0850  0.2935 -1.0598
16880TIP3   OH272130   0.378   5.735  11.485 -0.0682 -0.2101 -0.1784
16880TIP3    H172131   0.355   5.681  11.409 -1.3358  0.8551 -0.5872
16880TIP3    H272132   0.473   5.739  11.484 -0.0725  0.8317 -2.5052
16881TIP3   OH272133   4.340   1.460  13.339 -0.1934  0.1069 -0.2261
16881TIP3    H172134   4.310   1.531  13.396  2.2181  0.5817  0.5493
16881TIP3    H272135   4.345   1.499  13.252 -3.3521 -0.4722 -0.8110
16882TIP3   OH272136   3.940   6.805  15.104  0.2365 -0.2752 -0.5895
16882TIP3    H172137   3.924   6.841  15.017 -2.5137 -0.5849 -0.3121
16882TIP3    H272138   3.931   6.710  15.092 -0.3036 -0.3075  0.0443
16883TIP3   OH272139   2.517   5.690   3.698  0.0708  0.0518 -0.5574
16883TIP3    H172140   2.505   5.784   3.692 -2.5529  0.1770  3.1851
16883TIP3    H272141   2.429   5.654   3.690  1.0357 -2.1815 -2.1409
16884TIP3   OH272142   0.100   3.366  12.472 -0.2298 -0.3264 -0.2160
16884TIP3    H172143   0.089   3.457  12.444 -1.0789 -0.7764 -1.3997
16884TIP3    H272144   0.192   3.361  12.499  0.1743  0.5762 -1.3249
16885TIP3   OH272145   0.871   1.046  17.086  0.0869  0.1559 -0.4168
16885TIP3    H172146   0.964   1.066  17.077  0.0153  0.0158 -1.6274
16885TIP3    H272147   0.857   0.972  17.028 -0.6609 -0.2321  0.2440
16886TIP3   OH272148   6.472   2.879   5.715  0.0830  0.1404  0.5963
16886TIP3    H172149   6.442   2.790   5.698 -1.9195  1.1602 -1.9384
16886TIP3    H272150   6.456   2.893   5.808 -2.6834 -1.1375  0.4253
16887TIP3   OH272151   2.757   5.148   4.810  0.0760 -0.0581  0.3331
16887TIP3    H172152   2.694   5.209   4.772  0.1602  1.2844  2.1629
16887TIP3    H272153   2.709   5.106   4.881  1.1535  0.9740  1.7439
16888TIP3   OH272154   5.675   0.693   3.905 -0.0126 -0.1916  0.3388
16888TIP3    H172155   5.664   0.786   3.927 -0.0386 -0.1249  0.0544
16888TIP3    H272156   5.596   0.651   3.936  0.4926 -0.3156  1.5136
16889TIP3   OH272157   6.582   5.221  15.537 -0.0891  1.0114 -0.5606
16889TIP3    H172158   6.519   5.154  15.511  0.3586 -0.1986  1.3339
16889TIP3    H272159   6.649   5.218  15.469 -1.0845  0.9769 -1.5708
16890TIP3   OH272160   6.161   4.241  13.646 -0.2382 -0.2377 -0.3879
16890TIP3    H172161   6.117   4.260  13.729  0.8461 -0.2831  0.2153
16890TIP3    H272162   6.227   4.309  13.637  2.8773 -2.7872  1.2090
16891TIP3   OH272163   3.012   0.220  10.618  0.1644 -0.2843  0.2843
16891TIP3    H172164   3.022   0.258  10.530  0.6823  0.9136  0.8337
16891TIP3    H272165   2.919   0.231  10.638  0.2958  0.7399  0.4242
16892TIP3   OH272166   1.931   2.941  13.546 -0.3083  0.4683  0.3576
16892TIP3    H172167   1.853   2.891  13.524  0.0884  1.0379 -2.7470
16892TIP3    H272168   1.899   3.029  13.563 -0.3037  1.2832 -3.1390
16893TIP3   OH272169   5.855   6.317  14.064 -0.1395  0.1863  0.2098
16893TIP3    H172170   5.945   6.330  14.093  0.4932 -0.1829 -1.4974
16893TIP3    H272171   5.835   6.395  14.011 -1.0511  0.5595  1.0708
16894TIP3   OH272172   4.148   0.821   5.427 -0.3352  0.4536 -0.0329
16894TIP3    H172173   4.216   0.883   5.400  0.1501  0.0815  0.3102
16894TIP3    H272174   4.197   0.746   5.460 -0.8889 -0.6010 -1.4964
16895TIP3   OH272175   4.078   1.044   2.103  0.3140 -0.0132 -0.7822
16895TIP3    H172176   4.042   1.035   2.014  0.2925  0.2422 -0.8028
16895TIP3    H272177   4.092   1.139   2.113 -2.4014  0.3388  0.5469
16896TIP3   OH272178   0.851   2.448  16.906 -0.2883 -0.0485  0.0634
16896TIP3    H172179   0.781   2.428  16.844  0.7030  1.7516 -1.7786
16896TIP3    H272180   0.919   2.383  16.887  0.0752  0.5916 -0.9069
16897TIP3   OH272181   6.228   4.731  12.091  0.1637 -0.2554 -0.5067
16897TIP3    H172182   6.156   4.765  12.144  0.1264 -1.4008  0.2178
16897TIP3    H272183   6.227   4.784  12.011 -0.6864  0.5555  0.0265
16898TIP3   OH272184   6.758   3.720  15.487 -0.2254 -0.3573  0.1975
16898TIP3    H172185   6.755   3.690  15.578 -0.2474 -1.4241 -0.1420
16898TIP3    H272186   6.771   3.815  15.493 -2.0429 -0.1436  1.3290
16899TIP3   OH272187   2.670   5.748   4.635 -0.3435  0.7200  0.1684
16899TIP3    H172188   2.588   5.797   4.640 -1.3457 -0.9623  1.7412
16899TIP3    H272189   2.654   5.683   4.567 -0.0336  0.8560 -0.0330
16900TIP3   OH272190   1.330   1.958  11.982 -0.4917 -0.5341  0.3818
16900TIP3    H172191   1.310   1.904  12.058  1.1542 -1.4500  0.2186
16900TIP3    H272192   1.423   1.979  11.992 -0.5661  0.3916 -0.7261
16901TIP3   OH272193   3.436   6.246  16.926  0.1842  0.0588  0.3118
16901TIP3    H172194   3.430   6.192  16.848 -0.5748  1.1303 -0.3939
16901TIP3    H272195   3.439   6.183  16.999 -2.2308 -0.9301 -0.3632
16902TIP3   OH272196   5.842   5.525   1.412 -0.1190 -0.8139 -0.5009
16902TIP3    H172197   5.880   5.472   1.481 -1.1873  1.1848  1.7820
16902TIP3    H272198   5.786   5.465   1.363 -0.9801 -1.9220  1.7169
16903TIP3   OH272199   4.222   1.926   0.174 -0.4058  0.1369  0.0975
16903TIP3    H172200   4.310   1.932   0.137 -0.1849 -0.5968  0.4788
16903TIP3    H272201   4.228   1.974   0.257 -0.6293  0.8996 -0.3130
16904TIP3   OH272202   2.708   1.683  14.292  0.1966  0.5418 -0.3496
16904TIP3    H172203   2.727   1.738  14.216  1.3177  1.0614  0.2982
16904TIP3    H272204   2.791   1.642  14.314 -0.2379 -0.0219  0.2900
16905TIP3   OH272205   4.374   3.636   0.249  0.0487  0.1448 -0.5480
16905TIP3    H172206   4.463   3.654   0.218  0.4460 -0.0838  0.4315
16905TIP3    H272207   4.368   3.683   0.332 -0.4898 -0.4579 -0.2406
16906TIP3   OH272208   5.711   3.066   2.276 -0.1025  0.3085 -0.1864
16906TIP3    H172209   5.732   3.104   2.191 -1.0264  0.6089 -0.3014
16906TIP3    H272210   5.795   3.041   2.313  0.2045 -2.3951 -2.3545
16907TIP3   OH272211   0.348   0.769   4.755  0.2822 -0.2193 -0.4252
16907TIP3    H172212   0.412   0.806   4.816  0.1702 -0.5044 -0.1300
16907TIP3    H272213   0.299   0.844   4.722 -0.4882 -0.1710  0.7887
16908TIP3   OH272214   4.331   3.305   1.559 -0.8648  0.3309  0.2597
16908TIP3    H172215   4.362   3.229   1.608  0.5133  1.1869  0.7841
16908TIP3    H272216   4.315   3.272   1.471 -2.0694 -0.9459  0.9193
16909TIP3   OH272217   0.046   6.232   3.330 -0.7078 -0.1589  0.2182
16909TIP3    H172218   0.015   6.244   3.240 -0.5235  0.7358  0.2626
16909TIP3    H272219   0.058   6.138   3.340  1.4497 -0.1330 -1.4351
16910TIP3   OH272220   4.519   4.846   1.635  0.2296  0.2651  0.6105
16910TIP3    H172221   4.482   4.919   1.683 -1.6038 -0.0385 -0.2751
16910TIP3    H272222   4.552   4.884   1.554 -1.4588  0.0263 -0.2144
16911TIP3   OH272223   6.342   3.931   6.700 -0.0972 -0.2821 -1.1263
16911TIP3    H172224   6.375   3.841   6.702  0.3994 -0.0800  0.5912
16911TIP3    H272225   6.409   3.982   6.744 -1.8083  0.4404  0.7590
16912TIP3   OH272226   2.683   6.269  14.054  0.2999  0.2628 -0.6710
16912TIP3    H172227   2.667   6.189  14.104 -0.5169 -0.6877 -2.3754
16912TIP3    H272228   2.596   6.306  14.040  0.5147  0.5352 -1.3269
16913TIP3   OH272229   2.928   0.955  11.372  0.5169  0.3968 -0.4743
16913TIP3    H172230   2.953   1.034  11.325 -0.3430  1.0079  0.0690
16913TIP3    H272231   3.010   0.906  11.383  1.1513  1.4644 -0.3500
16914TIP3   OH272232   3.614   1.721   5.621  0.0865  0.3161 -0.0296
16914TIP3    H172233   3.535   1.758   5.581 -0.7320 -1.5323 -0.1811
16914TIP3    H272234   3.607   1.743   5.714 -0.5387  0.2929 -0.0657
16915TIP3   OH272235   3.673   3.279  13.252 -0.2811  0.0369 -0.0128
16915TIP3    H172236   3.746   3.341  13.249 -0.8970  0.7611 -0.4895
16915TIP3    H272237   3.594   3.334  13.250 -0.8550 -0.6945  1.1979
16916TIP3   OH272238   5.452   6.719   2.164 -0.0224  0.3531 -0.0763
16916TIP3    H172239   5.463   6.626   2.143  0.5815  0.5041 -0.4804
16916TIP3    H272240   5.425   6.721   2.256  1.0281 -0.1782  0.2545
16917TIP3   OH272241   2.057   1.323  13.423  0.1477  0.7462  0.4372
16917TIP3    H172242   1.964   1.345  13.419 -0.0349 -0.0505 -0.1056
16917TIP3    H272243   2.087   1.356  13.507  0.1166  3.7927 -0.6381
16918TIP3   OH272244   2.781   6.398  11.849  0.2024  0.3924  0.0357
16918TIP3    H172245   2.714   6.428  11.911  0.1919  0.4678 -0.0125
16918TIP3    H272246   2.759   6.306  11.833  1.5873 -0.3261  1.9595
16919TIP3   OH272247   4.830   2.345   5.912  0.1290 -0.7289  0.5306
16919TIP3    H172248   4.767   2.293   5.861 -0.4685  0.4579  0.0308
16919TIP3    H272249   4.876   2.398   5.847 -0.9760  1.1643  1.2140
16920TIP3   OH272250   0.709   1.567  16.757 -0.2797 -0.1054 -0.8035
16920TIP3    H172251   0.756   1.622  16.819 -0.5243  0.3964 -1.0637
16920TIP3    H272252   0.773   1.549  16.688 -0.1236 -0.3590 -0.5970
16921TIP3   OH272253   2.788   1.245  14.345  0.5836  0.5197 -0.5407
16921TIP3    H172254   2.750   1.187  14.279  0.0408  0.2421  0.0052
16921TIP3    H272255   2.870   1.203  14.371  0.4043  0.2209 -0.4606
16922TIP3   OH272256   5.018   3.044  11.668 -0.6173  0.1905 -0.3110
16922TIP3    H172257   5.000   2.965  11.618 -2.6284 -0.4759  1.2944
16922TIP3    H272258   4.933   3.069  11.704  0.4093  1.6542  1.2562
16923TIP3   OH272259   2.048   1.819   1.751  0.6249 -0.0664  0.3640
16923TIP3    H172260   1.977   1.765   1.787 -0.5680  0.2281 -1.4126
16923TIP3    H272261   2.109   1.830   1.824 -0.0390 -2.1845  1.3200
16924TIP3   OH272262   4.332   4.536  13.618 -0.8478 -0.4763  0.0648
16924TIP3    H172263   4.339   4.561  13.711 -1.2596 -1.3289  0.3372
16924TIP3    H272264   4.397   4.590  13.574 -0.3347 -0.3698  0.9237
16925TIP3   OH272265   3.984   1.399   3.700  0.2587  0.5424  0.1812
16925TIP3    H172266   4.028   1.457   3.638  1.6798  0.8052  1.3868
16925TIP3    H272267   3.894   1.392   3.666  1.1385  0.1057 -2.2732
16926TIP3   OH272268   0.675   5.471   6.214  0.6152 -0.1969  0.0318
16926TIP3    H172269   0.731   5.397   6.240  1.7646  0.3619 -0.7659
16926TIP3    H272270   0.645   5.448   6.126  1.4904  0.5331 -0.4838
16927TIP3   OH272271   3.936   5.535  15.638  0.0228  0.1107 -0.1122
16927TIP3    H172272   3.864   5.481  15.671 -1.1759 -0.1079 -2.8686
16927TIP3    H272273   3.894   5.604  15.587  1.7169 -0.5383 -2.5468
16928TIP3   OH272274   4.116   6.516  16.181  0.1692 -1.0449  0.4778
16928TIP3    H172275   4.155   6.448  16.127 -0.2096 -0.2003 -0.9152
16928TIP3    H272276   4.023   6.492  16.188  0.2050 -1.1201  0.6986
16929TIP3   OH272277   5.860   2.686   2.087  0.2491 -0.3831  0.1741
16929TIP3    H172278   5.946   2.728   2.101  0.4993 -0.8913  0.1677
16929TIP3    H272279   5.815   2.745   2.027  0.1394  0.5034  1.0955
16930TIP3   OH272280   5.806   1.038  13.632 -0.2029 -0.0926 -0.6468
16930TIP3    H172281   5.879   0.998  13.585 -0.0700  0.7331 -1.1692
16930TIP3    H272282   5.730   0.982  13.611  0.0717 -0.3511 -0.9645
16931TIP3   OH272283   6.808   2.431  12.956 -0.5258  0.5422  0.3146
16931TIP3    H172284   6.888   2.387  12.986  0.7352  0.9169 -2.2341
16931TIP3    H272285   6.839   2.515  12.921 -2.1984  1.1591  0.2450
16932TIP3   OH272286   6.013   4.315   5.310 -0.2902  0.4103 -0.4337
16932TIP3    H172287   6.099   4.311   5.352 -0.3862  0.1358 -0.2568
16932TIP3    H272288   5.976   4.398   5.339  0.1264  0.7726 -0.9296
16933TIP3   OH272289   2.155   4.472   2.667  0.1795  0.0357 -0.0297
16933TIP3    H172290   2.195   4.559   2.669 -0.3612  0.2940  2.0299
16933TIP3    H272291   2.075   4.482   2.718 -0.3444 -1.4824 -0.5135
16934TIP3   OH272292   5.886   3.140  16.065  0.2646  0.1407 -0.2366
16934TIP3    H172293   5.842   3.224  16.076 -2.4538 -1.2678  0.6914
16934TIP3    H272294   5.902   3.109  16.155  1.0796 -0.4168 -0.5602
16935TIP3   OH272295   4.175   5.768  11.052 -0.6556  0.5927  0.3998
16935TIP3    H172296   4.191   5.682  11.013 -0.1909  0.0574  1.7094
16935TIP3    H272297   4.260   5.812  11.050 -0.5780  0.4776  0.9839
16936TIP3   OH272298   1.191   4.470   5.346 -0.2450 -0.0413  0.6886
16936TIP3    H172299   1.180   4.554   5.390  0.4197 -0.2135  1.2025
16936TIP3    H272300   1.268   4.431   5.388  1.5870  0.5840 -1.8856
16937TIP3   OH272301   2.934   4.158  11.119 -0.6280  0.2175 -0.6119
16937TIP3    H172302   2.990   4.139  11.043  1.8445  5.2535 -0.4739
16937TIP3    H272303   2.848   4.174  11.081 -0.8885 -2.6811 -1.5059
16938TIP3   OH272304   3.238   4.286   1.498 -0.6869 -0.1258  0.1083
16938TIP3    H172305   3.316   4.236   1.522 -0.0728  0.5590 -0.3960
16938TIP3    H272306   3.165   4.235   1.532 -0.2582 -2.4687 -2.1210
16939TIP3   OH272307   3.287   1.588   4.719 -0.5619  0.2494 -0.5314
16939TIP3    H172308   3.318   1.605   4.630 -0.3664 -0.7061 -0.6586
16939TIP3    H272309   3.237   1.666   4.742 -1.4128  0.1206 -1.8419
16940TIP3   OH272310   2.394   5.729   5.599 -0.3816  0.1424 -0.7128
16940TIP3    H172311   2.443   5.730   5.518  0.3985 -1.6671 -0.3056
16940TIP3    H272312   2.458   5.707   5.666 -1.5038 -1.1761 -0.0161
16941TIP3   OH272313   1.131   6.016   2.742  0.0000  0.3784 -0.5661
16941TIP3    H172314   1.092   6.044   2.659 -3.2682  1.0144  0.9945
16941TIP3    H272315   1.140   5.921   2.733 -2.9278  0.0170 -0.8047
16942TIP3   OH272316   3.296   0.611  11.539 -0.1034  0.4588 -0.3006
16942TIP3    H172317   3.298   0.637  11.447 -0.7517  1.6888  0.0190
16942TIP3    H272318   3.373   0.653  11.578  0.9012 -1.0911 -0.5145
16943TIP3   OH272319   2.079   6.138  12.148  0.0420 -0.5267  0.1036
16943TIP3    H172320   2.019   6.100  12.212  0.6218  0.7587  1.4670
16943TIP3    H272321   2.163   6.094  12.164  1.7486  3.4058  4.1764
16944TIP3   OH272322   5.791   0.974   3.595  0.1442  0.1042  0.0206
16944TIP3    H172323   5.861   0.984   3.659  0.5537 -2.2462  0.0366
16944TIP3    H272324   5.836   0.952   3.513 -0.4984 -3.1564  0.4038
16945TIP3   OH272325   1.762   2.968   4.015 -0.3588  0.8237  0.0328
16945TIP3    H172326   1.792   2.970   3.925 -0.4098 -1.8057 -0.1298
16945TIP3    H272327   1.803   2.890   4.052  1.3718  2.9466  2.9813
16946TIP3   OH272328   4.357   1.021  11.784 -0.1457  0.2338  0.3405
16946TIP3    H172329   4.391   0.932  11.792  0.4792  0.1013 -2.6264
16946TIP3    H272330   4.262   1.010  11.779 -0.3018  0.0502  2.4932
16947TIP3   OH272331   0.417   4.052  14.040 -0.0750  0.4431 -0.2739
16947TIP3    H172332   0.476   4.076  13.968  1.2185  1.6054  1.1126
16947TIP3    H272333   0.408   3.957  14.034  2.5094  0.1313 -0.1423
16948TIP3   OH272334   5.994   4.842  12.179  0.1777 -0.3796  0.1795
16948TIP3    H172335   5.995   4.938  12.184  1.6345 -0.3472 -0.3743
16948TIP3    H272336   5.945   4.815  12.257  4.7875  0.6659  3.8756
16949TIP3   OH272337   0.948   6.668  15.010 -0.2331  0.3539  0.3317
16949TIP3    H172338   0.953   6.601  14.942  2.8467  0.8060 -0.0171
16949TIP3    H272339   0.926   6.620  15.090 -0.2663 -0.7273 -0.3180
16950TIP3   OH272340   4.519   1.366  12.465  0.0046  0.0656 -0.0322
16950TIP3    H172341   4.511   1.371  12.560  1.5928  2.2918  0.0572
16950TIP3    H272342   4.485   1.279  12.443 -0.8714 -0.3128  2.4862
16951TIP3   OH272343   2.879   2.935   1.645 -0.2030 -0.2859  0.7300
16951TIP3    H172344   2.824   2.903   1.573 -2.1930  1.4907  1.3610
16951TIP3    H272345   2.939   2.863   1.663 -2.8900 -2.7413  0.5677
16952TIP3   OH272346   0.548   6.573  15.587  0.3981 -0.5747 -0.0057
16952TIP3    H172347   0.554   6.602  15.496  0.7692  1.2990  0.5656
16952TIP3    H272348   0.570   6.651  15.638 -0.2305 -1.4662  1.7019
16953TIP3   OH272349   0.090   4.672   4.647 -0.5703  0.2090  0.0098
16953TIP3    H172350   0.082   4.740   4.580  0.2479  0.4264  0.1233
16953TIP3    H272351   0.016   4.688   4.706  0.3248  1.8414  0.7627
16954TIP3   OH272352   2.475   4.966  14.182 -0.0518  0.4390  0.5309
16954TIP3    H172353   2.392   5.013  14.189  0.3784  0.9915  2.9963
16954TIP3    H272354   2.462   4.905  14.109 -2.8656  0.0588  1.2176
16955TIP3   OH272355   4.216   5.243  15.342 -0.0818  0.1209  0.4203
16955TIP3    H172356   4.212   5.202  15.428  2.3233  0.1184  0.5886
16955TIP3    H272357   4.170   5.327  15.353 -0.5172 -0.2387  1.4616
16956TIP3   OH272358   5.856   2.662   5.948  0.1840  0.3710 -0.1351
16956TIP3    H172359   5.796   2.597   5.983  1.1546 -0.4381  0.0812
16956TIP3    H272360   5.902   2.616   5.878 -1.0491  1.6710 -1.8936
16957TIP3   OH272361   5.583   5.847  14.956 -0.3481 -0.3789 -0.0140
16957TIP3    H172362   5.595   5.831  14.863  0.3200  0.3674 -0.0723
16957TIP3    H272363   5.533   5.929  14.960  0.4194  0.0874  0.2774
16958TIP3   OH272364   2.742   4.833   0.009 -0.3558  0.1133 -0.1690
16958TIP3    H172365   2.703   4.900   0.066 -0.3621 -0.4703  0.5342
16958TIP3    H272366   2.836   4.844   0.020 -0.3469  0.3371 -0.4543
16959TIP3   OH272367   6.238   1.212   5.618  0.2024  0.4595 -0.3424
16959TIP3    H172368   6.327   1.245   5.631  1.0565 -1.4273 -0.9926
16959TIP3    H272369   6.215   1.239   5.529 -0.0975  1.3830  0.0044
16960TIP3   OH272370   6.325   6.650  15.559  0.0447 -0.1152 -0.1671
16960TIP3    H172371   6.349   6.736  15.591 -0.0489  0.8418 -2.4387
16960TIP3    H272372   6.230   6.647  15.567 -0.0490  0.4084 -0.9521
16961TIP3   OH272373   0.968   4.426   1.037 -0.1274 -0.2567  0.0522
16961TIP3    H172374   0.908   4.352   1.027 -0.2931 -0.2304  0.7662
16961TIP3    H272375   1.022   4.425   0.958  0.2054 -1.4405  0.2879
16962TIP3   OH272376   6.029   3.183  15.843  0.2540  0.1288 -0.2913
16962TIP3    H172377   5.960   3.221  15.788  1.0940  1.8727 -0.1773
16962TIP3    H272378   5.982   3.148  15.919 -0.5641  0.7065 -0.5242
16963TIP3   OH272379   3.072   0.280  14.212  0.2009  0.2066 -0.8475
16963TIP3    H172380   3.143   0.309  14.270 -0.1193  0.4889 -0.5967
16963TIP3    H272381   3.024   0.216  14.264 -0.8371  1.3779 -0.3353
16964TIP3   OH272382   4.149   1.844   5.054  0.3284  0.2906 -0.2450
16964TIP3    H172383   4.234   1.831   5.097  0.4451  1.8998  0.0830
16964TIP3    H272384   4.148   1.780   4.983  2.5003  1.2391 -1.2469
16965TIP3   OH272385   6.268   4.245  11.977  0.1246  0.0459  0.4951
16965TIP3    H172386   6.211   4.190  12.030 -1.7741  0.5600 -0.9314
16965TIP3    H272387   6.236   4.334  11.991  2.0183  0.6549  1.3659
16966TIP3   OH272388   2.192   4.428  10.381  0.0771  0.2581  0.1759
16966TIP3    H172389   2.229   4.510  10.414 -0.7560  1.1582 -1.0131
16966TIP3    H272390   2.258   4.395  10.320 -0.5813  1.3362 -1.1780
16967TIP3   OH272391   1.739   6.393   2.776  0.5211  0.2614 -0.0782
16967TIP3    H172392   1.760   6.483   2.749  1.2930 -0.4223 -1.9461
16967TIP3    H272393   1.649   6.379   2.746  0.2311  0.5608  0.6447
16968TIP3   OH272394   3.929   2.461   6.548  0.5936  0.0383  0.3648
16968TIP3    H172395   3.973   2.404   6.486  2.1010 -0.3903  1.7376
16968TIP3    H272396   3.854   2.496   6.501 -0.7363 -3.4726 -0.3933
16969TIP3   OH272397   5.857   1.066  15.542  0.0169  0.2281 -0.1094
16969TIP3    H172398   5.896   1.153  15.539 -0.2415  0.3898  0.8531
16969TIP3    H272399   5.924   1.007  15.508  0.8783  0.5738  0.9446
16970TIP3   OH272400   5.355   3.467   4.990 -0.4107  0.3515  0.4117
16970TIP3    H172401   5.323   3.496   5.075  0.6262  1.2795  0.5137
16970TIP3    H272402   5.300   3.512   4.926 -1.5655 -0.7886  0.5657
16971TIP3   OH272403   5.794   4.129  13.765 -0.0499  0.0754 -0.7839
16971TIP3    H172404   5.699   4.132  13.775  0.0189 -0.9558  0.3667
16971TIP3    H272405   5.827   4.182  13.837  0.2493  1.8501 -2.1532
16972TIP3   OH272406   4.653   5.015   5.936  0.9767 -0.2555  0.2061
16972TIP3    H172407   4.653   5.110   5.946  1.0232 -0.1767 -0.5079
16972TIP3    H272408   4.667   5.000   5.842 -0.4830 -0.9231  0.0547
16973TIP3   OH272409   1.082   2.008   1.605  0.0669  0.0651 -0.6012
16973TIP3    H172410   1.025   1.938   1.574 -1.3854 -0.1352  2.2043
16973TIP3    H272411   1.150   1.963   1.656 -1.0160  0.6004  1.4374
16974TIP3   OH272412   5.254   1.148   1.572 -0.3571 -0.5423 -0.4741
16974TIP3    H172413   5.209   1.164   1.489  1.1526  0.0974 -1.1960
16974TIP3    H272414   5.257   1.052   1.579 -3.0787 -0.6716  0.3463
16975TIP3   OH272415   3.455   1.333   5.452  0.7249 -0.2677 -0.4620
16975TIP3    H172416   3.365   1.313   5.478  0.6055  0.7059 -0.0852
16975TIP3    H272417   3.448   1.405   5.390  1.1538 -1.2939 -1.7526
16976TIP3   OH272418   4.395   0.000  14.053 -0.1153  0.1664  0.5168
16976TIP3    H172419   4.448  -0.077  14.072  0.7836  0.6984  0.1827
16976TIP3    H272420   4.380   0.040  14.139 -0.8170 -0.5108  0.7267
16977TIP3   OH272421   5.618   5.656  10.411 -0.8462 -0.1535 -0.1058
16977TIP3    H172422   5.530   5.693  10.401 -0.9050  0.0178  0.9541
16977TIP3    H272423   5.612   5.570  10.369 -1.3879  0.0438 -0.4475
16978TIP3   OH272424   6.023   2.224  16.552 -0.0038 -0.4461 -0.2357
16978TIP3    H172425   6.107   2.204  16.592  0.0379  0.3018  0.0660
16978TIP3    H272426   6.010   2.318  16.568  0.3158  0.0507 -2.5630
16979TIP3   OH272427   5.243   1.389   3.472 -0.0044 -0.0477  0.1040
16979TIP3    H172428   5.277   1.390   3.561 -0.9478  1.1557  0.4709
16979TIP3    H272429   5.206   1.301   3.462  0.0844 -0.1843  0.9135
16980TIP3   OH272430   2.528   2.014  13.465 -0.2953 -0.0527  0.6483
16980TIP3    H172431   2.609   2.055  13.496 -1.0942  0.9982  1.4502
16980TIP3    H272432   2.458   2.073  13.496 -1.2468  0.6110 -2.4336
16981TIP3   OH272433   5.354   1.043   6.003 -0.4215  0.1211 -0.5753
16981TIP3    H172434   5.372   1.115   6.064 -0.2546 -0.6862  0.3539
16981TIP3    H272435   5.421   0.978   6.023  0.5425  0.4207 -2.6258
16982TIP3   OH272436   1.883   1.178   5.424  0.2716  0.0602 -0.1874
16982TIP3    H172437   1.905   1.086   5.412 -0.8556 -0.4390  1.3103
16982TIP3    H272438   1.909   1.198   5.514 -0.5162  0.8862 -0.1249
16983TIP3   OH272439   2.244   1.780  17.151  0.9462  0.1539 -0.0097
16983TIP3    H172440   2.211   1.818  17.232  1.3138  1.5188 -0.4681
16983TIP3    H272441   2.169   1.737  17.112 -0.5825  3.5459 -1.2506
16984TIP3   OH272442   4.212   1.407   1.318 -0.2303 -0.8689 -0.1792
16984TIP3    H172443   4.164   1.379   1.240 -0.5341 -2.2541  0.4819
16984TIP3    H272444   4.240   1.326   1.359 -1.1526 -0.2268  1.8180
16985TIP3   OH272445   0.682   3.979   5.380 -0.1528  0.0349 -0.0454
16985TIP3    H172446   0.727   4.059   5.352  0.1231 -0.1177 -0.0429
16985TIP3    H272447   0.589   3.996   5.363 -0.1047  0.3953  0.0565
16986TIP3   OH272448   0.624   3.471  13.578  0.1754 -0.4319  0.3712
16986TIP3    H172449   0.703   3.423  13.604  1.2339  1.4276  0.7738
16986TIP3    H272450   0.628   3.474  13.483  1.5202  1.0514  0.4361
16987TIP3   OH272451   3.782   3.734   0.745  0.0973 -0.2692 -0.2457
16987TIP3    H172452   3.781   3.827   0.768  0.5079 -0.1896 -0.5392
16987TIP3    H272453   3.762   3.689   0.827  0.6789  0.0468  0.0794
16988TIP3   OH272454   6.308   1.433   0.572 -0.0922 -0.1433  0.1662
16988TIP3    H172455   6.367   1.367   0.534  1.0866  1.1409 -0.3497
16988TIP3    H272456   6.287   1.399   0.659  0.7325 -1.0556  0.0313
16989TIP3   OH272457   1.118   4.956  13.878  0.6245  0.5933 -0.0708
16989TIP3    H172458   1.191   4.908  13.918 -1.0018 -1.4053  0.6675
16989TIP3    H272459   1.108   4.915  13.791 -1.0968 -0.8698  0.7601
16990TIP3   OH272460   0.893   4.683   0.465  0.0217  0.9118  0.1371
16990TIP3    H172461   0.871   4.626   0.392  2.7269 -0.7299  0.4892
16990TIP3    H272462   0.857   4.769   0.440 -2.4619 -0.4271 -1.2885
16991TIP3   OH272463   4.694   2.793  14.090  0.2263  0.4239 -0.0635
16991TIP3    H172464   4.706   2.707  14.132 -0.4268 -0.3184 -1.3381
16991TIP3    H272465   4.748   2.788  14.011  0.1158  1.1668 -0.1877
16992TIP3   OH272466   6.362   6.390  12.410 -0.0195  0.1693  0.4289
16992TIP3    H172467   6.379   6.312  12.358  2.6473  0.0761  1.2611
16992TIP3    H272468   6.311   6.447  12.353  1.3019 -0.6322 -1.6725
16993TIP3   OH272469   3.174   6.787  12.327 -0.1657 -0.7097  0.1994
16993TIP3    H172470   3.193   6.713  12.268 -2.2315 -0.3421 -1.0128
16993TIP3    H272471   3.090   6.764  12.367  0.0212  0.2050  1.1435
16994TIP3   OH272472   0.394   0.461   3.603 -0.0721 -0.3343  0.6251
16994TIP3    H172473   0.436   0.400   3.542  0.2061  1.0067 -0.5782
16994TIP3    H272474   0.437   0.545   3.586  1.2634 -0.2270  3.9353
16995TIP3   OH272475   2.330   3.363  16.903  0.2458  0.1918  0.5859
16995TIP3    H172476   2.396   3.432  16.895  0.0612  0.5240  1.7489
16995TIP3    H272477   2.372   3.297  16.959 -0.3982  0.4117  1.3447
16996TIP3   OH272478   6.191   6.175  17.127 -0.0030  0.1645 -0.8435
16996TIP3    H172479   6.273   6.147  17.167  0.9531 -0.0692 -2.8549
16996TIP3    H272480   6.130   6.102  17.142  0.5067 -0.1688 -0.3767
16997TIP3   OH272481   3.682   3.673   4.388 -0.1872 -0.0850 -0.1827
16997TIP3    H172482   3.773   3.691   4.364 -0.1610 -0.9843 -0.8149
16997TIP3    H272483   3.633   3.684   4.307 -0.7085  0.6729  0.2108
16998TIP3   OH272484   2.268   5.431  12.600  0.7462  0.2282  0.3945
16998TIP3    H172485   2.308   5.510  12.637 -1.1315  0.4304  2.1313
16998TIP3    H272486   2.269   5.446  12.506  1.2218  1.9422  0.6351
16999TIP3   OH272487   1.351   0.494  12.131 -0.1767 -0.1511 -0.2826
16999TIP3    H172488   1.399   0.545  12.066 -1.1362  4.0495  1.9644
16999TIP3    H272489   1.415   0.476  12.200 -0.3828  0.1173 -0.0162
17000TIP3   OH272490   3.256   0.790  13.883 -0.1951  0.0618 -0.0200
17000TIP3    H172491   3.284   0.754  13.798  0.6355 -1.5082  0.8738
17000TIP3    H272492   3.324   0.853  13.906  0.7919 -1.1250  0.4657
17001TIP3   OH272493   0.713   5.663   3.825 -0.9004 -0.3921 -0.3077
17001TIP3    H172494   0.794   5.708   3.850 -2.1063  1.0672  1.1670
17001TIP3    H272495   0.715   5.661   3.729 -0.3987  2.1132 -0.3967
17002TIP3   OH272496   5.863   4.210   3.236 -0.5970 -0.6890  0.3595
17002TIP3    H172497   5.783   4.189   3.284 -1.4944 -0.7854 -1.1331
17002TIP3    H272498   5.914   4.129   3.239 -2.1499 -1.8522 -1.6820
17003TIP3   OH272499   3.999   1.519   3.114  0.3370 -0.1565  0.0186
17003TIP3    H172500   4.092   1.507   3.096  0.2822 -0.6922  0.0703
17003TIP3    H272501   3.954   1.478   3.040  0.1375 -0.5866  0.3713
17004TIP3   OH272502   1.605   6.047  10.659  0.3834 -0.4949  0.6765
17004TIP3    H172503   1.658   6.030  10.582 -0.7327 -0.9999  0.0065
17004TIP3    H272504   1.559   6.129  10.639 -0.6119 -1.1066  0.3987
17005TIP3   OH272505   6.145   3.299   5.673  0.0266 -0.1989 -0.2288
17005TIP3    H172506   6.128   3.259   5.588  1.0194 -0.7375 -0.1801
17005TIP3    H272507   6.074   3.362   5.683 -0.6234 -0.7675 -1.0462
17006TIP3   OH272508   5.132   5.868  12.933 -0.0677  0.7599  0.0438
17006TIP3    H172509   5.186   5.793  12.955 -0.3080  0.4010 -0.5686
17006TIP3    H272510   5.087   5.890  13.015  1.0865  1.1498  0.5948
17007TIP3   OH272511   5.916   2.525  14.278 -0.0817  0.1795  0.7210
17007TIP3    H172512   5.834   2.567  14.302 -1.0731 -0.4410 -1.3444
17007TIP3    H272513   5.925   2.451  14.338 -1.0950  0.1774  0.8738
17008TIP3   OH272514   6.736   3.325   1.108 -0.9189 -0.2010  0.2145
17008TIP3    H172515   6.696   3.384   1.173  1.5173  0.2256  1.4513
17008TIP3    H272516   6.822   3.306   1.144 -0.7416 -2.6931 -1.3233
17009TIP3   OH272517   4.699   2.965  10.813 -1.2219  0.1236  0.3411
17009TIP3    H172518   4.768   2.934  10.873 -1.7343 -2.7572 -0.4529
17009TIP3    H272519   4.747   3.017  10.748 -0.3452  1.2987  1.8389
17010TIP3   OH272520   5.858   1.857  13.745 -0.0645  0.1651 -0.3321
17010TIP3    H172521   5.873   1.931  13.687  0.2464  1.1114  0.9074
17010TIP3    H272522   5.938   1.852  13.798 -0.8132  0.0846  0.8058
17011TIP3   OH272523   2.021   4.337  12.083 -0.9487  0.4138  0.1126
17011TIP3    H172524   2.039   4.427  12.054 -0.2590 -0.1292 -1.1980
17011TIP3    H272525   1.966   4.299  12.015  3.4427 -1.9713 -2.5644
17012TIP3   OH272526   2.398   4.899  15.587 -0.4774 -0.3788 -0.0196
17012TIP3    H172527   2.406   4.805  15.569 -1.0110 -0.5113  0.4387
17012TIP3    H272528   2.483   4.935  15.561 -0.1672 -1.0285  0.0806
17013TIP3   OH272529   2.230   1.645  15.259  0.0248 -0.1036 -0.3314
17013TIP3    H172530   2.292   1.650  15.187  2.3310 -1.7752  1.3838
17013TIP3    H272531   2.154   1.599  15.223  1.1871 -1.0342 -1.6532
17014TIP3   OH272532   4.950   3.330  15.275 -0.0286  0.4894 -0.1471
17014TIP3    H172533   4.868   3.357  15.233  0.1196  2.2617  0.5892
17014TIP3    H272534   5.004   3.298  15.203 -0.5851  1.3550 -0.9802
17015TIP3   OH272535   0.299   6.633   2.607 -0.0008  0.0269 -0.1176
17015TIP3    H172536   0.205   6.619   2.596  0.3574 -1.3707 -1.9018
17015TIP3    H272537   0.329   6.555   2.655  0.2168  0.6421  0.7734
17016TIP3   OH272538   4.565   3.419  16.591  0.4443 -0.0140 -0.3342
17016TIP3    H172539   4.604   3.404  16.677 -1.2155 -1.7477  0.1885
17016TIP3    H272540   4.504   3.492  16.605  2.0893  1.4899 -0.7264
17017TIP3   OH272541   5.154   2.494  13.951 -0.3435  0.3779 -0.2775
17017TIP3    H172542   5.154   2.527  13.862 -1.2021 -0.8289 -0.7531
17017TIP3    H272543   5.197   2.409  13.945  1.5190  1.1798  0.8525
17018TIP3   OH272544   6.685   4.759   3.277  0.1051 -0.0583  0.0322
17018TIP3    H172545   6.708   4.792   3.364 -2.0089  0.3015  0.4992
17018TIP3    H272546   6.714   4.668   3.277  0.6150  0.0930  0.9093
17019TIP3   OH272547   6.097   1.978   2.683 -0.6499 -0.2865  0.4586
17019TIP3    H172548   6.140   1.923   2.748 -2.9323 -1.5662  1.0074
17019TIP3    H272549   6.008   1.944   2.678 -1.6113  2.1401 -0.6586
17020TIP3   OH272550   0.476   5.238  11.377  0.1940  0.0341  0.3118
17020TIP3    H172551   0.451   5.171  11.441  1.8460 -1.0460 -0.0841
17020TIP3    H272552   0.416   5.226  11.304 -1.0084  0.5514  1.1920
17021TIP3   OH272553   3.039   1.299  17.064 -0.5668 -0.1692 -0.1322
17021TIP3    H172554   3.112   1.250  17.101 -0.9430 -0.3651  0.3676
17021TIP3    H272555   2.961   1.254  17.097 -0.9148  0.3975 -0.1640
17022TIP3   OH272556   2.963   5.378   4.993 -0.1274 -0.1896  0.1915
17022TIP3    H172557   2.961   5.375   5.089 -2.5952 -1.3719  0.1606
17022TIP3    H272558   2.940   5.469   4.972  3.9691  1.1770  0.6110
17023TIP3   OH272559   6.374   1.250  16.296  0.3721  0.0898 -0.3934
17023TIP3    H172560   6.462   1.280  16.317  0.2085 -0.3882  1.0675
17023TIP3    H272561   6.383   1.157  16.278  0.3006  0.2328 -1.2224
17024TIP3   OH272562   5.128   2.168  13.648 -0.1155 -0.5981  0.2454
17024TIP3    H172563   5.171   2.116  13.580 -1.2511 -0.0913 -0.8985
17024TIP3    H272564   5.200   2.210  13.695  0.7072 -1.0491 -0.5766
17025TIP3   OH272565   6.790   0.835  15.508 -0.1167 -0.4984  0.1475
17025TIP3    H172566   6.856   0.838  15.439 -1.5025  0.8394 -1.1834
17025TIP3    H272567   6.726   0.770  15.478  0.1234 -1.1731  1.0296
17026TIP3   OH272568   2.767   1.574   0.645 -0.1242  0.2183 -0.4809
17026TIP3    H172569   2.806   1.597   0.729  1.1859  0.0858 -1.0169
17026TIP3    H272570   2.679   1.611   0.647  0.0956  0.6948  0.7163
17027TIP3   OH272571   2.577   2.377   4.559  1.0278 -0.2594  0.3329
17027TIP3    H172572   2.516   2.447   4.540  1.3118  0.2436  1.1851
17027TIP3    H272573   2.663   2.414   4.538  1.0218 -1.1471 -1.3843
17028TIP3   OH272574   0.191   1.304   2.292  0.1577 -0.3160 -0.1620
17028TIP3    H172575   0.274   1.282   2.248 -0.5687  2.0530 -3.0666
17028TIP3    H272576   0.215   1.375   2.352  0.5266 -1.0090  0.5320
17029TIP3   OH272577   2.261   5.285  14.002 -0.4465  0.3727  0.4963
17029TIP3    H172578   2.308   5.203  13.990 -0.8299 -0.3021  3.0367
17029TIP3    H272579   2.185   5.277  13.944  0.5426 -0.1639 -0.7811
17030TIP3   OH272580   2.313   6.777   6.281  0.2706  0.2714  0.2813
17030TIP3    H172581   2.291   6.854   6.333  0.7138  1.5594 -1.3678
17030TIP3    H272582   2.393   6.743   6.321  0.9312  1.5778  0.0896
17031TIP3   OH272583   5.930   3.931  13.230  0.2663  0.8215 -0.2479
17031TIP3    H172584   6.008   3.979  13.258  0.4530  0.6196 -0.4105
17031TIP3    H272585   5.861   3.961  13.288  0.1405  2.0342 -0.9988
17032TIP3   OH272586   4.246   6.324   2.959  0.4951 -0.2469 -0.5770
17032TIP3    H172587   4.166   6.366   2.992  1.7038  0.3753  1.7946
17032TIP3    H272588   4.271   6.376   2.883 -0.6646  0.3176 -0.5885
17033TIP3   OH272589   3.104   2.296   4.924 -0.0048  0.0924 -0.0239
17033TIP3    H172590   3.200   2.288   4.924 -0.1405 -2.5327 -1.8218
17033TIP3    H272591   3.088   2.388   4.906  2.1930  0.3075 -1.2052
17034TIP3   OH272592   4.441   6.516  13.136  0.0841  0.1921  0.3198
17034TIP3    H172593   4.532   6.544  13.146 -0.2827  1.0912  1.3193
17034TIP3    H272594   4.389   6.592  13.161 -0.9520 -0.4637  0.2402
17035TIP3   OH272595   4.497   2.221  14.839 -0.0946 -0.3155  0.1792
17035TIP3    H172596   4.476   2.310  14.867 -0.1554  0.8564 -3.1795
17035TIP3    H272597   4.413   2.185  14.810  0.1798 -0.9646  0.1738
17036TIP3   OH272598   4.104   0.522  12.884 -0.4046 -0.2277  0.4335
17036TIP3    H172599   4.048   0.598  12.902  0.2742  0.4746 -0.2960
17036TIP3    H272600   4.067   0.485  12.804  1.0216  1.1639 -0.9621
17037TIP3   OH272601   0.476   0.839   0.122 -0.3057 -0.0024  0.7622
17037TIP3    H172602   0.520   0.837   0.207  0.5363  1.4174  0.3993
17037TIP3    H272603   0.548   0.836   0.059 -0.6465  2.5411  0.1506
17038TIP3   OH272604   3.068   2.202  16.761 -0.2962  0.0851  0.1943
17038TIP3    H172605   3.083   2.281  16.711  0.1798 -0.2049 -0.1240
17038TIP3    H272606   3.043   2.136  16.696 -0.9559  0.0390  0.4831
17039TIP3   OH272607   1.232   2.155  15.346  0.2118  0.0398 -0.5523
17039TIP3    H172608   1.137   2.163  15.353  0.2662  0.1092  0.1760
17039TIP3    H272609   1.248   2.137  15.253 -0.3534  2.1671 -1.1077
17040TIP3   OH272610   3.683   4.752   3.272 -0.3073  0.2938 -0.6092
17040TIP3    H172611   3.628   4.816   3.319 -0.7546  0.5833 -1.4972
17040TIP3    H272612   3.682   4.674   3.328  0.0452  0.9760  0.3715
17041TIP3   OH272613   1.098   2.741  11.161  0.3055 -0.1216  0.0365
17041TIP3    H172614   1.103   2.679  11.089 -0.1745 -0.3524  0.1965
17041TIP3    H272615   1.172   2.800  11.147 -0.5572  0.6715 -1.4241
17042TIP3   OH272616   6.594   5.118  15.822  0.0762  0.0799  0.5171
17042TIP3    H172617   6.613   5.137  15.730 -0.0712  0.3327  0.5386
17042TIP3    H272618   6.498   5.119  15.828  0.0379 -1.1225  0.4264
17043TIP3   OH272619   6.807   5.241   4.182 -0.2637  0.2440  0.4345
17043TIP3    H172620   6.827   5.206   4.269  0.6827  0.0042  0.1334
17043TIP3    H272621   6.718   5.211   4.164  0.6860 -2.5661 -0.0510
17044TIP3   OH272622   2.856   4.485  13.902  0.0327 -0.1827 -0.2630
17044TIP3    H172623   2.792   4.414  13.897  1.7708 -1.8932  0.4161
17044TIP3    H272624   2.903   4.469  13.985  0.1635  2.0654  0.1483
17045TIP3   OH272625   6.576   3.427  13.783  0.2837 -0.3602  0.1227
17045TIP3    H172626   6.607   3.451  13.696  0.5809  0.0555  0.3421
17045TIP3    H272627   6.535   3.341  13.770  0.4002 -0.3418 -0.4091
17046TIP3   OH272628   6.167   4.328   1.618 -0.2856 -0.3942  0.1461
17046TIP3    H172629   6.122   4.247   1.595  0.5936 -1.3450  1.5889
17046TIP3    H272630   6.098   4.395   1.617 -1.2455 -1.3568 -0.0129
17047TIP3   OH272631   2.597   1.528   5.596  0.3095  0.5546 -0.1467
17047TIP3    H172632   2.597   1.602   5.535 -0.6765  0.6357 -0.0538
17047TIP3    H272633   2.677   1.479   5.573  3.1904  3.6342  2.3135
17048TIP3   OH272634   2.759   1.497  12.952  0.2198  1.0580  0.0938
17048TIP3    H172635   2.840   1.548  12.943  0.8301  0.3640  1.3873
17048TIP3    H272636   2.745   1.489  13.046  0.1898 -1.1907 -0.0428
17049TIP3   OH272637   0.581   4.667  11.357 -0.1780  0.3598  0.0254
17049TIP3    H172638   0.547   4.721  11.427  1.3859 -0.5168  1.5401
17049TIP3    H272639   0.622   4.729  11.296  0.2574  1.0016  0.9545
17050TIP3   OH272640   1.602   2.658   3.127  0.1651  0.0393 -0.6126
17050TIP3    H172641   1.616   2.739   3.079 -0.6113 -1.1844 -3.0868
17050TIP3    H272642   1.533   2.678   3.190  0.1020  1.3291 -1.0672
17051TIP3   OH272643   5.524   1.920   2.793  0.1699  0.4789 -0.0798
17051TIP3    H172644   5.577   1.867   2.853  0.0285 -0.2069 -0.5508
17051TIP3    H272645   5.434   1.902   2.819  0.0421 -0.9277 -1.3789
17052TIP3   OH272646   5.682   1.731  17.055  0.7313 -0.4596  0.4472
17052TIP3    H172647   5.734   1.807  17.028 -0.0033  0.0360  0.3948
17052TIP3    H272648   5.724   1.700  17.135  1.7062 -0.6889 -0.1307
17053TIP3   OH272649   3.057   2.956   0.539  0.1367 -0.4505 -0.2391
17053TIP3    H172650   3.090   2.958   0.629  1.6751 -0.6565 -0.7607
17053TIP3    H272651   2.962   2.949   0.548  0.1775  0.5702  1.3595
17054TIP3   OH272652   6.626   2.756   5.525 -0.0978  0.0291 -0.1852
17054TIP3    H172653   6.649   2.668   5.555 -1.8106 -0.4940 -0.3237
17054TIP3    H272654   6.588   2.798   5.602  0.5476  0.6133 -0.1701
17055TIP3   OH272655   3.664   1.174  13.334  0.5367  0.8123 -0.0543
17055TIP3    H172656   3.585   1.226  13.318 -1.1906 -1.6505 -0.1786
17055TIP3    H272657   3.650   1.094  13.282  3.4615  0.5551 -0.6078
17056TIP3   OH272658   1.945   3.343   0.596  0.1545 -0.0245  0.6513
17056TIP3    H172659   1.864   3.368   0.640  0.5831  1.3354  0.7164
17056TIP3    H272660   1.995   3.297   0.663 -0.4913 -0.7670  0.6448
17057TIP3   OH272661   6.729   6.299  15.773  0.4897  0.4687 -0.4423
17057TIP3    H172662   6.743   6.304  15.868  0.5941  0.6454 -0.4671
17057TIP3    H272663   6.703   6.388  15.749  0.5870  0.4536 -0.6003
17058TIP3   OH272664   2.138   0.747   4.281 -0.3928  0.1386 -0.1911
17058TIP3    H172665   2.052   0.731   4.243 -0.7819  0.6405  0.4637
17058TIP3    H272666   2.145   0.682   4.351  0.3890 -0.8927 -1.1936
17059TIP3   OH272667   5.061   5.808   4.129  0.0766  0.0634  0.4142
17059TIP3    H172668   5.066   5.895   4.168 -0.4929 -0.0697  0.7972
17059TIP3    H272669   5.150   5.789   4.102 -0.0254  1.3256 -0.9096
17060TIP3   OH272670   6.392   4.491   5.692 -0.1084  0.1116 -0.9487
17060TIP3    H172671   6.301   4.477   5.716 -0.6490  2.5176 -1.3458
17060TIP3    H272672   6.427   4.403   5.678 -2.2225 -0.8841 -0.3552
17061TIP3   OH272673   1.000   2.006  13.879 -0.3139 -0.2994 -0.2137
17061TIP3    H172674   1.070   1.943  13.857  0.8048  0.8153  0.0420
17061TIP3    H272675   0.956   1.967  13.954 -0.9727 -1.7504 -1.2965
17062TIP3   OH272676   5.157   0.045   4.790 -0.3431 -0.2053 -0.0607
17062TIP3    H172677   5.098   0.078   4.723 -0.9709  0.6015  0.8652
17062TIP3    H272678   5.139   0.099   4.867  1.3706 -0.1415  0.3492
17063TIP3   OH272679   0.260   2.273   0.041  0.1322 -0.1157 -0.2661
17063TIP3    H172680   0.284   2.332   0.112  0.1010 -1.9775  1.3833
17063TIP3    H272681   0.331   2.209   0.038 -0.6759 -1.0112 -0.7826
17064TIP3   OH272682   5.995   2.138  16.853  0.2091 -0.4292 -0.8803
17064TIP3    H172683   6.084   2.119  16.825  0.9773 -1.2065  1.7899
17064TIP3    H272684   5.940   2.087  16.794  1.4737  0.0835 -2.5888
17065TIP3   OH272685   5.648   2.392  10.905  0.1529 -0.1613 -0.0062
17065TIP3    H172686   5.632   2.306  10.867 -0.7061 -0.8047  1.6894
17065TIP3    H272687   5.561   2.423  10.930  0.6048  0.5359  0.7444
17066TIP3   OH272688   0.689   4.751  10.740  0.1614  0.9464  0.0819
17066TIP3    H172689   0.769   4.766  10.690 -0.6799  1.1124 -1.2797
17066TIP3    H272690   0.706   4.671  10.790  1.3946  1.3334  0.3204
17067TIP3   OH272691   1.671   5.839   3.521 -0.2667 -0.5460  0.3719
17067TIP3    H172692   1.659   5.894   3.443 -1.6664  0.1351  1.0255
17067TIP3    H272693   1.673   5.750   3.486 -1.9084 -0.3289 -0.3963
17068TIP3   OH272694   4.918   2.109  15.713 -0.1716 -0.3156  0.0737
17068TIP3    H172695   4.894   2.106  15.806  0.1392  1.6522  0.2609
17068TIP3    H272696   4.917   2.018  15.685 -0.1198 -0.9691  2.0465
17069TIP3   OH272697   1.464   5.798  10.695 -0.1198 -0.3927 -0.1898
17069TIP3    H172698   1.494   5.744  10.622  0.7034 -0.1601 -0.0334
17069TIP3    H272699   1.521   5.876  10.692  0.1448 -0.5238  0.8874
17070TIP3   OH272700   4.221   0.623  15.829 -0.0112  0.6430 -0.1861
17070TIP3    H172701   4.182   0.573  15.758 -4.1386  1.3179  1.3501
17070TIP3    H272702   4.192   0.579  15.909  5.7434 -1.0533  1.4257
17071TIP3   OH272703   0.665   6.075  11.597 -0.0356  0.7453 -0.0424
17071TIP3    H172704   0.609   6.119  11.533  1.0659  1.1255 -0.7644
17071TIP3    H272705   0.747   6.125  11.596  0.8105 -0.5964  0.0121
17072TIP3   OH272706   0.887   5.161   2.426  0.6334 -0.0389  0.4002
17072TIP3    H172707   0.974   5.124   2.437  0.3872 -2.1565 -3.1626
17072TIP3    H272708   0.898   5.227   2.358 -0.4948 -0.2124  0.0332
17073TIP3   OH272709   3.261   5.259   3.406 -0.0554 -0.1252 -0.3758
17073TIP3    H172710   3.313   5.190   3.364  0.0218  0.6909 -1.6829
17073TIP3    H272711   3.302   5.341   3.378  0.1378  0.4773  1.5175
17074TIP3   OH272712   6.407   1.770   5.164 -0.0466  0.4070 -0.2220
17074TIP3    H172713   6.440   1.835   5.226 -0.0807  0.0567  0.1638
17074TIP3    H272714   6.355   1.821   5.101  0.0293  0.7677  0.0076
17075TIP3   OH272715   0.380   0.054  15.144 -0.1191 -0.1102 -0.0991
17075TIP3    H172716   0.403   0.141  15.176 -2.6193  0.7331 -0.3776
17075TIP3    H272717   0.324   0.070  15.068  0.0021 -1.9978 -0.6427
17076TIP3   OH272718   4.348   5.134  14.355 -0.1908 -0.2289  0.2279
17076TIP3    H172719   4.293   5.093  14.421 -0.8754 -0.5821 -0.5351
17076TIP3    H272720   4.287   5.157  14.284  0.2985  1.4245  0.3128
17077TIP3   OH272721   2.402   4.355  14.997 -0.3135 -0.0494 -0.4309
17077TIP3    H172722   2.486   4.346  14.953  0.0027 -2.0099  0.4748
17077TIP3    H272723   2.348   4.284  14.961 -0.5185 -0.7850  1.2233
17078TIP3   OH272724   0.773   3.037   0.464 -0.4136 -0.4641 -0.2421
17078TIP3    H172725   0.859   3.067   0.433  0.2770  0.5654  2.4343
17078TIP3    H272726   0.710   3.081   0.406  0.7983  1.2232 -0.3558
17079TIP3   OH272727   5.056   5.789   2.214  0.5272 -0.3723  0.0029
17079TIP3    H172728   5.118   5.730   2.172  1.0904 -0.0999  0.4278
17079TIP3    H272729   5.088   5.876   2.193  0.7963 -0.2329  0.9384
17080TIP3   OH272730   4.016   0.164   0.961 -0.0019 -0.1528 -0.2352
17080TIP3    H172731   4.092   0.107   0.957  0.8856  0.8865  0.9926
17080TIP3    H272732   3.964   0.140   0.884  1.5978 -0.8356 -1.1577
17081TIP3   OH272733   4.770   5.488   5.261 -0.5712  0.1573  0.3558
17081TIP3    H172734   4.725   5.423   5.315 -0.0905 -0.3181  0.1948
17081TIP3    H272735   4.822   5.540   5.323  2.2927 -2.2071  0.1701
17082TIP3   OH272736   4.280   4.903  13.239 -0.1388  0.8044 -0.1754
17082TIP3    H172737   4.222   4.977  13.220  0.1209  1.1474  0.3542
17082TIP3    H272738   4.351   4.941  13.290  0.0900  0.2188 -0.0544
17083TIP3   OH272739   5.745   4.081  10.956 -0.0580 -1.0302  0.2404
17083TIP3    H172740   5.783   4.115  11.037  3.6103 -2.8247 -0.5610
17083TIP3    H272741   5.736   4.159  10.900 -0.2378 -0.1509  1.4440
17084TIP3   OH272742   2.840   3.091  10.531 -0.1878  0.1507 -0.3004
17084TIP3    H172743   2.868   3.123  10.616 -0.3620 -0.9476  0.1939
17084TIP3    H272744   2.914   3.109  10.473  0.5762 -0.4858  0.4447
17085TIP3   OH272745   3.629   6.013  14.935  0.0753  0.6182  0.2386
17085TIP3    H172746   3.569   5.965  14.991  1.4057 -0.9441  0.3959
17085TIP3    H272747   3.682   6.065  14.996  0.7408 -0.1845  0.3661
17086TIP3   OH272748   6.076   1.807   2.337  0.7919  0.1807  0.0539
17086TIP3    H172749   6.142   1.865   2.377  0.3070  1.8391 -1.4386
17086TIP3    H272750   6.091   1.722   2.379  3.0360  0.8087  0.6912
17087TIP3   OH272751   0.440   4.375  15.550  0.2755 -0.0796 -0.1656
17087TIP3    H172752   0.478   4.462  15.560 -0.3956  0.1926  0.0337
17087TIP3    H272753   0.346   4.390  15.539  0.2360 -0.7369 -0.8167
17088TIP3   OH272754   4.735   2.533   6.131  0.3836 -0.0026  0.0302
17088TIP3    H172755   4.819   2.577   6.146  1.1258 -1.7304  1.3465
17088TIP3    H272756   4.754   2.469   6.062 -0.6902  1.6342 -1.8922
17089TIP3   OH272757   4.514   0.115   4.433 -0.2050 -0.2623  0.2243
17089TIP3    H172758   4.551   0.029   4.451 -2.1554 -1.0717  0.7133
17089TIP3    H272759   4.535   0.131   4.341 -0.1780 -1.4799 -0.0068
17090TIP3   OH272760   0.783   0.094  12.617  0.4755 -0.5311  0.1262
17090TIP3    H172761   0.874   0.109  12.593 -0.0045  0.1617 -1.3905
17090TIP3    H272762   0.769   0.001  12.604 -0.0012 -0.1190 -3.5350
17091TIP3   OH272763   1.628   4.770   3.270 -0.1978  0.1669 -0.0044
17091TIP3    H172764   1.651   4.863   3.266 -0.2942  0.2303  0.7358
17091TIP3    H272765   1.544   4.769   3.316  0.2146 -0.3519  0.7447
17092TIP3   OH272766   1.348   2.323   1.675  0.0788 -0.4876 -0.2125
17092TIP3    H172767   1.306   2.268   1.741  0.9679  0.0122  0.7964
17092TIP3    H272768   1.275   2.367   1.631 -0.5528 -1.1495  0.1465
17093TIP3   OH272769   0.654   5.386  11.550 -0.5272 -0.1014 -0.1913
17093TIP3    H172770   0.710   5.388  11.472  0.1280 -0.0252  0.2691
17093TIP3    H272771   0.576   5.338  11.523 -1.0341  1.2844 -1.3700
17094TIP3   OH272772   0.310   4.915   2.255  0.0274  0.5396  0.4865
17094TIP3    H172773   0.380   4.856   2.284  0.9643  2.4433  2.4078
17094TIP3    H272774   0.240   4.902   2.319 -0.9537 -0.5093 -0.7561
17095TIP3   OH272775   3.851   2.814  16.479  0.4120  0.3677  0.2590
17095TIP3    H172776   3.821   2.724  16.471  0.9669  0.2829 -1.1215
17095TIP3    H272777   3.946   2.807  16.487  0.7612  0.8791 -2.4695
17096TIP3   OH272778   2.877   2.840  15.282 -0.4673  0.2027  0.0462
17096TIP3    H172779   2.875   2.759  15.333  0.6683  0.0636 -0.0985
17096TIP3    H272780   2.789   2.876  15.290 -0.4722 -0.1043  1.6305
17097TIP3   OH272781   5.913   3.651   2.578 -0.0246 -0.3866 -0.3206
17097TIP3    H172782   5.823   3.660   2.609  0.1190  0.1653 -0.0462
17097TIP3    H272783   5.964   3.707   2.637  0.4448 -0.3988 -0.7103
17098TIP3   OH272784   6.007   3.011  11.356 -0.0465 -0.2911 -0.1207
17098TIP3    H172785   6.059   2.974  11.427 -1.9186  0.4850  1.7774
17098TIP3    H272786   5.921   2.969  11.364 -1.0277  1.5363 -0.3833
17099TIP3   OH272787   1.673   5.132  12.856 -0.0072  0.1231 -0.1147
17099TIP3    H172788   1.688   5.042  12.828 -0.0036  0.4605 -1.2360
17099TIP3    H272789   1.599   5.162  12.803  1.6551  1.6161 -1.7193
17100TIP3   OH272790   5.087   2.851  15.224  0.8324 -0.0476 -0.4228
17100TIP3    H172791   5.122   2.856  15.313  0.9497  0.9152 -0.5070
17100TIP3    H272792   5.124   2.770  15.188  0.7950 -0.4373  0.3933
17101TIP3   OH272793   0.089   0.802   6.102  0.2321 -0.6626 -0.0672
17101TIP3    H172794   0.090   0.889   6.063  0.1582 -0.3477  0.6229
17101TIP3    H272795   0.002   0.794   6.140 -0.1379 -1.4584 -1.0463
17102TIP3   OH272796   2.236   2.538  16.384 -0.1998  0.1054  0.5236
17102TIP3    H172797   2.318   2.587  16.375 -0.3796  0.3245  0.0696
17102TIP3    H272798   2.196   2.573  16.464  0.0458  0.1484  0.6292
17103TIP3   OH272799   1.075   4.827  13.617  0.2090 -0.0342 -0.9440
17103TIP3    H172800   1.144   4.776  13.575  0.5497 -0.4997  0.1488
17103TIP3    H272801   1.002   4.766  13.625  1.3060 -1.1241  2.2855
17104TIP3   OH272802   6.456   2.613   2.281 -0.2613  0.1802  0.1193
17104TIP3    H172803   6.546   2.640   2.300  0.0568  1.9201 -3.0826
17104TIP3    H272804   6.403   2.657   2.347  1.0747  0.7681  0.8436
17105TIP3   OH272805   3.737   5.936  14.235  0.0915  0.9122  0.0698
17105TIP3    H172806   3.656   5.889  14.213  1.3769 -1.3191 -0.2737
17105TIP3    H272807   3.765   5.975  14.152  0.9254 -0.9872 -0.6178
17106TIP3   OH272808   4.630   5.418  15.965 -0.3311  0.5126 -0.0553
17106TIP3    H172809   4.560   5.391  16.023 -0.0217 -0.6997 -0.2082
17106TIP3    H272810   4.595   5.404  15.877  0.6816 -1.9077 -0.1559
17107TIP3   OH272811   2.398   4.996   2.294 -0.1877 -0.7074  0.0492
17107TIP3    H172812   2.479   5.046   2.287 -1.4859  2.0420  2.5799
17107TIP3    H272813   2.361   4.998   2.206  1.9283 -1.1451 -0.9221
17108TIP3   OH272814   4.221   5.355   4.810  0.2239 -0.0067 -0.0949
17108TIP3    H172815   4.231   5.304   4.890 -2.2125 -1.1625 -0.4491
17108TIP3    H272816   4.269   5.305   4.744  1.9122  0.7495  0.5024
17109TIP3   OH272817   0.496   4.605   0.851 -0.2841 -0.3268  0.3319
17109TIP3    H172818   0.470   4.517   0.875  1.2636 -1.2492 -1.1273
17109TIP3    H272819   0.517   4.600   0.758 -0.4128  1.6493  0.1427
17110TIP3   OH272820   6.478   3.211  12.579  0.2996  0.4216  0.0564
17110TIP3    H172821   6.528   3.292  12.585  1.3588  0.1843 -3.3608
17110TIP3    H272822   6.524   3.150  12.638  1.3033  1.4554  0.3876
17111TIP3   OH272823   5.569   3.757  16.253  0.2607  0.1299  0.3310
17111TIP3    H172824   5.596   3.731  16.165 -0.6275  1.8389 -0.5068
17111TIP3    H272825   5.506   3.827  16.239 -0.9640 -0.4917  2.3248
17112TIP3   OH272826   0.335   5.950   4.044 -0.1368 -0.7082 -0.4835
17112TIP3    H172827   0.412   5.933   3.990 -0.4893 -0.1063 -1.2016
17112TIP3    H272828   0.343   5.890   4.118  0.5429 -1.2957 -1.0255
17113TIP3   OH272829   3.053   2.286  16.387 -0.1306  0.2435 -0.4913
17113TIP3    H172830   2.958   2.283  16.398 -0.2445  1.6123 -0.9564
17113TIP3    H272831   3.078   2.373  16.418  0.9332  0.0132 -0.6680
17114TIP3   OH272832   4.309   4.955   1.451  0.0206 -0.5205  0.0008
17114TIP3    H172833   4.327   5.017   1.381 -0.1360  0.0213  0.4352
17114TIP3    H272834   4.299   5.009   1.529  2.9580 -1.2911  1.0282
17115TIP3   OH272835   0.222   3.247  11.960  0.4284 -0.4079  0.1244
17115TIP3    H172836   0.232   3.152  11.963 -0.3661 -0.5352 -0.7702
17115TIP3    H272837   0.256   3.271  11.874  3.0507  0.4643  1.2914
17116TIP3   OH272838   0.933   6.405  15.730  0.2076 -0.0352 -0.0741
17116TIP3    H172839   0.985   6.326  15.745 -0.4373 -0.3402  0.5903
17116TIP3    H272840   0.921   6.443  15.817 -0.3098  0.2679 -0.2708
17117TIP3   OH272841   5.493   5.061  13.073 -0.5215  0.2468  0.3460
17117TIP3    H172842   5.546   5.127  13.117 -0.1253  0.9676 -1.1500
17117TIP3    H272843   5.522   5.063  12.982 -0.6692 -1.8464  0.2107
17118TIP3   OH272844   0.369   2.459   0.228 -0.1200  0.6397  0.3445
17118TIP3    H172845   0.357   2.553   0.239  3.1620  1.7997 -3.4458
17118TIP3    H272846   0.460   2.443   0.253 -0.9709 -1.9417  2.2697
17119TIP3   OH272847   1.725   3.597  14.617 -0.0208  0.6995  0.2300
17119TIP3    H172848   1.782   3.544  14.561 -0.3258  1.1949 -0.5722
17119TIP3    H272849   1.711   3.543  14.695  0.5320  0.0538 -0.1043
17120TIP3   OH272850   4.190   4.403  12.590  0.3914 -0.1161 -0.7616
17120TIP3    H172851   4.274   4.429  12.551  0.1478  0.9388 -0.6008
17120TIP3    H272852   4.126   4.464  12.554 -0.1825 -0.4174 -0.2799
17121TIP3   OH272853   3.040   5.549  12.750  0.3440 -0.2631  0.0261
17121TIP3    H172854   3.021   5.605  12.825  0.8202  0.2207 -0.2057
17121TIP3    H272855   3.051   5.462  12.787  0.5613 -0.0312  0.5131
17122TIP3   OH272856   5.345   4.352   4.318  0.2031 -0.3869  0.0712
17122TIP3    H172857   5.272   4.360   4.256 -0.7005 -1.7744  0.9163
17122TIP3    H272858   5.422   4.341   4.262 -0.2380  0.8746 -0.8346
17123TIP3   OH272859   4.345   0.834  12.933  0.2086 -0.1099 -0.4243
17123TIP3    H172860   4.391   0.758  12.969  1.0754 -0.4248 -2.0568
17123TIP3    H272861   4.390   0.851  12.850 -0.0631  2.1182 -0.1657
17124TIP3   OH272862   2.333   0.128  14.636 -0.3487  0.1019 -0.3354
17124TIP3    H172863   2.257   0.166  14.681  1.0682  0.9377  1.4441
17124TIP3    H272864   2.305   0.040  14.612 -1.5673  0.0602  1.1141
17125TIP3   OH272865   6.791   4.247   5.618  0.0962  0.3765  0.6174
17125TIP3    H172866   6.813   4.158   5.644 -1.6611 -0.5865 -0.9518
17125TIP3    H272867   6.868   4.278   5.571  1.0960  0.0779  1.9995
17126TIP3   OH272868   1.682   4.142  15.371  0.5024  0.0289  0.5901
17126TIP3    H172869   1.775   4.124  15.388  0.2557 -1.4280  0.5245
17126TIP3    H272870   1.673   4.236  15.385  1.8849  0.1130  1.0794
17127TIP3   OH272871   1.207   5.757  14.115 -0.0881 -0.1966 -0.4318
17127TIP3    H172872   1.153   5.777  14.192 -0.9699 -3.2349 -0.1309
17127TIP3    H272873   1.150   5.776  14.041  0.6254  2.3534 -0.4277
17128TIP3   OH272874   1.457   6.408  12.207  0.0318 -0.3892 -0.1343
17128TIP3    H172875   1.505   6.488  12.232 -1.7965  0.4298  0.9574
17128TIP3    H272876   1.367   6.437  12.196 -0.1366 -1.6845 -3.1293
17129TIP3   OH272877   2.694   6.306   4.296 -0.5219  0.0091 -0.0226
17129TIP3    H172878   2.701   6.338   4.386 -1.3321 -0.2739  0.1426
17129TIP3    H272879   2.642   6.373   4.251 -0.7945 -0.2425 -0.0848
17130TIP3   OH272880   2.050   5.146  14.625  0.0207 -0.0255 -0.1361
17130TIP3    H172881   2.136   5.165  14.663 -0.0519 -0.3753  0.2203
17130TIP3    H272882   2.040   5.051  14.638 -1.5155  0.3753  2.1653
17131TIP3   OH272883   5.981   2.898   5.951 -0.0258  0.9031 -0.2731
17131TIP3    H172884   5.980   2.934   6.040  0.5535  0.1253  0.0700
17131TIP3    H272885   5.920   2.824   5.955 -0.0658  0.9224 -0.5485
17132TIP3   OH272886   5.208   3.868  12.457 -0.0375  0.1182 -0.4383
17132TIP3    H172887   5.193   3.815  12.535 -0.3063 -0.2478 -0.7364
17132TIP3    H272888   5.290   3.833  12.420 -0.5450 -0.5221 -0.9832
17133TIP3   OH272889   1.453   2.516  13.803 -0.2840  0.2919  0.1577
17133TIP3    H172890   1.427   2.424  13.800  0.0039  0.2046  0.3320
17133TIP3    H272891   1.457   2.543  13.711  2.0876 -0.5676 -0.0539
17134TIP3   OH272892   0.312   0.032  13.240 -0.1742  0.3335  0.2120
17134TIP3    H172893   0.222   0.015  13.268 -0.9857  0.7478 -1.9517
17134TIP3    H272894   0.330  -0.035  13.175  1.2037  0.0874  0.8232
17135TIP3   OH272895   2.974   6.005  11.631  0.4879 -0.2173 -0.8872
17135TIP3    H172896   2.937   6.056  11.703  2.5381  2.7835 -1.7391
17135TIP3    H272897   3.034   5.943  11.674 -0.8861 -0.9230  0.0971
17136TIP3   OH272898   0.121   3.828  11.323  0.3242 -0.2586 -0.4743
17136TIP3    H172899   0.071   3.876  11.256  1.7951  0.4644 -1.1018
17136TIP3    H272900   0.213   3.848  11.303  0.8180  1.0393  2.5273
17137TIP3   OH272901   6.470   3.116   4.111 -0.0373 -0.3604 -0.2828
17137TIP3    H172902   6.459   3.187   4.048 -2.4026  0.5669  1.0743
17137TIP3    H272903   6.558   3.082   4.094  0.8660  2.3632 -1.4772
17138TIP3   OH272904   2.989   2.500   6.042  0.4899  0.0434  0.2809
17138TIP3    H172905   3.016   2.415   6.078  0.0387  0.0849  0.7212
17138TIP3    H272906   2.903   2.483   6.003 -0.7338  0.8247  2.5005
17139TIP3   OH272907   4.715   2.010  14.376  0.8819 -0.0340 -0.1331
17139TIP3    H172908   4.720   2.058  14.459  0.6681  0.6264 -0.4997
17139TIP3    H272909   4.769   1.932  14.391  0.7404  0.0070  0.6708
17140TIP3   OH272910   0.781   2.451  16.495 -0.1462 -0.2457  0.4138
17140TIP3    H172911   0.874   2.455  16.517  0.2980  2.5531 -1.4561
17140TIP3    H272912   0.751   2.542  16.503 -1.8534 -0.4631 -2.2934
17141TIP3   OH272913   4.450   5.463  13.368  0.7171 -0.1421  0.0959
17141TIP3    H172914   4.456   5.436  13.277  0.5276 -2.0883  0.6161
17141TIP3    H272915   4.540   5.485  13.392  1.3400 -2.4552  0.1856
17142TIP3   OH272916   2.012   0.207   5.297  0.6969  0.0251  0.0436
17142TIP3    H172917   1.954   0.281   5.315  0.7666  0.1330 -0.1662
17142TIP3    H272918   2.014   0.158   5.379 -0.9290 -0.8323 -0.3760
17143TIP3   OH272919   2.373   1.518  17.024  0.0297  0.4793  0.5112
17143TIP3    H172920   2.392   1.458  16.952  1.3885  0.5755  0.7524
17143TIP3    H272921   2.289   1.557  17.002  0.3720  0.4364 -0.9648
17144TIP3   OH272922   5.839   3.933   3.002 -0.0052  0.5584  0.0817
17144TIP3    H172923   5.855   3.843   3.030  0.9970  0.8608  0.5051
17144TIP3    H272924   5.896   3.986   3.057 -0.1414  1.4114 -0.5811
17145TIP3   OH272925   4.819   0.789  16.798  0.3228  0.0792  0.0336
17145TIP3    H172926   4.725   0.798  16.785  0.1348  0.7753  1.6049
17145TIP3    H272927   4.829   0.707  16.846  0.6823 -0.7707 -1.4440
17146TIP3   OH272928   0.198   1.098   1.995 -0.0805 -0.4715  0.0477
17146TIP3    H172929   0.266   1.163   2.011 -2.4407  2.1176  0.3739
17146TIP3    H272930   0.224   1.056   1.913  1.4723  1.0307 -0.2896
17147TIP3   OH272931   6.292   0.360   0.748  0.4138 -0.4568  0.4819
17147TIP3    H172932   6.383   0.331   0.742 -0.0641 -1.8290 -1.3842
17147TIP3    H272933   6.243   0.281   0.773 -0.2857  0.2518  1.4211
17148TIP3   OH272934   3.033   2.802   5.719 -0.5879 -0.4613 -0.0552
17148TIP3    H172935   2.960   2.754   5.679 -0.6427  0.3627 -0.9856
17148TIP3    H272936   3.088   2.827   5.645  0.7051 -1.1384  0.6437
17149TIP3   OH272937   1.291   3.673  15.716  0.1435  0.0737  0.6142
17149TIP3    H172938   1.216   3.698  15.662  1.6369  1.5911 -0.9037
17149TIP3    H272939   1.329   3.598  15.671  1.5403  1.4964 -0.7423
17150TIP3   OH272940   2.128   4.373  11.176  0.1791 -0.5006 -0.4963
17150TIP3    H172941   2.132   4.463  11.144 -1.3237 -0.9467 -2.1247
17150TIP3    H272942   2.081   4.379  11.260  2.1410  0.4345  0.5955
17151TIP3   OH272943   3.565   0.646   4.758 -0.4169  0.0989 -0.0282
17151TIP3    H172944   3.582   0.672   4.667 -1.1444 -0.3128 -0.2891
17151TIP3    H272945   3.473   0.618   4.758 -0.5510  0.4829  0.9220
17152TIP3   OH272946   6.531   2.331   1.993 -0.4847  0.2610 -0.1343
17152TIP3    H172947   6.602   2.352   2.053 -0.0578 -0.7507 -0.2544
17152TIP3    H272948   6.452   2.364   2.036 -0.0135  0.8802  0.2729
17153TIP3   OH272949   0.895   5.813   3.968 -0.1141 -0.2077 -0.1930
17153TIP3    H172950   0.860   5.791   4.054  0.4362 -0.2973  0.0146
17153TIP3    H272951   0.988   5.790   3.973  0.1075  0.5598 -0.5361
17154TIP3   OH272952   6.717   2.953  11.889 -0.6466  0.0479 -0.7321
17154TIP3    H172953   6.721   3.029  11.947  1.0981 -0.3450 -0.2970
17154TIP3    H272954   6.755   2.983  11.807  0.2702 -0.4035 -0.4826
17155TIP3   OH272955   6.574   2.797  15.134  0.6078  0.0048 -0.8504
17155TIP3    H172956   6.524   2.782  15.214  1.7715  0.7407  0.0522
17155TIP3    H272957   6.512   2.782  15.064 -0.7568  0.4387  0.2176
17156TIP3   OH272958   0.377   2.572   4.797  0.8502  0.6414 -0.2969
17156TIP3    H172959   0.315   2.504   4.822 -1.0994  1.9818 -1.2366
17156TIP3    H272960   0.409   2.607   4.881 -0.8637  0.9634  0.2474
17157TIP3   OH272961   1.317   1.233  16.074 -0.1039  0.6567  0.1583
17157TIP3    H172962   1.332   1.177  16.151 -2.8123 -0.0922  0.2399
17157TIP3    H272963   1.358   1.186  16.002  0.7214  0.3724  0.7887
17158TIP3   OH272964   6.456   4.803  12.237 -0.0425 -0.0881 -0.0790
17158TIP3    H172965   6.433   4.850  12.157  0.9133 -2.3710 -1.8135
17158TIP3    H272966   6.435   4.712  12.218  1.7096 -0.9264  1.6689
17159TIP3   OH272967   0.542   4.486   5.962 -0.4755 -0.4008  0.5447
17159TIP3    H172968   0.533   4.458   6.053 -0.2025 -3.5396 -0.2925
17159TIP3    H272969   0.452   4.488   5.928 -0.6319  1.3127  0.9576
17160TIP3   OH272970   2.947   2.114  11.351 -0.0113 -0.4220  0.3194
17160TIP3    H172971   2.923   2.040  11.407  4.1593 -1.9355  0.4979
17160TIP3    H272972   2.988   2.073  11.274 -0.6233  1.7098 -1.2483
17161TIP3   OH272973   2.647   4.985   5.043 -0.0254 -0.2246  0.2035
17161TIP3    H172974   2.571   4.939   5.008  0.6544 -2.6930  1.7331
17161TIP3    H272975   2.646   4.967   5.137  1.4995  1.1391  0.5355
17162TIP3   OH272976   5.897   1.343  10.852 -0.3377  0.0777 -0.3568
17162TIP3    H172977   5.805   1.315  10.849  0.1044 -1.4360 -2.4471
17162TIP3    H272978   5.946   1.267  10.821  1.7197  0.6080  1.3943
17163TIP3   OH272979   4.581   4.506   5.485 -0.6854 -0.4413 -0.5927
17163TIP3    H172980   4.523   4.582   5.494  0.8998  0.7847 -0.2542
17163TIP3    H272981   4.639   4.530   5.412  0.2296 -1.0428 -0.0809
17164TIP3   OH272982   5.736   3.799  14.016 -0.3556  0.8211 -0.1970
17164TIP3    H172983   5.793   3.762  13.949 -0.2797 -0.0899  0.3546
17164TIP3    H272984   5.795   3.850  14.072  0.5717 -2.4929  2.1332
17165TIP3   OH272985   6.298   2.750   2.452  0.0081  0.6823  0.1482
17165TIP3    H172986   6.223   2.751   2.511 -1.3654  0.2751 -1.5255
17165TIP3    H272987   6.281   2.821   2.390  0.1051 -0.4945 -1.2852
17166TIP3   OH272988   2.796   2.866   6.889 -0.1198  0.5757  0.1271
17166TIP3    H172989   2.778   2.901   6.976  0.6313  1.2806  0.0180
17166TIP3    H272990   2.890   2.881   6.876  0.1722 -1.1739 -0.0750
17167TIP3   OH272991   4.388   4.574  14.991  0.2644 -0.4905  0.7514
17167TIP3    H172992   4.362   4.482  14.995  0.1448 -0.4195  1.8985
17167TIP3    H272993   4.466   4.579  15.046  1.2848 -0.2096 -0.6523
17168TIP3   OH272994   0.460   6.245   2.486 -0.1472 -0.8907 -0.0692
17168TIP3    H172995   0.471   6.241   2.581 -0.8559  1.4547  0.1808
17168TIP3    H272996   0.477   6.156   2.456  1.6804 -1.3676  2.0728
17169TIP3   OH272997   0.417   0.075   0.690 -0.3192 -0.1820 -0.0803
17169TIP3    H172998   0.456  -0.012   0.691  0.3061  0.0948  0.3263
17169TIP3    H272999   0.401   0.093   0.597  1.5024  0.1156 -0.3637
17170TIP3   OH273000   2.387   5.363  15.079  0.1102  0.0181 -0.0831
17170TIP3    H173001   2.375   5.312  14.999  1.2624 -0.7781  0.2200
17170TIP3    H273002   2.326   5.323  15.142  3.0366 -3.1774  1.0845
17171TIP3   OH273003   1.473   3.153   3.894  0.4985  0.0613  0.0257
17171TIP3    H173004   1.489   3.072   3.942 -1.2381  0.1203  0.7907
17171TIP3    H273005   1.557   3.198   3.891  1.2549 -1.2915  0.4834
17172TIP3   OH273006   3.773   0.559  11.028  0.6519  0.6533  0.0532
17172TIP3    H173007   3.864   0.557  10.997  0.4492 -1.0115 -0.4866
17172TIP3    H273008   3.752   0.468  11.048 -2.5213  0.0195 -4.6401
17173TIP3   OH273009   6.423   5.949   5.153 -0.3023 -0.0957 -0.3906
17173TIP3    H173010   6.427   6.035   5.111  2.7562 -0.1661 -0.4734
17173TIP3    H273011   6.379   5.965   5.237  2.1854  2.0889  0.6207
17174TIP3   OH273012   3.568   1.189  16.944 -0.9060 -0.5191 -0.1605
17174TIP3    H173013   3.604   1.187  17.033 -0.3519 -0.5328 -0.3829
17174TIP3    H273014   3.473   1.194  16.957 -0.7831  0.4472  0.4352
17175TIP3   OH273015   0.357   2.966   1.494 -0.4991 -0.1256 -0.6425
17175TIP3    H173016   0.271   2.935   1.465 -0.0078 -0.6941 -1.5552
17175TIP3    H273017   0.364   3.055   1.460 -0.7901 -0.0197 -0.4268
17176TIP3   OH273018   3.331   6.269   2.885  0.1416 -0.2467  0.1303
17176TIP3    H173019   3.410   6.313   2.855  0.1083  0.8595  1.5842
17176TIP3    H273020   3.295   6.229   2.805  1.4797  0.2844 -0.7808
17177TIP3   OH273021   0.297   6.281   1.290  0.1476 -0.3024 -0.8281
17177TIP3    H173022   0.277   6.317   1.204 -0.0362 -1.4814 -1.2853
17177TIP3    H273023   0.295   6.186   1.278 -3.5702 -0.6685  1.2511
17178TIP3   OH273024   6.018   4.580  14.104 -0.1385  0.3907  0.3578
17178TIP3    H173025   6.035   4.666  14.065  0.1182 -0.2749 -1.0354
17178TIP3    H273026   5.945   4.544  14.054 -1.0431  0.2567  1.6985
17179TIP3   OH273027   5.389   0.536  15.347  0.1654  0.3068  0.0812
17179TIP3    H173028   5.472   0.549  15.393  0.1826 -1.6836  0.7220
17179TIP3    H273029   5.322   0.550  15.414  0.1384 -1.1479  0.4003
17180TIP3   OH273030   4.124   2.576  16.707 -0.5205  0.3985 -0.1309
17180TIP3    H173031   4.046   2.520  16.706 -0.4451  0.2732  0.5310
17180TIP3    H273032   4.124   2.616  16.794 -0.2268  0.9440 -0.3738
17181TIP3   OH273033   5.244   0.885  15.284  0.9051  0.0650  0.2836
17181TIP3    H173034   5.268   0.878  15.192  0.9392  0.7969  0.2282
17181TIP3    H273035   5.317   0.931  15.325  0.6837  0.1605  0.5781
17182TIP3   OH273036   3.177   5.883  11.757  0.6504  0.4176  0.2025
17182TIP3    H173037   3.194   5.866  11.850  0.8225  1.8259  0.4527
17182TIP3    H273038   3.252   5.846  11.711 -1.0696 -3.5442  0.2264
17183TIP3   OH273039   0.294   4.931   5.482  0.0901 -0.2092  0.2759
17183TIP3    H173040   0.276   4.875   5.407  0.3287  0.8610 -0.6070
17183TIP3    H273041   0.387   4.952   5.475 -0.2785  1.3576 -0.1715
17184TIP3   OH273042   3.306   5.601  12.049 -0.5587 -0.1734 -0.4514
17184TIP3    H173043   3.266   5.568  12.129 -1.6154  0.4621 -0.6973
17184TIP3    H273044   3.282   5.536  11.982  1.3398 -1.3533 -0.0706
17185TIP3   OH273045   4.962   0.077   4.594 -0.0719 -1.2714  0.4893
17185TIP3    H173046   4.884   0.126   4.621  1.4262 -0.2597  3.5558
17185TIP3    H273047   4.971   0.094   4.501 -2.8092 -0.4257  0.3069
17186TIP3   OH273048   2.677   6.474  13.844 -0.0667 -0.3150  0.4955
17186TIP3    H173049   2.698   6.398  13.899  2.0467 -0.4149 -0.3197
17186TIP3    H273050   2.670   6.547  13.905 -3.1423 -1.2539  1.4088
17187TIP3   OH273051   0.425   1.022   2.428  0.3731  0.0315  0.2844
17187TIP3    H173052   0.488   1.081   2.469 -0.7718  1.3180  0.2779
17187TIP3    H273053   0.339   1.059   2.450 -0.3648 -1.1099 -0.5180
17188TIP3   OH273054   0.437   4.983  13.352  0.3385 -0.2577  0.4903
17188TIP3    H173055   0.400   4.956  13.436  0.4132  0.2677  0.6999
17188TIP3    H273056   0.417   4.911  13.292  2.0272 -1.5789  1.4134
17189TIP3   OH273057   4.561   0.906   3.500  0.4906 -0.1800 -0.1175
17189TIP3    H173058   4.651   0.873   3.507  0.1865 -1.1688 -0.6486
17189TIP3    H273059   4.571   1.000   3.487  1.3895 -0.0537  1.3074
17190TIP3   OH273060   3.162   4.095  14.207  0.4079  0.8982 -0.0473
17190TIP3    H173061   3.221   4.133  14.273  2.1940  1.5979 -1.9308
17190TIP3    H273062   3.203   4.011  14.185 -0.2208  0.6334 -0.2034
17191TIP3   OH273063   4.281   6.578   0.678  0.0014 -0.2063  0.4887
17191TIP3    H173064   4.327   6.662   0.675 -1.8395  0.8284 -0.2316
17191TIP3    H273065   4.233   6.574   0.595 -0.2916 -1.7724  0.7004
17192TIP3   OH273066   1.861   5.778   2.849  0.0282 -0.4678  0.0475
17192TIP3    H173067   1.856   5.872   2.831 -1.2803 -0.5597 -0.1322
17192TIP3    H273068   1.953   5.756   2.835  0.6375  1.0400  1.4036
17193TIP3   OH273069   3.285   0.562   0.718  0.3263 -0.5189  0.0755
17193TIP3    H173070   3.244   0.509   0.787 -1.2735 -0.8409 -1.0859
17193TIP3    H273071   3.360   0.509   0.690 -0.2046 -1.3550  0.1768
17194TIP3   OH273072   1.074   5.683   0.597 -0.0573 -0.0204 -0.6340
17194TIP3    H173073   1.052   5.657   0.686 -0.5638 -0.2390 -0.8215
17194TIP3    H273074   1.159   5.727   0.605 -0.5893  0.9009  0.1117
17195TIP3   OH273075   0.107   4.742   3.501  1.1116  0.0647 -0.0723
17195TIP3    H173076   0.187   4.693   3.481  0.0175 -0.7893 -2.9004
17195TIP3    H273077   0.109   4.817   3.441 -0.2118 -0.0044 -0.2448
17196TIP3   OH273078   6.392   4.850   3.795  0.4393  0.1779  0.3351
17196TIP3    H173079   6.342   4.769   3.809  0.5159  0.1593  0.5106
17196TIP3    H273080   6.468   4.822   3.743  1.0932 -0.0923  1.3863
17197TIP3   OH273081   3.478   5.596   5.160  0.0256 -0.0004 -0.0029
17197TIP3    H173082   3.384   5.588   5.178  0.2091  1.2723  1.8178
17197TIP3    H273083   3.492   5.689   5.145  1.2189  0.0888  1.3832
17198TIP3   OH273084   4.353   2.760  14.108 -0.6928 -0.1207 -1.0392
17198TIP3    H173085   4.429   2.715  14.144 -2.1494 -0.6974  1.5504
17198TIP3    H273086   4.389   2.835  14.061  1.4985 -0.8001 -0.5273
17199TIP3   OH273087   4.380   3.308  11.011 -0.5569  0.4597 -1.3277
17199TIP3    H173088   4.441   3.370  11.051  0.9807 -1.3933 -0.6192
17199TIP3    H273089   4.364   3.343  10.923  0.4587  1.6894 -1.0514
17200TIP3   OH273090   4.936   6.324  11.533 -0.0953 -0.3319  0.4256
17200TIP3    H173091   5.006   6.264  11.560 -1.9244 -2.1515  1.4901
17200TIP3    H273092   4.890   6.345  11.615 -0.2623  1.5604 -0.1148
17201TIP3   OH273093   5.778   5.485   6.046  0.1334 -0.2314  0.2532
17201TIP3    H173094   5.734   5.402   6.030  0.2628 -0.1353 -0.6595
17201TIP3    H273095   5.869   5.461   6.063 -0.2861 -0.4538  2.4415
17202TIP3   OH273096   5.027   0.246   3.418 -0.1334  0.4272  0.6411
17202TIP3    H173097   5.052   0.325   3.466  2.5877  0.7555 -1.1135
17202TIP3    H273098   5.031   0.272   3.326 -1.0283 -1.2873  0.0772
17203TIP3   OH273099   1.026   1.356   1.876  0.2012 -0.0523 -0.2912
17203TIP3    H173100   1.087   1.337   1.946  0.8787 -2.3111 -1.4090
17203TIP3    H273101   0.939   1.345   1.915  0.4463  2.0526  0.9986
17204TIP3   OH273102   4.268   6.004  11.214  0.7510 -0.0603  0.1028
17204TIP3    H173103   4.364   6.007  11.221  0.8432 -0.1017 -0.9986
17204TIP3    H273104   4.249   6.037  11.127 -0.3023  0.6371  0.5699
17205TIP3   OH273105   6.243   0.192  14.928  0.0354 -0.1264  0.6079
17205TIP3    H173106   6.267   0.116  14.874 -0.9706 -0.6216  0.8360
17205TIP3    H273107   6.295   0.264  14.892  0.5805 -0.7945  0.0180
17206TIP3   OH273108   2.707   2.317  14.044 -0.0965 -0.1328 -0.1173
17206TIP3    H173109   2.679   2.354  14.127  0.0225 -1.6313  0.6225
17206TIP3    H273110   2.626   2.289  14.001 -0.0435 -0.8287  0.2280
17207TIP3   OH273111   2.279   4.858   0.073 -0.3497 -0.1143 -0.0993
17207TIP3    H173112   2.333   4.779   0.071  0.0248  0.1531 -0.7666
17207TIP3    H273113   2.296   4.896   0.159 -1.7802 -1.6036  0.9116
17208TIP3   OH273114   3.712   1.968   4.808 -0.0377 -0.8361 -0.6222
17208TIP3    H173115   3.672   1.951   4.893  0.2039 -1.2209 -0.5837
17208TIP3    H273116   3.770   1.893   4.793  1.3357  0.1128 -0.2751
17209TIP3   OH273117   3.368   2.923  11.151 -0.1422 -0.2825  0.2206
17209TIP3    H173118   3.320   2.997  11.113  1.9294  0.5224 -0.9879
17209TIP3    H273119   3.431   2.898  11.084 -1.5146 -4.0211  0.0714
17210TIP3   OH273120   4.845   4.295  11.607  0.8638  0.4889  0.4748
17210TIP3    H173121   4.877   4.240  11.678  1.9909  0.8798  0.2934
17210TIP3    H273122   4.901   4.273  11.533 -0.2887  0.0946 -0.3065
17211TIP3   OH273123   4.544   1.749   2.566  0.1583  0.4373  0.4719
17211TIP3    H173124   4.630   1.731   2.527  0.0031  0.2358  0.2126
17211TIP3    H273125   4.484   1.692   2.518 -0.1686  0.7976  0.4445
17212TIP3   OH273126   2.587   4.036  16.600  0.0014  0.8013  0.1989
17212TIP3    H173127   2.680   4.020  16.617 -0.0933  0.2792  0.2302
17212TIP3    H273128   2.573   4.002  16.511 -0.2434  0.5337  0.3379
17213TIP3   OH273129   4.257   6.613   3.233 -0.3042 -0.1401 -0.4268
17213TIP3    H173130   4.243   6.529   3.278 -4.5933  0.6750  0.1284
17213TIP3    H273131   4.225   6.598   3.144 -1.5593  0.9901 -0.1874
17214TIP3   OH273132   2.715   5.984  14.764 -0.3840  0.1385 -0.0507
17214TIP3    H173133   2.745   5.893  14.757  2.7066  1.1745 -2.7121
17214TIP3    H273134   2.650   5.994  14.694 -0.9089 -0.0510  0.4025
17215TIP3   OH273135   3.761   6.277  11.703 -0.5729 -0.0140 -0.3203
17215TIP3    H173136   3.828   6.248  11.642 -1.5817 -1.1177 -0.9412
17215TIP3    H273137   3.701   6.329  11.650 -1.9630 -1.7462 -0.5371
17216TIP3   OH273138   4.250   3.615  12.411 -0.0643 -0.0836  0.5153
17216TIP3    H173139   4.265   3.533  12.365  0.5850  0.4748 -0.3004
17216TIP3    H273140   4.202   3.590  12.490 -1.4958 -1.0093 -0.6136
17217TIP3   OH273141   1.404   5.641   4.328  0.5684  0.0836  0.5276
17217TIP3    H173142   1.490   5.601   4.339  2.1404  2.9815 -0.1648
17217TIP3    H273143   1.379   5.669   4.416  0.5294 -0.3784  0.6651
17218TIP3   OH273144   0.250   5.882  12.131 -0.3071  0.3643 -0.2152
17218TIP3    H173145   0.196   5.807  12.108 -0.5350  0.4130  0.1406
17218TIP3    H273146   0.195   5.934  12.190 -0.0045  0.5998 -0.1350
17219TIP3   OH273147   2.676   0.714   5.221  0.0490 -0.1665 -0.4386
17219TIP3    H173148   2.694   0.705   5.314 -2.8109  1.8543  0.4619
17219TIP3    H273149   2.751   0.763   5.186  1.0900 -0.8276  0.8027
17220TIP3   OH273150   2.494   1.970   6.039 -0.7787  0.1114 -0.7187
17220TIP3    H173151   2.434   1.897   6.026 -1.8368  0.8115  0.0649
17220TIP3    H273152   2.517   1.967   6.132  0.5393 -0.2323 -1.0371
17221TIP3   OH273153   1.782   0.111  12.921  0.5267 -0.1276  0.3436
17221TIP3    H173154   1.738   0.082  12.841  0.2708 -0.6440  0.6638
17221TIP3    H273155   1.739   0.194  12.943  0.0218 -0.4090  0.4122
17222TIP3   OH273156   4.485   3.239   3.080  0.5292 -0.6400 -0.5324
17222TIP3    H173157   4.478   3.144   3.069  2.3237 -0.8199 -0.3622
17222TIP3    H273158   4.440   3.257   3.162  0.9388 -1.4704 -0.1145
17223TIP3   OH273159   0.603   0.569   0.526 -0.2488 -0.4409  0.6728
17223TIP3    H173160   0.526   0.623   0.544  0.2353 -0.1180  1.8639
17223TIP3    H273161   0.623   0.526   0.609  2.4314  1.5733  1.2329
17224TIP3   OH273162   1.380   6.814  10.814 -1.1729  0.2826 -0.2775
17224TIP3    H173163   1.453   6.753  10.809 -1.2694  0.1968 -0.7300
17224TIP3    H273164   1.312   6.776  10.758 -1.8131  0.0353  0.6533
17225TIP3   OH273165   0.515   2.874  11.408 -0.2076 -0.0934 -0.0897
17225TIP3    H173166   0.440   2.851  11.353  2.5184 -1.4850 -3.6425
17225TIP3    H273167   0.547   2.956  11.372  1.6477 -1.0271 -0.7068
17226TIP3   OH273168   0.841   0.280   4.065 -0.9478  0.0732  0.1545
17226TIP3    H173169   0.810   0.247   4.150  0.1583  0.8604  0.8923
17226TIP3    H273170   0.770   0.258   4.004 -1.6533 -0.7510  1.2181
17227TIP3   OH273171   4.278   6.468   2.450  0.1823  0.4686  0.2226
17227TIP3    H173172   4.269   6.495   2.542 -0.1543  0.2738  0.2474
17227TIP3    H273173   4.338   6.394   2.452 -0.5522 -0.1319  0.3940
17228TIP3   OH273174   1.848   4.931   4.287 -0.1752  0.5649  0.7508
17228TIP3    H173175   1.892   5.016   4.288  0.6517  0.2004 -1.1857
17228TIP3    H273176   1.854   4.901   4.197  2.0657 -2.8507  1.8266
17229TIP3   OH273177   5.174   2.145   2.129  0.4263 -0.9770 -0.0494
17229TIP3    H173178   5.219   2.140   2.213  2.3442 -0.1037 -0.9476
17229TIP3    H273179   5.244   2.141   2.064 -1.0880 -3.0439 -1.7041
17230TIP3   OH273180   0.945   5.162  13.975  0.2569  0.1304 -0.1910
17230TIP3    H173181   0.995   5.089  13.938 -0.3904 -0.5624  0.2780
17230TIP3    H273182   1.001   5.198  14.043  0.8620  0.5118 -0.8754
17231TIP3   OH273183   4.063   4.279  17.063 -0.4540  0.2788 -0.3666
17231TIP3    H173184   3.982   4.280  17.012  0.2650  1.7111 -1.5574
17231TIP3    H273185   4.034   4.276  17.154 -1.7863 -1.4894 -0.8006
17232TIP3   OH273186   4.669   3.562   4.861  0.2029  0.3961 -0.5128
17232TIP3    H173187   4.693   3.482   4.815  0.3093 -0.8196  1.5483
17232TIP3    H273188   4.689   3.544   4.953 -0.6359  2.4663  0.1324
17233TIP3   OH273189   6.463   0.525   2.194  0.5346  0.2575 -0.0442
17233TIP3    H173190   6.496   0.467   2.126  0.6601 -1.1263  1.1280
17233TIP3    H273191   6.504   0.491   2.275 -1.0829  0.6315  0.9698
17234TIP3   OH273192   3.095   4.919   1.882 -0.4150 -0.1370  0.0685
17234TIP3    H173193   3.120   4.933   1.973  1.1185 -0.4066 -0.2855
17234TIP3    H273194   3.164   4.862   1.847 -1.0292 -0.1074 -1.2345
17235TIP3   OH273195   3.901   6.031   0.877  0.0363 -0.0455 -0.3644
17235TIP3    H173196   3.880   6.111   0.925  0.5397  0.8211 -1.5315
17235TIP3    H273197   3.975   5.993   0.925 -1.1228 -0.6448  1.0535
17236TIP3   OH273198   4.663   4.306  12.443 -0.2191  0.0932  0.4474
17236TIP3    H173199   4.681   4.237  12.507  0.6161 -0.7313 -0.6485
17236TIP3    H273200   4.744   4.358  12.440 -0.1879  0.0166 -0.0768
17237TIP3   OH273201   2.648   0.441  11.482  0.0674  0.3810 -0.7049
17237TIP3    H173202   2.651   0.402  11.394  1.4461 -1.8183  0.2401
17237TIP3    H273203   2.728   0.494  11.488 -0.0561  0.5783 -0.7849
17238TIP3   OH273204   2.753   1.724   3.494 -0.0131 -0.1015 -0.1865
17238TIP3    H173205   2.759   1.646   3.549  1.4908  0.8243  1.0990
17238TIP3    H273206   2.668   1.763   3.515  0.4375  0.1085  1.3913
17239TIP3   OH273207   5.287   1.077  15.884  0.0339 -0.5355 -0.2864
17239TIP3    H173208   5.217   1.098  15.946  0.0958 -2.0966  0.3464
17239TIP3    H273209   5.364   1.060  15.939  0.9951  1.2107 -0.9666
17240TIP3   OH273210   4.770   5.873   2.229  0.0359  0.1577  0.0455
17240TIP3    H173211   4.714   5.821   2.287  0.3759  0.6939  0.8809
17240TIP3    H273212   4.855   5.873   2.273  0.3129  0.5300 -0.4918
17241TIP3   OH273213   4.606   3.044   2.740 -0.2093 -0.3253  0.2864
17241TIP3    H173214   4.613   3.119   2.680 -1.4573 -0.6914 -0.3540
17241TIP3    H273215   4.659   3.069   2.816 -0.5792  1.2060  0.0781
17242TIP3   OH273216   0.804   1.704  15.281 -0.1994 -0.0062  0.0566
17242TIP3    H173217   0.710   1.713  15.293 -0.1158  0.9068  0.0741
17242TIP3    H273218   0.816   1.700  15.186 -0.2475 -0.0547  0.0524
17243TIP3   OH273219   1.240   1.190  12.076  0.0116 -0.3287 -0.0928
17243TIP3    H173220   1.289   1.170  11.996 -0.9492 -2.2309 -0.2587
17243TIP3    H273221   1.150   1.201  12.046 -0.1795  0.0192  0.6032
17244TIP3   OH273222   5.369   1.365  14.037 -0.4393  0.7174 -0.4911
17244TIP3    H173223   5.352   1.391  14.128 -0.4031 -0.2432 -0.2063
17244TIP3    H273224   5.292   1.397  13.989 -0.3499  1.4363 -0.1799
17245TIP3   OH273225   1.273   3.781   4.427 -0.5307 -0.2530  0.4955
17245TIP3    H173226   1.270   3.686   4.437  3.2507 -0.3547  2.1800
17245TIP3    H273227   1.321   3.795   4.345 -2.3212  0.2915 -0.5082
17246TIP3   OH273228   4.442   1.124   4.238  0.3967  0.0733  0.2278
17246TIP3    H173229   4.391   1.070   4.299  0.0137  1.2731  0.9928
17246TIP3    H273230   4.407   1.100   4.151 -1.0382  0.3839  0.6815
17247TIP3   OH273231   0.610   1.225   3.961 -0.1973 -0.4630 -0.0231
17247TIP3    H173232   0.564   1.298   3.919  2.5031  0.9607 -0.7264
17247TIP3    H273233   0.627   1.255   4.050 -0.0086 -0.6640  0.0098
17248TIP3   OH273234   3.572   2.126   3.795 -0.1622  0.1465  0.0134
17248TIP3    H173235   3.482   2.093   3.791 -0.0754 -0.2196  0.8710
17248TIP3    H273236   3.570   2.208   3.746 -0.6031 -0.6471 -1.3569
17249TIP3   OH273237   6.190   1.295  15.772 -0.4630 -0.4908  0.2160
17249TIP3    H173238   6.136   1.301  15.693 -0.7135 -0.7738  0.3600
17249TIP3    H273239   6.130   1.315  15.844 -0.4081 -0.9247  0.3876
17250TIP3   OH273240   5.102   1.255   6.885 -0.1528 -0.0714 -0.4138
17250TIP3    H173241   5.026   1.253   6.943 -1.6196  0.3987 -2.2258
17250TIP3    H273242   5.076   1.314   6.814  1.2319 -1.3097 -2.0151
17251TIP3   OH273243   1.096   0.385   0.816  0.0683  0.5008 -0.5479
17251TIP3    H173244   1.103   0.465   0.764  0.4878  0.2310 -0.9132
17251TIP3    H273245   1.048   0.324   0.761  0.7614  0.1215 -0.7368
17252TIP3   OH273246   4.762   2.348   3.342 -0.4318  0.1825  0.0614
17252TIP3    H173247   4.825   2.327   3.410 -1.2426 -0.3063  0.6770
17252TIP3    H273248   4.745   2.442   3.353 -1.2328 -0.0642  1.1434
17253TIP3   OH273249   3.972   0.280  10.947  0.2918  0.0595 -0.5100
17253TIP3    H173250   4.005   0.367  10.927  3.1324 -0.6798  0.5846
17253TIP3    H273251   4.009   0.224  10.879  0.5715 -0.6829  0.2414
17254TIP3   OH273252   1.259   5.481  15.458 -0.7658 -0.4593  0.6818
17254TIP3    H173253   1.204   5.404  15.471  1.5558 -2.3472  0.0761
17254TIP3    H273254   1.243   5.507  15.368 -0.4199 -1.2160  0.3953
17255TIP3   OH273255   5.047   3.421   5.121 -0.3000  0.0248  0.1287
17255TIP3    H173256   4.992   3.498   5.139 -0.2650  0.3686 -1.1479
17255TIP3    H273257   5.121   3.431   5.180 -0.1133  1.1870 -0.2661
17256TIP3   OH273258   4.562   3.491  11.184  0.4759  0.0099  0.1933
17256TIP3    H173259   4.642   3.468  11.231  0.9348 -0.0710 -0.6065
17256TIP3    H273260   4.593   3.530  11.102 -0.2662  2.6523  1.0682
17257TIP3   OH273261   1.184   1.092   0.845  0.2808 -0.2926 -0.0704
17257TIP3    H173262   1.191   1.166   0.906  0.4395  1.5091 -2.1384
17257TIP3    H273263   1.182   1.133   0.759 -0.3052 -2.7104 -1.2852
17258TIP3   OH273264   3.205   4.074   6.291 -0.3009 -0.0794  0.2913
17258TIP3    H173265   3.147   4.078   6.367 -1.3098  3.4070 -0.4974
17258TIP3    H273266   3.292   4.063   6.329 -0.3031  4.7553  2.4614
17259TIP3   OH273267   1.874   0.959   4.017  0.4924 -0.5991 -0.1067
17259TIP3    H173268   1.836   0.912   4.091 -0.7535  0.3200 -0.1237
17259TIP3    H273269   1.829   0.924   3.940  2.3382 -2.1171 -0.5721
17260TIP3   OH273270   0.795   3.774  14.253 -1.0337 -0.3769 -0.1690
17260TIP3    H173271   0.775   3.738  14.340  2.1148  2.1809  1.8547
17260TIP3    H273272   0.836   3.700  14.207 -1.5889 -1.4574  0.9908
17261TIP3   OH273273   0.461   6.613  14.073 -0.1733 -0.0633 -0.5393
17261TIP3    H173274   0.457   6.641  14.165  1.1917  0.8284 -0.7095
17261TIP3    H273275   0.444   6.519  14.075 -0.8577  0.0708  0.5423
17262TIP3   OH273276   4.502   6.529  13.484 -0.1865  0.5242 -0.1102
17262TIP3    H173277   4.456   6.453  13.450 -2.8930  1.6414  0.7585
17262TIP3    H273278   4.575   6.543  13.424  0.3845 -2.6475 -0.3199
17263TIP3   OH273279   2.422   1.265  11.786 -0.0499 -0.0179  0.2142
17263TIP3    H173280   2.401   1.172  11.787  0.2311 -0.2020 -2.5572
17263TIP3    H273281   2.518   1.268  11.781 -0.0196  0.4420  0.9813
17264TIP3   OH273282   5.420   3.875  13.234 -0.2402 -0.3682  0.0972
17264TIP3    H173283   5.421   3.838  13.322 -3.0231 -0.2852  0.2283
17264TIP3    H273284   5.398   3.967  13.246  1.0279  0.0649 -0.6293
17265TIP3   OH273285   0.751   5.329  13.851 -0.3690 -0.5853 -0.2049
17265TIP3    H173286   0.796   5.397  13.900  1.6060 -1.5980 -0.5160
17265TIP3    H273287   0.814   5.257  13.846 -2.4616 -2.5633  0.3391
17266TIP3   OH273288   6.566   4.082   3.111  0.1268  0.1236 -0.1027
17266TIP3    H173289   6.490   4.072   3.053  0.3511 -1.2373 -0.1973
17266TIP3    H273290   6.641   4.072   3.052  0.3603 -0.1831  0.2439
17267TIP3   OH273291   6.375   5.132   6.412 -0.1278 -0.1816 -0.6899
17267TIP3    H173292   6.391   5.225   6.396 -0.9564  0.0889 -0.0072
17267TIP3    H273293   6.462   5.093   6.421  0.1988  0.9142  1.1499
17268TIP3   OH273294   1.139   2.160   4.616 -0.0829  0.0111 -0.3582
17268TIP3    H173295   1.133   2.186   4.524 -1.0240  1.1235 -0.0060
17268TIP3    H273296   1.228   2.125   4.625 -0.2083 -0.7667 -1.8334
17269TIP3   OH273297   0.946   1.080   5.375  0.5052  0.3542 -0.2754
17269TIP3    H173298   0.992   1.125   5.304 -0.8670  0.2506 -1.2525
17269TIP3    H273299   0.899   1.150   5.421  0.5308  0.2783 -0.1346
17270TIP3   OH273300   3.034   3.842   4.514 -0.1102  0.1963 -0.1015
17270TIP3    H173301   2.992   3.917   4.555  0.7307  0.1283  0.9061
17270TIP3    H273302   3.076   3.878   4.436  1.0180  0.9571  0.8316
17271TIP3   OH273303   0.065   2.226  16.709 -0.3582  0.1252 -0.0536
17271TIP3    H173304   0.143   2.183  16.677  0.0614 -0.1732  1.2872
17271TIP3    H273305   0.073   2.317  16.680 -0.0578 -0.1480 -0.8349
17272TIP3   OH273306   0.238   2.180   4.305 -0.0989 -0.9163  0.2904
17272TIP3    H173307   0.263   2.089   4.289 -1.1087 -1.3105  0.8893
17272TIP3    H273308   0.165   2.175   4.366 -0.3078  0.2945  0.1674
17273TIP3   OH273309   1.556   0.201  16.914 -0.4971 -0.0672  0.3171
17273TIP3    H173310   1.556   0.194  16.819 -0.7835  0.8292  0.2376
17273TIP3    H273311   1.467   0.180  16.940 -0.9272  1.5282  0.2131
17274TIP3   OH273312   2.173   1.631  16.848 -0.3371 -0.0884 -0.0610
17274TIP3    H173313   2.111   1.655  16.916 -0.3186 -1.3313  0.4319
17274TIP3    H273314   2.180   1.708  16.793 -0.3408  0.9579  1.3520
17275TIP3   OH273315   0.011   2.667  16.089 -0.4996  0.1255 -0.0111
17275TIP3    H173316   0.100   2.697  16.067  0.5740 -2.4634  0.4870
17275TIP3    H273317  -0.040   2.748  16.097  2.0765  1.7835  0.9307
17276TIP3   OH273318   3.838   6.172  11.978 -1.1398  0.2179 -0.2397
17276TIP3    H173319   3.886   6.229  12.037  0.1822 -0.0196 -1.0467
17276TIP3    H273320   3.815   6.228  11.904 -1.9547  0.2825  0.0552
17277TIP3   OH273321   3.571   2.191  16.724  0.5058 -0.6214 -0.2139
17277TIP3    H173322   3.589   2.223  16.812 -1.7190  0.6503 -0.1579
17277TIP3    H273323   3.566   2.096  16.734 -0.1968 -0.4651  1.1504
17278TIP3   OH273324   0.654   3.803   0.008  0.2103 -0.1143 -0.8639
17278TIP3    H173325   0.640   3.726   0.064 -1.3745  1.4500  1.0324
17278TIP3    H273326   0.597   3.789  -0.067 -0.5008 -0.5463 -0.2568
17279TIP3   OH273327   5.508   5.095   1.024  0.9821  0.6559  0.6010
17279TIP3    H173328   5.566   5.061   1.092  2.4384 -1.3047 -1.4819
17279TIP3    H273329   5.560   5.162   0.979  1.3325 -0.4224 -0.6566
17280TIP3   OH273330   2.032   5.124   4.948  0.3550  0.2333 -0.0258
17280TIP3    H173331   2.001   5.210   4.919  0.8722  1.0492  1.7319
17280TIP3    H273332   2.091   5.143   5.020  0.8369 -1.5953  0.1010
17281TIP3   OH273333   5.958   6.259   3.681 -0.0730  0.0546 -0.3955
17281TIP3    H173334   5.981   6.190   3.743  0.9335 -0.1034 -0.9316
17281TIP3    H273335   5.996   6.338   3.718  1.8429 -0.2899 -1.5284
17282TIP3   OH273336   1.749   2.809  12.485 -0.0777  0.2481  0.3226
17282TIP3    H173337   1.843   2.826  12.485  0.1028 -0.5250 -1.5913
17282TIP3    H273338   1.714   2.864  12.415 -1.3021  1.4949  1.8188
17283TIP3   OH273339   5.057   3.216   3.014  0.0436 -0.3918 -0.0905
17283TIP3    H173340   5.071   3.147   2.949 -0.3883 -0.5715  0.0048
17283TIP3    H273341   5.076   3.297   2.968  1.2079 -0.6066 -0.0288
17284TIP3   OH273342   1.867   5.522   0.308 -0.1002  0.1051 -0.1844
17284TIP3    H173343   1.801   5.572   0.260 -0.7059 -0.8149 -0.3341
17284TIP3    H273344   1.854   5.432   0.279  0.4313 -0.2648  0.6891
17285TIP3   OH273345   5.634   4.330   1.991 -0.5105 -0.3547  0.3847
17285TIP3    H173346   5.662   4.247   1.952  0.5681  1.0174 -1.9794
17285TIP3    H273347   5.703   4.351   2.054 -0.8882 -1.2943  1.1450
17286TIP3   OH273348   0.216   6.499  13.264  0.7131  0.1850  0.0159
17286TIP3    H173349   0.289   6.532  13.211  1.9883  2.2918  2.8484
17286TIP3    H273350   0.258   6.458  13.340 -1.0684 -1.7747  0.0449
17287TIP3   OH273351   0.810   4.758   5.505 -0.4741  0.7284 -0.1972
17287TIP3    H173352   0.776   4.747   5.416 -0.7509  2.1902 -0.3057
17287TIP3    H273353   0.764   4.835   5.539  0.3508  0.7864  0.8560
17288TIP3   OH273354   4.861   0.848   4.630 -0.3409  0.1912 -0.0312
17288TIP3    H173355   4.940   0.796   4.622  1.3311  2.6587 -0.8872
17288TIP3    H273356   4.855   0.869   4.723 -0.2027 -0.3102  0.0931
17289TIP3   OH273357   2.627   6.739  14.494 -0.4728  0.3290 -0.3260
17289TIP3    H173358   2.582   6.664  14.455 -2.7856  0.6264  1.5595
17289TIP3    H273359   2.613   6.810  14.431 -1.2481 -0.0141 -0.5573
17290TIP3   OH273360   4.347   6.234   3.598  0.5301 -0.2243 -0.1022
17290TIP3    H173361   4.416   6.191   3.649  1.1038 -0.0918 -0.7508
17290TIP3    H273362   4.286   6.164   3.575  0.6836 -0.4226  0.0972
17291TIP3   OH273363   0.944   4.134  15.126 -0.5049  0.3312  0.8737
17291TIP3    H173364   0.871   4.140  15.187  0.4010  0.5001  1.9647
17291TIP3    H273365   0.932   4.050  15.082 -1.0308  0.0871  1.4731
17292TIP3   OH273366   1.713   5.643   1.196 -0.0601  0.0132 -0.1264
17292TIP3    H173367   1.663   5.685   1.125  2.4420 -0.6594 -2.4576
17292TIP3    H273368   1.795   5.692   1.199  0.2273 -0.5183  1.7901
17293TIP3   OH273369   2.711   6.823  14.778 -0.0369  0.0649  0.0902
17293TIP3    H173370   2.766   6.892  14.814 -0.6233  0.8368 -0.4657
17293TIP3    H273371   2.702   6.845  14.686 -1.1384 -0.1413  0.1383
17294TIP3   OH273372   4.009   2.270  17.022  0.4238  0.2402 -0.2964
17294TIP3    H173373   4.003   2.327  17.098  0.0333  0.0971 -0.2162
17294TIP3    H273374   3.937   2.208  17.033 -0.0804  0.6580 -1.1478
17295TIP3   OH273375   6.566   2.677  14.724  0.7874  0.2406  0.0858
17295TIP3    H173376   6.541   2.604  14.668  1.7639 -1.3359  1.6136
17295TIP3    H273377   6.514   2.666  14.803  0.8509  1.2982  0.2968
17296TIP3   OH273378   0.062   0.699  14.859 -0.5343  0.4954  0.8076
17296TIP3    H173379  -0.025   0.741  14.853 -0.3609  0.7043 -0.7270
17296TIP3    H273380   0.043   0.611  14.890 -1.3054  0.5641  0.5791
17297TIP3   OH273381   5.716   2.255   4.062 -0.1827  0.2849  0.1046
17297TIP3    H173382   5.696   2.170   4.099  0.6656  0.3868  0.8425
17297TIP3    H273383   5.796   2.240   4.011 -0.2468  0.5590 -0.0784
17298TIP3   OH273384   5.568   4.155   4.647 -0.0747  0.9790  0.4667
17298TIP3    H173385   5.475   4.175   4.648 -0.0528  1.0630  1.1848
17298TIP3    H273386   5.585   4.121   4.559 -0.9997 -0.0943  0.6963
17299TIP3   OH273387   0.595   3.523  16.406  0.3581  0.0491 -0.3094
17299TIP3    H173388   0.573   3.576  16.330  3.6079 -0.6014 -1.8800
17299TIP3    H273389   0.680   3.555  16.435  0.6232 -1.7451  1.1397
17300TIP3   OH273390   4.094   0.038  11.692  0.2805  0.5147  0.1872
17300TIP3    H173391   4.072  -0.055  11.694  0.1250  0.5472  0.0047
17300TIP3    H273392   4.188   0.041  11.711  0.4178  0.2787 -0.4439
17301TIP3   OH273393   3.178   2.812   5.494  0.1735  0.8962  0.6826
17301TIP3    H173394   3.089   2.816   5.459  0.1633  0.9475  0.7154
17301TIP3    H273395   3.218   2.739   5.447  0.3929  1.4301  0.0339
17302TIP3   OH273396   1.535   5.459   3.061 -0.3839  0.4094  0.1874
17302TIP3    H173397   1.451   5.499   3.039 -0.3458 -0.3403 -1.4700
17302TIP3    H273398   1.600   5.524   3.036 -0.4260  1.1201  1.7596
17303TIP3   OH273399   1.783   2.509   4.298  0.0131 -0.7496  0.2918
17303TIP3    H173400   1.728   2.575   4.340 -0.6850  0.1826 -1.9109
17303TIP3    H273401   1.865   2.511   4.346 -0.1805  1.3675  0.6310
17304TIP3   OH273402   6.422   4.829   3.209 -0.5241 -0.4176 -0.0257
17304TIP3    H173403   6.515   4.812   3.222 -0.8835 -2.9207 -0.3067
17304TIP3    H273404   6.418   4.882   3.129  0.5961 -1.1823 -0.6029
17305TIP3   OH273405   0.155   0.225   1.562  0.5888 -0.0803  0.0938
17305TIP3    H173406   0.068   0.254   1.533  1.3278  1.1407 -1.0273
17305TIP3    H273407   0.176   0.281   1.636  1.5653  1.6361 -1.4042
17306TIP3   OH273408   4.418   3.634   1.405  0.3548  0.1747 -0.2471
17306TIP3    H173409   4.398   3.576   1.478 -1.8351  1.0495 -0.0704
17306TIP3    H273410   4.399   3.582   1.327 -2.3488  0.7614 -0.0871
17307TIP3   OH273411   1.360   3.390  12.265 -0.3969 -0.5495  0.4674
17307TIP3    H173412   1.363   3.311  12.319 -0.8123 -0.9542 -0.0773
17307TIP3    H273413   1.411   3.367  12.187 -0.4111 -0.2332  0.3649
17308TIP3   OH273414   3.074   2.987  14.457  0.7275  0.1294 -0.0992
17308TIP3    H173415   3.074   3.004  14.552 -0.8067 -1.2473  0.2053
17308TIP3    H273416   3.034   3.065  14.419  1.9272  0.9660  0.3024
17309TIP3   OH273417   6.002   3.665   1.141  0.7891  0.5090  0.1880
17309TIP3    H173418   6.075   3.707   1.187  1.0975  0.3876 -0.1925
17309TIP3    H273419   6.043   3.615   1.071  0.3799  0.0187  0.2927
17310TIP3   OH273420   4.240   0.236   3.524  0.4913 -0.7236 -0.0740
17310TIP3    H173421   4.243   0.153   3.477  1.3801 -0.4949 -0.4427
17310TIP3    H273422   4.231   0.211   3.616 -1.1577 -1.1755 -0.3267
17311TIP3   OH273423   6.321   3.339   3.186  0.4005 -0.4788  0.0900
17311TIP3    H173424   6.331   3.434   3.180  3.0757 -0.5210  2.0293
17311TIP3    H273425   6.373   3.305   3.114  1.1653 -0.4406  0.6007
17312TIP3   OH273426   5.504   6.557  11.044 -0.4408 -0.0373 -0.5497
17312TIP3    H173427   5.454   6.476  11.049  0.8368 -0.8425 -0.2692
17312TIP3    H273428   5.512   6.575  10.951  0.7001 -1.1925 -0.7057
17313TIP3   OH273429   3.246   3.797  14.490  0.6466  0.3281 -0.0911
17313TIP3    H173430   3.257   3.819  14.582 -0.0925  0.4301 -0.0185
17313TIP3    H273431   3.190   3.719  14.490  0.6804  0.3001 -0.4513
17314TIP3   OH273432   2.247   4.919   4.636  0.3191 -0.6577  0.4362
17314TIP3    H173433   2.168   4.967   4.661  0.8491 -0.3395  1.5498
17314TIP3    H273434   2.242   4.914   4.541  0.6895  2.4327  0.1434
17315TIP3   OH273435   0.971   5.934   1.394 -0.1665 -0.4526  0.5550
17315TIP3    H173436   0.971   5.936   1.490 -2.2036  0.1708  0.5804
17315TIP3    H273437   0.967   6.026   1.367 -2.0895 -0.6811 -0.0555
17316TIP3   OH273438   0.477   3.414  15.039  0.5207  0.6323 -0.3380
17316TIP3    H173439   0.564   3.450  15.022  0.4081  1.8337  1.3431
17316TIP3    H273440   0.480   3.385  15.130 -0.3595 -0.8573 -0.7497
17317TIP3   OH273441   3.655   6.360   5.421  0.0752 -0.2371 -0.3656
17317TIP3    H173442   3.675   6.414   5.345 -1.3794 -0.3108 -0.8304
17317TIP3    H273443   3.566   6.329   5.406 -0.7181  0.7003  1.8997
17318TIP3   OH273444   2.154   1.602  14.509 -0.2342  0.2746  0.9655
17318TIP3    H173445   2.181   1.652  14.433 -1.7180 -1.8144 -1.0794
17318TIP3    H273446   2.066   1.634  14.528 -0.5430 -0.3949  0.6851
17319TIP3   OH273447   2.038   2.328   1.769 -0.3230  0.1345  0.1745
17319TIP3    H173448   2.000   2.303   1.684 -0.2335 -2.4048  0.7803
17319TIP3    H273449   2.015   2.255   1.827  3.5794 -0.5218  1.1324
17320TIP3   OH273450   4.328   1.556   3.333  0.0292  0.4256 -0.0789
17320TIP3    H173451   4.320   1.644   3.298  0.1117  0.3361 -0.3273
17320TIP3    H273452   4.422   1.539   3.334  0.0153  0.3492 -0.0071
17321TIP3   OH273453   2.684   1.247  11.787 -0.0702 -0.3375  0.0363
17321TIP3    H173454   2.708   1.156  11.806  1.7695 -0.2767 -1.7575
17321TIP3    H273455   2.758   1.283  11.739 -1.3657  1.7006 -0.5822
17322TIP3   OH273456   1.197   3.942   1.412 -0.1177  0.2892 -0.2909
17322TIP3    H173457   1.129   3.881   1.384 -0.0366 -0.2297  0.6290
17322TIP3    H273458   1.181   4.021   1.359 -2.6188  0.8846  1.1986
17323TIP3   OH273459   5.710   6.297  15.009  0.1784  0.0053  0.1012
17323TIP3    H173460   5.734   6.321  15.098 -0.2348  0.0304  0.2067
17323TIP3    H273461   5.685   6.204  15.014 -1.4325  0.4128  0.3449
17324TIP3   OH273462   1.527   3.587  11.991 -0.3128  0.3076  0.2050
17324TIP3    H173463   1.618   3.570  12.013  0.0348 -0.4167 -1.6703
17324TIP3    H273464   1.490   3.501  11.973 -0.9538  0.7301 -0.5454
17325TIP3   OH273465   5.131   3.222  14.621  0.0149  0.1403  0.0896
17325TIP3    H173466   5.082   3.198  14.700  1.2655 -0.2959  0.7767
17325TIP3    H273467   5.175   3.304  14.644 -1.7672  1.5101 -1.1581
17326TIP3   OH273468   4.655   0.954   0.629  0.5868  0.1370 -0.5965
17326TIP3    H173469   4.662   0.922   0.539 -1.6052 -0.4376 -0.6099
17326TIP3    H273470   4.718   1.025   0.634  2.4753 -1.3324 -1.8731
17327TIP3   OH273471   0.051   6.772  12.989  0.4928 -0.0605  0.3384
17327TIP3    H173472   0.132   6.799  12.945  0.1377  0.7744  0.1716
17327TIP3    H273473   0.074   6.764  13.081  0.4485  1.5832  0.5141
17328TIP3   OH273474   4.627   6.723   5.276 -0.5915  0.6495  0.5699
17328TIP3    H173475   4.595   6.636   5.255  0.4490  0.1549  0.9449
17328TIP3    H273476   4.602   6.736   5.368 -1.6591  1.1935  0.2254
17329TIP3   OH273477   5.057   4.397   3.162  0.0485 -0.1333  0.5787
17329TIP3    H173478   4.986   4.340   3.132 -0.4993  0.4190  0.8000
17329TIP3    H273479   5.081   4.449   3.085 -1.3798  1.3091  1.0483
17330TIP3   OH273480   1.263   1.758   4.087  0.0072 -0.5312 -0.2128
17330TIP3    H173481   1.305   1.834   4.046  0.7635 -1.3849 -1.0660
17330TIP3    H273482   1.255   1.694   4.016 -1.0961 -1.0651  0.3735
17331TIP3   OH273483   0.305   6.073   5.911 -0.1240 -0.0427  0.2929
17331TIP3    H173484   0.342   6.090   5.997  0.1679 -0.0139  0.1600
17331TIP3    H273485   0.285   5.979   5.911 -0.0523 -0.0574  0.3621
17332TIP3   OH273486   0.451   0.959  12.874 -0.0479 -0.2419 -0.0722
17332TIP3    H173487   0.393   0.924  12.942  0.3672 -1.3861 -0.2886
17332TIP3    H273488   0.424   1.051  12.865 -1.9750 -0.7923 -0.3400
17333TIP3   OH273489   0.344   4.070   0.054  0.1681 -0.3690 -0.1323
17333TIP3    H173490   0.312   4.103  -0.030 -0.4318 -1.4751 -0.3540
17333TIP3    H273491   0.272   4.086   0.115  0.1104 -0.7184 -0.1093
17334TIP3   OH273492   2.699   6.555  15.474  0.1476  0.1197  0.4002
17334TIP3    H173493   2.663   6.511  15.551  1.1211 -1.4212  0.0298
17334TIP3    H273494   2.630   6.546  15.407  0.1141 -0.3526  0.4950
17335TIP3   OH273495   6.573   5.372  16.373  0.6633  0.4082 -0.0901
17335TIP3    H173496   6.658   5.396  16.409 -0.2247  0.8087  1.8632
17335TIP3    H273497   6.549   5.447  16.318  2.3609 -0.5266 -2.2475
17336TIP3   OH273498   1.048   3.080  13.877 -0.5570 -0.0946 -0.1118
17336TIP3    H173499   1.093   3.086  13.961 -0.0849 -1.1130 -0.2836
17336TIP3    H273500   0.987   3.154  13.878 -1.1098 -0.5199  1.4403
17337TIP3   OH273501   1.066   4.656   4.196 -0.1293  0.0011 -0.6900
17337TIP3    H173502   1.152   4.631   4.163  0.2362 -0.3818  0.5039
17337TIP3    H273503   1.004   4.607   4.140  0.4040  0.3302 -1.5957
17338TIP3   OH273504   0.192   4.402  12.193 -0.3389  0.5327  0.0036
17338TIP3    H173505   0.165   4.418  12.103  1.9857  2.1061 -0.5294
17338TIP3    H273506   0.257   4.332  12.186 -0.6638  0.1708  0.5603
17339TIP3   OH273507   6.238   4.839   1.224  0.2266  0.1300  0.0369
17339TIP3    H173508   6.148   4.821   1.198 -0.2245 -0.0477  1.6057
17339TIP3    H273509   6.237   4.929   1.255  1.0713  0.8219 -1.8268
17340TIP3   OH273510   2.427   0.273  14.960  0.6671 -0.3340 -0.1434
17340TIP3    H173511   2.441   0.181  14.939  0.2007 -0.7956  1.3978
17340TIP3    H273512   2.338   0.291  14.929  0.2577 -0.7941  0.7264
17341TIP3   OH273513   0.130   6.535  11.731  0.4788  0.1508 -0.0500
17341TIP3    H173514   0.187   6.572  11.799  0.2738  1.3561 -0.5198
17341TIP3    H273515   0.049   6.513  11.778  0.8894 -0.4822  0.3895
17342TIP3   OH273516   4.460   3.213   0.798  0.5237 -0.4631  0.8138
17342TIP3    H173517   4.537   3.234   0.851 -0.4409 -1.8013  2.8594
17342TIP3    H273518   4.470   3.120   0.777  0.7526 -0.0344 -1.2461
17343TIP3   OH273519   5.239   3.460   2.993 -0.2342  0.2805  0.3352
17343TIP3    H173520   5.229   3.494   3.082  3.3359  1.8294  0.3349
17343TIP3    H273521   5.215   3.534   2.936  1.7598  0.8699  0.1915
17344TIP3   OH273522   5.643   1.045   4.343  0.1771 -0.2282  0.3884
17344TIP3    H173523   5.646   0.949   4.351  1.0691 -0.3790 -1.2468
17344TIP3    H273524   5.710   1.076   4.405  1.6990 -0.8477 -0.8816
17345TIP3   OH273525   6.217   4.668   0.163  0.2155 -0.1134 -0.4714
17345TIP3    H173526   6.265   4.714   0.232 -0.1520 -2.2178  1.3047
17345TIP3    H273527   6.281   4.657   0.093  2.3382 -2.4075  1.6224
17346TIP3   OH273528   0.864   1.927  14.737 -0.4568  0.1269 -0.7824
17346TIP3    H173529   0.769   1.920  14.725 -0.7163 -0.1348  1.0438
17346TIP3    H273530   0.901   1.898  14.654 -1.9727 -0.3129 -1.3386
17347TIP3   OH273531   4.420   0.861  12.686 -0.1962  0.1375 -0.4186
17347TIP3    H173532   4.375   0.928  12.635 -0.9277 -0.2273 -0.2754
17347TIP3    H273533   4.390   0.778  12.648 -0.7283 -0.1392  0.5629
17348TIP3   OH273534   0.696   0.443   0.030  0.1561  0.4106  0.1771
17348TIP3    H173535   0.685   0.531  -0.004 -0.5165 -0.2625 -1.4327
17348TIP3    H273536   0.633   0.437   0.102  0.7735  1.4688  0.8402
17349TIP3   OH273537   5.215   3.587   1.368 -0.0975 -0.1877 -0.5558
17349TIP3    H173538   5.122   3.596   1.347  0.1035 -0.9033 -1.8925
17349TIP3    H273539   5.259   3.586   1.283  0.7654 -3.6382 -0.2512
17350TIP3   OH273540   5.510   3.240   1.265  0.0829 -0.8435  0.0130
17350TIP3    H173541   5.422   3.250   1.229 -0.0166  1.5779  0.7298
17350TIP3    H273542   5.520   3.315   1.325  3.3547  0.2088 -1.6014
17351TIP3   OH273543   1.684   6.705   5.888 -0.0408  0.0578  0.2124
17351TIP3    H173544   1.607   6.670   5.842  0.8646 -0.8695 -0.6738
17351TIP3    H273545   1.726   6.628   5.926  1.1651  0.3599 -0.4532
17352TIP3   OH273546   1.936   4.587  13.806  0.5284  0.0825  0.0626
17352TIP3    H173547   1.864   4.562  13.864  0.5555  0.4340  0.2476
17352TIP3    H273548   1.944   4.513  13.745  0.7409 -0.4526  0.7272
17353TIP3   OH273549   3.988   5.219  11.926 -0.1259 -0.0932  0.0198
17353TIP3    H173550   3.974   5.281  11.855 -1.7961  0.3033  0.6511
17353TIP3    H273551   4.082   5.198  11.921  0.2825  1.7050 -0.8311
17354TIP3   OH273552   3.556   6.391   1.017  0.2418  0.2437  0.4094
17354TIP3    H173553   3.639   6.362   1.055  1.0001  3.0275  1.1189
17354TIP3    H273554   3.491   6.329   1.050  1.5405 -0.0030  2.6718
17355TIP3   OH273555   5.893   4.576   4.054  0.3453 -0.3051  0.1604
17355TIP3    H173556   5.956   4.517   4.096  2.0279  1.2924  0.0732
17355TIP3    H273557   5.900   4.657   4.106 -2.2521 -0.2822  0.6077
17356TIP3   OH273558   1.575   4.808   2.826 -0.5134  0.2996 -0.0780
17356TIP3    H173559   1.594   4.812   2.733  0.8811 -0.8507  0.1127
17356TIP3    H273560   1.654   4.769   2.865 -1.0573  0.7394  1.5813
17357TIP3   OH273561   5.412   1.522   1.335 -0.2814 -0.2181  0.2157
17357TIP3    H173562   5.335   1.490   1.290  0.5086 -1.0954 -0.5603
17357TIP3    H273563   5.440   1.449   1.390 -0.0430  0.1134  0.5403
17358TIP3   OH273564   2.046   5.598  13.967 -0.3438 -0.5410  0.6658
17358TIP3    H173565   2.019   5.554  13.886  0.1509 -2.3079  1.4136
17358TIP3    H273566   2.114   5.542  14.003  1.0307  1.3688  1.2061
17359TIP3   OH273567   6.309   4.019   3.026 -0.5852  0.1759  0.0549
17359TIP3    H173568   6.225   4.063   3.016  0.0721  1.3758 -0.3632
17359TIP3    H273569   6.319   3.969   2.945 -0.2674  1.1672 -0.5368
17360TIP3   OH273570   0.229   4.070  13.820  0.3979 -0.1425  0.3423
17360TIP3    H173571   0.235   3.989  13.870  2.5766 -0.4762 -0.3613
17360TIP3    H273572   0.320   4.096  13.805 -0.1811  3.2095  1.7320
17361TIP3   OH273573   5.569   5.216   4.335  0.5039  0.4990  0.3420
17361TIP3    H173574   5.577   5.289   4.396  1.3224 -0.3282  1.2668
17361TIP3    H273575   5.478   5.187   4.344  0.4819  0.7015  0.8103
17362TIP3   OH273576   4.456   2.479   1.447 -0.1206 -0.1141 -0.7580
17362TIP3    H173577   4.403   2.499   1.370 -1.6405  1.0676  0.5275
17362TIP3    H273578   4.470   2.384   1.443 -0.9197 -0.1979 -1.9941
17363TIP3   OH273579   6.620   6.263  17.148 -0.6454 -0.7570 -0.1526
17363TIP3    H173580   6.547   6.262  17.210  0.6160 -0.5077  1.3735
17363TIP3    H273581   6.595   6.198  17.082 -1.8061 -1.3808  0.8487
17364TIP3   OH273582   0.359   3.236   1.346 -0.0006  0.0875  0.3177
17364TIP3    H173583   0.269   3.229   1.313 -0.1552 -0.2678  0.8038
17364TIP3    H273584   0.414   3.203   1.275 -0.3333 -0.7108  0.4289
17365TIP3   OH273585   4.954   4.876   2.502 -0.1202  0.2915  0.0459
17365TIP3    H173586   4.883   4.843   2.446  1.3670 -1.2331 -1.0645
17365TIP3    H273587   5.030   4.880   2.444  1.1676 -0.0150  1.6433
17366TIP3   OH273588   1.937   2.494  15.407 -0.2791 -0.6382 -0.4354
17366TIP3    H173589   1.995   2.556  15.361 -0.6805 -0.1669 -0.3154
17366TIP3    H273590   1.849   2.520  15.381 -0.4648 -0.9973 -0.1702
17367TIP3   OH273591   3.096   6.314   1.862  0.0858 -0.0426 -0.4508
17367TIP3    H173592   3.179   6.286   1.900  0.8669  1.6153 -0.8337
17367TIP3    H273593   3.112   6.317   1.768 -0.3386  0.5139 -0.5096
17368TIP3   OH273594   3.198   6.065  16.634 -0.1474  1.0885  0.0279
17368TIP3    H173595   3.156   6.036  16.553  1.0008 -2.3240  0.5127
17368TIP3    H273596   3.134   6.046  16.703  0.5101 -0.0925  0.3285
17369TIP3   OH273597   1.496   5.686  14.194  0.7042 -0.5509  0.2946
17369TIP3    H173598   1.401   5.693  14.182  0.8190 -0.9705 -0.9986
17369TIP3    H273599   1.520   5.765  14.243 -0.1544  0.1668 -0.4086
17370TIP3   OH273600   5.899   1.922  11.940 -0.5761  0.3911  0.1078
17370TIP3    H173601   5.811   1.890  11.923 -0.5489  0.4384 -0.1301
17370TIP3    H273602   5.928   1.874  12.017 -0.8756  0.5037  0.2917
17371TIP3   OH273603   6.461   3.797  15.399 -0.3608 -0.2227  0.0500
17371TIP3    H173604   6.526   3.794  15.469  0.0440 -0.9843 -0.3454
17371TIP3    H273605   6.502   3.750  15.326  0.0515  2.1880 -1.4022
17372TIP3   OH273606   1.668   0.445  16.335 -0.2035  0.2926 -0.0734
17372TIP3    H173607   1.756   0.477  16.315 -0.7828 -0.2779 -4.8200
17372TIP3    H273608   1.677   0.350  16.336 -0.6372  0.2506  0.4370
17373TIP3   OH273609   4.117   5.199   5.221 -0.2450 -0.0838  0.6926
17373TIP3    H173610   4.029   5.217   5.187 -0.7604 -0.7897  1.6109
17373TIP3    H273611   4.102   5.152   5.302  0.9491  1.3442  1.8067
17374TIP3   OH273612   6.535   2.192  15.462  0.0348 -0.4720 -0.5466
17374TIP3    H173613   6.617   2.226  15.499  0.7474 -0.9676 -1.6025
17374TIP3    H273614   6.476   2.267  15.460 -0.4473 -0.6442  2.5553
17375TIP3   OH273615   6.585   2.302  15.115 -0.5556 -0.4468 -0.4342
17375TIP3    H173616   6.503   2.336  15.150 -0.5054 -1.3041  0.5454
17375TIP3    H273617   6.606   2.227  15.170  0.9599 -0.1640 -0.5784
17376TIP3   OH273618   5.939   5.202   2.110  0.0864 -0.5327  0.0693
17376TIP3    H173619   5.881   5.126   2.106 -0.3377 -0.1679 -1.1848
17376TIP3    H273620   6.012   5.173   2.165  0.3900 -2.1836 -1.1141
17377TIP3   OH273621   6.699   1.259  11.074 -0.0073  0.0331  0.2548
17377TIP3    H173622   6.777   1.314  11.077  0.4032 -0.5155 -0.2530
17377TIP3    H273623   6.640   1.304  11.013  0.4515 -0.2422 -0.4004
17378TIP3   OH273624   5.110   2.580  11.448 -0.0195  0.0911  0.4767
17378TIP3    H173625   5.177   2.554  11.384 -0.8685 -2.8953  0.6195
17378TIP3    H273626   5.027   2.553  11.408 -0.9842  1.9112  1.1406
17379TIP3   OH273627   2.630   4.275   1.470  0.6810  0.7982 -0.0316
17379TIP3    H173628   2.621   4.193   1.421 -0.7577  0.6386  0.4387
17379TIP3    H273629   2.701   4.259   1.532  0.5157 -0.0361 -0.0498
17380TIP3   OH273630   3.219   1.372   2.266  0.4099  0.3389  0.2892
17380TIP3    H173631   3.302   1.382   2.313  1.0804 -0.6814 -0.6285
17380TIP3    H273632   3.218   1.281   2.238 -0.9977  0.3573  0.2159
17381TIP3   OH273633   3.899   3.126   6.132 -0.1114  0.4863 -0.5446
17381TIP3    H173634   3.946   3.053   6.092  1.1001 -0.6173  2.5474
17381TIP3    H273635   3.946   3.142   6.214 -2.9285  1.8486  0.9591
17382TIP3   OH273636   0.959   6.569   3.807  0.1884  0.1549  0.0780
17382TIP3    H173637   0.956   6.537   3.717 -4.0214  3.2012 -1.2098
17382TIP3    H273638   0.903   6.509   3.857  2.0974 -1.2295  0.6354
17383TIP3   OH273639   1.722   0.586  11.315 -0.3206  0.5000 -0.0083
17383TIP3    H173640   1.717   0.492  11.334 -0.7809  0.9837  2.6367
17383TIP3    H273641   1.745   0.590  11.222  0.3557 -2.2212 -0.0569
17384TIP3   OH273642   0.935   6.039   5.231  0.2769  0.4583 -0.5030
17384TIP3    H173643   0.940   5.986   5.311 -1.1237 -1.4764 -1.6047
17384TIP3    H273644   1.019   6.022   5.187 -0.6503 -2.0991 -1.4860
17385TIP3   OH273645   3.914   2.847   6.166  0.2182 -0.4000  0.0126
17385TIP3    H173646   3.940   2.836   6.075  3.3417  1.7380  0.4925
17385TIP3    H273647   3.973   2.790   6.215 -0.6417 -0.6409  0.8089
17386TIP3   OH273648   1.210   0.894  17.057 -0.1227 -0.3925 -0.0207
17386TIP3    H173649   1.124   0.865  17.028 -0.1558 -0.6073  0.2933
17386TIP3    H273650   1.269   0.823  17.034  0.1288  0.1312 -1.0604
17387TIP3   OH273651   4.795   6.264   1.576 -0.0059  0.2182 -0.1770
17387TIP3    H173652   4.889   6.268   1.556 -0.1157  1.1312 -0.5506
17387TIP3    H273653   4.791   6.246   1.670  0.5593  1.4163  0.0892
17388TIP3   OH273654   2.831   0.574  15.145  0.2258  0.1021  0.9162
17388TIP3    H173655   2.870   0.534  15.222 -0.2730  1.6782  2.0365
17388TIP3    H273656   2.744   0.535  15.139  0.5583 -0.6281  0.6340
17389TIP3   OH273657   3.953   1.977   0.358  0.1431  0.5393 -0.0776
17389TIP3    H173658   3.968   1.884   0.341  0.3110  0.6909 -0.7508
17389TIP3    H273659   3.892   2.004   0.290 -0.5660  0.7305  0.6178
17390TIP3   OH273660   6.258   3.188   4.595  0.4338 -0.1974  0.1758
17390TIP3    H173661   6.269   3.283   4.603  1.3910 -0.3374  0.7001
17390TIP3    H273662   6.165   3.173   4.613  0.8893  0.3279  3.7959
17391TIP3   OH273663   3.308   5.718   4.313 -0.1868  0.1595 -0.2579
17391TIP3    H173664   3.229   5.666   4.304  0.0355 -0.1685 -0.3277
17391TIP3    H273665   3.380   5.656   4.299  0.1988 -0.1541  2.5236
17392TIP3   OH273666   3.060   0.093   5.067  0.5627 -0.3692  0.5287
17392TIP3    H173667   3.026   0.012   5.105  1.1265 -1.1869 -0.6405
17392TIP3    H273668   2.991   0.123   5.009  0.2618  0.1303  1.1307
17393TIP3   OH273669   4.637   5.660  11.581 -0.2736 -0.0351 -1.0991
17393TIP3    H173670   4.596   5.628  11.661  1.1793 -0.5546 -0.5322
17393TIP3    H273671   4.628   5.588  11.518  0.4422 -0.4576 -0.7287
17394TIP3   OH273672   1.049   5.282  15.160  0.1012 -0.2307 -0.6566
17394TIP3    H173673   1.028   5.375  15.156 -1.3982 -0.5546 -1.2781
17394TIP3    H273674   1.025   5.249  15.073 -0.6477 -1.4247 -0.0136
17395TIP3   OH273675   3.892   5.179  12.700  0.4024 -0.2994 -0.7314
17395TIP3    H173676   3.844   5.257  12.672 -0.0002 -0.4026 -0.3464
17395TIP3    H273677   3.928   5.204  12.786  1.5089 -0.0288 -1.2625
17396TIP3   OH273678   0.225   1.456  16.000 -0.0288  0.3302  0.0561
17396TIP3    H173679   0.238   1.414  16.085  1.7406  0.5419 -0.0753
17396TIP3    H273680   0.283   1.531  16.000 -0.7307  0.9073 -0.9770
17397TIP3   OH273681   1.325   1.441   3.570  0.4002  0.1856 -0.0202
17397TIP3    H173682   1.371   1.522   3.594  0.6744 -0.1611  0.6758
17397TIP3    H273683   1.377   1.371   3.611  0.7760 -0.4370 -1.5189
17398TIP3   OH273684   5.221   6.800   0.370  0.0678  0.1155 -0.1603
17398TIP3    H173685   5.142   6.757   0.404  0.0682  0.3627  0.1628
17398TIP3    H273686   5.198   6.893   0.369 -0.0487  0.0849 -1.1692
17399TIP3   OH273687   0.697   4.030   3.324 -0.0862 -0.1402  0.6580
17399TIP3    H173688   0.612   4.017   3.282  0.0213  1.4010 -0.1261
17399TIP3    H273689   0.696   4.122   3.350  1.8933  0.3222 -0.6907
17400TIP3   OH273690   4.537   6.699  10.879 -0.3793  0.2587  0.6143
17400TIP3    H173691   4.459   6.687  10.824 -2.7363  2.7302  3.1256
17400TIP3    H273692   4.563   6.610  10.902 -0.7120 -0.7682 -2.4667
17401TIP3   OH273693   3.584   1.821  13.316 -0.4289 -0.1996 -0.4048
17401TIP3    H173694   3.526   1.883  13.272 -0.7365  1.9459  2.6471
17401TIP3    H273695   3.644   1.877  13.366  2.5622 -2.3804 -1.2695
17402TIP3   OH273696   6.375   5.677   1.293  0.5493  0.1033 -0.0033
17402TIP3    H173697   6.285   5.660   1.320  1.1182 -2.2658  0.6314
17402TIP3    H273698   6.422   5.695   1.374  1.2492 -2.0094  0.1406
17403TIP3   OH273699   3.215   1.237   5.565 -0.2815  0.3515 -0.4946
17403TIP3    H173700   3.213   1.199   5.653 -1.1861 -0.0653 -0.6813
17403TIP3    H273701   3.181   1.167   5.508 -1.3556  1.2189 -0.9384
17404TIP3   OH273702   1.924   5.027   4.664  0.1184  1.1751 -0.3352
17404TIP3    H173703   1.957   5.105   4.621  2.1855  1.6379  1.8674
17404TIP3    H273704   1.936   5.044   4.758 -1.2615 -0.9749  0.3101
17405TIP3   OH273705   5.404   4.677  14.074 -0.1575 -0.4120  0.3697
17405TIP3    H173706   5.372   4.604  14.128  1.8782 -1.4036  0.3818
17405TIP3    H273707   5.408   4.751  14.134 -1.7158 -0.4241  0.5148
17406TIP3   OH273708   2.946   4.154   5.392 -0.3462  0.8033  0.3666
17406TIP3    H173709   2.932   4.063   5.366  0.4126  0.8240 -0.1382
17406TIP3    H273710   3.005   4.149   5.466 -1.1174  0.8410  0.9973
17407TIP3   OH273711   5.836   5.580  12.591  0.1302  0.2799  0.1071
17407TIP3    H173712   5.875   5.651  12.541  0.5316 -0.7168 -1.0504
17407TIP3    H273713   5.892   5.504  12.575 -0.9710 -0.6137  0.2771
17408TIP3   OH273714   4.587   2.536  14.200 -0.0230 -0.9018  0.1052
17408TIP3    H173715   4.554   2.476  14.267 -2.1765 -0.0489 -0.1298
17408TIP3    H273716   4.578   2.488  14.118  0.2645 -1.0274  0.1453
17409TIP3   OH273717   5.169   3.759   4.192 -0.2073  0.3181 -0.6303
17409TIP3    H173718   5.126   3.770   4.277  0.1002 -0.4270 -0.3712
17409TIP3    H273719   5.112   3.803   4.130  1.2382  4.0830  0.4011
17410TIP3   OH273720   6.328   0.253  12.650 -0.1357 -0.4508  0.4602
17410TIP3    H173721   6.287   0.338  12.635  2.1925  0.6326 -0.1675
17410TIP3    H273722   6.263   0.204  12.702 -1.5422  1.6677  0.8324
17411TIP3   OH273723   5.851   5.288   3.257 -0.2822  0.0128 -0.2516
17411TIP3    H173724   5.940   5.303   3.289 -0.4082  0.8752 -0.2699
17411TIP3    H273725   5.795   5.310   3.331 -0.4565 -1.7274  0.1666
17412TIP3   OH273726   3.619   0.022   5.835  0.1796 -0.2869  0.3089
17412TIP3    H173727   3.713   0.032   5.853  0.0445  1.2384  0.2857
17412TIP3    H273728   3.597   0.097   5.779 -0.7135 -1.5558 -1.1163
17413TIP3   OH273729   5.300   5.082  10.345 -0.0480  0.2472  0.3420
17413TIP3    H173730   5.229   5.138  10.376  0.4617  1.3995 -0.4863
17413TIP3    H273731   5.259   4.997  10.332 -1.2448  0.8400  0.0683
17414TIP3   OH273732   2.821   3.112  12.007  0.1980 -0.2256 -0.9123
17414TIP3    H173733   2.822   3.127  12.102  1.3270 -2.0365 -0.6056
17414TIP3    H273734   2.897   3.161  11.975  2.0037 -2.4990 -0.3373
17415TIP3   OH273735   2.977   3.462   0.252 -0.5770 -0.2368 -0.3293
17415TIP3    H173736   3.048   3.472   0.315  0.3238  0.1907 -1.3788
17415TIP3    H273737   2.981   3.370   0.225  1.4347  0.3684 -2.4365
17416TIP3   OH273738   4.458   6.455  15.458  0.2684 -0.0442  0.3457
17416TIP3    H173739   4.490   6.437  15.369 -1.7969 -1.4810 -0.1930
17416TIP3    H273740   4.516   6.523  15.491  1.8701 -0.3422 -1.6436
17417TIP3   OH273741   1.967   6.460  15.228 -0.5505  0.2145 -0.9429
17417TIP3    H173742   1.969   6.548  15.267  0.7057 -1.2633  2.7282
17417TIP3    H273743   2.053   6.452  15.186 -0.1321  0.3345 -0.1466
17418TIP3   OH273744   5.704   4.507  15.116  0.2982 -0.1372 -0.1617
17418TIP3    H173745   5.790   4.489  15.155 -0.8199 -0.2984  2.4830
17418TIP3    H273746   5.685   4.597  15.141 -0.5090 -0.2689 -0.2687
17419TIP3   OH273747   5.556   3.530   0.722  0.7060 -0.2260 -0.2128
17419TIP3    H173748   5.481   3.576   0.686 -0.5732 -0.0939  2.3906
17419TIP3    H273749   5.588   3.587   0.792  0.4774 -2.1897  1.5998
17420TIP3   OH273750   3.581   4.579  16.767 -0.1821  0.0167 -0.3014
17420TIP3    H173751   3.504   4.621  16.804 -1.0492 -2.2539  0.6121
17420TIP3    H273752   3.551   4.542  16.684 -0.2842 -1.4363  0.3632
17421TIP3   OH273753   5.649   0.410  14.569 -0.5665  0.1715  0.6810
17421TIP3    H173754   5.604   0.334  14.533 -0.7721 -1.0532  3.2408
17421TIP3    H273755   5.675   0.382  14.657  1.4536  2.3011  0.8476
17422TIP3   OH273756   2.578   4.632   2.414 -0.3092  0.2706 -0.0705
17422TIP3    H173757   2.572   4.647   2.320  1.8153  1.2489 -0.0913
17422TIP3    H273758   2.543   4.544   2.426 -1.2598  0.3908 -1.6609
17423TIP3   OH273759   4.286   5.555  10.712 -0.0330 -0.1456 -0.2311
17423TIP3    H173760   4.199   5.588  10.692 -0.3078 -0.2729  0.7181
17423TIP3    H273761   4.286   5.465  10.678 -0.9571 -0.8311  1.4778
17424TIP3   OH273762   4.369   0.244  11.856 -0.2282  0.1526  0.0223
17424TIP3    H173763   4.402   0.209  11.773  0.6571 -2.7030  1.4238
17424TIP3    H273764   4.447   0.248  11.912 -0.8726  1.6371  0.8487
17425TIP3   OH273765   2.503   4.459  16.517  0.1331  0.4324 -0.8967
17425TIP3    H173766   2.546   4.462  16.603 -0.5623 -0.0180 -0.5255
17425TIP3    H273767   2.438   4.528  16.520 -0.4812 -0.1411 -0.7310
17426TIP3   OH273768   3.440   3.343   5.849 -0.1547 -0.5303  0.3710
17426TIP3    H173769   3.347   3.353   5.869 -0.4007 -0.1881 -0.8686
17426TIP3    H273770   3.449   3.374   5.759  1.6362  2.0593  1.3290
17427TIP3   OH273771   5.252   3.755   2.233 -0.3548  0.3128  0.0742
17427TIP3    H173772   5.166   3.795   2.227 -0.4413  0.0516 -0.4525
17427TIP3    H273773   5.288   3.760   2.145  0.0440  0.1414  0.2226
17428TIP3   OH273774   5.690   6.626   0.531 -0.3099  0.1834  0.4611
17428TIP3    H173775   5.618   6.667   0.482 -0.2476  0.8978  0.9376
17428TIP3    H273776   5.768   6.644   0.478 -0.2032  1.1881  0.9312
17429TIP3   OH273777   4.952   0.137  12.405  0.3372  0.3345 -0.1795
17429TIP3    H173778   4.920   0.071  12.343  1.2813  0.8435 -1.2360
17429TIP3    H273779   4.924   0.104  12.491 -0.0521 -0.9372 -0.7645
17430TIP3   OH273780   4.145   5.628  10.401  0.9040  0.8928 -0.3212
17430TIP3    H173781   4.070   5.590  10.448  1.9733  2.3329  2.7860
17430TIP3    H273782   4.107   5.699  10.350  0.0452  1.1348  0.6222
17431TIP3   OH273783   4.496   3.907  15.441  0.4637 -0.9952 -0.5577
17431TIP3    H173784   4.486   3.813  15.458 -1.3627 -0.6953  0.2871
17431TIP3    H273785   4.453   3.920  15.357 -0.8566 -0.6803  0.1352
17432TIP3   OH273786   1.771   1.009  10.650 -1.0889  0.4077  0.4879
17432TIP3    H173787   1.752   0.933  10.594  0.0800  0.6671 -0.2838
17432TIP3    H273788   1.761   0.976  10.739  1.2488 -1.1955  0.2247
17433TIP3   OH273789   1.593   2.478  12.211 -0.1025  0.3056  0.2447
17433TIP3    H173790   1.549   2.434  12.138  0.0991  1.5160 -0.6143
17433TIP3    H273791   1.682   2.493  12.181 -0.3034  1.7566  0.3220
17434TIP3   OH273792   5.352   2.320   5.793 -0.4956 -0.5023  0.7494
17434TIP3    H173793   5.351   2.225   5.802 -1.9955 -0.6840 -0.7589
17434TIP3    H273794   5.415   2.337   5.722  0.0202 -0.3254  1.2411
17435TIP3   OH273795   1.545   1.141   0.135  0.5566 -0.1306  0.0141
17435TIP3    H173796   1.480   1.186   0.081 -0.6954 -2.5842 -0.6795
17435TIP3    H273797   1.629   1.162   0.094  0.2911  2.8823  0.7639
17436TIP3   OH273798   4.279   6.397  17.079 -0.1610  0.1191 -0.3115
17436TIP3    H173799   4.210   6.410  17.144  2.2164 -1.2521  2.7084
17436TIP3    H273800   4.303   6.486  17.052 -0.9691  0.7463  0.9472
17437TIP3   OH273801   2.041   6.394   4.903 -0.2843  0.4498  0.8447
17437TIP3    H173802   1.948   6.381   4.922 -0.3839  1.1725  0.8864
17437TIP3    H273803   2.058   6.485   4.928  0.2279  0.5948  0.0261
17438TIP3   OH273804   0.513   6.620   0.716  0.8096  0.0387  0.4287
17438TIP3    H173805   0.514   6.589   0.625  2.9281  1.3325 -0.0700
17438TIP3    H273806   0.497   6.542   0.768  0.1754 -0.8362 -1.0225
17439TIP3   OH273807   6.667   0.258   5.130 -0.2754  0.2710  0.0421
17439TIP3    H173808   6.657   0.346   5.095 -1.3925  0.0298 -0.2718
17439TIP3    H273809   6.673   0.270   5.224  2.7952  0.9334 -0.1387
17440TIP3   OH273810   1.882   1.431  14.479 -0.2175  0.1737 -0.4306
17440TIP3    H173811   1.965   1.439  14.526  0.4339 -0.7538 -1.3909
17440TIP3    H273812   1.865   1.336  14.476 -0.1464  0.1911 -2.2070
17441TIP3   OH273813   1.669   6.200   6.599 -0.0993 -0.2268 -0.0496
17441TIP3    H173814   1.730   6.195   6.524  0.9122 -3.1363  0.8373
17441TIP3    H273815   1.720   6.242   6.668  0.6899 -1.8388  0.4058
17442TIP3   OH273816   2.089   6.540   1.738 -0.0713  0.0244 -0.0073
17442TIP3    H173817   2.070   6.634   1.741  0.4899  0.1298  0.5406
17442TIP3    H273818   2.148   6.530   1.664 -1.1489 -0.0987 -0.8679
17443TIP3   OH273819   5.488   0.107  16.251 -0.6428 -0.3129  0.6857
17443TIP3    H173820   5.575   0.068  16.243 -0.1930  0.7179  0.2793
17443TIP3    H273821   5.428   0.036  16.231  0.1757 -0.4882 -1.4642
17444TIP3   OH273822   2.415   3.262   1.905  0.2001  0.4815 -0.1262
17444TIP3    H173823   2.488   3.320   1.881 -0.0953  1.3446  0.9584
17444TIP3    H273824   2.456   3.192   1.956  0.4021  0.3997 -0.3994
17445TIP3   OH273825   6.262   2.516  12.558 -0.0919 -0.0964  0.1689
17445TIP3    H173826   6.235   2.425  12.560 -0.3796 -0.0136  0.0235
17445TIP3    H273827   6.252   2.547  12.648 -2.6127  0.5604 -0.2785
17446TIP3   OH273828   2.552   3.739   3.190 -0.3320 -0.4105 -0.4199
17446TIP3    H173829   2.546   3.779   3.104 -1.2020  0.0865 -0.1463
17446TIP3    H273830   2.461   3.720   3.214  0.0054 -1.7911 -0.1818
17447TIP3   OH273831   6.612   3.481  16.020 -0.8963 -0.5965 -0.3472
17447TIP3    H173832   6.589   3.408  16.076 -0.1814  0.6687  1.7089
17447TIP3    H273833   6.656   3.441  15.945  3.3944 -2.2119  2.6372
17448TIP3   OH273834   6.321   6.563  17.026  0.1634  0.1143  0.4452
17448TIP3    H173835   6.394   6.561  16.964  1.3824 -0.5251  1.8460
17448TIP3    H273836   6.271   6.641  17.001 -1.2177 -1.6947 -3.3028
17449TIP3   OH273837   4.594   0.096   1.339  0.4278  0.0316 -0.3115
17449TIP3    H173838   4.556   0.054   1.416  1.2717 -0.4049 -0.1280
17449TIP3    H273839   4.529   0.161   1.313 -0.0167 -0.0509  0.5646
17450TIP3   OH273840   4.165   6.090   6.241  0.0996 -0.4229  0.6232
17450TIP3    H173841   4.195   5.999   6.249 -0.0433 -0.5776 -0.3660
17450TIP3    H273842   4.071   6.083   6.229  0.1365 -0.1711  0.1630
17451TIP3   OH273843   4.471   4.025  16.574 -0.2867  0.1954  0.3082
17451TIP3    H173844   4.540   4.089  16.588  0.4860 -0.6061  0.2697
17451TIP3    H273845   4.475   3.968  16.651  0.0646 -0.7059 -0.3555
17452TIP3   OH273846   5.775   5.543  15.597 -0.4123 -0.3295  0.2411
17452TIP3    H173847   5.797   5.636  15.594  0.0293 -0.2761  2.7084
17452TIP3    H273848   5.860   5.499  15.606 -0.6844 -0.8867  0.1576
17453TIP3   OH273849   5.137   0.656  16.706  0.3396 -0.3675  0.3117
17453TIP3    H173850   5.104   0.570  16.731 -1.1822  0.0539 -0.1266
17453TIP3    H273851   5.216   0.638  16.654 -0.4185 -1.5551 -0.4676
17454TIP3   OH273852   1.776   4.541   5.155  0.2166 -0.5240 -0.7107
17454TIP3    H173853   1.732   4.626   5.158 -0.0290 -0.6698  0.1720
17454TIP3    H273854   1.794   4.527   5.062  0.1405  0.4271 -0.8850
17455TIP3   OH273855   1.423   5.900  12.129 -0.0046 -0.6800 -0.3880
17455TIP3    H173856   1.491   5.844  12.166  0.2083 -0.4594 -0.4462
17455TIP3    H273857   1.447   5.989  12.156  0.1172 -0.5203 -0.9961
17456TIP3   OH273858   4.796   0.252   3.161  0.1813  0.0453 -0.0974
17456TIP3    H173859   4.759   0.331   3.201 -2.4012 -1.1867  0.1229
17456TIP3    H273860   4.770   0.181   3.220 -1.7092 -1.5518 -2.6403
17457TIP3   OH273861   1.500   5.566   3.857 -0.3395 -0.2653  0.2160
17457TIP3    H173862   1.457   5.518   3.786 -0.6163  0.6973 -0.2832
17457TIP3    H273863   1.452   5.649   3.862  0.8563  0.4308  0.3092
17458TIP3   OH273864   4.089   4.959   0.953 -0.3931 -0.2573 -0.1044
17458TIP3    H173865   4.167   4.903   0.962 -0.5499 -0.4823 -0.1435
17458TIP3    H273866   4.016   4.898   0.955 -0.7799  0.1610  2.9006
17459TIP3   OH273867   2.811   0.479   5.140  0.1867 -0.3663 -0.2521
17459TIP3    H173868   2.743   0.537   5.175  0.7541 -0.3999  0.9493
17459TIP3    H273869   2.763   0.400   5.113 -0.1786 -0.7482  1.3994
17460TIP3   OH273870   3.650   4.206  14.400 -0.1257  0.1177  0.5945
17460TIP3    H173871   3.670   4.119  14.365  0.9348  0.3470  0.5854
17460TIP3    H273872   3.714   4.219  14.470 -0.7799  0.5803  1.1190
17461TIP3   OH273873   1.622   0.342   2.802  0.0784 -0.2683 -0.5798
17461TIP3    H173874   1.679   0.419   2.800 -1.2173  0.7685  0.4452
17461TIP3    H273875   1.600   0.327   2.710 -1.1422  1.7816 -0.6816
17462TIP3   OH273876   5.701   2.019  12.828 -0.1860  0.9818  0.2698
17462TIP3    H173877   5.641   1.945  12.820  1.7513 -0.6290 -0.3492
17462TIP3    H273878   5.645   2.094  12.849 -2.4402 -0.2541 -0.9875
17463TIP3   OH273879   0.945   3.450   3.960 -0.0339  0.2829 -0.6765
17463TIP3    H173880   0.940   3.463   3.865  1.7733 -0.5277 -0.9246
17463TIP3    H273881   0.928   3.357   3.972  1.4474  0.0283 -0.4017
17464TIP3   OH273882   5.156   0.666  11.946 -0.0547 -0.4262 -0.0528
17464TIP3    H173883   5.135   0.647  12.038  0.3484 -0.4223  0.0401
17464TIP3    H273884   5.186   0.756  11.946 -2.1353  0.3141 -0.5244
17465TIP3   OH273885   4.935   0.184   5.776 -0.0593  0.5476 -0.3625
17465TIP3    H173886   4.858   0.145   5.818 -0.3333  0.1175 -1.2300
17465TIP3    H273887   4.926   0.160   5.684  1.2326  0.3137 -0.4437
17466TIP3   OH273888   2.754   2.017  16.965 -0.6523  0.3772 -0.6465
17466TIP3    H173889   2.688   1.954  16.939 -2.0766  1.1617  0.9273
17466TIP3    H273890   2.812   1.969  17.023 -0.1551 -0.1454 -1.5459
17467TIP3   OH273891   1.608   4.379  11.091 -0.4240 -0.7137 -0.1792
17467TIP3    H173892   1.535   4.440  11.102  0.9484  0.6091  2.5544
17467TIP3    H273893   1.673   4.428  11.041  0.4327 -0.0944  1.4856
17468TIP3   OH273894   1.732   0.595  14.406  0.1619  0.3381  0.4684
17468TIP3    H173895   1.717   0.649  14.483 -0.3222  0.9612 -0.0600
17468TIP3    H273896   1.749   0.508  14.442 -0.1332  0.5987  1.2738
17469TIP3   OH273897   1.721   0.204   1.192  0.5271 -0.0566 -0.8234
17469TIP3    H173898   1.662   0.136   1.226  0.6978  0.0935 -0.2133
17469TIP3    H273899   1.664   0.262   1.142 -0.3501  1.4907  1.7925
17470TIP3   OH273900   3.856   3.378   6.069  0.8039 -0.4096  0.5915
17470TIP3    H173901   3.834   3.286   6.078  0.7483 -0.5258 -0.5568
17470TIP3    H273902   3.951   3.380   6.060  0.6243 -0.6400 -2.0382
17471TIP3   OH273903   5.528   6.371   2.652 -0.5070 -0.4981  0.1604
17471TIP3    H173904   5.521   6.313   2.576 -2.2058 -1.4474  0.9675
17471TIP3    H273905   5.459   6.341   2.711  0.9419  0.0229  2.2325
17472TIP3   OH273906   1.577   0.194   5.143  0.3193  0.0234 -0.1874
17472TIP3    H173907   1.489   0.188   5.181  0.1808 -1.0907 -0.6644
17472TIP3    H273908   1.635   0.208   5.219 -0.2190  0.4083  0.1615
17473TIP3   OH273909   6.317   1.547   0.067  0.2572 -0.4813  0.2567
17473TIP3    H173910   6.361   1.597   0.136  0.8298 -1.2466  0.4685
17473TIP3    H273911   6.256   1.490   0.114 -0.6673  0.2667 -0.0083
17474TIP3   OH273912   2.919   1.311   5.131  0.2001 -0.0843  0.1742
17474TIP3    H173913   3.005   1.270   5.121 -0.1832 -0.5735 -1.3771
17474TIP3    H273914   2.861   1.240   5.156  0.2720  0.2948  1.4772
17475TIP3   OH273915   2.563   6.119  11.261  0.0058 -0.5654  0.4791
17475TIP3    H173916   2.619   6.114  11.338 -1.5268  1.2109  1.7879
17475TIP3    H273917   2.481   6.158  11.292 -1.2317 -1.1569 -1.7615
17476TIP3   OH273918   2.266   5.149  15.538  0.1717 -0.0513  0.2554
17476TIP3    H173919   2.298   5.059  15.542 -1.2289 -0.6178 -0.5759
17476TIP3    H273920   2.276   5.181  15.627 -0.6773 -1.5333  0.9179
17477TIP3   OH273921   6.819   5.965  13.192  0.2135 -0.3606  0.1587
17477TIP3    H173922   6.727   5.994  13.188  0.1096 -0.7665 -0.8743
17477TIP3    H273923   6.814   5.873  13.217  0.4340 -0.0315  1.4875
17478TIP3   OH273924   2.405   5.748  14.340 -0.1954 -0.1505  0.7541
17478TIP3    H173925   2.434   5.729  14.429  1.7075 -0.5515  0.0915
17478TIP3    H273926   2.399   5.843  14.336  0.7470 -0.0706  1.0322
17479TIP3   OH273927   6.561   3.110   3.258 -0.0879  0.1450  0.0225
17479TIP3    H173928   6.536   3.088   3.348  0.4471 -0.0426  0.1271
17479TIP3    H273929   6.482   3.093   3.207  0.1605 -1.6000  0.1661
17480TIP3   OH273930   1.127   3.491   4.786 -0.4340 -0.0753  0.6676
17480TIP3    H173931   1.150   3.428   4.854  1.5516 -0.4332 -0.2449
17480TIP3    H273932   1.088   3.438   4.716 -0.3449 -0.0563  0.6021
17481TIP3   OH273933   3.592   3.350   3.823 -0.5949 -0.6019  0.1174
17481TIP3    H173934   3.503   3.328   3.851 -0.6555 -0.6901 -0.1485
17481TIP3    H273935   3.645   3.337   3.902 -0.6945 -1.3106  0.0740
17482TIP3   OH273936   6.691   4.188   6.292  0.0717  0.4397  0.0188
17482TIP3    H173937   6.652   4.235   6.366 -0.3831 -0.0875  0.1219
17482TIP3    H273938   6.772   4.151   6.327  0.2901  0.9037  0.0146
17483TIP3   OH273939   2.854   4.318   6.108  0.2620 -0.2209 -0.0088
17483TIP3    H173940   2.851   4.408   6.140  1.9821  0.2848 -1.1080
17483TIP3    H273941   2.948   4.298   6.102 -0.0439 -1.3225 -1.7454
17484TIP3   OH273942   0.390   3.856   1.858 -0.8301  0.7372 -0.3728
17484TIP3    H173943   0.423   3.827   1.943 -1.0430 -0.4077 -0.6745
17484TIP3    H273944   0.454   3.921   1.829 -0.2332  0.4259  0.2168
17485TIP3   OH273945   2.465   3.992  14.250 -0.3945 -0.0304  0.2288
17485TIP3    H173946   2.522   3.945  14.189 -1.0883 -0.7151  0.0968
17485TIP3    H273947   2.508   3.983  14.335  1.4748  2.3532 -0.3571
17486TIP3   OH273948   0.920   4.152   2.782 -0.0843  0.7312  0.1626
17486TIP3    H173949   0.906   4.122   2.872  1.0254  0.3690  0.2239
17486TIP3    H273950   0.841   4.202   2.761 -0.0696  1.3934  1.5793
17487TIP3   OH273951   4.766   3.766  12.462 -0.6777  0.4593  0.1471
17487TIP3    H173952   4.670   3.761  12.465 -0.6792 -0.6599 -1.0287
17487TIP3    H273953   4.790   3.723  12.380  0.9384 -0.9629  1.2886
17488TIP3   OH273954   2.904   1.658  15.428 -0.4110 -0.2758 -0.1791
17488TIP3    H173955   2.842   1.627  15.362 -0.1154  1.2645 -1.2292
17488TIP3    H273956   2.899   1.753  15.424 -0.8833 -0.1017  2.5418
17489TIP3   OH273957   2.218   4.352   2.362 -0.2307 -0.1497 -0.1148
17489TIP3    H173958   2.208   4.443   2.337  0.4725 -0.7046 -2.7319
17489TIP3    H273959   2.260   4.355   2.448 -1.1959  1.9462  0.3472
17490TIP3   OH273960   6.271   5.885  13.418 -0.6554  0.1094 -0.2506
17490TIP3    H173961   6.256   5.899  13.325 -1.5199 -2.1878 -0.5287
17490TIP3    H273962   6.327   5.807  13.422 -2.7176 -1.4004  1.1338
17491TIP3   OH273963   5.932   5.347   4.624 -0.7293  0.0294  0.0720
17491TIP3    H173964   5.956   5.419   4.683 -1.4333  0.8487 -0.6045
17491TIP3    H273965   5.919   5.389   4.539 -1.0396 -0.9224 -0.3670
17492TIP3   OH273966   3.751   0.698   5.483  0.7505  0.3029 -0.6142
17492TIP3    H173967   3.719   0.774   5.434 -0.7109  0.7262  0.8805
17492TIP3    H273968   3.773   0.633   5.416  1.5950  1.8667 -1.8999
17493TIP3   OH273969   3.542   5.776  14.128  0.3819  0.1740  0.0186
17493TIP3    H173970   3.549   5.681  14.119 -0.4081  0.1046  0.0536
17493TIP3    H273971   3.452   5.790  14.160  0.1776  0.9818 -0.8763
17494TIP3   OH273972   2.592   6.248  16.643 -0.0582 -0.4545  0.3528
17494TIP3    H173973   2.682   6.273  16.662  0.0277 -1.6070  1.6659
17494TIP3    H273974   2.544   6.269  16.723 -1.2282  1.2311 -0.7345
17495TIP3   OH273975   3.405   0.495   2.557 -0.0493  0.0880 -0.1816
17495TIP3    H173976   3.491   0.453   2.554  0.4403  1.1202 -1.2174
17495TIP3    H273977   3.342   0.423   2.556  0.7800 -0.6370 -1.4755
17496TIP3   OH273978   5.003   0.925  12.846  0.5408  0.0681 -0.1194
17496TIP3    H173979   4.978   1.018  12.850  0.6565  0.0871  0.1781
17496TIP3    H273980   5.089   0.921  12.888  0.0732 -0.3321  0.8330
17497TIP3   OH273981   5.731   6.033   4.487  0.3386  0.0706  0.0541
17497TIP3    H173982   5.707   6.098   4.421  0.0034 -0.3645 -0.2588
17497TIP3    H273983   5.800   6.074   4.538  0.7052  0.3485 -0.6662
17498TIP3   OH273984   2.847   2.722   5.113 -0.9531  0.3853 -0.3677
17498TIP3    H173985   2.922   2.747   5.059  0.2381 -0.1108  0.9976
17498TIP3    H273986   2.818   2.638   5.076  0.7168 -0.6440  0.5366
17499TIP3   OH273987   3.190   3.734  15.158 -0.0949  0.6413  0.4677
17499TIP3    H173988   3.267   3.676  15.154 -0.4562  0.2043 -2.6850
17499TIP3    H273989   3.224   3.819  15.131 -0.4554  0.8000  0.5221
17500TIP3   OH273990   5.203   4.294   2.300 -0.3789 -0.2628 -0.3938
17500TIP3    H173991   5.221   4.229   2.232 -0.1126 -1.1981  0.5324
17500TIP3    H273992   5.289   4.315   2.337 -0.6016 -0.4262  0.2299
17501TIP3   OH273993   5.775   1.679  15.218 -0.0105  0.4360  0.2976
17501TIP3    H173994   5.799   1.747  15.155  0.7764  0.1915  0.3161
17501TIP3    H273995   5.769   1.725  15.302 -0.4192  0.6471  0.1539
17502TIP3   OH273996   0.553   3.561   4.541 -0.1007 -0.0367 -0.2249
17502TIP3    H173997   0.460   3.547   4.520  0.3814 -0.5845 -2.1596
17502TIP3    H273998   0.586   3.616   4.470  1.6803 -2.1333 -1.1322
17503TIP3   OH273999   0.758   0.551  16.877  0.1059  0.2854 -0.0919
17503TIP3    H174000   0.785   0.642  16.890 -1.5357  1.0279 -1.4370
17503TIP3    H274001   0.724   0.548  16.787  1.3612 -2.0068 -0.5735
17504TIP3   OH274002   2.925   4.777  15.203 -0.2752 -0.1242 -0.0323
17504TIP3    H174003   2.963   4.798  15.118 -0.4817  1.0324  0.1356
17504TIP3    H274004   2.869   4.701  15.187 -2.3568  1.5931 -1.5418
17505TIP3   OH274005   5.790   3.162   3.343 -0.0010 -0.5190 -0.1550
17505TIP3    H174006   5.824   3.236   3.393  0.6332 -0.3795 -0.7921
17505TIP3    H274007   5.808   3.086   3.399  1.4296 -0.4570 -0.4999
17506TIP3   OH274008   3.230   6.165  14.247 -0.0219 -0.3136  0.3852
17506TIP3    H174009   3.147   6.119  14.232 -0.0732 -0.2503  0.4715
17506TIP3    H274010   3.204   6.247  14.291  0.0815 -0.2692  0.3642
17507TIP3   OH274011   0.295   1.146  13.797  0.3884  0.2663  0.4544
17507TIP3    H174012   0.252   1.104  13.872 -1.8830 -1.2467 -1.5662
17507TIP3    H274013   0.315   1.074  13.738  1.0498  1.5443 -0.9273
17508TIP3   OH274014   5.413   1.874  15.381 -0.0705 -0.4445  0.2107
17508TIP3    H174015   5.425   1.921  15.299 -0.6885  1.5455  1.1955
17508TIP3    H274016   5.367   1.794  15.357 -2.4596  1.2099 -1.1453
17509TIP3   OH274017   1.951   4.628  14.568 -0.2161 -0.1192  0.2347
17509TIP3    H174018   2.025   4.591  14.520 -1.7488  0.2494 -2.6040
17509TIP3    H274019   1.961   4.723  14.560 -1.7765 -0.0400 -1.6838
17510TIP3   OH274020   6.259   1.848   4.901  0.6229  0.6429  0.1835
17510TIP3    H174021   6.275   1.941   4.919 -1.5888  1.9276 -3.3581
17510TIP3    H274022   6.166   1.836   4.919  0.4540 -0.3394 -1.1590
17511TIP3   OH274023   2.320   6.564   1.918 -0.0488  0.3781 -0.1449
17511TIP3    H174024   2.231   6.551   1.885 -0.1704 -1.1661  0.6949
17511TIP3    H274025   2.340   6.483   1.965  1.7797  0.7325 -0.2430
17512TIP3   OH274026   2.971   4.151   2.722  0.2665  0.1836  0.0519
17512TIP3    H174027   2.966   4.064   2.682 -0.2033  0.5336 -0.6858
17512TIP3    H274028   2.892   4.158   2.775  2.0142 -1.1863  3.0258
17513TIP3   OH274029   1.307   1.834  16.582 -0.1459 -0.0178  0.1488
17513TIP3    H174030   1.380   1.778  16.558  1.2836  1.9982 -0.5140
17513TIP3    H274031   1.232   1.800  16.534  0.8191 -0.9342 -0.7332
17514TIP3   OH274032   3.542   1.775   5.878 -0.7947  0.4507 -0.1837
17514TIP3    H174033   3.558   1.870   5.869 -0.6890  0.4497 -0.0043
17514TIP3    H274034   3.556   1.757   5.971  1.9872 -0.2488 -0.6575
17515TIP3   OH274035   5.162   0.316   3.858  0.4580 -0.1085 -0.6039
17515TIP3    H174036   5.133   0.335   3.947 -1.2341 -0.1399 -1.1057
17515TIP3    H274037   5.204   0.230   3.864 -2.4055 -1.6279 -0.2775
17516TIP3   OH274038   2.678   5.697   2.408 -0.4459  0.4911  0.7133
17516TIP3    H174039   2.593   5.680   2.367  0.3842 -0.1572 -0.8381
17516TIP3    H274040   2.742   5.664   2.345  1.0360  2.4366  1.0996
17517TIP3   OH274041   0.458   6.725   5.869  0.2309  1.0140 -0.0222
17517TIP3    H174042   0.407   6.644   5.872  1.1941  0.2407 -2.3076
17517TIP3    H274043   0.407   6.787   5.921 -1.6159 -0.4664  0.0493
17518TIP3   OH274044   2.441   3.630   1.722 -0.2875 -0.0538  0.0619
17518TIP3    H174045   2.518   3.684   1.704 -0.1751 -0.5138 -0.8863
17518TIP3    H274046   2.432   3.633   1.818 -0.0157  1.2450  0.0604
17519TIP3   OH274047   2.431   6.691  11.669  0.4215  0.1052 -0.7972
17519TIP3    H174048   2.339   6.715  11.665 -0.1034 -0.8508  2.5779
17519TIP3    H274049   2.443   6.628  11.598 -1.6480 -0.0963 -1.0091
17520TIP3   OH274050   0.511   3.521  11.984  0.6735 -0.2975  0.1262
17520TIP3    H174051   0.422   3.524  12.018  0.4411  2.2041 -0.4474
17520TIP3    H274052   0.560   3.470  12.049 -0.8090 -0.1214  1.4517
17521TIP3   OH274053   4.690   2.134  11.959 -0.0688  0.2788  0.7710
17521TIP3    H174054   4.717   2.195  12.028 -0.2167 -1.7911  2.7733
17521TIP3    H274055   4.595   2.138  11.959 -0.0661  1.6224 -0.6910
17522TIP3   OH274056   0.256   0.196  14.949  0.1936  0.8119 -0.1814
17522TIP3    H174057   0.285   0.134  14.882  1.1381  0.6127  0.4035
17522TIP3    H274058   0.307   0.275  14.932  1.1949  0.4229  0.9209
17523TIP3   OH274059   6.758   6.518  15.163  0.3453 -0.2147  0.3718
17523TIP3    H174060   6.671   6.514  15.203  0.0411  0.4227 -0.2063
17523TIP3    H274061   6.818   6.521  15.237 -0.2480  2.0358  0.8521
17524TIP3   OH274062   1.066   0.854   0.914 -0.2183 -0.3494 -0.2197
17524TIP3    H174063   1.116   0.926   0.875 -1.1676  0.1102 -0.6271
17524TIP3    H274064   1.123   0.819   0.982  0.7758 -0.0430 -0.8781
17525TIP3   OH274065   2.868   6.070  11.196 -0.0814  0.5052  0.2541
17525TIP3    H174066   2.955   6.079  11.159  0.3718  0.6133  1.2977
17525TIP3    H274067   2.865   6.135  11.267 -2.0292  2.5544 -1.5420
17526TIP3   OH274068   6.820   6.803   5.340 -0.0852 -0.2595 -1.0572
17526TIP3    H174069   6.854   6.732   5.394  0.0314 -0.8958 -1.9475
17526TIP3    H274070   6.888   6.870   5.344  0.6925 -0.9898 -1.7668
17527TIP3   OH274071   4.767   0.318   2.332 -0.5168  0.0086 -0.1458
17527TIP3    H174072   4.756   0.227   2.303 -1.9820  0.6984 -1.9861
17527TIP3    H274073   4.818   0.312   2.413 -0.2072 -2.4062 -0.4528
17528TIP3   OH274074   0.332   5.636  15.226  0.1661  0.4484  0.2081
17528TIP3    H174075   0.252   5.602  15.185  1.0101  0.1592 -1.2435
17528TIP3    H274076   0.300   5.683  15.303 -1.4168  0.4285 -0.3907
17529TIP3   OH274077   5.156   4.342  16.848  0.3604 -0.3345  0.1622
17529TIP3    H174078   5.152   4.246  16.842  2.4774 -0.4366 -0.3973
17529TIP3    H274079   5.223   4.359  16.915  0.3860  0.7491 -0.1182
17530TIP3   OH274080   5.786   3.751  12.001  0.1230  0.5740 -0.0695
17530TIP3    H174081   5.734   3.672  12.009 -0.4318  0.8405 -0.8133
17530TIP3    H274082   5.861   3.738  12.058 -0.5319 -0.0134  0.6705
17531TIP3   OH274083   6.277   2.718   3.642  0.0034  0.2063 -0.0719
17531TIP3    H174084   6.353   2.776   3.652 -1.0369  1.8506 -1.1958
17531TIP3    H274085   6.218   2.744   3.713  0.0380 -0.3633  0.1742
17532TIP3   OH274086   4.353   4.082   0.690  0.3985 -0.7047  0.1573
17532TIP3    H174087   4.419   4.014   0.672  1.9184  0.5552  0.6831
17532TIP3    H274088   4.312   4.054   0.772  0.8602 -1.1118  0.2575
17533TIP3   OH274089   3.021   0.194  15.574 -0.2189 -0.0261  0.4273
17533TIP3    H174090   2.950   0.257  15.586 -2.2258 -2.3169  1.2520
17533TIP3    H274091   3.003   0.154  15.489  0.0464 -0.7141  0.6945
17534TIP3   OH274092   0.989   6.571  14.440 -0.1508 -0.1227 -0.0559
17534TIP3    H174093   0.998   6.605  14.529  0.4843  0.3650 -0.2986
17534TIP3    H274094   1.072   6.528  14.422 -0.7875 -1.4771  0.0899
17535TIP3   OH274095   3.395   3.048  12.839  0.3238 -0.1164  0.0313
17535TIP3    H174096   3.430   3.089  12.760 -1.2711  2.9931  0.7565
17535TIP3    H274097   3.455   3.076  12.909  0.3882 -0.8526  0.2846
17536TIP3   OH274098   3.734   6.797  13.661 -0.0598 -0.1318  0.3115
17536TIP3    H174099   3.830   6.800  13.662 -0.0836  0.5533  0.9408
17536TIP3    H274100   3.707   6.868  13.719 -0.9841  0.8960 -1.3187
17537TIP3   OH274101   0.250   0.813  17.197  0.3201  0.5941  0.3535
17537TIP3    H174102   0.327   0.827  17.252 -0.3748 -0.8085  1.7822
17537TIP3    H274103   0.285   0.799  17.109  1.6268  0.9117  0.8032
17538TIP3   OH274104   3.258   0.209   2.292  0.0683 -0.5245  0.1010
17538TIP3    H174105   3.221   0.290   2.329  1.3818  0.2596 -0.2351
17538TIP3    H274106   3.337   0.194   2.344  0.2528 -1.1667 -0.3627
17539TIP3   OH274107   1.507   3.290  12.043 -0.1564 -0.1414  0.5230
17539TIP3    H174108   1.446   3.227  12.005  0.1489 -0.4676  0.5703
17539TIP3    H274109   1.594   3.253  12.028  0.1097  0.8636 -0.5432
17540TIP3   OH274110   0.835   2.592  12.836  0.4139 -0.0414 -0.2599
17540TIP3    H174111   0.923   2.627  12.851  1.0705 -1.4747 -0.5793
17540TIP3    H274112   0.823   2.528  12.907  0.1303 -0.7470 -0.9371
17541TIP3   OH274113   0.061   1.559  13.291  0.2181 -0.0290  0.6386
17541TIP3    H174114   0.067   1.557  13.387 -2.1409 -0.2687  0.8270
17541TIP3    H274115  -0.029   1.585  13.273  0.7407  0.4439 -1.5433
17542TIP3   OH274116   0.117   0.476   2.003 -0.0527 -0.3600  0.8248
17542TIP3    H174117   0.072   0.560   2.010  0.4486 -0.0465  0.3901
17542TIP3    H274118   0.103   0.434   2.088  0.2493  0.4551  1.2907
17543TIP3   OH274119   5.198   4.549  10.899 -0.5401 -0.4959 -0.1567
17543TIP3    H174120   5.114   4.506  10.885 -0.1403 -1.1633 -0.5557
17543TIP3    H274121   5.263   4.480  10.888 -0.0095 -0.4106  2.0260
17544TIP3   OH274122   1.000   3.681   2.664 -0.4654  0.3702 -0.5901
17544TIP3    H174123   1.006   3.597   2.708  0.6227 -0.3781 -2.0724
17544TIP3    H274124   0.920   3.721   2.698 -0.9977 -1.2564  0.1409
17545TIP3   OH274125   3.229   5.400  13.227  0.3805 -0.2942 -0.1562
17545TIP3    H174126   3.169   5.335  13.191 -1.3860  0.1246  1.8140
17545TIP3    H274127   3.228   5.472  13.164 -1.0185 -0.4255 -0.3274
17546TIP3   OH274128   6.817   1.362  12.994 -0.2774 -0.3175  0.5238
17546TIP3    H174129   6.759   1.436  13.012 -0.2654 -0.2899  0.4505
17546TIP3    H274130   6.901   1.402  12.972 -0.6862 -0.2847 -1.1058
17547TIP3   OH274131   5.436   0.970   6.680 -0.4295 -0.2080  0.8031
17547TIP3    H174132   5.349   0.969   6.721 -0.7714 -2.3197  0.1626
17547TIP3    H274133   5.445   1.059   6.646 -1.3013  0.7858  2.9558
17548TIP3   OH274134   1.599   4.107   3.064 -0.2010 -0.4826  0.3235
17548TIP3    H174135   1.572   4.159   2.989 -1.7586 -1.3347  0.2587
17548TIP3    H274136   1.689   4.079   3.042 -1.3328 -2.5392 -2.3193
17549TIP3   OH274137   4.068   3.374  11.579  0.4980 -0.1075 -0.5031
17549TIP3    H174138   4.105   3.451  11.535 -0.8700 -0.0364 -1.5877
17549TIP3    H274139   4.133   3.305  11.564 -0.1400 -0.2285 -3.1820
17550TIP3   OH274140   1.464   3.953   1.113  0.0388  0.4396 -0.2733
17550TIP3    H174141   1.414   3.871   1.121  1.2147 -0.1940  1.0446
17550TIP3    H274142   1.493   3.954   1.022 -0.9802 -0.0136 -0.6156
17551TIP3   OH274143   0.968   4.092  11.647  0.0177  0.2594 -0.4703
17551TIP3    H174144   0.998   4.164  11.702 -1.7594 -0.1902  1.1845
17551TIP3    H274145   1.021   4.017  11.673 -0.3967  0.1999  0.2279
17552TIP3   OH274146   5.024   2.386   0.734 -0.4361 -0.3951  0.7859
17552TIP3    H174147   5.069   2.308   0.766  0.2860  0.1163  1.0348
17552TIP3    H274148   5.015   2.441   0.811  1.7233  1.0578  0.0984
17553TIP3   OH274149   2.237   1.868   3.483  0.5418 -0.0836 -0.3514
17553TIP3    H174150   2.157   1.828   3.448  1.3051 -3.1384  0.9917
17553TIP3    H274151   2.215   1.888   3.574  0.7605  0.8015 -0.4910
17554TIP3   OH274152   1.463   4.891   0.200  0.6396  0.2874 -0.3561
17554TIP3    H174153   1.534   4.889   0.264 -0.6971 -0.8466  1.1962
17554TIP3    H274154   1.421   4.805   0.209 -0.2758  0.5311 -1.9911
17555TIP3   OH274155   1.773   6.311   4.874  0.2580 -0.4699 -0.3064
17555TIP3    H174156   1.784   6.217   4.860 -0.2412 -1.3523  3.8166
17555TIP3    H274157   1.684   6.329   4.845 -0.1759 -1.6321  0.2440
17556TIP3   OH274158   4.157   4.469   0.801  0.0188  0.6274  0.2990
17556TIP3    H174159   4.100   4.456   0.876 -1.1363  0.3473 -0.6089
17556TIP3    H274160   4.246   4.464   0.837 -0.4902 -0.8927  1.4307
17557TIP3   OH274161   2.870   5.907  12.108 -0.4654 -0.1644  0.4329
17557TIP3    H174162   2.776   5.922  12.115 -0.7133 -2.1875  3.3299
17557TIP3    H274163   2.880   5.813  12.120  1.9030 -0.0979 -0.6015
17558TIP3   OH274164   0.085   1.287  13.245  0.5039 -0.2337  0.3018
17558TIP3    H174165   0.077   1.382  13.258  0.3844 -0.1837 -0.1528
17558TIP3    H274166   0.053   1.271  13.157  1.9658 -0.4990 -0.2124
17559TIP3   OH274167   6.572   0.867   3.227  0.6914  0.2247  0.2625
17559TIP3    H174168   6.612   0.952   3.247 -0.1155  0.1929  2.3426
17559TIP3    H274169   6.533   0.878   3.141  1.5500  1.5973  0.0174
17560TIP3   OH274170   5.793   2.451   5.623 -0.1114 -0.0493 -0.2142
17560TIP3    H174171   5.847   2.378   5.591 -1.9415 -0.8475 -1.6369
17560TIP3    H274172   5.829   2.528   5.579  1.1828 -0.2068  0.5051
17561TIP3   OH274173   5.929   2.196  13.732 -0.3724  0.1176  0.6383
17561TIP3    H174174   5.890   2.232  13.652  1.3131  1.5231  0.3859
17561TIP3    H274175   5.855   2.170  13.785 -1.5590 -0.2472 -1.1090
17562TIP3   OH274176   1.741   4.692  17.224  0.3045  0.0274 -0.3528
17562TIP3    H174177   1.708   4.673  17.312  0.7782 -0.6140 -0.3098
17562TIP3    H274178   1.827   4.730  17.239  0.8769 -1.1556 -0.5758
17563TIP3   OH274179   4.200   0.399  16.392 -0.5222  0.1600  0.3474
17563TIP3    H174180   4.241   0.336  16.331  1.8901  1.5653  0.3826
17563TIP3    H274181   4.149   0.344  16.452 -1.3096 -1.4382 -1.6472
17564TIP3   OH274182   4.877   4.679  11.694 -0.5629 -0.1519 -0.0974
17564TIP3    H174183   4.807   4.731  11.653  0.5932  1.9993  0.5217
17564TIP3    H274184   4.950   4.740  11.704  1.4852 -2.3447 -0.7835
17565TIP3   OH274185   4.909   0.063   0.269 -0.2316 -0.0607  0.3079
17565TIP3    H174186   4.942   0.101   0.351 -0.1420 -0.4240  0.4410
17565TIP3    H274187   4.889   0.139   0.214  0.3184  0.1752  0.4232
17566TIP3   OH274188   3.481   2.131  13.491  0.2256 -0.5039  0.1167
17566TIP3    H174189   3.564   2.111  13.448  0.6203  1.1395  0.0567
17566TIP3    H274190   3.419   2.144  13.419  0.0284 -1.1958  0.1511
17567TIP3   OH274191   4.666   2.832   4.387 -0.5426 -0.0192  0.7643
17567TIP3    H174192   4.754   2.847   4.352 -1.4903  0.6363 -1.5440
17567TIP3    H274193   4.680   2.784   4.468  1.9612  0.5747  0.7548
17568TIP3   OH274194   5.974   3.997   6.227 -0.3940  0.2480  1.1120
17568TIP3    H174195   5.961   3.908   6.195  0.0892  0.0874  1.3523
17568TIP3    H274196   6.053   3.992   6.280  0.3625  1.0730  0.1215
17569TIP3   OH274197   0.303   4.929  17.072  0.0352 -0.1188 -0.4802
17569TIP3    H174198   0.269   4.876  17.144 -1.7478  1.3840 -0.1322
17569TIP3    H274199   0.330   4.866  17.006 -1.2521 -1.4753  0.2384
17570TIP3   OH274200   5.965   6.711   0.524 -0.5157  0.6146  0.8406
17570TIP3    H174201   6.001   6.791   0.562 -0.1072  0.2273  1.2725
17570TIP3    H274202   5.973   6.645   0.593 -3.9032  0.9672  1.7228
17571TIP3   OH274203   3.000   6.814   0.837 -0.0673 -0.6822 -0.2851
17571TIP3    H174204   3.069   6.827   0.772  1.5211 -0.7816  1.2877
17571TIP3    H274205   2.948   6.894   0.833  1.0760  0.0758 -0.4648
17572TIP3   OH274206   1.939   3.801  11.737 -0.1698 -0.3335  0.4649
17572TIP3    H174207   2.017   3.803  11.681  0.1438 -0.7189  0.8800
17572TIP3    H274208   1.934   3.711  11.767  2.0204  0.6240  4.3136
17573TIP3   OH274209   3.312   4.555   6.591  0.1936 -0.2768  0.4757
17573TIP3    H174210   3.266   4.477   6.623 -0.3100 -0.1793  0.0041
17573TIP3    H274211   3.264   4.628   6.630 -0.2637 -0.1634 -0.2732
17574TIP3   OH274212   4.787   2.549  13.987 -1.0738  0.2591  0.3968
17574TIP3    H174213   4.724   2.556  13.915 -1.0626 -2.2543  0.0265
17574TIP3    H274214   4.867   2.587  13.952 -0.8105 -1.6785 -1.3585
17575TIP3   OH274215   2.692   4.992   5.562 -0.0433  0.4773  0.6249
17575TIP3    H174216   2.777   5.019   5.596  0.7696 -0.8103 -0.2801
17575TIP3    H274217   2.636   4.986   5.640  0.9748  0.3724  1.3685
17576TIP3   OH274218   3.871   2.568  11.643 -0.4940  0.5458 -0.0962
17576TIP3    H174219   3.844   2.477  11.644 -1.2131  0.7575  0.9016
17576TIP3    H274220   3.964   2.565  11.620 -0.6497 -0.3832 -0.6578
17577TIP3   OH274221   6.699   5.434   0.113 -0.4524 -0.5210 -0.4085
17577TIP3    H174222   6.776   5.396   0.069 -0.1056 -0.8039  0.4274
17577TIP3    H274223   6.625   5.404   0.061  0.0780  1.2971 -2.3779
17578TIP3   OH274224   0.941   2.577  14.618 -0.3027  0.8312 -0.1586
17578TIP3    H174225   0.871   2.642  14.616 -0.9917  0.2060  1.4339
17578TIP3    H274226   1.012   2.620  14.665 -0.0736  1.0444 -0.6959
17579TIP3   OH274227   2.997   6.113   0.313 -0.7791 -0.0075  0.4354
17579TIP3    H174228   3.086   6.088   0.290 -0.1535  2.4079 -0.1326
17579TIP3    H274229   2.950   6.114   0.229 -1.2848 -1.0405  0.7004
17580TIP3   OH274230   4.182   3.641   2.317  0.4274 -0.1190  0.3012
17580TIP3    H174231   4.208   3.652   2.409 -0.0964  2.9634  0.2158
17580TIP3    H274232   4.205   3.725   2.276 -2.0661 -0.2557 -1.6574
17581TIP3   OH274233   3.184   5.515   1.357  0.2259  0.2921 -0.1938
17581TIP3    H174234   3.128   5.531   1.282 -0.3448 -0.4955  0.0495
17581TIP3    H274235   3.273   5.517   1.322  0.2691  3.7344 -0.2211
17582TIP3   OH274236   4.133   0.553   6.508 -0.3199  0.3297  0.2255
17582TIP3    H174237   4.059   0.584   6.455 -0.1795 -1.1051 -0.8843
17582TIP3    H274238   4.126   0.601   6.590 -1.3429  1.6447 -0.5975
17583TIP3   OH274239   3.067   0.506   5.234 -0.3236  0.1493 -0.0083
17583TIP3    H174240   3.003   0.510   5.164 -0.7333  3.2123  0.4218
17583TIP3    H274241   3.024   0.457   5.304 -1.4312  0.4726 -0.4549
17584TIP3   OH274242   3.220   6.513   5.292  0.2604  0.3948  0.4520
17584TIP3    H174243   3.213   6.419   5.275  2.3037 -0.0916  1.9172
17584TIP3    H274244   3.313   6.533   5.278  0.1638  1.8707  1.6119
17585TIP3   OH274245   2.892   5.117   0.339  0.6622  0.7638 -0.1525
17585TIP3    H174246   2.803   5.083   0.330  0.3307  1.1049  1.4247
17585TIP3    H274247   2.899   5.184   0.271  0.1921 -0.1789 -1.1604
17586TIP3   OH274248   5.175   1.939  14.350  0.3129  0.3227 -0.0168
17586TIP3    H174249   5.250   1.880  14.356  0.6224  0.6920 -0.2033
17586TIP3    H274250   5.184   1.996  14.427 -1.1013 -1.1371  1.3001
17587TIP3   OH274251   0.786   4.305   5.893  0.3726  0.1076  0.0915
17587TIP3    H174252   0.718   4.372   5.896 -2.0911 -1.9466 -3.4004
17587TIP3    H274253   0.827   4.317   5.808  1.7572 -1.1696  0.5505
17588TIP3   OH274254   3.767   3.698   3.164 -0.0628 -0.4971  0.3950
17588TIP3    H174255   3.791   3.642   3.238 -1.5048 -1.2417  0.3424
17588TIP3    H274256   3.698   3.755   3.199 -1.2361 -1.3116 -0.5167
17589TIP3   OH274257   6.009   3.295   5.150 -0.8213  0.6941  0.4731
17589TIP3    H174258   6.031   3.224   5.089 -2.0150  1.4148 -0.8448
17589TIP3    H274259   5.985   3.369   5.094 -1.6127  1.4971  1.8151
17590TIP3   OH274260   1.228   2.004  12.713 -0.3999  0.5265  0.0212
17590TIP3    H174261   1.154   2.032  12.767 -1.6691  0.3694 -1.5430
17590TIP3    H274262   1.304   2.043  12.755 -1.3553  0.6992  1.6964
17591TIP3   OH274263   5.821   0.573   1.848 -0.3869  0.1677 -0.6708
17591TIP3    H174264   5.895   0.588   1.907  0.0287 -0.0193 -1.1424
17591TIP3    H274265   5.861   0.552   1.764 -0.9709 -1.0576 -0.6531
17592TIP3   OH274266   6.288   4.645   3.382  0.1830 -0.0818 -0.6063
17592TIP3    H174267   6.340   4.564   3.388  1.4011  0.7777  1.8296
17592TIP3    H274268   6.348   4.708   3.341 -0.1953  0.0027 -1.0300
17593TIP3   OH274269   5.104   2.899   0.662 -0.2029  0.3221  0.0526
17593TIP3    H174270   5.179   2.848   0.691 -0.4984 -1.0964 -1.5446
17593TIP3    H274271   5.032   2.836   0.659 -1.5359  1.6668  1.6303
17594TIP3   OH274272   1.754   5.386  12.918 -0.0779 -0.5920 -0.2940
17594TIP3    H174273   1.845   5.372  12.942  0.2189  0.6148 -0.6356
17594TIP3    H274274   1.715   5.299  12.917  1.3204 -1.2298 -1.1055
17595TIP3   OH274275   4.622   0.720   5.806  0.0464 -0.1605  0.2077
17595TIP3    H174276   4.588   0.776   5.736 -0.4200 -1.1156 -0.3411
17595TIP3    H274277   4.559   0.649   5.814  0.3746 -0.3653  1.2369
17596TIP3   OH274278   2.977   3.232   4.839 -0.1042  0.1823  0.4667
17596TIP3    H174279   2.938   3.154   4.878  0.0732 -0.2804 -0.2575
17596TIP3    H274280   2.931   3.243   4.756  2.0444 -1.0953 -1.0029
17597TIP3   OH274281   1.525   6.555  13.139  0.3586  0.8184  0.2092
17597TIP3    H174282   1.474   6.636  13.135 -1.3690 -0.1920  0.7654
17597TIP3    H274283   1.465   6.488  13.106  1.7767 -0.2303 -0.2850
17598TIP3   OH274284   0.845   4.989  12.675  0.0572 -0.3768 -0.2143
17598TIP3    H174285   0.923   5.043  12.691 -1.3021  1.2562  1.4365
17598TIP3    H274286   0.854   4.959  12.585  1.8451  1.0344 -0.5648
17599TIP3   OH274287   3.301   1.183  16.926  0.3198  0.1400  0.4633
17599TIP3    H174288   3.239   1.235  16.874  1.5380  1.3525  0.1578
17599TIP3    H274289   3.295   1.095  16.890  1.2538  0.9653 -1.9236
17600TIP3   OH274290   1.653   6.760  15.674 -0.3502  0.3539  0.6098
17600TIP3    H174291   1.723   6.719  15.725 -0.2493  0.4919  0.5830
17600TIP3    H274292   1.617   6.688  15.622 -1.7634 -0.2230  2.2978
17601TIP3   OH274293   0.436   3.751   3.654 -0.0245 -0.5367 -0.1584
17601TIP3    H174294   0.503   3.815   3.628 -1.8478  0.8116 -1.9182
17601TIP3    H274295   0.374   3.751   3.580 -1.4171 -2.4760  0.9396
17602TIP3   OH274296   2.522   2.931   3.918 -0.1421  0.3007  0.6938
17602TIP3    H174297   2.537   2.846   3.959 -2.0938 -0.9308 -0.9374
17602TIP3    H274298   2.453   2.971   3.970  1.8616  1.6594  2.4141
17603TIP3   OH274299   5.652   2.998  14.859  0.6921 -0.9118 -0.0432
17603TIP3    H174300   5.598   2.945  14.918 -0.5999  2.5326  2.2108
17603TIP3    H274301   5.593   3.022  14.788  0.5612 -0.6646  0.1462
17604TIP3   OH274302   5.930   1.382   3.135 -0.4729  0.1534 -0.2038
17604TIP3    H174303   5.835   1.394   3.144 -0.5958  0.8664 -2.0314
17604TIP3    H274304   5.957   1.451   3.075  1.4420  0.7400  1.2367
17605TIP3   OH274305   5.535   3.237   3.346  0.1572  0.1781 -0.1717
17605TIP3    H174306   5.503   3.289   3.272  0.9012  1.3465  0.2895
17605TIP3    H274307   5.624   3.212   3.321 -0.1649 -0.8285 -0.3497
17606TIP3   OH274308   2.813   1.060   5.504  0.1148 -0.1754  0.4176
17606TIP3    H174309   2.860   1.074   5.587 -0.2477 -0.3674  0.6614
17606TIP3    H274310   2.721   1.078   5.526  0.1418  0.7891 -0.1988
17607TIP3   OH274311   1.111   2.439   1.559 -0.2481  0.2862  1.0047
17607TIP3    H174312   1.080   2.476   1.476  1.6413 -0.6119 -0.1577
17607TIP3    H274313   1.056   2.362   1.572 -0.8136  0.6465  0.8027
17608TIP3   OH274314   4.526   2.062   4.035 -0.1213  0.1217 -0.3312
17608TIP3    H174315   4.467   1.991   4.062  1.7019 -0.4918  2.5262
17608TIP3    H274316   4.468   2.137   4.021 -1.8128 -1.1146 -0.3118
17609TIP3   OH274317   5.084   5.044   0.179 -0.1432 -0.1495 -0.2945
17609TIP3    H174318   5.171   5.026   0.215  0.0428  0.8775 -0.2074
17609TIP3    H274319   5.051   5.116   0.232 -1.1412 -0.6531 -0.2055
17610TIP3   OH274320   0.212   3.149   1.736  0.0914  0.1801 -0.3077
17610TIP3    H174321   0.175   3.126   1.821  0.1511  0.2522 -0.2617
17610TIP3    H274322   0.302   3.116   1.739 -0.3433 -1.1216 -0.8961
17611TIP3   OH274323   2.366   1.850  14.059  0.0525  0.0316 -0.6805
17611TIP3    H174324   2.458   1.875  14.047  1.0575 -1.6143  2.3569
17611TIP3    H274325   2.357   1.770  14.007  1.3612 -1.5160  1.3052
17612TIP3   OH274326   3.358   6.183   0.713 -0.0405  0.2132  0.1216
17612TIP3    H174327   3.357   6.270   0.672  2.4152  0.5253  0.5661
17612TIP3    H274328   3.335   6.123   0.642  0.6402  1.0443 -0.8301
17613TIP3   OH274329   1.711   0.998  12.250  0.2213  0.3712 -0.2547
17613TIP3    H174330   1.647   0.995  12.322  0.5124 -1.2853 -0.0214
17613TIP3    H274331   1.705   0.911  12.210  0.6713  0.9845 -1.7240
17614TIP3   OH274332   4.841   0.276  14.752 -0.1599  0.4843 -0.3623
17614TIP3    H174333   4.860   0.365  14.782  2.4738 -0.0261 -0.3429
17614TIP3    H274334   4.795   0.236  14.826 -0.0879  1.3817  0.1851
17615TIP3   OH274335   6.701   1.302   4.340 -0.5104 -0.1453  0.2930
17615TIP3    H174336   6.607   1.303   4.356 -0.4005  0.3366  0.8917
17615TIP3    H274337   6.709   1.264   4.252 -1.1345 -2.3855  1.1239
17616TIP3   OH274338   5.512   3.979   2.065 -0.3395  0.0307 -0.7698
17616TIP3    H174339   5.429   4.009   2.101 -0.5878 -1.4476 -0.0134
17616TIP3    H274340   5.577   4.043   2.095 -0.9945  0.4321 -0.2016
17617TIP3   OH274341   4.133   3.606  11.453  0.0056 -0.2145 -0.0379
17617TIP3    H174342   4.228   3.603  11.438  0.3861  1.5978  1.5540
17617TIP3    H274343   4.100   3.664  11.384  0.4177  0.8696  0.6386
17618TIP3   OH274344   1.765   3.949   0.609  0.0412 -0.2207 -0.5564
17618TIP3    H174345   1.739   3.978   0.521 -2.7274  2.5729  0.9918
17618TIP3    H274346   1.850   3.991   0.624 -1.2008  2.4991 -0.5976
17619TIP3   OH274347   2.829   5.341  15.895 -0.3380  0.1374 -0.4438
17619TIP3    H174348   2.895   5.370  15.832  1.2475 -1.0951  0.5844
17619TIP3    H274349   2.833   5.405  15.966 -0.1848  0.0200 -0.3453
17620TIP3   OH274350   5.429   1.699  11.060 -0.0262 -0.1256 -0.6848
17620TIP3    H174351   5.448   1.791  11.041  3.5315 -0.3917  0.7625
17620TIP3    H274352   5.360   1.702  11.126  0.4984  1.5770 -0.1485
17621TIP3   OH274353   1.911   6.758  16.499  0.3663  1.0058 -0.3133
17621TIP3    H174354   1.825   6.723  16.524  0.7243  0.1588 -0.2505
17621TIP3    H274355   1.922   6.836  16.554 -0.4470  1.2526 -0.4735
17622TIP3   OH274356   4.841   5.161  10.324  0.4470 -0.3978 -0.0254
17622TIP3    H174357   4.821   5.236  10.268  0.2377  0.2131  0.8488
17622TIP3    H274358   4.927   5.181  10.361  1.3241 -1.5511 -1.3381
17623TIP3   OH274359   4.910   4.503  13.958  0.0787  0.0907  0.0982
17623TIP3    H174360   4.972   4.504  14.031 -0.8766  1.5858  0.9298
17623TIP3    H274361   4.898   4.595  13.935  0.3151 -0.3434 -1.9507
17624TIP3   OH274362   6.232   0.247  17.169 -0.6056  0.2053  0.2977
17624TIP3    H174363   6.198   0.160  17.190 -2.9781  1.1585  0.7328
17624TIP3    H274364   6.184   0.306  17.227  0.1904  1.9138 -0.7047
17625TIP3   OH274365   0.292   3.428   2.954  0.4644 -0.8776  0.1405
17625TIP3    H174366   0.364   3.389   3.003 -1.4520 -3.2667  1.2614
17625TIP3    H274367   0.333   3.462   2.875  3.1421  0.0442  1.8004
17626TIP3   OH274368   1.278   5.528   2.604  0.3657  0.0083  0.5028
17626TIP3    H174369   1.278   5.454   2.544  2.0807  0.1392  0.2960
17626TIP3    H274370   1.338   5.591   2.564 -2.1302  2.1844 -0.0989
17627TIP3   OH274371   5.199   5.287  11.352  0.0104 -0.4503  0.1467
17627TIP3    H174372   5.128   5.235  11.389 -0.8217  0.2360 -0.4468
17627TIP3    H274373   5.156   5.362  11.311  0.8196 -1.2275 -2.3419
17628TIP3   OH274374   0.507   0.708   3.554  0.3325  0.2063 -0.2423
17628TIP3    H174375   0.563   0.759   3.495  1.3883  2.1892  2.2697
17628TIP3    H274376   0.478   0.771   3.620 -1.7109 -1.6399  0.7417
17629TIP3   OH274377   6.720   6.426  16.172 -0.1825  0.2257  0.0741
17629TIP3    H174378   6.736   6.421  16.266 -2.3280 -0.5736  0.4581
17629TIP3    H274379   6.729   6.519  16.151  0.9015  0.3336  0.9146
17630TIP3   OH274380   4.997   2.768   5.835  0.5098 -0.0843  0.7137
17630TIP3    H174381   4.945   2.741   5.910 -1.3670  3.0166  0.6733
17630TIP3    H274382   5.055   2.836   5.869  2.6615 -1.5063  0.1317
17631TIP3   OH274383   2.328   6.565  16.631 -0.2109 -0.0744  0.9520
17631TIP3    H174384   2.248   6.512  16.632  1.3175 -2.5294  0.7911
17631TIP3    H274385   2.370   6.546  16.715  1.1647 -0.4161  0.2089
17632TIP3   OH274386   1.442   2.266   3.363 -0.3817 -0.1415 -1.0232
17632TIP3    H174387   1.462   2.225   3.280  2.6970  0.5600 -0.7726
17632TIP3    H274388   1.355   2.234   3.386 -0.7223 -1.4784 -3.7773
17633TIP3   OH274389   6.793   5.821  17.032  0.4173  0.8293  0.3235
17633TIP3    H174390   6.868   5.774  16.994 -0.6835 -1.2994  0.6412
17633TIP3    H274391   6.796   5.907  16.990  2.2298  0.3264 -0.7127
17634TIP3   OH274392   3.300   4.762   2.701  0.2629 -0.0538  0.2079
17634TIP3    H174393   3.282   4.817   2.625 -0.1653  1.2676  1.2229
17634TIP3    H274394   3.284   4.673   2.671 -1.6400  0.5682 -0.7745
17635TIP3   OH274395   2.808   0.415   0.272 -0.7772  0.2761  0.7394
17635TIP3    H174396   2.877   0.369   0.224 -0.3677  0.9493  0.6663
17635TIP3    H274397   2.727   0.372   0.245 -0.3374 -0.9327  1.3047
17636TIP3   OH274398   3.770   2.451   3.833 -0.1923  0.0576 -0.6847
17636TIP3    H174399   3.701   2.392   3.802 -1.9400  1.9986 -0.6547
17636TIP3    H274400   3.745   2.472   3.923  1.4868 -0.6550 -0.0114
17637TIP3   OH274401   6.477   6.664   5.826 -0.2170  0.0093 -0.2484
17637TIP3    H174402   6.562   6.682   5.866  0.0662  2.9940 -1.9113
17637TIP3    H274403   6.456   6.575   5.853  1.2121  0.7512  4.0429
17638TIP3   OH274404   6.636   3.766   2.738 -0.4681 -0.0672  0.1076
17638TIP3    H174405   6.717   3.754   2.787 -0.0809  0.4739 -0.3908
17638TIP3    H274406   6.662   3.759   2.646 -0.6275  1.9873 -0.1386
17639TIP3   OH274407   6.289   3.945  11.552  0.2906 -0.9821  0.6857
17639TIP3    H174408   6.282   3.878  11.484 -1.0248 -2.0615  1.8229
17639TIP3    H274409   6.298   4.028  11.504  1.5872 -1.9049 -0.7520
17640TIP3   OH274410   3.719   6.397  13.521  0.0088  0.2190 -0.4734
17640TIP3    H174411   3.724   6.305  13.495  0.7877  0.0517  0.2031
17640TIP3    H274412   3.639   6.404  13.572 -1.2430  0.4288 -2.3529
17641TIP3   OH274413   6.821   6.002   3.232 -0.0891 -0.0854  0.4952
17641TIP3    H174414   6.758   6.010   3.161  0.4075 -1.9254 -0.2202
17641TIP3    H274415   6.778   5.944   3.296 -0.9865  2.4188  2.2979
17642TIP3   OH274416   5.960   4.511   2.783 -0.0921  0.0890 -0.9121
17642TIP3    H174417   5.966   4.453   2.858 -1.6152  2.6007  1.3164
17642TIP3    H274418   5.906   4.463   2.720 -3.5013 -0.1057  1.8616
17643TIP3   OH274419   3.634   0.374   1.162  0.1108 -0.5239  0.1414
17643TIP3    H174420   3.725   0.401   1.152 -0.4891  1.8677  0.6410
17643TIP3    H274421   3.616   0.322   1.083  0.6598  2.7118 -2.3407
17644TIP3   OH274422   5.930   4.855   2.465 -0.3600  0.2207 -0.0768
17644TIP3    H174423   5.838   4.884   2.461 -0.8253 -1.2977 -1.3588
17644TIP3    H274424   5.952   4.857   2.558 -1.5727  0.9711  0.2158
17645TIP3   OH274425   2.521   6.108  10.753  0.4777 -0.2716  0.5099
17645TIP3    H174426   2.566   6.190  10.731 -0.3222 -0.2509 -1.2450
17645TIP3    H274427   2.543   6.049  10.681  0.3435 -1.3352  1.3219
17646TIP3   OH274428   3.552   2.181   1.764 -0.6817  0.1877  0.6345
17646TIP3    H174429   3.503   2.107   1.798 -1.9680  0.8564  0.3068
17646TIP3    H274430   3.580   2.230   1.842 -2.5899  1.0713  0.8148
17647TIP3   OH274431   1.745   6.024  16.243 -0.1250 -0.6030 -0.0281
17647TIP3    H174432   1.662   5.987  16.272 -0.1651 -1.6035 -1.3113
17647TIP3    H274433   1.739   6.117  16.264 -1.4500 -0.7155  0.1819
17648TIP3   OH274434   6.634   5.301  16.051  0.3786  0.6505  0.1480
17648TIP3    H174435   6.679   5.245  15.988  1.2976  0.7602  0.6954
17648TIP3    H274436   6.674   5.280  16.135  0.0824  1.4613  0.5029
17649TIP3   OH274437   6.405   5.012  11.555 -0.1349  0.1055 -0.0719
17649TIP3    H174438   6.414   4.970  11.641 -1.6223  0.4956  0.3132
17649TIP3    H274439   6.379   5.102  11.575 -2.7129 -0.3727 -0.8837
17650TIP3   OH274440   3.852   2.142  16.067  0.2457  0.5575 -0.1517
17650TIP3    H174441   3.759   2.162  16.064  0.4880  2.0623  0.8966
17650TIP3    H274442   3.894   2.213  16.019  1.0087  1.5225  1.8108
17651TIP3   OH274443   1.546   2.370  12.972  0.2553 -0.0006 -0.1074
17651TIP3    H174444   1.512   2.409  13.053  0.0431  0.7392 -0.5487
17651TIP3    H274445   1.639   2.355  12.991  0.3471  0.7312  0.0732
17652TIP3   OH274446   0.609   0.327  12.528 -0.2722 -0.3110  0.4125
17652TIP3    H174447   0.606   0.331  12.432  1.3427 -0.5976  0.3200
17652TIP3    H274448   0.631   0.235  12.547  0.2789 -0.0592  1.0163
17653TIP3   OH274449   0.098   2.463  15.897  0.0296  0.3134 -0.5602
17653TIP3    H174450   0.132   2.374  15.904 -0.3081  0.2247  0.0069
17653TIP3    H274451   0.096   2.495  15.987  1.4582  1.3919 -0.8758
17654TIP3   OH274452   6.593   4.050  13.864  0.6435  0.0657 -0.1055
17654TIP3    H174453   6.547   4.068  13.783 -0.5546  2.0428  0.9238
17654TIP3    H274454   6.560   3.965  13.892 -1.6106  0.8910  0.0003
17655TIP3   OH274455   4.472   1.960   5.375 -0.1080 -0.0683  0.1624
17655TIP3    H174456   4.454   2.017   5.301  1.0742 -0.4594 -0.4486
17655TIP3    H274457   4.567   1.949   5.375 -0.2458 -1.5883  0.5847
17656TIP3   OH274458   5.543   5.175   4.759  0.2498  0.1855 -0.5017
17656TIP3    H174459   5.528   5.246   4.821  0.6310 -1.0578  1.0922
17656TIP3    H274460   5.629   5.141   4.781  0.4051 -0.2832 -1.7492
17657TIP3   OH274461   3.917   4.891   0.412  0.1963  0.4019  0.1140
17657TIP3    H174462   3.862   4.816   0.434 -0.1732  0.6273 -0.0218
17657TIP3    H274463   4.007   4.858   0.415  0.2271  0.5129  2.4533
17658TIP3   OH274464   0.794   6.062  12.169 -0.2279 -0.1984  0.1208
17658TIP3    H174465   0.787   5.994  12.102  1.7915 -0.2419 -0.1072
17658TIP3    H274466   0.888   6.071  12.184 -0.3031  3.2965 -0.6250
17659TIP3   OH274467   4.784   6.040  15.727 -0.0561 -0.6324  0.0206
17659TIP3    H174468   4.811   6.006  15.642 -1.1583 -1.4313 -0.0365
17659TIP3    H274469   4.847   6.003  15.789  0.9887  0.2765 -0.4859
17660TIP3   OH274470   6.117   2.539   4.149  0.0716  0.8225  0.2905
17660TIP3    H174471   6.049   2.566   4.211  1.8941  0.9026  2.3814
17660TIP3    H274472   6.116   2.606   4.081 -1.3597  1.2594  0.7129
17661TIP3   OH274473   5.604   4.466  12.621 -0.1599  0.3818  0.1602
17661TIP3    H174474   5.585   4.429  12.535 -1.2033 -1.0792  0.9643
17661TIP3    H274475   5.686   4.514  12.610  1.0044 -1.7638 -1.0997
17662TIP3   OH274476   6.046   5.843   4.128 -0.4345  0.0585  0.0003
17662TIP3    H174477   5.971   5.815   4.076 -0.3316  1.0154 -0.6742
17662TIP3    H274478   6.069   5.765   4.179 -1.7905 -0.3012  0.1261
17663TIP3   OH274479   4.306   1.712   5.237  0.1880 -0.0305  0.2003
17663TIP3    H174480   4.246   1.678   5.304  0.8225 -0.8708  0.3680
17663TIP3    H274481   4.381   1.652   5.241 -0.3003 -0.8700 -2.1528
17664TIP3   OH274482   3.707   0.750   2.669 -0.2417  0.7330 -0.3000
17664TIP3    H174483   3.719   0.657   2.687  0.7123  0.7468 -0.7744
17664TIP3    H274484   3.665   0.785   2.748  0.7852  0.1786  0.5182
17665TIP3   OH274485   2.001   2.412  10.771  0.3033 -0.1050  0.0894
17665TIP3    H174486   2.040   2.371  10.848 -0.7348  3.1823  2.5552
17665TIP3    H274487   1.907   2.412  10.788 -0.1479 -0.8379 -2.0610
17666TIP3   OH274488   0.330   4.513   4.635 -0.1514 -0.1394 -0.2461
17666TIP3    H174489   0.259   4.576   4.643  0.2818  0.4035 -0.6577
17666TIP3    H274490   0.286   4.428   4.625 -0.7329  0.0378  0.6447
17667TIP3   OH274491   4.186   4.850  14.366 -0.2039 -0.0986 -0.6038
17667TIP3    H174492   4.181   4.812  14.454  0.3619  1.0905 -0.0331
17667TIP3    H274493   4.279   4.845  14.344 -0.3251 -0.2661 -1.0768
17668TIP3   OH274494   5.958   4.149   4.097  0.4631  0.0501 -0.1345
17668TIP3    H174495   6.010   4.210   4.045  2.7740 -1.3157  0.4265
17668TIP3    H274496   5.943   4.075   4.039  0.9690 -0.4513  0.3669
17669TIP3   OH274497   5.534   5.446   4.507  0.6845  0.1077 -0.3794
17669TIP3    H174498   5.596   5.442   4.579  1.1004 -1.6103 -0.7754
17669TIP3    H274499   5.491   5.531   4.517 -0.1918 -0.5536  2.6613
17670TIP3   OH274500   0.154   4.933  13.206  0.5510 -0.1486 -0.0519
17670TIP3    H174501   0.134   4.852  13.159 -0.0375  0.0702 -0.1886
17670TIP3    H274502   0.125   4.917  13.296  1.4073 -0.4628  0.1787
17671TIP3   OH274503   4.150   1.208   2.497 -0.1547  0.7868 -0.1223
17671TIP3    H174504   4.095   1.286   2.499  0.2882  1.1246 -0.6461
17671TIP3    H274505   4.106   1.145   2.554  0.1707  1.8639  1.3522
17672TIP3   OH274506   2.690   2.462  13.021  0.3300 -0.5580 -0.2421
17672TIP3    H174507   2.662   2.533  12.964 -1.7304 -0.8214  0.3452
17672TIP3    H274508   2.751   2.503  13.082  1.4198  0.0337 -1.6862
17673TIP3   OH274509   4.969   5.546  15.014  0.6941 -0.3222 -0.0128
17673TIP3    H174510   4.927   5.606  14.952 -0.0811 -0.6953  0.1325
17673TIP3    H274511   5.039   5.598  15.053 -0.9889  1.0849  1.3260
17674TIP3   OH274512   3.348   6.467   5.688  0.2640  0.0866 -0.6218
17674TIP3    H174513   3.303   6.551   5.674  0.0202  0.4094  1.6350
17674TIP3    H274514   3.436   6.492   5.716 -0.0157 -0.3396  0.7284
17675TIP3   OH274515   3.900   1.830   1.825 -0.9413  0.3556 -0.1720
17675TIP3    H174516   3.945   1.787   1.753 -0.3119  1.6962 -0.6137
17675TIP3    H274517   3.871   1.914   1.789 -2.2840  0.2582  0.6054
17676TIP3   OH274518   0.450   0.741   1.425 -0.1511 -0.2613  0.1124
17676TIP3    H174519   0.520   0.707   1.480 -0.0578 -0.9381 -0.4191
17676TIP3    H274520   0.406   0.806   1.480  0.7235 -0.0213  0.5425
17677TIP3   OH274521   4.607   0.376  16.270 -0.1342  0.2827  0.3531
17677TIP3    H174522   4.603   0.282  16.286 -0.2029  0.2277  0.0172
17677TIP3    H274523   4.694   0.391  16.233 -0.0444  0.3835  0.6010
17678TIP3   OH274524   0.899   5.563  17.112  0.0704  0.0402  0.3334
17678TIP3    H174525   0.813   5.591  17.080  0.1961  0.4498  0.3501
17678TIP3    H274526   0.928   5.634  17.169  0.7907  0.3049 -0.3452
17679TIP3   OH274527   5.491   0.379   1.690  0.6671  0.7553 -0.0250
17679TIP3    H174528   5.565   0.378   1.751  1.2128  1.7297 -0.6343
17679TIP3    H274529   5.467   0.472   1.684  0.3509  0.6217 -0.9629
17680TIP3   OH274530   6.332   5.070  16.729 -0.2550 -0.1030  0.4578
17680TIP3    H174531   6.251   5.029  16.698  0.1692  0.0443 -0.9352
17680TIP3    H274532   6.383   5.085  16.649  2.0134 -1.9927  1.4288
17681TIP3   OH274533   0.282   6.196  12.437 -0.1451  0.1001  0.0793
17681TIP3    H174534   0.247   6.202  12.348 -0.3773  0.8104  0.2105
17681TIP3    H274535   0.218   6.141  12.483 -2.6390  3.4140  0.9920
17682TIP3   OH274536   5.740   2.846  11.302 -0.1423 -0.5231 -0.1992
17682TIP3    H174537   5.705   2.763  11.334 -0.3965 -0.4666 -0.3320
17682TIP3    H274538   5.765   2.827  11.211 -1.4995 -0.0805 -0.6810
17683TIP3   OH274539   4.900   5.452   2.855  0.6901  0.6199 -0.1207
17683TIP3    H174540   4.819   5.465   2.904  0.3224  0.0382 -0.5456
17683TIP3    H274541   4.941   5.376   2.897  0.3110  0.0385 -0.7584
17684TIP3   OH274542   5.402   3.360   0.941  0.2958  0.1085  0.6444
17684TIP3    H174543   5.407   3.268   0.916 -2.6183 -0.1802  0.8282
17684TIP3    H274544   5.462   3.404   0.881 -0.5582 -1.5619 -1.5857
17685TIP3   OH274545   5.323   2.872   3.544 -0.2078  0.3497  0.2572
17685TIP3    H174546   5.237   2.915   3.540 -0.7091 -0.6363 -3.1816
17685TIP3    H274547   5.380   2.929   3.493  0.4942 -0.3438  0.2528
17686TIP3   OH274548   2.912   4.158   5.854 -0.2724  0.2954 -0.8499
17686TIP3    H174549   2.872   4.073   5.838  0.5608 -0.1301 -0.7117
17686TIP3    H274550   2.949   4.151   5.941  2.9333 -0.4884 -2.1297
17687TIP3   OH274551   1.841   6.694   4.850 -0.0993  0.0335 -0.3940
17687TIP3    H174552   1.776   6.721   4.915 -0.5250  0.2691 -0.9112
17687TIP3    H274553   1.922   6.685   4.899 -0.8662 -2.0078  0.6469
17688TIP3   OH274554   6.133   1.161   0.843  0.0078 -0.1933 -0.4644
17688TIP3    H174555   6.100   1.092   0.902 -0.0818  0.5222  0.3294
17688TIP3    H274556   6.197   1.116   0.788 -2.3600 -1.7275 -2.2248
17689TIP3   OH274557   4.695   3.047   5.316 -0.5162 -0.3320 -0.0109
17689TIP3    H174558   4.770   3.105   5.327 -1.4862  0.7797  1.0476
17689TIP3    H274559   4.620   3.098   5.347 -1.7360 -1.3767 -1.1107
17690TIP3   OH274560   2.922   3.195  13.509  0.3096 -0.3640 -0.1538
17690TIP3    H174561   2.994   3.141  13.478  0.9539  0.7180 -0.6023
17690TIP3    H274562   2.845   3.139  13.504  0.9901 -1.2793 -0.4365
17691TIP3   OH274563   3.569   0.932  17.234  0.5142 -0.6406 -0.0516
17691TIP3    H174564   3.538   0.885  17.311 -1.5203 -0.7821 -0.9018
17691TIP3    H274565   3.606   1.013  17.268 -0.8914 -0.4278  1.0442
17692TIP3   OH274566   4.583   3.294   6.375  0.0201 -0.1565  0.0329
17692TIP3    H174567   4.587   3.385   6.405  1.3103 -0.5350  1.1484
17692TIP3    H274568   4.490   3.273   6.374 -0.2412  0.8486  0.8407
17693TIP3   OH274569   1.074   2.108   1.989  0.7608 -0.6015 -0.1615
17693TIP3    H174570   1.141   2.056   1.946  0.5970  0.3613 -1.6724
17693TIP3    H274571   1.001   2.048   2.002  0.5394 -0.7775 -1.9413
17694TIP3   OH274572   3.524   1.554   4.137  0.6032 -0.3336  0.3986
17694TIP3    H174573   3.482   1.526   4.219 -0.6504  0.8727  0.2047
17694TIP3    H274574   3.563   1.639   4.158 -1.2799  0.8596 -0.6755
17695TIP3   OH274575   1.057   2.592  13.100 -0.1795 -0.1373 -0.4644
17695TIP3    H174576   0.967   2.588  13.130  0.4355 -2.7713  1.3503
17695TIP3    H274577   1.104   2.635  13.172  0.1198  0.7484 -1.1709
17696TIP3   OH274578   6.615   3.958  11.884  0.0666  0.4266  0.7273
17696TIP3    H174579   6.599   3.991  11.796 -1.1476  1.4832  1.3037
17696TIP3    H274580   6.696   3.908  11.877 -0.1629  0.2515 -1.0340
17697TIP3   OH274581   5.800   2.416  12.450 -0.1224 -0.4325 -0.7083
17697TIP3    H174582   5.843   2.488  12.495 -1.1997 -0.3710  0.2716
17697TIP3    H274583   5.870   2.371  12.403  0.9670 -0.2328  0.6797
17698TIP3   OH274584   5.746   2.027   5.449  0.1710 -0.4057 -0.0328
17698TIP3    H174585   5.666   2.021   5.501  0.1126  2.1027  0.3206
17698TIP3    H274586   5.725   1.983   5.367 -0.2621 -3.0451  1.4027
17699TIP3   OH274587   2.364   6.126   4.710 -0.3079  0.0674  0.0653
17699TIP3    H174588   2.291   6.161   4.760 -1.1286 -1.3095 -0.1193
17699TIP3    H274589   2.385   6.195   4.646 -2.3580 -0.0515 -0.8003
17700TIP3   OH274590   5.700   2.127  15.119  0.2403 -0.1643  0.7777
17700TIP3    H174591   5.629   2.189  15.103 -0.8021 -1.4788  0.0975
17700TIP3    H274592   5.779   2.174  15.094 -0.6803  0.3280 -1.5261
17701TIP3   OH274593   3.903   2.989   1.000  0.3632  0.1106  0.1019
17701TIP3    H174594   3.860   2.993   0.915  2.2002  1.0649 -0.8561
17701TIP3    H274595   3.935   2.899   1.007  1.0958  0.2961 -0.7074
17702TIP3   OH274596   4.040   6.053   4.686  0.2390  0.1060  0.0181
17702TIP3    H174597   4.071   6.042   4.775 -0.5289  0.4802  0.3475
17702TIP3    H274598   4.070   6.141   4.661 -0.3144  0.3658  0.2448
17703TIP3   OH274599   1.770   2.203  11.993  0.3297 -0.0883 -0.2429
17703TIP3    H174600   1.699   2.180  11.934 -1.4480  2.7119  0.5892
17703TIP3    H274601   1.737   2.182  12.081  0.9147  0.3199  0.0853
17704TIP3   OH274602   3.755   1.156  16.094  0.2302 -0.1749  0.2773
17704TIP3    H174603   3.691   1.130  16.027 -0.2454  0.3516  0.5158
17704TIP3    H274604   3.711   1.137  16.177  1.2872 -1.9753  0.4623
17705TIP3   OH274605   3.210   2.371  13.857  0.7803 -0.2751  0.0644
17705TIP3    H174606   3.167   2.456  13.866 -0.0033 -0.6922  0.3478
17705TIP3    H274607   3.181   2.338  13.772  1.6195  0.0252 -0.3509
17706TIP3   OH274608   4.690   2.010  12.390  0.3716  0.1855 -0.5163
17706TIP3    H174609   4.678   2.047  12.302  2.6167 -0.0044 -0.9436
17706TIP3    H274610   4.784   2.000  12.400  0.2224  0.6363  2.1272
17707TIP3   OH274611   4.257   5.333  12.689  0.3997 -0.8412 -0.2127
17707TIP3    H174612   4.169   5.368  12.676  0.9019  0.2963 -0.6712
17707TIP3    H274613   4.311   5.409  12.708  1.3035 -1.5157  0.0024
17708TIP3   OH274614   2.421   1.832  12.196  0.3553 -0.2360 -0.1044
17708TIP3    H174615   2.326   1.820  12.200  0.2303  0.0520 -1.5764
17708TIP3    H274616   2.453   1.802  12.281 -0.8734 -1.9581 -0.2031
17709TIP3   OH274617   0.965   0.233  14.833  0.0621 -0.3506  0.0533
17709TIP3    H174618   1.015   0.188  14.901 -0.2472 -2.0644 -0.7994
17709TIP3    H274619   1.002   0.200  14.751 -0.0784  1.0992 -0.6196
17710TIP3   OH274620   4.375   4.354  16.053 -0.7789  0.7566  0.0799
17710TIP3    H174621   4.316   4.376  16.125 -1.6369 -2.3434  0.4670
17710TIP3    H274622   4.320   4.307  15.991  0.6886  0.3826 -0.9887
17711TIP3   OH274623   4.922   0.987   3.307  0.1647 -0.7135  0.1508
17711TIP3    H174624   4.833   0.984   3.272  1.1731 -1.4570 -2.6515
17711TIP3    H274625   4.954   0.897   3.302  1.9686 -0.0698 -1.6995
17712TIP3   OH274626   1.158   6.590   2.950  0.3276  0.4724  0.1683
17712TIP3    H174627   1.148   6.679   2.916  1.4811  1.7384  2.7950
17712TIP3    H274628   1.247   6.587   2.984  0.2990 -1.7036  0.1881
17713TIP3   OH274629   6.384   1.066   3.102 -0.3487 -0.0731 -0.2172
17713TIP3    H174630   6.411   1.008   3.031  0.5435  0.7867 -0.6069
17713TIP3    H274631   6.330   1.133   3.060  1.1999  1.1548 -0.3492
17714TIP3   OH274632   1.090   0.915   1.971 -0.5353  0.2416  0.5240
17714TIP3    H174633   1.122   0.956   1.890 -1.6446 -0.6077 -0.3777
17714TIP3    H274634   1.055   0.988   2.022 -1.5529  0.5666 -0.6094
17715TIP3   OH274635   6.185   4.780  11.666 -0.3299 -0.3443 -0.0751
17715TIP3    H174636   6.139   4.708  11.623 -2.2211  0.4184  0.5482
17715TIP3    H274637   6.253   4.738  11.718 -0.9211 -1.6182 -0.2985
17716TIP3   OH274638   3.518   4.078   6.023  0.0928  0.1712  0.2156
17716TIP3    H174639   3.473   4.027   6.091 -0.7947  0.8427  0.1418
17716TIP3    H274640   3.611   4.065   6.042 -0.0783 -1.9698 -0.1705
17717TIP3   OH274641   1.119   2.662   0.833 -0.1031  0.3771 -0.1728
17717TIP3    H174642   1.201   2.613   0.826  0.2285  0.9527 -0.4072
17717TIP3    H274643   1.079   2.632   0.915  0.2664 -0.0244 -0.1420
17718TIP3   OH274644   3.294   0.915  12.366  0.1901  0.3163  0.5425
17718TIP3    H174645   3.233   0.871  12.426  2.5223 -1.1368  2.0302
17718TIP3    H274646   3.315   0.848  12.301  0.3478  0.7141  0.1838
17719TIP3   OH274647   1.434   2.274  16.701  0.6455 -0.6570  0.5551
17719TIP3    H174648   1.362   2.217  16.728 -0.7091 -0.0444 -1.4943
17719TIP3    H274649   1.390   2.355  16.674  2.4019  0.9207  2.1589
17720TIP3   OH274650   3.545   5.252   1.260 -0.1070  0.1666 -0.8524
17720TIP3    H174651   3.456   5.279   1.283  0.3864  1.2496 -0.0768
17720TIP3    H274652   3.574   5.199   1.334 -0.0597 -0.0789 -1.0449
17721TIP3   OH274653   5.125   3.217  15.069  0.4015  0.0728  0.5621
17721TIP3    H174654   5.141   3.134  15.024 -0.3689 -0.0473  0.5038
17721TIP3    H274655   5.111   3.280  14.998 -3.4048 -0.5982  0.5191
17722TIP3   OH274656   1.006   2.809  15.439  0.0272 -0.4492  0.1343
17722TIP3    H174657   0.981   2.836  15.527  3.6530  2.9344  0.4024
17722TIP3    H274658   0.935   2.840  15.383 -0.3567  1.2545  1.5043
17723TIP3   OH274659   5.189   0.311   2.980  0.0675  0.1333 -0.2320
17723TIP3    H174660   5.105   0.358   2.976 -0.2633 -0.4893 -0.9666
17723TIP3    H274661   5.249   0.365   2.930  0.3627  1.0582  1.0776
17724TIP3   OH274662   0.385   4.337  13.203 -0.4186  0.5335 -0.2458
17724TIP3    H174663   0.376   4.379  13.118  2.2286  1.9552  0.0520
17724TIP3    H274664   0.365   4.245  13.187  0.5981  0.6516 -2.5796
17725TIP3   OH274665   5.419   0.919  14.452  0.6553  0.5992 -0.2186
17725TIP3    H174666   5.421   1.009  14.418 -0.3802  1.1184  1.0059
17725TIP3    H274667   5.362   0.873  14.391 -0.8988  1.4381  0.5259
17726TIP3   OH274668   0.671   5.667  12.488 -0.4544 -0.7094 -0.6123
17726TIP3    H174669   0.745   5.665  12.427 -0.4194  0.7094 -0.6374
17726TIP3    H274670   0.687   5.593  12.547  1.6170  0.2301  0.1119
17727TIP3   OH274671   3.918   0.696  14.947  0.2729  0.2055 -0.0509
17727TIP3    H174672   3.863   0.773  14.931  1.3660  1.1509  0.5823
17727TIP3    H274673   3.926   0.654  14.861 -0.2256  0.8683 -0.4302
17728TIP3   OH274674   2.853   5.309  11.643  1.1912 -0.1304 -0.1039
17728TIP3    H174675   2.760   5.315  11.664  1.4222  0.5413  0.7997
17728TIP3    H274676   2.856   5.316  11.548  0.2794 -0.7802 -0.2007
17729TIP3   OH274677   4.662   3.516  13.778  0.2879 -0.7259 -0.1265
17729TIP3    H174678   4.722   3.545  13.846  1.5633  0.4892 -1.6999
17729TIP3    H274679   4.717   3.476  13.711 -0.8028 -0.8622 -0.9854
17730TIP3   OH274680   6.046   0.667   3.251 -0.1423  0.9713 -1.1029
17730TIP3    H174681   6.033   0.697   3.341  1.1021  0.4997 -0.7451
17730TIP3    H274682   5.976   0.709   3.202 -1.0331  0.9898  0.1338
17731TIP3   OH274683   4.148   0.487   3.444 -0.0773 -0.4344  0.0643
17731TIP3    H174684   4.172   0.401   3.480  1.6104  0.2164  0.5718
17731TIP3    H274685   4.126   0.469   3.352  2.6361 -1.1261 -0.5464
17732TIP3   OH274686   1.109   3.576   3.374 -0.3007  0.2155 -0.0542
17732TIP3    H174687   1.155   3.613   3.298 -1.6013  1.0836 -0.4531
17732TIP3    H274688   1.174   3.519   3.416  0.3169 -0.6923 -2.0959
17733TIP3   OH274689   3.763   5.266  14.872  0.3908 -0.1737  1.0179
17733TIP3    H174690   3.829   5.296  14.934  0.2011 -0.8397  1.5521
17733TIP3    H274691   3.709   5.343  14.855  0.4070 -0.0051  1.7197
17734TIP3   OH274692   6.511   1.300   2.719 -0.3322 -0.7022  0.2234
17734TIP3    H174693   6.513   1.205   2.722 -1.3824 -0.8909 -2.2684
17734TIP3    H274694   6.510   1.321   2.625  0.1905  1.7733  0.6948
17735TIP3   OH274695   3.277   1.971   6.114  1.1295  0.1394  0.1003
17735TIP3    H174696   3.203   2.007   6.065  0.4489 -0.5552  0.5943
17735TIP3    H274697   3.317   2.047   6.156  0.6074  0.5066 -0.0506
17736TIP3   OH274698   4.860   5.746   3.442  0.0081 -0.3403  0.5104
17736TIP3    H174699   4.909   5.675   3.484  0.0286 -1.1072 -0.7787
17736TIP3    H274700   4.923   5.817   3.434  0.3400 -0.6122  0.6782
17737TIP3   OH274701   3.970   0.757  13.756 -0.7614  0.8052  0.0267
17737TIP3    H174702   3.976   0.770  13.662  1.2728  0.5390  0.0785
17737TIP3    H274703   3.979   0.662  13.768 -0.2506  0.9103  0.5214
17738TIP3   OH274704   5.101   6.052  10.670 -0.0456  0.3554  0.2615
17738TIP3    H174705   5.015   6.010  10.673  0.6984 -1.2707 -0.0217
17738TIP3    H274706   5.089   6.134  10.718 -2.2385  1.1245 -1.3979
17739TIP3   OH274707   1.935   3.673  16.834  0.0043 -0.4541  0.3021
17739TIP3    H174708   1.934   3.738  16.765  1.8893  0.6183  1.2124
17739TIP3    H274709   2.004   3.612  16.809 -0.5761 -1.1383  0.3268
17740TIP3   OH274710   6.597   3.203   2.229 -0.3964  0.8383  0.5234
17740TIP3    H174711   6.607   3.117   2.188  1.2844 -0.0045  2.5504
17740TIP3    H274712   6.679   3.248   2.210 -0.8559  1.6270  0.3585
17741TIP3   OH274713   0.045   2.383  16.338 -0.0475 -0.5196  0.4088
17741TIP3    H174714   0.039   2.333  16.420  1.9999 -1.2333  0.1654
17741TIP3    H274715   0.133   2.367  16.306 -0.6807  0.0514 -1.7801
17742TIP3   OH274716   6.071   1.702   4.257  0.0800  0.0380  0.1475
17742TIP3    H174717   6.003   1.764   4.284  0.8994  1.4361 -0.8762
17742TIP3    H274718   6.022   1.625   4.226 -1.0351  0.9139 -0.3334
17743TIP3   OH274719   3.401   3.818   4.960 -0.1320 -0.1949 -0.1741
17743TIP3    H174720   3.327   3.779   4.912 -0.6685 -0.8445  1.1247
17743TIP3    H274721   3.370   3.823   5.050  0.6473  1.5162  0.0347
17744TIP3   OH274722   6.489   2.549  12.884  0.4190 -0.2226  0.1802
17744TIP3    H174723   6.496   2.513  12.973  3.8741  1.9961  1.0087
17744TIP3    H274724   6.532   2.485  12.828  2.0334  0.2242  0.8508
17745TIP3   OH274725   5.342   0.881  11.516  0.1572  0.5119 -0.1265
17745TIP3    H174726   5.366   0.814  11.579  0.2474 -1.8031 -2.4554
17745TIP3    H274727   5.301   0.833  11.443  0.1584  2.9799 -1.9082
17746TIP3   OH274728   5.892   2.865   5.413  0.1786  0.7878 -0.4277
17746TIP3    H174729   5.796   2.866   5.420  0.2173 -0.9153  1.0020
17746TIP3    H274730   5.919   2.948   5.454 -0.6452  0.9639 -0.2156
17747TIP3   OH274731   1.759   1.968  12.183  0.2489 -0.1991  0.3620
17747TIP3    H174732   1.767   1.881  12.144 -0.2282  0.5189 -1.4244
17747TIP3    H274733   1.845   1.984  12.223  0.5121 -1.2632  0.2683
17748TIP3   OH274734   2.585   4.956  17.034  0.6941  0.3003  0.4261
17748TIP3    H174735   2.625   4.898  17.099 -0.7410  1.5664  2.5911
17748TIP3    H274736   2.491   4.944  17.047  0.3663  0.9144 -1.1677
17749TIP3   OH274737   4.128   5.339  13.615  0.9720  0.7092 -0.4445
17749TIP3    H174738   4.064   5.410  13.620  0.3981  0.2511 -1.0911
17749TIP3    H274739   4.158   5.328  13.705  0.5384  1.2915 -0.2187
17750TIP3   OH274740   5.437   6.414   1.367  0.0254 -0.1516 -0.1535
17750TIP3    H174741   5.386   6.484   1.407 -1.8289 -1.2239 -0.5078
17750TIP3    H274742   5.409   6.413   1.275 -1.3628 -2.4055  0.1976
17751TIP3   OH274743   4.446   4.773  14.327 -0.0830 -0.2597 -0.0782
17751TIP3    H174744   4.511   4.773  14.398 -1.5976 -0.7102  1.3912
17751TIP3    H274745   4.448   4.684  14.293  0.5524 -0.0825 -0.5092
17752TIP3   OH274746   0.469   2.308   4.359  0.1341 -0.0969 -0.0500
17752TIP3    H174747   0.381   2.274   4.343  0.4482 -0.5915 -0.8130
17752TIP3    H274748   0.467   2.398   4.326  0.5005 -0.7954 -2.1728
17753TIP3   OH274749   2.031   5.677  16.401 -0.1524 -0.2981 -0.4944
17753TIP3    H174750   1.973   5.640  16.335 -0.4070  0.5675 -0.7704
17753TIP3    H274751   2.029   5.771  16.384  0.3336 -0.1367  0.3055
17754TIP3   OH274752   2.521   2.365   1.098 -0.5601  0.7228 -0.3403
17754TIP3    H174753   2.502   2.294   1.037  0.6190  3.0138 -3.6326
17754TIP3    H274754   2.579   2.424   1.050  1.1887  2.3567  3.3461
17755TIP3   OH274755   2.443   4.616  13.111  0.1612 -1.1553  0.7181
17755TIP3    H174756   2.391   4.571  13.044 -0.3263 -1.8941  1.5672
17755TIP3    H274757   2.534   4.603  13.084 -0.0479 -0.8740 -0.1483
17756TIP3   OH274758   4.916   5.495   0.919 -0.4601  0.6963 -0.3880
17756TIP3    H174759   4.970   5.535   0.850 -0.3592 -0.4063 -0.9687
17756TIP3    H274760   4.951   5.530   1.000 -0.8012  2.2957 -0.8919
17757TIP3   OH274761   2.513   1.031   5.183 -0.2570 -0.1482 -0.0217
17757TIP3    H174762   2.469   1.095   5.127  0.4417 -0.3286 -0.7965
17757TIP3    H274763   2.444   0.998   5.241 -0.8459  0.5356 -0.3162
17758TIP3   OH274764   4.319   5.893  14.306 -0.1424  0.0509 -0.1559
17758TIP3    H174765   4.225   5.904  14.315  0.0336  1.2659  0.3838
17758TIP3    H274766   4.356   5.979  14.329  1.1226 -0.5489  0.1655
17759TIP3   OH274767   5.097   1.809  13.721  0.7038 -0.1923 -0.5128
17759TIP3    H174768   5.084   1.772  13.808 -1.2389  0.4941 -0.4660
17759TIP3    H274769   5.035   1.761  13.665  1.7929 -0.4999 -1.5066
17760TIP3   OH274770   3.440   1.738   5.305 -0.2978  0.6986  0.2018
17760TIP3    H174771   3.413   1.762   5.394 -1.3212  0.8932 -0.1528
17760TIP3    H274772   3.389   1.796   5.248  0.1221  0.3602 -0.5249
17761TIP3   OH274773   1.445   4.978  14.614 -0.3962 -0.2781 -0.4019
17761TIP3    H174774   1.394   4.910  14.659  1.6052 -1.6947 -0.1327
17761TIP3    H274775   1.426   4.965  14.521 -1.0044 -0.3649 -0.2700
17762TIP3   OH274776   4.491   1.820  12.941  0.4934  0.2015 -0.4992
17762TIP3    H174777   4.550   1.875  12.889  1.3298 -0.1828  0.0249
17762TIP3    H274778   4.448   1.764  12.876  0.6988  0.4886 -0.8902
17763TIP3   OH274779   6.346   4.338   4.969 -0.4197  0.0512  0.5012
17763TIP3    H174780   6.430   4.375   4.998 -0.7604  0.6540  0.7242
17763TIP3    H274781   6.280   4.401   4.999 -1.0371 -0.8742  1.1498
17764TIP3   OH274782   1.588   4.406   1.116 -0.1973 -0.1560 -0.2205
17764TIP3    H174783   1.512   4.395   1.059  0.4081  0.4995 -1.1930
17764TIP3    H274784   1.636   4.480   1.078 -0.9118  1.8419  2.4424
17765TIP3   OH274785   1.690   2.431   0.215 -0.1719  0.0861 -0.2531
17765TIP3    H174786   1.775   2.386   0.222  0.6001  1.5045 -0.1712
17765TIP3    H274787   1.703   2.497   0.147 -0.9106  0.9460  0.4105
17766TIP3   OH274788   4.334   2.159   6.015 -0.0096 -0.9132  0.2448
17766TIP3    H174789   4.253   2.176   6.063  0.1888 -0.6554  0.4876
17766TIP3    H274790   4.375   2.245   6.004  0.5119 -1.1076  0.6240
17767TIP3   OH274791   0.028   3.560   1.409 -0.2667  0.1863  0.0598
17767TIP3    H174792   0.026   3.496   1.480 -1.5087  0.9088  0.7264
17767TIP3    H274793  -0.062   3.561   1.375 -0.6483  2.4387  0.9318
17768TIP3   OH274794   0.305   0.136   0.443  0.1856 -0.0622  0.3603
17768TIP3    H174795   0.220   0.109   0.409  0.2409 -1.1823  1.0630
17768TIP3    H274796   0.354   0.164   0.366 -1.3164  2.1211  0.1107
17769TIP3   OH274797   6.562   3.012   0.165 -0.2329 -0.1744  0.0874
17769TIP3    H174798   6.631   2.967   0.117 -0.9903  0.2135 -1.4094
17769TIP3    H274799   6.575   2.985   0.256  1.5704 -0.4940 -0.2298
17770TIP3   OH274800   4.993   3.435   6.546 -0.4729  0.6371 -0.0654
17770TIP3    H174801   5.047   3.469   6.474  0.2740 -1.2510 -0.4690
17770TIP3    H274802   5.052   3.431   6.621 -0.7673  0.9813  0.1848
17771TIP3   OH274803   4.547   4.970   2.526 -0.9418  0.1129  0.3546
17771TIP3    H174804   4.477   4.918   2.564 -1.6561  1.3971  0.8455
17771TIP3    H274805   4.521   4.981   2.434 -1.4887  0.7291  0.5755
17772TIP3   OH274806   1.623   1.098   1.201  0.2021  0.4277  0.0595
17772TIP3    H174807   1.644   1.060   1.115  0.0209  1.3962 -0.4292
17772TIP3    H274808   1.653   1.188   1.195  2.6894 -0.1810  2.0041
17773TIP3   OH274809   1.295   1.892   1.151  0.0880 -0.8877  0.0511
17773TIP3    H174810   1.235   1.867   1.080  1.4010 -0.6439 -1.1682
17773TIP3    H274811   1.296   1.815   1.208 -0.2370 -1.4811 -0.7102
17774TIP3   OH274812   6.215   4.386  12.745 -0.3942 -0.1312 -0.2034
17774TIP3    H174813   6.190   4.312  12.801 -0.8831 -2.3326 -3.1194
17774TIP3    H274814   6.304   4.409  12.774 -0.0801 -2.0974  0.5640
17775TIP3   OH274815   5.022   5.153  13.741 -0.1533 -0.5321 -0.7228
17775TIP3    H174816   5.106   5.118  13.769  0.2982 -0.1048 -1.5106
17775TIP3    H274817   4.961   5.079  13.749  0.5914 -1.2486 -1.4711
17776TIP3   OH274818   0.707   6.640  12.575 -0.3948  0.2229  0.5495
17776TIP3    H174819   0.619   6.627  12.610 -0.5683  0.8791  0.3763
17776TIP3    H274820   0.729   6.557  12.533 -0.3134 -0.4705  1.9101
17777TIP3   OH274821   5.998   4.541   1.572 -0.2124 -0.5395  0.5518
17777TIP3    H174822   6.010   4.635   1.559  1.7945 -0.6037  1.5570
17777TIP3    H274823   5.943   4.514   1.499  0.1428  1.2144 -0.4304
17778TIP3   OH274824   1.102   0.158   5.004  0.3766  0.4223 -0.0886
17778TIP3    H174825   1.015   0.118   5.017  0.5359  0.3198  0.6933
17778TIP3    H274826   1.101   0.187   4.913 -0.0907 -0.5450 -0.4126
17779TIP3   OH274827   0.005   1.508  14.832  0.3025  0.0213  0.1952
17779TIP3    H174828  -0.027   1.442  14.771  0.5442 -0.1926  0.2948
17779TIP3    H274829   0.008   1.589  14.782 -0.1487 -0.0090  0.1157
17780TIP3   OH274830   1.235   5.981   5.137 -0.3074 -0.1364  0.5538
17780TIP3    H174831   1.315   5.949   5.178  0.5289 -1.6463 -2.0397
17780TIP3    H274832   1.253   6.073   5.117  0.3114 -0.1407  1.0460
17781TIP3   OH274833   0.324   0.264   0.924 -0.4984 -0.5764 -0.1660
17781TIP3    H174834   0.263   0.319   0.875  0.9844  0.8238 -0.5080
17781TIP3    H274835   0.403   0.261   0.870  1.4654  1.5652  2.3409
17782TIP3   OH274836   0.707   3.449   3.632 -0.0194 -0.0634  0.4138
17782TIP3    H174837   0.726   3.470   3.541  1.0820  1.3204  0.9318
17782TIP3    H274838   0.646   3.375   3.628  1.1262 -0.9562 -1.4139
17783TIP3   OH274839   5.951   3.463  14.597  0.6508  0.5074 -0.5341
17783TIP3    H174840   6.030   3.411  14.609  0.1296  0.1672  2.3282
17783TIP3    H274841   5.885   3.401  14.567  1.3251  0.7326 -2.6259
17784TIP3   OH274842   1.950   3.978  11.209  0.7336 -0.3417 -0.3305
17784TIP3    H174843   2.014   3.988  11.138  1.4862  1.6695  0.5389
17784TIP3    H274844   1.890   4.051  11.197 -0.2277 -1.0512  0.0476
17785TIP3   OH274845   3.551   3.781  11.418  0.2087  0.0622  0.0331
17785TIP3    H174846   3.523   3.695  11.448  1.2437 -0.1055  0.5695
17785TIP3    H274847   3.488   3.804  11.349 -1.1879 -0.3059  1.1354
17786TIP3   OH274848   2.931   3.739   3.096 -0.4098 -0.4667 -0.2692
17786TIP3    H174849   2.897   3.783   3.019  1.0092  1.7422  0.2875
17786TIP3    H274850   2.917   3.801   3.168 -0.3311 -1.8387  0.9852
17787TIP3   OH274851   0.130   6.624   1.991 -0.4095 -0.1466 -0.3437
17787TIP3    H174852   0.051   6.611   1.937 -0.3061  0.2180 -0.5895
17787TIP3    H274853   0.112   6.576   2.071 -0.8023 -0.2324 -0.4785
17788TIP3   OH274854   1.711   6.137   5.507  0.1711  0.5548  0.3765
17788TIP3    H174855   1.793   6.185   5.522  0.2101  0.0824  1.8028
17788TIP3    H274856   1.651   6.171   5.573 -1.0941  1.5238 -1.2026
17789TIP3   OH274857   4.164   6.640  13.482 -0.0101  0.1041  0.0971
17789TIP3    H174858   4.209   6.608  13.560  1.1073  0.4355 -0.3991
17789TIP3    H274859   4.077   6.600  13.487  0.9663 -2.1701  0.0776
17790TIP3   OH274860   4.817   5.958  10.705  0.1994 -0.1607 -0.2146
17790TIP3    H174861   4.771   5.899  10.645  0.2322 -1.0785  0.6233
17790TIP3    H274862   4.756   6.029  10.721 -0.2960 -0.5400 -0.3719
17791TIP3   OH274863   0.692   1.560  15.823  0.5970  0.4772  0.1894
17791TIP3    H174864   0.723   1.546  15.912 -1.1657 -0.5255  0.6914
17791TIP3    H274865   0.627   1.491  15.809  0.1850  1.1569 -1.5677
17792TIP3   OH274866   1.315   3.887  11.245 -0.7298 -0.2492 -0.3091
17792TIP3    H174867   1.335   3.815  11.306 -0.7102 -0.1711 -0.2242
17792TIP3    H274868   1.400   3.914  11.211 -0.8130 -0.9162 -1.0840
17793TIP3   OH274869   2.841   0.389   3.490 -0.2008  0.0074 -0.6054
17793TIP3    H174870   2.827   0.367   3.582 -1.5202 -1.1862 -1.0392
17793TIP3    H274871   2.907   0.458   3.491 -0.9275  0.7557  1.2882
17794TIP3   OH274872   0.595   3.432  15.936  0.4800  0.0476 -0.0254
17794TIP3    H174873   0.664   3.468  15.991 -0.0786  0.5767  0.3315
17794TIP3    H274874   0.535   3.505  15.921 -0.1017 -0.4565 -0.1806
17795TIP3   OH274875   1.337   6.732  11.157 -0.3912  0.1179 -0.1273
17795TIP3    H174876   1.251   6.774  11.146 -0.4951  0.6479  2.2085
17795TIP3    H274877   1.323   6.667  11.226  1.3380  1.1867  1.3262
17796TIP3   OH274878   3.785   4.558  15.874 -0.6590 -0.0349  0.3736
17796TIP3    H174879   3.709   4.611  15.900 -1.5066  0.4024 -2.5775
17796TIP3    H274880   3.845   4.622  15.835 -0.6469 -0.8946 -1.0728
17797TIP3   OH274881   2.068   4.064   4.310 -0.8240  0.1940 -0.2406
17797TIP3    H174882   2.021   4.126   4.365 -0.4386  1.3626 -1.1980
17797TIP3    H274883   2.107   4.117   4.241  2.3678 -0.5914  0.7645
17798TIP3   OH274884   4.335   2.986   3.023  0.6333 -0.0742 -0.1045
17798TIP3    H174885   4.264   3.023   2.970  0.5161 -0.0902  0.0427
17798TIP3    H274886   4.333   2.892   3.003  0.8467 -0.0208 -0.3779
17799TIP3   OH274887   0.016   0.964  12.541 -0.5013  0.3628 -0.3274
17799TIP3    H174888   0.104   0.976  12.576 -1.1945  0.2544  1.5581
17799TIP3    H274889   0.029   0.951  12.447  1.5195 -0.1468 -0.0193
17800TIP3   OH274890   3.003   3.454  11.293 -0.3375  0.8135 -0.3969
17800TIP3    H174891   2.963   3.494  11.370 -1.9111 -0.9288 -0.2641
17800TIP3    H274892   2.937   3.464  11.224  0.2032  0.5036 -0.9707
17801TIP3   OH274893   2.046   3.308  15.189 -0.1879 -0.2955 -0.6570
17801TIP3    H174894   1.962   3.306  15.235 -0.1810  1.1058 -0.5494
17801TIP3    H274895   2.087   3.224  15.211 -0.6255 -0.1021  1.0353
17802TIP3   OH274896   4.476   1.257  11.345 -0.2182 -0.1838  0.2939
17802TIP3    H174897   4.517   1.222  11.266 -0.8111  0.0691 -0.1308
17802TIP3    H274898   4.501   1.196  11.414 -0.8331 -1.1733 -0.3362
17803TIP3   OH274899   6.777   6.634   0.170  0.3296 -0.8738 -0.2281
17803TIP3    H174900   6.829   6.555   0.156  1.2706 -0.0765 -1.4153
17803TIP3    H274901   6.727   6.645   0.089 -1.4128 -1.3798  0.7166
17804TIP3   OH274902   3.344   1.488   1.852  0.0105 -0.4567 -0.5785
17804TIP3    H174903   3.327   1.526   1.938  0.4940  0.6812 -0.9736
17804TIP3    H274904   3.304   1.401   1.856 -1.0985  0.0751  0.3483
17805TIP3   OH274905   0.616   0.840  12.026  0.2439 -0.2312  0.2238
17805TIP3    H174906   0.533   0.793  12.023  1.3729 -2.3279 -0.5215
17805TIP3    H274907   0.652   0.820  12.113 -0.1601  0.9968  0.7005
17806TIP3   OH274908   3.409   0.223  10.827 -0.0247 -0.0154 -0.1872
17806TIP3    H174909   3.504   0.216  10.837 -0.2219 -2.4819  0.9735
17806TIP3    H274910   3.395   0.239  10.734  1.5395 -0.0217 -0.4445
17807TIP3   OH274911   5.210   2.817   1.759  0.4754  0.2743  0.1362
17807TIP3    H174912   5.137   2.766   1.725  1.5143 -1.0761 -0.1632
17807TIP3    H274913   5.215   2.893   1.701 -1.0177  0.6843  0.5050
17808TIP3   OH274914   3.218   5.380   4.865 -0.1647 -0.5258  0.2665
17808TIP3    H174915   3.265   5.303   4.897 -0.0668 -0.6214 -0.1013
17808TIP3    H274916   3.130   5.372   4.903 -0.1192 -0.7558  0.3239
17809TIP3   OH274917   5.137   2.577   4.471  0.3952 -0.7183  0.2170
17809TIP3    H174918   5.165   2.667   4.488 -0.1228 -0.2445 -1.2685
17809TIP3    H274919   5.215   2.524   4.487  0.9729  0.1081  0.1824
17810TIP3   OH274920   3.540   3.153  11.901  0.1849  0.3013 -0.6459
17810TIP3    H174921   3.466   3.115  11.949 -0.2125 -0.1364 -1.5736
17810TIP3    H274922   3.526   3.125  11.811  0.4356  1.8283 -1.1836
17811TIP3   OH274923   5.668   3.679   1.602  0.0753  0.4781  0.6051
17811TIP3    H174924   5.727   3.714   1.535  0.2653 -0.0637  0.4860
17811TIP3    H274925   5.693   3.724   1.682  1.0327 -0.1413  0.6757
17812TIP3   OH274926   1.104   4.190  12.542  0.6009  0.0576  0.7917
17812TIP3    H174927   1.096   4.280  12.512  1.6533 -0.5627 -1.6616
17812TIP3    H274928   1.027   4.176  12.597 -1.0079  1.7055 -0.8680
17813TIP3   OH274929   4.988   1.104   2.029  0.4061 -0.3663  0.1230
17813TIP3    H174930   4.926   1.043   2.070  0.9763 -1.3121 -0.3901
17813TIP3    H274931   4.940   1.139   1.954  0.3668 -0.8518 -0.0844
17814TIP3   OH274932   3.165   3.601  16.227 -0.0509 -0.3500  0.2284
17814TIP3    H174933   3.072   3.613  16.246  0.1675  1.1548  0.4564
17814TIP3    H274934   3.209   3.665  16.283  1.0812 -0.5569 -0.3970
17815TIP3   OH274935   2.180   6.803   0.928  0.0811  0.0560  0.0503
17815TIP3    H174936   2.208   6.811   1.019 -1.1754 -0.6621  0.5286
17815TIP3    H274937   2.152   6.891   0.904 -2.0572 -0.2399  1.2433
17816TIP3   OH274938   5.080   6.097   4.163 -0.5244 -0.0359 -0.0530
17816TIP3    H174939   5.077   6.097   4.258 -0.3753 -0.0640 -0.0473
17816TIP3    H274940   5.009   6.155   4.136  0.3897  1.2152  0.1112
17817TIP3   OH274941   5.731   1.984   2.111 -0.0858 -0.2243 -0.3557
17817TIP3    H174942   5.723   1.964   2.204  0.7600 -1.4382 -0.5192
17817TIP3    H274943   5.732   2.080   2.107  1.0526 -0.1423  1.0066
17818TIP3   OH274944   0.703   6.699   5.252 -0.3960  0.0679  0.2403
17818TIP3    H174945   0.619   6.739   5.273 -0.2012  0.0750  1.0527
17818TIP3    H274946   0.681   6.617   5.209 -0.8012  0.8215 -1.0435
17819TIP3   OH274947   2.360   1.135  11.387 -0.1699  0.8886 -0.2827
17819TIP3    H174948   2.318   1.186  11.456 -0.5853 -1.8494  1.6508
17819TIP3    H274949   2.436   1.095  11.430  0.3681  0.2213 -1.8021
17820TIP3   OH274950   5.970   1.202  15.938  0.1080  0.6823  0.6935
17820TIP3    H174951   6.014   1.120  15.961  0.3662  1.1508  2.0076
17820TIP3    H274952   5.894   1.176  15.887  1.3070 -0.2198 -0.7082
17821TIP3   OH274953   2.131   4.705  14.941 -0.4789  0.0627  0.2258
17821TIP3    H174954   2.100   4.795  14.947  0.1253  0.4278 -1.5794
17821TIP3    H274955   2.054   4.651  14.962 -1.5688  0.9734 -1.2703
17822TIP3   OH274956   6.042   1.736  14.010 -0.6901 -0.4217 -0.3758
17822TIP3    H174957   6.048   1.830  14.029 -0.3353 -1.1136  3.8234
17822TIP3    H274958   5.948   1.718  14.007 -0.7794  0.1322 -2.1549
17823TIP3   OH274959   5.620   2.353   3.806 -0.2703  0.1310  0.7827
17823TIP3    H174960   5.658   2.294   3.871  0.2408  0.5950  0.9134
17823TIP3    H274961   5.608   2.435   3.852  0.0165  0.4380  0.3187
17824TIP3   OH274962   0.982   5.148   6.045 -0.1811 -0.9601  0.1403
17824TIP3    H174963   1.066   5.129   6.087  0.5913  1.1786 -0.3102
17824TIP3    H274964   0.998   5.129   5.952  0.7741  1.9947 -0.4082
17825TIP3   OH274965   6.320   1.386  13.539 -0.2210 -0.2383 -0.0931
17825TIP3    H174966   6.285   1.310  13.586  0.2433  0.0885  0.8061
17825TIP3    H274967   6.280   1.461  13.583  0.4610  0.0863 -0.0263
17826TIP3   OH274968   4.691   2.006  14.816 -0.0923 -0.7077 -0.3428
17826TIP3    H174969   4.623   2.067  14.846  0.5050  0.6761 -1.6691
17826TIP3    H274970   4.651   1.919  14.826 -1.5841 -0.0065  0.0755
17827TIP3   OH274971   0.190   0.582  16.807 -0.4772 -0.0052  0.1567
17827TIP3    H174972   0.143   0.644  16.863 -1.3093  0.4722 -1.0343
17827TIP3    H274973   0.241   0.637  16.748 -0.2488 -0.4836 -0.0918
17828TIP3   OH274974   0.667   6.573  13.191  0.5082 -0.7500 -0.9267
17828TIP3    H174975   0.633   6.483  13.185  0.6635 -0.8279 -0.6338
17828TIP3    H274976   0.752   6.570  13.148 -0.4947 -0.2087 -3.0976
17829TIP3   OH274977   0.920   4.980   0.638 -0.4720  0.8568  0.4101
17829TIP3    H174978   0.944   5.031   0.715 -0.5231  0.2416  0.8451
17829TIP3    H274979   0.922   5.042   0.565  1.0433  1.1214  0.6579
17830TIP3   OH274980   5.313   1.873   1.052  0.5680 -0.5347 -0.0134
17830TIP3    H174981   5.369   1.800   1.027  1.5149 -1.0767  3.2384
17830TIP3    H274982   5.230   1.833   1.078  0.0208 -0.1107 -1.0368
17831TIP3   OH274983   6.709   6.548   5.996 -0.4701  0.0599  0.0408
17831TIP3    H174984   6.755   6.607   6.056  0.5523 -0.1266 -0.5266
17831TIP3    H274985   6.733   6.460   6.024  0.3973 -0.0239 -0.8977
17832TIP3   OH274986   5.033   4.168  15.679  0.2114 -0.1940  0.0938
17832TIP3    H174987   5.007   4.226  15.608  0.2221  0.3107  0.4944
17832TIP3    H274988   5.002   4.212  15.758  0.5025 -0.5792  0.4246
17833TIP3   OH274989   6.068   0.171  15.779  0.6709  0.2468 -0.1779
17833TIP3    H174990   5.977   0.185  15.751  0.6514 -1.3917 -1.0466
17833TIP3    H274991   6.115   0.248  15.747 -0.3563  1.0084  0.0850
17834TIP3   OH274992   0.333   4.775  16.833 -0.4706  0.2929 -0.1160
17834TIP3    H174993   0.422   4.792  16.800 -0.3527  0.5667  0.3439
17834TIP3    H274994   0.332   4.681  16.849 -0.3842  0.2271 -0.4733
17835TIP3   OH274995   1.889   5.673  14.882  0.7722  0.1207  0.2707
17835TIP3    H174996   1.873   5.599  14.824 -0.8500  1.0625 -0.5387
17835TIP3    H274997   1.876   5.750  14.828 -0.2033  1.0306  1.7279
17836TIP3   OH274998   4.711   3.119  16.895  0.2351  0.3570 -0.2551
17836TIP3    H174999   4.686   3.208  16.868 -0.8222  0.2888  0.4494
17836TIP3    H275000   4.639   3.090  16.950 -0.2113 -1.5534 -1.7365
17837TIP3   OH275001   6.299   5.558  12.423 -0.3661  0.5247 -0.7051
17837TIP3    H175002   6.279   5.518  12.338 -0.6723  1.6607 -1.1959
17837TIP3    H275003   6.376   5.510  12.454 -2.0285 -1.9413 -0.1611
17838TIP3   OH275004   4.358   0.477   2.173  0.2231 -0.1246  0.4068
17838TIP3    H175005   4.364   0.402   2.232 -1.9756 -1.4531 -0.9151
17838TIP3    H275006   4.284   0.528   2.208  0.2227  0.1764 -0.0311
17839TIP3   OH275007   0.176   4.856  13.746 -0.6773 -0.1451 -0.4434
17839TIP3    H175008   0.137   4.899  13.822  1.2758 -0.3128  0.7495
17839TIP3    H275009   0.169   4.762  13.765 -1.6808 -0.2567 -1.2988
17840TIP3   OH275010   0.025   5.296  11.199 -0.1406  0.2262 -0.4354
17840TIP3    H175011   0.049   5.291  11.106  0.4334  1.3367 -0.3705
17840TIP3    H275012   0.062   5.379  11.228 -1.0150  0.2791  0.5900
17841TIP3   OH275013   0.920   3.878   2.169  1.0485  0.1908 -0.6231
17841TIP3    H175014   0.893   3.970   2.164  0.8989  0.1625 -0.3489
17841TIP3    H275015   0.915   3.857   2.262 -1.9410 -0.9974 -0.9685
17842TIP3   OH275016   6.580   0.510   1.395 -0.2464 -0.2066  0.0564
17842TIP3    H175017   6.616   0.587   1.439  0.3913  0.1032 -0.9818
17842TIP3    H275018   6.487   0.531   1.382 -0.0439  0.4688 -0.3714
17843TIP3   OH275019   0.163   1.051   2.448 -0.0686  0.3062  0.5905
17843TIP3    H175020   0.126   1.115   2.388 -0.4888  0.5504  1.1030
17843TIP3    H275021   0.123   0.968   2.422 -0.1801  0.3980  0.4700
17844TIP3   OH275022   5.896   0.934   1.381 -0.3150 -0.0691  0.2552
17844TIP3    H175023   5.837   0.992   1.431 -0.3832  0.0063  0.0881
17844TIP3    H275024   5.951   0.993   1.331  1.2901 -0.0552  1.9225
17845TIP3   OH275025   1.410   6.354  12.600  0.1506 -0.0789 -0.8371
17845TIP3    H175026   1.471   6.354  12.526  0.7384 -0.0814 -0.3592
17845TIP3    H275027   1.419   6.441  12.639  2.2584 -1.0829  1.1642
17846TIP3   OH275028   0.932   2.357  12.327  0.2468  0.4831 -0.3216
17846TIP3    H175029   0.900   2.424  12.388 -0.4838 -0.8321  0.7876
17846TIP3    H275030   0.959   2.284  12.383 -2.7307 -1.7733 -1.5246
17847TIP3   OH275031   1.685   0.630   2.887  0.4554  0.7294 -0.5275
17847TIP3    H175032   1.750   0.625   2.957 -0.2306  0.8865  0.1342
17847TIP3    H275033   1.612   0.679   2.925  0.4683  1.6724 -1.6822
17848TIP3   OH275034   2.192   4.838   3.072 -0.1743  0.1394  0.3069
17848TIP3    H175035   2.265   4.791   3.113 -1.1242  0.1805  2.1620
17848TIP3    H275036   2.121   4.774   3.070  0.0512 -0.1172 -2.1142
17849TIP3   OH275037   4.627   2.858  14.927  0.1431  0.5386  0.9161
17849TIP3    H175038   4.696   2.922  14.943  0.2373  0.1337  2.2359
17849TIP3    H275039   4.634   2.797  15.000 -1.3150  0.2271  0.8187
17850TIP3   OH275040   4.443   1.134   3.382  0.3824  0.0249 -0.6453
17850TIP3    H175041   4.515   1.170   3.329  0.6169  1.4907  0.5867
17850TIP3    H275042   4.450   1.180   3.466 -0.4545 -1.6699  0.4005
17851TIP3   OH275043   0.901   1.664   2.983 -0.3739 -0.2003  0.3338
17851TIP3    H175044   0.870   1.744   2.941  0.8723  0.9173  1.4329
17851TIP3    H275045   0.821   1.617   3.007 -1.1215  0.4773 -0.7432
17852TIP3   OH275046   5.467   6.055  15.561 -0.5195 -0.4310  0.2867
17852TIP3    H175047   5.529   5.990  15.528 -1.4985 -0.4792 -1.5446
17852TIP3    H275048   5.388   6.042  15.510 -1.0909  1.5278  0.5719
17853TIP3   OH275049   2.741   1.875  11.863 -0.0208  0.5127 -0.2982
17853TIP3    H175050   2.769   1.866  11.954  0.7868 -0.0978 -0.5926
17853TIP3    H275051   2.665   1.818  11.855 -0.3309  0.8647  0.0831
17854TIP3   OH275052   3.823   3.331   5.456  0.5568 -0.0485 -0.0258
17854TIP3    H175053   3.853   3.418   5.430 -0.5267  0.4055  0.2059
17854TIP3    H275054   3.775   3.299   5.380 -3.1379  1.5215  1.3884
17855TIP3   OH275055   5.265   4.574   3.701 -0.4543  0.1906 -0.2539
17855TIP3    H175056   5.232   4.664   3.699  0.8803  0.6700 -1.8785
17855TIP3    H275057   5.265   4.546   3.610  1.9618 -0.3867 -0.1329
17856TIP3   OH275058   5.810   5.792   3.956  0.1526  0.1358 -0.0879
17856TIP3    H175059   5.734   5.771   4.011  0.5799 -1.0694  0.0581
17856TIP3    H275060   5.788   5.756   3.870  0.7041 -0.5201  0.0454
17857TIP3   OH275061   0.178   5.534  14.669  0.0345 -0.2325 -0.1723
17857TIP3    H175062   0.156   5.517  14.761  0.7622 -0.2471  0.0038
17857TIP3    H275063   0.101   5.507  14.620 -0.7897  0.7871  0.5208
17858TIP3   OH275064   2.837   5.745  14.707  0.7186 -0.1232 -0.0936
17858TIP3    H175065   2.919   5.786  14.681  0.6984 -0.4475 -0.6702
17858TIP3    H275066   2.862   5.684  14.777  0.9317 -0.0454 -0.1012
17859TIP3   OH275067   0.008   1.471   1.090 -0.5245 -0.0243 -0.0816
17859TIP3    H175068  -0.041   1.457   1.009 -2.5818 -2.0274  1.3952
17859TIP3    H275069   0.100   1.460   1.064 -0.8652  2.0012 -2.5739
17860TIP3   OH275070   2.616   0.638   0.554  0.4147 -0.1952 -0.3102
17860TIP3    H175071   2.620   0.670   0.464  1.4860  1.5747  0.3176
17860TIP3    H275072   2.523   0.642   0.577 -0.0146 -1.6042 -1.6010
17861TIP3   OH275073   0.581   6.090   1.549  0.6800  0.5659 -0.0431
17861TIP3    H175074   0.494   6.121   1.577  0.1058  1.0932 -2.2195
17861TIP3    H275075   0.638   6.165   1.563  0.7168  0.3462  1.0340
17862TIP3   OH275076   3.406   0.365   3.068 -0.6278 -0.1989  0.0329
17862TIP3    H175077   3.320   0.356   3.108 -0.6589  0.2360  0.0596
17862TIP3    H275078   3.467   0.366   3.142 -0.7800  2.0085  0.1901
17863TIP3   OH275079   0.227   6.460  16.075 -0.4013 -0.0436  0.4177
17863TIP3    H175080   0.138   6.426  16.078  0.1694 -1.6028  1.1395
17863TIP3    H275081   0.221   6.547  16.114 -1.6481  0.0058  0.1572
17864TIP3   OH275082   3.845   0.791   2.164  0.3625  0.3836  0.2377
17864TIP3    H175083   3.888   0.706   2.163  0.2676  0.3388 -0.7015
17864TIP3    H275084   3.785   0.789   2.089  0.5821  1.3836  0.0229
17865TIP3   OH275085   1.900   5.107  17.022  0.2076 -0.2078 -0.2274
17865TIP3    H175086   1.824   5.164  17.028  0.6792  0.6390 -1.6251
17865TIP3    H275087   1.974   5.163  17.048  0.6776 -0.1416 -1.6049
17866TIP3   OH275088   5.258   0.912   3.463  0.3929  0.2076  0.8681
17866TIP3    H175089   5.184   0.869   3.506 -0.3173 -0.2236 -0.7308
17866TIP3    H275090   5.228   1.001   3.446  0.7691  0.4568  1.4630
17867TIP3   OH275091   1.066   5.157  13.465 -0.9827 -0.0743  0.2247
17867TIP3    H175092   1.046   5.082  13.521  1.0236 -0.7059  0.1778
17867TIP3    H275093   1.028   5.136  13.380 -0.0563 -1.2866  0.0850
17868TIP3   OH275094   5.640   1.605  11.631 -0.4243  0.3805  0.2792
17868TIP3    H175095   5.694   1.580  11.557 -0.8792  1.0757 -0.3000
17868TIP3    H275096   5.586   1.528  11.649 -0.7090  0.3950 -0.4747
17869TIP3   OH275097   6.156   2.367  14.840 -0.3701  0.2633  0.4334
17869TIP3    H175098   6.171   2.439  14.778 -2.0124 -0.5556 -1.0041
17869TIP3    H275099   6.114   2.409  14.915  1.5986  1.2666  1.0349
17870TIP3   OH275100   6.515   1.053   1.355  0.7522 -0.0920  0.3191
17870TIP3    H175101   6.595   1.024   1.311 -0.8999 -0.4512 -2.6924
17870TIP3    H275102   6.536   1.141   1.386  1.3238  1.4969 -3.8413
17871TIP3   OH275103   2.767   3.178  15.812  0.1616  0.0636 -0.4550
17871TIP3    H175104   2.803   3.227  15.885 -1.7671  1.1704 -0.1725
17871TIP3    H275105   2.712   3.241  15.765 -1.1496 -1.4122 -1.0017
17872TIP3   OH275106   1.649   5.583  16.825  0.1847  0.2509 -0.6922
17872TIP3    H175107   1.591   5.658  16.811 -1.8381 -0.8493  1.1729
17872TIP3    H275108   1.733   5.622  16.852 -0.5504  1.8530 -0.6130
17873TIP3   OH275109   3.238   4.545  12.415  0.4176 -0.2580 -0.2665
17873TIP3    H175110   3.227   4.639  12.429 -1.2692 -0.2830 -1.1510
17873TIP3    H275111   3.333   4.531  12.416  0.6646  1.1069  1.9410
17874TIP3   OH275112   5.100   5.201   2.548 -0.5063 -0.0897  0.4528
17874TIP3    H175113   5.091   5.150   2.467 -0.0633 -0.8293  0.8553
17874TIP3    H275114   5.010   5.221   2.574 -0.6441  0.7596 -0.5803
17875TIP3   OH275115   5.359   3.139   5.058 -0.0981 -0.5481  0.0317
17875TIP3    H175116   5.384   3.229   5.038  0.4086 -0.1653  2.1153
17875TIP3    H275117   5.441   3.097   5.086 -0.3531 -1.6373 -0.7908
17876TIP3   OH275118   2.989   3.041  11.306  0.0774 -0.2132 -0.2059
17876TIP3    H175119   2.903   3.048  11.348 -0.3737 -0.5995 -1.0530
17876TIP3    H275120   3.034   2.973  11.356 -0.0280  0.1120  0.3533
17877TIP3   OH275121   6.555   1.866   6.176 -0.5510  0.3784 -0.1454
17877TIP3    H175122   6.631   1.834   6.223 -1.0897 -0.1642  0.3696
17877TIP3    H275123   6.507   1.787   6.150 -0.5206  0.6820 -1.1850
17878TIP3   OH275124   6.725   0.914   0.583 -0.2477  0.4740  0.8935
17878TIP3    H175125   6.821   0.905   0.585 -0.2978 -0.2104  2.9305
17878TIP3    H275126   6.692   0.828   0.609 -1.4487  0.5835 -0.1890
17879TIP3   OH275127   2.811   3.228  15.533 -0.1751  0.2132 -0.2764
17879TIP3    H175128   2.776   3.317  15.534 -2.3985 -0.5968  0.1872
17879TIP3    H275129   2.815   3.203  15.625  0.0863 -0.2875 -0.4244
17880TIP3   OH275130   1.547   6.497   1.935 -0.4506 -0.4813  0.0578
17880TIP3    H175131   1.575   6.533   1.851 -3.3143 -0.3905 -0.9629
17880TIP3    H275132   1.527   6.573   1.989  0.9745 -0.5458  0.7144
17881TIP3   OH275133   6.787   4.399  14.748 -0.1864  0.3396  0.5248
17881TIP3    H175134   6.763   4.306  14.752 -0.6919  0.4607  0.3124
17881TIP3    H275135   6.883   4.398  14.740 -0.2444 -0.1792 -0.1954
17882TIP3   OH275136   1.105   0.308   1.862  0.1325 -0.4820  0.1490
17882TIP3    H175137   1.110   0.366   1.787 -0.4653  0.7333  1.0102
17882TIP3    H275138   1.031   0.251   1.844 -0.1038 -0.0928 -0.1225
17883TIP3   OH275139   3.741   0.783  10.439  0.0522 -0.3231  0.3970
17883TIP3    H175140   3.758   0.725  10.364 -1.7927  0.7779 -0.9641
17883TIP3    H275141   3.802   0.856  10.426 -1.9829  1.1518 -1.6165
17884TIP3   OH275142   1.376   1.601   1.901  0.3062 -0.1112  0.6281
17884TIP3    H175143   1.374   1.517   1.856 -0.5461  0.5946 -0.7250
17884TIP3    H275144   1.406   1.581   1.989  0.1824 -1.8122  0.3046
17885TIP3   OH275145   5.725   6.459   2.382  0.3137 -0.1454  0.1808
17885TIP3    H175146   5.741   6.503   2.466 -0.9852 -0.6121  0.6884
17885TIP3    H275147   5.774   6.377   2.389  0.5292 -0.0077  0.3143
17886TIP3   OH275148   6.116   6.231  15.406  0.1477 -0.1790  0.0854
17886TIP3    H175149   6.206   6.207  15.427 -0.3224 -1.2285  1.1079
17886TIP3    H275150   6.064   6.186  15.474 -0.9638  2.4915  1.1270
17887TIP3   OH275151   2.508   2.246   4.784  0.8301 -0.7603  0.0647
17887TIP3    H175152   2.526   2.263   4.691  1.2404  2.5675  0.6276
17887TIP3    H275153   2.551   2.318   4.830 -1.4378 -0.9185  2.6610
17888TIP3   OH275154   5.862   0.106   2.496  0.4604 -0.0487 -0.1844
17888TIP3    H175155   5.952   0.088   2.523  0.1685  0.6033  1.3214
17888TIP3    H275156   5.831   0.024   2.457  0.5831 -1.4818  2.5019
17889TIP3   OH275157   4.970   4.202  12.266  0.3011  0.2099 -0.3695
17889TIP3    H175158   5.050   4.157  12.238  1.0852  1.9453 -1.0397
17889TIP3    H275159   4.990   4.232  12.355  0.2045  0.2176 -0.3504
17890TIP3   OH275160   2.761   6.706   0.490  0.0096 -0.4722 -0.2019
17890TIP3    H175161   2.819   6.677   0.561 -1.6592 -0.7613  1.0897
17890TIP3    H275162   2.692   6.755   0.534  0.1260  1.2984 -1.8868
17891TIP3   OH275163   5.908   1.581  15.584 -0.4572 -0.7208 -0.3507
17891TIP3    H175164   5.924   1.674  15.574 -2.0835 -0.5622 -2.0357
17891TIP3    H275165   5.813   1.573  15.590 -0.2642 -2.0431  3.2406
17892TIP3   OH275166   3.479   2.507  12.093  0.0485 -0.2412  0.0413
17892TIP3    H175167   3.415   2.438  12.078  0.4124 -0.7449  0.7661
17892TIP3    H275168   3.486   2.553  12.009 -1.4888  0.0184  0.0396
17893TIP3   OH275169   2.892   1.061  15.944 -0.1561  0.6535  0.1806
17893TIP3    H175170   2.929   1.118  16.011  1.5381 -1.0906  0.8161
17893TIP3    H275171   2.947   1.075  15.867  0.0281  0.1994  0.2224
17894TIP3   OH275172   5.119   1.555   0.513  0.4326 -0.3923  0.0495
17894TIP3    H175173   5.045   1.494   0.521  0.3647 -0.6124 -1.8011
17894TIP3    H275174   5.082   1.640   0.535  0.3501 -0.8849  1.9546
17895TIP3   OH275175   1.733   2.575  16.433  0.6114 -0.9483  0.3280
17895TIP3    H175176   1.638   2.569  16.424  0.5423  1.3882 -1.3238
17895TIP3    H275177   1.747   2.646  16.495  1.2809 -1.0491  0.2956
17896TIP3   OH275178   1.035   1.455   5.218  0.5730  0.0693 -0.9124
17896TIP3    H175179   0.942   1.447   5.242  0.9201  1.7118  1.3058
17896TIP3    H275180   1.068   1.366   5.221 -0.8930 -0.5249 -1.5578
17897TIP3   OH275181   6.456   2.424   4.518 -0.2482 -0.0844  0.4684
17897TIP3    H175182   6.394   2.483   4.562 -1.4179 -2.0058  1.5296
17897TIP3    H275183   6.403   2.376   4.454 -0.2842 -2.7758  2.3592
17898TIP3   OH275184   5.854   1.413   0.943 -0.3365  0.0730 -0.0937
17898TIP3    H175185   5.852   1.365   1.026  0.7557  0.1187 -0.0242
17898TIP3    H275186   5.775   1.385   0.897 -0.3431 -0.8532  0.4619
17899TIP3   OH275187   6.084   0.945  17.178 -0.4875  0.1469 -0.0843
17899TIP3    H175188   6.165   0.895  17.188 -0.9906 -0.9789 -1.4054
17899TIP3    H275189   6.014   0.884  17.203 -1.0767  0.3448 -1.1764
17900TIP3   OH275190   2.014   0.155   5.565 -0.2380  0.1677 -0.0862
17900TIP3    H175191   1.940   0.119   5.612  0.3409 -3.5107 -1.6525
17900TIP3    H275192   2.091   0.121   5.610  0.4416  1.1391 -0.4646
17901TIP3   OH275193   0.034   5.344  16.469 -0.8964 -0.1800  0.6784
17901TIP3    H175194   0.069   5.336  16.558  0.3967 -0.0523  0.2085
17901TIP3    H275195   0.106   5.313  16.413 -0.3653  2.9186 -0.5268
17902TIP3   OH275196   4.223   1.433  15.709  0.4188  0.0056  0.6079
17902TIP3    H175197   4.273   1.490  15.767 -0.5321  0.2562  1.2131
17902TIP3    H275198   4.238   1.345  15.743  0.8876  0.0175  0.4388
17903TIP3   OH275199   4.250   5.468  14.430 -0.1802  0.7510 -0.0680
17903TIP3    H175200   4.163   5.434  14.452  0.0972 -1.5690 -2.0918
17903TIP3    H275201   4.308   5.426  14.494 -0.3461  0.9416  0.2107
17904TIP3   OH275202   1.006   5.235  12.699 -0.0952  0.2237 -0.2435
17904TIP3    H175203   1.033   5.291  12.626  0.7681  0.9138  0.5758
17904TIP3    H275204   1.028   5.285  12.777  1.5005 -1.5442  0.5482
17905TIP3   OH275205   0.590   0.285  15.382 -0.4465 -0.0397  0.3859
17905TIP3    H175206   0.513   0.318  15.335 -1.2417  0.5831  2.0344
17905TIP3    H275207   0.657   0.352  15.369 -1.2838  1.1194  1.6961
17906TIP3   OH275208   5.582   6.630  15.383  0.9467  0.4782 -0.3274
17906TIP3    H175209   5.519   6.690  15.343  1.0798  0.2960 -0.8197
17906TIP3    H275210   5.645   6.613  15.313 -0.4120 -2.1789 -1.0471
17907TIP3   OH275211   3.033   6.793  15.796  0.1958  0.0871  0.1240
17907TIP3    H175212   2.992   6.738  15.729 -0.4658  1.4272 -0.6037
17907TIP3    H275213   3.073   6.865  15.747  2.2984 -0.4465  0.9363
17908TIP3   OH275214   4.431   5.224  15.989  0.1897  0.7880 -0.1591
17908TIP3    H175215   4.510   5.169  15.984  0.1658  0.7816 -0.4611
17908TIP3    H275216   4.389   5.196  16.071  0.6089  0.9412  0.1126
17909TIP3   OH275217   3.387   4.488   4.563 -0.0675  0.0324  0.4939
17909TIP3    H175218   3.425   4.565   4.605 -1.9730  1.1650  0.2660
17909TIP3    H275219   3.462   4.438   4.531  1.2956  0.8182  2.2891
17910TIP3   OH275220   0.707   4.737   6.022 -0.6478 -0.1524  0.5289
17910TIP3    H175221   0.633   4.677   6.031 -0.4659 -0.4046  0.3277
17910TIP3    H275222   0.753   4.732   6.106  0.4264 -1.6898 -0.1238
17911TIP3   OH275223   0.188   0.502   3.284 -0.3355  0.1377 -0.3340
17911TIP3    H175224   0.284   0.496   3.282 -0.4330 -2.5561 -0.8514
17911TIP3    H275225   0.165   0.486   3.375 -0.3211 -0.7037 -0.4697
17912TIP3   OH275226   2.941   2.176   0.025  0.0206 -0.2508  0.1112
17912TIP3    H175227   2.980   2.242   0.083  1.1545 -1.6224  1.0013
17912TIP3    H275228   2.927   2.221  -0.058 -0.3704  1.4140  1.0406
17913TIP3   OH275229   4.990   2.025   1.925 -0.4387  0.5206 -0.8483
17913TIP3    H175230   5.015   2.055   1.838 -0.1370  2.7138 -0.0699
17913TIP3    H275231   5.065   2.047   1.980 -1.3084  0.7509  0.2707
17914TIP3   OH275232   6.109   4.423  14.613 -0.3778 -0.2172  0.0712
17914TIP3    H175233   6.122   4.394  14.523 -0.0166  1.0672 -0.3124
17914TIP3    H275234   6.014   4.437  14.621 -0.4950 -1.0190  0.1176
17915TIP3   OH275235   2.643   0.975  11.786 -0.1705  0.2522 -0.2715
17915TIP3    H175236   2.605   0.942  11.867 -3.3275 -0.8460 -2.0316
17915TIP3    H275237   2.685   0.899  11.746  1.2519  0.7575  0.1760
17916TIP3   OH275238   0.037   1.903   5.685 -0.3157 -0.2367  0.1832
17916TIP3    H175239   0.038   1.842   5.760  0.0714  0.7497  1.0039
17916TIP3    H275240   0.070   1.850   5.612 -1.1704 -1.3654  0.5787
17917TIP3   OH275241   1.641   3.710   3.051  0.8211  0.3824 -0.1269
17917TIP3    H175242   1.630   3.710   2.956 -0.0470 -1.1029 -0.0594
17917TIP3    H275243   1.583   3.640   3.082  1.7506  0.2523  1.4247
17918TIP3   OH275244   3.490   1.288  13.826 -0.6005  0.0486 -0.1203
17918TIP3    H175245   3.508   1.234  13.748  1.3660 -0.4638  0.6278
17918TIP3    H275246   3.564   1.272  13.884 -1.3965  1.3973  1.3526
17919TIP3   OH275247   3.807   3.288   2.559  0.8626 -0.6536 -0.0922
17919TIP3    H175248   3.798   3.339   2.639  0.6280 -2.6147  1.2075
17919TIP3    H275249   3.825   3.199   2.589 -1.8900 -2.0380 -2.1141
17920TIP3   OH275250   4.324   1.593   2.255  0.0745 -0.9774  0.4507
17920TIP3    H175251   4.376   1.669   2.229  0.8089 -0.9809  1.8043
17920TIP3    H275252   4.372   1.555   2.328 -0.6492 -2.3489  0.2492
17921TIP3   OH275253   5.283   4.169   2.687  0.0107  0.1294 -0.2402
17921TIP3    H175254   5.244   4.085   2.713  3.0222 -0.5842  2.7199
17921TIP3    H275255   5.250   4.231   2.752  1.8069  0.0018  0.8551
17922TIP3   OH275256   2.150   0.923   1.794  0.1152  0.0034 -0.2592
17922TIP3    H175257   2.071   0.925   1.739  0.6213 -1.5883 -1.1198
17922TIP3    H275258   2.133   0.986   1.864 -1.3244  0.7257 -1.2161
17923TIP3   OH275259   5.223   1.210   3.013 -0.9430  0.0713 -0.3880
17923TIP3    H175260   5.209   1.195   2.920 -0.3831  0.5667 -0.5581
17923TIP3    H275261   5.206   1.125   3.054 -0.5981 -0.3019 -1.0042
17924TIP3   OH275262   0.334   6.248  13.351 -0.1575  0.2648 -0.4732
17924TIP3    H175263   0.399   6.256  13.421 -0.8322 -2.1114  0.5422
17924TIP3    H275264   0.260   6.203  13.392 -0.6447 -1.0689 -2.6475
17925TIP3   OH275265   6.292   4.166   5.204 -0.1843  0.2190 -0.0306
17925TIP3    H175266   6.315   4.209   5.286  0.0976 -0.4181  0.2297
17925TIP3    H275267   6.296   4.236   5.139  0.0999  0.6238  0.4112
17926TIP3   OH275268   1.652   3.547  12.380 -0.1253  0.1612 -0.7476
17926TIP3    H175269   1.565   3.527  12.414 -0.2048 -2.2519 -2.1288
17926TIP3    H275270   1.648   3.523  12.287  1.7423  0.9297 -1.0899
17927TIP3   OH275271   1.095   0.019   2.903 -0.3367  0.1267 -0.3476
17927TIP3    H175272   1.134   0.101   2.935  1.9193 -1.0362  0.0287
17927TIP3    H275273   1.018   0.007   2.959  0.7443  0.6901  1.3336
17928TIP3   OH275274   1.936   0.397  12.869  0.3629 -0.2293 -0.1007
17928TIP3    H175275   1.974   0.455  12.934 -0.8688 -0.6617  1.0460
17928TIP3    H275276   1.955   0.308  12.901 -0.9347 -0.4476  0.1132
17929TIP3   OH275277   1.611   5.744  12.267 -0.2869  0.4436 -0.5043
17929TIP3    H175278   1.615   5.675  12.200 -1.5342 -0.2403  0.1034
17929TIP3    H275279   1.644   5.702  12.346 -2.5611 -0.0113  0.2748
17930TIP3   OH275280   5.844   1.044  15.106 -0.2210 -0.3994  0.3553
17930TIP3    H175281   5.766   1.064  15.157 -0.0412 -0.3442  0.6061
17930TIP3    H275282   5.815   1.053  15.015 -0.9136 -1.8277  0.4018
17931TIP3   OH275283   4.103   5.912  15.418 -0.0295 -0.1977 -0.0744
17931TIP3    H175284   4.104   5.990  15.362 -1.1491  1.4356  2.0470
17931TIP3    H275285   4.042   5.852  15.374  0.1717  0.4663 -1.2898
17932TIP3   OH275286   6.748   6.523   1.835  0.2333 -0.2344  0.5228
17932TIP3    H175287   6.731   6.448   1.778 -2.0208 -0.4949  1.4265
17932TIP3    H275288   6.698   6.594   1.795  1.2485  0.4468  0.4318
17933TIP3   OH275289   4.695   0.621  15.564  0.2032 -0.2834 -0.0665
17933TIP3    H175290   4.679   0.611  15.658  1.2172  0.0843  0.1533
17933TIP3    H275291   4.627   0.568  15.523 -0.6319  0.0367  0.8533
17934TIP3   OH275292   6.234   2.362   4.368 -0.4793  0.7848 -0.7901
17934TIP3    H175293   6.272   2.283   4.329  1.1879  0.7071  0.8760
17934TIP3    H275294   6.178   2.397   4.299 -0.8614 -1.5424 -1.7685
17935TIP3   OH275295   2.309   4.518  14.000 -0.4740 -0.0529  0.0686
17935TIP3    H175296   2.349   4.525  14.087 -0.0956  1.0110 -0.1864
17935TIP3    H275297   2.290   4.608  13.974 -1.7022 -0.4442 -0.4468
17936TIP3   OH275298   0.403   0.535  13.641  0.2876  0.6626 -0.1832
17936TIP3    H175299   0.350   0.521  13.719  0.8632 -0.8308 -0.0370
17936TIP3    H275300   0.477   0.587  13.671 -0.0983  1.1176  0.0016
17937TIP3   OH275301   5.239   1.030   0.426 -0.3264 -0.1364 -0.2406
17937TIP3    H175302   5.324   1.001   0.393 -0.6860 -0.5780 -0.8097
17937TIP3    H275303   5.189   1.050   0.347 -1.8671 -3.0540 -0.1354
17938TIP3   OH275304   4.668   5.707  12.918 -0.2937 -0.1893 -0.6955
17938TIP3    H175305   4.635   5.625  12.954  1.6045 -0.5524  0.3308
17938TIP3    H275306   4.589   5.760  12.903 -1.4518 -1.6778 -0.1226
17939TIP3   OH275307   0.818   0.714   0.398  0.2482  0.2048 -0.4396
17939TIP3    H175308   0.866   0.677   0.324 -0.9721  0.7532 -1.5346
17939TIP3    H275309   0.744   0.655   0.411  1.1461 -0.6313  1.2352
17940TIP3   OH275310   4.122   5.381   1.297  0.0795  0.1013  0.8511
17940TIP3    H175311   4.138   5.315   1.229  0.7977 -0.2533  1.3481
17940TIP3    H275312   4.123   5.464   1.250  0.0036 -0.1767  0.3444
17941TIP3   OH275313   4.404   3.942  15.198 -0.1538  0.3055  0.4160
17941TIP3    H175314   4.335   4.007  15.188  1.1857  1.6502 -0.6559
17941TIP3    H275315   4.396   3.886  15.121  0.0262  0.5765  0.1933
17942TIP3   OH275316   2.293   2.199  14.443 -0.0108 -0.8135 -0.7587
17942TIP3    H175317   2.333   2.257  14.507  0.1545 -1.1117 -0.5904
17942TIP3    H275318   2.202   2.190  14.471 -0.0112 -0.7122 -0.7288
17943TIP3   OH275319   2.575   3.108   2.587  0.5163  0.3447 -0.4185
17943TIP3    H175320   2.506   3.171   2.566  0.2216  0.1561 -0.0240
17943TIP3    H275321   2.650   3.162   2.611  0.2473  0.5473 -0.0248
17944TIP3   OH275322   5.927   0.060  15.512 -0.7252 -0.0822  0.1056
17944TIP3    H175323   5.838   0.055  15.546 -1.1996 -0.9786 -1.2069
17944TIP3    H275324   5.961  -0.029  15.520  1.2812  0.8243  3.6040
17945TIP3   OH275325   2.956   6.337  12.544  0.0261  0.3335  0.0488
17945TIP3    H175326   2.948   6.432  12.545 -1.1764  0.2691 -1.1024
17945TIP3    H275327   2.993   6.317  12.458 -1.3309 -0.3144 -0.4224
17946TIP3   OH275328   3.171   3.853  11.375  0.6506 -0.1191 -0.9020
17946TIP3    H175329   3.220   3.930  11.346  1.2342  0.3687  1.1944
17946TIP3    H275330   3.201   3.782  11.318  0.4412  1.0918 -2.5719
17947TIP3   OH275331   2.391   3.322   0.407  0.4632  0.5437 -0.2014
17947TIP3    H175332   2.357   3.389   0.348  0.1396 -0.6796 -1.4535
17947TIP3    H275333   2.447   3.268   0.352  1.2410  0.1519  0.9377
17948TIP3   OH275334   2.250   5.870   3.671 -0.1461  0.1728 -0.3557
17948TIP3    H175335   2.284   5.918   3.595 -1.6586  1.6779 -0.1418
17948TIP3    H275336   2.155   5.870   3.658 -0.2516 -2.5975 -0.1916
17949TIP3   OH275337   4.574   6.278  14.919 -0.3822  0.6679 -0.2629
17949TIP3    H175338   4.512   6.205  14.926  1.2274 -0.6702  0.8832
17949TIP3    H275339   4.660   6.237  14.921  0.6213  2.6391  1.3963
17950TIP3   OH275340   1.291   0.149   1.309  0.3981 -0.2308  0.5518
17950TIP3    H175341   1.374   0.102   1.305  0.2975 -0.3165 -1.4034
17950TIP3    H275342   1.267   0.163   1.218 -1.5829  0.0935  1.0871
17951TIP3   OH275343   0.543   5.741  17.050 -0.6885 -0.1103 -0.6850
17951TIP3    H175344   0.499   5.730  17.134 -0.2105  1.3068 -0.2324
17951TIP3    H275345   0.605   5.812  17.064  0.1846 -0.5881 -1.9359
17952TIP3   OH275346   4.477   6.135  14.228  0.8458  0.0496  1.0068
17952TIP3    H175347   4.531   6.172  14.159 -1.1565  2.4920  0.6327
17952TIP3    H275348   4.448   6.050  14.194  0.4637  0.9001 -0.8730
17953TIP3   OH275349   5.744   6.590   2.630 -0.0146  0.0845  0.0300
17953TIP3    H175350   5.680   6.520   2.644 -0.6294  0.5179 -0.5470
17953TIP3    H275351   5.702   6.668   2.665 -0.2534  0.5746 -1.2983
17954TIP3   OH275352   5.299   6.665  13.128 -0.3244 -0.4584  0.0552
17954TIP3    H175353   5.394   6.659  13.134 -0.0170  1.0525 -2.2620
17954TIP3    H275354   5.280   6.668  13.035 -2.7696 -1.6694  0.4151
17955TIP3   OH275355   3.719   0.276  17.209  0.1513 -0.3787 -0.1030
17955TIP3    H175356   3.734   0.340  17.140  1.0411  0.4262  0.8102
17955TIP3    H275357   3.638   0.231  17.183 -0.6126  1.2507 -0.6720
17956TIP3   OH275358   5.635   6.614  14.262  0.5149  0.1154 -0.5549
17956TIP3    H175359   5.588   6.694  14.287  0.5588  0.2362 -0.8591
17956TIP3    H275360   5.584   6.578  14.189  0.5581 -0.0748 -0.4916
17957TIP3   OH275361   3.985   6.813   4.372 -0.1414 -0.4711  0.3396
17957TIP3    H175362   4.074   6.831   4.400 -0.0908  0.2961 -0.2848
17957TIP3    H275363   3.970   6.873   4.299 -0.6646 -1.6206 -0.5195
17958TIP3   OH275364   3.003   1.158   3.076 -0.3861  0.4240  0.1397
17958TIP3    H175365   2.923   1.211   3.075  0.5484  1.8866  0.3079
17958TIP3    H275366   2.985   1.090   3.141 -2.3375 -0.7000 -1.4862
17959TIP3   OH275367   5.659   4.586  16.149  0.2444  0.5405 -0.1636
17959TIP3    H175368   5.726   4.588  16.218 -0.8803  0.5053  0.9609
17959TIP3    H275369   5.644   4.492  16.133 -1.2295  0.4595  1.3417
17960TIP3   OH275370   1.070   3.634  16.599  0.0856 -0.2162  0.7242
17960TIP3    H175371   1.120   3.715  16.606  0.2102 -0.3553  1.4696
17960TIP3    H275372   1.037   3.618  16.687 -0.2627 -0.7755  0.4989
17961TIP3   OH275373   3.348   5.990  13.325  0.1719 -0.1296 -0.0573
17961TIP3    H175374   3.430   5.972  13.279  0.4092 -0.0598  0.3419
17961TIP3    H275375   3.374   6.026  13.409 -0.2868  1.2021 -0.4597
17962TIP3   OH275376   2.405   0.693  12.365 -0.1754  0.0661  0.5299
17962TIP3    H175377   2.346   0.627  12.330  0.5767 -0.2698 -0.1424
17962TIP3    H275378   2.364   0.776  12.341 -1.5113 -0.1095  2.0395
17963TIP3   OH275379   2.960   5.653  13.866  0.2286  0.2871  0.2842
17963TIP3    H175380   2.959   5.721  13.799 -0.5081 -0.3697 -0.4033
17963TIP3    H275381   2.868   5.637  13.886  0.4343  0.3620  1.3554
17964TIP3   OH275382   5.492   4.254   5.765 -0.0725  0.1189 -0.2502
17964TIP3    H175383   5.564   4.199   5.734 -0.6961 -0.0843 -1.3953
17964TIP3    H275384   5.433   4.261   5.690 -0.6580  1.2739  0.2879
17965TIP3   OH275385   2.812   2.655   1.909  0.0102 -0.3459 -0.5025
17965TIP3    H175386   2.758   2.604   1.849 -0.5452 -2.0594  1.3269
17965TIP3    H275387   2.902   2.641   1.878 -0.1484 -2.2946 -0.2427
17966TIP3   OH275388   4.221   2.533   2.076  0.3024  0.3711 -0.5840
17966TIP3    H175389   4.192   2.605   2.133  0.8852 -0.4267  0.7707
17966TIP3    H275390   4.288   2.571   2.021 -0.0052  1.0768 -0.4839
17967TIP3   OH275391   3.565   0.678  11.703  0.5766 -0.0343 -0.1542
17967TIP3    H175392   3.580   0.772  11.694  0.4534  0.0931  0.8832
17967TIP3    H275393   3.582   0.643  11.615  0.1237  1.0157 -0.6785
17968TIP3   OH275394   4.955   2.294  12.262  0.3966  0.0609 -0.1119
17968TIP3    H175395   4.951   2.228  12.331  0.7633 -0.0094 -0.1543
17968TIP3    H275396   5.013   2.256  12.196  0.0142  0.1111 -0.4764
17969TIP3   OH275397   0.646   1.799  12.351  0.4201  0.9603  0.3074
17969TIP3    H175398   0.620   1.722  12.301  1.6940 -0.5338  1.8156
17969TIP3    H275399   0.590   1.798  12.428  0.4506  1.5357  0.3410
17970TIP3   OH275400   0.100   3.008   2.241  0.1142 -0.1436 -0.0911
17970TIP3    H175401   0.148   3.082   2.204  0.6097  0.4988  1.7209
17970TIP3    H275402   0.105   2.940   2.174  1.4752  0.7390 -0.9353
17971TIP3   OH275403   4.704   3.420  11.890 -0.0445 -0.0032  0.1525
17971TIP3    H175404   4.717   3.332  11.926  1.0574  0.3160  0.5916
17971TIP3    H275405   4.741   3.415  11.802 -0.4256 -0.1072 -0.0019
17972TIP3   OH275406   1.854   0.797   1.228 -0.2991  0.5078  0.0256
17972TIP3    H175407   1.924   0.789   1.293 -0.0220 -1.0611 -0.4179
17972TIP3    H275408   1.893   0.846   1.156  1.1209 -2.1109 -1.1359
17973TIP3   OH275409   2.919   3.372   6.257 -0.4289  0.6332  0.2852
17973TIP3    H175410   2.829   3.364   6.290  0.2483  0.5272  2.2416
17973TIP3    H275411   2.953   3.452   6.298  1.0166 -0.4361  1.2805
17974TIP3   OH275412   6.293   0.061   0.748 -0.5610 -0.0480 -0.0322
17974TIP3    H175413   6.299  -0.031   0.724  0.6268  0.0543 -0.1961
17974TIP3    H275414   6.204   0.086   0.726 -0.9953 -1.2408  0.3188
17975TIP3   OH275415   3.490   4.913  11.328  0.1787  0.2584  0.3960
17975TIP3    H175416   3.459   4.932  11.240  1.1460  1.6192  0.3290
17975TIP3    H275417   3.461   4.988  11.380  0.4688 -0.0639  1.0310
17976TIP3   OH275418   0.563   1.418   5.389 -0.0993 -0.5416 -0.4735
17976TIP3    H175419   0.622   1.459   5.452 -0.2372 -1.5244  0.2975
17976TIP3    H275420   0.475   1.436   5.422 -0.2624  0.5775 -1.4128
17977TIP3   OH275421   1.314   6.366   5.001 -0.2138  0.2486  0.0224
17977TIP3    H175422   1.274   6.385   5.086  0.0021  1.7813 -0.1813
17977TIP3    H275423   1.249   6.313   4.955 -0.9468  0.5961  0.6315
17978TIP3   OH275424   5.513   2.132  16.589  0.0829 -0.3447  0.5264
17978TIP3    H175425   5.518   2.190  16.665  0.3377  0.3528 -0.0110
17978TIP3    H275426   5.452   2.176  16.529 -0.1381 -0.9022  0.3348
17979TIP3   OH275427   4.549   5.158   4.508 -0.3227 -0.3649  0.0118
17979TIP3    H175428   4.529   5.247   4.538 -0.2216 -0.3048 -0.0979
17979TIP3    H275429   4.590   5.171   4.422  5.0468 -0.0750  2.2411
17980TIP3   OH275430   6.690   1.494  16.605  0.1531 -0.9081  0.7654
17980TIP3    H175431   6.704   1.438  16.682  1.2793  0.3700  1.5290
17980TIP3    H275432   6.777   1.525  16.581 -0.3282 -0.3350 -0.3079
17981TIP3   OH275433   2.414   3.637  11.520  0.1579  0.3969 -0.5217
17981TIP3    H175434   2.441   3.556  11.563  0.3270  1.6442  1.9007
17981TIP3    H275435   2.463   3.638  11.438 -0.3682 -2.2364 -0.9324
17982TIP3   OH275436   4.615   5.818   3.657  0.1552 -0.4954 -0.0832
17982TIP3    H175437   4.589   5.910   3.665 -1.6926 -1.0680  1.3598
17982TIP3    H275438   4.652   5.811   3.569  1.9910  1.9744  0.3679
17983TIP3   OH275439   6.114   3.276  12.796 -0.0863 -0.0728  0.0560
17983TIP3    H175440   6.078   3.255  12.882 -0.6488 -1.1637 -0.4235
17983TIP3    H275441   6.049   3.335  12.757 -0.1313 -0.0591  0.1513
17984TIP3   OH275442   3.665   0.334   0.878 -0.1990  0.0069  0.0315
17984TIP3    H175443   3.758   0.314   0.888  0.2616  0.6936 -2.2221
17984TIP3    H275444   3.625   0.251   0.853 -0.4151 -0.5097  1.9517
17985TIP3   OH275445   2.814   3.623  12.595  0.3467  0.0969 -0.8259
17985TIP3    H175446   2.858   3.686  12.653 -1.0711  0.1806  0.2110
17985TIP3    H275447   2.767   3.677  12.532 -1.6676  0.1739  0.6574
17986TIP3   OH275448   3.606   3.816   5.142  0.0642 -0.5096 -0.0342
17986TIP3    H175449   3.699   3.823   5.122  0.1490 -0.2427  0.4291
17986TIP3    H275450   3.567   3.777   5.064  0.4628  0.0168 -0.5086
17987TIP3   OH275451   0.310   4.727   4.373 -0.2906  0.0208 -0.5099
17987TIP3    H175452   0.386   4.683   4.335  1.4684  2.2292  0.2497
17987TIP3    H275453   0.317   4.711   4.467 -2.6951 -2.5084 -0.6449
17988TIP3   OH275454   5.198   2.828   5.127  0.5633  0.3194  0.2620
17988TIP3    H175455   5.256   2.798   5.197  1.7784  1.6513 -0.1358
17988TIP3    H275456   5.211   2.922   5.124 -1.3458  0.6111 -0.1276
17989TIP3   OH275457   5.872   4.588   5.051  0.7439 -0.0742  0.5436
17989TIP3    H175458   5.803   4.522   5.047 -0.7002  1.3689  0.3402
17989TIP3    H275459   5.828   4.669   5.026  2.8072  0.7098 -0.7823
17990TIP3   OH275460   1.476   1.691  13.029 -0.2878 -0.1259 -0.3034
17990TIP3    H175461   1.568   1.717  13.031  0.9536 -3.9315  1.0115
17990TIP3    H275462   1.467   1.638  12.949 -1.2669 -0.0939 -0.2357
17991TIP3   OH275463   5.664   0.136   3.363  0.2066 -0.3183  0.0096
17991TIP3    H175464   5.729   0.084   3.412 -1.9765 -1.1810  2.2015
17991TIP3    H275465   5.634   0.201   3.426 -1.4808 -0.3547 -0.7208
17992TIP3   OH275466   5.908   5.242  11.516 -0.1438 -0.0595 -0.2866
17992TIP3    H175467   5.815   5.230  11.533  0.2983 -1.0834  1.6787
17992TIP3    H275468   5.948   5.159  11.539  1.6115  1.3010  2.0388
17993TIP3   OH275469   5.981   2.593  11.167 -0.3401  0.4076  0.3238
17993TIP3    H175470   5.958   2.594  11.260  1.4451  1.3705  0.8154
17993TIP3    H275471   6.005   2.502  11.150 -0.8035  0.1979  0.7715
17994TIP3   OH275472   4.669   3.463   3.264  0.0121  0.1233 -0.5937
17994TIP3    H175473   4.756   3.488   3.231  0.0648 -0.4326 -0.9029
17994TIP3    H275474   4.609   3.522   3.219  0.2250  0.4630 -0.4366
17995TIP3   OH275475   3.579   4.230   5.701 -0.0828 -0.1723 -0.1898
17995TIP3    H175476   3.639   4.168   5.743 -0.2832  0.3382  0.8819
17995TIP3    H275477   3.520   4.175   5.650  0.5844 -0.7621 -0.3421
17996TIP3   OH275478   5.184   4.267   0.905 -0.1311  0.7963  0.0731
17996TIP3    H175479   5.269   4.310   0.901  0.6687 -0.5370  1.8477
17996TIP3    H275480   5.132   4.323   0.963 -0.5272  1.6216 -1.0268
17997TIP3   OH275481   4.619   3.571  17.032 -0.2808  0.4972  0.0384
17997TIP3    H175482   4.650   3.646  16.981  2.8542 -0.4653  0.3300
17997TIP3    H275483   4.634   3.596  17.123  0.8105 -0.4361  0.1354
17998TIP3   OH275484   3.561   5.777  10.563  0.6333  0.5516 -0.9849
17998TIP3    H175485   3.570   5.872  10.572  1.0581  0.5212 -1.0720
17998TIP3    H275486   3.642   5.741  10.600  0.9587  0.2731 -1.9320
17999TIP3   OH275487   1.233   3.122   1.438 -0.0878  0.1615  0.1630
17999TIP3    H175488   1.295   3.057   1.472 -0.8974 -0.3179  0.7587
17999TIP3    H275489   1.254   3.130   1.345  0.7103 -0.1689  0.3083
18000TIP3   OH275490   4.794   5.364  15.175 -0.1596 -0.4499 -0.4295
18000TIP3    H175491   4.748   5.420  15.238 -1.5368 -1.0990 -0.8419
18000TIP3    H275492   4.840   5.426  15.118 -0.5033  0.2179  0.0027
18001TIP3   OH275493   4.691   0.042  11.030  0.3295 -0.5982  0.3277
18001TIP3    H175494   4.699   0.010  11.119 -0.0038 -4.3013 -0.7988
18001TIP3    H275495   4.614  -0.003  10.995 -2.3435  4.0617 -0.6954
18002TIP3   OH275496   2.289   3.632  15.903  0.7434  0.0754 -0.1828
18002TIP3    H175497   2.383   3.639  15.919  0.6263 -2.2183  2.1830
18002TIP3    H275498   2.250   3.654  15.987 -0.7670 -0.2700 -0.7699
18003TIP3   OH275499   5.261   2.092  16.756 -0.3632 -0.5125  0.4538
18003TIP3    H175500   5.343   2.124  16.795 -0.4228  0.6537 -0.3009
18003TIP3    H275501   5.284   2.078  16.664 -1.1904  0.6342  0.0460
18004TIP3   OH275502   1.169   1.258   2.762 -0.0321  0.0091 -0.4408
18004TIP3    H175503   1.088   1.305   2.746  0.0417 -0.4805 -2.5536
18004TIP3    H275504   1.238   1.322   2.743  0.1090  0.1947  0.6061
18005TIP3   OH275505   3.578   5.103  16.888  0.2197  0.5107  0.3587
18005TIP3    H175506   3.554   5.058  16.808  1.3238  1.3936 -0.5123
18005TIP3    H275507   3.508   5.167  16.901  0.0075  0.3283  0.1190
18006TIP3   OH275508   6.156   2.369  16.865 -1.1250  0.1429  0.1529
18006TIP3    H175509   6.187   2.329  16.947  0.1380  1.6211  0.4460
18006TIP3    H275510   6.076   2.322  16.844  0.2275 -2.4986  0.4790
18007TIP3   OH275511   4.168   4.211  11.908 -0.1257 -0.0772  0.2918
18007TIP3    H175512   4.168   4.133  11.853  2.8923 -0.6067  0.8758
18007TIP3    H275513   4.253   4.252  11.891 -0.7970  1.9650  1.5592
18008TIP3   OH275514   1.565   5.387  10.900  0.0786 -0.2785 -0.9008
18008TIP3    H175515   1.503   5.430  10.840  0.8399 -0.5453 -1.9006
18008TIP3    H275516   1.579   5.301  10.861  1.2459 -0.1384 -0.8111
18009TIP3   OH275517   2.974   3.066  12.841  0.3623 -0.0170 -0.1229
18009TIP3    H175518   2.935   3.146  12.806 -0.2403 -0.8581 -1.4573
18009TIP3    H275519   3.029   3.033  12.770  1.6982 -0.0943  0.9011
18010TIP3   OH275520   0.182   3.577   6.223  0.2452 -0.0300  0.3690
18010TIP3    H175521   0.127   3.562   6.300 -2.2685 -2.2989 -1.6444
18010TIP3    H275522   0.258   3.519   6.236  0.4797  0.5379  1.6446
18011TIP3   OH275523   2.377   1.453  12.369 -0.0567 -0.1158  0.2987
18011TIP3    H175524   2.468   1.474  12.392 -0.4519  1.4815  0.5705
18011TIP3    H275525   2.349   1.390  12.435  0.9588 -0.8995 -0.0072
18012TIP3   OH275526   1.727   2.390   4.985 -0.3452 -0.2510  0.0763
18012TIP3    H175527   1.821   2.408   4.997 -0.1045 -0.3138 -1.5340
18012TIP3    H275528   1.683   2.449   5.046  0.7484 -0.9102  1.5884
18013TIP3   OH275529   2.588   5.487   5.860 -0.1620  0.2494  0.2849
18013TIP3    H175530   2.576   5.480   5.765 -1.6676 -0.0352  0.4651
18013TIP3    H275531   2.572   5.399   5.893  4.0759 -0.6205  0.5467
18014TIP3   OH275532   1.554   1.421  13.162  0.3742 -0.2218  0.0616
18014TIP3    H175533   1.493   1.348  13.152  1.2863 -1.3932  2.2573
18014TIP3    H275534   1.499   1.496  13.185 -0.5218 -0.2920 -1.6823
18015TIP3   OH275535   2.867   4.783   4.705  0.6811 -0.1745 -0.6988
18015TIP3    H175536   2.909   4.781   4.792 -0.2656  1.0262 -0.1836
18015TIP3    H275537   2.781   4.744   4.720  0.5819 -0.1224 -1.1484
18016TIP3   OH275538   2.384   5.730  13.541 -0.1955 -0.2334  0.0045
18016TIP3    H175539   2.370   5.644  13.502 -0.9367 -1.1505  2.1216
18016TIP3    H275540   2.476   5.730  13.568 -0.5035 -0.9335  1.1568
18017TIP3   OH275541   3.259   3.095   1.175 -0.5787 -0.5111  0.1814
18017TIP3    H175542   3.246   3.157   1.247  0.1818 -1.2493  0.9841
18017TIP3    H275543   3.255   3.009   1.216 -0.4188 -0.9598 -0.7146
18018TIP3   OH275544   4.395   3.318   4.764  0.0958 -0.4026  0.1274
18018TIP3    H175545   4.449   3.371   4.705  0.5231 -1.3549 -0.3523
18018TIP3    H275546   4.308   3.356   4.758  0.4315  0.3495 -0.0753
18019TIP3   OH275547   1.090   6.205  15.395 -0.4778 -0.3825  0.1456
18019TIP3    H175548   1.123   6.121  15.362 -0.5453  0.1904 -1.4547
18019TIP3    H275549   1.003   6.214  15.357 -0.9515 -0.1213  1.2656
18020TIP3   OH275550   1.696   2.661  11.711  0.5936  0.3094 -0.1466
18020TIP3    H175551   1.775   2.663  11.765 -0.6281 -1.3838  1.8265
18020TIP3    H275552   1.645   2.588  11.745 -1.9636  1.5010 -1.1646
18021TIP3   OH275553   1.871   1.528  15.454  0.1703  0.5746 -0.1973
18021TIP3    H175554   1.944   1.578  15.490  1.0236 -0.7078 -0.0983
18021TIP3    H275555   1.822   1.498  15.530  1.6075 -1.5844 -0.0242
18022TIP3   OH275556   0.262   0.586   0.162 -0.0752 -0.2929  0.3341
18022TIP3    H175557   0.223   0.519   0.106  0.6615  0.2966 -0.9345
18022TIP3    H275558   0.265   0.664   0.107  3.6595 -0.5010  0.0073
18023TIP3   OH275559   3.823   4.609  13.390  0.1001 -0.3988  0.3597
18023TIP3    H175560   3.893   4.544  13.392  0.5835  0.0460 -1.0340
18023TIP3    H275561   3.857   4.680  13.335 -1.3080 -0.0064 -0.0518
18024TIP3   OH275562   4.094   6.360  16.737 -0.0300  0.6310 -0.1558
18024TIP3    H175563   4.037   6.401  16.803 -1.8166 -1.8896  0.0294
18024TIP3    H275564   4.041   6.356  16.658 -0.0117 -1.3620 -0.1172
18025TIP3   OH275565   1.913   0.646   3.057  0.3548 -0.4429  0.3601
18025TIP3    H175566   1.951   0.678   2.975  1.0490  0.3646  0.9809
18025TIP3    H275567   1.984   0.596   3.098 -0.0583 -1.0284  0.3764
18026TIP3   OH275568   5.316   5.082   4.361 -0.1208  0.3616 -0.2556
18026TIP3    H175569   5.279   5.093   4.448  1.3972  1.4555  0.2858
18026TIP3    H275570   5.328   4.988   4.351 -1.0665  0.1654  0.3704
18027TIP3   OH275571   1.873   2.688  14.432  0.4140 -0.3803 -0.5294
18027TIP3    H175572   1.965   2.714  14.429  0.1508  0.9302  1.1442
18027TIP3    H275573   1.872   2.610  14.488  0.8052 -2.2101 -2.9249
18028TIP3   OH275574   4.164   4.361   1.769  0.7173  0.3313  0.1517
18028TIP3    H175575   4.156   4.442   1.718  1.3819 -1.6251 -3.3558
18028TIP3    H275576   4.078   4.320   1.764  0.6878  0.2693  0.9693
18029TIP3   OH275577   1.073   5.031   2.050  0.5809 -0.1475  0.0421
18029TIP3    H175578   1.123   4.976   1.990  1.5627 -0.2184  0.8975
18029TIP3    H275579   1.136   5.094   2.084 -0.5497  1.5874 -0.9636
18030TIP3   OH275580   3.999   0.538   5.311  0.0571  0.0192  0.0615
18030TIP3    H175581   4.071   0.484   5.344  0.6683  1.8022  1.9192
18030TIP3    H275582   3.921   0.502   5.353 -0.2283 -1.9388 -1.9768
18031TIP3   OH275583   2.784   2.417  12.087  0.1060 -0.7681  0.4346
18031TIP3    H175584   2.871   2.424  12.125  0.9986 -1.1010 -1.4535
18031TIP3    H275585   2.768   2.323  12.081 -0.5753 -0.7091  1.1351
18032TIP3   OH275586   6.560   6.556  15.461  0.2944  0.1150  0.5817
18032TIP3    H175587   6.475   6.577  15.500 -0.0506 -0.6438  0.2597
18032TIP3    H275588   6.613   6.523  15.533  0.5297  1.1573  0.9060
18033TIP3   OH275589   6.114   1.578  11.356  0.4661  0.2291 -0.0971
18033TIP3    H175590   6.063   1.599  11.278 -1.0739  0.4670  0.9418
18033TIP3    H275591   6.190   1.529  11.322 -1.3235 -1.7174 -1.5615
18034TIP3   OH275592   3.855   6.313   3.897 -0.2943  0.2879  0.0574
18034TIP3    H175593   3.944   6.315   3.862 -0.3860  1.8398 -0.1570
18034TIP3    H275594   3.806   6.372   3.839 -1.8483 -1.7218 -0.8043
18035TIP3   OH275595   1.290   0.299   5.137 -0.6733 -0.1734 -0.0407
18035TIP3    H175596   1.257   0.298   5.227  1.1045  0.5782  0.6682
18035TIP3    H275597   1.239   0.232   5.092 -1.6379 -0.5358  1.5122
18036TIP3   OH275598   2.326   5.928   5.384 -0.2492 -0.0368  0.0983
18036TIP3    H175599   2.290   6.006   5.341 -0.7354  0.2489  0.9976
18036TIP3    H275600   2.266   5.910   5.456  0.0424 -1.0552  0.1053
18037TIP3   OH275601   5.399   4.881  11.420 -0.1886 -0.5654 -0.1107
18037TIP3    H175602   5.415   4.866  11.514  0.0747 -0.9993 -0.2220
18037TIP3    H275603   5.305   4.898  11.414 -0.2917 -1.0301  0.1687
18038TIP3   OH275604   1.068   4.639  13.381 -0.2659  0.1428 -0.5697
18038TIP3    H175605   0.992   4.581  13.382  0.0716 -0.2997 -0.6752
18038TIP3    H275606   1.134   4.593  13.432  0.9577 -0.8639 -2.9071
18039TIP3   OH275607   2.671   2.885  12.229 -0.1063 -0.4946 -0.3685
18039TIP3    H175608   2.647   2.911  12.140 -0.3694  1.8890  0.3190
18039TIP3    H275609   2.756   2.927  12.244 -0.8764  0.6371  1.0718
18040TIP3   OH275610   4.397   5.598  15.938 -0.0624  0.1902 -0.0317
18040TIP3    H175611   4.439   5.543  15.872 -2.0358 -0.5909 -0.7123
18040TIP3    H275612   4.468   5.652  15.973  2.1050 -2.9275  0.8804
18041TIP3   OH275613   0.467   3.280  12.983 -0.6183  0.7839 -0.2481
18041TIP3    H175614   0.531   3.279  12.911 -2.3887 -0.1482 -1.8916
18041TIP3    H275615   0.518   3.258  13.061  0.8060 -1.8295 -1.7712
18042TIP3   OH275616   1.415   5.471  12.688  0.3063 -0.1452 -0.2061
18042TIP3    H175617   1.463   5.389  12.678  1.4053  0.4354  0.1456
18042TIP3    H275618   1.444   5.506  12.772 -1.4058 -0.1773  0.4493
18043TIP3   OH275619   2.547   5.931   3.513  0.1557 -0.3311 -0.4076
18043TIP3    H175620   2.500   5.921   3.431  0.8647 -1.7354 -0.6774
18043TIP3    H275621   2.613   5.861   3.512  0.0728 -0.4965  1.4264
18044TIP3   OH275622   4.027   2.239  13.794  0.1400  0.1187  0.1140
18044TIP3    H175623   4.034   2.286  13.711  3.6122 -1.4626 -0.6893
18044TIP3    H275624   4.074   2.295  13.856  3.6365 -1.5995 -0.6871
18045TIP3   OH275625   4.796   5.639  16.286 -0.9801  0.0168 -0.0606
18045TIP3    H175626   4.831   5.692  16.215  0.6841 -0.2693  0.4944
18045TIP3    H275627   4.813   5.549  16.260  0.7315 -0.0636  1.1828
18046TIP3   OH275628   6.244   5.937  13.147 -0.6307  0.0437  0.2615
18046TIP3    H175629   6.189   6.008  13.181 -0.7485  0.5245 -0.9030
18046TIP3    H275630   6.275   5.969  13.062  0.2378 -0.8426  0.2274
18047TIP3   OH275631   3.468   1.500  12.856 -0.2719 -0.5070  0.5258
18047TIP3    H175632   3.546   1.518  12.805 -1.1899  0.3239 -0.6400
18047TIP3    H275633   3.478   1.554  12.935  0.6495 -0.9703  0.7386
18048TIP3   OH275634   3.034   1.053   0.342 -0.0955 -0.5516  0.5009
18048TIP3    H175635   3.098   1.070   0.273  0.1188 -1.8498  0.3581
18048TIP3    H275636   3.048   1.125   0.405  1.5202 -0.7985  0.4839
18049TIP3   OH275637   4.743   3.917   2.542  0.8578 -0.0503 -0.6208
18049TIP3    H175638   4.701   3.884   2.462  0.6591  1.2227 -1.0741
18049TIP3    H275639   4.700   3.871   2.613  1.2668 -1.4622 -1.2475
18050TIP3   OH275640   2.446   6.035   2.042  0.4174  0.4780  0.2558
18050TIP3    H175641   2.521   6.083   2.006  0.0917  0.9411  0.1881
18050TIP3    H275642   2.469   5.943   2.028  1.3094  0.5851  0.9169
18051TIP3   OH275643   1.867   1.751  12.783  0.3675  0.1739 -0.2702
18051TIP3    H175644   1.957   1.743  12.750  0.6068  1.6473 -0.0813
18051TIP3    H275645   1.872   1.718  12.873  0.9629  1.0853  0.0536
18052TIP3   OH275646   0.184   2.587  11.469 -0.2843  0.2044  0.2997
18052TIP3    H175647   0.267   2.540  11.484 -0.8967 -0.8408  0.4809
18052TIP3    H275648   0.186   2.609  11.376  0.5239  0.8592  0.4489
18053TIP3   OH275649   5.030   1.853   6.245  0.3602  0.0405  0.2949
18053TIP3    H175650   5.077   1.769   6.244 -0.6325 -0.5620  1.0591
18053TIP3    H275651   5.000   1.865   6.155  1.3604  0.0843 -0.0400
18054TIP3   OH275652   4.695   6.373  11.732  0.1197 -0.1564  0.1195
18054TIP3    H175653   4.700   6.437  11.662  2.1506 -1.1205 -0.6849
18054TIP3    H275654   4.755   6.404  11.799 -0.7660  0.0384  0.8503
18055TIP3   OH275655   0.129   6.087  12.667  0.1274 -0.0829  0.4296
18055TIP3    H175656   0.208   6.038  12.691  0.6387  0.9693  0.9754
18055TIP3    H275657   0.128   6.161  12.727 -0.3736  0.8270 -0.6672
18056TIP3   OH275658   2.724   0.205  15.224 -0.7902  0.4260  0.1888
18056TIP3    H175659   2.691   0.132  15.277 -0.3570  0.6891  0.8373
18056TIP3    H275660   2.819   0.200  15.236 -0.8375  2.1519  1.6765
18057TIP3   OH275661   1.729   0.066   1.518 -0.0605 -0.2975  0.3696
18057TIP3    H175662   1.640   0.052   1.551  0.4029 -1.0431  1.3440
18057TIP3    H275663   1.724   0.043   1.425 -1.5144  2.3332 -0.3031
18058TIP3   OH275664   0.366   4.316   5.669  0.3343  0.2167  0.5069
18058TIP3    H175665   0.362   4.244   5.731  1.2088 -0.4431 -0.1613
18058TIP3    H275666   0.334   4.392   5.717  0.4824 -0.3875  1.5872
18059TIP3   OH275667   5.814   6.744  15.177  0.2114 -0.0641  0.5416
18059TIP3    H175668   5.881   6.811  15.184  0.1664 -0.0877  1.2703
18059TIP3    H275669   5.828   6.687  15.253 -0.7300  0.0256  0.8019
18060TIP3   OH275670   1.651   4.352   4.364  0.3089 -0.0608  0.3967
18060TIP3    H175671   1.617   4.428   4.410 -0.9314 -0.9415  1.0123
18060TIP3    H275672   1.718   4.387   4.305  0.9997  1.2644  1.8982
18061TIP3   OH275673   2.046   5.558   0.036 -0.4891  0.4279  0.0616
18061TIP3    H175674   2.132   5.591   0.009 -0.6516  0.2461 -0.6995
18061TIP3    H275675   1.995   5.636   0.055 -1.1553  0.7126 -2.5939
18062TIP3   OH275676   1.052   3.310   4.568  0.0835 -0.2962 -0.2676
18062TIP3    H175677   1.082   3.274   4.485 -0.2147  0.1876 -0.5871
18062TIP3    H275678   0.997   3.242   4.606 -0.6460 -0.0993 -0.9633
18063TIP3   OH275679   6.595   3.539   5.639 -0.3076 -0.3062 -0.0844
18063TIP3    H175680   6.605   3.601   5.567  1.2317 -0.1578  0.2124
18063TIP3    H275681   6.511   3.496   5.623 -0.9844  1.1949 -0.8035
18064TIP3   OH275682   0.044   4.928  16.935  0.7112 -0.0035 -0.2050
18064TIP3    H175683   0.064   4.966  16.849  1.3269  0.2518  0.0492
18064TIP3    H275684   0.129   4.920  16.978  0.5372 -1.2134 -0.0576
18065TIP3   OH275685   3.409   0.002  12.227  0.4112 -0.1134  0.3782
18065TIP3    H175686   3.432  -0.089  12.213  1.9195  0.0845  1.4258
18065TIP3    H275687   3.324  -0.001  12.271  1.7000 -1.1391  2.9533
18066TIP3   OH275688   1.027   1.549  14.646 -0.0947  0.1346  0.3663
18066TIP3    H175689   1.005   1.634  14.609 -0.8434 -0.2984 -0.2160
18066TIP3    H275690   1.119   1.555  14.668  0.1388  0.7265 -0.7106
18067TIP3   OH275691   4.137   0.805   0.576  0.3379  0.3912 -0.2525
18067TIP3    H175692   4.064   0.827   0.634  0.3167  1.0092 -0.5044
18067TIP3    H275693   4.127   0.865   0.501  1.0143  0.3772 -0.3573
18068TIP3   OH275694   5.868   6.488  11.168  0.4662  0.7897  0.3083
18068TIP3    H175695   5.846   6.456  11.081  0.5287 -2.4629  1.3352
18068TIP3    H275696   5.784   6.502  11.211  0.4192  3.2955 -0.4881
18069TIP3   OH275697   1.610   2.447  11.153 -0.0722 -0.4420  0.4368
18069TIP3    H175698   1.699   2.466  11.122 -0.2920 -1.2665 -0.7669
18069TIP3    H275699   1.571   2.396  11.082 -1.8102  0.6703  0.5316
18070TIP3   OH275700   5.482   0.489  17.154 -0.4212  0.2085  0.0905
18070TIP3    H175701   5.539   0.528  17.221  0.5007  1.4459 -1.3377
18070TIP3    H275702   5.395   0.490  17.194  0.1559  0.5543  1.4198
18071TIP3   OH275703   3.025   3.105  11.641 -0.2383 -0.2636 -0.5564
18071TIP3    H175704   2.941   3.069  11.611  0.5238 -1.9458 -0.7307
18071TIP3    H275705   3.011   3.124  11.734 -0.3307 -2.1023 -0.1694
18072TIP3   OH275706   0.610   0.855  15.469 -0.1367 -0.3451  0.1684
18072TIP3    H175707   0.623   0.766  15.436 -1.0290 -0.4165 -0.0367
18072TIP3    H275708   0.539   0.846  15.534 -1.7411  0.5032 -1.3670
18073TIP3   OH275709   3.194   2.788   3.840 -0.4216 -0.7683 -0.5866
18073TIP3    H175710   3.264   2.776   3.776  0.0919  0.2367 -0.2496
18073TIP3    H275711   3.237   2.773   3.925 -0.9250 -1.3994 -0.4344
18074TIP3   OH275712   6.491   1.995   2.114  0.1455  0.0042 -0.1108
18074TIP3    H175713   6.406   2.009   2.073 -0.3607 -3.2922 -0.4533
18074TIP3    H275714   6.522   1.913   2.077  2.7730  0.3001  1.2097
18075TIP3   OH275715   0.794   2.258  13.980 -0.0041  0.2775  0.7109
18075TIP3    H175716   0.713   2.212  13.999 -0.6777  0.8933 -0.5298
18075TIP3    H275717   0.846   2.251  14.060 -1.1806 -0.3159  1.4390
18076TIP3   OH275718   6.561   5.994   6.468  0.0121 -0.1905 -0.3876
18076TIP3    H175719   6.475   5.976   6.505 -0.3170 -0.2188 -1.1526
18076TIP3    H275720   6.593   6.071   6.516 -0.6804  0.1662 -0.5001
18077TIP3   OH275721   3.526   5.474   5.447  0.2221  0.6075 -0.0855
18077TIP3    H175722   3.529   5.489   5.353  0.2678  0.2724 -0.1394
18077TIP3    H275723   3.453   5.527   5.478 -1.1247 -0.8741 -0.6091
18078TIP3   OH275724   6.453   3.781  10.101  0.1696  0.2522 -0.4244
18078TIP3    H175725   6.525   3.840  10.123  0.1375  0.3254 -0.5141
18078TIP3    H275726   6.397   3.783  10.178  1.5511 -1.8027  0.7319
18079TIP3   OH275727   0.260   6.317  15.117 -0.0656 -0.3053 -0.5499
18079TIP3    H175728   0.223   6.313  15.029 -1.8600 -0.7786  0.1766
18079TIP3    H275729   0.207   6.255  15.167  2.3901 -1.7942  0.3728
18080TIP3   OH275730   5.915   4.695  10.588 -0.5360 -0.5861  0.7625
18080TIP3    H175731   5.833   4.652  10.565 -2.0251  1.5675  1.6896
18080TIP3    H275732   5.983   4.643  10.545 -2.2658 -3.0425  0.7918
18081TIP3   OH275733   6.073   6.184  11.560  0.0202  0.5131 -0.0077
18081TIP3    H175734   6.057   6.134  11.480 -1.7393  0.2876  0.4261
18081TIP3    H275735   6.045   6.273  11.539  0.5148  0.6805  0.0474
18082TIP3   OH275736   1.181   0.848   5.694  0.3085 -0.5374 -0.1871
18082TIP3    H175737   1.188   0.889   5.781  0.4251 -3.3394  1.2259
18082TIP3    H275738   1.268   0.859   5.656 -0.0890  1.8282 -0.5511
18083TIP3   OH275739   5.302   0.172   0.038  0.3837 -0.0061  0.1499
18083TIP3    H175740   5.288   0.219  -0.045  1.9511 -0.5886 -0.4946
18083TIP3    H275741   5.250   0.092   0.029 -0.3511  0.4545  0.2204
18084TIP3   OH275742   4.951   6.180  16.293 -0.0967  0.3995  0.2786
18084TIP3    H175743   4.872   6.149  16.249  0.1579 -0.6174  0.4993
18084TIP3    H275744   5.014   6.109  16.280  0.2855  0.4998  1.4643
18085TIP3   OH275745   4.703   2.195  15.514 -0.3221  0.7961 -0.3709
18085TIP3    H175746   4.715   2.139  15.437 -4.2114 -0.1995 -0.4503
18085TIP3    H275747   4.775   2.171  15.573  0.6771 -1.0448 -2.2106
18086TIP3   OH275748   3.030   2.268  15.476  0.6646  0.5021  0.4282
18086TIP3    H175749   3.066   2.331  15.414  1.6138  0.2252  0.6895
18086TIP3    H275750   2.936   2.283  15.473  0.3359 -1.0823 -2.8755
18087TIP3   OH275751   2.411   3.561  16.643  0.1998 -0.0110  0.0134
18087TIP3    H175752   2.374   3.639  16.601  1.2870  1.4481  1.6297
18087TIP3    H275753   2.341   3.531  16.701 -0.9152 -1.4179 -1.9289
18088TIP3   OH275754   1.017   1.492  15.946  0.2415  0.0544 -0.2769
18088TIP3    H175755   0.984   1.552  15.879  0.2147 -1.0465 -1.2868
18088TIP3    H275756   0.945   1.431  15.960  0.8230 -0.6836 -0.4367
18089TIP3   OH275757   1.988   0.580  13.326 -0.1214 -0.3707  0.0330
18089TIP3    H175758   2.071   0.566  13.371  0.0039  0.5704  0.1243
18089TIP3    H275759   2.008   0.644  13.258 -0.5710 -0.8620 -0.5671
18090TIP3   OH275760   4.345   5.588  13.741  0.1582  0.3675 -0.1450
18090TIP3    H175761   4.307   5.673  13.763  0.6664  0.1433  1.7745
18090TIP3    H275762   4.314   5.529  13.810 -0.3826 -1.0984 -1.5637
18091TIP3   OH275763   2.994   5.382   4.274  0.1140  0.2007 -0.0733
18091TIP3    H175764   2.941   5.312   4.314  1.4565 -0.6947  0.1987
18091TIP3    H275765   3.066   5.335   4.231  0.7761  1.4099 -0.3050
18092TIP3   OH275766   3.172   0.125   4.381  0.0859 -0.1515  0.5383
18092TIP3    H175767   3.115   0.075   4.440 -1.2270 -0.8063 -1.1715
18092TIP3    H275768   3.113   0.153   4.310  1.3122  1.7863  0.2411
18093TIP3   OH275769   0.860   0.194   6.115  0.0922  0.2469  0.2331
18093TIP3    H175770   0.800   0.268   6.110  0.2863  0.3697 -0.2603
18093TIP3    H275771   0.939   0.223   6.071  0.2793 -0.1507  0.2959
18094TIP3   OH275772   4.333   6.796  11.766 -0.1831  0.0345  0.5794
18094TIP3    H175773   4.425   6.821  11.761 -0.2297  0.6392  2.1768
18094TIP3    H275774   4.332   6.703  11.740  0.7195  0.2797 -0.3926
18095TIP3   OH275775   1.804   0.819  15.002  0.6411 -0.1193 -0.5471
18095TIP3    H175776   1.774   0.862  14.921 -0.6211 -0.5186 -0.3209
18095TIP3    H275777   1.864   0.882  15.041 -1.2626  1.5617 -0.1596
18096TIP3   OH275778   6.695   5.053  17.103  0.3156 -0.3158  0.4302
18096TIP3    H175779   6.746   4.999  17.043 -1.9831 -1.8805 -0.2878
18096TIP3    H275780   6.657   4.991  17.165 -0.3249  0.8049  1.2013
18097TIP3   OH275781   1.624   4.339   5.431 -0.7495 -0.5789  0.1982
18097TIP3    H175782   1.648   4.266   5.373 -0.9476 -1.2439  0.9418
18097TIP3    H275783   1.700   4.350   5.488  0.0494  1.0284 -1.0866
18098TIP3   OH275784   2.549   3.554   4.027  0.2420 -0.6934  0.7851
18098TIP3    H175785   2.546   3.578   4.120  1.4811  1.0326  0.4211
18098TIP3    H275786   2.514   3.630   3.982 -0.4089 -1.5484 -0.1826
18099TIP3   OH275787   4.030   5.735  14.973 -0.3941 -0.3237  0.0501
18099TIP3    H175788   4.058   5.664  14.915 -0.0709  0.6860 -1.0663
18099TIP3    H275789   4.104   5.750  15.031  0.4235  0.6248 -1.2147
18100TIP3   OH275790   6.813   0.022   4.371 -0.5798 -0.2070  0.6317
18100TIP3    H175791   6.899   0.005   4.408 -0.3799 -0.6739 -0.0155
18100TIP3    H275792   6.830   0.049   4.281 -1.1244 -0.8537  0.3203
18101TIP3   OH275793   0.544   6.296  12.869 -0.0751 -0.1325 -0.0933
18101TIP3    H175794   0.590   6.240  12.806  0.6793 -0.4014  0.6817
18101TIP3    H275795   0.468   6.244  12.897 -0.4410  0.0054 -0.7914
18102TIP3   OH275796   3.463   0.525  15.886 -0.8293  0.2327 -0.2968
18102TIP3    H175797   3.466   0.495  15.795  1.0505  0.1505 -0.2395
18102TIP3    H275798   3.546   0.570  15.899 -0.4477 -0.9518  1.7782
18103TIP3   OH275799   0.149   5.208  12.454 -0.3161  0.0115 -0.3811
18103TIP3    H175800   0.231   5.257  12.463 -0.0399 -0.1702 -1.7112
18103TIP3    H275801   0.121   5.226  12.364 -1.6407 -0.0898 -0.0032
18104TIP3   OH275802   3.452   2.300  15.931 -0.1588 -0.3390 -0.4121
18104TIP3    H175803   3.459   2.234  15.862 -0.7000 -1.0994  0.2268
18104TIP3    H275804   3.421   2.250  16.007 -0.1048  0.5766  0.2183
18105TIP3   OH275805   5.900   3.868  16.544  0.2992 -0.0066  0.3266
18105TIP3    H175806   5.950   3.947  16.525 -0.8365  0.4994 -0.6745
18105TIP3    H275807   5.948   3.797  16.501 -0.5185  0.6646 -1.7943
18106TIP3   OH275808   1.966   6.351  12.595 -0.2014  0.1059 -0.9279
18106TIP3    H175809   1.900   6.289  12.626 -0.5583  1.5876  1.5144
18106TIP3    H275810   2.027   6.297  12.544 -1.0758 -2.0441  0.1504
18107TIP3   OH275811   2.027   5.493  12.672 -0.0691  0.0898 -0.6920
18107TIP3    H175812   2.098   5.453  12.622  0.7518  1.2510 -0.4886
18107TIP3    H275813   2.064   5.510  12.759 -1.3959 -1.6696  0.2997
18108TIP3   OH275814   4.959   0.914  15.000 -0.3616  0.0643 -0.1916
18108TIP3    H175815   4.943   0.981  14.934 -1.4132 -0.0505 -0.0826
18108TIP3    H275816   5.051   0.892  14.991 -0.3642  0.4318 -1.2643
18109TIP3   OH275817   6.548   5.248   4.585 -0.1378 -0.5274  0.2777
18109TIP3    H175818   6.570   5.163   4.547 -0.3892 -0.5627  0.2153
18109TIP3    H275819   6.453   5.251   4.586 -0.1459  0.2453 -0.8458
18110TIP3   OH275820   1.544   4.447   2.279  0.0015  0.1150  0.0620
18110TIP3    H175821   1.504   4.367   2.246  0.8950  0.7855 -2.9613
18110TIP3    H275822   1.501   4.518   2.231  0.7097  1.2808  1.0748
18111TIP3   OH275823   1.915   1.960  15.734 -0.4643 -0.3135  0.7038
18111TIP3    H175824   1.926   2.050  15.702  2.4092 -1.1063 -0.8949
18111TIP3    H275825   1.897   1.908  15.655 -0.5747 -1.3608  1.3980
18112TIP3   OH275826   2.130   5.686   1.452  0.6103 -0.3123  0.1918
18112TIP3    H175827   2.051   5.661   1.499 -0.2079 -0.1807 -1.0689
18112TIP3    H275828   2.129   5.632   1.373  1.5046  0.0688 -0.0964
18113TIP3   OH275829   0.140   1.607   6.544  0.4241 -0.3086  0.6954
18113TIP3    H175830   0.228   1.644   6.547  0.5529 -0.3211 -1.4077
18113TIP3    H275831   0.134   1.566   6.458 -0.7643 -2.5966  1.7690
18114TIP3   OH275832   6.090   0.475   6.309  0.6445 -0.8940  0.2461
18114TIP3    H175833   6.108   0.381   6.307  3.4284 -0.4495  0.6542
18114TIP3    H275834   6.169   0.514   6.347 -0.8687  1.5377  1.1256
18115TIP3   OH275835   4.914   4.930  10.154  0.7551  0.1461  0.0314
18115TIP3    H175836   4.841   4.888  10.200  0.3611  1.7509  0.9503
18115TIP3    H275837   4.929   5.012  10.202  2.3273  0.4544 -0.9147
18116TIP3   OH275838   2.735   5.090   3.829  0.1176  0.3310 -0.5683
18116TIP3    H175839   2.684   5.079   3.909  1.2412 -0.9294  0.0018
18116TIP3    H275840   2.809   5.145   3.854  0.3504  0.1261 -0.7978
18117TIP3   OH275841   0.467   5.710   1.787 -0.0989 -0.2291  0.2666
18117TIP3    H175842   0.558   5.686   1.807 -0.0896  0.8524  1.6427
18117TIP3    H275843   0.417   5.631   1.807  0.4857 -0.7274 -0.1768
18118TIP3   OH275844   6.012   6.369   2.943 -0.4498  0.1185 -0.3587
18118TIP3    H175845   6.040   6.409   3.025  2.5439 -0.6014 -0.9193
18118TIP3    H275846   6.037   6.432   2.876 -0.1513 -0.5652 -0.9031
18119TIP3   OH275847   5.138   1.521  14.746  0.1742 -0.3039 -0.1048
18119TIP3    H175848   5.109   1.609  14.725  0.1001 -0.2548  0.2036
18119TIP3    H275849   5.075   1.489  14.810  0.6787 -0.2688  0.4221
18120TIP3   OH275850   5.641   6.116   2.905 -0.1246 -0.0104 -0.0238
18120TIP3    H175851   5.636   6.025   2.876 -1.9470  0.4930 -1.5077
18120TIP3    H275852   5.720   6.150   2.863 -0.0377 -0.6106 -0.3603
18121TIP3   OH275853   6.200   6.463  12.201 -0.2085  0.4858  0.2399
18121TIP3    H175854   6.207   6.408  12.123 -1.5331  3.4166 -2.1357
18121TIP3    H275855   6.107   6.462  12.223  0.1247 -0.1682  1.7773
18122TIP3   OH275856   2.757   1.530   3.189 -0.2812 -0.3838 -0.2954
18122TIP3    H175857   2.809   1.547   3.267  0.7222 -0.4203 -0.9390
18122TIP3    H275858   2.774   1.438   3.168  0.0933 -0.1651 -1.0051
18123TIP3   OH275859   1.966   3.920  16.712  0.2843 -0.0200  0.7803
18123TIP3    H175860   2.043   3.971  16.688  0.3638 -0.1673  0.7221
18123TIP3    H275861   1.894   3.983  16.712  0.0145 -0.2714 -1.2105
18124TIP3   OH275862   5.101   3.888  16.635 -0.3020  0.4712  0.1230
18124TIP3    H175863   5.194   3.885  16.657 -0.2568 -2.1790 -0.0575
18124TIP3    H275864   5.069   3.800  16.658 -2.0158  0.2135 -2.8005
18125TIP3   OH275865   1.854   2.839   3.764 -0.5783  0.1222 -0.0942
18125TIP3    H175866   1.884   2.836   3.673 -0.0768 -0.6193  0.0889
18125TIP3    H275867   1.822   2.750   3.782  1.5100 -0.4579  1.1611
18126TIP3   OH275868   3.243   5.645   6.457 -0.2290 -0.0750 -0.2408
18126TIP3    H175869   3.244   5.588   6.380 -0.5031  0.4412 -0.6401
18126TIP3    H275870   3.179   5.605   6.516  0.6713 -0.9867  0.1260
18127TIP3   OH275871   6.136   0.905  15.787  0.1153 -0.0018  0.2288
18127TIP3    H175872   6.085   0.857  15.722 -1.4275 -0.0706  1.4284
18127TIP3    H275873   6.073   0.929  15.854  1.3489  1.4967  0.9195
18128TIP3   OH275874   6.386   4.285  17.150  0.3268  0.6447 -0.5171
18128TIP3    H175875   6.322   4.355  17.137  0.7797  1.0040 -0.8450
18128TIP3    H275876   6.385   4.269  17.244 -0.9045  0.0091 -0.6172
18129TIP3   OH275877   0.997   5.127   5.003  0.0240  0.0712 -0.0488
18129TIP3    H175878   0.942   5.205   4.998  0.0038  0.0095 -0.7671
18129TIP3    H275879   1.015   5.103   4.912  1.2566  0.1062  0.1686
18130TIP3   OH275880   3.429   5.806   6.570 -0.3358  0.6679  0.4788
18130TIP3    H175881   3.503   5.767   6.616  0.6581  0.9186 -0.8507
18130TIP3    H275882   3.366   5.735   6.561 -0.5804  0.6177  2.2035
18131TIP3   OH275883   6.142   4.904   5.684  0.2374 -0.3947  0.6432
18131TIP3    H175884   6.092   4.943   5.613  0.9281  0.8079  0.7906
18131TIP3    H275885   6.087   4.831   5.715 -1.0049  0.3414  0.2348
18132TIP3   OH275886   5.286   2.581   5.754 -0.1477 -0.0386 -0.4075
18132TIP3    H175887   5.296   2.486   5.752 -0.5654 -0.0864 -0.4561
18132TIP3    H275888   5.202   2.595   5.798  0.0762  0.3235 -0.0843
18133TIP3   OH275889   6.237   2.995   2.309 -0.3041 -0.3525 -0.1327
18133TIP3    H175890   6.215   3.036   2.393  0.4989  0.1366 -0.1444
18133TIP3    H275891   6.281   3.065   2.259  1.4374 -1.2881 -0.0042
18134TIP3   OH275892   5.393   1.859  12.866 -0.4076 -0.8865 -0.1517
18134TIP3    H175893   5.333   1.932  12.881  0.0336 -0.1973 -1.6136
18134TIP3    H275894   5.375   1.799  12.938 -0.6596  0.7211  1.2025
18135TIP3   OH275895   4.029   3.613   5.980  0.8263 -0.5022 -0.1886
18135TIP3    H175896   4.114   3.590   6.018  0.3903 -1.8809 -0.0098
18135TIP3    H275897   4.003   3.693   6.026  2.1968  0.1746 -0.5211
18136TIP3   OH275898   2.073   0.012   3.345 -0.0504  0.7918  0.4405
18136TIP3    H175899   2.129  -0.044   3.398 -0.2305  0.7874  0.6255
18136TIP3    H275900   2.013  -0.049   3.301 -0.0429  0.8136  0.3994
18137TIP3   OH275901   3.227   0.921  13.110 -0.2690 -0.2619 -0.6784
18137TIP3    H175902   3.162   0.929  13.039 -1.8112 -0.8376  0.6046
18137TIP3    H275903   3.260   0.832  13.101 -1.8751 -1.0133  0.4299
18138TIP3   OH275904   1.430   3.564  15.016  0.3812 -0.4769  0.2240
18138TIP3    H175905   1.430   3.630  14.947  0.5699  0.7081  1.3285
18138TIP3    H275906   1.338   3.548  15.034  0.3100 -1.4561 -0.8917
18139TIP3   OH275907   0.014   0.717   4.197  0.1742 -0.3379 -0.3026
18139TIP3    H175908  -0.040   0.686   4.124 -1.3279  0.5097  0.3940
18139TIP3    H275909   0.056   0.638   4.231  1.2503 -0.7008 -2.3108
18140TIP3   OH275910   3.796   6.309  12.972  0.2481 -0.3293 -0.6240
18140TIP3    H175911   3.891   6.295  12.975  0.4170  0.2870 -2.0031
18140TIP3    H275912   3.781   6.384  13.029  0.6789 -0.1131 -0.7857
18141TIP3   OH275913   4.312   5.119   2.753 -0.4405 -0.4156  0.4326
18141TIP3    H175914   4.389   5.167   2.724 -2.1223  2.7194  0.7351
18141TIP3    H275915   4.278   5.078   2.673  0.7370 -0.6768  0.0464
18142TIP3   OH275916   4.109   2.943   1.988  0.5225 -1.2100  0.2243
18142TIP3    H175917   4.081   2.900   1.907 -1.4744 -2.7815  1.6409
18142TIP3    H275918   4.140   3.029   1.960 -0.4471 -1.5507 -2.1652
18143TIP3   OH275919   2.853   0.098  14.060 -0.6087 -0.1749 -0.1437
18143TIP3    H175920   2.945   0.083  14.039 -1.0957 -2.0790 -1.1728
18143TIP3    H275921   2.855   0.144  14.144  1.2802  0.5688 -0.5438
18144TIP3   OH275922   5.308   4.417  17.082  0.8073 -0.3228 -0.5238
18144TIP3    H175923   5.391   4.459  17.104  0.1976  0.3867  0.5083
18144TIP3    H275924   5.252   4.435  17.157  0.2468 -2.2969 -0.4240
18145TIP3   OH275925   1.962   6.464  12.288 -0.3334  0.5284  0.3341
18145TIP3    H175926   1.904   6.540  12.298 -0.8413  0.1134  0.6603
18145TIP3    H275927   1.992   6.446  12.377  1.0616  1.3075  0.0428
18146TIP3   OH275928   3.206   2.372  16.091  0.0572  0.0454  0.7217
18146TIP3    H175929   3.227   2.384  16.184 -3.2795  0.4848  1.5589
18146TIP3    H275930   3.141   2.440  16.072 -1.9599 -2.1543 -0.9078
18147TIP3   OH275931   6.394   6.412  10.471  0.0327 -0.2246 -0.3464
18147TIP3    H175932   6.332   6.396  10.399  0.0221 -0.1522 -0.3524
18147TIP3    H275933   6.365   6.494  10.510 -0.2553 -0.5102  0.0467
18148TIP3   OH275934   6.266   3.400   1.422  0.3121  0.4527  0.4089
18148TIP3    H175935   6.195   3.374   1.479 -0.5984  0.2209 -0.7895
18148TIP3    H275936   6.344   3.361   1.461 -0.5213 -1.0999  0.6060
18149TIP3   OH275937   4.719   4.696  15.860  0.4648 -0.5004 -0.5229
18149TIP3    H175938   4.780   4.760  15.822 -0.2797  1.0895  0.8308
18149TIP3    H275939   4.747   4.688  15.951  0.1042 -1.5823 -0.5001
18150TIP3   OH275940   3.826   2.669  13.222  0.6119  0.2289 -0.5579
18150TIP3    H175941   3.748   2.640  13.175  0.9727 -1.0478 -0.4179
18150TIP3    H275942   3.825   2.764  13.215  0.0124  0.1271 -2.0903
18151TIP3   OH275943   1.616   2.590   0.970 -0.3158 -0.3660  0.2649
18151TIP3    H175944   1.680   2.572   1.040 -0.2797 -0.9915  0.0735
18151TIP3    H275945   1.613   2.509   0.919 -0.6846 -0.0665 -0.1907
18152TIP3   OH275946   5.334   6.366  14.212  0.2279 -0.2198  0.2667
18152TIP3    H175947   5.425   6.335  14.208 -0.3409 -2.1171  0.8386
18152TIP3    H275948   5.310   6.358  14.304 -0.8547 -0.8220 -0.0479
18153TIP3   OH275949   0.457   1.749  10.746  0.4862  0.3001 -0.6727
18153TIP3    H175950   0.548   1.731  10.720  0.4069  0.7768 -1.3135
18153TIP3    H275951   0.405   1.719  10.672  0.1854  0.8123 -0.6720
18154TIP3   OH275952   2.937   1.086   0.802 -0.0287  0.0988 -0.7605
18154TIP3    H175953   2.942   1.062   0.709  1.4866  1.6908 -1.1328
18154TIP3    H275954   2.912   1.178   0.801 -1.8591 -0.3357  0.5134
18155TIP3   OH275955   3.361   0.835   5.764  0.7171  0.7693 -0.0905
18155TIP3    H175956   3.395   0.753   5.727  0.4672  0.7273 -0.2329
18155TIP3    H275957   3.426   0.862   5.828  0.2365 -0.1555  0.8070
18156TIP3   OH275958   4.288   4.499   4.574 -0.2171 -0.2531 -0.8433
18156TIP3    H175959   4.208   4.539   4.609  0.1863  0.2947 -0.5158
18156TIP3    H275960   4.359   4.548   4.616  0.3284 -2.2038  0.6168
18157TIP3   OH275961   0.487   4.234   1.947  0.2193 -0.1128 -0.1507
18157TIP3    H175962   0.474   4.164   1.883  0.0226  0.0645 -0.3065
18157TIP3    H275963   0.505   4.312   1.894 -2.1585  0.5507 -0.1221
18158TIP3   OH275964   4.338   4.656  16.645 -0.1815  0.4151 -0.1869
18158TIP3    H175965   4.277   4.588  16.673  0.1585  1.1497  2.7442
18158TIP3    H275966   4.412   4.609  16.609 -1.8384 -0.5369 -2.5646
18159TIP3   OH275967   3.848   4.137   0.086  0.2947  0.4353  0.2543
18159TIP3    H175968   3.810   4.083   0.154  1.7175 -0.6506  0.2345
18159TIP3    H275969   3.782   4.203   0.067 -0.2940  0.5073  2.3863
18160TIP3   OH275970   4.412   6.308  11.581 -0.1826  0.1595 -0.1297
18160TIP3    H175971   4.335   6.258  11.553  1.1729 -0.9520 -2.1184
18160TIP3    H275972   4.467   6.244  11.626  0.7166  0.2909 -1.0055
18161TIP3   OH275973   4.852   4.280  16.479 -0.2350  0.0224  0.1046
18161TIP3    H175974   4.825   4.246  16.394 -1.8982 -1.7590  1.2606
18161TIP3    H275975   4.867   4.202  16.533  0.4534  1.0985  1.5443
18162TIP3   OH275976   5.679   0.025  16.686 -0.1043  0.5474 -0.3029
18162TIP3    H175977   5.660   0.023  16.780 -3.0415 -3.3020 -0.7421
18162TIP3    H275978   5.741  -0.046  16.672 -0.6949  0.2093 -1.3748
18163TIP3   OH275979   4.789   0.049  12.001  0.2325 -0.1973 -0.0588
18163TIP3    H175980   4.783  -0.008  12.078  1.0537 -1.2437 -0.7361
18163TIP3    H275981   4.883   0.062  11.988  0.0810  0.4354 -0.5515
18164TIP3   OH275982   3.989   4.101  12.790 -0.0869  0.4967 -0.6229
18164TIP3    H175983   3.993   4.073  12.698 -0.0590  1.8859 -1.0711
18164TIP3    H275984   4.074   4.142  12.807 -0.4301  1.0846 -0.2736
18165TIP3   OH275985   0.291   4.247   2.127  0.4292  0.2553  0.0598
18165TIP3    H175986   0.354   4.232   2.057  1.8368  0.9755  1.1186
18165TIP3    H275987   0.265   4.339   2.118 -1.5760 -0.3585 -1.1846
18166TIP3   OH275988   2.814   0.044  15.983  0.3998  0.4240 -0.2449
18166TIP3    H175989   2.825  -0.045  15.950  0.9958  0.0441  0.9395
18166TIP3    H275990   2.881   0.095  15.937  2.0496 -0.3413  1.2283
18167TIP3   OH275991   2.451   4.566  16.126  0.9124  0.1279  0.1462
18167TIP3    H175992   2.512   4.526  16.065  0.0939  0.9807 -1.2903
18167TIP3    H275993   2.432   4.652  16.088 -2.0703 -0.5319 -0.1301
18168TIP3   OH275994   2.417   6.416  15.927 -0.7668 -0.6891  0.9061
18168TIP3    H175995   2.396   6.323  15.935  3.0058 -1.6993  1.2309
18168TIP3    H275996   2.448   6.441  16.014 -0.3386  0.4295  0.4508
18169TIP3   OH275997   5.725   3.899   5.160  0.2990 -0.2484  0.2726
18169TIP3    H175998   5.670   3.955   5.106 -1.3195 -1.1131  0.9494
18169TIP3    H275999   5.804   3.885   5.107  0.0559  1.3291 -0.5656
18170TIP3   OH276000   2.644   0.455   5.700 -0.3231 -0.1461 -0.6680
18170TIP3    H176001   2.654   0.484   5.791  1.0523 -0.1525 -0.7984
18170TIP3    H276002   2.692   0.373   5.695 -0.7707 -0.3769 -1.2912
18171TIP3   OH276003   0.226   0.029   4.500  0.2375 -0.1106  0.0711
18171TIP3    H176004   0.287   0.103   4.499  1.4742 -1.0880  0.7197
18171TIP3    H276005   0.267  -0.035   4.558 -0.9670 -1.1842 -0.2243
18172TIP3   OH276006   6.707   4.795   5.388  0.0645  0.1411  0.3297
18172TIP3    H176007   6.757   4.759   5.461  1.7954  0.2302 -0.7532
18172TIP3    H276008   6.672   4.877   5.421  1.0142  0.2934  1.0094
18173TIP3   OH276009   6.221   4.564   4.739  0.7830 -0.3067  0.0664
18173TIP3    H176010   6.222   4.487   4.681  0.3200  0.2290 -0.6800
18173TIP3    H276011   6.212   4.529   4.827 -1.3347 -1.0564 -0.4025
18174TIP3   OH276012   5.366   1.793   4.990  0.4886 -0.1234  0.1623
18174TIP3    H176013   5.437   1.741   5.028  0.9547  1.5236  1.6828
18174TIP3    H276014   5.292   1.777   5.049 -0.2429 -1.2927 -1.0239
18175TIP3   OH276015   1.308   2.560   1.992  0.0700  0.1432  0.0194
18175TIP3    H176016   1.354   2.510   1.925  0.1685 -1.0846  0.9675
18175TIP3    H276017   1.373   2.623   2.024  0.8609 -0.9897  0.7307
18176TIP3   OH276018   5.282   1.953   4.080  0.0518  0.2635  0.1816
18176TIP3    H176019   5.281   1.859   4.098  1.2551 -0.1510 -1.6722
18176TIP3    H276020   5.270   1.959   3.986  0.0236  1.9892  0.2682
18177TIP3   OH276021   2.968   1.005  16.913 -0.0768 -0.3246 -0.5822
18177TIP3    H176022   2.919   1.071  16.864 -0.0456  1.3080  1.4827
18177TIP3    H276023   2.911   0.928  16.912 -1.1271  0.4309 -1.1289
18178TIP3   OH276024   5.183   6.419  16.574  0.3229 -0.2334  0.3430
18178TIP3    H176025   5.090   6.415  16.554  0.5958 -1.0180 -0.9112
18178TIP3    H276026   5.195   6.356  16.646 -0.1338 -0.0248  0.5988
18179TIP3   OH276027   2.898   5.059  12.946 -0.2976 -0.2530 -0.5297
18179TIP3    H176028   2.915   5.039  12.854 -0.5130 -2.1467 -0.1995
18179TIP3    H276029   2.931   4.982  12.994 -2.6364 -0.5564  0.7468
18180TIP3   OH276030   5.074   6.408  12.936  0.6263 -0.1469 -0.1437
18180TIP3    H176031   5.050   6.449  12.853  1.2434  1.2750  0.3469
18180TIP3    H276032   5.169   6.399  12.931  0.6871  0.1090  0.4690
18181TIP3   OH276033   0.907   2.253  12.082  0.2773  0.3900  0.5526
18181TIP3    H176034   0.938   2.295  12.162  1.3789 -0.4942  0.6101
18181TIP3    H276035   0.813   2.244  12.095  0.4278  0.3592  1.6997
18182TIP3   OH276036   5.789   5.786   0.620 -0.3398  0.6700  0.4414
18182TIP3    H176037   5.866   5.840   0.636  1.2528 -0.5269 -2.3889
18182TIP3    H276038   5.718   5.830   0.666  0.6912  5.4622 -1.9861
18183TIP3   OH276039   5.892   1.788   3.142 -0.2013 -0.0556 -0.5445
18183TIP3    H176040   5.907   1.786   3.237 -0.3314  1.5313 -0.4642
18183TIP3    H276041   5.918   1.876   3.116  0.8087 -0.7910 -2.1689
18184TIP3   OH276042   6.297   5.516   1.790  0.5007 -0.0904  0.1065
18184TIP3    H176043   6.361   5.555   1.849  0.9019 -0.6694  0.0594
18184TIP3    H276044   6.279   5.430   1.828 -2.1849  1.0002  1.5684
18185TIP3   OH276045   0.866   4.676  14.786 -0.2262 -0.0555 -0.3847
18185TIP3    H176046   0.882   4.766  14.757  1.4016 -0.7033 -1.7081
18185TIP3    H276047   0.869   4.625  14.705 -1.3860 -1.2713  0.3231
18186TIP3   OH276048   3.774   6.641  11.871 -0.3458  0.4859 -0.2816
18186TIP3    H176049   3.703   6.603  11.819  0.3420  0.7234 -1.4259
18186TIP3    H276050   3.854   6.621  11.822  0.2521  1.3792  0.2860
18187TIP3   OH276051   1.561   2.090   2.017 -0.0112  0.1681 -0.1217
18187TIP3    H176052   1.608   2.165   1.981  0.1182  0.1675  0.0480
18187TIP3    H276053   1.629   2.028   2.042 -0.1513 -0.5764 -1.4901
18188TIP3   OH276054   1.871   0.416   2.718  0.2104  0.0482 -0.5131
18188TIP3    H176055   1.936   0.446   2.655 -0.0668  0.3460 -0.6566
18188TIP3    H276056   1.890   0.323   2.729 -0.8994 -0.4597 -2.4552
18189TIP3   OH276057   1.280   1.959   5.850  0.1691 -0.1887 -0.3641
18189TIP3    H176058   1.315   1.872   5.831 -1.1226 -0.8040 -0.0536
18189TIP3    H276059   1.207   1.969   5.788  0.8599  1.0604 -1.0194
18190TIP3   OH276060   0.405   4.303   0.620 -0.6208  0.5021 -0.1475
18190TIP3    H176061   0.405   4.212   0.591  0.0349 -0.0277  1.3990
18190TIP3    H276062   0.481   4.342   0.576  0.4160 -0.3057  0.8676
18191TIP3   OH276063   4.605   0.621  15.816 -0.1180 -0.6465 -0.2056
18191TIP3    H176064   4.545   0.567  15.866  1.0821 -0.0495  1.9935
18191TIP3    H276065   4.583   0.711  15.840  0.6313 -0.3508 -0.5753
18192TIP3   OH276066   5.595   1.624  15.446 -0.1487 -0.3264  0.0553
18192TIP3    H176067   5.549   1.707  15.448 -0.5776 -0.5737  0.6221
18192TIP3    H276068   5.556   1.573  15.517  0.3500 -0.8811 -0.0636
18193TIP3   OH276069   6.680   5.967  13.806 -0.8231  0.4649 -0.0176
18193TIP3    H176070   6.715   5.903  13.744 -1.1316 -0.5305  0.8079
18193TIP3    H276071   6.735   5.959  13.883  1.0254  3.3362 -0.9124
18194TIP3   OH276072   2.834   5.356   2.535 -0.2245 -0.3569 -0.4219
18194TIP3    H176073   2.862   5.448   2.536  0.4256 -0.4867  2.5656
18194TIP3    H276074   2.739   5.360   2.530 -0.1593  0.3548 -2.0482
18195TIP3   OH276075   4.344   0.009  10.611 -0.1102 -0.3376 -0.4923
18195TIP3    H176076   4.278   0.007  10.541 -0.9593  0.1579  0.2658
18195TIP3    H276077   4.368  -0.083  10.624 -0.1826 -0.4602 -1.2201
18196TIP3   OH276078   5.603   2.726   1.163 -0.1012 -0.7270 -0.1973
18196TIP3    H176079   5.598   2.707   1.257 -0.9914  0.7270  0.0948
18196TIP3    H276080   5.696   2.741   1.146  0.1092 -1.3736  0.3738
18197TIP3   OH276081   1.919   5.621   5.446  0.1086 -0.4561 -0.4454
18197TIP3    H176082   1.921   5.717   5.440  0.1980 -0.4855 -0.9233
18197TIP3    H276083   2.004   5.598   5.482  1.3635 -0.5339 -3.2152
18198TIP3   OH276084   6.208   5.138  13.693 -0.0871  0.4832 -0.0797
18198TIP3    H176085   6.181   5.091  13.614 -0.5204  1.4993 -0.5644
18198TIP3    H276086   6.181   5.229  13.677  2.6015  1.3800 -0.1253
18199TIP3   OH276087   5.061   5.869  17.052  0.1513 -0.1235 -0.1246
18199TIP3    H176088   5.019   5.830  16.976  0.2090 -1.5695  0.5572
18199TIP3    H276089   4.989   5.892  17.110  0.1244  0.7042 -0.4757
18200TIP3   OH276090   2.228   4.656  11.209  0.3482  0.0035  0.1603
18200TIP3    H176091   2.267   4.725  11.155  0.6645  0.5956  1.1191
18200TIP3    H276092   2.291   4.643  11.281 -0.5831  0.0227  1.0018
18201TIP3   OH276093   0.403   6.373   2.762 -0.4369 -0.7264  0.0049
18201TIP3    H176094   0.317   6.372   2.721 -0.2553 -2.7241 -0.4210
18201TIP3    H276095   0.416   6.284   2.794  0.3452  0.1939  2.5304
18202TIP3   OH276096   3.958   6.714   2.239  0.2348  0.0936 -0.4274
18202TIP3    H176097   3.884   6.748   2.288  0.2671  1.3976 -1.2290
18202TIP3    H276098   3.991   6.790   2.190  1.9781 -0.4872 -0.2337
18203TIP3   OH276099   2.630   3.180   4.051  0.8674  0.2410  0.0589
18203TIP3    H176100   2.555   3.129   4.082  1.2861  0.2338  1.0852
18203TIP3    H276101   2.634   3.161   3.957  1.9747 -2.9506  0.6114
18204TIP3   OH276102   0.626   3.107  11.307  0.3790  0.4037  0.0086
18204TIP3    H176103   0.644   3.184  11.361 -2.0761  1.2484 -0.2409
18204TIP3    H276104   0.605   3.143  11.221  0.4016 -0.6585 -0.4552
18205TIP3   OH276105   3.988   5.562  12.140 -0.1082 -0.6437 -0.2351
18205TIP3    H176106   3.987   5.622  12.215 -0.5546 -1.0927  0.1230
18205TIP3    H276107   3.963   5.477  12.176 -1.9631 -0.5532 -1.1584
18206TIP3   OH276108   1.686   5.049   4.035 -0.0653 -0.0306  0.3921
18206TIP3    H176109   1.706   4.955   4.034 -0.7446 -0.2058 -1.7996
18206TIP3    H276110   1.772   5.091   4.040  0.3308 -0.7750  0.0533
18207TIP3   OH276111   6.661   6.392   2.405  0.1238  0.2335  0.3624
18207TIP3    H176112   6.599   6.372   2.335 -1.3863  0.3488  1.5975
18207TIP3    H276113   6.611   6.377   2.486  1.7132  0.3637  1.4155
18208TIP3   OH276114   3.465   3.765   1.566 -0.6448  0.4746  0.1669
18208TIP3    H176115   3.409   3.704   1.519 -0.6190  0.8316 -0.3393
18208TIP3    H276116   3.548   3.718   1.577 -0.3270  0.7260 -1.0003
18209TIP3   OH276117   1.759   1.683   3.391  0.0652  0.2204  0.2204
18209TIP3    H176118   1.832   1.745   3.394 -2.0674  2.8949  0.0961
18209TIP3    H276119   1.794   1.608   3.343  1.8231  2.6886 -2.6964
18210TIP3   OH276120   4.309   5.265   1.459  0.2321  0.4274 -0.1670
18210TIP3    H176121   4.330   5.320   1.535  1.0924 -0.9268  0.6133
18210TIP3    H276122   4.235   5.309   1.418 -2.5977 -0.5647  3.3795
18211TIP3   OH276123   5.959   0.705   3.516  0.0626 -0.2972 -0.7169
18211TIP3    H176124   6.032   0.660   3.561 -1.1417 -1.7249 -0.1085
18211TIP3    H276125   5.899   0.728   3.586 -0.2245  0.6232 -1.2515
18212TIP3   OH276126   1.319   3.835   0.631  0.0893 -0.0745 -0.1249
18212TIP3    H176127   1.281   3.779   0.563  0.8143 -0.4766 -0.2064
18212TIP3    H276128   1.276   3.920   0.618  1.2807  0.2993 -2.0540
18213TIP3   OH276129   2.900   4.864  16.669  0.7849  0.2207  0.4215
18213TIP3    H176130   2.971   4.884  16.608  0.3121 -0.1709 -0.2785
18213TIP3    H276131   2.938   4.878  16.756  1.1600  1.8061  0.0297
18214TIP3   OH276132   5.514   5.333  10.999 -0.0420  0.7470 -0.3816
18214TIP3    H176133   5.454   5.369  11.065  1.1787  0.7215  0.8041
18214TIP3    H276134   5.569   5.272  11.048 -0.9693 -1.5268 -2.0202
18215TIP3   OH276135   4.014   5.032   5.748 -0.9995  0.4145  0.5933
18215TIP3    H176136   4.084   5.013   5.686 -1.4256 -2.0794  0.7746
18215TIP3    H276137   4.041   5.114   5.791  1.2261  0.0975 -0.1097
18216TIP3   OH276138   4.256   5.918   1.611 -0.2389  0.2040  0.2278
18216TIP3    H176139   4.203   5.839   1.600  1.1581 -1.2545  2.9348
18216TIP3    H276140   4.233   5.973   1.536 -2.6897 -1.9331 -0.7433
18217TIP3   OH276141   3.136   1.138   6.533  0.0495 -0.4154  0.0232
18217TIP3    H176142   3.178   1.205   6.479  1.0877 -0.1549  1.1065
18217TIP3    H276143   3.108   1.184   6.612 -0.5905 -0.9721  0.1265
18218TIP3   OH276144   5.491   2.805   4.193  0.4569 -0.2277  0.3520
18218TIP3    H176145   5.447   2.886   4.165  0.1966 -0.7395 -0.7477
18218TIP3    H276146   5.428   2.736   4.175 -1.0045 -0.4164  4.9720
18219TIP3   OH276147   0.912   3.880  17.179 -0.1562  0.3198 -0.3436
18219TIP3    H176148   0.874   3.795  17.199  1.5225 -0.6075 -0.9033
18219TIP3    H276149   0.945   3.872  17.090  1.4101  1.0014  0.1238
18220TIP3   OH276150   2.389   5.780   4.923 -0.6241  1.0312  0.2698
18220TIP3    H176151   2.414   5.808   5.012 -0.4429 -0.6542  0.7814
18220TIP3    H276152   2.295   5.767   4.927 -0.4545 -0.2591  0.6061
18221TIP3   OH276153   0.065   3.139   1.288  0.2887  0.7402 -0.0894
18221TIP3    H176154   0.089   3.049   1.266  1.2794  0.8673  0.4179
18221TIP3    H276155  -0.020   3.131   1.332  0.8200 -0.0674  0.8363
18222TIP3   OH276156   5.178   0.084   5.965  0.2998 -0.0481  0.3216
18222TIP3    H176157   5.108   0.148   5.951 -1.6720 -1.3396  3.2863
18222TIP3    H276158   5.245   0.131   6.014 -0.0763  0.3526  0.4556
18223TIP3   OH276159   2.977   0.806  15.827  0.5986  0.4748  0.2524
18223TIP3    H176160   2.972   0.884  15.882  0.4099 -0.3745  1.4766
18223TIP3    H276161   3.057   0.762  15.856  0.0098 -0.4527  0.4959
18224TIP3   OH276162   6.701   4.075   1.361 -0.3309  0.1114  0.4496
18224TIP3    H176163   6.679   3.983   1.353 -0.1642  0.1050  0.0379
18224TIP3    H276164   6.617   4.119   1.374 -0.3448 -0.1683  1.3428
18225TIP3   OH276165   6.537   2.226  16.244 -0.2465  0.2609 -0.2426
18225TIP3    H176166   6.486   2.145  16.240  0.3401 -0.1169 -0.1956
18225TIP3    H276167   6.536   2.250  16.336 -1.3953  0.9561 -0.4057
18226TIP3   OH276168   3.342   4.560   3.773  0.7544 -0.8304  0.0045
18226TIP3    H176169   3.318   4.600   3.857 -0.3259  0.4997 -0.8955
18226TIP3    H276170   3.259   4.532   3.734  0.9856  0.3858 -1.4748
18227TIP3   OH276171   4.120   6.519  13.117 -0.2876 -0.1423 -0.1949
18227TIP3    H176172   4.128   6.473  13.033 -0.8046  0.3705 -0.5253
18227TIP3    H276173   4.114   6.448  13.182  0.9466 -0.5444 -0.4919
18228TIP3   OH276174   2.755   5.556   0.674 -0.1875  0.1932 -0.3963
18228TIP3    H176175   2.684   5.581   0.615  0.5608  0.6184 -1.1396
18228TIP3    H276176   2.798   5.483   0.629  0.6349  0.7837 -0.5828
18229TIP3   OH276177   1.524   0.061  17.191  0.8588  0.5027 -0.1973
18229TIP3    H176178   1.504   0.116  17.115  4.5326 -1.7708 -3.1505
18229TIP3    H276179   1.449   0.002  17.198 -0.3847  1.9294 -0.7876
18230TIP3   OH276180   5.046   2.884  15.474 -0.1293 -0.1770 -0.1482
18230TIP3    H176181   5.060   2.799  15.516 -0.2951  0.3429  1.0060
18230TIP3    H276182   4.951   2.891  15.464 -0.1018 -0.2184 -0.4424
18231TIP3   OH276183   3.475   5.502   2.083  0.4565  0.1885  0.4175
18231TIP3    H176184   3.391   5.548   2.080  0.9020  1.0663  1.0550
18231TIP3    H276185   3.465   5.438   2.154  0.5916  0.8563  1.0523
18232TIP3   OH276186   1.118   5.886  13.587  0.1090  0.0758  0.0006
18232TIP3    H176187   1.177   5.824  13.542 -2.1770 -1.7492 -0.7288
18232TIP3    H276188   1.105   5.848  13.673  0.4015  0.7706  0.3582
18233TIP3   OH276189   3.332   6.033   0.473 -0.0094  0.0121 -0.0662
18233TIP3    H176190   3.269   6.017   0.402  0.7798  0.8191 -0.9839
18233TIP3    H276191   3.417   6.018   0.432  0.4150 -3.1698  1.6957
18234TIP3   OH276192   1.718   2.844   0.336  0.3964  0.6108  0.2286
18234TIP3    H176193   1.771   2.842   0.257 -0.3891  1.1681 -0.3259
18234TIP3    H276194   1.769   2.795   0.401  1.1038  0.2635 -0.5778
18235TIP3   OH276195   0.469   6.617  15.099  0.2427 -0.0309 -0.2172
18235TIP3    H176196   0.443   6.704  15.128  1.8718  0.3449  0.1923
18235TIP3    H276197   0.433   6.558  15.165  0.5521  0.4820  0.4154
18236TIP3   OH276198   0.977   1.972  15.221 -0.3704 -0.1352 -0.0705
18236TIP3    H176199   0.905   1.994  15.162  0.0744  1.1183 -0.1737
18236TIP3    H276200   0.948   1.892  15.265 -2.3849  0.9887  0.7881
18237TIP3   OH276201   2.355   0.831  14.034  0.0939 -0.1731 -0.0642
18237TIP3    H176202   2.261   0.820  14.049  0.5396 -3.6246  1.3969
18237TIP3    H276203   2.384   0.745  14.002  2.9175  0.3278  0.8361
18238TIP3   OH276204   2.057   3.493   0.925 -0.1119 -0.5056 -0.1437
18238TIP3    H176205   2.022   3.417   0.973 -2.3621  0.7687  0.3488
18238TIP3    H276206   2.152   3.487   0.938 -0.4709 -1.3034  2.8851
18239TIP3   OH276207   0.081   2.420  15.308  0.3219  0.2740  0.1652
18239TIP3    H176208   0.017   2.349  15.302 -0.4937  1.0021  0.0184
18239TIP3    H276209   0.062   2.463  15.391  0.4501  0.6458  0.0075
18240TIP3   OH276210   3.681   6.530  16.678  1.0799  0.1584  0.5312
18240TIP3    H176211   3.681   6.587  16.754  1.3142  0.0682  0.5983
18240TIP3    H276212   3.635   6.580  16.610  0.1176 -0.0917  0.9814
18241TIP3   OH276213   1.559   0.186  10.778  0.3815  0.0580  0.2251
18241TIP3    H176214   1.525   0.097  10.785 -0.1356  0.3225  1.1445
18241TIP3    H276215   1.514   0.222  10.702  1.5026 -0.8406 -0.9283
18242TIP3   OH276216   0.290   6.460  14.606 -0.1676 -0.2484 -0.1345
18242TIP3    H176217   0.354   6.509  14.555 -1.1845  1.1205 -0.1681
18242TIP3    H276218   0.311   6.480  14.698  0.4858 -1.1750 -0.0719
18243TIP3   OH276219   1.694   0.028   2.201  0.3980 -0.6009  0.5492
18243TIP3    H176220   1.691   0.122   2.218  1.0228 -0.5994  0.6526
18243TIP3    H276221   1.722   0.020   2.110 -2.3896 -0.6261 -0.4133
18244TIP3   OH276222   2.922   1.371   0.160  0.0980 -0.5801  0.7815
18244TIP3    H176223   2.848   1.318   0.129  1.7388 -1.9002 -1.1423
18244TIP3    H276224   2.919   1.363   0.255  0.5448 -4.6528  0.5912
18245TIP3   OH276225   0.669   3.086   3.698  0.1767  0.1309 -0.2834
18245TIP3    H176226   0.659   3.061   3.790  0.6232 -1.5139 -0.6475
18245TIP3    H276227   0.731   3.159   3.700  0.4483 -0.1026  0.6937
18246TIP3   OH276228   1.072   5.110   1.618 -0.3655  0.2901 -0.0529
18246TIP3    H176229   1.099   5.163   1.544 -2.1398  0.7913 -0.3981
18246TIP3    H276230   1.002   5.161   1.659  1.7905  0.9678  3.1692
18247TIP3   OH276231   2.095   6.455   3.103 -0.0657  0.3670  0.2057
18247TIP3    H176232   2.121   6.472   3.012 -0.2882  0.6430  0.1945
18247TIP3    H276233   2.038   6.378   3.098 -1.6512  1.5320 -0.1207
18248TIP3   OH276234   6.587   3.562  11.947  0.9104 -0.0912 -0.4510
18248TIP3    H176235   6.562   3.500  11.877 -1.3428  0.5061 -0.2703
18248TIP3    H276236   6.505   3.607  11.968  1.6860  0.2480  2.1031
18249TIP3   OH276237   4.374   3.087   4.159  0.3885 -0.4572  0.0212
18249TIP3    H176238   4.300   3.140   4.188 -2.1115 -3.7664  0.3621
18249TIP3    H276239   4.417   3.059   4.240  0.7282 -0.2236 -0.0765
18250TIP3   OH276240   6.692   0.761  16.811  0.2315 -0.4429  0.5655
18250TIP3    H176241   6.729   0.719  16.733 -0.2538  0.9908 -0.4756
18250TIP3    H276242   6.656   0.843  16.779  2.0002  1.2718  2.6839
18251TIP3   OH276243   2.677   5.000   0.216 -0.5842  0.0693 -0.0615
18251TIP3    H176244   2.620   4.930   0.248 -0.5900  0.1125  0.0227
18251TIP3    H276245   2.619   5.076   0.209 -0.3600  0.3244  0.7943
18252TIP3   OH276246   4.182   6.454  12.075  0.5225  0.2102 -0.6635
18252TIP3    H176247   4.091   6.437  12.099  1.1719 -1.6179  0.7620
18252TIP3    H276248   4.189   6.549  12.073 -1.1252  0.3885  0.4319
18253TIP3   OH276249   1.547   5.059  12.011 -0.2949  0.1840 -0.8121
18253TIP3    H176250   1.531   4.967  11.989  3.0245  0.0533 -3.5287
18253TIP3    H276251   1.601   5.055  12.090 -2.0284  0.0378  0.4420
18254TIP3   OH276252   6.438   4.765  16.680  0.1773 -0.4019  0.1130
18254TIP3    H176253   6.494   4.709  16.626 -1.3822 -0.3517 -1.6413
18254TIP3    H276254   6.354   4.767  16.634 -0.7442  0.9214  1.7492
18255TIP3   OH276255   1.197   2.688   0.537 -0.3628  0.0439 -0.1500
18255TIP3    H176256   1.191   2.760   0.600 -0.8080 -1.5736  1.7561
18255TIP3    H276257   1.291   2.677   0.521 -0.2606  0.6564  0.0117
18256TIP3   OH276258   3.175   2.537   4.813  0.1274 -0.2609  0.3498
18256TIP3    H176259   3.245   2.504   4.756 -0.5125  0.9465 -1.2437
18256TIP3    H276260   3.220   2.596   4.874  0.7380 -0.9564  0.5811
18257TIP3   OH276261   0.905   6.317   2.611 -0.4289  0.6204 -0.3489
18257TIP3    H176262   0.895   6.340   2.704  2.2223  1.5875 -0.2229
18257TIP3    H276263   0.881   6.398   2.564 -1.0066  0.3749 -0.4878
18258TIP3   OH276264   0.826   2.802  14.719 -0.3801  0.2800 -0.0607
18258TIP3    H176265   0.755   2.850  14.677 -1.0559  0.1378  0.8850
18258TIP3    H276266   0.793   2.782  14.806 -0.2215 -2.1155 -0.4931
18259TIP3   OH276267   0.321   2.249   6.456 -0.1119  0.5258 -0.7567
18259TIP3    H176268   0.255   2.286   6.515  0.3829  2.6496 -1.4302
18259TIP3    H276269   0.403   2.257   6.505 -0.0221  0.1388 -0.8437
18260TIP3   OH276270   5.003   1.259   0.287  0.2922  0.1327  0.3361
18260TIP3    H176271   4.911   1.243   0.267  0.6186 -1.2105 -0.1952
18260TIP3    H276272   5.001   1.312   0.367 -0.9297 -0.9989  1.0970
18261TIP3   OH276273   4.470   6.201  15.686  0.4163  0.3783 -1.3366
18261TIP3    H176274   4.431   6.286  15.709  0.5712  0.2941 -0.7295
18261TIP3    H276275   4.560   6.222  15.660  1.8991  0.0819  2.7780
18262TIP3   OH276276   0.474   2.706  13.642  0.0176  0.0050  0.9783
18262TIP3    H176277   0.494   2.756  13.563  2.6837 -1.4169  0.6263
18262TIP3    H276278   0.471   2.771  13.712  0.6746  0.9761  0.1375
18263TIP3   OH276279   0.447   2.530  15.091  0.0265  0.5860 -0.4073
18263TIP3    H176280   0.369   2.570  15.054  0.8190  0.1326 -2.7237
18263TIP3    H276281   0.426   2.516  15.183 -2.8362 -0.0883 -1.0858
18264TIP3   OH276282   0.739   3.934  12.283  0.2970  0.3249 -0.0829
18264TIP3    H176283   0.746   3.841  12.305 -0.8100 -0.0412 -1.1783
18264TIP3    H276284   0.678   3.937  12.209  0.8454  1.8627 -0.5101
18265TIP3   OH276285   2.928   6.118   4.208  0.5183  0.4037 -0.8036
18265TIP3    H176286   2.981   6.095   4.284 -0.0896 -0.1743 -0.5457
18265TIP3    H276287   2.856   6.170   4.244  0.4433  0.4610 -1.0347
18266TIP3   OH276288   5.957   2.571   1.334 -0.3612 -0.0888 -0.2431
18266TIP3    H176289   5.923   2.623   1.262  0.5170  0.8498 -0.0021
18266TIP3    H276290   5.954   2.629   1.410 -1.6799 -1.1969  0.6085
18267TIP3   OH276291   6.610   0.305   2.035 -0.0271  0.3429  0.3764
18267TIP3    H176292   6.654   0.299   1.950 -0.8757 -0.6458 -0.0158
18267TIP3    H276293   6.639   0.227   2.082 -0.4137  0.3159  0.5744
18268TIP3   OH276294   5.515   5.935  10.968  0.0720 -0.5835 -0.1182
18268TIP3    H176295   5.475   5.943  10.881 -1.4381  1.2823  0.6779
18268TIP3    H276296   5.609   5.936  10.951 -0.1895  0.1702 -1.6968
18269TIP3   OH276297   4.608   3.168  15.664 -0.1468  0.0387 -0.2269
18269TIP3    H176298   4.573   3.110  15.597  0.7957 -0.7856 -0.0283
18269TIP3    H276299   4.682   3.120  15.702 -1.9395 -0.5044  2.9299
18270TIP3   OH276300   6.197   5.336  11.320 -0.7461 -0.3205 -0.3628
18270TIP3    H176301   6.237   5.284  11.251 -2.2690 -0.8598 -0.8738
18270TIP3    H276302   6.140   5.275  11.367 -1.6718  0.6138 -0.2315
18271TIP3   OH276303   2.742   2.770   1.417  0.7475  0.3741  0.6342
18271TIP3    H176304   2.700   2.728   1.342 -1.3854 -0.6677  2.3268
18271TIP3    H276305   2.811   2.710   1.443 -1.5054 -1.6975  2.2885
18272TIP3   OH276306   1.162   4.786   4.962 -0.3819  0.3616  0.0168
18272TIP3    H176307   1.190   4.698   4.984 -3.1517 -2.0314 -4.4399
18272TIP3    H276308   1.075   4.795   5.002 -1.3353 -0.2340 -1.7872
18273TIP3   OH276309   3.954   4.296   2.548  0.2311 -0.0441 -0.1570
18273TIP3    H176310   3.875   4.265   2.593  1.7722 -1.4056  1.7882
18273TIP3    H276311   4.006   4.339   2.616  2.3831 -1.6507 -0.6447
18274TIP3   OH276312   1.768   0.439   1.328 -0.1340 -0.7440  0.2303
18274TIP3    H176313   1.835   0.483   1.275 -0.9889 -0.3871 -0.5897
18274TIP3    H276314   1.749   0.358   1.281  0.2815 -1.2383  0.8884
18275TIP3   OH276315   4.415   2.779   4.792  0.0172 -0.1724  0.3309
18275TIP3    H176316   4.386   2.742   4.709 -0.5269 -0.1743  0.5153
18275TIP3    H276317   4.421   2.704   4.851 -1.1881  0.0208  0.7337
18276TIP3   OH276318   3.478   2.318  13.924 -0.3366 -0.2060 -0.6319
18276TIP3    H176319   3.478   2.335  14.018  0.3879 -0.4100 -0.5913
18276TIP3    H276320   3.398   2.360  13.892 -1.4612 -1.5405  0.3273
18277TIP3   OH276321   1.849   6.407  14.476  0.4953 -0.0682 -0.2700
18277TIP3    H176322   1.762   6.366  14.471  0.6878 -0.4374 -0.6453
18277TIP3    H276323   1.909   6.339  14.447  1.1396 -0.5049  1.8990
18278TIP3   OH276324   6.209   6.056   4.413 -0.5304 -0.7001  0.4171
18278TIP3    H176325   6.133   5.999   4.421 -0.1119 -1.3805 -0.3689
18278TIP3    H276326   6.182   6.138   4.454 -1.5439 -1.0679  0.4978
18279TIP3   OH276327   3.228   6.155   4.088 -0.2437 -0.0932 -0.4237
18279TIP3    H176328   3.297   6.101   4.127  0.0232  1.3390  1.1982
18279TIP3    H276329   3.147   6.120   4.124 -0.0698  0.5506  0.6292
18280TIP3   OH276330   3.619   0.665   2.398 -0.2118  0.5569  0.2527
18280TIP3    H176331   3.708   0.649   2.367 -0.2990 -1.2780  0.8272
18280TIP3    H276332   3.631   0.693   2.489 -0.1566  2.0140 -0.1858
18281TIP3   OH276333   4.285   4.133  15.900  0.0164 -0.1160  0.3259
18281TIP3    H176334   4.320   4.046  15.880 -2.6314 -1.4463  1.0656
18281TIP3    H276335   4.259   4.168  15.815  0.4108 -0.3535  0.1007
18282TIP3   OH276336   1.711   2.727   3.467  0.1977 -0.2846  0.7283
18282TIP3    H176337   1.739   2.672   3.394 -0.7667  0.7208 -0.4480
18282TIP3    H276338   1.788   2.781   3.486  0.0450  0.4078 -0.4951
18283TIP3   OH276339   2.683   2.601  12.653 -0.0701  0.1259  0.5425
18283TIP3    H176340   2.761   2.632  12.606 -0.7604  0.3468 -0.4798
18283TIP3    H276341   2.701   2.508  12.670  1.4791  0.7115  2.5442
18284TIP3   OH276342   6.186   0.617   3.680 -0.0333 -0.1039 -0.4432
18284TIP3    H176343   6.218   0.706   3.694  1.8921 -0.8074 -0.1016
18284TIP3    H276344   6.265   0.564   3.674 -1.1608 -1.9080  0.0762
18285TIP3   OH276345   6.296   4.027   1.450  0.4514 -0.1674 -0.6460
18285TIP3    H176346   6.367   4.090   1.463  0.0534  0.0190  0.8457
18285TIP3    H276347   6.270   4.002   1.539  0.2546 -2.0593 -1.1915
18286TIP3   OH276348   3.747   2.829  16.736 -0.4138  0.3941 -0.4467
18286TIP3    H176349   3.698   2.749  16.721  0.1107 -0.3183  1.3684
18286TIP3    H276350   3.752   2.871  16.650 -0.1869 -1.7847 -1.5664
18287TIP3   OH276351   4.141   4.871   4.218  0.8701 -0.1239 -0.1186
18287TIP3    H176352   4.068   4.901   4.272  3.1918  0.4341  3.0323
18287TIP3    H276353   4.130   4.777   4.212  0.7243 -0.2807  1.8515
18288TIP3   OH276354   3.392   1.861   1.579 -0.3291 -0.2566  1.1977
18288TIP3    H176355   3.423   1.899   1.661 -1.7025  1.6139  0.9059
18288TIP3    H276356   3.401   1.931   1.515 -0.0482 -1.4366 -0.0958
18289TIP3   OH276357   4.854   0.197  13.363  0.4048 -0.1952 -0.8310
18289TIP3    H176358   4.890   0.173  13.449  2.4075 -0.3528 -1.6539
18289TIP3    H276359   4.930   0.196  13.305 -0.9785 -0.4828 -2.6983
18290TIP3   OH276360   4.486   1.040  15.307  0.4541 -0.2110 -0.5564
18290TIP3    H176361   4.453   0.973  15.366  0.1580  1.4209  1.2410
18290TIP3    H276362   4.407   1.081  15.271  0.6142 -0.0213 -0.6939
18291TIP3   OH276363   5.352   3.247  12.141 -0.2961 -0.4576 -0.6355
18291TIP3    H176364   5.260   3.268  12.157  0.6383  2.5525  1.6010
18291TIP3    H276365   5.356   3.151  12.147 -3.0565 -0.5879  0.5996
18292TIP3   OH276366   5.052   1.607   4.343 -0.3390 -0.1212 -0.1614
18292TIP3    H176367   5.084   1.696   4.325 -1.5773  1.0401  2.8379
18292TIP3    H276368   5.131   1.557   4.362  0.2733  0.6882 -0.5151
18293TIP3   OH276369   0.509   3.275   0.810 -0.1682  0.1097 -0.3270
18293TIP3    H176370   0.596   3.254   0.845 -0.5422  0.2977  0.7714
18293TIP3    H276371   0.510   3.241   0.721  1.2543  0.6624 -0.5516
18294TIP3   OH276372   4.766   3.072  10.431  0.1538 -0.4869  0.0574
18294TIP3    H176373   4.759   3.090  10.525  0.3499 -1.4383  0.2603
18294TIP3    H276374   4.761   3.159  10.390  1.5823  0.0806  1.0200
18295TIP3   OH276375   4.858   3.492   4.222  0.7351  0.2715  0.3572
18295TIP3    H176376   4.912   3.526   4.151  0.9454  1.3517  1.0102
18295TIP3    H276377   4.813   3.570   4.257  0.4318 -0.2831  1.2277
18296TIP3   OH276378   6.407   0.011   3.291 -0.5567 -0.3038  0.7512
18296TIP3    H176379   6.407   0.098   3.330  0.4221  0.0279  0.0316
18296TIP3    H276380   6.405  -0.049   3.366  2.0481  0.3131  1.4133
18297TIP3   OH276381   5.906   4.845  10.973  0.0119  0.3918 -0.6040
18297TIP3    H176382   5.917   4.892  10.891 -0.0584  1.4035 -0.0495
18297TIP3    H276383   5.839   4.779  10.954 -1.3953  1.8393 -0.8746
18298TIP3   OH276384   2.423   1.572   5.790 -0.2161  0.3931  0.1350
18298TIP3    H176385   2.356   1.516   5.750  0.7966 -0.7836  0.0078
18298TIP3    H276386   2.499   1.561   5.733  0.5047  0.6033  1.0381
18299TIP3   OH276387   0.719   0.425   0.759  0.3279 -0.8374 -0.3169
18299TIP3    H176388   0.711   0.331   0.773  0.6599 -0.8191  0.0118
18299TIP3    H276389   0.776   0.455   0.830 -0.2084 -0.3061 -0.0995
18300TIP3   OH276390   4.223   6.569   5.898 -0.4828  0.2402 -0.3177
18300TIP3    H176391   4.255   6.536   5.815  0.7523 -0.2823  0.3356
18300TIP3    H276392   4.145   6.517   5.917 -0.5739  0.1331 -0.9686
18301TIP3   OH276393   6.735   4.975  12.133 -0.3132  0.3323 -0.0312
18301TIP3    H176394   6.695   5.058  12.158 -2.7415 -0.1885 -1.7918
18301TIP3    H276395   6.771   4.940  12.214 -1.3854  1.9760  1.2237
18302TIP3   OH276396   5.063   4.527   0.744  0.1030 -0.0822 -0.0010
18302TIP3    H176397   5.122   4.513   0.818 -0.6406 -0.4922  0.5292
18302TIP3    H276398   4.999   4.591   0.776 -0.4110 -0.5042 -0.1747
18303TIP3   OH276399   2.894   1.963  11.644 -0.3099 -0.6522  0.5300
18303TIP3    H176400   2.866   1.929  11.729 -2.2534 -1.6099 -0.4463
18303TIP3    H276401   2.856   1.903  11.580  1.0066  0.1194 -1.0479
18304TIP3   OH276402   6.109   3.169   3.854 -0.2602 -0.3129 -0.4263
18304TIP3    H176403   6.066   3.123   3.782 -2.1775  1.8009 -0.7749
18304TIP3    H276404   6.125   3.257   3.820  1.1174  0.0183  0.9370
18305TIP3   OH276405   4.952   5.173  14.654  0.1737 -0.2552  0.1728
18305TIP3    H176406   4.994   5.096  14.692  0.1044 -0.9232 -1.0507
18305TIP3    H276407   4.874   5.187  14.708 -0.2123 -1.4987 -0.0432
18306TIP3   OH276408   1.844   0.715  15.965 -0.3960 -0.8120 -0.0716
18306TIP3    H176409   1.935   0.686  15.964 -0.8695 -2.4476 -1.0332
18306TIP3    H276410   1.840   0.784  15.899  0.0525 -1.0903 -0.3958
18307TIP3   OH276411   4.086   0.208  12.671  0.2850 -0.5193  0.4054
18307TIP3    H176412   4.038   0.182  12.592  2.2016  0.2183 -1.0642
18307TIP3    H276413   4.071   0.302  12.678  1.5033 -0.2771 -0.0842
18308TIP3   OH276414   5.017   4.008  15.395 -0.1024  0.3702  0.0598
18308TIP3    H176415   5.028   3.933  15.336  0.0614 -0.1735  0.7628
18308TIP3    H276416   4.928   4.039  15.378 -0.8175 -1.0816  0.9791
18309TIP3   OH276417   1.773   6.461   5.119 -0.2902 -0.3095  0.5793
18309TIP3    H176418   1.758   6.445   5.026  0.2940  0.7311  0.2952
18309TIP3    H276419   1.745   6.551   5.132  1.9516  0.4052  0.8626
18310TIP3   OH276420   5.964   5.200   0.525 -0.3426 -0.1860  0.5002
18310TIP3    H176421   5.963   5.263   0.597 -0.0480 -1.1003  1.3203
18310TIP3    H276422   6.009   5.246   0.454  0.7790  0.1813  1.4191
18311TIP3   OH276423   6.638   5.217  12.222  0.0320  0.8947 -0.1672
18311TIP3    H176424   6.598   5.237  12.307 -1.0186 -1.7307  0.0700
18311TIP3    H276425   6.586   5.266  12.159 -0.1467  1.6891  0.5827
18312TIP3   OH276426   2.568   6.493   1.716  0.4275 -0.0533  0.0336
18312TIP3    H176427   2.512   6.416   1.706 -1.1699  1.2601 -2.0962
18312TIP3    H276428   2.538   6.535   1.797  0.2896 -0.8770  0.4123
18313TIP3   OH276429   3.549   3.082   4.356  0.5351  0.4002 -0.0208
18313TIP3    H176430   3.556   3.177   4.347 -0.9946  0.5495  0.0808
18313TIP3    H276431   3.455   3.066   4.365  0.7798 -1.1196  0.0471
18314TIP3   OH276432   1.331   4.433  15.204 -0.4767  0.4775  0.5309
18314TIP3    H176433   1.259   4.414  15.143  0.2815 -0.7483 -0.0091
18314TIP3    H276434   1.371   4.513  15.171  0.3172 -0.5108 -0.9831
18315TIP3   OH276435   6.377   2.269  16.480  0.5122  0.3818 -0.2196
18315TIP3    H176436   6.302   2.312  16.521 -0.8680 -2.4499  0.4713
18315TIP3    H276437   6.426   2.230  16.553 -1.1301 -3.4147 -0.9117
18316TIP3   OH276438   3.475   5.609  14.508 -0.0258  0.0291  0.5711
18316TIP3    H176439   3.514   5.689  14.544 -0.0270 -0.2402  1.1816
18316TIP3    H276440   3.462   5.628  14.415 -3.5408  2.1500  1.3432
18317TIP3   OH276441   0.241   3.365   5.936 -0.1502  0.1678  0.0442
18317TIP3    H176442   0.168   3.339   5.992  0.9553 -0.6026  1.1707
18317TIP3    H276443   0.319   3.359   5.992  0.8770  0.3243 -1.3009
18318TIP3   OH276444   6.341   2.823  13.074  0.3521  0.5890  0.3447
18318TIP3    H176445   6.434   2.799  13.073  0.5444  1.3607 -0.8566
18318TIP3    H276446   6.298   2.746  13.112  1.3312 -0.3122 -0.3113
18319TIP3   OH276447   4.872   1.329   1.253 -0.5799  0.7840 -0.7727
18319TIP3    H176448   4.890   1.405   1.198 -0.7184  0.3451 -1.4354
18319TIP3    H276449   4.796   1.355   1.305 -1.8220  0.4567 -2.3328
18320TIP3   OH276450   6.097   4.380   2.207 -0.1593 -0.5176 -0.7722
18320TIP3    H176451   6.178   4.410   2.167  0.9341 -1.6015  0.5277
18320TIP3    H276452   6.105   4.405   2.299 -0.3150 -2.4964 -0.1715
18321TIP3   OH276453   0.769   0.990   1.380  0.2725  0.0949 -0.0668
18321TIP3    H176454   0.721   0.922   1.333 -0.4605 -1.0834  2.2066
18321TIP3    H276455   0.701   1.039   1.426  1.0381 -0.2337  1.4950
18322TIP3   OH276456   0.922   0.709   2.000  0.6455 -0.3982  0.5190
18322TIP3    H176457   0.989   0.778   2.005  0.4549 -0.1130 -0.5522
18322TIP3    H276458   0.960   0.635   2.048  1.1345  0.2280  1.1193
18323TIP3   OH276459   6.646   2.636   1.282 -0.2497  0.2004 -0.2285
18323TIP3    H176460   6.734   2.598   1.292 -0.2914  0.1857  0.0940
18323TIP3    H276461   6.622   2.663   1.370  0.2146  1.9548 -0.6095
18324TIP3   OH276462   6.131   6.584   4.528 -0.9107 -0.0742  0.3875
18324TIP3    H176463   6.041   6.612   4.544 -0.3564  2.1974  0.0044
18324TIP3    H276464   6.184   6.642   4.583  0.3902 -0.1432 -0.7393
18325TIP3   OH276465   6.674   2.391   0.683  0.3909  0.3560 -0.6427
18325TIP3    H176466   6.766   2.372   0.698  0.9152  2.4049 -0.9466
18325TIP3    H276467   6.627   2.323   0.732  2.0483 -0.3193  0.0830
18326TIP3   OH276468   4.822   1.812   2.030 -0.0799  0.2812  0.1755
18326TIP3    H176469   4.895   1.875   2.034  0.8494 -0.7242 -0.3111
18326TIP3    H276470   4.748   1.864   1.999  0.3079  1.4219  1.0411
18327TIP3   OH276471   2.521   5.517  16.267 -0.7950 -0.0674 -0.1593
18327TIP3    H176472   2.464   5.575  16.318  0.6822  0.8845  0.4621
18327TIP3    H276473   2.556   5.455  16.330  1.0234  1.1033  0.0437
18328TIP3   OH276474   6.112   4.728  11.117  0.4587  0.2100  0.2242
18328TIP3    H176475   6.049   4.656  11.126 -1.2036  1.6812  1.0681
18328TIP3    H276476   6.070   4.789  11.057  1.0213  1.2732  0.8765
18329TIP3   OH276477   0.116   3.648   2.338 -0.0921 -0.2560 -0.1851
18329TIP3    H176478   0.105   3.575   2.398 -1.1917 -0.7808 -0.9857
18329TIP3    H276479   0.168   3.612   2.266  1.5950  0.4846  0.6049
18330TIP3   OH276480   5.126   2.296   0.046 -0.2732 -0.0277  0.4410
18330TIP3    H176481   5.097   2.236  -0.023  1.1658 -0.2505  0.0063
18330TIP3    H276482   5.055   2.294   0.111 -1.0715 -0.7814 -0.4321
18331TIP3   OH276483   2.379   1.577  12.899 -0.0563  0.1736 -0.3140
18331TIP3    H176484   2.461   1.566  12.851 -0.2655 -0.5632 -0.5255
18331TIP3    H276485   2.368   1.671  12.907  0.5704  0.2875 -0.7030
18332TIP3   OH276486   2.646   0.871  11.184  0.5497 -0.2150 -0.2921
18332TIP3    H176487   2.638   0.833  11.096  1.4821 -0.3014 -0.3453
18332TIP3    H276488   2.727   0.834  11.219 -0.6542 -1.5091  1.2702
18333TIP3   OH276489   0.819   2.554   5.790  0.4414 -0.3401 -0.5660
18333TIP3    H176490   0.842   2.463   5.809 -1.5154 -0.4135  2.0283
18333TIP3    H276491   0.760   2.548   5.715 -1.7958 -1.6208  1.1731
18334TIP3   OH276492   2.423   3.283   3.776 -0.0386 -0.3322  0.4208
18334TIP3    H176493   2.449   3.374   3.791  0.9347 -0.9560  2.8714
18334TIP3    H276494   2.468   3.258   3.695 -0.2171  1.2896 -0.2238
18335TIP3   OH276495   5.977   0.981   3.810  0.0887 -0.5623  0.3144
18335TIP3    H176496   6.044   1.042   3.840 -1.1978  0.9733  0.1939
18335TIP3    H276497   5.917   0.972   3.884 -1.1954  0.4773 -0.5760
18336TIP3   OH276498   2.796   3.561  11.144 -0.2164 -0.0717 -0.0794
18336TIP3    H176499   2.713   3.577  11.189 -0.0486  0.0671  0.1900
18336TIP3    H276500   2.814   3.642  11.097 -0.4230 -0.2400 -0.4472
18337TIP3   OH276501   4.569   1.738   5.946 -0.1397  0.1848  0.3657
18337TIP3    H176502   4.584   1.663   5.888  0.6249  1.6919 -1.5087
18337TIP3    H276503   4.593   1.815   5.893 -1.1169  1.7914  2.1118
18338TIP3   OH276504   0.622   1.289  12.326 -0.0037  0.3993  0.4574
18338TIP3    H176505   0.603   1.267  12.417  0.9582 -1.2594  0.3036
18338TIP3    H276506   0.584   1.376  12.313  0.2161  0.8464  2.5487
18339TIP3   OH276507   5.673   1.517   2.826 -0.5061  0.4752  0.3981
18339TIP3    H176508   5.729   1.440   2.815  1.8481  1.5723  3.4143
18339TIP3    H276509   5.588   1.482   2.852 -0.0554 -1.1254 -0.1888
18340TIP3   OH276510   1.290   5.121  10.688 -0.2015 -0.3921  0.5408
18340TIP3    H176511   1.245   5.185  10.742  0.6135 -0.3089  1.1303
18340TIP3    H276512   1.383   5.139  10.700  0.0035 -0.5245 -0.7045
18341TIP3   OH276513   6.780   0.722  15.905  0.7675 -0.9277  0.2530
18341TIP3    H176514   6.734   0.791  15.951  0.9907  0.0513 -0.9576
18341TIP3    H276515   6.861   0.763  15.874  0.5312 -1.4820 -1.1800
18342TIP3   OH276516   3.445   0.715   3.658  0.0823  0.1298 -0.0151
18342TIP3    H176517   3.437   0.719   3.753  0.9114 -3.4520  0.3776
18342TIP3    H276518   3.355   0.709   3.626 -0.2773 -3.6561  1.1396
18343TIP3   OH276519   2.750   3.232  13.882  0.2523  1.0640 -0.4211
18343TIP3    H176520   2.771   3.139  13.894 -0.8901  0.8864  0.3997
18343TIP3    H276521   2.727   3.240  13.789 -0.8514  0.2538 -0.2319
18344TIP3   OH276522   5.943   1.064   0.252  0.3157  0.1055  0.0031
18344TIP3    H176523   5.926   1.079   0.159  0.6808  0.1309 -0.0595
18344TIP3    H276524   5.992   0.982   0.255  1.1017  0.5702  0.0998
18345TIP3   OH276525   2.018   5.276   4.593  0.3365 -0.2433  0.4565
18345TIP3    H176526   1.994   5.323   4.513  1.7102 -0.2096  0.0489
18345TIP3    H276527   1.964   5.316   4.661 -0.5002  0.0522 -0.3587
18346TIP3   OH276528   3.245   1.863  12.510 -0.0453  0.5563 -0.3966
18346TIP3    H176529   3.299   1.823  12.442  0.8474 -1.0309  1.1370
18346TIP3    H276530   3.254   1.803  12.585 -2.3357  1.3231  0.5698
18347TIP3   OH276531   1.219   0.256  15.707  0.1049 -0.3181  0.2476
18347TIP3    H176532   1.201   0.308  15.786  1.9651  1.4383 -0.4040
18347TIP3    H276533   1.305   0.218  15.722  0.1913 -0.4968 -0.6657
18348TIP3   OH276534   4.963   0.647  15.142  0.3475  1.1600 -0.0036
18348TIP3    H176535   4.926   0.719  15.091  0.2646  0.1571 -1.3921
18348TIP3    H276536   5.057   0.665  15.145  0.6327  0.3246 -2.0893
18349TIP3   OH276537   2.738   1.266   3.133 -0.5091 -0.1401  0.6098
18349TIP3    H176538   2.684   1.286   3.057 -1.1998 -0.2822  1.0624
18349TIP3    H276539   2.712   1.178   3.159  0.0415 -0.2685  0.7527
18350TIP3   OH276540   0.628   5.634   2.677  0.3048 -0.1856  0.9823
18350TIP3    H176541   0.718   5.622   2.706 -0.1779 -1.3527  2.1019
18350TIP3    H276542   0.613   5.563   2.615  0.4673  0.6415 -0.0251
18351TIP3   OH276543   2.671   1.570  15.119 -0.4803 -0.4554  0.3718
18351TIP3    H176544   2.754   1.567  15.071  0.1301  0.7770  1.2785
18351TIP3    H276545   2.623   1.493  15.090  0.4452 -0.4997 -1.1456
18352TIP3   OH276546   2.376   3.735  12.961 -0.0939  0.5565 -0.3426
18352TIP3    H176547   2.296   3.699  12.924  0.1712  0.9581 -1.3398
18352TIP3    H276548   2.358   3.743  13.054 -1.7068  1.9144 -0.7357
18353TIP3   OH276549   4.050   1.476  11.161 -0.2379 -0.4620 -0.9802
18353TIP3    H176550   4.050   1.410  11.231 -1.0442  0.4268 -0.1108
18353TIP3    H276551   4.127   1.529  11.178 -0.1820 -0.5216 -1.0450
18354TIP3   OH276552   0.658   1.026  15.693  0.4439 -0.1919 -0.2795
18354TIP3    H176553   0.655   0.948  15.638 -1.2424 -0.3996  0.0815
18354TIP3    H276554   0.738   1.071  15.665  0.3656 -0.9937 -1.9241
18355TIP3   OH276555   5.689   0.160  13.280 -0.4189 -0.3452  0.0329
18355TIP3    H176556   5.745   0.208  13.219  1.6666  0.0072  2.0855
18355TIP3    H276557   5.744   0.146  13.357 -3.2876  0.4068  2.4062
18356TIP3   OH276558   4.120   6.458   0.846  0.2717  0.0055  0.4810
18356TIP3    H176559   4.187   6.390   0.849  0.2475 -0.0239  0.3699
18356TIP3    H276560   4.161   6.529   0.797 -0.7556 -1.1114 -2.1589
18357TIP3   OH276561   0.842   4.988  13.587  0.3276 -0.0179 -0.0080
18357TIP3    H176562   0.783   4.979  13.661 -0.8467 -1.4480 -1.0584
18357TIP3    H276563   0.893   4.906  13.586  0.7820  0.2590 -0.3970
18358TIP3   OH276564   3.803   0.668  17.010 -0.4163 -0.3250  0.1080
18358TIP3    H176565   3.897   0.686  17.011 -0.6615  1.0593  1.2614
18358TIP3    H276566   3.796   0.578  16.978  1.2430 -0.1914 -0.7370
18359TIP3   OH276567   2.986   5.919   3.513 -0.0944  0.0525  0.1857
18359TIP3    H176568   3.016   5.830   3.495  0.8499  0.3222  0.3683
18359TIP3    H276569   2.906   5.907   3.564  0.4951 -0.6979  0.9671
18360TIP3   OH276570   5.704   4.768  13.085 -0.1598  0.7300  0.1858
18360TIP3    H176571   5.735   4.756  13.175 -0.9877 -0.5585  0.3285
18360TIP3    H276572   5.775   4.816  13.042  0.1265  1.6457  1.5881
18361TIP3   OH276573   5.726   3.813  14.721  0.1616 -0.2401 -0.0844
18361TIP3    H176574   5.702   3.728  14.757  0.6228  0.0816  1.0368
18361TIP3    H276575   5.799   3.842  14.775  1.7638 -0.2846 -2.1297
18362TIP3   OH276576   6.669   0.536  15.741  0.3231  0.4145  0.3071
18362TIP3    H176577   6.746   0.488  15.709  1.1949  0.5361  2.1026
18362TIP3    H276578   6.705   0.598  15.805 -1.1425  1.3531  0.2581
18363TIP3   OH276579   1.307   2.454  17.188 -0.1090 -0.4261  0.1663
18363TIP3    H176580   1.362   2.385  17.225  0.0575 -0.1513  0.4399
18363TIP3    H276581   1.360   2.533  17.196 -0.4371 -0.2050  0.1842
18364TIP3   OH276582   4.135   3.067   0.440  0.4213 -0.4962  0.0156
18364TIP3    H176583   4.176   3.095   0.522  3.6217 -0.9031 -1.3206
18364TIP3    H276584   4.095   2.982   0.462  0.5967 -0.2739  1.2987
18365TIP3   OH276585   6.649   4.488  10.808  0.2841 -0.2313  0.1546
18365TIP3    H176586   6.656   4.395  10.786  1.3143 -0.7453  2.3845
18365TIP3    H276587   6.614   4.489  10.897  1.5559  1.4622  0.6800
18366TIP3   OH276588   3.990   6.092  13.465 -0.1479 -0.0944  0.1804
18366TIP3    H176589   3.948   6.043  13.395  1.3671 -0.0934 -0.7783
18366TIP3    H276590   3.926   6.092  13.536 -0.3960 -3.0849  0.0915
18367TIP3   OH276591   0.064   0.469   2.411  0.9923 -0.0617 -0.2203
18367TIP3    H176592   0.135   0.509   2.360  0.9480 -0.0098 -0.2419
18367TIP3    H276593   0.093   0.475   2.502  1.3983 -0.8178 -0.3007
18368TIP3   OH276594   0.050   6.288   6.048 -0.0783  0.3577  0.4968
18368TIP3    H176595   0.072   6.211   6.100  0.6258  0.2982  0.1222
18368TIP3    H276596   0.085   6.269   5.961  1.2387  1.6361  0.7214
18369TIP3   OH276597   1.447   2.433  15.319 -1.0193 -0.4777 -0.0366
18369TIP3    H176598   1.433   2.397  15.231 -1.8418  3.1941 -1.5688
18369TIP3    H276599   1.359   2.456  15.350 -0.5068  0.5373  0.7065
18370TIP3   OH276600   3.594   3.828  16.933 -0.7025  0.1374  0.7604
18370TIP3    H176601   3.687   3.808  16.944 -0.6491  0.2152  0.4793
18370TIP3    H276602   3.558   3.829  17.022 -0.4593 -0.0113  0.8603
18371TIP3   OH276603   5.203   0.806  14.949 -0.1644  0.3932  0.2960
18371TIP3    H176604   5.198   0.717  14.913  0.2470 -0.3743  1.9827
18371TIP3    H276605   5.297   0.825  14.952 -0.1792  0.3802  1.0473
18372TIP3   OH276606   4.982   0.366   6.002 -0.0156  0.7354  0.1071
18372TIP3    H176607   5.033   0.433   5.955  1.6084 -1.3094 -1.2414
18372TIP3    H276608   4.937   0.317   5.932 -2.3642  1.2599  1.1593
18373TIP3   OH276609   6.501   1.827   2.369  0.0477  0.1732 -1.0018
18373TIP3    H176610   6.534   1.881   2.297  2.2601  0.1522 -0.0928
18373TIP3    H276611   6.580   1.791   2.410 -1.2820 -2.5375 -0.6182
18374TIP3   OH276612   4.900   3.612  17.148 -0.2726 -0.5573  0.2609
18374TIP3    H176613   4.977   3.668  17.159 -0.1317 -0.8517  0.8267
18374TIP3    H276614   4.853   3.620  17.232 -0.9457 -0.2566 -0.1325
18375TIP3   OH276615   2.931   2.874   4.576  0.5107 -0.0016 -0.3151
18375TIP3    H176616   2.883   2.857   4.495  1.1521 -0.3228 -0.6446
18375TIP3    H276617   3.007   2.815   4.571  0.1308 -0.6267  0.9144
18376TIP3   OH276618   6.806   1.904  16.772  0.3936 -0.3145  0.6812
18376TIP3    H176619   6.858   1.984  16.759  0.1068 -0.0146  1.3150
18376TIP3    H276620   6.819   1.854  16.691  2.4036 -0.6830  1.1703
18377TIP3   OH276621   1.748   5.128   1.782 -0.4674  0.2588 -0.4235
18377TIP3    H176622   1.826   5.125   1.837  0.4047 -0.9943 -1.6669
18377TIP3    H276623   1.698   5.051   1.807 -0.8071  0.4973 -0.3546
18378TIP3   OH276624   0.498   1.463  12.744  0.7058  0.0724  0.5808
18378TIP3    H176625   0.521   1.547  12.785  1.7072 -0.1197  0.4478
18378TIP3    H276626   0.582   1.418  12.734  0.4566 -0.0184 -1.4002
18379TIP3   OH276627   5.123   3.468   0.111  0.1268 -0.1918  0.0114
18379TIP3    H176628   5.048   3.433   0.159  0.7612  0.0044  1.1752
18379TIP3    H276629   5.085   3.505   0.031 -1.0056 -0.1373  0.5512
18380TIP3   OH276630   3.089   4.288   3.874  0.3455 -0.6693  0.6307
18380TIP3    H176631   3.132   4.256   3.795  0.6024 -2.9896  1.6021
18380TIP3    H276632   3.160   4.297   3.938 -0.2203 -2.2718  1.5666
18381TIP3   OH276633   1.832   3.428  11.540  0.1989 -0.0516  0.4788
18381TIP3    H176634   1.771   3.450  11.610 -0.5499 -0.8273  0.0822
18381TIP3    H276635   1.828   3.333  11.533  0.0418  0.0331 -0.8106
18382TIP3   OH276636   2.648   0.910  16.055 -0.2579  0.5056 -0.7095
18382TIP3    H176637   2.671   0.900  16.148  1.2480  0.3740 -1.0635
18382TIP3    H276638   2.726   0.951  16.016 -0.4146 -0.4903 -2.1264
18383TIP3   OH276639   4.407   3.585  16.362 -0.1069  0.0765 -0.3184
18383TIP3    H176640   4.417   3.679  16.347  0.4212  0.2591  1.0323
18383TIP3    H276641   4.417   3.575  16.457  0.0413 -1.3709 -0.4686
18384TIP3   OH276642   5.794   5.901   3.169  0.2907  0.6152 -0.4079
18384TIP3    H176643   5.702   5.925   3.162  0.0424 -0.1588  0.1394
18384TIP3    H276644   5.841   5.979   3.141 -0.5319  0.9871 -0.7740
18385TIP3   OH276645   2.809   1.438   3.577  0.3833 -0.1893 -0.2833
18385TIP3    H176646   2.853   1.454   3.660 -0.1523  1.1071 -0.2191
18385TIP3    H276647   2.733   1.384   3.600  0.3061  0.0580  0.0573
18386TIP3   OH276648   2.556   4.005   1.370  0.0130  0.3964  0.0584
18386TIP3    H176649   2.524   4.036   1.285  1.2330  1.1349 -0.1563
18386TIP3    H276650   2.495   4.043   1.434  0.4961  1.9173 -0.3312
18387TIP3   OH276651   2.657   3.882   3.551  0.1582  0.4192 -0.4087
18387TIP3    H176652   2.694   3.807   3.505 -0.8225 -0.2183 -0.1873
18387TIP3    H276653   2.626   3.847   3.634  0.1275  1.1706 -0.0915
18388TIP3   OH276654   4.049   2.672  12.485 -0.0415  0.0749  0.0002
18388TIP3    H176655   3.954   2.680  12.481 -0.0782 -0.3966 -0.0831
18388TIP3    H276656   4.077   2.673  12.394  0.1063  1.0085  0.0430
18389TIP3   OH276657   3.150   4.087  12.100  0.3369  0.0603 -0.1268
18389TIP3    H176658   3.231   4.133  12.123 -0.7670  1.4746  1.2055
18389TIP3    H276659   3.165   4.056  12.011  2.7249 -0.6785  0.4503
18390TIP3   OH276660   5.899   3.358   3.505 -0.2912 -0.0317  0.2164
18390TIP3    H176661   5.848   3.439   3.501  1.1577  0.9051 -0.1387
18390TIP3    H276662   5.959   3.372   3.578  0.2490 -0.6147 -0.1088
18391TIP3   OH276663   1.165   5.709  11.478 -0.3364 -0.2647  0.1410
18391TIP3    H176664   1.074   5.707  11.447 -0.6796  1.4079  0.9318
18391TIP3    H276665   1.166   5.648  11.552 -1.2839  0.9567  1.2124
18392TIP3   OH276666   0.623   2.056   4.583  0.3471  0.2314  0.1809
18392TIP3    H176667   0.587   2.125   4.639  0.1413  1.0235 -0.8998
18392TIP3    H276668   0.564   1.981   4.597  0.7746  0.1375  1.6200
18393TIP3   OH276669   6.507   5.357  12.017 -0.7841 -0.3337 -0.1410
18393TIP3    H176670   6.534   5.393  11.933 -0.9034 -0.1022 -0.0827
18393TIP3    H276671   6.426   5.404  12.038 -1.0345 -0.7619 -0.1431
18394TIP3   OH276672   5.216   5.945   2.958 -0.5637 -0.0376 -0.2257
18394TIP3    H176673   5.288   5.931   2.897 -0.2414 -0.5951  0.2677
18394TIP3    H276674   5.138   5.914   2.911 -0.3929 -0.0057 -0.5308
18395TIP3   OH276675   2.793   3.919   1.486  0.2631 -0.1479 -0.1123
18395TIP3    H176676   2.714   3.936   1.434 -0.4047 -1.3449  0.4710
18395TIP3    H276677   2.780   3.968   1.567  0.3690  0.0775 -0.2299
18396TIP3   OH276678   6.258   4.710  13.082  0.0273 -0.1335  0.0954
18396TIP3    H176679   6.296   4.625  13.102  0.6925  0.7042  2.7594
18396TIP3    H276680   6.333   4.767  13.064 -0.1971  0.4685  0.9597
18397TIP3   OH276681   4.040   6.590   4.081  0.5897  0.4200 -0.4058
18397TIP3    H176682   3.952   6.614   4.109 -0.3415 -0.4182 -2.4865
18397TIP3    H276683   4.073   6.533   4.151 -0.8181  0.0937  0.0209
18398TIP3   OH276684   6.737   2.595   1.964 -0.6775  0.4056  0.6457
18398TIP3    H176685   6.665   2.604   1.901 -0.0788  0.3287 -0.0647
18398TIP3    H276686   6.783   2.516   1.936 -0.8380 -0.0564  1.6411
18399TIP3   OH276687   6.393   3.290  12.929  0.6185  0.0349 -0.4144
18399TIP3    H176688   6.346   3.218  12.887 -1.9285  0.8055  0.8746
18399TIP3    H276689   6.458   3.248  12.985  0.1670 -1.1948 -0.7973
18400TIP3   OH276690   6.004   4.374  14.349  0.3683 -0.0751 -0.4314
18400TIP3    H176691   5.916   4.348  14.322 -0.1521  0.2217  0.8863
18400TIP3    H276692   6.040   4.422  14.274 -1.3954  1.6466 -0.2542
18401TIP3   OH276693   1.157   0.326   6.259  0.2308 -0.4354  0.6240
18401TIP3    H176694   1.194   0.366   6.338  0.6644 -0.1343  0.2700
18401TIP3    H276695   1.088   0.268   6.292  2.6306 -2.9629  1.5223
18402TIP3   OH276696   0.990   2.263   5.819  0.3357  0.3507  0.1072
18402TIP3    H176697   1.062   2.292   5.764  0.5806 -0.1161  0.1828
18402TIP3    H276698   1.029   2.247   5.905 -0.0248  0.9746  0.3984
18403TIP3   OH276699   4.713   1.100   4.199  0.0517 -0.2433 -0.0681
18403TIP3    H176700   4.625   1.135   4.189 -0.6543 -2.0593 -0.7265
18403TIP3    H276701   4.718   1.073   4.291  0.3174  0.8016  0.2361
18404TIP3   OH276702   3.248   5.220   4.217  0.7136  0.3899  0.1488
18404TIP3    H176703   3.297   5.214   4.135  2.0875 -1.0270  0.9972
18404TIP3    H276704   3.227   5.129   4.238  2.7854  0.3625  2.6777
18405TIP3   OH276705   5.676   3.385   1.873 -0.1771 -0.0044  0.1667
18405TIP3    H176706   5.667   3.357   1.782  0.0001  0.9982 -0.1665
18405TIP3    H276707   5.586   3.388   1.905 -0.3532  0.8673 -0.3656
18406TIP3   OH276708   2.059   3.707   1.436  0.5522  0.1187 -0.6777
18406TIP3    H176709   2.031   3.705   1.344 -1.5310  0.6547 -0.1054
18406TIP3    H276710   2.074   3.615   1.458 -2.1691 -0.4230 -0.6934
18407TIP3   OH276711   2.810   1.184   3.787 -1.1318 -0.0802  0.0839
18407TIP3    H176712   2.901   1.189   3.758 -1.5557  1.3553 -1.0731
18407TIP3    H276713   2.798   1.261   3.842 -1.2255 -1.1392  1.6240
18408TIP3   OH276714   2.992   5.844   3.205 -0.4590  0.0882  0.3210
18408TIP3    H176715   2.936   5.911   3.166 -1.4496  0.5518  2.4131
18408TIP3    H276716   3.081   5.881   3.198 -0.8929  1.2547  0.6540
18409TIP3   OH276717   1.399   0.310  15.300 -0.5887  0.0418 -0.1611
18409TIP3    H176718   1.394   0.397  15.339 -0.6285  0.4235 -0.9838
18409TIP3    H276719   1.397   0.250  15.374  1.6981  0.7891  0.6205
18410TIP3   OH276720   5.131   1.964  14.090  0.2454 -0.3458 -0.4570
18410TIP3    H176721   5.128   1.978  14.184 -1.3137 -1.2339 -0.3369
18410TIP3    H276722   5.064   2.022  14.055  0.0159 -0.8644 -0.8942
18411TIP3   OH276723   0.506   4.811  14.327 -0.1541 -0.7142  0.3518
18411TIP3    H176724   0.503   4.874  14.398  0.5937 -0.0486 -0.1942
18411TIP3    H276725   0.599   4.790  14.317 -0.1511 -0.1681 -0.9499
18412TIP3   OH276726   4.379   5.482  11.623  0.1093  0.2186  0.1253
18412TIP3    H176727   4.343   5.526  11.546 -1.1647 -0.8345  0.0876
18412TIP3    H276728   4.407   5.396  11.591 -0.2863 -0.1701  0.7910
18413TIP3   OH276729   1.916   6.075   0.962 -0.2582 -0.2925 -0.7513
18413TIP3    H176730   1.961   5.995   0.990 -1.0739 -1.2031 -1.9648
18413TIP3    H276731   1.959   6.144   1.013 -0.5324 -1.6323  1.4726
18414TIP3   OH276732   3.220   1.934   4.039  0.2681  0.4087 -0.9018
18414TIP3    H176733   3.263   1.993   3.977 -0.7228  2.4914  0.2987
18414TIP3    H276734   3.152   1.988   4.080  0.4660 -1.0692  1.5409
18415TIP3   OH276735   6.273   5.710  15.446  0.4644 -0.1705  0.3704
18415TIP3    H176736   6.238   5.639  15.393  0.7048  1.2830 -1.8854
18415TIP3    H276737   6.320   5.667  15.517  3.9124 -2.5513 -2.9374
18416TIP3   OH276738   5.249   1.431  17.134 -0.2565  0.1083 -0.1724
18416TIP3    H176739   5.330   1.396  17.099 -0.5347 -0.7727  0.0427
18416TIP3    H276740   5.192   1.443  17.058  0.6118  2.3119 -0.5559
18417TIP3   OH276741   2.138   1.816   4.101  0.2506 -0.1856 -0.3338
18417TIP3    H176742   2.114   1.823   4.009 -1.4766 -2.7960 -0.2072
18417TIP3    H276743   2.071   1.866   4.147 -0.2595 -0.7685 -0.4188
18418TIP3   OH276744   3.108   4.786   5.140  0.1351  0.1552 -0.4097
18418TIP3    H176745   3.080   4.778   5.231  1.4382 -1.2225 -0.1007
18418TIP3    H276746   3.026   4.795   5.091 -0.5232  2.4487  0.9918
18419TIP3   OH276747   4.865   1.669  11.396  0.0619  0.5428 -0.5681
18419TIP3    H176748   4.822   1.639  11.476 -0.4906  0.0480 -1.0374
18419TIP3    H276749   4.899   1.755  11.418  2.3180 -0.6536  1.0749
18420TIP3   OH276750   3.716   1.749  11.796  0.2593  0.0969  0.2856
18420TIP3    H176751   3.734   1.842  11.804 -1.7114  0.4335  1.4838
18420TIP3    H276752   3.627   1.739  11.829 -1.7134 -1.3900 -4.5589
18421TIP3   OH276753   1.566   0.856  16.261 -0.2316 -0.0415 -0.2265
18421TIP3    H176754   1.518   0.842  16.179 -0.7568 -0.0131  0.0700
18421TIP3    H276755   1.658   0.855  16.236 -0.3210 -1.5494 -0.6025
18422TIP3   OH276756   2.986   3.685   3.443 -0.2550  0.0727  0.0144
18422TIP3    H176757   3.049   3.718   3.508  1.9504  2.0143 -2.8523
18422TIP3    H276758   3.030   3.609   3.404  0.0997  1.0873 -1.6168
18423TIP3   OH276759   6.477   6.435   0.447 -0.5816  0.5985 -0.0895
18423TIP3    H176760   6.445   6.522   0.421  0.8070  0.6111 -2.0916
18423TIP3    H276761   6.445   6.377   0.378  0.6994  0.0344 -0.2387
18424TIP3   OH276762   6.543   5.476  12.527  0.0782  0.1002  0.6414
18424TIP3    H176763   6.585   5.549  12.481  0.1848  0.1353  0.7937
18424TIP3    H276764   6.594   5.465  12.607  0.8641 -0.9985  0.0106
18425TIP3   OH276765   0.710   6.326   6.591 -0.2661 -0.4368  0.3090
18425TIP3    H176766   0.776   6.317   6.660  0.8169 -0.6634 -0.7108
18425TIP3    H276767   0.734   6.260   6.526  0.5243  1.6263 -1.6512
18426TIP3   OH276768   1.823   1.670   1.815 -0.7401 -0.5817  0.0461
18426TIP3    H176769   1.744   1.717   1.843 -1.4877 -1.4763 -0.5014
18426TIP3    H276770   1.810   1.581   1.847 -0.0046 -0.7705 -0.1644
18427TIP3   OH276771   4.399   5.935  14.053 -0.4088 -0.1859  0.1954
18427TIP3    H176772   4.338   5.861  14.055 -0.9898  0.3025  1.0492
18427TIP3    H276773   4.392   5.969  13.964 -0.2572 -1.0609 -0.1535
18428TIP3   OH276774   2.405   0.887   0.609  0.2977  0.2527 -0.0617
18428TIP3    H176775   2.403   0.801   0.568 -1.4576  0.5210 -0.6564
18428TIP3    H276776   2.376   0.872   0.699  3.3505 -0.2179  0.9405
18429TIP3   OH276777   3.735   3.599   5.923  0.5961 -0.5182  0.1013
18429TIP3    H176778   3.829   3.593   5.936  0.7773  2.2903  0.6723
18429TIP3    H276779   3.707   3.669   5.982 -1.4658  0.3787 -1.7965
18430TIP3   OH276780   6.393   1.389   3.210 -1.0084  0.1249 -0.1730
18430TIP3    H176781   6.451   1.370   3.137 -2.3968 -0.0666 -1.2715
18430TIP3    H276782   6.305   1.388   3.172 -1.7080  0.9264  1.3189
18431TIP3   OH276783   2.084   1.621  13.372  0.3046  0.1755  0.0020
18431TIP3    H176784   2.079   1.701  13.425 -3.2230 -0.7716  1.3638
18431TIP3    H276785   2.039   1.644  13.291  0.8887  0.0556 -0.3604
18432TIP3   OH276786   6.773   1.827  17.233  0.5528 -0.1262  0.3965
18432TIP3    H176787   6.747   1.870  17.314  0.9516 -0.4073  0.6784
18432TIP3    H276788   6.721   1.870  17.165 -1.6895 -1.5885  1.0748
18433TIP3   OH276789   2.899   6.161   5.754  0.2210  0.5855 -0.5194
18433TIP3    H176790   2.921   6.171   5.847  0.3314  0.7365 -0.5637
18433TIP3    H276791   2.939   6.077   5.729  1.6370  1.3419 -0.8721
18434TIP3   OH276792   1.870   3.051   2.592  0.1691 -0.0814 -0.1522
18434TIP3    H176793   1.879   3.019   2.681 -2.7635  0.1702  0.3136
18434TIP3    H276794   1.841   3.142   2.602 -0.4176 -0.1194 -1.3710
18435TIP3   OH276795   0.491   4.903  12.213 -0.1212  0.0473 -0.2911
18435TIP3    H176796   0.508   4.812  12.186  1.0710  0.5449 -1.3033
18435TIP3    H276797   0.517   4.906  12.305  0.4816 -0.4822 -0.4369
18436TIP3   OH276798   2.358   0.511  16.307  0.1123  0.6860 -0.0432
18436TIP3    H176799   2.450   0.538  16.298  0.5109 -0.6593 -0.1526
18436TIP3    H276800   2.338   0.527  16.400  0.7490  0.1406  0.2000
18437TIP3   OH276801   4.427   3.915   4.792 -0.4068 -0.3238  0.1203
18437TIP3    H176802   4.403   3.926   4.883 -0.2200 -1.9052  0.3789
18437TIP3    H276803   4.498   3.978   4.779  0.8162 -1.3258  1.5909
18438TIP3   OH276804   3.779   3.956  16.181  0.0835  0.5361  0.1399
18438TIP3    H176805   3.696   3.996  16.206  0.2632  1.9625 -1.3672
18438TIP3    H276806   3.762   3.862  16.182 -1.6448  0.8095 -0.4461
18439TIP3   OH276807   0.185   3.444  14.924 -0.2335  0.2838 -0.1725
18439TIP3    H176808   0.272   3.409  14.942 -0.3619 -0.4429 -0.9003
18439TIP3    H276809   0.194   3.490  14.840 -1.0886 -1.9873 -1.5935
18440TIP3   OH276810   5.367   1.452   5.770 -0.6432 -0.7068 -0.2909
18440TIP3    H176811   5.371   1.543   5.741  1.0873 -1.2711 -2.0319
18440TIP3    H276812   5.432   1.446   5.840  0.9718 -1.0741 -1.7657
18441TIP3   OH276813   1.664   5.492   4.394  0.8293  0.2006  0.6246
18441TIP3    H176814   1.687   5.402   4.419  1.3672 -0.0413 -0.6653
18441TIP3    H276815   1.628   5.530   4.474  0.8379 -1.0778  1.2705
18442TIP3   OH276816   4.043   5.371   2.444 -0.1864  1.0560  0.2042
18442TIP3    H176817   3.984   5.446   2.439  2.2942  3.2506  1.5677
18442TIP3    H276818   4.082   5.376   2.531  1.2756 -0.8917 -0.2600
18443TIP3   OH276819   0.993   1.247   0.341  0.1671 -0.2322 -0.0885
18443TIP3    H176820   0.955   1.163   0.316  1.1451 -1.1954  1.4366
18443TIP3    H276821   0.935   1.280   0.409  0.1151  0.0230 -0.2587
18444TIP3   OH276822   0.227   2.944  13.131 -0.1179  0.3556  0.1209
18444TIP3    H176823   0.322   2.952  13.122 -0.0746  0.2647  0.4972
18444TIP3    H276824   0.210   2.850  13.134 -0.0423  0.3609  1.8105
18445TIP3   OH276825   4.598   3.575   6.163  0.4457  0.3252  0.4100
18445TIP3    H176826   4.655   3.643   6.201  0.8430  1.5762 -2.2155
18445TIP3    H276827   4.510   3.609   6.174  0.3948 -0.1690  1.7250
18446TIP3   OH276828   5.311   5.675  12.774  0.2162  0.3550  0.0554
18446TIP3    H176829   5.270   5.625  12.845 -1.4664  1.3178 -0.1742
18446TIP3    H276830   5.344   5.754  12.817  0.1627  0.4369 -0.0530
18447TIP3   OH276831   5.829   0.404  12.956  0.0924 -0.5097 -0.7820
18447TIP3    H176832   5.892   0.475  12.956  3.9476 -3.5671 -1.7233
18447TIP3    H276833   5.808   0.390  12.864  0.3426 -1.3092 -0.7296
18448TIP3   OH276834   5.079   0.222  11.699 -0.1301 -0.6354  0.1348
18448TIP3    H176835   5.083   0.196  11.791  1.1412 -3.0473 -0.5121
18448TIP3    H276836   5.010   0.167  11.662 -1.6281  1.3221 -0.1466
18449TIP3   OH276837   3.385   5.188   6.140 -0.0976  0.0340  0.0316
18449TIP3    H176838   3.437   5.245   6.196 -1.3537 -0.3553  1.6717
18449TIP3    H276839   3.331   5.248   6.088  0.2545  0.3748  0.0560
18450TIP3   OH276840   1.424   2.505  13.183  0.3065  0.8328  0.0603
18450TIP3    H176841   1.399   2.593  13.152 -1.4533  1.3088  2.5552
18450TIP3    H276842   1.453   2.519  13.273 -3.9329 -1.4961  2.0594
18451TIP3   OH276843   0.865   0.419  12.583  0.2569  0.1067  0.0381
18451TIP3    H176844   0.854   0.450  12.494  0.5392  0.1783  0.0266
18451TIP3    H276845   0.876   0.324  12.575  0.8384  0.1755 -0.0559
18452TIP3   OH276846   3.796   3.452  16.898  0.0993 -0.3427 -0.2408
18452TIP3    H176847   3.708   3.489  16.883  0.2820 -0.3724 -1.5767
18452TIP3    H276848   3.810   3.396  16.822  1.2840 -0.3292 -0.0383
18453TIP3   OH276849   4.778   5.265   0.069 -0.4063  0.8099  0.1302
18453TIP3    H176850   4.860   5.233   0.032 -0.5860  1.4364 -0.8345
18453TIP3    H276851   4.779   5.235   0.160 -0.0660 -0.9614 -0.4266
18454TIP3   OH276852   6.801   1.739   6.248 -0.5612 -0.4901  0.2123
18454TIP3    H176853   6.827   1.649   6.267  0.5883 -0.0323  0.9058
18454TIP3    H276854   6.879   1.791   6.269 -1.2315  0.6669 -0.1167
18455TIP3   OH276855   2.208   6.358   0.073  0.2638 -0.3203  0.3393
18455TIP3    H176856   2.223   6.285   0.133  1.7915  0.3826  0.8657
18455TIP3    H276857   2.183   6.431   0.130  1.6979  0.3435  0.1635
18456TIP3   OH276858   2.055   4.363  13.013  0.2757  0.2867  0.2560
18456TIP3    H176859   2.036   4.448  13.053 -0.0389  0.7351 -0.8178
18456TIP3    H276860   1.987   4.352  12.946  1.5141  0.1727 -1.0437
18457TIP3   OH276861   3.306   3.878   3.322  0.2304  0.8148 -0.3345
18457TIP3    H176862   3.298   3.872   3.227 -1.2906  2.2348 -0.3337
18457TIP3    H276863   3.266   3.962   3.345  1.0595  0.7648  1.5169
18458TIP3   OH276864   5.143   4.488   4.177 -0.1000  0.4368 -0.0297
18458TIP3    H176865   5.148   4.569   4.228  0.2174 -0.4152  1.3312
18458TIP3    H276866   5.103   4.515   4.094 -1.2829  1.7481  0.9115
18459TIP3   OH276867   6.242   0.410  13.515 -0.1359 -0.2175  0.1079
18459TIP3    H176868   6.291   0.405  13.433  0.7804 -1.2512  0.6922
18459TIP3    H276869   6.254   0.500  13.545 -3.3871  1.3605 -2.5635
18460TIP3   OH276870   3.684   3.682  16.023 -0.1071  0.3206  0.3271
18460TIP3    H176871   3.757   3.654  16.079 -0.1035  1.4764  0.9264
18460TIP3    H276872   3.643   3.600  15.995  0.6255 -0.3140  1.0405
18461TIP3   OH276873   3.287   1.234  13.267 -0.0017  0.4482 -0.1969
18461TIP3    H176874   3.367   1.270  13.229  1.6907 -1.7638  0.9902
18461TIP3    H276875   3.288   1.142  13.242 -1.6586  0.1429  0.6870
18462TIP3   OH276876   1.893   1.132  14.482  0.0016 -0.6377 -0.1703
18462TIP3    H176877   1.835   1.056  14.473  0.6029 -1.1248 -0.0035
18462TIP3    H276878   1.936   1.139  14.397 -1.6986  0.9057 -0.9553
18463TIP3   OH276879   0.926   3.349   2.125  0.4238 -0.3957  0.2612
18463TIP3    H176880   1.000   3.298   2.156  0.5483 -1.7929 -2.0796
18463TIP3    H276881   0.950   3.375   2.036 -2.0602 -1.4013 -0.8096
18464TIP3   OH276882   4.795   1.846  15.653  0.1963  0.6165 -0.0786
18464TIP3    H176883   4.703   1.850  15.682 -0.0743 -3.2306  0.0738
18464TIP3    H276884   4.793   1.791  15.575  2.4482 -0.4827  0.5484
18465TIP3   OH276885   2.907   1.594  16.002 -0.1752 -0.5410  0.3464
18465TIP3    H176886   2.953   1.522  15.960  1.8792  1.0027 -0.2021
18465TIP3    H276887   2.906   1.664  15.937  1.0690  1.1296  2.0045
18466TIP3   OH276888   6.161   5.168  11.891 -0.1881 -0.1518  0.2231
18466TIP3    H176889   6.209   5.236  11.938  0.4426 -0.0339 -0.5735
18466TIP3    H276890   6.077   5.210  11.869  0.7338  0.9030 -1.5145
18467TIP3   OH276891   1.794   4.397  16.257 -0.4979 -0.0500  0.0954
18467TIP3    H176892   1.795   4.394  16.161  1.4499 -1.2888  0.1086
18467TIP3    H276893   1.887   4.403  16.282 -0.9223 -0.4869  1.9242
18468TIP3   OH276894   2.058   5.116  10.662  0.0432  0.2854  0.1996
18468TIP3    H176895   2.063   5.021  10.666  2.2868  0.2872 -1.0365
18468TIP3    H276896   1.976   5.138  10.707 -0.1657 -2.1540  1.1445
18469TIP3   OH276897   4.077   3.454   2.753 -0.3164  0.4117  0.1974
18469TIP3    H176898   3.999   3.477   2.804 -0.3351 -1.8733  1.3154
18469TIP3    H276899   4.138   3.417   2.818  0.7234 -0.0901 -1.0334
18470TIP3   OH276900   5.212   6.448   3.653  0.0328  0.1609 -0.2502
18470TIP3    H176901   5.142   6.395   3.690 -2.1150 -0.3161 -4.4869
18470TIP3    H276902   5.291   6.417   3.698 -1.8645 -2.4772  1.5734
18471TIP3   OH276903   3.369   6.339   5.437  0.2504  0.6635 -0.0955
18471TIP3    H176904   3.274   6.329   5.441  0.4086 -0.4639  1.5382
18471TIP3    H276905   3.391   6.392   5.514  0.8615  1.9561 -1.1115
18472TIP3   OH276906   0.401   0.018  13.539 -0.0367  0.2562  0.2481
18472TIP3    H176907   0.397  -0.008  13.631 -0.1401  0.0080  0.1742
18472TIP3    H276908   0.451  -0.052  13.497  2.2536  1.6253  0.5635
18473TIP3   OH276909   1.717   6.682   2.929  0.2642 -0.0138 -0.5529
18473TIP3    H176910   1.650   6.747   2.907 -0.3503  0.5380  2.4264
18473TIP3    H276911   1.800   6.729   2.920 -0.1288  1.0265  0.8456
18474TIP3   OH276912   4.080   0.705   4.592  0.0868 -0.4660 -0.3991
18474TIP3    H176913   4.010   0.703   4.658 -2.0407 -1.5977 -2.5665
18474TIP3    H276914   4.035   0.705   4.508  2.7020  0.8118 -1.9349
18475TIP3   OH276915   0.656   4.281   4.832  0.9239  0.2017  0.0403
18475TIP3    H176916   0.635   4.290   4.739 -0.9741 -1.8610  0.2058
18475TIP3    H276917   0.607   4.351   4.875 -1.4953 -1.2592 -0.1670
18476TIP3   OH276918   5.348   2.396   3.589 -0.0905 -0.1092 -0.3419
18476TIP3    H176919   5.439   2.366   3.594  0.2848  0.6558 -1.9981
18476TIP3    H276920   5.352   2.487   3.619 -0.5089 -0.3613  0.5357
18477TIP3   OH276921   5.291   5.152   1.739 -0.9957 -0.6716 -0.0001
18477TIP3    H176922   5.303   5.062   1.769 -0.2422 -0.1183  1.4407
18477TIP3    H276923   5.211   5.181   1.783  1.3009  0.8895  3.5578
18478TIP3   OH276924   3.598   1.855  12.085 -0.7932 -0.3943 -0.4503
18478TIP3    H176925   3.528   1.832  12.023 -1.2809  0.2203 -0.1455
18478TIP3    H276926   3.606   1.778  12.141  0.2606 -1.3029 -1.7968
18479TIP3   OH276927   2.684   1.883   6.515 -0.5896  0.2298  0.5036
18479TIP3    H176928   2.710   1.975   6.517  1.4512 -0.2669 -0.2806
18479TIP3    H276929   2.731   1.844   6.589 -0.9774 -0.2989  0.4754
18480TIP3   OH276930   6.660   3.202   5.432  0.4667 -0.0518  0.2378
18480TIP3    H176931   6.710   3.283   5.443 -0.2968  0.4065  0.4032
18480TIP3    H276932   6.682   3.149   5.509  0.1377  0.4479  0.6770
18481TIP3   OH276933   5.218   5.069  15.149 -0.3591  0.4136 -0.3789
18481TIP3    H176934   5.205   5.163  15.163 -0.0450  0.0217  3.7942
18481TIP3    H276935   5.139   5.028  15.184  1.7212 -0.9249  3.4724
18482TIP3   OH276936   0.658   2.753   5.504  0.3701  0.1199  0.1236
18482TIP3    H176937   0.608   2.744   5.424 -0.0985  1.6303  0.2217
18482TIP3    H276938   0.628   2.681   5.560  1.2859 -1.4439 -1.3138
18483TIP3   OH276939   1.627   1.155   6.771  0.0782  0.1350 -0.3451
18483TIP3    H176940   1.585   1.105   6.842  0.5592  1.7994  1.2003
18483TIP3    H276941   1.718   1.165   6.800 -0.2884  2.9420  0.0713
18484TIP3   OH276942   3.337   0.202   3.393  0.3958  0.0938 -0.1629
18484TIP3    H176943   3.246   0.179   3.409  1.1079 -0.9384  3.0795
18484TIP3    H276944   3.353   0.177   3.301 -1.8393 -2.2583 -0.0026
18485TIP3   OH276945   2.735   2.270  11.034  0.1357 -0.1801  0.1600
18485TIP3    H176946   2.690   2.224  10.963 -0.2239  0.4515 -0.0244
18485TIP3    H276947   2.828   2.262  11.011 -0.0025  0.5532 -0.7297
18486TIP3   OH276948   5.690   6.676   1.298 -0.2368 -0.0099  0.1121
18486TIP3    H176949   5.727   6.595   1.263 -3.0017 -1.1945 -0.3902
18486TIP3    H276950   5.673   6.657   1.390 -3.4480 -1.1946 -0.5801
18487TIP3   OH276951   6.421   2.595   4.269  1.0333 -0.4442 -1.0613
18487TIP3    H176952   6.418   2.650   4.347  1.4487 -1.4403 -0.3282
18487TIP3    H276953   6.353   2.529   4.282  2.0145 -1.4562 -0.8748
18488TIP3   OH276954   2.829   4.891  14.878  0.5616 -0.0641 -0.2137
18488TIP3    H176955   2.818   4.814  14.934 -2.0464 -0.3586 -0.9848
18488TIP3    H276956   2.788   4.962  14.927 -2.8938 -0.5700 -2.0547
18489TIP3   OH276957   1.640   6.099  12.442  0.2634  0.5378  0.0140
18489TIP3    H176958   1.632   6.080  12.535  0.4046  0.9190  0.1051
18489TIP3    H276959   1.655   6.193  12.438  1.4581  0.3466 -0.3240
18490TIP3   OH276960   5.758   3.468   6.143  0.2820  0.3855  0.0134
18490TIP3    H176961   5.788   3.507   6.061  0.3536 -0.6786 -0.4789
18490TIP3    H276962   5.760   3.540   6.205  2.9173  0.6290 -0.2285
18491TIP3   OH276963   4.132   4.639  15.073 -0.4039  1.1012  0.3287
18491TIP3    H176964   4.109   4.560  15.025 -0.3525  0.2080  1.7005
18491TIP3    H276965   4.228   4.644  15.066 -0.4287  1.1729  0.0435
18492TIP3   OH276966   2.690   5.894   4.940 -0.0620 -0.3064 -0.2935
18492TIP3    H176967   2.615   5.835   4.931  0.8762 -1.5068 -0.5081
18492TIP3    H276968   2.657   5.980   4.912 -1.5195 -0.6664  0.2216
18493TIP3   OH276969   1.113   4.940  11.378  0.5522  0.1381  0.2798
18493TIP3    H176970   1.063   5.016  11.350  1.0009  0.0907 -0.7129
18493TIP3    H276971   1.061   4.901  11.449  0.0994  1.1021  0.4866
18494TIP3   OH276972   5.033   3.482   1.170 -0.3298 -0.0832 -0.1480
18494TIP3    H176973   4.995   3.398   1.141 -1.0809  0.7444 -1.6844
18494TIP3    H276974   4.958   3.534   1.198  0.0371  0.3820 -0.0100
18495TIP3   OH276975   0.041   5.437   1.696  0.3581  0.1398 -0.0103
18495TIP3    H176976   0.000   5.367   1.749  1.3850  0.3693  1.1183
18495TIP3    H276977  -0.025   5.506   1.694 -0.3194 -0.4954 -0.3849
18496TIP3   OH276978   4.077   0.477   3.175 -0.3560  0.9753  0.1380
18496TIP3    H176979   4.128   0.411   3.128  1.1571  2.5012 -0.4910
18496TIP3    H276980   4.007   0.428   3.217  0.5415 -0.9758 -0.5134
18497TIP3   OH276981   0.774   2.281  11.832  0.1599  0.0327 -0.1506
18497TIP3    H176982   0.845   2.268  11.895 -0.1554 -0.1822  0.1685
18497TIP3    H276983   0.726   2.199  11.833  0.1188  0.0472 -0.6376
18498TIP3   OH276984   5.319   4.147  13.884  0.0902  0.2579 -0.0494
18498TIP3    H176985   5.236   4.152  13.930  1.1582  0.1763  1.9995
18498TIP3    H276986   5.341   4.237  13.862 -0.8361  0.2164 -1.2193
18499TIP3   OH276987   6.194   1.231  11.775  0.3820 -0.0608  0.6395
18499TIP3    H176988   6.260   1.291  11.741  0.0946  0.4834  1.0295
18499TIP3    H276989   6.139   1.285  11.831 -0.0912 -0.6168  0.7204
18500TIP3   OH276990   4.251   2.095  11.502 -0.4838 -0.6624  0.1078
18500TIP3    H176991   4.281   2.118  11.414 -0.1228 -1.7370 -0.0627
18500TIP3    H276992   4.178   2.035  11.486 -1.6386  0.5795  0.5356
18501TIP3   OH276993   1.478   3.094  16.492  0.3077 -0.7408  0.0186
18501TIP3    H176994   1.399   3.134  16.528 -1.2248 -0.6053 -3.1458
18501TIP3    H276995   1.449   3.009  16.458  1.3673 -0.5412 -1.5096
18502TIP3   OH276996   5.494   6.002   5.589  0.1868 -0.0243 -0.2240
18502TIP3    H176997   5.487   5.918   5.545 -0.6225 -0.2592  0.3352
18502TIP3    H276998   5.587   6.013   5.605  0.4170 -0.2985 -1.2677
18503TIP3   OH276999   5.102   6.259  10.844 -0.0305  0.1973 -0.6415
18503TIP3    H177000   5.029   6.260  10.905 -0.7602 -1.6705 -1.3759
18503TIP3    H277001   5.124   6.351  10.829 -0.6943  0.7246  1.3546
18504TIP3   OH277002   6.294   1.226  15.493  0.4377  0.0516  0.1121
18504TIP3    H177003   6.314   1.242  15.585  1.2644  0.6519 -0.1631
18504TIP3    H277004   6.346   1.291  15.445  0.7186 -0.8430 -0.8261
18505TIP3   OH277005   2.440   4.170  12.724 -0.2869 -0.0291 -0.1938
18505TIP3    H177006   2.351   4.172  12.759  0.5733  0.0621  2.1665
18505TIP3    H277007   2.485   4.240  12.771  0.8574  0.5325 -2.0004
18506TIP3   OH277008   4.188   4.120  14.593  0.5844 -0.3774 -0.6189
18506TIP3    H177009   4.177   4.137  14.500  0.0891  0.0188 -0.4893
18506TIP3    H277010   4.253   4.183  14.622  0.6703 -0.4391 -0.6780
18507TIP3   OH277011   2.991   2.897   4.850 -0.8786 -0.5445  0.1802
18507TIP3    H177012   2.954   2.866   4.768 -1.6678 -0.8814  0.6440
18507TIP3    H277013   2.923   2.954   4.887  0.1369  0.9207 -0.1687
18508TIP3   OH277014   3.503   0.166  13.549  0.7326 -0.7073  0.0759
18508TIP3    H177015   3.458   0.217  13.616 -1.6729 -0.6742 -1.4389
18508TIP3    H277016   3.547   0.095  13.597 -1.3625 -1.0138  1.6539
18509TIP3   OH277017   4.011   4.730  15.529 -0.9606 -0.0886  0.2416
18509TIP3    H177018   3.957   4.807  15.514 -0.5172  0.1650 -0.0724
18509TIP3    H277019   3.982   4.667  15.463 -2.9197 -1.0672  1.9268
18510TIP3   OH277020   2.995   3.661   4.224 -0.3238 -0.1481 -0.3844
18510TIP3    H177021   3.066   3.721   4.244 -0.7203 -0.7434  3.6143
18510TIP3    H277022   2.915   3.711   4.241 -0.7042 -0.8728  0.0737
18511TIP3   OH277023   4.034   2.629   0.257  0.3778 -0.1804  0.5140
18511TIP3    H177024   4.125   2.602   0.267  1.3731  2.2106 -1.0282
18511TIP3    H277025   4.030   2.667   0.169 -2.0278  0.0784  0.6734
18512TIP3   OH277026   1.025   5.023  13.182  0.0733 -0.2591 -0.3828
18512TIP3    H177027   0.941   5.018  13.227  0.3589  0.7818  0.2897
18512TIP3    H277028   1.015   4.965  13.106 -1.6634  0.7313 -0.9714
18513TIP3   OH277029   1.307   4.628   2.244 -0.2542  0.2092  0.6029
18513TIP3    H177030   1.365   4.702   2.262  0.1293 -0.0212  0.3101
18513TIP3    H277031   1.238   4.665   2.188 -0.0410  0.3319  0.4225
18514TIP3   OH277032   0.226   1.720  13.158  0.6185 -0.1918  0.2505
18514TIP3    H177033   0.210   1.717  13.064 -0.6688 -1.4508  0.4671
18514TIP3    H277034   0.158   1.663  13.196  0.4868  1.0527  2.0263
18515TIP3   OH277035   6.265   1.968   2.460 -0.2808 -0.0484  0.3331
18515TIP3    H177036   6.353   1.990   2.491 -0.6784 -0.4551  1.8411
18515TIP3    H277037   6.210   1.977   2.538 -1.6794  0.7204 -0.7073
18516TIP3   OH277038   5.831   5.016   1.088 -0.3787 -0.2052  0.7527
18516TIP3    H177039   5.911   5.068   1.099 -1.3008  0.9581  2.5357
18516TIP3    H277040   5.858   4.926   1.101  0.7961  0.0769  0.3587
18517TIP3   OH277041   4.141   3.495   2.037  0.3980 -0.2368 -0.5978
18517TIP3    H177042   4.098   3.580   2.026 -0.2564 -0.5326 -0.3146
18517TIP3    H277043   4.230   3.518   2.065  0.0448  0.3484  0.0916
18518TIP3   OH277044   6.567   4.450   0.206 -0.0445  0.2769  0.3270
18518TIP3    H177045   6.625   4.424   0.135 -0.1801 -0.8664  0.6208
18518TIP3    H277046   6.478   4.433   0.173 -0.2338  1.8013 -0.0352
18519TIP3   OH277047   5.828   5.785  12.854  0.2117  0.1063  0.0555
18519TIP3    H177048   5.800   5.871  12.884 -1.1244 -1.1709  2.9063
18519TIP3    H277049   5.923   5.793  12.845 -0.0606  2.3178 -1.6234
18520TIP3   OH277050   1.668   2.139  14.644 -0.4700  0.2756 -0.2685
18520TIP3    H177051   1.599   2.179  14.591  0.0398  0.7584 -0.5713
18520TIP3    H277052   1.624   2.113  14.725 -1.0244  0.4983 -0.4928
18521TIP3   OH277053   1.614   3.001   5.464  0.3085 -0.7589 -0.2776
18521TIP3    H177054   1.656   3.085   5.483 -0.0290 -1.0967  2.4002
18521TIP3    H277055   1.532   3.024   5.421  0.8432  0.2088 -0.7957
18522TIP3   OH277056   2.070   4.986  11.774 -0.6073 -0.3268 -0.5113
18522TIP3    H177057   2.121   4.909  11.800  0.2694  0.3319 -0.2145
18522TIP3    H277058   2.129   5.060  11.791 -1.2340  0.3678 -1.3000
18523TIP3   OH277059   4.000   5.368   1.549  0.0499  0.1182  0.6713
18523TIP3    H177060   3.910   5.343   1.527  0.1895 -0.1487  0.3786
18523TIP3    H277061   4.035   5.404   1.467 -0.1263  1.2199  1.0721
18524TIP3   OH277062   1.988   6.689   1.283  0.0299  0.1610 -0.3064
18524TIP3    H177063   2.079   6.677   1.310 -0.2929  1.1412  1.3551
18524TIP3    H277064   1.969   6.781   1.301 -1.4034 -0.1067 -0.2975
18525TIP3   OH277065   6.667   1.284  11.907  0.1024 -0.2200 -0.2816
18525TIP3    H177066   6.751   1.263  11.866 -0.1864 -0.8545 -0.5446
18525TIP3    H277067   6.691   1.334  11.986  0.6988  0.0889 -0.6513
18526TIP3   OH277068   4.699   5.107  13.594  0.7797 -0.3309 -0.4950
18526TIP3    H177069   4.644   5.031  13.578  1.4442 -1.0247  0.4129
18526TIP3    H277070   4.642   5.169  13.640  0.8458 -1.2458  0.8919
18527TIP3   OH277071   3.579   4.982  13.965 -0.9175 -0.6941 -0.3877
18527TIP3    H177072   3.661   4.944  13.994 -0.8142 -2.2386 -2.4772
18527TIP3    H277073   3.516   4.959  14.033  0.3997  0.9878  1.5161
18528TIP3   OH277074   5.235   3.813   6.003 -0.4696  0.1411 -0.0904
18528TIP3    H177075   5.265   3.730   6.040 -0.3621 -0.0372 -0.5675
18528TIP3    H277076   5.275   3.880   6.058 -1.2793 -0.1237  0.8624
18529TIP3   OH277077   1.527   6.516  15.951 -0.0763  0.1208 -0.2957
18529TIP3    H177078   1.606   6.541  15.903 -0.1327 -0.7166 -0.8526
18529TIP3    H277079   1.479   6.459  15.890 -1.3367  0.9772 -0.1422
18530TIP3   OH277080   6.295   3.686   2.072 -0.0840 -0.2098 -0.0276
18530TIP3    H177081   6.242   3.765   2.060 -0.7983 -0.9007 -1.7756
18530TIP3    H277082   6.232   3.615   2.069  0.7803 -0.9676 -0.5671
18531TIP3   OH277083   2.096   6.253   1.900 -0.6217  0.1086  0.3709
18531TIP3    H177084   2.072   6.346   1.905 -0.2485  0.2528 -0.3283
18531TIP3    H277085   2.183   6.250   1.940 -0.5271  0.1020  0.1632
18532TIP3   OH277086   3.835   3.698  17.027  0.2692  0.3339  0.5056
18532TIP3    H177087   3.870   3.620  16.984  1.8306  1.4916 -0.4243
18532TIP3    H277088   3.836   3.677  17.120 -0.2935 -1.1069  0.2108
18533TIP3   OH277089   0.054   1.502   4.300 -0.0576  0.0320  0.1077
18533TIP3    H177090  -0.017   1.439   4.290 -0.8294  0.9231 -0.2913
18533TIP3    H277091   0.051   1.528   4.392 -0.5905  0.4414 -0.0208
18534TIP3   OH277092   0.591   4.656  15.577 -0.0496 -0.2010  0.4094
18534TIP3    H177093   0.642   4.610  15.510  0.8274  1.8173 -0.4176
18534TIP3    H277094   0.656   4.687  15.640 -0.4904  0.5863  0.4953
18535TIP3   OH277095   5.615   2.534   4.333  0.6392 -0.2963  0.0594
18535TIP3    H177096   5.650   2.621   4.350  1.6340 -0.3289 -1.6394
18535TIP3    H277097   5.541   2.526   4.394  0.7724  1.5600  0.5260
18536TIP3   OH277098   6.225   3.938  14.137 -0.4288 -0.1201  0.6015
18536TIP3    H177099   6.303   3.961  14.187  0.4395  1.2859 -1.2915
18536TIP3    H277100   6.258   3.905  14.054 -1.8202  1.5315 -0.6641
18537TIP3   OH277101   5.321   0.106   2.695 -0.0349  0.3238  0.3203
18537TIP3    H177102   5.288   0.196   2.696 -1.2138 -0.0756 -0.5197
18537TIP3    H277103   5.242   0.052   2.690  0.6058 -0.8132  1.9098
18538TIP3   OH277104   5.657   3.102   0.272 -0.3111 -0.0408  0.1016
18538TIP3    H177105   5.741   3.120   0.315 -0.6927 -0.9079  1.2479
18538TIP3    H277106   5.613   3.187   0.268  0.2048  0.2406  0.4043
18539TIP3   OH277107   0.799   6.264  15.995  0.6057 -0.4376  0.1758
18539TIP3    H177108   0.764   6.224  16.074  4.2457 -2.6627  0.9107
18539TIP3    H277109   0.776   6.204  15.925  0.3112 -0.2834  0.1419
18540TIP3   OH277110   6.442   3.899   3.568  0.6089 -0.3146  0.4022
18540TIP3    H177111   6.458   3.936   3.481 -0.9336  0.5382  0.4360
18540TIP3    H277112   6.377   3.830   3.554  0.6664 -0.4595  0.8192
18541TIP3   OH277113   3.024   2.254   0.557 -0.7182  0.3158 -0.3171
18541TIP3    H177114   2.984   2.328   0.604 -1.9701 -0.5670  0.0649
18541TIP3    H277115   3.057   2.293   0.476  0.6575  1.6998  0.8496
18542TIP3   OH277116   2.200   2.319   2.091 -0.2172 -0.5293  0.1991
18542TIP3    H177117   2.254   2.388   2.052 -0.0061 -1.6548 -1.6501
18542TIP3    H277118   2.223   2.320   2.184  1.0832  0.7183 -0.0963
18543TIP3   OH277119   3.193   2.612   1.991 -0.7246  0.1761  0.1713
18543TIP3    H177120   3.235   2.548   2.048 -2.1828  0.0660  1.1828
18543TIP3    H277121   3.248   2.690   1.999 -0.8664  0.1605  1.7518
18544TIP3   OH277122   4.809   0.278   1.971  0.2948 -0.1856  0.1381
18544TIP3    H177123   4.741   0.344   1.984  0.4156 -0.2518  1.2007
18544TIP3    H277124   4.761   0.195   1.962  0.1175  0.0558 -1.6180
18545TIP3   OH277125   3.276   4.312   0.169 -0.3587  0.4295  0.5578
18545TIP3    H177126   3.223   4.310   0.089  2.0550  1.7503 -1.2506
18545TIP3    H277127   3.316   4.225   0.173  0.0111  0.5554 -0.1065
18546TIP3   OH277128   1.306   1.264   6.017 -0.6160  0.1468  0.1441
18546TIP3    H177129   1.329   1.213   5.939 -0.2284  0.6052 -0.0513
18546TIP3    H277130   1.214   1.243   6.033 -0.7216  0.0906 -0.4826
18547TIP3   OH277131   6.717   4.912   5.111 -0.5028  0.7034  0.2910
18547TIP3    H177132   6.734   4.880   5.200 -0.6850  0.4941  0.2514
18547TIP3    H277133   6.801   4.948   5.082 -0.5040  1.0006  0.6391
18548TIP3   OH277134   4.023   5.000  11.006 -0.1761  0.0204  0.2213
18548TIP3    H177135   4.054   4.977  10.919  1.0165  0.4858  0.4993
18548TIP3    H277136   3.934   4.965  11.010  0.4354 -1.7454 -0.4711
18549TIP3   OH277137   0.979   5.326   3.962  0.1578 -0.3313  0.5128
18549TIP3    H177138   0.987   5.231   3.967  0.2902 -0.3172  0.5785
18549TIP3    H277139   0.936   5.351   4.044 -0.8037 -0.4315  0.0502
18550TIP3   OH277140   6.636   5.444  15.289 -0.3676  0.0727 -0.0705
18550TIP3    H177141   6.688   5.381  15.339  0.7683  0.6086 -0.5298
18550TIP3    H277142   6.547   5.410  15.293 -0.0925 -0.5468  1.2656
18551TIP3   OH277143   5.395   6.733  15.195 -0.2135 -0.0638 -0.3561
18551TIP3    H177144   5.304   6.704  15.191 -0.8572  1.5213  1.3738
18551TIP3    H277145   5.436   6.695  15.117 -2.5510 -0.0451 -1.6694
18552TIP3   OH277146   0.026   5.227  15.403  0.2185  0.2596  0.1964
18552TIP3    H177147   0.093   5.246  15.469  0.9502  0.9543 -0.7174
18552TIP3    H277148   0.076   5.203  15.325 -0.6028  0.9040 -0.5426
18553TIP3   OH277149   4.197   4.510  11.980  0.0161  0.5329 -0.3513
18553TIP3    H177150   4.124   4.448  11.978  0.5160 -0.0488 -0.5727
18553TIP3    H277151   4.262   4.469  12.037 -0.9692  2.3501  2.2748
18554TIP3   OH277152   2.612   3.499  12.226  0.1439  0.1775  0.4197
18554TIP3    H177153   2.635   3.563  12.158  0.3661 -1.2216 -0.8672
18554TIP3    H277154   2.554   3.548  12.285 -1.8699  0.8753 -1.9688
18555TIP3   OH277155   3.491   4.803   1.971  0.2663 -0.1589 -0.4645
18555TIP3    H177156   3.497   4.888   1.927 -2.2781  1.1724  1.5167
18555TIP3    H277157   3.435   4.751   1.913  1.8811 -0.5793 -1.7146
18556TIP3   OH277158   5.246   0.687  11.321  0.2316 -0.4802  0.5006
18556TIP3    H177159   5.298   0.663  11.245 -0.1146 -0.5630  0.2845
18556TIP3    H277160   5.278   0.630  11.391  0.7596 -0.1913  0.4967
18557TIP3   OH277161   4.261   0.162  16.234  0.1364 -0.3394 -0.3315
18557TIP3    H177162   4.209   0.121  16.165  1.6200  1.1224 -2.4619
18557TIP3    H277163   4.350   0.130  16.218  0.3948 -0.5583  1.4295
18558TIP3   OH277164   2.785   4.650  13.284 -0.0551  0.0142 -0.3767
18558TIP3    H177165   2.834   4.589  13.229  0.0155 -0.7444  0.5029
18558TIP3    H277166   2.768   4.602  13.365  0.2566  1.2557  0.4665
18559TIP3   OH277167   3.594   1.542   0.432 -0.5191  0.1496  0.4140
18559TIP3    H177168   3.609   1.485   0.507 -0.9037 -1.4903 -0.7006
18559TIP3    H277169   3.501   1.535   0.414 -0.3730  0.2572 -0.4252
18560TIP3   OH277170   0.939   1.655   5.000 -0.1150 -0.3105  0.1977
18560TIP3    H177171   0.942   1.568   5.038 -0.2794 -0.0916  0.7179
18560TIP3    H277172   0.885   1.645   4.922  1.0572 -0.9769 -0.5527
18561TIP3   OH277173   0.588   0.922  11.601  0.1623 -0.2580  0.3633
18561TIP3    H177174   0.671   0.896  11.559  0.0021  1.0194 -0.8539
18561TIP3    H277175   0.522   0.866  11.560  0.2565 -0.3582  0.3478
18562TIP3   OH277176   3.938   5.116  15.151 -0.0403 -0.2109 -0.2815
18562TIP3    H177177   4.017   5.130  15.099  0.7937  0.3837  1.0748
18562TIP3    H277178   3.965   5.050  15.216 -1.0712 -1.0031 -0.6434
18563TIP3   OH277179   1.692   1.136   1.833  0.0345 -0.6263 -0.0870
18563TIP3    H177180   1.646   1.053   1.824  0.7181 -0.8439 -1.8034
18563TIP3    H277181   1.785   1.113   1.834  0.2247  0.1006 -0.3386
18564TIP3   OH277182   2.137   0.003  15.608 -0.0534  0.2597 -0.0094
18564TIP3    H177183   2.190   0.058  15.666  0.2772 -0.5088  0.4251
18564TIP3    H277184   2.198  -0.030  15.542 -0.1992  0.1880 -0.1107
18565TIP3   OH277185   0.551   2.925  13.824  0.6290  0.0049 -0.3589
18565TIP3    H177186   0.479   2.987  13.813 -1.6170 -2.3349  0.0559
18565TIP3    H277187   0.575   2.931  13.917 -0.5249 -0.6522  0.0006
18566TIP3   OH277188   5.691   4.219  12.348  0.1749  0.9109  0.3881
18566TIP3    H177189   5.674   4.167  12.427  1.4747  0.2669  0.2640
18566TIP3    H277190   5.617   4.201  12.291  0.9563 -1.4912  0.0132
18567TIP3   OH277191   2.417   4.923   3.766  0.3948  0.0258  0.3358
18567TIP3    H177192   2.462   4.899   3.847  0.9494 -1.9370 -0.4963
18567TIP3    H277193   2.378   5.008   3.785  0.8958 -0.1592  2.5001
18568TIP3   OH277194   6.291   3.038  12.442  0.3333 -0.2315  0.4103
18568TIP3    H177195   6.211   3.089  12.428  1.7345  1.7213 -1.0940
18568TIP3    H277196   6.345   3.092  12.500  0.8518 -1.2064  0.8667
18569TIP3   OH277197   3.291   2.646  16.530  0.1931 -0.1065 -0.3286
18569TIP3    H177198   3.254   2.731  16.505  0.9768  0.5841  0.7697
18569TIP3    H277199   3.383   2.652  16.504  0.7930  0.2550  1.6863
18570TIP3   OH277200   4.491   3.938  15.965 -0.0560 -0.0172 -0.1084
18570TIP3    H177201   4.445   3.858  15.989 -1.3093  1.0654  1.3394
18570TIP3    H277202   4.487   3.941  15.870  1.4191 -2.4247 -0.3380
18571TIP3   OH277203   6.269   5.646   2.107  0.3567  0.0538 -0.1021
18571TIP3    H177204   6.175   5.661   2.117  0.5065  1.1917 -0.3217
18571TIP3    H277205   6.278   5.550   2.107 -1.0804 -0.1662 -2.3744
18572TIP3   OH277206   3.337   5.849  15.980 -0.0913  0.2025  0.4300
18572TIP3    H177207   3.410   5.799  16.016 -0.3031 -1.4029 -1.1928
18572TIP3    H277208   3.286   5.876  16.056  2.6484  2.2149  1.7027
18573TIP3   OH277209   1.886   1.360   1.502  0.0475 -0.0433 -0.5215
18573TIP3    H177210   1.871   1.446   1.462  0.4560 -0.0569 -0.7076
18573TIP3    H277211   1.931   1.310   1.434  1.2474  0.1035  0.1269
18574TIP3   OH277212   6.413   2.636  12.360  0.3334  0.0013 -0.3796
18574TIP3    H177213   6.370   2.602  12.438  2.3806 -2.5475 -0.2324
18574TIP3    H277214   6.404   2.566  12.295  0.7062  1.0936 -1.6563
18575TIP3   OH277215   3.159   3.909   1.926  0.0052 -0.4231 -0.6230
18575TIP3    H177216   3.132   3.986   1.975 -0.3846 -0.6629 -0.4554
18575TIP3    H277217   3.200   3.944   1.847 -0.9764 -0.0571 -0.9739
18576TIP3   OH277218   6.679   6.249  12.070  0.0827 -0.1294 -0.3848
18576TIP3    H177219   6.718   6.172  12.030 -0.8414 -0.9784  0.2783
18576TIP3    H277220   6.744   6.318  12.059  1.9836 -1.5821  1.0884
18577TIP3   OH277221   4.357   3.861   3.885 -0.1895  0.2827 -0.5777
18577TIP3    H177222   4.353   3.807   3.806 -2.1223 -0.4438 -0.0512
18577TIP3    H277223   4.449   3.887   3.892  0.4556 -1.4595 -1.8551
18578TIP3   OH277224   2.354   4.297  13.231  1.0142  0.3894  0.2775
18578TIP3    H177225   2.389   4.385  13.220 -0.3867  0.9145 -0.1981
18578TIP3    H277226   2.301   4.302  13.311 -1.5203  0.8684 -1.3057
18579TIP3   OH277227   4.459   1.269   0.821  0.2255  0.1705 -0.1070
18579TIP3    H177228   4.436   1.264   0.729 -0.6990 -0.7767  0.1608
18579TIP3    H277229   4.426   1.354   0.850 -2.0259 -0.6924  0.0026
18580TIP3   OH277230   3.609   2.695  17.120  0.3603 -0.3017  0.6587
18580TIP3    H177231   3.565   2.636  17.058  0.4992 -0.0815  0.3484
18580TIP3    H277232   3.647   2.763  17.065 -1.6302  1.2943  1.1312
18581TIP3   OH277233   3.806   6.349   0.307  0.3896  0.1072 -0.1423
18581TIP3    H177234   3.757   6.362   0.226  1.1080  1.8110 -0.3520
18581TIP3    H277235   3.889   6.394   0.292 -0.8783  4.0039  2.8286
18582TIP3   OH277236   5.858   1.502  13.798  0.5302  0.6749 -0.8419
18582TIP3    H177237   5.847   1.554  13.877  2.0668 -0.2136 -0.0070
18582TIP3    H277238   5.945   1.462  13.806  0.1883 -0.4972 -2.3469
18583TIP3   OH277239   4.852   2.601  14.992  0.6498  0.9856  0.1774
18583TIP3    H177240   4.772   2.548  14.994  2.0266 -1.2141  0.5528
18583TIP3    H277241   4.891   2.581  14.907  0.3323  2.8929 -0.4713
18584TIP3   OH277242   0.086   3.301  14.251 -0.6893 -0.1167 -0.3487
18584TIP3    H177243   0.106   3.389  14.284 -2.1657  0.2507 -0.3543
18584TIP3    H277244   0.144   3.243  14.301 -0.0730  0.8036  0.0386
18585TIP3   OH277245   3.495   6.365  15.951 -0.2175  0.0782  0.0141
18585TIP3    H177246   3.569   6.389  15.896 -1.0156 -1.9770 -2.1304
18585TIP3    H277247   3.424   6.423  15.923 -0.2288  0.0067 -0.1071
18586TIP3   OH277248   6.168   4.391  10.724 -0.9016 -0.1328 -0.0203
18586TIP3    H177249   6.135   4.302  10.713  1.2178 -1.0352  0.3082
18586TIP3    H277250   6.205   4.393  10.813 -0.6182  0.9681 -0.1375
18587TIP3   OH277251   0.030   0.021  14.772  0.1474 -0.4878  0.4295
18587TIP3    H177252   0.123   0.033  14.753  0.1387 -1.2061 -0.1550
18587TIP3    H277253   0.007  -0.059  14.724 -1.0248  0.2807 -0.3285
18588TIP3   OH277254   2.468   0.755   5.018  0.0957  0.2966 -0.5825
18588TIP3    H177255   2.528   0.779   5.089  0.5017 -0.1298 -0.7741
18588TIP3    H277256   2.479   0.660   5.010 -0.6946  0.1977 -0.5433
18589TIP3   OH277257   6.607   4.473   5.403  0.2343  0.0810 -0.0058
18589TIP3    H177258   6.680   4.420   5.436 -0.1325  0.2601  1.1556
18589TIP3    H277259   6.619   4.558   5.446  0.6962  0.9063 -1.6839
18590TIP3   OH277260   3.170   5.135   2.550 -0.1900 -0.1906  0.1292
18590TIP3    H177261   3.197   5.179   2.470  2.0944  2.1559  1.9890
18590TIP3    H277262   3.196   5.044   2.538  0.9601  0.3154 -1.4411
18591TIP3   OH277263   0.882   5.712  12.303 -0.4371  0.2649  0.4811
18591TIP3    H177264   0.878   5.638  12.242 -1.2963 -1.5681  2.6062
18591TIP3    H277265   0.972   5.743  12.298 -0.2629 -0.3938 -1.0254
18592TIP3   OH277266   2.794   5.147   0.796 -0.4012 -0.6962 -0.4792
18592TIP3    H177267   2.818   5.190   0.714  1.2582  0.0496  0.3604
18592TIP3    H277268   2.700   5.130   0.788 -1.2082  3.1616 -0.8280
18593TIP3   OH277269   4.302   2.118  13.419  0.3307  0.3070 -0.6528
18593TIP3    H177270   4.274   2.209  13.433 -0.8050 -0.0031 -0.8077
18593TIP3    H277271   4.276   2.099  13.329 -1.2069 -0.7618 -0.0283
18594TIP3   OH277272   6.539   2.780  15.822 -0.3774 -0.0729  0.3082
18594TIP3    H177273   6.533   2.692  15.783 -0.2411 -0.4860  1.1873
18594TIP3    H277274   6.628   2.785  15.856  0.1148  0.9907 -1.0280
18595TIP3   OH277275   5.739   3.108   1.092  0.3495  0.1141  0.4532
18595TIP3    H177276   5.800   3.040   1.121 -0.5498 -1.0749 -0.3921
18595TIP3    H277277   5.657   3.088   1.137 -0.2269 -0.0197 -0.6345
18596TIP3   OH277278   5.054   5.057   4.551  0.4138 -0.3532 -0.2316
18596TIP3    H177279   5.094   5.055   4.638 -0.2655 -1.5097  0.0766
18596TIP3    H277280   4.979   5.116   4.560  0.9702  0.3815 -0.3326
18597TIP3   OH277281   5.128   2.437   1.878  0.3674  0.8105 -0.2816
18597TIP3    H177282   5.112   2.415   1.786 -0.2884  1.2706 -0.2850
18597TIP3    H277283   5.077   2.516   1.893  0.2282  0.5697  0.5659
18598TIP3   OH277284   2.049   0.246  15.273 -0.2669  0.0772 -0.1621
18598TIP3    H177285   2.066   0.244  15.179  0.3651 -0.6848 -0.0469
18598TIP3    H277286   2.136   0.250  15.313 -0.4655 -0.9772  0.4090
18599TIP3   OH277287   5.160   2.408   3.127  0.4311 -0.2430 -0.2035
18599TIP3    H177288   5.227   2.474   3.107  0.1058 -0.5161 -2.4429
18599TIP3    H277289   5.211   2.332   3.155  1.0424 -0.1613 -1.0276
18600TIP3   OH277290   2.403   0.711   2.931  0.5791 -0.2597  0.0132
18600TIP3    H177291   2.409   0.679   2.841  0.4715  0.8671 -0.4149
18600TIP3    H277292   2.339   0.782   2.927  0.4458 -0.3074  1.0153
18601TIP3   OH277293   2.112   1.070  12.952  0.0124  0.0723  0.5476
18601TIP3    H177294   2.179   1.100  12.889 -0.5309  0.4902  0.1570
18601TIP3    H277295   2.154   1.078  13.037  1.4677 -2.2992  0.1733
18602TIP3   OH277296   3.318   4.575   0.255  0.2340  0.1926  0.1578
18602TIP3    H177297   3.302   4.487   0.221  1.2289  0.4975 -1.1699
18602TIP3    H277298   3.390   4.565   0.316 -1.9536 -0.4622  2.8400
18603TIP3   OH277299   3.112   2.463   4.117 -0.0894 -0.0324 -0.2221
18603TIP3    H177300   3.090   2.556   4.128 -3.1486 -0.4979 -1.4939
18603TIP3    H277301   3.177   2.462   4.046  1.0940  1.1886  0.7965
18604TIP3   OH277302   1.784   3.593   3.936 -0.2553 -0.2915  0.3545
18604TIP3    H177303   1.794   3.672   3.883 -0.2713  0.5947  1.6425
18604TIP3    H277304   1.781   3.624   4.026 -1.7100 -1.6174  0.8208
18605TIP3   OH277305   0.471   4.084   4.994  0.6820 -0.2028  0.3433
18605TIP3    H177306   0.449   4.175   5.016  1.4548 -0.2791  1.5352
18605TIP3    H277307   0.560   4.088   4.959  0.5665 -0.4589  0.0139
18606TIP3   OH277308   4.638   1.546   5.752 -0.1142 -0.9587  0.2269
18606TIP3    H177309   4.699   1.508   5.688 -1.4879 -1.9138 -0.5741
18606TIP3    H277310   4.565   1.577   5.699 -0.6898 -0.5499  1.2346
18607TIP3   OH277311   4.201   5.675   1.315 -0.1115  0.2290  0.3612
18607TIP3    H177312   4.181   5.648   1.226  1.1050 -3.3128  1.0167
18607TIP3    H277313   4.276   5.734   1.306 -2.4420  3.2720 -1.0916
18608TIP3   OH277314   4.934   6.081  15.477  0.3413 -0.1043 -0.0716
18608TIP3    H177315   5.025   6.059  15.498  0.3808  0.8052  0.7695
18608TIP3    H277316   4.924   6.172  15.504 -0.9332 -0.3063  0.2206
18609TIP3   OH277317   0.178   4.170   3.097  0.2321 -0.2949 -0.7203
18609TIP3    H177318   0.239   4.144   3.166  1.0153  0.4723 -1.1018
18609TIP3    H277319   0.177   4.266   3.101  0.1525 -0.2488 -1.6549
18610TIP3   OH277320   1.377   1.683  11.472  0.1273 -0.2297  0.3105
18610TIP3    H177321   1.456   1.731  11.447 -0.8304  2.1166  1.4751
18610TIP3    H277322   1.391   1.661  11.565  0.8760 -3.0618 -0.3642
18611TIP3   OH277323   2.848   2.375   0.766 -0.1903  0.1536  0.5819
18611TIP3    H177324   2.925   2.405   0.814  0.8295 -0.2653 -0.7391
18611TIP3    H277325   2.775   2.387   0.827  1.0045 -0.0771  2.0994
18612TIP3   OH277326   2.967   6.648   0.318  0.3818  0.4094 -0.0588
18612TIP3    H177327   2.891   6.635   0.375 -0.7980  0.6713 -1.5148
18612TIP3    H277328   3.025   6.575   0.338 -1.0166 -0.7529 -0.1027
18613TIP3   OH277329   1.251   0.003  13.565  0.2904  0.5419 -0.0967
18613TIP3    H177330   1.336  -0.042  13.562  0.8202  1.3557  1.4232
18613TIP3    H277331   1.262   0.070  13.633 -0.9903  1.8917 -1.1377
18614TIP3   OH277332   4.017   2.638   6.298  0.9798 -0.5222  0.1536
18614TIP3    H177333   3.927   2.612   6.281  1.0289  1.4814 -5.1515
18614TIP3    H277334   4.069   2.561   6.274  0.7818 -0.5079 -0.3191
18615TIP3   OH277335   4.528   1.306   1.094 -0.3350  0.9422  0.5867
18615TIP3    H177336   4.503   1.277   1.006 -1.6813 -0.6430  1.4416
18615TIP3    H277337   4.490   1.241   1.153  0.8706  1.7438  2.3471
18616TIP3   OH277338   1.203   5.244   4.544 -0.1881  0.6363  0.1529
18616TIP3    H177339   1.259   5.175   4.580 -0.7647  0.0518 -0.0566
18616TIP3    H277340   1.222   5.242   4.450 -0.0017  0.9555  0.1817
18617TIP3   OH277341   1.255   0.301  16.014  0.3785 -0.2022 -0.5059
18617TIP3    H177342   1.176   0.253  15.988 -1.1893  2.3161 -0.6764
18617TIP3    H277343   1.229   0.349  16.093  1.9675  0.1566 -0.1736
18618TIP3   OH277344   1.773   4.786   5.808 -0.4026  0.5352  0.7521
18618TIP3    H177345   1.700   4.847   5.805 -2.1058 -1.2947  2.2097
18618TIP3    H277346   1.752   4.719   5.744  1.1679  1.1145 -0.4388
18619TIP3   OH277347   3.921   3.033   4.380 -0.3118 -0.2031  0.0474
18619TIP3    H177348   3.951   3.115   4.343  0.0476 -0.3726 -0.0433
18619TIP3    H277349   3.837   3.054   4.422  0.6814  0.6373  1.6974
18620TIP3   OH277350   4.863   3.238   6.419 -0.5577 -0.8510  0.0598
18620TIP3    H177351   4.770   3.244   6.438 -0.5128 -0.5775  0.1919
18620TIP3    H277352   4.902   3.315   6.461 -0.3011 -0.8576 -0.1602
18621TIP3   OH277353   6.369   0.538  14.215  0.1616  0.1106  0.4731
18621TIP3    H177354   6.335   0.598  14.282 -0.2163 -0.5950  0.9343
18621TIP3    H277355   6.306   0.466  14.214 -1.2161  1.2004 -2.3713
18622TIP3   OH277356   2.636   3.021   6.247  0.7160  0.4479 -0.0431
18622TIP3    H177357   2.711   3.027   6.306 -0.1587 -1.0734  1.3340
18622TIP3    H277358   2.570   2.973   6.297 -0.3192 -0.3690 -2.0461
18623TIP3   OH277359   3.472   1.784   6.150 -0.6073 -0.2516 -0.4557
18623TIP3    H177360   3.487   1.787   6.244  0.9015 -0.6587 -0.6563
18623TIP3    H277361   3.396   1.841   6.136 -2.0085 -1.5940  1.1963
18624TIP3   OH277362   6.629   0.592   5.392 -0.2016 -0.2271 -0.3852
18624TIP3    H177363   6.683   0.522   5.428 -1.6763 -0.4134  1.6387
18624TIP3    H277364   6.543   0.553   5.381 -0.9178  1.0982  0.2531
18625TIP3   OH277365   5.717   3.402   6.474  0.1831 -0.0536  0.1350
18625TIP3    H177366   5.742   3.309   6.473 -1.2230 -0.4638 -0.1950
18625TIP3    H277367   5.799   3.449   6.463  0.9957 -1.2421  0.7795
18626TIP3   OH277368   6.134   4.298   3.931 -0.6244  0.2416 -0.5808
18626TIP3    H177369   6.168   4.386   3.948  1.0590 -0.2728 -1.0984
18626TIP3    H277370   6.174   4.243   3.998 -0.9696 -0.2939 -0.8042
18627TIP3   OH277371   2.749   2.336   6.003 -0.5592  0.4637  0.1755
18627TIP3    H177372   2.703   2.405   5.955 -1.4195 -0.0582  0.2273
18627TIP3    H277373   2.725   2.256   5.957 -1.2013 -0.0167  1.3233
18628TIP3   OH277374   3.346   6.793  13.436 -0.5367 -0.2450  0.2808
18628TIP3    H177375   3.413   6.854  13.466  0.3744 -0.4279 -1.2339
18628TIP3    H277376   3.394   6.712  13.420 -1.1011 -0.3739 -0.8397
18629TIP3   OH277377   3.373   0.668   2.852 -0.5745  0.3376 -0.2107
18629TIP3    H177378   3.411   0.631   2.773 -0.5831  2.4588 -1.2847
18629TIP3    H277379   3.445   0.666   2.916 -0.0982  0.0206 -0.7457
18630TIP3   OH277380   3.005   5.947  14.332 -0.1416 -0.0713  0.1202
18630TIP3    H177381   2.969   6.018  14.385 -0.3223 -0.3406  0.3542
18630TIP3    H277382   2.952   5.871  14.352 -0.4348 -0.0992 -0.7082
18631TIP3   OH277383   4.139   5.834   3.929  0.4152 -0.7997  0.3060
18631TIP3    H177384   4.073   5.879   3.877  0.8857 -0.4488  0.0018
18631TIP3    H277385   4.094   5.758   3.966  0.1406 -1.1856 -0.8034
18632TIP3   OH277386   0.820   1.711  15.008  0.2525  0.0432 -0.5658
18632TIP3    H177387   0.913   1.691  15.014  0.6543  1.7152 -0.8217
18632TIP3    H277388   0.814   1.779  14.941 -0.9929  0.8462  0.3156
18633TIP3   OH277389   5.547   3.385  14.219  0.0238 -0.0824  0.4688
18633TIP3    H177390   5.605   3.457  14.195 -1.6633  1.1983  0.0249
18633TIP3    H277391   5.471   3.395  14.162 -0.3921 -2.0730  0.5941
18634TIP3   OH277392   4.400   0.200  15.915  0.3895  0.6614  0.3609
18634TIP3    H177393   4.358   0.160  15.991  0.6713 -0.1194  0.1198
18634TIP3    H277394   4.341   0.181  15.842  0.8897  0.0101  0.1123
18635TIP3   OH277395   1.870   5.585   4.960  0.0037 -0.4064 -0.3408
18635TIP3    H177396   1.897   5.659   5.015 -1.0020 -1.7921  2.1907
18635TIP3    H277397   1.777   5.601   4.943 -0.1839 -1.0221  0.0982
18636TIP3   OH277398   1.061   1.337  13.182  0.0047  0.1178 -0.0074
18636TIP3    H177399   1.095   1.262  13.133 -0.1043 -0.0314  0.1437
18636TIP3    H277400   1.108   1.412  13.146  0.5339 -0.0941  0.2309
18637TIP3   OH277401   0.609   3.887  12.018 -0.1925  0.4832 -0.3761
18637TIP3    H177402   0.523   3.930  12.025 -1.2116 -1.5035 -0.1342
18637TIP3    H277403   0.592   3.806  11.971  1.4418 -0.2902  0.2863
18638TIP3   OH277404   1.290   5.181  12.152 -0.2759 -0.1749  0.8389
18638TIP3    H177405   1.365   5.175  12.212 -0.0048 -1.3563  0.4121
18638TIP3    H277406   1.214   5.159  12.207 -0.3730  1.3612  1.3530
18639TIP3   OH277407   4.656   2.803  10.155 -0.3262 -0.6094  0.0979
18639TIP3    H177408   4.584   2.863  10.176  1.1338  1.5308 -0.7065
18639TIP3    H277409   4.718   2.814  10.227  0.9283  0.5031 -1.1184
18640TIP3   OH277410   1.193   4.519  15.974  0.0492  0.0721 -0.2085
18640TIP3    H177411   1.107   4.526  15.933  0.6531  2.5588 -1.2090
18640TIP3    H277412   1.254   4.516  15.901  0.8832 -1.0569  0.4975
18641TIP3   OH277413   3.728   4.482   6.236 -0.1546  0.0261  0.1254
18641TIP3    H177414   3.728   4.537   6.158  1.4361  0.3124  0.3119
18641TIP3    H277415   3.636   4.480   6.263 -1.1788 -1.8933 -2.9841
18642TIP3   OH277416   3.522   1.505  11.587 -0.2394 -0.5516  0.6252
18642TIP3    H177417   3.516   1.439  11.656 -2.3515  2.4640  3.6264
18642TIP3    H277418   3.603   1.552  11.606 -0.4013 -0.2397  0.5542
18643TIP3   OH277419   4.305   4.051   4.393 -0.4414 -0.6954 -0.3473
18643TIP3    H177420   4.391   4.015   4.374  0.4433  1.5331 -0.8891
18643TIP3    H277421   4.322   4.133   4.439 -2.0467  1.3945 -3.1219
18644TIP3   OH277422   3.252   5.931   5.057  0.0072 -0.0585  0.1061
18644TIP3    H177423   3.269   5.939   5.151 -0.8995  2.4161  0.1278
18644TIP3    H277424   3.257   5.837   5.040 -0.1421 -0.6091  2.6784
18645TIP3   OH277425   1.308   6.772   4.183  0.3428 -0.0396  0.0712
18645TIP3    H177426   1.298   6.760   4.089 -2.5010  1.6142  0.0708
18645TIP3    H277427   1.240   6.716   4.222 -1.6219  2.6721  0.8160
18646TIP3   OH277428   5.760   5.084   5.546  0.0576 -0.2693  0.1585
18646TIP3    H177429   5.836   5.055   5.495 -0.1371 -1.8898  0.7182
18646TIP3    H277430   5.700   5.121   5.480  0.8432 -0.0212 -0.4358
18647TIP3   OH277431   5.925   1.832  12.187  0.2973 -0.5481 -0.2537
18647TIP3    H177432   5.979   1.862  12.260  1.3329 -2.8339 -0.0027
18647TIP3    H277433   5.915   1.738  12.201 -1.5699 -0.6364 -1.7483
18648TIP3   OH277434   5.719   6.397   3.962  0.4524  0.0890 -0.1774
18648TIP3    H177435   5.776   6.320   3.956 -0.2178 -0.5659  1.4863
18648TIP3    H277436   5.770   6.461   4.011  0.5961  0.3415 -0.6428
18649TIP3   OH277437   1.720   5.448  11.448 -0.0289  0.0453 -0.0470
18649TIP3    H177438   1.643   5.498  11.422 -0.0623 -0.0040 -0.0413
18649TIP3    H277439   1.686   5.368  11.488 -0.0605  1.2020  2.4748
18650TIP3   OH277440   1.458   4.095   4.474 -0.1389  0.2048 -0.3268
18650TIP3    H177441   1.536   4.100   4.531 -0.0224 -0.4793 -0.4203
18650TIP3    H277442   1.483   4.035   4.404 -1.0662 -0.7774  0.1538
18651TIP3   OH277443   1.120   1.824  11.389 -0.4049  0.0617 -0.2591
18651TIP3    H177444   1.204   1.783  11.407 -0.8232 -1.2757 -1.2063
18651TIP3    H277445   1.077   1.765  11.328 -1.3069  1.6252 -1.1980
18652TIP3   OH277446   5.511   1.067  13.873  0.5534 -1.0099 -0.3129
18652TIP3    H177447   5.422   1.090  13.846  0.4978  0.4985  1.0107
18652TIP3    H277448   5.568   1.122  13.820  0.6391 -1.1656 -0.3815
18653TIP3   OH277449   3.893   5.112   0.573 -0.7074  0.7568 -1.3970
18653TIP3    H177450   3.971   5.127   0.626 -1.5574  2.4660 -0.5515
18653TIP3    H277451   3.912   5.032   0.524  1.2717  0.7407 -0.6824
18654TIP3   OH277452   4.289   4.643   4.140 -0.2930  0.7880  0.2510
18654TIP3    H177453   4.308   4.567   4.195 -1.2043 -0.6225 -1.2738
18654TIP3    H277454   4.327   4.717   4.187 -1.6362 -0.2026  3.1089
18655TIP3   OH277455   2.542   5.786  11.740  0.1108 -0.2924 -0.0809
18655TIP3    H177456   2.543   5.879  11.715  0.0618  0.4124  2.2692
18655TIP3    H277457   2.449   5.763  11.741  0.0591 -0.0875  0.1829
18656TIP3   OH277458   4.743   3.744   4.236 -0.3426  0.3634  0.1647
18656TIP3    H177459   4.807   3.793   4.184 -0.0187 -1.8995 -1.7466
18656TIP3    H277460   4.681   3.711   4.171 -1.0051 -1.0460  1.4718
18657TIP3   OH277461   2.515   3.697   1.042 -0.4546  0.0922 -0.2576
18657TIP3    H177462   2.561   3.692   0.958 -0.0184  0.1924 -0.0297
18657TIP3    H277463   2.426   3.667   1.023 -0.5526  0.7550 -0.8956
18658TIP3   OH277464   2.603   4.815   0.459  0.0157 -0.5082 -0.1819
18658TIP3    H177465   2.696   4.800   0.478  0.0813  0.2355  0.1149
18658TIP3    H277466   2.565   4.838   0.543 -0.9340 -3.0114  0.1553
18659TIP3   OH277467   6.129   4.975  11.400  0.0017  0.3052  0.3163
18659TIP3    H177468   6.206   4.991  11.345  0.1182 -2.2106 -0.3675
18659TIP3    H277469   6.164   4.938  11.481 -0.3368  1.7994  1.1797
18660TIP3   OH277470   3.997   1.073   4.361  0.0845  0.1510 -0.0807
18660TIP3    H177471   4.018   0.981   4.345 -0.8771 -0.0394 -0.2971
18660TIP3    H277472   3.996   1.082   4.456  0.0802 -0.0842 -0.0591
18661TIP3   OH277473   1.279   5.010   1.789 -0.2103 -0.1806 -0.4171
18661TIP3    H177474   1.221   5.032   1.716 -0.8593  0.7573  0.3615
18661TIP3    H277475   1.357   4.972   1.748 -0.5463  0.3745 -1.5859
18662TIP3   OH277476   6.566   0.301  15.865  0.1707 -0.2374  0.0363
18662TIP3    H177477   6.480   0.340  15.849  0.0174  0.0673  1.4798
18662TIP3    H277478   6.628   0.365  15.830 -0.1502 -1.5028 -3.2365
18663TIP3   OH277479   5.525   5.328  13.397  0.3316 -0.2193  0.4064
18663TIP3    H177480   5.557   5.343  13.308  1.5917 -1.3299  0.6388
18663TIP3    H277481   5.437   5.291  13.385  1.1716 -2.0687 -0.4778
18664TIP3   OH277482   1.020   5.768   0.993 -0.4295  0.1949 -0.2882
18664TIP3    H177483   1.087   5.831   0.967  0.0589  0.1162  0.7363
18664TIP3    H277484   1.046   5.739   1.080 -0.1536 -2.1058 -1.0616
18665TIP3   OH277485   4.326   1.038   0.684 -0.0216 -0.2572 -0.2969
18665TIP3    H177486   4.249   1.010   0.733  0.2437 -2.3785 -0.9891
18665TIP3    H277487   4.389   0.966   0.695  0.5199 -0.2102 -2.6528
18666TIP3   OH277488   2.699   2.086   5.908  0.3577 -0.2758  0.1808
18666TIP3    H177489   2.681   2.083   5.814  2.3525  1.5220 -0.3282
18666TIP3    H277490   2.616   2.062   5.948 -0.8995  0.0803 -2.0129
18667TIP3   OH277491   5.764   1.541  15.893 -0.2350 -0.0454 -0.1681
18667TIP3    H177492   5.737   1.473  15.954  0.0937 -0.8487 -0.9005
18667TIP3    H277493   5.859   1.545  15.902 -0.2194  0.0727 -0.3678
18668TIP3   OH277494   3.743   4.424  15.122 -0.0106 -0.6509  0.3340
18668TIP3    H177495   3.680   4.401  15.054 -0.1445  0.3043  0.1183
18668TIP3    H277496   3.780   4.341  15.150 -1.6562 -1.2699  0.7417
18669TIP3   OH277497   6.817   2.067   1.836 -0.1126 -0.5640  0.1320
18669TIP3    H177498   6.902   2.106   1.853 -0.5690  0.8402 -0.6314
18669TIP3    H277499   6.836   1.991   1.781  0.6425 -0.1831 -0.1513
18670TIP3   OH277500   2.203   2.369   2.920 -0.7700 -0.2264 -0.6949
18670TIP3    H177501   2.237   2.388   3.007  0.1297 -0.0924 -1.0689
18670TIP3    H277502   2.246   2.288   2.894 -1.4217 -0.5440 -0.8208
18671TIP3   OH277503   4.847   4.912  10.569 -0.0712 -0.0994 -0.7095
18671TIP3    H177504   4.770   4.953  10.529  0.0772 -0.1365 -1.0351
18671TIP3    H277505   4.838   4.819  10.550 -0.0543 -0.1320 -0.5626
18672TIP3   OH277506   5.829   1.029   0.693 -0.0757  0.3444  0.2179
18672TIP3    H177507   5.763   1.034   0.625 -0.6140  0.3696  0.7364
18672TIP3    H277508   5.880   0.951   0.671 -0.6249  0.0071  0.1216
18673TIP3   OH277509   5.784   3.430  11.770  0.4245  0.4119 -0.8715
18673TIP3    H177510   5.737   3.440  11.853  1.4994  0.2398 -0.2114
18673TIP3    H277511   5.737   3.485  11.708 -1.1850 -0.4550 -0.4906
18674TIP3   OH277512   5.192   4.403   2.858 -0.1443 -0.1496  0.3314
18674TIP3    H177513   5.098   4.402   2.841 -0.1447 -0.2591  0.3378
18674TIP3    H277514   5.218   4.494   2.844 -0.7814  0.5725  3.2305
18675TIP3   OH277515   5.722   2.543   0.123 -0.2858  0.0244  0.4369
18675TIP3    H177516   5.762   2.539   0.036  2.8282  0.2181  1.7290
18675TIP3    H277517   5.745   2.629   0.157 -0.7174 -0.3551  1.7789
18676TIP3   OH277518   1.079   3.828  10.815  0.1101 -0.0095  0.0142
18676TIP3    H177519   1.094   3.795  10.726  0.7433  0.1005  0.0804
18676TIP3    H277520   1.057   3.920  10.803  0.3517  0.0437 -0.0151
18677TIP3   OH277521   0.312   1.946   0.987 -0.0630  0.3555  0.7787
18677TIP3    H177522   0.332   2.033   0.951  1.3802 -0.5008 -0.6343
18677TIP3    H277523   0.281   1.895   0.912 -0.3476 -0.5271  1.4729
18678TIP3   OH277524   2.859   3.471   1.937 -0.1088  0.6155  0.3109
18678TIP3    H177525   2.916   3.415   1.991 -1.0332 -1.7945 -1.0324
18678TIP3    H277526   2.882   3.448   1.847 -1.3613  1.5727 -0.2785
18679TIP3   OH277527   1.598   6.644   4.705  0.0622 -0.2883 -0.1834
18679TIP3    H177528   1.605   6.594   4.623  0.9198 -1.9863  0.8629
18679TIP3    H277529   1.688   6.673   4.722  0.2478 -1.4606  1.0131
18680TIP3   OH277530   5.254   0.858  15.691 -0.0006 -0.3248  0.3249
18680TIP3    H177531   5.328   0.798  15.704  1.2423  0.9011 -0.7075
18680TIP3    H277532   5.260   0.920  15.764  1.6899  1.3554 -1.1113
18681TIP3   OH277533   4.155   1.222  13.145  0.1287 -0.2271  0.6503
18681TIP3    H177534   4.081   1.266  13.185  0.6483 -0.9996  2.5674
18681TIP3    H277535   4.232   1.268  13.177  0.6025 -1.4945  1.4220
18682TIP3   OH277536   3.913   1.490   2.841  0.2143 -0.4579  0.0101
18682TIP3    H177537   3.935   1.468   2.750  1.5117  0.0922  0.1687
18682TIP3    H277538   3.881   1.579   2.836  3.7660  1.0268  0.4572
18683TIP3   OH277539   3.633   6.570   1.484  0.2734 -0.3495  0.1872
18683TIP3    H177540   3.606   6.486   1.445  1.6681 -0.3921 -0.7249
18683TIP3    H277541   3.679   6.545   1.564 -0.7861 -0.3569  0.8108
18684TIP3   OH277542   3.739   4.826  14.358 -0.2946  0.1008 -0.2007
18684TIP3    H177543   3.809   4.845  14.421  0.3006 -2.1196 -0.0954
18684TIP3    H277544   3.658   4.834  14.409  0.2603 -3.9040  1.6695
18685TIP3   OH277545   1.900   4.141  10.301  0.1076 -0.1877 -0.0052
18685TIP3    H177546   1.871   4.062  10.346 -1.6971 -0.2899 -1.2249
18685TIP3    H277547   1.867   4.213  10.356 -0.4482 -0.3041 -0.1780
18686TIP3   OH277548   4.752   6.409  15.353  0.0203  0.4242 -0.3633
18686TIP3    H177549   4.847   6.409  15.350  0.0940  2.5768  0.0643
18686TIP3    H277550   4.729   6.334  15.407  1.3925 -0.7654 -1.3392
18687TIP3   OH277551   5.345   5.170   0.203  0.5004 -0.4650  0.3167
18687TIP3    H177552   5.438   5.190   0.188  0.1518  0.6399 -0.4940
18687TIP3    H277553   5.301   5.198   0.123 -0.8043  0.9901  1.4651
18688TIP3   OH277554   4.550   3.950   4.357  0.5639  0.0095  0.2216
18688TIP3    H177555   4.620   4.008   4.386  0.9804 -0.5513  0.3562
18688TIP3    H277556   4.595   3.879   4.312  0.0674 -0.2744  0.1681
18689TIP3   OH277557   5.244   6.204   0.553  0.5195 -0.1233 -0.1183
18689TIP3    H177558   5.205   6.118   0.565 -0.0646  0.2115  0.4363
18689TIP3    H277559   5.320   6.205   0.610 -0.6485  0.4493  1.5110
18690TIP3   OH277560   5.802   5.213   4.104 -0.2700 -0.0450  0.9525
18690TIP3    H177561   5.816   5.230   4.011 -0.9911 -1.6989  0.5067
18690TIP3    H277562   5.883   5.172   4.133 -0.3539 -0.2744  0.8600
18691TIP3   OH277563   2.584   5.319   6.251 -0.3074  0.1360  0.0542
18691TIP3    H177564   2.559   5.274   6.171  0.7469 -1.5383  0.5896
18691TIP3    H277565   2.548   5.264   6.321  0.6183  0.3715  0.7367
18692TIP3   OH277566   4.505   5.673  10.797 -1.0561  0.3384  0.8565
18692TIP3    H177567   4.416   5.644  10.779 -0.5530  0.0900 -1.5886
18692TIP3    H277568   4.550   5.667  10.713  0.6002  2.8860  1.4389
18693TIP3   OH277569   2.351   6.765  11.261  0.5291  0.5977 -0.0652
18693TIP3    H177570   2.389   6.807  11.184 -2.0582 -0.7166 -2.2272
18693TIP3    H277571   2.260   6.795  11.263 -0.5689 -2.3863  0.0513
18694TIP3   OH277572   2.107   1.561   3.548 -0.0942 -0.1690 -0.4885
18694TIP3    H177573   2.079   1.510   3.624  0.5213 -0.1069 -0.2079
18694TIP3    H277574   2.040   1.545   3.482 -0.1646 -0.9557 -0.2358
18695TIP3   OH277575   6.573   5.739   0.344 -0.2587  0.0271 -0.1295
18695TIP3    H177576   6.533   5.765   0.261  0.7573 -0.8780 -0.9388
18695TIP3    H277577   6.503   5.746   0.408 -1.1586  0.4247 -1.1275
18696TIP3   OH277578   1.013   1.126  13.395  0.0533  0.4019  0.3983
18696TIP3    H177579   1.059   1.201  13.358 -0.3828 -0.3011 -1.7294
18696TIP3    H277580   0.921   1.140  13.370 -0.1126 -0.5746  0.4167
18697TIP3   OH277581   4.126   3.960   5.333  0.3243  0.0552 -0.0291
18697TIP3    H177582   4.050   3.961   5.392  1.4608 -0.3654  1.5042
18697TIP3    H277583   4.136   3.867   5.310  0.2120  0.1493 -0.4682
18698TIP3   OH277584   2.050   3.272  13.440 -0.1210 -0.2622  0.4882
18698TIP3    H177585   2.096   3.193  13.412 -0.6691 -0.7073  0.8212
18698TIP3    H277586   2.096   3.301  13.518 -0.6253 -0.9252  1.0433
18699TIP3   OH277587   3.987   5.048   6.194  0.5216  0.1337 -0.1222
18699TIP3    H177588   4.043   4.972   6.178  0.8011  0.4737 -0.7867
18699TIP3    H277589   3.930   5.021   6.266  1.8355 -0.0689  0.8937
18700TIP3   OH277590   3.067   1.731  11.586  0.1093  0.5863 -0.1744
18700TIP3    H177591   3.034   1.681  11.661 -0.1629 -0.3989 -0.9271
18700TIP3    H277592   2.992   1.740  11.528  0.3308  1.3100 -0.3524
18701TIP3   OH277593   6.281   5.378   2.156  0.6057 -0.0559 -0.1943
18701TIP3    H177594   6.197   5.362   2.198  0.8480 -0.0245  0.3094
18701TIP3    H277595   6.326   5.294   2.159  0.1162 -0.3999 -1.5805
18702TIP3   OH277596   5.811   5.534  10.778  0.3045  0.1295 -0.0687
18702TIP3    H177597   5.801   5.608  10.719  1.4217  1.8111  1.7376
18702TIP3    H277598   5.744   5.547  10.845 -1.9528 -2.5487 -1.5572
18703TIP3   OH277599   1.311   3.561  14.488  0.2518 -0.7558  0.5699
18703TIP3    H177600   1.269   3.565  14.573  0.1718  1.2568  0.4935
18703TIP3    H277601   1.239   3.575  14.425  0.7554  1.4314  0.3866
18704TIP3   OH277602   1.203   0.245   3.035  0.0860 -0.7155 -0.3000
18704TIP3    H177603   1.228   0.194   3.112 -0.4985 -0.1083  0.3041
18704TIP3    H277604   1.274   0.308   3.023 -0.0840 -0.4457  0.0852
18705TIP3   OH277605   2.958   6.795   1.352 -0.8541 -0.2658 -0.1794
18705TIP3    H177606   2.971   6.763   1.263 -0.3071 -0.0702 -0.1724
18705TIP3    H277607   2.920   6.721   1.398 -0.4341 -0.6218 -0.3920
18706TIP3   OH277608   1.393   5.991   4.884  0.3336 -0.0777 -0.2122
18706TIP3    H177609   1.311   6.020   4.924  0.7646 -0.0132  0.6528
18706TIP3    H277610   1.461   6.022   4.944  0.9574 -0.5874 -0.6414
18707TIP3   OH277611   4.729   5.103  16.249 -0.3640 -0.0269  0.2229
18707TIP3    H177612   4.747   5.174  16.311 -1.2644  0.8875 -0.5244
18707TIP3    H277613   4.805   5.103  16.190  0.2035 -0.4918  0.9365
18708TIP3   OH277614   1.346   6.773   4.688 -0.2082  0.3411 -0.5479
18708TIP3    H177615   1.323   6.699   4.745 -1.4661  2.2422  1.5572
18708TIP3    H277616   1.421   6.742   4.637 -0.3726 -2.1883  0.6063
18709TIP3   OH277617   6.056   6.392   5.479  0.0865  0.0315  0.0983
18709TIP3    H177618   6.112   6.317   5.456 -0.0666 -0.0968  0.1408
18709TIP3    H277619   6.100   6.434   5.553 -0.4968 -0.7811  0.9248
18710TIP3   OH277620   4.518   3.617  12.764 -0.4282  0.5379 -0.0479
18710TIP3    H177621   4.472   3.667  12.697 -0.8174 -0.7762 -0.8037
18710TIP3    H277622   4.510   3.526  12.735  2.3907  0.2082 -0.0828
18711TIP3   OH277623   6.160   6.285   2.131  0.1334 -0.1182  0.0791
18711TIP3    H177624   6.225   6.334   2.082 -0.5384  0.6404 -0.0762
18711TIP3    H277625   6.125   6.222   2.068  0.8097 -0.6325  0.2053
18712TIP3   OH277626   4.116   0.335  14.661  0.3034  0.2485 -0.1388
18712TIP3    H177627   4.020   0.339  14.658  0.1793  0.5415  2.1852
18712TIP3    H277628   4.145   0.409  14.608 -0.7220 -0.0842 -1.2127
18713TIP3   OH277629   5.350   1.971   3.264  0.6853  0.1852 -0.1351
18713TIP3    H177630   5.288   2.042   3.248  2.1579  2.1339  2.2002
18713TIP3    H277631   5.427   1.993   3.211  0.8468 -0.1191 -0.0322
18714TIP3   OH277632   2.925   1.011   2.746  0.2489 -0.1670 -0.0469
18714TIP3    H177633   2.987   0.943   2.721  1.1199  0.4317  0.4332
18714TIP3    H277634   2.900   0.990   2.836 -0.0343 -0.2387 -0.1385
18715TIP3   OH277635   6.360   2.397   3.094  0.0497  0.3177  0.1724
18715TIP3    H177636   6.455   2.406   3.102  0.2235 -0.1335 -1.2426
18715TIP3    H277637   6.326   2.486   3.109  0.7957  0.7597 -0.6917
18716TIP3   OH277638   3.021   2.149   3.714 -0.1514  0.2978  0.0014
18716TIP3    H177639   2.991   2.238   3.734 -0.2360  0.4538 -0.7600
18716TIP3    H277640   2.942   2.096   3.715  0.0389  0.0124  1.5163
18717TIP3   OH277641   5.360   4.657   3.338 -0.0394 -0.2160  0.0989
18717TIP3    H177642   5.388   4.586   3.280 -0.1836  0.0310 -0.2752
18717TIP3    H277643   5.293   4.704   3.288 -0.5360 -0.3098  0.6669
18718TIP3   OH277644   3.508   3.653   4.623 -0.0816  0.2009  0.0820
18718TIP3    H177645   3.413   3.645   4.627  0.0299 -1.6064 -0.2723
18718TIP3    H277646   3.529   3.646   4.530  0.4653 -0.5916  0.2511
18719TIP3   OH277647   1.206   2.536   2.231  0.5225  0.4318 -0.4568
18719TIP3    H177648   1.298   2.512   2.244  0.5486  0.1853 -1.0639
18719TIP3    H277649   1.190   2.520   2.138  0.8545  3.8672 -1.2283
18720TIP3   OH277650   4.681   4.759  14.151  0.2169  0.0726  0.2691
18720TIP3    H177651   4.593   4.797  14.147 -0.6443 -1.6508  1.3941
18720TIP3    H277652   4.740   4.833  14.137 -1.4082  1.1742 -1.1602
18721TIP3   OH277653   2.264   0.628  15.568 -0.0862 -0.0088  0.1196
18721TIP3    H177654   2.176   0.648  15.598 -0.3012 -0.0040 -0.4978
18721TIP3    H277655   2.256   0.545  15.521  0.0582  0.4329 -0.7123
18722TIP3   OH277656   1.223   5.948   1.597  0.1774  0.3203 -0.6714
18722TIP3    H177657   1.154   5.887   1.569  1.1729 -0.9778 -0.3794
18722TIP3    H277658   1.213   5.954   1.692  0.0787  0.6438 -0.6990
18723TIP3   OH277659   4.246   3.084  16.344  0.0248  0.2577  0.2817
18723TIP3    H177660   4.302   3.153  16.379  0.9854 -1.2443  1.8675
18723TIP3    H277661   4.158   3.122  16.344  0.5688  1.5812  0.8281
18724TIP3   OH277662   1.395   4.369   3.139  0.2324  0.2566  0.0071
18724TIP3    H177663   1.410   4.341   3.049  0.3780 -1.2942  0.4899
18724TIP3    H277664   1.302   4.350   3.155  0.4029 -0.2441  0.4323
18725TIP3   OH277665   0.607   2.959  16.521  0.3637 -0.0424 -0.4147
18725TIP3    H177666   0.689   2.925  16.484  0.6147 -1.0641  1.0054
18725TIP3    H277667   0.632   2.994  16.607 -0.6008  0.0804 -0.1680
18726TIP3   OH277668   6.307   0.906  10.704 -0.7942 -0.8096 -0.1706
18726TIP3    H177669   6.218   0.873  10.691 -0.9918 -0.9015  1.2442
18726TIP3    H277670   6.339   0.924  10.616 -2.6477  0.4081 -0.6410
18727TIP3   OH277671   1.561   2.679  12.618  0.2607  0.0074 -0.1148
18727TIP3    H177672   1.535   2.628  12.541 -1.9793  0.8426  0.0247
18727TIP3    H277673   1.641   2.724  12.591 -1.2524  1.4423 -2.5064
18728TIP3   OH277674   3.087   0.810   4.396  0.3337  0.4538 -0.2571
18728TIP3    H177675   3.002   0.799   4.440  0.4047  2.2826  0.4431
18728TIP3    H277676   3.101   0.905   4.397  2.0201  0.2335 -1.0854
18729TIP3   OH277677   1.013   3.244   5.992 -0.3148  0.1033 -0.3546
18729TIP3    H177678   0.943   3.280   5.938 -0.4119  1.1661  0.4329
18729TIP3    H277679   1.036   3.316   6.051  0.3779 -0.7407  0.4269
18730TIP3   OH277680   0.636   4.535  16.442  0.2181 -0.8987  0.0890
18730TIP3    H177681   0.554   4.549  16.394  1.0938  0.4952 -1.0889
18730TIP3    H277682   0.630   4.595  16.517  0.8370  0.4616 -0.9154
18731TIP3   OH277683   6.668   4.612   3.915 -0.2699 -0.6033  0.0409
18731TIP3    H177684   6.727   4.556   3.965 -0.6718 -0.2603  0.9260
18731TIP3    H277685   6.674   4.697   3.958 -0.4497 -0.2326 -0.6504
18732TIP3   OH277686   4.691   1.557  13.580 -0.0948 -0.4089  0.2633
18732TIP3    H177687   4.610   1.556  13.631 -1.8404 -1.0153 -2.2763
18732TIP3    H277688   4.692   1.473  13.535  0.9505  0.3305 -1.1994
18733TIP3   OH277689   3.773   1.621  13.436  0.0699  0.1241  0.2167
18733TIP3    H177690   3.837   1.663  13.493  0.9312  0.3177 -0.8773
18733TIP3    H277691   3.720   1.693  13.402  0.3166  0.1279 -0.1579
18734TIP3   OH277692   6.761   6.370  10.933 -0.3250  0.2808 -0.4608
18734TIP3    H177693   6.822   6.418  10.989 -4.0822  1.9880  2.6880
18734TIP3    H277694   6.761   6.418  10.851  2.4639  0.1578 -0.6226
18735TIP3   OH277695   6.392   0.982  16.245  0.3589  0.5802  0.0282
18735TIP3    H177696   6.408   0.931  16.324 -0.5786 -0.9493 -0.7231
18735TIP3    H277697   6.416   0.923  16.173  0.2823  1.5875 -0.8558
18736TIP3   OH277698   6.688   5.552   4.932 -0.3466 -0.2553 -0.1225
18736TIP3    H177699   6.614   5.496   4.955 -2.0214  1.0192 -2.0651
18736TIP3    H277700   6.742   5.499   4.874  0.1918 -1.1290  1.1497
18737TIP3   OH277701   1.006   2.341  11.316  0.5018 -0.0833 -0.2039
18737TIP3    H177702   0.940   2.399  11.278 -0.6737  0.2256  2.1354
18737TIP3    H277703   1.082   2.397  11.331  0.2142  0.2893 -0.1259
18738TIP3   OH277704   5.380   1.275  15.140 -0.5176  0.3183  0.0152
18738TIP3    H177705   5.398   1.224  15.219  1.0092  0.3836 -0.2475
18738TIP3    H277706   5.447   1.343  15.139 -1.2299  1.0341 -0.7369
18739TIP3   OH277707   5.290   6.305   2.794  0.1120  0.6954 -0.0154
18739TIP3    H177708   5.209   6.259   2.814 -0.1772  1.0732 -0.3083
18739TIP3    H277709   5.317   6.344   2.878 -0.6278  1.5324 -0.1496
18740TIP3   OH277710   5.525   1.769   5.950  0.5381 -0.4155  0.3587
18740TIP3    H177711   5.435   1.747   5.974  0.8800 -1.2415  0.9025
18740TIP3    H277712   5.557   1.822   6.023 -0.0398  1.3615 -0.6071
18741TIP3   OH277713   2.625   3.197   1.291  0.5373 -0.1177 -0.2310
18741TIP3    H177714   2.581   3.223   1.209 -1.9738 -1.3824  0.5995
18741TIP3    H277715   2.605   3.268   1.352 -0.3641 -0.6472  0.1189
18742TIP3   OH277716   0.528   3.689   2.428 -0.7229 -0.0113 -0.0890
18742TIP3    H177717   0.521   3.608   2.377 -0.6865  0.8379 -1.4647
18742TIP3    H277718   0.554   3.659   2.516 -1.3289 -1.5359 -0.3948
18743TIP3   OH277719   4.589   2.014   3.542  0.1505  0.2710  0.3083
18743TIP3    H177720   4.632   2.024   3.457 -1.2996 -0.8837 -0.5925
18743TIP3    H277721   4.510   1.963   3.524  0.2071 -0.6936  2.4750
18744TIP3   OH277722   2.850   4.558   3.785  0.8420 -0.2496  0.3849
18744TIP3    H177723   2.906   4.510   3.846  1.5370  0.8122  0.5888
18744TIP3    H277724   2.892   4.643   3.774  0.2462 -0.0915 -0.8797
18745TIP3   OH277725   1.124   3.436   0.813  0.2567 -0.0460 -0.5569
18745TIP3    H177726   1.113   3.515   0.761 -0.3798 -0.6266 -1.3286
18745TIP3    H277727   1.120   3.364   0.750 -1.2774 -0.8108  0.3263
18746TIP3   OH277728   5.814   4.620   3.785 -0.1583  0.1259 -0.2564
18746TIP3    H177729   5.851   4.621   3.873  0.7285 -1.3482 -0.5869
18746TIP3    H277730   5.788   4.711   3.769  0.5806  0.6037  1.1335
18747TIP3   OH277731   2.157   4.507  15.203 -0.1104 -0.0195  0.0521
18747TIP3    H177732   2.102   4.583  15.224 -0.9661 -0.2578 -1.2020
18747TIP3    H277733   2.100   4.432  15.219  0.0790 -0.3015 -0.5787
18748TIP3   OH277734   5.513   3.090  16.945 -0.1691  0.3375 -0.7561
18748TIP3    H177735   5.531   3.172  16.990  0.1217  0.5099 -1.1744
18748TIP3    H277736   5.496   3.027  17.015 -1.5174  1.0006 -0.4540
18749TIP3   OH277737   4.388   3.645   3.144 -0.3101  0.2137  0.0243
18749TIP3    H177738   4.465   3.665   3.090 -0.4695 -0.0469 -0.3009
18749TIP3    H277739   4.353   3.731   3.168 -0.1894  0.3312 -0.2124
18750TIP3   OH277740   1.827   4.239  14.646 -0.2017 -0.2041 -0.1408
18750TIP3    H177741   1.841   4.157  14.693  1.4742  1.1879  1.9330
18750TIP3    H277742   1.873   4.305  14.697 -0.4988  1.8794 -2.3691
18751TIP3   OH277743   2.903   5.825   4.188 -0.0992  0.6168  0.3492
18751TIP3    H177744   2.890   5.918   4.208 -2.7067 -0.2610  3.6233
18751TIP3    H277745   2.875   5.817   4.097  1.4829  3.1824 -0.4822
18752TIP3   OH277746   4.787   2.779  11.582  0.1563  0.1975 -0.3108
18752TIP3    H177747   4.784   2.840  11.508  1.1926  1.1914  0.4283
18752TIP3    H277748   4.788   2.692  11.542 -1.5486  0.6296 -1.3907
18753TIP3   OH277749   3.749   5.195   4.775  0.1277  0.0868 -0.0325
18753TIP3    H177750   3.786   5.266   4.828 -0.1130  1.0878 -1.1600
18753TIP3    H277751   3.821   5.166   4.720  0.9723 -2.3765  2.1960
18754TIP3   OH277752   2.369   1.163   4.327  0.7311 -0.5947  0.1344
18754TIP3    H177753   2.408   1.147   4.240 -1.8129  1.0908 -1.4460
18754TIP3    H277754   2.416   1.240   4.359 -1.8863  2.3275 -2.3864
18755TIP3   OH277755   1.325   3.580  12.944 -0.3198  0.6995 -0.2430
18755TIP3    H177756   1.406   3.587  12.893 -0.2373 -0.7592 -0.3675
18755TIP3    H277757   1.342   3.508  13.005 -1.2174  0.9538  0.3230
18756TIP3   OH277758   1.180   0.781   2.832  0.3580  0.0575  0.1479
18756TIP3    H177759   1.228   0.836   2.894 -0.1598  0.5734  0.0983
18756TIP3    H277760   1.136   0.843   2.774 -0.9363 -0.3893  0.6268
18757TIP3   OH277761   0.104   3.701   5.543  0.2173  0.3862 -1.1441
18757TIP3    H177762   0.088   3.781   5.492 -1.9061 -0.2274 -1.5355
18757TIP3    H277763   0.052   3.714   5.622  0.7626 -0.1439 -0.6987
18758TIP3   OH277764   2.398   0.044   1.128 -0.3294 -0.1252 -0.6909
18758TIP3    H177765   2.412   0.059   1.035  0.2047 -0.1567 -0.6217
18758TIP3    H277766   2.449   0.112   1.171  0.2303 -0.7029 -0.4128
18759TIP3   OH277767   5.966   2.939   4.917 -0.8706  0.0985  0.3674
18759TIP3    H177768   5.896   3.004   4.922  0.1879  1.2535  0.5172
18759TIP3    H277769   5.994   2.928   5.008  0.4226  1.0817  0.0996
18760TIP3   OH277770   5.860   2.767  17.025 -0.2608  0.1914  0.2988
18760TIP3    H177771   5.843   2.691  17.080  2.5731 -0.2941  0.6842
18760TIP3    H277772   5.905   2.731  16.948 -0.4533  1.3000 -0.3539
18761TIP3   OH277773   2.555   3.797  14.745 -0.8935  0.2852  0.4685
18761TIP3    H177774   2.492   3.728  14.729  0.0386 -0.9388  1.8034
18761TIP3    H277775   2.504   3.868  14.785 -1.5490 -0.4285  0.9133
18762TIP3   OH277776   6.105   4.870   6.272  1.1440 -0.4302  0.3853
18762TIP3    H177777   6.195   4.844   6.293  1.2570  0.1688  0.6720
18762TIP3    H277778   6.064   4.885   6.358  0.7213 -0.8682  0.2618
18763TIP3   OH277779   4.269   2.022  16.669  0.4019  0.2855  0.5391
18763TIP3    H177780   4.188   1.990  16.628  0.9556 -1.0692  0.4417
18763TIP3    H277781   4.288   2.104  16.625 -0.3622  0.0951 -0.1665
18764TIP3   OH277782   0.169   4.376  15.564  0.3441  0.0020  0.4478
18764TIP3    H177783   0.090   4.429  15.578 -0.6241 -1.5429  1.0628
18764TIP3    H277784   0.152   4.295  15.611  1.8400 -0.8207 -0.3690
18765TIP3   OH277785   0.116   6.056   5.191  0.0232 -0.5026  0.2269
18765TIP3    H177786   0.024   6.073   5.210  0.0180 -0.5698  0.2617
18765TIP3    H277787   0.164   6.122   5.240 -0.0583  0.2497 -0.6742
18766TIP3   OH277788   5.640   0.701  11.087 -0.7388 -1.1406  0.1312
18766TIP3    H177789   5.704   0.712  11.016  0.1583  2.4979  1.2885
18766TIP3    H277790   5.555   0.717  11.046 -0.1044  3.0147 -0.0351
18767TIP3   OH277791   2.491   1.867  17.038 -0.1552 -0.0699 -0.5159
18767TIP3    H177792   2.515   1.795  16.981 -0.5874 -0.6280 -0.0077
18767TIP3    H277793   2.416   1.834  17.088 -0.2950  0.6933 -0.2107
18768TIP3   OH277794   3.193   1.282   2.704  0.3306 -0.1131 -0.5312
18768TIP3    H177795   3.201   1.208   2.765  1.2748  0.4784  0.0891
18768TIP3    H277796   3.220   1.246   2.620 -3.1755 -1.5861 -1.2197
18769TIP3   OH277797   4.841   2.893   3.324 -0.2441  0.5041  1.1358
18769TIP3    H177798   4.917   2.951   3.329 -0.5523  0.9972  0.1539
18769TIP3    H277799   4.812   2.898   3.233 -0.6829 -0.6739  1.1920
18770TIP3   OH277800   2.872   1.743  14.037 -0.0606  0.0945  0.2437
18770TIP3    H177801   2.934   1.685  13.993 -0.6295  1.2319 -2.2248
18770TIP3    H277802   2.927   1.809  14.079  0.4751 -0.6847  0.8097
18771TIP3   OH277803   6.026   3.665   2.949 -0.4728 -0.2684  0.5193
18771TIP3    H177804   5.959   3.606   2.915  0.3257 -0.4042 -0.8774
18771TIP3    H277805   6.045   3.724   2.876  3.1407 -2.1756 -0.2743
18772TIP3   OH277806   5.111   0.546  14.106 -0.0961 -0.0103  0.3212
18772TIP3    H177807   5.140   0.535  14.196  1.1678  0.5096  0.0019
18772TIP3    H277808   5.137   0.464  14.063 -1.1276 -0.4535  0.5259
18773TIP3   OH277809   5.928   3.724  13.837  0.9024  0.2583 -0.2792
18773TIP3    H177810   6.022   3.734  13.846  1.0705 -2.1352  1.9825
18773TIP3    H277811   5.914   3.629  13.835 -1.3737  0.5193 -2.3541
18774TIP3   OH277812   5.907   2.768   0.129  0.5455  0.5287 -0.1342
18774TIP3    H177813   5.977   2.750   0.067  0.7841  0.1814  0.2299
18774TIP3    H277814   5.949   2.761   0.215 -0.3026 -1.4893  0.1824
18775TIP3   OH277815   1.186   2.515   3.451  0.3845  0.0002  0.1595
18775TIP3    H177816   1.277   2.544   3.444  0.3651  0.0379  0.0603
18775TIP3    H277817   1.156   2.548   3.536  0.4712 -0.0352  0.2042
18776TIP3   OH277818   1.917   3.752   4.760  0.1478  0.2118  0.3173
18776TIP3    H177819   1.856   3.691   4.801  0.2685 -0.9693 -1.1697
18776TIP3    H277820   2.000   3.704   4.757 -0.0826 -0.1402 -2.1087
18777TIP3   OH277821   6.626   3.814   1.297  0.1258  0.1154  0.1458
18777TIP3    H177822   6.540   3.779   1.271 -0.0494 -0.1992  1.0998
18777TIP3    H277823   6.683   3.795   1.223  0.1100 -2.5113  0.6903
18778TIP3   OH277824   6.600   4.515   1.239 -0.2347  0.3958  0.1047
18778TIP3    H177825   6.553   4.480   1.315  3.0128 -1.6471  1.4130
18778TIP3    H277826   6.603   4.609   1.254 -1.1660  0.2227  1.6253
18779TIP3   OH277827   6.659   4.559  11.367 -0.3611  0.4693 -0.2925
18779TIP3    H177828   6.616   4.622  11.425  1.5478 -0.0519  1.8612
18779TIP3    H277829   6.735   4.606  11.333 -0.9048  0.4297 -1.6306
18780TIP3   OH277830   3.902   6.806  16.292  0.0728 -0.3179 -0.5236
18780TIP3    H177831   3.973   6.750  16.325  1.3547  0.5988 -1.6179
18780TIP3    H277832   3.836   6.744  16.261  0.2596 -1.1946  0.7453
18781TIP3   OH277833   2.519   3.082   0.848  0.3412  0.3125  0.2071
18781TIP3    H177834   2.528   2.999   0.800 -0.9612  0.6917 -0.7430
18781TIP3    H277835   2.571   3.144   0.797 -0.6398  0.6008 -0.4846
18782TIP3   OH277836   2.617   6.655   2.302  0.4845 -0.0677  0.2091
18782TIP3    H177837   2.628   6.622   2.391 -1.4953 -0.7363  0.2683
18782TIP3    H277838   2.579   6.742   2.313 -1.9341 -1.0386  0.0800
18783TIP3   OH277839   5.767   4.409  17.020 -0.0610 -0.7628  0.2198
18783TIP3    H177840   5.844   4.430  17.072 -0.5136  0.0016  0.5937
18783TIP3    H277841   5.762   4.479  16.955 -2.0661  0.8708  2.0091
18784TIP3   OH277842   5.223   2.010  15.124  0.2606 -0.2479  0.6597
18784TIP3    H177843   5.161   1.991  15.054 -0.8959 -0.8491  1.7998
18784TIP3    H277844   5.262   2.094  15.100 -0.4263 -0.2368 -0.4755
18785TIP3   OH277845   3.901   6.076  14.025 -0.3164  0.1886  0.5526
18785TIP3    H177846   3.974   6.138  14.029  0.0118  0.1019 -2.1152
18785TIP3    H277847   3.943   5.990  14.031  0.0079  0.1059 -1.8459
18786TIP3   OH277848   5.989   3.497  10.666 -0.7502 -0.2236 -0.0645
18786TIP3    H177849   5.941   3.428  10.712  1.5167 -1.8291  0.0365
18786TIP3    H277850   6.046   3.535  10.732  0.3398 -0.4855 -0.8281
18787TIP3   OH277851   4.017   0.240   6.442 -0.1905  0.0994  0.1486
18787TIP3    H177852   4.054   0.290   6.369 -1.9811 -0.6879 -1.3621
18787TIP3    H277853   3.932   0.282   6.459 -1.3429 -1.8258 -0.5818
18788TIP3   OH277854   1.349   3.024  11.424  0.1203  0.2512 -0.2883
18788TIP3    H177855   1.265   3.050  11.461  1.0003  0.2254  1.8445
18788TIP3    H277856   1.370   2.941  11.467  0.8142 -0.2238 -1.4979
18789TIP3   OH277857   2.942   3.453   1.665 -0.2466 -0.0636 -0.5622
18789TIP3    H177858   2.882   3.398   1.615 -0.5564  0.7883 -1.1463
18789TIP3    H277859   2.926   3.542   1.633 -0.2168  0.4612  0.8237
18790TIP3   OH277860   0.550   4.833  12.778 -0.3031  0.8336  0.0960
18790TIP3    H177861   0.624   4.891  12.797 -0.2637  0.2773  1.8077
18790TIP3    H277862   0.588   4.745  12.777 -0.5743  0.7057 -1.2712
18791TIP3   OH277863   6.728   1.852   1.351 -0.6939 -0.3039 -0.1115
18791TIP3    H177864   6.667   1.869   1.423 -0.9505 -2.0819  0.1556
18791TIP3    H277865   6.672   1.825   1.278 -0.2864 -2.0821  0.1764
18792TIP3   OH277866   0.903   3.845  12.561  0.1154  0.7025  0.7266
18792TIP3    H177867   0.839   3.912  12.585  1.2666  1.2237  2.5905
18792TIP3    H277868   0.971   3.852  12.629 -0.4451 -3.3844  1.9296
18793TIP3   OH277869   0.844   2.507   1.301  0.2723 -0.1160 -0.1630
18793TIP3    H177870   0.778   2.552   1.249  1.8659  1.9923 -0.5240
18793TIP3    H277871   0.841   2.552   1.386  1.6292  0.4764 -0.3994
18794TIP3   OH277872   6.747   1.411   3.780  0.1720  0.4493 -0.1745
18794TIP3    H177873   6.717   1.483   3.836  0.3359  1.3958 -1.2448
18794TIP3    H277874   6.668   1.382   3.734  0.2660  0.5437 -0.3944
18795TIP3   OH277875   2.477   0.145  13.445 -0.5441  0.5924 -0.4540
18795TIP3    H177876   2.482   0.220  13.504 -2.0556  1.9282 -1.9365
18795TIP3    H277877   2.444   0.181  13.363 -0.0410 -1.4839 -1.6341
18796TIP3   OH277878   5.237   4.854  12.363 -0.3124 -0.1141 -0.2158
18796TIP3    H177879   5.253   4.794  12.436  0.5354  1.3833  0.8921
18796TIP3    H277880   5.239   4.799  12.285  0.4204 -1.5224  0.7674
18797TIP3   OH277881   2.941   2.546  16.578  0.5829  0.0334  0.2117
18797TIP3    H177882   2.973   2.559  16.489 -2.1932 -0.2374 -0.8996
18797TIP3    H277883   2.918   2.453  16.582  1.0355 -0.0493  1.3655
18798TIP3   OH277884   4.745   1.381  15.978 -0.2068 -0.8030 -0.1067
18798TIP3    H177885   4.721   1.288  15.985 -0.2534 -0.7504  0.4860
18798TIP3    H277886   4.663   1.425  15.955 -0.4234 -0.7776  0.6891
18799TIP3   OH277887   3.027   5.587  11.639  0.2127 -0.1175 -0.0494
18799TIP3    H177888   3.043   5.640  11.562  0.1929  0.0387  0.0539
18799TIP3    H277889   2.938   5.611  11.667  0.6173  0.6314  0.6557
18800TIP3   OH277890   1.870   4.776   6.178 -0.2406 -0.0973  0.0709
18800TIP3    H177891   1.861   4.682   6.163  0.5539 -0.0823 -0.6451
18800TIP3    H277892   1.940   4.783   6.243  0.6733  0.0234 -0.8998
18801TIP3   OH277893   0.740   4.574   1.775  0.2247 -0.7045  0.3146
18801TIP3    H177894   0.713   4.495   1.821 -2.2007 -1.9446 -2.8709
18801TIP3    H277895   0.795   4.542   1.703  0.5589  0.7141 -0.0997
18802TIP3   OH277896   6.256   3.570  15.091 -0.0283  0.0298  0.1801
18802TIP3    H177897   6.278   3.504  15.025  3.0657  1.2216 -0.1596
18802TIP3    H277898   6.301   3.540  15.171 -0.1702  0.7352  0.5350
18803TIP3   OH277899   2.015   3.274   1.786 -0.0831  0.0703 -0.8306
18803TIP3    H177900   2.048   3.352   1.832 -1.5194 -0.7827  1.8600
18803TIP3    H277901   2.081   3.257   1.719  0.0966  3.7943 -1.8153
18804TIP3   OH277902   3.155   6.312  16.225 -0.8193  0.6271 -0.3532
18804TIP3    H177903   3.075   6.363  16.236  0.4790  2.3851  1.8394
18804TIP3    H277904   3.184   6.294  16.315  0.8803 -0.5186 -1.0886
18805TIP3   OH277905   3.888   1.715   2.271  0.3433  0.6077 -0.4194
18805TIP3    H177906   3.966   1.759   2.303  0.9305 -0.7322  0.0735
18805TIP3    H277907   3.913   1.623   2.264 -1.4987 -0.0522  0.8475
18806TIP3   OH277908   1.017   5.682   4.374 -0.2597  0.0310 -0.0406
18806TIP3    H177909   1.102   5.705   4.411  0.3362 -1.9417 -0.0727
18806TIP3    H277910   1.033   5.673   4.280 -0.6432  0.1894 -0.1267
18807TIP3   OH277911   6.252   3.937   5.541  0.2006 -0.7369  0.6949
18807TIP3    H177912   6.244   3.862   5.481  0.9589 -1.6922  1.7302
18807TIP3    H277913   6.305   4.001   5.493  2.8913 -2.4547  1.1390
18808TIP3   OH277914   4.124   2.383  14.832  0.7204 -0.3221 -0.2918
18808TIP3    H177915   4.120   2.288  14.847  1.3967 -0.4551 -0.8928
18808TIP3    H277916   4.037   2.406  14.801  0.2099 -0.5474  0.9051
18809TIP3   OH277917   6.658   6.463   3.041  0.2444 -0.0761 -0.3085
18809TIP3    H177918   6.580   6.513   3.067 -0.5195 -1.8901  1.0940
18809TIP3    H277919   6.731   6.509   3.084 -0.1340  1.1336 -0.9197
18810TIP3   OH277920   5.218   0.217  11.373 -0.2935  0.3913 -0.1991
18810TIP3    H177921   5.284   0.151  11.353  1.0130  1.7874 -0.6381
18810TIP3    H277922   5.138   0.184  11.332  0.5551 -0.4585 -1.2269
18811TIP3   OH277923   5.102   3.306   5.838 -0.0681  0.0619  0.0651
18811TIP3    H177924   5.014   3.279   5.865 -1.1055  2.7447 -0.3814
18811TIP3    H277925   5.150   3.320   5.920 -0.8337  0.8890  0.3824
18812TIP3   OH277926   6.653   4.885  12.406 -0.5223 -0.0456  0.0218
18812TIP3    H177927   6.576   4.876  12.350 -1.2413 -0.0470  0.9898
18812TIP3    H277928   6.690   4.796  12.410  1.6652  0.5414 -3.3303
18813TIP3   OH277929   1.945   0.237   0.431 -0.2341 -0.1539 -0.4952
18813TIP3    H177930   1.917   0.156   0.475 -0.7378 -0.0609 -0.6402
18813TIP3    H277931   1.939   0.304   0.498  1.2998 -0.4206 -0.0394
18814TIP3   OH277932   0.602   6.749   1.861 -0.8406 -0.2983 -0.2434
18814TIP3    H177933   0.687   6.710   1.840 -1.0416 -0.7160 -0.3019
18814TIP3    H277934   0.613   6.787   1.948 -0.5105 -0.0996 -0.3720
18815TIP3   OH277935   4.355   1.395  12.816  0.1048 -0.0998 -0.1764
18815TIP3    H177936   4.267   1.415  12.850 -1.0539 -1.8271 -1.9245
18815TIP3    H277937   4.385   1.478  12.778 -2.2140 -0.1409 -2.4149
18816TIP3   OH277938   4.203   4.070  16.905  0.0260  0.2962 -0.3126
18816TIP3    H177939   4.190   4.138  16.972  1.3225  1.0561 -0.7967
18816TIP3    H277940   4.125   4.014  16.913 -1.2790  2.0262 -0.1239
18817TIP3   OH277941   5.570   1.750   5.431 -0.0978 -0.4041  0.5018
18817TIP3    H177942   5.479   1.775   5.447 -0.0937  0.4536 -0.6603
18817TIP3    H277943   5.604   1.725   5.517 -0.8881  1.1080  1.3005
18818TIP3   OH277944   0.810   1.307  15.973  0.3244 -0.2526 -0.0793
18818TIP3    H177945   0.814   1.211  15.968 -0.3289 -0.3432  0.8489
18818TIP3    H277946   0.738   1.324  16.034  0.0879  0.8463 -0.6510
18819TIP3   OH277947   2.055   6.064   3.057  0.1355  0.3868  0.0683
18819TIP3    H177948   2.130   6.097   3.105  1.7159 -0.3571 -1.7227
18819TIP3    H277949   1.992   6.135   3.058  0.9490  1.1235  1.4381
18820TIP3   OH277950   0.849   4.187  11.910 -0.3120 -0.0318  0.6506
18820TIP3    H177951   0.780   4.213  11.848 -0.8124 -2.6619 -0.0330
18820TIP3    H277952   0.870   4.097  11.885  2.3293  0.1746  1.8421
18821TIP3   OH277953   0.151   0.873  16.876 -0.0207  0.0273  0.5471
18821TIP3    H177954   0.169   0.872  16.782  1.3881 -0.1000  0.7963
18821TIP3    H277955   0.117   0.961  16.893  0.8800  0.4808  0.0965
18822TIP3   OH277956   1.949   0.617   5.532  0.3313 -0.6835 -0.0976
18822TIP3    H177957   2.021   0.582   5.584  1.5545 -0.1030 -1.3594
18822TIP3    H277958   1.917   0.541   5.482 -0.4007 -1.0886  0.9447
18823TIP3   OH277959   6.084   1.441   0.253  0.2617 -0.2157 -0.1710
18823TIP3    H177960   6.089   1.379   0.325 -0.3626  0.5255  0.5277
18823TIP3    H277961   6.045   1.391   0.181  0.7918 -0.9284  0.0286
18824TIP3   OH277962   3.088   3.119   4.384  0.2252 -0.2111 -0.0113
18824TIP3    H177963   3.040   3.129   4.302  0.1797  0.1816  0.0593
18824TIP3    H277964   3.173   3.159   4.367  0.3368 -0.4333  0.0274
18825TIP3   OH277965   5.261   4.780   6.005 -0.5607  0.3104 -0.4791
18825TIP3    H177966   5.250   4.807   5.914 -1.2292 -1.8682 -1.1154
18825TIP3    H277967   5.174   4.750   6.031  0.0305 -0.8531  0.2344
18826TIP3   OH277968   1.241   2.348   5.683  0.1917  0.2239  0.0239
18826TIP3    H177969   1.294   2.302   5.748  0.3543  0.5990  0.1613
18826TIP3    H277970   1.276   2.319   5.599  0.5456  0.3867  0.1140
18827TIP3   OH277971   3.602   2.847  12.316 -0.4998 -0.7708  0.1384
18827TIP3    H177972   3.681   2.824  12.364  0.2664 -0.6079 -0.9994
18827TIP3    H277973   3.633   2.895  12.239 -1.7111 -0.5753 -0.2608
18828TIP3   OH277974   3.151   1.880   0.680  0.5609 -0.2187 -0.2703
18828TIP3    H177975   3.152   1.865   0.585  0.3883  0.3159 -0.3578
18828TIP3    H277976   3.061   1.864   0.706  0.5908 -0.2852 -0.2065
18829TIP3   OH277977   4.474   5.957  13.232 -0.1210  0.0363  0.5836
18829TIP3    H177978   4.435   5.870  13.226  0.6618 -0.2294 -1.6421
18829TIP3    H277979   4.473   5.990  13.142  2.9082  0.8323  0.7302
18830TIP3   OH277980   2.395   2.485  15.910  0.6489 -0.5138 -0.3282
18830TIP3    H177981   2.349   2.492  15.994 -1.3891  0.6689 -1.4715
18830TIP3    H277982   2.351   2.548  15.853  0.3179 -3.0101 -3.0456
18831TIP3   OH277983   1.635   3.273  13.355  0.7911  0.1120 -0.5717
18831TIP3    H177984   1.701   3.227  13.407 -0.0591  0.1494  0.5956
18831TIP3    H277985   1.574   3.205  13.327  1.5854 -0.0091 -2.1250
18832TIP3   OH277986   1.924   3.141  15.609 -1.0858 -0.0839  0.0954
18832TIP3    H177987   2.016   3.168  15.617  0.8792 -5.4105 -0.1593
18832TIP3    H277988   1.896   3.125  15.699 -2.0153  1.7983  0.1965
18833TIP3   OH277989   4.124   6.713   4.617 -0.3043 -0.0256 -0.3527
18833TIP3    H177990   4.188   6.709   4.546 -1.0489 -1.9532 -0.9817
18833TIP3    H277991   4.054   6.655   4.589 -0.6277 -0.8534  1.9672
18834TIP3   OH277992   5.213   2.583  15.976 -0.1753  0.0743  0.4266
18834TIP3    H177993   5.150   2.579  15.904 -0.0066  0.6765  0.2386
18834TIP3    H277994   5.293   2.617  15.936  0.3823 -1.0119  0.5918
18835TIP3   OH277995   1.457   0.743  12.720 -0.2119 -0.1006  0.1797
18835TIP3    H177996   1.468   0.660  12.675  0.6135 -0.7506  1.5248
18835TIP3    H277997   1.515   0.738  12.795 -1.1479  1.1596  1.0346
18836TIP3   OH277998   1.685   4.534  13.933  0.6176  0.2571  0.1857
18836TIP3    H177999   1.633   4.537  14.013  1.1798 -1.3776  0.6497
18836TIP3    H278000   1.650   4.606  13.879 -1.8892 -0.5247  0.6210
18837TIP3   OH278001   6.214   2.064   5.645  0.4012 -0.3589  0.3092
18837TIP3    H178002   6.248   1.975   5.658 -0.3927 -0.6797  0.2400
18837TIP3    H278003   6.217   2.077   5.551 -0.6461 -0.7960  0.2017
18838TIP3   OH278004   1.501   5.727  10.998 -0.1263  1.0506 -0.0002
18838TIP3    H178005   1.517   5.738  10.904  2.1247 -1.2885  0.0027
18838TIP3    H278006   1.426   5.667  11.003  0.8826 -0.3073 -0.4160
18839TIP3   OH278007   3.378   6.575  14.045  0.2241  0.3559 -0.6359
18839TIP3    H178008   3.456   6.614  14.005 -0.7146 -0.0188 -2.9666
18839TIP3    H278009   3.383   6.482  14.022 -0.0131 -0.0362  0.7775
18840TIP3   OH278010   6.552   3.476  17.148 -0.7475 -0.0117 -0.6284
18840TIP3    H178011   6.633   3.523  17.129  0.4781 -1.3967  0.8882
18840TIP3    H278012   6.516   3.454  17.062  1.0893 -0.3519 -1.3420
18841TIP3   OH278013   4.988   1.116   3.876  0.2660 -0.1599 -0.3275
18841TIP3    H178014   4.975   1.211   3.883 -1.3277 -0.3517 -0.1978
18841TIP3    H278015   4.899   1.081   3.873  0.8396 -1.6027 -1.1271
18842TIP3   OH278016   6.309   5.547  16.383  0.7353  0.3397 -0.2857
18842TIP3    H178017   6.249   5.613  16.418  1.2991  0.5100  0.3574
18842TIP3    H278018   6.387   5.597  16.359  0.9599 -0.0200 -0.2973
18843TIP3   OH278019   5.649   2.823  13.227  0.0008 -0.3960  0.1085
18843TIP3    H178020   5.627   2.743  13.179 -2.6309  0.9631 -1.2524
18843TIP3    H278021   5.710   2.869  13.169 -2.1198  0.6103 -1.5157
18844TIP3   OH278022   6.030   2.564   4.542 -0.1437 -0.2296  0.2634
18844TIP3    H178023   6.033   2.642   4.486 -0.3753  0.3225  1.0024
18844TIP3    H278024   5.941   2.531   4.530 -0.3869  0.2299  0.7455
18845TIP3   OH278025   0.390   5.045   0.683  0.3203  0.6851 -0.7276
18845TIP3    H178026   0.472   5.076   0.722  0.1608 -1.4896  1.6282
18845TIP3    H278027   0.418   4.977   0.621  0.3822 -0.4393  0.4641
18846TIP3   OH278028   1.254   6.435  14.441  0.2567 -0.0255 -0.0630
18846TIP3    H178029   1.260   6.380  14.363  0.0118  0.3542 -0.3532
18846TIP3    H278030   1.239   6.374  14.512  2.1468 -0.5393 -0.0568
18847TIP3   OH278031   3.116   0.015  13.978  0.1475 -0.2213  0.3605
18847TIP3    H178032   3.118  -0.023  13.890 -1.4101  0.4581 -0.0224
18847TIP3    H278033   3.207   0.031  14.000  0.5365  0.5110 -1.5725
18848TIP3   OH278034   5.870   5.910  11.164  0.0063 -0.0864  0.2941
18848TIP3    H178035   5.789   5.866  11.189  0.6117 -1.4520 -0.0531
18848TIP3    H278036   5.929   5.839  11.139  1.5221  0.8245  1.1163
18849TIP3   OH278037   4.121   3.415  13.816  0.8289 -0.3415 -0.0088
18849TIP3    H178038   4.131   3.328  13.778  0.5714  0.0628 -1.0284
18849TIP3    H278039   4.087   3.399  13.904  2.5648 -1.3541  0.5314
18850TIP3   OH278040   3.125   1.056  13.777 -0.5942  0.3455 -0.1479
18850TIP3    H178041   3.121   1.108  13.858  0.1650  1.6432 -0.8993
18850TIP3    H278042   3.093   0.970  13.802 -0.0288  0.6066  1.6336
18851TIP3   OH278043   3.783   1.003   4.660 -0.6675  0.1590 -0.6496
18851TIP3    H178044   3.785   0.915   4.622 -2.2180 -0.6607  1.0441
18851TIP3    H278045   3.867   1.011   4.706 -1.3920 -1.3244  1.0137
18852TIP3   OH278046   0.727   2.991   2.269  0.1820  0.3248  0.2843
18852TIP3    H178047   0.770   2.950   2.194 -1.0060 -0.5781  0.0752
18852TIP3    H278048   0.799   3.032   2.317  1.7119 -2.9774  1.1506
18853TIP3   OH278049   1.264   6.252  15.008 -0.2311 -0.3917  0.0169
18853TIP3    H178050   1.264   6.333  14.957  0.3384 -0.4218 -0.0387
18853TIP3    H278051   1.239   6.279  15.096  1.6917  0.1435  0.4404
18854TIP3   OH278052   6.672   6.656  17.132 -0.6054 -0.3629 -0.1296
18854TIP3    H178053   6.662   6.743  17.094  0.8409 -0.1932 -0.1686
18854TIP3    H278054   6.626   6.598  17.070 -0.7287  0.2474 -0.6240
18855TIP3   OH278055   1.635   5.201  14.630 -0.5307  0.0427  0.8272
18855TIP3    H178056   1.647   5.178  14.723  0.2716 -0.2935  0.6504
18855TIP3    H278057   1.580   5.131  14.595 -1.7388  0.7357  1.2818
18856TIP3   OH278058   4.504   0.229   2.266  0.1535  0.0315  0.2309
18856TIP3    H178059   4.534   0.138   2.277 -1.7006 -0.4343  1.9857
18856TIP3    H278060   4.583   0.281   2.281  1.0193 -1.2620  0.3676
18857TIP3   OH278061   1.322   4.115   1.925 -0.7094 -0.2190 -0.4282
18857TIP3    H178062   1.365   4.183   1.872  1.8890 -1.2169  0.2650
18857TIP3    H278063   1.287   4.054   1.860  0.8176 -0.4757 -1.0476
18858TIP3   OH278064   6.180   5.826   3.834  0.0629 -0.0701 -0.1086
18858TIP3    H178065   6.143   5.914   3.822 -0.5923 -0.3311 -0.0655
18858TIP3    H278066   6.127   5.770   3.778  1.0116 -0.3214 -0.7782
18859TIP3   OH278067   3.461   2.190  14.785 -0.6369  0.4588 -0.3781
18859TIP3    H178068   3.397   2.210  14.717 -1.5055 -0.2208  0.2162
18859TIP3    H278069   3.498   2.275  14.808 -0.6079  0.7459 -1.4139
18860TIP3   OH278070   4.018   2.729  13.693 -0.3905  0.2903  0.3325
18860TIP3    H178071   3.945   2.789  13.687  0.1398  0.9005 -0.2500
18860TIP3    H278072   4.089   2.780  13.731 -0.0913 -0.1202  0.3416
18861TIP3   OH278073   0.607   5.713   3.568  0.4300 -0.1536  0.0105
18861TIP3    H178074   0.565   5.644   3.517 -0.1197 -0.8345  1.3254
18861TIP3    H278075   0.535   5.763   3.606  0.7869 -0.4948  1.1900
18862TIP3   OH278076   3.286   1.510   6.277  0.5196  0.1100 -0.1040
18862TIP3    H178077   3.206   1.486   6.324  0.6584 -0.5571 -0.1984
18862TIP3    H278078   3.332   1.569   6.336  0.5624 -0.5109  0.4886
18863TIP3   OH278079   0.481   5.231   1.318  0.1659  0.1381  0.1303
18863TIP3    H178080   0.465   5.223   1.412 -0.7715  0.1838 -0.0098
18863TIP3    H278081   0.563   5.184   1.303  0.3964  0.2495  0.9872
18864TIP3   OH278082   2.235   4.368  10.902  0.4225 -0.1045  0.0472
18864TIP3    H178083   2.171   4.439  10.909  1.5610  1.0764 -1.2630
18864TIP3    H278084   2.237   4.330  10.990  0.2036  1.8496  0.9515
18865TIP3   OH278085   1.688   0.284   3.524  0.2643  0.5113  0.3174
18865TIP3    H178086   1.721   0.227   3.454  1.6140  0.6662  0.7847
18865TIP3    H278087   1.600   0.253   3.542  0.2445 -0.1196 -0.8249
18866TIP3   OH278088   4.218   3.182   0.059  0.7726  0.0764  0.3108
18866TIP3    H178089   4.149   3.241   0.088  0.8938  0.3795 -0.0140
18866TIP3    H278090   4.178   3.095   0.063  0.3909  0.2441  0.1703
18867TIP3   OH278091   0.732   3.550   2.563  0.4562  0.6535  0.1374
18867TIP3    H178092   0.775   3.559   2.479 -0.2140 -2.5683 -0.6562
18867TIP3    H278093   0.747   3.459   2.589 -2.1728  0.6114  1.8728
18868TIP3   OH278094   5.359   0.229  16.002  0.3827 -0.0997 -0.4066
18868TIP3    H178095   5.405   0.217  16.085 -0.7208  3.2671  0.8378
18868TIP3    H278096   5.423   0.271  15.944  0.1064  0.8769 -0.0189
18869TIP3   OH278097   2.614   3.851   2.611 -0.5488 -0.7189 -0.3344
18869TIP3    H178098   2.565   3.931   2.629 -0.5406 -0.5995 -0.8204
18869TIP3    H278099   2.556   3.780   2.638  0.2279 -0.5325  2.0126
18870TIP3   OH278100   2.491   1.870   6.295  0.0036  0.7576 -0.0576
18870TIP3    H178101   2.544   1.855   6.373  1.0112  0.5201 -0.7684
18870TIP3    H278102   2.410   1.822   6.311  1.2399 -1.5192 -0.2443
18871TIP3   OH278103   4.659   6.491  16.943 -0.2816  0.4119 -0.3915
18871TIP3    H178104   4.654   6.552  17.017  1.0548 -1.4894  1.4034
18871TIP3    H278105   4.656   6.404  16.983  0.3294 -0.7167 -2.5990
18872TIP3   OH278106   5.216   6.574  11.164  0.3420 -0.0563  0.2232
18872TIP3    H178107   5.227   6.651  11.109  0.1015 -0.1964 -0.0251
18872TIP3    H278108   5.258   6.503  11.115 -1.4085 -0.5507 -0.6310
18873TIP3   OH278109   4.305   2.542   4.341 -0.2998  0.2504 -0.4759
18873TIP3    H178110   4.225   2.527   4.292  0.3105 -0.6017 -1.2604
18873TIP3    H278111   4.351   2.610   4.293 -1.0966  1.6486  0.6748
18874TIP3   OH278112   4.774   2.820  16.021 -0.0360  0.1302  0.4554
18874TIP3    H178113   4.812   2.739  16.054  0.7018 -0.2526 -1.2503
18874TIP3    H278114   4.775   2.879  16.096  0.2481 -1.1434  1.4883
18875TIP3   OH278115   2.142   2.789   2.492  0.7432 -0.3466  0.1946
18875TIP3    H178116   2.185   2.863   2.535  0.1649  0.4441 -0.5430
18875TIP3    H278117   2.195   2.713   2.515  2.2809  0.5229 -0.3518
18876TIP3   OH278118   6.656   6.620  13.427 -0.0997 -0.1783 -0.0343
18876TIP3    H178119   6.720   6.650  13.492 -0.1627 -2.0946  0.9739
18876TIP3    H278120   6.571   6.642  13.466 -0.1154  0.1773 -0.2615
18877TIP3   OH278121   0.453   3.887   3.244  0.0289  0.2713  0.1207
18877TIP3    H178122   0.482   3.808   3.289 -1.6279  0.0954  0.9530
18877TIP3    H278123   0.456   3.864   3.151 -0.9350 -0.9557  0.3768
18878TIP3   OH278124   4.677   4.047   5.677 -0.2746  0.1509  0.3101
18878TIP3    H178125   4.661   4.117   5.740 -0.1520  0.5991 -0.1471
18878TIP3    H278126   4.620   4.067   5.603 -0.3799 -0.3418  0.2516
18879TIP3   OH278127   6.257   3.902  13.511 -0.2253  0.1734 -0.1680
18879TIP3    H178128   6.265   3.870  13.422 -1.3915  1.0333 -0.6152
18879TIP3    H278129   6.179   3.859  13.546  0.1598 -0.0756  0.3983
18880TIP3   OH278130   5.065   4.335  12.801 -0.3972  0.0582 -0.1970
18880TIP3    H178131   4.972   4.331  12.819 -0.5022  0.9935 -0.4653
18880TIP3    H278132   5.101   4.394  12.868  0.2090 -1.1920  0.6260
18881TIP3   OH278133   0.609   4.710   3.547  0.2113  0.7050  0.2094
18881TIP3    H178134   0.660   4.685   3.625 -2.4404 -0.4811  1.7110
18881TIP3    H278135   0.611   4.806   3.547  0.9516  0.7115  1.2629
18882TIP3   OH278136   5.503   5.018  11.047  0.6223 -0.2618  0.5095
18882TIP3    H178137   5.458   5.030  11.131  0.0479 -0.4284  0.2275
18882TIP3    H278138   5.584   5.067  11.056  0.8811 -0.8294  1.4135
18883TIP3   OH278139   0.867   0.866   4.438 -0.3280  0.5702  1.3804
18883TIP3    H178140   0.960   0.847   4.448 -0.7166 -1.8502  0.8985
18883TIP3    H278141   0.865   0.948   4.387  1.5780 -0.6647 -0.8963
18884TIP3   OH278142   4.038   2.386  12.485 -0.6716  0.1644 -0.0204
18884TIP3    H178143   4.092   2.465  12.486 -0.8971  0.3172  0.2672
18884TIP3    H278144   3.977   2.399  12.412 -1.5854  0.8563  0.8425
18885TIP3   OH278145   4.818   0.653   1.102 -0.0976  0.1131  0.0700
18885TIP3    H178146   4.768   0.659   1.183 -0.5761  0.0938 -0.2245
18885TIP3    H278147   4.829   0.744   1.074 -1.6937  0.0434 -0.9135
18886TIP3   OH278148   4.738   2.321   1.105  0.2869 -0.2137  0.4823
18886TIP3    H178149   4.713   2.412   1.088 -0.3318 -0.2009  1.4176
18886TIP3    H278150   4.656   2.276   1.124  0.3712 -1.3375 -1.4514
18887TIP3   OH278151   0.541   0.147   2.043  0.1201  0.1139 -0.5260
18887TIP3    H178152   0.571   0.112   2.127 -1.2630  2.5163  1.1042
18887TIP3    H278153   0.455   0.107   2.030  0.2250 -0.0682 -0.6502
18888TIP3   OH278154   2.510   0.330  15.457  0.1697 -0.0258 -1.0144
18888TIP3    H178155   2.578   0.284  15.408 -0.0060 -1.3521 -0.0711
18888TIP3    H278156   2.488   0.271  15.529  0.3213  1.7779  0.6157
18889TIP3   OH278157   3.958   5.488   3.256  0.0931 -0.2067 -0.0741
18889TIP3    H178158   4.047   5.514   3.278  1.0360 -1.2936 -2.3081
18889TIP3    H278159   3.928   5.552   3.192 -0.1841 -0.6491 -0.4009
18890TIP3   OH278160   2.398   5.535  13.980  0.1170 -0.2851 -0.6497
18890TIP3    H178161   2.484   5.498  13.959  0.5910  2.4505 -4.5782
18890TIP3    H278162   2.337   5.462  13.966  1.5132 -1.3723 -1.3583
18891TIP3   OH278163   4.529   0.141  11.620 -0.0704 -0.3005  0.4653
18891TIP3    H178164   4.622   0.123  11.613  0.5219  2.4536  0.2343
18891TIP3    H278165   4.503   0.168  11.532 -0.5473  1.1320  1.0196
18892TIP3   OH278166   6.798   5.822  10.570  0.3913 -0.2231  0.0414
18892TIP3    H178167   6.753   5.815  10.486 -1.3324  2.6982  0.6083
18892TIP3    H278168   6.748   5.764  10.628  2.7118 -3.7836 -1.1744
18893TIP3   OH278169   1.434   5.560  15.660  0.0185 -0.4372 -0.2805
18893TIP3    H178170   1.367   5.545  15.593  0.0510  1.0492 -0.6791
18893TIP3    H278171   1.410   5.502  15.732 -0.8484 -1.0003 -1.0099
18894TIP3   OH278172   4.381   0.014  15.367 -0.3158  0.0329  0.3077
18894TIP3    H178173   4.364  -0.017  15.456 -0.0809 -1.0899 -0.0210
18894TIP3    H278174   4.454  -0.040  15.336 -0.8659 -0.1057 -0.8176
18895TIP3   OH278175   6.819   0.388  12.618  0.0855 -0.2621  0.0916
18895TIP3    H178176   6.897   0.339  12.644  0.0318 -0.0366  0.6963
18895TIP3    H278177   6.746   0.339  12.657 -0.1677 -1.0102 -1.2611
18896TIP3   OH278178   6.650   5.797   2.058 -0.0745 -0.5408  0.1100
18896TIP3    H178179   6.695   5.763   2.135 -0.2987  1.1828  1.0461
18896TIP3    H278180   6.702   5.873   2.031 -0.8244 -0.2387 -0.5316
18897TIP3   OH278181   1.058   2.073   3.942 -0.7042 -0.1192 -0.9429
18897TIP3    H178182   0.988   2.011   3.963 -1.3050  0.1075 -2.2008
18897TIP3    H278183   1.138   2.019   3.943 -1.0153 -0.5824 -0.4663
18898TIP3   OH278184   1.476   1.282   3.758  0.1165 -0.3777  0.2589
18898TIP3    H178185   1.571   1.278   3.771 -0.2449 -1.8329  3.3923
18898TIP3    H278186   1.447   1.347   3.822 -0.9624  0.8055 -1.3722
18899TIP3   OH278187   0.627   1.785   0.490 -0.3249  0.1790 -0.6238
18899TIP3    H178188   0.722   1.783   0.487 -0.3420 -1.0710 -0.7474
18899TIP3    H278189   0.607   1.851   0.557  0.6711 -0.9491  0.8452
18900TIP3   OH278190   2.142   5.002   2.856 -0.3295  0.3166  0.1144
18900TIP3    H178191   2.181   4.935   2.913  1.9061  2.3197  1.1286
18900TIP3    H278192   2.118   4.955   2.776  0.1811 -1.8492  1.1597
18901TIP3   OH278193   4.183   2.160  12.412 -0.2005 -0.1734  0.0758
18901TIP3    H178194   4.137   2.240  12.439  2.1126  1.0745  0.5375
18901TIP3    H278195   4.179   2.103  12.489 -2.1306 -0.7099 -0.3579
18902TIP3   OH278196   3.227   5.050  13.143  0.0210  0.7580  0.4877
18902TIP3    H178197   3.153   4.998  13.113  0.7758  0.3790 -0.8065
18902TIP3    H278198   3.190   5.110  13.207 -1.2940  0.1928  0.2916
18903TIP3   OH278199   4.104   1.539   4.134 -0.3549 -0.5416 -0.8882
18903TIP3    H178200   4.180   1.486   4.109  0.1019  0.1945 -1.0825
18903TIP3    H278201   4.030   1.496   4.091  0.1064 -0.6197 -1.6260
18904TIP3   OH278202   2.947   5.742   0.142  0.8226  0.3742 -0.1381
18904TIP3    H178203   3.005   5.754   0.066  1.3218 -0.7613  0.0537
18904TIP3    H278204   2.863   5.780   0.114  0.3939 -1.7858 -2.0309
18905TIP3   OH278205   3.951   3.826  10.582 -0.4856 -0.2566 -0.3441
18905TIP3    H178206   3.943   3.886  10.656  0.4693 -1.5914  0.8863
18905TIP3    H278207   3.990   3.879  10.512 -2.5602  1.3597 -0.3690
18906TIP3   OH278208   4.611   5.493  17.223 -0.7453 -0.0028 -0.1890
18906TIP3    H178209   4.566   5.498  17.307 -0.0416  1.3054  0.1290
18906TIP3    H278210   4.682   5.430  17.238 -1.2429 -0.5597 -0.1228
18907TIP3   OH278211   6.555   5.091   4.997  0.6560 -0.2551  0.5334
18907TIP3    H178212   6.500   5.025   4.955  1.2180  0.6342 -1.7931
18907TIP3    H278213   6.636   5.044   5.019  0.5965 -0.6214 -0.0006
18908TIP3   OH278214   5.002   6.020   4.445  0.0949  0.1698  0.2956
18908TIP3    H178215   4.968   6.067   4.521  3.2823  0.9783  1.4190
18908TIP3    H278216   5.085   5.982   4.477  0.7172 -0.9006 -2.3445
18909TIP3   OH278217   4.862   5.332   2.607  1.1758  0.3655  0.3788
18909TIP3    H178218   4.887   5.385   2.683  1.4280  1.0416 -0.1662
18909TIP3    H278219   4.805   5.264   2.643 -1.7641  2.8025  0.6840
18910TIP3   OH278220   6.008   0.400  14.295  0.2476  0.0538  0.2627
18910TIP3    H178221   5.956   0.450  14.358  0.1659 -0.1484  0.3571
18910TIP3    H278222   6.028   0.463  14.226  2.8946  1.1228  1.8746
18911TIP3   OH278223   6.379   0.511   5.252  0.2661 -0.2149  0.0064
18911TIP3    H178224   6.371   0.426   5.294  1.3313 -0.3425 -0.0107
18911TIP3    H278225   6.352   0.496   5.161 -0.0420 -0.4176  0.1314
18912TIP3   OH278226   3.330   6.397   0.536  0.8785 -0.0858  0.3672
18912TIP3    H178227   3.423   6.374   0.540  0.7438 -0.6682  0.3125
18912TIP3    H278228   3.319   6.438   0.450  1.4624  1.7792  1.1373
18913TIP3   OH278229   0.090   2.500  16.703  0.0821  0.0664  0.4948
18913TIP3    H178230   0.029   2.531  16.769  1.7863  2.2749  1.1532
18913TIP3    H278231   0.071   2.552  16.625  1.9608  1.8508  1.1403
18914TIP3   OH278232   6.523   2.951  16.838 -0.4117  0.3312  0.0248
18914TIP3    H178233   6.441   2.988  16.871 -0.2494  0.2976  0.4734
18914TIP3    H278234   6.587   3.021  16.850 -0.4637  0.5212 -0.7510
18915TIP3   OH278235   5.570   5.420  16.533 -0.2913  0.0627 -0.0775
18915TIP3    H178236   5.480   5.449  16.518  0.4671  1.7357 -1.7734
18915TIP3    H278237   5.563   5.325  16.546 -2.5483  0.4829  2.5530
18916TIP3   OH278238   5.404   5.637   2.900 -0.4597  0.0056  0.3862
18916TIP3    H178239   5.328   5.635   2.958 -1.7211 -2.9186 -1.1603
18916TIP3    H278240   5.395   5.719   2.851 -3.0633 -0.5220 -0.1867
18917TIP3   OH278241   2.105   2.435  14.936 -0.4241  0.0502 -0.5358
18917TIP3    H178242   2.180   2.458  14.990 -2.3446  0.1469  2.3372
18917TIP3    H278243   2.086   2.514  14.885  1.0055  0.2146 -0.8384
18918TIP3   OH278244   0.277   6.396   3.331  0.6116  0.3215 -0.1297
18918TIP3    H178245   0.200   6.340   3.323  1.2944 -1.1970  2.6475
18918TIP3    H278246   0.273   6.430   3.420  3.9121 -1.0965  0.7117
18919TIP3   OH278247   2.346   1.075  12.789 -0.1413  0.8798  0.5890
18919TIP3    H178248   2.429   1.116  12.815  1.2854 -1.2963 -0.2618
18919TIP3    H278249   2.367   0.983  12.778 -1.7362  0.8012 -3.4358
18920TIP3   OH278250   2.434   4.094  10.430 -0.2502  0.0417  0.3978
18920TIP3    H178251   2.347   4.112  10.394  0.7428  0.7912 -1.7894
18920TIP3    H278252   2.418   4.073  10.522 -2.6508  0.9448  0.2496
18921TIP3   OH278253   2.605   1.538   0.022 -0.6421  0.3891  0.0080
18921TIP3    H178254   2.576   1.552  -0.068 -0.8734  0.8100  0.1451
18921TIP3    H278255   2.622   1.444   0.028  0.9694  0.5708 -0.9594
18922TIP3   OH278256   4.627   2.173  14.570  0.1376  0.7030  0.8113
18922TIP3    H178257   4.679   2.140  14.643 -0.6911 -1.4828  0.5116
18922TIP3    H278258   4.541   2.191  14.608  0.3126  1.6551  0.7745
18923TIP3   OH278259   3.516   3.252   2.684  0.2678 -0.2308 -0.0866
18923TIP3    H178260   3.534   3.165   2.718  1.2458  0.3198  0.8523
18923TIP3    H278261   3.420   3.259   2.685  0.1609 -1.3948 -0.4866
18924TIP3   OH278262   1.011   1.200   6.047 -0.7000 -0.1229 -0.3816
18924TIP3    H178263   0.975   1.263   6.109 -2.6092 -1.6197  0.1568
18924TIP3    H278264   0.977   1.228   5.962  0.2671  0.7931 -0.4763
18925TIP3   OH278265   4.507   5.420   4.545 -0.4063 -0.2513  0.4478
18925TIP3    H178266   4.502   5.490   4.609  0.8507  0.1905  0.0916
18925TIP3    H278267   4.560   5.456   4.474 -1.2523 -0.9392 -0.5618
18926TIP3   OH278268   3.517   3.475  15.932 -0.2077 -0.5201  0.1401
18926TIP3    H178269   3.472   3.463  16.015 -1.7218  1.5316 -0.3079
18926TIP3    H278270   3.473   3.415  15.871 -1.9999  1.0073 -0.1395
18927TIP3   OH278271   0.748   0.355   3.478  0.2079 -0.4218  0.0823
18927TIP3    H178272   0.761   0.443   3.442  1.8413 -0.7569 -0.2058
18927TIP3    H278273   0.737   0.369   3.572 -2.1956  0.2888 -0.2396
18928TIP3   OH278274   2.955   6.643   3.989  0.3562  0.0786 -0.3426
18928TIP3    H178275   2.981   6.576   4.052  2.9229  0.3357 -1.0022
18928TIP3    H278276   2.933   6.595   3.910 -0.6208 -0.1087  0.0273
18929TIP3   OH278277   6.491   6.441   0.727  0.0554 -0.4002 -0.3829
18929TIP3    H178278   6.485   6.446   0.632  0.2503  0.1107 -0.3742
18929TIP3    H278279   6.533   6.523   0.753  2.0170 -1.4579 -0.0242
18930TIP3   OH278280   1.144   6.464  15.510 -0.0494 -0.0888 -0.3688
18930TIP3    H178281   1.117   6.393  15.452 -0.0170 -0.8431  0.5273
18930TIP3    H278282   1.089   6.453  15.588  0.4892  0.4092  0.0849
18931TIP3   OH278283   2.831   4.208  12.297 -0.0343  0.0221  0.1206
18931TIP3    H178284   2.755   4.231  12.350 -0.3818 -1.3057  0.2240
18931TIP3    H278285   2.800   4.140  12.238  1.3882 -1.5689  1.1164
18932TIP3   OH278286   5.142   5.682  15.887 -0.0045 -0.3334 -0.0095
18932TIP3    H178287   5.172   5.770  15.865 -6.0508  1.9403 -0.9846
18932TIP3    H278288   5.137   5.636  15.803 -3.1414  0.9540 -0.6513
18933TIP3   OH278289   2.454   1.577   1.228 -0.2542 -0.1251  0.0022
18933TIP3    H178290   2.386   1.641   1.207  1.3150  1.0171 -2.0041
18933TIP3    H278291   2.512   1.578   1.151  2.0637 -0.9986  1.6323
18934TIP3   OH278292   1.559   6.259   0.192  0.0811 -0.0312  0.9637
18934TIP3    H178293   1.471   6.243   0.226  0.7166 -1.6016  1.9856
18934TIP3    H278294   1.568   6.197   0.120  0.5780 -0.3343  1.2861
18935TIP3   OH278295   1.916   0.390  16.622 -0.3757  0.1610  0.0200
18935TIP3    H178296   1.953   0.422  16.539  1.5043 -2.5786 -0.3368
18935TIP3    H278297   1.880   0.468  16.663  1.0730  2.1198 -2.1416
18936TIP3   OH278298   6.393   5.675   2.348  0.1810 -0.1433  0.1324
18936TIP3    H178299   6.383   5.586   2.381 -2.1550  0.6408  1.8104
18936TIP3    H278300   6.369   5.669   2.256 -2.0235 -0.9604  0.7057
18937TIP3   OH278301   1.965   4.889   5.957 -0.1025  0.0385 -0.1285
18937TIP3    H178302   1.893   4.867   5.898 -0.6089  1.2636 -0.0049
18937TIP3    H278303   1.936   4.858   6.043 -1.8076  2.8842  0.4895
18938TIP3   OH278304   3.756   5.195   6.091 -0.1480 -0.3053 -0.0889
18938TIP3    H178305   3.776   5.266   6.151  0.8104  0.7531 -1.5825
18938TIP3    H278306   3.837   5.143   6.089  0.2305  0.2878 -1.2370
18939TIP3   OH278307   1.826   4.522   0.535 -0.5064 -0.2790  0.9475
18939TIP3    H178308   1.782   4.519   0.621 -1.9408 -0.0764  0.2516
18939TIP3    H278309   1.783   4.453   0.484  1.2210 -1.2786  0.7659
18940TIP3   OH278310   4.241   4.193   5.606 -0.0428 -0.2923 -0.3350
18940TIP3    H178311   4.302   4.255   5.645 -0.2893  0.4549 -1.1013
18940TIP3    H278312   4.281   4.168   5.523  0.2051 -1.4232  0.1080
18941TIP3   OH278313   1.941   0.107   5.050  0.3251  0.6314  0.4423
18941TIP3    H178314   1.947   0.173   4.981 -3.0241  0.5540 -0.0937
18941TIP3    H278315   1.969   0.153   5.130  0.0914  2.0444 -0.2587
18942TIP3   OH278316   3.033   1.762  14.454 -0.3947 -0.0454 -0.2371
18942TIP3    H178317   3.019   1.668  14.442  1.7530 -0.8164  2.3400
18942TIP3    H278318   2.962   1.790  14.511 -0.6263 -0.2622 -0.4145
18943TIP3   OH278319   1.528   0.440   5.319  0.1517 -0.5250  0.0062
18943TIP3    H178320   1.474   0.444   5.240  1.1152 -1.7572 -0.7531
18943TIP3    H278321   1.540   0.531   5.344 -0.5066 -0.1249 -1.0407
18944TIP3   OH278322   3.394   0.070  11.943  0.0612 -0.2333  0.0250
18944TIP3    H178323   3.466   0.037  11.997  1.1897  0.1597 -1.1777
18944TIP3    H278324   3.317   0.066  12.000  1.0656 -0.4906  1.4133
18945TIP3   OH278325   4.774   2.131   3.998  0.2657 -0.1459 -0.2790
18945TIP3    H178326   4.679   2.120   4.008  0.1050  0.7109 -0.6762
18945TIP3    H278327   4.801   2.178   4.077 -0.1842  2.3080 -1.4804
18946TIP3   OH278328   2.912   4.878  12.702  0.3866 -0.1035 -0.0014
18946TIP3    H178329   2.819   4.860  12.717  0.3107  0.2962  0.0156
18946TIP3    H278330   2.912   4.953  12.643  0.7042  0.2156  0.4103
18947TIP3   OH278331   5.302   3.362  17.147  0.4130  0.1270 -0.0131
18947TIP3    H178332   5.258   3.374  17.231 -1.9781 -1.8356 -0.8556
18947TIP3    H278333   5.360   3.287  17.161  2.6721  1.8905  0.7220
18948TIP3   OH278334   0.482   3.953   1.306 -0.5035  0.1386 -0.0136
18948TIP3    H178335   0.521   3.933   1.221 -0.9102  0.1195 -0.1987
18948TIP3    H278336   0.553   3.995   1.356 -0.4072  0.6232 -0.5425
18949TIP3   OH278337   6.278   4.311   5.438 -0.2681  0.1395 -0.0862
18949TIP3    H178338   6.214   4.308   5.510  0.4097  1.5421  0.6203
18949TIP3    H278339   6.363   4.311   5.481  0.1476  2.4350 -0.7417
18950TIP3   OH278340   5.207   4.096  12.836  0.0563  0.0354 -0.5794
18950TIP3    H178341   5.293   4.107  12.876  0.6492 -0.5221 -1.6668
18950TIP3    H278342   5.164   4.180  12.849 -0.2660 -0.4586  2.2795
18951TIP3   OH278343   4.413   5.822  12.865  0.2156 -0.3431 -0.2252
18951TIP3    H178344   4.455   5.821  12.779  1.1247 -0.2323  0.1980
18951TIP3    H278345   4.393   5.914  12.882 -2.7154 -0.6323 -1.5646
18952TIP3   OH278346   4.577   2.908   2.009 -0.2096  0.9335 -0.2646
18952TIP3    H178347   4.622   2.885   1.928 -0.0919 -1.0021  0.2980
18952TIP3    H278348   4.628   2.979   2.046 -0.7143  2.3992 -2.2342
18953TIP3   OH278349   1.739   6.657  13.697 -0.0314  0.5426 -0.7374
18953TIP3    H178350   1.709   6.576  13.737 -0.8611 -0.3932 -3.1007
18953TIP3    H278351   1.703   6.726  13.753 -1.1108 -0.6836  0.1240
18954TIP3   OH278352   0.731   4.034   4.393 -1.2986 -0.2168 -0.1333
18954TIP3    H178353   0.785   3.955   4.394 -0.7147  0.1516 -0.9768
18954TIP3    H278354   0.697   4.039   4.304  0.5202  1.6437 -0.8232
18955TIP3   OH278355   2.193   2.324  15.243 -0.0274 -0.0482 -0.4538
18955TIP3    H178356   2.110   2.277  15.231 -0.3344  0.4843 -0.4314
18955TIP3    H278357   2.167   2.413  15.268  0.5551  0.0003  0.0112
18956TIP3   OH278358   2.965   1.679  12.909  0.5480 -0.1485 -0.3748
18956TIP3    H178359   3.053   1.717  12.903  0.7754 -0.3991  1.0037
18956TIP3    H278360   2.916   1.720  12.838  0.6192  3.1425  1.2900
18957TIP3   OH278361   2.005   3.514   0.359  0.1810  0.7394  0.2420
18957TIP3    H178362   1.929   3.572   0.348 -0.2868  0.0415 -0.3290
18957TIP3    H278363   2.024   3.517   0.453  0.4649  2.1676  0.1603
18958TIP3   OH278364   2.000   3.465   2.317 -0.1465 -0.3091 -0.4594
18958TIP3    H178365   1.942   3.491   2.245 -1.7159 -0.7653  0.5948
18958TIP3    H278366   2.014   3.371   2.303  0.6402 -0.1334 -0.9016
18959TIP3   OH278367   6.456   4.905  13.024  0.3324  0.1782 -0.8194
18959TIP3    H178368   6.530   4.929  12.968  0.3312  1.4043 -0.3205
18959TIP3    H278369   6.492   4.901  13.112 -0.5413  2.8032 -0.2648
18960TIP3   OH278370   2.570   2.620   0.094  0.1803  0.2522 -0.7342
18960TIP3    H178371   2.573   2.539   0.147 -0.3936  1.8936  2.0077
18960TIP3    H278372   2.659   2.655   0.101  0.1932  0.3080 -1.1882
18961TIP3   OH278373   4.801   6.112  13.806  0.2984  0.3556 -0.1606
18961TIP3    H178374   4.800   6.017  13.820 -1.4564  0.6466  2.3216
18961TIP3    H278375   4.745   6.126  13.730  1.4895 -0.6263 -1.2655
18962TIP3   OH278376   6.774   5.175  11.617  0.1218  0.0225  0.0200
18962TIP3    H178377   6.745   5.168  11.707 -0.8261 -0.8023 -0.3271
18962TIP3    H278378   6.803   5.266  11.607  0.8754 -0.0625  1.3225
18963TIP3   OH278379   6.403   6.151   0.073 -0.1405 -0.4561  0.3752
18963TIP3    H178380   6.342   6.077   0.070 -1.7972  0.8366  0.1684
18963TIP3    H278381   6.364   6.210   0.138  0.0285  1.1082 -0.8793
18964TIP3   OH278382   3.906   4.265   4.763 -0.6985  0.4726 -0.2083
18964TIP3    H178383   3.842   4.195   4.775 -0.7313  0.0788 -2.3646
18964TIP3    H278384   3.860   4.333   4.713 -0.3559  1.6233  0.9683
18965TIP3   OH278385   1.080   3.405   1.118 -0.2276  0.5458 -0.3099
18965TIP3    H178386   1.130   3.483   1.143  1.4675 -0.6904  0.3583
18965TIP3    H278387   1.094   3.396   1.024  0.1959  0.6253 -0.2552
18966TIP3   OH278388   1.052   1.870   2.767 -0.1943 -0.6809 -0.5659
18966TIP3    H178389   1.075   1.863   2.675  1.4777 -0.2011 -0.2078
18966TIP3    H278390   1.109   1.808   2.812  1.3481  1.3626  0.4798
18967TIP3   OH278391   3.886   1.562  12.270  0.2334 -0.1888 -0.6775
18967TIP3    H178392   3.906   1.469  12.266  2.8181  0.2093  0.4478
18967TIP3    H278393   3.893   1.592  12.179  0.5864 -0.8875 -0.8844
18968TIP3   OH278394   2.159   0.702  13.146 -0.5466 -0.1250 -0.0832
18968TIP3    H178395   2.132   0.730  13.058 -1.1423  0.1253  0.1679
18968TIP3    H278396   2.243   0.746  13.160 -0.1122 -0.7115 -0.7888
18969TIP3   OH278397   0.044   1.171  14.800 -0.0252 -0.6607  0.5426
18969TIP3    H178398  -0.007   1.192  14.722  1.1659 -0.3213 -0.1611
18969TIP3    H278399   0.102   1.101  14.773  0.3538 -0.5836  1.1370
18970TIP3   OH278400   4.470   1.287  16.041 -0.4293  0.4828  0.1921
18970TIP3    H178401   4.387   1.289  16.089  0.1556  1.2700  1.2230
18970TIP3    H278402   4.537   1.282  16.110  0.3833 -0.5142 -0.6261
18971TIP3   OH278403   4.846   4.950  13.788  0.0412 -0.0232  0.0560
18971TIP3    H178404   4.836   4.862  13.753 -1.6914  0.2889 -0.3141
18971TIP3    H278405   4.757   4.986  13.790  0.7239  1.8010 -0.0104
18972TIP3   OH278406   0.269   2.360  11.220  0.0093 -0.3338  0.4611
18972TIP3    H178407   0.224   2.316  11.292  0.5554  0.1787  1.1360
18972TIP3    H278408   0.263   2.299  11.146  0.2328 -1.2735  1.2000
18973TIP3   OH278409   5.738   3.078   0.711  0.3303 -0.2967 -0.0081
18973TIP3    H178410   5.715   3.157   0.663 -2.7326 -0.6641  0.6382
18973TIP3    H278411   5.701   3.091   0.798  1.9296 -1.4596  0.8956
18974TIP3   OH278412   2.309   0.797   2.060 -0.6561  0.6111  0.1598
18974TIP3    H178413   2.356   0.723   2.022 -0.5945  0.5522  0.3477
18974TIP3    H278414   2.325   0.869   1.998 -2.3313 -0.0009 -1.0369
18975TIP3   OH278415   0.521   2.497  11.975  0.1635  0.6607 -0.2640
18975TIP3    H178416   0.580   2.439  11.928 -0.5684  0.1788 -0.5932
18975TIP3    H278417   0.516   2.575  11.920  0.4286  0.6764 -0.2696
18976TIP3   OH278418   0.037   3.475   4.487 -0.3125  0.2168 -0.0514
18976TIP3    H178419  -0.042   3.524   4.463  0.1619  0.9927 -0.0388
18976TIP3    H278420   0.087   3.535   4.542  0.3191 -0.2535 -0.1056
18977TIP3   OH278421   6.363   2.900  12.022 -0.1275  0.1193 -0.4042
18977TIP3    H178422   6.419   2.837  11.975  2.6081  3.3745 -1.9378
18977TIP3    H278423   6.407   2.913  12.106  0.7958  1.7209 -1.0919
18978TIP3   OH278424   0.654   4.024   0.808 -0.1745  0.7603 -0.4283
18978TIP3    H178425   0.670   3.952   0.747 -1.0262  1.4160 -1.4880
18978TIP3    H278426   0.657   4.102   0.753  0.0449  1.4758  0.5733
18979TIP3   OH278427   3.885   4.949   3.596  0.0828  0.0456 -0.3096
18979TIP3    H178428   3.870   4.993   3.512 -0.8313  1.6142  0.6239
18979TIP3    H278429   3.974   4.975   3.621  0.2774 -0.2551 -0.6705
18980TIP3   OH278430   5.252   5.709   3.133 -0.1094 -0.0434 -0.1216
18980TIP3    H178431   5.314   5.774   3.166 -0.2953 -1.7832  4.3372
18980TIP3    H278432   5.185   5.760   3.088  1.3718  2.4547  0.3154
18981TIP3   OH278433   2.097   4.605  17.126 -0.0479 -0.3699  0.2044
18981TIP3    H178434   2.071   4.697  17.128  0.4192 -0.2481  0.9382
18981TIP3    H278435   2.014   4.558  17.113 -0.3176  0.1338  0.0453
18982TIP3   OH278436   1.534   3.062   0.923 -0.5782 -0.1270 -0.3404
18982TIP3    H178437   1.455   3.109   0.898 -0.2648 -0.0567 -1.2733
18982TIP3    H278438   1.515   2.970   0.905 -0.1404 -0.0140 -1.5002
18983TIP3   OH278439   5.044   4.671  10.007 -0.4132 -0.5474 -0.0617
18983TIP3    H178440   4.982   4.598  10.007 -1.4756  0.3173  1.1175
18983TIP3    H278441   4.991   4.748  10.023  0.3462  0.8979 -3.6063
18984TIP3   OH278442   0.188   4.408   3.221  0.2544  0.4262  0.2263
18984TIP3    H178443   0.260   4.469   3.239  0.9551 -0.4517  0.4893
18984TIP3    H278444   0.125   4.425   3.291  0.4132  0.8769  0.2669
18985TIP3   OH278445   2.197   0.722   4.939  0.2549  0.2513 -0.4728
18985TIP3    H178446   2.155   0.677   4.865 -0.0659 -1.8151  0.8843
18985TIP3    H278447   2.287   0.737   4.910  0.0940 -0.3881 -1.3544
18986TIP3   OH278448   3.268   5.997   3.658 -0.0794 -0.5863  0.1069
18986TIP3    H178449   3.256   6.043   3.575  2.8967 -2.3120 -1.4628
18986TIP3    H278450   3.297   6.065   3.719 -1.5307  0.5689 -0.4348
18987TIP3   OH278451   5.330   1.315   5.054 -0.2696 -0.1101 -0.1874
18987TIP3    H178452   5.307   1.259   4.980  0.7033  0.6899 -1.1303
18987TIP3    H278453   5.415   1.352   5.030  0.7114 -0.8304  1.9077
18988TIP3   OH278454   3.321   4.552  16.343  0.2444 -0.4403  0.3879
18988TIP3    H178455   3.298   4.640  16.373 -1.4602 -0.9861  0.7891
18988TIP3    H278456   3.410   4.562  16.307  0.5759  1.1724  1.5063
18989TIP3   OH278457   4.512   5.729  12.579  0.6184  0.3122 -0.1885
18989TIP3    H178458   4.465   5.779  12.512  1.0945  0.3823 -0.4776
18989TIP3    H278459   4.602   5.763  12.575  0.3496  1.3014  1.4437
18990TIP3   OH278460   5.878   0.571  16.369 -0.1696 -0.4788 -0.1195
18990TIP3    H178461   5.936   0.543  16.298  0.5075 -0.1617  0.2890
18990TIP3    H278462   5.935   0.572  16.446 -0.6910 -0.0089  0.2661
18991TIP3   OH278463   4.949   0.721   2.071  0.9311 -0.1021 -0.5847
18991TIP3    H178464   4.932   0.770   1.991  1.1209 -1.1194 -1.2573
18991TIP3    H278465   4.969   0.632   2.042 -3.3501 -1.7578  0.7095
18992TIP3   OH278466   3.040   4.347  14.778 -0.8785 -0.0466  0.3285
18992TIP3    H178467   3.078   4.397  14.706  0.0586  1.2697  1.6724
18992TIP3    H278468   2.947   4.367  14.775 -0.6829  0.8733  0.1281
18993TIP3   OH278469   4.829   6.253  16.812 -0.0789  0.8722 -0.3880
18993TIP3    H178470   4.819   6.288  16.901  0.4699  0.4116 -0.1349
18993TIP3    H278471   4.778   6.172  16.813  2.8479 -1.1604  0.7189
18994TIP3   OH278472   2.971   5.959   0.863 -0.9010  0.4962  0.4003
18994TIP3    H178473   2.970   5.982   0.770 -2.1618 -0.7636  0.0791
18994TIP3    H278474   3.048   6.005   0.898 -0.9590  1.7639 -1.0487
18995TIP3   OH278475   6.358   3.194   1.139  0.0561  0.4383  0.0858
18995TIP3    H178476   6.430   3.132   1.150 -0.0616  0.2909  0.0323
18995TIP3    H278477   6.301   3.177   1.214  0.6971  1.4085  0.8240
18996TIP3   OH278478   5.099   0.503   3.491  0.0943 -0.4035  0.3721
18996TIP3    H178479   5.081   0.575   3.431 -0.4323 -2.1557 -1.6601
18996TIP3    H278480   5.177   0.531   3.540  1.4348  0.5021 -2.1382
18997TIP3   OH278481   0.400   3.325   4.090 -0.3197  0.2305  0.6066
18997TIP3    H178482   0.316   3.355   4.125 -1.7378 -1.0233 -1.4999
18997TIP3    H278483   0.420   3.386   4.019  0.5703  0.5106  1.0796
18998TIP3   OH278484   3.352   4.456   1.301 -0.6171 -0.2007  0.7695
18998TIP3    H178485   3.327   4.439   1.210 -0.2809 -0.5302  0.7376
18998TIP3    H278486   3.306   4.388   1.351  2.2281 -2.5173  0.4569
18999TIP3   OH278487   6.266   0.680  13.067  0.1313  0.0332 -1.1621
18999TIP3    H178488   6.273   0.774  13.051 -0.2140  0.2099 -0.3212
18999TIP3    H278489   6.339   0.660  13.127 -1.3942  0.3182  0.9113
19000TIP3   OH278490   5.553   5.110   0.710 -0.1620 -0.2263  0.1532
19000TIP3    H178491   5.568   5.176   0.642  1.0419 -2.9551 -2.4966
19000TIP3    H278492   5.457   5.104   0.716 -0.2974  0.6167 -0.7574
19001TIP3   OH278493   0.221   5.444   4.939 -0.6905  0.3657 -0.2159
19001TIP3    H178494   0.166   5.506   4.891 -1.0534  0.8214  0.7691
19001TIP3    H278495   0.249   5.381   4.873 -2.1202  0.3099 -0.8042
19002TIP3   OH278496   4.188   5.169  15.645 -0.0098  0.0919  0.2749
19002TIP3    H178497   4.277   5.136  15.655 -0.9467 -1.8743  4.3407
19002TIP3    H278498   4.185   5.246  15.701 -0.7479  0.4779 -0.2762
19003TIP3   OH278499   2.362   5.881  12.033 -0.8864 -0.2177  0.3235
19003TIP3    H178500   2.334   5.918  12.117 -1.9271 -1.2987  0.4853
19003TIP3    H278501   2.284   5.835  12.000 -0.8178  1.0572 -1.7535
19004TIP3   OH278502   3.512   3.940  13.573 -0.5032  0.3084 -0.2016
19004TIP3    H178503   3.525   3.855  13.614  0.6449 -0.1992 -1.5281
19004TIP3    H278504   3.563   4.001  13.626  1.3905 -0.4211 -1.0711
19005TIP3   OH278505   3.684   3.468  14.732 -0.4729  0.1345  0.0508
19005TIP3    H178506   3.680   3.380  14.695 -2.0200  0.6076 -0.9582
19005TIP3    H278507   3.759   3.465  14.792  0.0991 -1.5740 -0.6983
19006TIP3   OH278508   3.330   1.261   0.871  0.2152 -0.7654 -0.2111
19006TIP3    H178509   3.316   1.236   0.780  0.7675 -2.3586  0.1094
19006TIP3    H278510   3.274   1.202   0.921 -0.7100  0.6334  0.4777
19007TIP3   OH278511   4.661   5.176   2.684  0.0634 -0.0383  0.6775
19007TIP3    H178512   4.693   5.126   2.760  3.0212  0.1687 -0.2855
19007TIP3    H278513   4.610   5.113   2.634 -0.7799 -0.5519  2.1177
19008TIP3   OH278514   0.466   2.802  15.869  0.3242  0.0306 -0.0422
19008TIP3    H178515   0.522   2.865  15.824 -0.0015  0.2064 -0.2008
19008TIP3    H278516   0.490   2.717  15.832  0.8389  0.0430  0.2486
19009TIP3   OH278517   0.207   2.320   0.442 -0.5712  0.2060 -0.2560
19009TIP3    H178518   0.243   2.231   0.451 -0.6628 -0.0298 -1.9047
19009TIP3    H278519   0.261   2.360   0.375 -0.4924  1.4482  0.5222
19010TIP3   OH278520   4.258   0.055  12.446 -0.5091 -0.0734 -0.1617
19010TIP3    H178521   4.234   0.099  12.528  0.5233  0.7429 -0.2833
19010TIP3    H278522   4.291   0.125  12.390  2.9422 -1.1610  0.2950
19011TIP3   OH278523   4.311   6.480   0.163 -0.0538  0.5012  0.1228
19011TIP3    H178524   4.322   6.553   0.102  1.3909  0.9870  0.9093
19011TIP3    H278525   4.383   6.490   0.225 -0.9079 -0.5606  1.3259
19012TIP3   OH278526   5.030   4.838   1.926  0.4884  0.1788 -0.1423
19012TIP3    H178527   4.982   4.921   1.932 -0.4493 -0.4766  2.8666
19012TIP3    H278528   4.973   4.782   1.873 -0.0171  0.7042 -0.1730
19013TIP3   OH278529   5.058   1.334   3.206  0.3530  0.2181 -0.0417
19013TIP3    H178530   4.987   1.339   3.143 -0.7687  0.1740  1.1806
19013TIP3    H278531   5.137   1.354   3.155 -0.5295  0.3436 -1.4031
19014TIP3   OH278532   2.997   6.122  12.738 -0.1001 -0.3923 -0.4798
19014TIP3    H178533   3.042   6.177  12.675 -0.5142 -1.2043 -1.5175
19014TIP3    H278534   2.908   6.156  12.740  0.2866  0.5947  0.8333
19015TIP3   OH278535   2.677   4.410   5.598 -0.1492  0.6224 -0.2359
19015TIP3    H178536   2.652   4.411   5.690 -0.4905  1.3822 -0.3256
19015TIP3    H278537   2.657   4.322   5.568  1.9621 -0.3352  0.9373
19016TIP3   OH278538   4.051   2.428  12.845  0.3228  0.2253  0.5828
19016TIP3    H178539   4.073   2.463  12.931 -0.7203  2.5671 -0.0275
19016TIP3    H278540   4.059   2.502  12.785 -0.2638 -1.0155 -1.1382
19017TIP3   OH278541   3.928   0.699   5.685  0.4092 -0.2444 -0.0596
19017TIP3    H178542   3.879   0.700   5.603  2.4645  1.2447 -1.3529
19017TIP3    H278543   3.870   0.744   5.747 -1.5296 -2.1361 -0.3663
19018TIP3   OH278544   5.208   1.949  11.800  0.4643  0.0650  0.1419
19018TIP3    H178545   5.204   1.927  11.707  0.5482 -0.1397  0.1872
19018TIP3    H278546   5.152   1.884  11.842  0.8092 -0.1365  0.2885
19019TIP3   OH278547   2.416   2.097   5.489  0.1072  0.3869 -0.0972
19019TIP3    H178548   2.489   2.152   5.462 -0.2615  1.1101  0.3469
19019TIP3    H278549   2.382   2.139   5.568 -0.3600 -0.3262  0.0936
19020TIP3   OH278550   1.742   2.870  14.294 -0.5800 -0.1695  0.6052
19020TIP3    H178551   1.803   2.912  14.233  0.6699 -0.0157  1.9228
19020TIP3    H278552   1.791   2.797  14.331 -2.1375 -1.7705 -0.3093
19021TIP3   OH278553   0.003   1.427   5.158 -0.8440 -0.3802 -0.0381
19021TIP3    H178554  -0.051   1.356   5.124 -0.4504  0.2083 -2.0112
19021TIP3    H278555  -0.022   1.503   5.106  0.0226  0.5170  0.8172
19022TIP3   OH278556   6.195   0.177  15.477 -0.0663 -0.2457 -0.2096
19022TIP3    H178557   6.249   0.165  15.555  1.4473 -0.5529 -1.2632
19022TIP3    H278558   6.106   0.153  15.506 -0.2596  2.8716  2.2901
19023TIP3   OH278559   0.136   4.819  11.944  0.3568 -0.7406 -0.5482
19023TIP3    H178560   0.148   4.880  12.017 -1.8444 -0.2460 -0.5255
19023TIP3    H278561   0.170   4.866  11.868 -0.6919  0.2746 -0.4197
19024TIP3   OH278562   6.385   1.305  11.514 -0.0449 -0.3469  0.5578
19024TIP3    H178563   6.430   1.318  11.598  0.3778  0.2119  0.2557
19024TIP3    H278564   6.423   1.372  11.456  0.4413 -1.4119 -0.3878
19025TIP3   OH278565   3.780   5.676   4.426 -0.2778  0.4839  0.0394
19025TIP3    H178566   3.853   5.734   4.408  0.5288 -0.7084 -0.6790
19025TIP3    H278567   3.703   5.733   4.427  0.3773  1.4564 -1.4173
19026TIP3   OH278568   5.836   4.870  15.763 -0.1288  0.0634 -0.1806
19026TIP3    H178569   5.755   4.826  15.790 -0.1428  0.3050  0.1659
19026TIP3    H278570   5.899   4.847  15.830 -0.2922  1.0695  0.3309
19027TIP3   OH278571   1.519   6.662  16.810  0.2395  0.4214 -0.0680
19027TIP3    H178572   1.596   6.689  16.859  0.1226  0.2093  0.2354
19027TIP3    H278573   1.547   6.662  16.719  0.7873 -0.2883  0.0895
19028TIP3   OH278574   2.543   5.735  14.636 -0.2372  0.2323  0.1517
19028TIP3    H178575   2.509   5.751  14.724 -1.5545 -1.0422 -0.0751
19028TIP3    H278576   2.638   5.728  14.647  0.0056  3.2780  0.9238
19029TIP3   OH278577   5.574   3.588  11.870  0.2827  0.3854  0.2019
19029TIP3    H178578   5.555   3.519  11.934  1.5372  0.7872  1.0437
19029TIP3    H278579   5.512   3.573  11.799 -0.3508 -0.7951  0.9807
19030TIP3   OH278580   2.190   0.549  11.457  0.0598  0.1483 -0.2263
19030TIP3    H178581   2.199   0.594  11.374 -0.8489 -0.1577 -0.5042
19030TIP3    H278582   2.116   0.592  11.501  0.4629  0.2392  0.3743
19031TIP3   OH278583   1.170   5.492  17.078 -0.0965 -0.0062  0.2452
19031TIP3    H178584   1.236   5.446  17.129 -0.1709 -1.0396 -0.5406
19031TIP3    H278585   1.115   5.535  17.142  0.5244 -0.2769  0.9738
19032TIP3   OH278586   3.158   2.979   0.932  0.1772 -0.6715  0.8484
19032TIP3    H178587   3.208   3.028   0.997  1.8913 -1.5845  0.2675
19032TIP3    H278588   3.082   3.034   0.914  1.1102  0.9150  1.5593
19033TIP3   OH278589   2.723   6.191  15.582 -0.6421  0.3178  0.2285
19033TIP3    H178590   2.684   6.263  15.533 -1.2376  0.7198  1.2600
19033TIP3    H278591   2.659   6.121  15.577  0.3057 -0.4767 -1.4950
19034TIP3   OH278592   4.216   3.123  13.760  0.2040 -0.2730 -0.3072
19034TIP3    H178593   4.149   3.089  13.701 -0.9691  1.0403  0.2131
19034TIP3    H278594   4.289   3.146  13.702 -0.9448  1.0608 -1.3187
19035TIP3   OH278595   3.929   6.233  12.617  0.3332 -0.3742 -0.4511
19035TIP3    H178596   3.936   6.175  12.693 -1.9878 -1.3517 -0.9016
19035TIP3    H278597   3.985   6.192  12.551 -0.4068 -1.5297 -0.3973
19036TIP3   OH278598   3.084   5.948   3.850 -0.1171 -0.6593  0.1373
19036TIP3    H178599   3.126   5.918   3.769 -1.2116 -1.4360 -0.1669
19036TIP3    H278600   3.147   5.926   3.919  0.6139 -0.4390 -0.4446
19037TIP3   OH278601   4.746   0.196  14.474  0.2200 -0.8103 -0.5155
19037TIP3    H178602   4.655   0.191  14.447 -0.0286 -2.3473  0.5192
19037TIP3    H278603   4.743   0.219  14.567  0.8847 -1.0109 -0.4381
19038TIP3   OH278604   0.891   1.995  15.568  0.1632  0.4549  0.2587
19038TIP3    H178605   0.801   1.981  15.597  0.1887  1.5968  0.9495
19038TIP3    H278606   0.925   2.062  15.628  1.2638  0.5013 -0.3986
19039TIP3   OH278607   3.143   4.360   6.693  0.5490 -0.1547 -0.2530
19039TIP3    H178608   3.053   4.381   6.670 -0.4740 -1.0480  2.5265
19039TIP3    H278609   3.144   4.264   6.702  1.8587 -0.1853 -0.5748
19040TIP3   OH278610   5.561   4.999   2.730  0.2717  0.3989  0.4924
19040TIP3    H178611   5.618   4.952   2.668 -0.0480  0.5475  0.0833
19040TIP3    H278612   5.484   4.943   2.738 -0.7355  1.4941 -1.0757
19041TIP3   OH278613   3.654   5.329  16.689  0.0853  0.4820  0.4923
19041TIP3    H178614   3.576   5.288  16.729  0.7516 -1.4461 -0.0989
19041TIP3    H278615   3.716   5.258  16.679  1.7420  1.8821  0.3971
19042TIP3   OH278616   0.567   0.187  16.820  0.2146 -0.7456 -0.5518
19042TIP3    H178617   0.649   0.198  16.868  0.3494 -0.9172 -0.7390
19042TIP3    H278618   0.531   0.275  16.814  0.5901 -0.6078 -0.8328
19043TIP3   OH278619   0.798   5.697   3.332  0.4453 -0.1682  0.2265
19043TIP3    H178620   0.749   5.695   3.414 -0.2615  0.1282 -0.1890
19043TIP3    H278621   0.889   5.710   3.360  0.2446 -0.2800  0.9712
19044TIP3   OH278622   5.362   3.675   2.502  0.1506 -0.0704  0.1010
19044TIP3    H178623   5.293   3.702   2.441  0.0493 -3.0773 -1.3002
19044TIP3    H278624   5.318   3.617   2.564  0.9035  0.3220  1.0248
19045TIP3   OH278625   1.637   5.844  14.989 -0.6792 -0.5909 -0.1551
19045TIP3    H178626   1.675   5.930  15.003  0.1954 -0.9441 -0.3016
19045TIP3    H278627   1.644   5.800  15.074 -1.0129 -0.5689 -0.1124
19046TIP3   OH278628   0.971   3.036   2.449  0.3168  0.1495  0.6006
19046TIP3    H178629   1.035   2.989   2.395 -0.9389  0.2574 -1.0825
19046TIP3    H278630   1.021   3.108   2.488  1.1051  0.7318 -1.3356
19047TIP3   OH278631   4.641   6.034  15.087  0.1245 -0.1712  0.2506
19047TIP3    H178632   4.564   6.062  15.137 -0.2992 -0.3458 -0.2921
19047TIP3    H278633   4.705   6.010  15.153 -0.3092 -0.0796  0.7113
19048TIP3   OH278634   5.905   0.676   2.387 -0.1412  0.3174 -0.2358
19048TIP3    H178635   5.967   0.694   2.459  0.3774 -1.6414 -0.1515
19048TIP3    H278636   5.962   0.657   2.312 -0.6356  3.9011 -1.7165
19049TIP3   OH278637   6.042   6.447   1.501  0.4396 -0.7858  0.1043
19049TIP3    H178638   6.043   6.533   1.544  1.1349 -0.5107 -0.4427
19049TIP3    H278639   6.086   6.389   1.563 -0.5843 -0.8935  0.7511
19050TIP3   OH278640   2.142   1.398   5.861 -0.2039 -0.1474 -0.4672
19050TIP3    H178641   2.134   1.417   5.768 -0.6550 -2.1752 -0.8839
19050TIP3    H278642   2.222   1.345   5.868  0.4757  0.9518  0.4892
19051TIP3   OH278643   6.101   5.854   5.119 -0.0808  0.3974  0.1814
19051TIP3    H178644   6.178   5.835   5.066 -1.6353 -1.2507 -1.6635
19051TIP3    H278645   6.090   5.949   5.114  1.4912  0.5938  0.0584
19052TIP3   OH278646   3.096   1.583  13.841  1.0380  0.1351  0.4660
19052TIP3    H178647   3.147   1.664  13.831 -0.9297  1.6335  1.6311
19052TIP3    H278648   3.080   1.553  13.752 -0.0534  2.3427 -0.1546
19053TIP3   OH278649   0.267   1.864  12.845  0.1497  0.0885 -0.0760
19053TIP3    H178650   0.336   1.876  12.779 -1.6306  1.1962 -1.8634
19053TIP3    H278651   0.260   1.950  12.886 -0.6217  0.1939 -0.4166
19054TIP3   OH278652   5.424   0.357  11.199 -0.8662  0.2443  0.6477
19054TIP3    H178653   5.395   0.268  11.218  1.0159 -0.4543  0.3983
19054TIP3    H278654   5.353   0.394  11.145 -0.7177 -1.8389 -1.0856
19055TIP3   OH278655   0.479   1.555   3.350  0.9691 -0.5296  0.3222
19055TIP3    H178656   0.397   1.569   3.303  0.8770 -0.5543  0.4737
19055TIP3    H278657   0.490   1.633   3.405  0.2503 -1.1987  1.4643
19056TIP3   OH278658   2.275   0.560  14.030 -0.4332  0.1775  0.1182
19056TIP3    H178659   2.311   0.530  13.947 -0.3733 -0.1133  0.2486
19056TIP3    H278660   2.320   0.508  14.096 -0.1317  0.7511  0.3641
19057TIP3   OH278661   2.717   2.755  15.645  0.3596 -0.6048  0.3856
19057TIP3    H178662   2.748   2.814  15.714  3.2281  0.4705 -1.6423
19057TIP3    H278663   2.737   2.667  15.677  0.1302 -0.2304  1.5861
19058TIP3   OH278664   2.093   6.786   3.798  0.2460  1.0231  0.2595
19058TIP3    H178665   1.999   6.775   3.785  0.5380 -1.3010 -0.3271
19058TIP3    H278666   2.126   6.821   3.715  0.3621 -1.8515 -1.0192
19059TIP3   OH278667   4.989   5.609  13.489 -0.6460 -0.1845 -0.1325
19059TIP3    H178668   5.013   5.612  13.396  0.2174 -0.8636  0.0493
19059TIP3    H278669   4.954   5.521  13.502 -0.3125 -0.2580  0.2849
19060TIP3   OH278670   3.492   2.755  11.643  0.5971 -0.4689 -0.4797
19060TIP3    H178671   3.499   2.850  11.649  0.3199 -0.4728 -0.0832
19060TIP3    H278672   3.542   2.732  11.565 -1.8655  0.3203 -2.4472
19061TIP3   OH278673   5.023   1.417   2.524  0.4813  0.8280 -0.3062
19061TIP3    H178674   5.053   1.507   2.508 -0.2089  1.2064  0.4632
19061TIP3    H278675   5.031   1.374   2.439 -2.0459  2.4615 -1.4944
19062TIP3   OH278676   2.397   1.008  11.741  0.1003  0.1716 -0.1352
19062TIP3    H178677   2.487   0.976  11.749 -0.1464 -0.1712  1.5844
19062TIP3    H278678   2.361   0.958  11.667  0.8978 -0.6963  0.0372
19063TIP3   OH278679   2.913   3.442  12.796 -0.0325 -0.0948 -0.6931
19063TIP3    H178680   2.853   3.469  12.726  0.8117  1.7950 -0.7443
19063TIP3    H278681   2.859   3.439  12.875 -0.7894 -1.3389 -1.2145
19064TIP3   OH278682   2.939   4.652  17.021 -0.0258  0.5226  0.3953
19064TIP3    H178683   2.993   4.650  16.942 -1.6200  1.0393 -0.7484
19064TIP3    H278684   2.981   4.717  17.077  0.0258  1.6364 -0.8810
19065TIP3   OH278685   2.681   5.981   0.894  0.0178 -0.4498  0.3841
19065TIP3    H178686   2.701   6.061   0.941 -2.5070  0.0840  0.6567
19065TIP3    H278687   2.767   5.939   0.882  1.1255  1.0285  2.4262
19066TIP3   OH278688   3.403   5.998  14.359  0.5416  0.2143  0.0513
19066TIP3    H178689   3.388   5.905  14.340  1.6271  0.0049  0.1677
19066TIP3    H278690   3.333   6.043  14.312 -1.2183 -0.7669  1.5613
19067TIP3   OH278691   5.673   6.396  16.682 -0.9916 -0.0894  0.4052
19067TIP3    H178692   5.580   6.377  16.693 -0.8684  0.2899  2.4277
19067TIP3    H278693   5.706   6.409  16.771  0.1505  3.6692 -0.3563
19068TIP3   OH278694   6.555   6.808  14.440 -0.2480 -0.2198 -0.7506
19068TIP3    H178695   6.608   6.887  14.429  2.9155 -1.7946  1.6558
19068TIP3    H278696   6.530   6.808  14.532 -3.0956 -0.4642 -1.4342
19069TIP3   OH278697   5.004   1.587  12.120  0.1747  0.7732  0.0893
19069TIP3    H178698   4.931   1.529  12.099  0.1091  0.5047  1.0005
19069TIP3    H278699   5.047   1.544  12.194  1.6784  0.5527 -0.8632
19070TIP3   OH278700   3.751   2.095  12.511  0.9194  0.7794  0.4172
19070TIP3    H178701   3.669   2.091  12.560  0.5819  1.9078 -0.0336
19070TIP3    H278702   3.795   2.174  12.543  0.6892  1.5440 -1.0687
19071TIP3   OH278703   2.228   1.830  16.635  0.4982 -0.2100  0.1889
19071TIP3    H178704   2.315   1.790  16.628  0.8309  0.5618 -0.2637
19071TIP3    H278705   2.242   1.921  16.607 -0.9227 -0.7082 -2.4768
19072TIP3   OH278706   3.893   1.774  15.876  0.4266 -0.5363  0.1669
19072TIP3    H178707   3.901   1.761  15.970  0.7740 -1.3859  0.0208
19072TIP3    H278708   3.920   1.692  15.837  1.4834  0.2076 -0.7257
19073TIP3   OH278709   3.569   1.894   0.969 -0.9117  0.2803 -0.5482
19073TIP3    H178710   3.501   1.862   0.911 -0.0706 -3.3739  0.2394
19073TIP3    H278711   3.649   1.892   0.917 -0.5925 -0.4591 -0.0484
19074TIP3   OH278712   3.014   1.607  13.564 -0.2213 -0.1554  0.3536
19074TIP3    H178713   3.039   1.516  13.549  0.2176  0.0820 -0.4217
19074TIP3    H278714   2.940   1.622  13.505  0.2663  0.2320 -0.1694
19075TIP3   OH278715   2.979   0.496   2.179  0.4728 -0.1604  0.1796
19075TIP3    H178716   3.034   0.460   2.110 -0.6446 -1.8919  0.1153
19075TIP3    H278717   2.907   0.540   2.133 -0.5047 -1.6850  0.1742
19076TIP3   OH278718   4.412   4.666   5.161  0.6518  0.9158 -1.0205
19076TIP3    H178719   4.491   4.661   5.108  0.6917  0.5855 -0.9369
19076TIP3    H278720   4.435   4.622   5.243  0.2344  0.3661 -1.1889
19077TIP3   OH278721   6.327   0.479  11.285 -0.4890 -0.3546  0.4568
19077TIP3    H178722   6.343   0.573  11.277  0.5191 -0.4933  0.7097
19077TIP3    H278723   6.311   0.464  11.378 -4.4018  0.0821  0.0375
19078TIP3   OH278724   2.084   0.749  15.345  0.0298 -0.2834  0.4212
19078TIP3    H178725   2.032   0.674  15.313 -0.9743  0.2722  0.7117
19078TIP3    H278726   2.171   0.734  15.308 -0.3390 -1.2172 -0.1320
19079TIP3   OH278727   2.569   4.944   4.035 -0.0625 -0.6339  0.3691
19079TIP3    H178728   2.504   4.958   4.104 -0.6152 -0.9186 -0.0826
19079TIP3    H278729   2.644   4.906   4.080  0.2908  0.8524  1.1200
19080TIP3   OH278730   6.320   0.785   5.248 -0.2596  0.0306  0.7116
19080TIP3    H178731   6.328   0.692   5.271  0.0755  0.3673  2.0136
19080TIP3    H278732   6.373   0.794   5.169  0.9376 -0.5973  1.4138
19081TIP3   OH278733   5.687   4.060  13.076 -0.4151  0.3377 -0.0967
19081TIP3    H178734   5.702   4.099  12.990 -0.2856  0.5004 -0.0007
19081TIP3    H278735   5.772   4.023  13.101 -0.5246  0.0325 -0.1674
19082TIP3   OH278736   2.105   6.528   2.122  0.3268 -0.5724  0.1559
19082TIP3    H178737   2.080   6.615   2.091 -0.3179 -0.7726  0.1113
19082TIP3    H278738   2.023   6.479   2.128  0.6697 -1.1488  0.2799
19083TIP3   OH278739   3.325   0.608   5.422 -0.1260 -0.3177 -0.9095
19083TIP3    H178740   3.373   0.578   5.345  0.6826 -0.5331 -0.3388
19083TIP3    H278741   3.296   0.697   5.400  1.3930  0.2060 -0.9084
19084TIP3   OH278742   5.547   0.873   2.908 -0.4723  0.3701 -0.4721
19084TIP3    H178743   5.546   0.835   2.995 -2.5038 -0.4302 -0.7817
19084TIP3    H278744   5.524   0.965   2.921 -0.7626  0.2525 -0.1515
19085TIP3   OH278745   5.449   5.870   4.276  0.1417 -0.2082 -0.0317
19085TIP3    H178746   5.384   5.904   4.337 -0.0337 -1.5538  0.5570
19085TIP3    H278747   5.446   5.931   4.202  1.8867  2.8092  2.1094
19086TIP3   OH278748   6.100   1.077  15.181 -0.4977  0.7400 -0.9240
19086TIP3    H178749   6.148   0.996  15.165  0.0380  0.6485  1.0015
19086TIP3    H278750   6.009   1.056  15.156 -0.1953 -0.1503 -1.3158
19087TIP3   OH278751   5.327   2.107  10.885  0.2127  0.3522  0.2485
19087TIP3    H178752   5.245   2.058  10.878  0.7539 -0.7298  1.0765
19087TIP3    H278753   5.393   2.040  10.904  1.0003  1.3825  1.3223
19088TIP3   OH278754   5.304   0.262   2.076 -0.2282 -0.2367  0.2279
19088TIP3    H178755   5.303   0.337   2.017  1.6679  1.0616  1.7368
19088TIP3    H278756   5.241   0.201   2.038 -0.7624  1.4911 -1.8425
19089TIP3   OH278757   3.380   1.060  15.755 -0.1710  0.1938  0.0321
19089TIP3    H178758   3.408   1.133  15.811 -0.1041 -0.6595  1.1652
19089TIP3    H278759   3.287   1.049  15.774 -0.4862  0.7673 -1.0851
19090TIP3   OH278760   4.998   5.705  13.229 -0.4253 -0.0294 -0.2001
19090TIP3    H178761   4.978   5.647  13.156 -0.3828 -3.1797  2.0664
19090TIP3    H278762   4.919   5.758  13.240 -1.4636 -1.3629 -0.9253
19091TIP3   OH278763   5.151   3.459   4.264  0.2990  0.7368 -0.0963
19091TIP3    H178764   5.131   3.377   4.218 -0.6186  0.6117  0.5012
19091TIP3    H278765   5.104   3.526   4.214  0.3016  0.7751 -0.0470
19092TIP3   OH278766   3.060   0.547  14.506 -0.3448  0.0555  0.3239
19092TIP3    H178767   3.036   0.626  14.554 -0.6040  0.9333 -1.1759
19092TIP3    H278768   3.132   0.574  14.448 -1.8161 -0.2068 -1.7460
19093TIP3   OH278769   4.955   1.776   5.473 -0.0415  0.2927 -0.0878
19093TIP3    H178770   5.035   1.822   5.449 -1.2167  0.6316 -4.0639
19093TIP3    H278771   4.977   1.683   5.462  0.8371  0.0532  2.8567
19094TIP3   OH278772   5.728   5.612  12.298 -0.0873  0.3270 -0.2556
19094TIP3    H178773   5.821   5.610  12.318 -0.0049  0.1152 -0.6576
19094TIP3    H278774   5.689   5.662  12.370  0.3632  0.6009 -0.2019
19095TIP3   OH278775   1.721   3.283   3.875 -0.5590 -0.1547  0.7415
19095TIP3    H178776   1.706   3.375   3.855 -3.0439 -0.4861  0.7420
19095TIP3    H278777   1.800   3.283   3.930 -0.2131  1.8945  0.3333
19096TIP3   OH278778   2.874   4.850   0.547  0.5627 -0.4360 -0.4959
19096TIP3    H178779   2.884   4.927   0.491 -0.1025 -0.7583 -1.0686
19096TIP3    H278780   2.952   4.851   0.603 -0.0546  1.3537  0.3953
19097TIP3   OH278781   0.622   0.359   5.604 -0.0939 -0.7499  0.1057
19097TIP3    H178782   0.672   0.437   5.577 -0.1076 -0.5518  0.6553
19097TIP3    H278783   0.531   0.387   5.601 -0.1437 -0.9423 -0.3295
19098TIP3   OH278784   4.154   0.469  16.038 -0.0099 -0.2252  0.2975
19098TIP3    H178785   4.175   0.455  16.131  1.7450 -3.3075 -0.4165
19098TIP3    H278786   4.082   0.408  16.021  0.2321 -0.2939 -0.5343
19099TIP3   OH278787   1.545   0.201   2.582 -0.3356 -0.1943  0.0648
19099TIP3    H178788   1.612   0.134   2.599 -0.7696 -0.4312  0.8656
19099TIP3    H278789   1.482   0.158   2.525  0.2691  0.0871 -0.8505
19100TIP3   OH278790   6.625   0.511   5.016 -0.0077  0.4842 -0.3110
19100TIP3    H178791   6.531   0.496   5.025 -0.2369  0.7012 -2.0270
19100TIP3    H278792   6.648   0.569   5.088 -1.4402  1.4366 -0.6010
19101TIP3   OH278793   2.886   3.481  12.315 -0.3585 -0.5036 -0.5230
19101TIP3    H178794   2.803   3.452  12.277  0.3964 -2.2698 -0.9674
19101TIP3    H278795   2.900   3.422  12.390 -1.0730  1.9114  1.6616
19102TIP3   OH278796   5.843   0.180   0.423  0.3207  0.0855 -0.6064
19102TIP3    H178797   5.821   0.265   0.384 -1.1692  0.4120  0.7999
19102TIP3    H278798   5.812   0.116   0.359 -0.9408  0.6135 -0.5647
19103TIP3   OH278799   4.679   5.613  13.285  0.9692 -0.3905  0.6821
19103TIP3    H178800   4.714   5.699  13.261  0.1569 -0.0764  0.5654
19103TIP3    H278801   4.644   5.578  13.203 -1.4475  0.5112  1.2399
19104TIP3   OH278802   0.949   0.909  16.266  0.3338 -0.1191  0.4447
19104TIP3    H178803   1.003   0.911  16.345  0.9555  0.3998  0.0188
19104TIP3    H278804   1.007   0.873  16.198  0.3841  1.0792 -0.1747
19105TIP3   OH278805   0.311   3.815  13.919  0.4774 -0.2949 -0.5583
19105TIP3    H178806   0.307   3.776  13.832 -0.9242 -1.6004  0.0415
19105TIP3    H278807   0.266   3.752  13.975  3.6555 -0.8120  1.6317
19106TIP3   OH278808   6.068   5.080  15.959  0.0442 -0.2262  0.1061
19106TIP3    H178809   6.163   5.095  15.956  0.4446 -2.1117  1.5609
19106TIP3    H278810   6.059   4.987  15.979 -2.1504 -0.3590 -1.1629
19107TIP3   OH278811   6.652   0.930  16.102  0.6478  0.2932 -0.8345
19107TIP3    H178812   6.586   0.999  16.116  1.0238  0.5952 -0.5275
19107TIP3    H278813   6.688   0.914  16.188 -2.0368 -3.0126 -0.1119
19108TIP3   OH278814   3.088   2.130  10.556  0.0841 -0.2465 -0.3501
19108TIP3    H178815   3.103   2.096  10.645 -1.2167  0.6586  0.2458
19108TIP3    H278816   3.049   2.216  10.570 -0.8185 -0.3950 -1.8009
19109TIP3   OH278817   1.896   2.647   2.495 -0.2561 -0.4063 -0.5595
19109TIP3    H178818   1.973   2.704   2.494 -0.4641 -0.1339 -1.6461
19109TIP3    H278819   1.917   2.577   2.433 -0.3234 -1.0991  0.1809
19110TIP3   OH278820   3.444   0.588   5.135  0.0375 -0.3459  0.0634
19110TIP3    H178821   3.411   0.501   5.111 -2.1379 -0.2277  2.2157
19110TIP3    H278822   3.397   0.648   5.077 -1.0302 -0.4286  0.8076
19111TIP3   OH278823   0.521   1.641  16.135  0.3504  0.6598  0.3456
19111TIP3    H178824   0.606   1.650  16.091 -0.0074  0.3650 -0.4288
19111TIP3    H278825   0.526   1.700  16.210  0.7240  1.7136 -0.4877
19112TIP3   OH278826   2.030   3.406   5.826  0.7852 -0.5026 -0.1414
19112TIP3    H178827   2.097   3.474   5.821  0.9799 -0.6213  0.7001
19112TIP3    H278828   1.980   3.428   5.905  0.3048 -0.8466 -0.3460
19113TIP3   OH278829   6.280   5.935   2.450 -0.2170  0.3750 -0.4074
19113TIP3    H178830   6.300   5.855   2.401 -0.3577  0.0236  0.1084
19113TIP3    H278831   6.276   6.003   2.382  1.8325  0.3188 -0.6491
19114TIP3   OH278832   0.119   5.046  16.349 -0.2165 -0.1651  0.2684
19114TIP3    H178833   0.178   5.050  16.424 -0.2280  0.7269  0.2368
19114TIP3    H278834   0.037   5.012  16.385  0.2777 -1.3770  0.3195
19115TIP3   OH278835   1.519   1.036  14.363  0.4600  0.3731 -0.5072
19115TIP3    H178836   1.558   1.119  14.334  1.9387  0.1113  0.5935
19115TIP3    H278837   1.592   0.974  14.364 -0.4209 -0.6958 -0.3687
19116TIP3   OH278838   3.389   3.310  15.710 -0.3660  0.5427  0.6637
19116TIP3    H178839   3.299   3.281  15.697 -0.2127  0.7611 -1.2556
19116TIP3    H278840   3.438   3.231  15.731 -0.5933 -0.0335 -0.8462
19117TIP3   OH278841   0.416   3.930   4.334  0.1416  0.3761  0.2075
19117TIP3    H178842   0.488   3.867   4.329 -0.3641 -0.2066  0.2185
19117TIP3    H278843   0.354   3.902   4.267  0.1429  1.1736 -0.1473
19118TIP3   OH278844   4.189   3.788  15.671  0.5289  0.0814 -0.2445
19118TIP3    H178845   4.195   3.723  15.601  0.7395  0.1753 -0.3150
19118TIP3    H278846   4.123   3.753  15.730  1.7878 -1.0202  0.5725
19119TIP3   OH278847   0.513   2.817   6.558  0.4762  0.5379 -0.6010
19119TIP3    H178848   0.574   2.782   6.494  0.8912 -0.1633  0.1722
19119TIP3    H278849   0.561   2.817   6.640 -0.0685  1.3840 -0.2696
19120TIP3   OH278850   2.886   0.565  16.353 -0.4429  0.9571  0.3240
19120TIP3    H178851   2.851   0.647  16.386 -2.7345  0.3267 -0.3814
19120TIP3    H278852   2.936   0.590  16.275  0.8820  1.8904  1.4281
19121TIP3   OH278853   6.035   5.080  12.727  0.0676 -0.2365  0.2843
19121TIP3    H178854   6.080   5.002  12.760  1.5623  0.3486 -0.2575
19121TIP3    H278855   6.028   5.138  12.803 -2.6280 -1.5184  1.1208
19122TIP3   OH278856   2.289   2.157  11.507 -0.3022 -0.5313 -0.9195
19122TIP3    H178857   2.281   2.152  11.602 -0.6363  0.4834 -0.8849
19122TIP3    H278858   2.383   2.170  11.492 -0.2060 -1.0168 -0.7493
19123TIP3   OH278859   6.202   4.521  13.389 -0.2391  0.4470  0.7190
19123TIP3    H178860   6.259   4.509  13.465  0.5969  1.0349  0.2036
19123TIP3    H278861   6.177   4.614  13.393 -0.9064  0.2746  0.7518
19124TIP3   OH278862   3.190   3.051   4.721 -0.1214 -0.1030 -0.2955
19124TIP3    H178863   3.137   3.001   4.783  1.7098  0.3361  1.7510
19124TIP3    H278864   3.192   2.997   4.642 -0.4124 -1.9939  0.9310
19125TIP3   OH278865   4.074   2.812  16.248  0.8569 -0.0086 -0.0829
19125TIP3    H178866   4.128   2.812  16.326  1.0950 -1.1618 -0.2307
19125TIP3    H278867   4.076   2.903  16.217  1.8464  0.1756  0.4978
19126TIP3   OH278868   2.612   5.562  11.978  0.4370  0.1481  0.3541
19126TIP3    H178869   2.586   5.622  12.048 -0.8795 -0.4207  0.3792
19126TIP3    H278870   2.666   5.616  11.919  2.6659  0.3322  2.4111
19127TIP3   OH278871   3.642   0.229   4.190  0.0297 -0.1984 -0.9295
19127TIP3    H178872   3.654   0.170   4.264  0.9357 -0.4996 -1.3049
19127TIP3    H278873   3.551   0.215   4.163  0.0563 -0.9784 -0.6374
19128TIP3   OH278874   0.056   0.530  17.156  0.4454 -0.3477  0.1686
19128TIP3    H178875   0.062   0.619  17.122  1.1826 -0.1644  0.7696
19128TIP3    H278876  -0.014   0.533  17.221  0.4953 -0.1972  0.2141
19129TIP3   OH278877   2.615   5.361  13.955 -0.4145  0.3913 -0.4104
19129TIP3    H178878   2.618   5.363  14.050  1.0082  1.4976 -0.4536
19129TIP3    H278879   2.699   5.322  13.929 -0.5657  0.5781 -1.2133
19130TIP3   OH278880   6.528   4.126  11.685 -0.2176  0.0901 -0.2446
19130TIP3    H178881   6.569   4.213  11.690  1.7638 -0.7705 -0.3138
19130TIP3    H278882   6.461   4.134  11.618 -0.2273  1.6246 -0.0778
19131TIP3   OH278883   5.112   0.511   5.787 -0.1611  0.0921 -0.0264
19131TIP3    H178884   5.147   0.440   5.734 -2.1950 -0.9854 -0.0116
19131TIP3    H278885   5.139   0.591   5.741 -1.2042 -0.7783 -2.2813
19132TIP3   OH278886   5.942   4.745   1.131  0.5081 -0.0572  0.2038
19132TIP3    H178887   5.945   4.681   1.203  1.5015 -0.0281  0.1974
19132TIP3    H278888   5.943   4.692   1.052  1.2624 -0.0328  0.1988
19133TIP3   OH278889   2.219   2.480  14.324 -0.0616  0.4182 -0.0500
19133TIP3    H178890   2.257   2.496  14.410 -0.9983  0.5537  0.3559
19133TIP3    H278891   2.187   2.390  14.328 -0.3330  0.5082 -0.1708
19134TIP3   OH278892   0.115   4.031  12.030 -0.1911  0.1813 -0.2349
19134TIP3    H178893   0.202   4.051  11.997  0.6763 -1.0418  1.1819
19134TIP3    H278894   0.078   3.970  11.966  1.1397 -1.5286  0.5575
19135TIP3   OH278895   3.365   0.072  12.778  0.6483  0.2834  0.2896
19135TIP3    H178896   3.359   0.078  12.874 -2.1427 -0.6415  0.2585
19135TIP3    H278897   3.452   0.036  12.762 -0.1550 -3.3554  2.7845
19136TIP3   OH278898   6.061   0.902  12.354 -0.2189  0.0907 -0.5165
19136TIP3    H178899   6.090   0.820  12.392  0.3944 -0.8895 -2.9465
19136TIP3    H278900   5.995   0.935  12.416 -0.4986 -2.2071  0.5086
19137TIP3   OH278901   1.868   3.356   6.626  0.1962  0.6574  0.3581
19137TIP3    H178902   1.938   3.363   6.561  1.5613 -1.6664  1.4400
19137TIP3    H278903   1.812   3.286   6.593 -0.2058  0.7958  0.7379
19138TIP3   OH278904   6.503   0.223   3.421  0.2222  0.1533  0.3683
19138TIP3    H178905   6.436   0.209   3.489  1.3006 -0.6743  1.2905
19138TIP3    H278906   6.566   0.282   3.462  1.4321 -1.1880  0.4952
19139TIP3   OH278907   0.887   1.052   3.922  0.6631 -0.0775 -0.2905
19139TIP3    H178908   0.830   1.012   3.988 -0.0483  1.3444 -0.0102
19139TIP3    H278909   0.836   1.048   3.841 -0.6470  2.7015  0.2804
19140TIP3   OH278910   2.391   4.837  13.444 -0.1968 -0.6241 -0.3335
19140TIP3    H178911   2.319   4.837  13.381  0.4942 -2.5452 -1.1927
19140TIP3    H278912   2.470   4.839  13.390  0.4203 -2.8741  0.4020
19141TIP3   OH278913   1.521   1.721  14.573  0.9198 -0.0966 -0.8403
19141TIP3    H178914   1.508   1.663  14.498 -0.9189 -0.7241 -0.1142
19141TIP3    H278915   1.478   1.803  14.547 -1.4052 -0.9116  0.1262
19142TIP3   OH278916   6.695   3.972  16.298 -0.0707  0.7807 -0.0350
19142TIP3    H178917   6.781   3.931  16.291 -0.1903  0.6782 -1.1037
19142TIP3    H278918   6.633   3.899  16.286 -0.2877  1.1353 -1.1895
19143TIP3   OH278919   5.135   3.053   0.441 -0.0796 -0.5992 -0.2027
19143TIP3    H178920   5.130   2.987   0.509 -4.0553 -1.3173 -0.9520
19143TIP3    H278921   5.088   3.128   0.477  0.9421  0.3612 -0.8305
19144TIP3   OH278922   0.096   2.364   3.215  0.0009  0.2855 -0.9376
19144TIP3    H178923   0.033   2.329   3.151 -0.5874  0.7599 -0.6214
19144TIP3    H278924   0.178   2.321   3.192 -0.6355 -1.1262 -0.7319
19145TIP3   OH278925   4.692   3.071   2.410 -0.6363  0.5549 -0.1220
19145TIP3    H178926   4.681   2.981   2.379  1.2645 -0.0910  0.9187
19145TIP3    H278927   4.697   3.124   2.330  1.7593 -0.7551 -0.9332
19146TIP3   OH278928   1.127   0.569  13.641  0.0615  0.4459  0.5675
19146TIP3    H178929   1.206   0.586  13.692 -1.3473  1.7830  2.4301
19146TIP3    H278930   1.098   0.482  13.670  1.3376 -0.5137 -0.8822
19147TIP3   OH278931   1.394   2.349  12.047  0.8711 -0.2363  0.0767
19147TIP3    H178932   1.417   2.272  12.100 -1.4508  0.4560  2.3248
19147TIP3    H278933   1.341   2.314  11.975  1.2469 -0.8995  0.1168
19148TIP3   OH278934   2.394   0.453   2.486  0.2494  0.3148 -0.1040
19148TIP3    H178935   2.337   0.388   2.444  1.0750 -0.9185  0.6328
19148TIP3    H278936   2.482   0.430   2.458  0.7961 -0.3497  1.9888
19149TIP3   OH278937   0.063   4.624   4.336 -0.3114  0.3556 -0.1560
19149TIP3    H178938   0.150   4.662   4.353  0.9836 -2.1047 -0.8692
19149TIP3    H278939   0.046   4.569   4.412 -0.1851 -0.9185 -1.0189
19150TIP3   OH278940   3.617   6.459   2.944  0.0141 -0.4560 -0.4473
19150TIP3    H178941   3.609   6.477   2.850 -1.3106 -0.2998 -0.3319
19150TIP3    H278942   3.648   6.541   2.981 -0.8083 -0.0647 -0.5919
19151TIP3   OH278943   5.461   2.706   3.364  0.4186  0.4814  0.2724
19151TIP3    H178944   5.540   2.718   3.416 -0.0055 -2.5732  1.8158
19151TIP3    H278945   5.389   2.732   3.422  0.1331  1.3183 -0.4187
19152TIP3   OH278946   5.611   2.219   0.517  0.1520  0.0585  0.5496
19152TIP3    H178947   5.655   2.279   0.457 -0.7725  1.9486  1.6612
19152TIP3    H278948   5.581   2.275   0.589 -1.8552 -1.5312  1.0422
19153TIP3   OH278949   6.503   3.321   3.854  0.1489  0.6359 -0.0845
19153TIP3    H178950   6.552   3.362   3.783 -0.4079  1.1370 -0.1857
19153TIP3    H278951   6.500   3.228   3.830 -0.7239  0.9070 -1.1516
19154TIP3   OH278952   5.534   6.437   2.159 -0.1529  0.4834 -0.1651
19154TIP3    H178953   5.611   6.428   2.216 -0.0389 -0.7221 -0.4917
19154TIP3    H278954   5.568   6.424   2.071 -0.2171  2.9405 -0.6219
19155TIP3   OH278955   0.164   4.646  13.137 -0.2576  0.9414  0.3910
19155TIP3    H178956   0.227   4.613  13.073  1.2205  0.1531  2.1411
19155TIP3    H278957   0.101   4.574  13.147 -0.2744  0.9136  0.1048
19156TIP3   OH278958   1.954   1.329   1.768  0.4065 -0.3791  0.0665
19156TIP3    H178959   2.027   1.390   1.757  0.3608 -0.5539 -1.4690
19156TIP3    H278960   1.918   1.320   1.680 -0.3215 -1.7132  0.4809
19157TIP3   OH278961   5.344   1.708   1.649 -0.2662  0.2240  0.3879
19157TIP3    H178962   5.346   1.619   1.683 -1.7734  0.7196  1.9232
19157TIP3    H278963   5.396   1.759   1.711  1.3723  0.3043 -0.9864
19158TIP3   OH278964   0.519   3.019   0.311 -0.3811  0.3540 -0.4003
19158TIP3    H178965   0.588   3.035   0.247  0.7750  0.1682  0.7539
19158TIP3    H278966   0.454   2.966   0.264  1.4493 -1.6389 -0.8300
19159TIP3   OH278967   0.242   6.770  15.880 -0.0726  0.5312  0.5478
19159TIP3    H178968   0.249   6.743  15.972  1.4291  0.7405  0.5210
19159TIP3    H278969   0.318   6.826  15.866  0.5736 -0.6949 -1.2278
19160TIP3   OH278970   4.166   4.102  15.149 -0.4590 -0.0864  0.0442
19160TIP3    H178971   4.130   4.019  15.118 -0.3131 -0.4789  0.8788
19160TIP3    H278972   4.120   4.118  15.232  0.3332  0.0639  0.4681
19161TIP3   OH278973   2.347   3.608  14.806 -0.3810 -0.3617  0.2544
19161TIP3    H178974   2.296   3.547  14.753 -1.4628 -1.3327  2.2928
19161TIP3    H278975   2.282   3.657  14.856  0.6105 -0.5864  1.8267
19162TIP3   OH278976   3.511   4.910   5.860 -0.6787 -0.5243  0.0009
19162TIP3    H178977   3.583   4.964   5.894 -0.7226  0.4705 -1.4147
19162TIP3    H278978   3.552   4.852   5.796 -1.0709 -0.2255 -0.5258
19163TIP3   OH278979   1.532   2.601   1.441  0.2517  0.9126 -0.1604
19163TIP3    H178980   1.571   2.615   1.528 -1.9021  0.8918  0.8563
19163TIP3    H278981   1.581   2.527   1.405  0.1852 -0.1074  1.7088
19164TIP3   OH278982   0.608   4.747   5.773 -0.3665 -0.2350  0.0992
19164TIP3    H178983   0.638   4.723   5.861  0.2945 -1.3627 -0.4080
19164TIP3    H278984   0.623   4.841   5.767  0.1535 -0.2482  0.9826
19165TIP3   OH278985   3.254   2.005  16.809 -0.2153  0.3584 -0.1529
19165TIP3    H178986   3.287   1.970  16.726  0.5438  1.6268 -0.4207
19165TIP3    H278987   3.211   2.087  16.785 -0.8573  0.2588  0.6000
19166TIP3   OH278988   3.392   2.274  16.518  0.2066  0.8285  0.0317
19166TIP3    H178989   3.354   2.198  16.474 -0.2039  2.0536 -1.8282
19166TIP3    H278990   3.464   2.238  16.570 -1.8570 -1.2292  1.6806
19167TIP3   OH278991   3.832   4.181  10.434 -0.6111  0.1197 -0.1013
19167TIP3    H178992   3.844   4.240  10.509  0.5842 -0.6839  0.3711
19167TIP3    H278993   3.743   4.199  10.404 -1.4927 -0.1716  2.0940
19168TIP3   OH278994   5.202   2.775  16.820 -0.4151 -0.0316  0.4941
19168TIP3    H178995   5.247   2.858  16.830  0.7430 -0.4471 -0.8840
19168TIP3    H278996   5.220   2.727  16.901 -2.4517  1.6017  2.0362
19169TIP3   OH278997   2.022   4.505   6.205 -0.2438 -0.3542 -0.3285
19169TIP3    H178998   1.967   4.515   6.127 -1.7570  1.3319  0.8849
19169TIP3    H278999   1.970   4.450   6.264 -0.8599  1.5171  0.9567
19170TIP3   OH279000   2.742   6.140  12.430 -0.1013  0.7075 -0.6616
19170TIP3    H179001   2.740   6.230  12.463  1.7568  0.8710 -0.8579
19170TIP3    H279002   2.823   6.135  12.379  1.0861 -1.6897  1.2528
19171TIP3   OH279003   2.156   3.744  14.969 -0.7847 -0.4731 -0.6199
19171TIP3    H179004   2.087   3.709  14.912 -2.3335  1.0937  0.2111
19171TIP3    H279005   2.158   3.683  15.043 -2.1321  0.0791 -0.0942
19172TIP3   OH279006   1.726   2.722   4.877  0.0255  0.2862 -0.0233
19172TIP3    H179007   1.704   2.815   4.877 -0.7346  0.1220 -0.9367
19172TIP3    H279008   1.678   2.685   4.950  0.8062  0.7070  0.7172
19173TIP3   OH279009   0.203   2.813  15.895  0.1266  0.1481  0.4060
19173TIP3    H179010   0.198   2.898  15.939 -0.6100  0.2376  0.1591
19173TIP3    H279011   0.294   2.806  15.867 -0.6233  3.0468 -3.8423
19174TIP3   OH279012   0.335   2.162   3.505  0.1493  0.1995 -0.4303
19174TIP3    H179013   0.372   2.075   3.488  0.8543  0.3496  0.3205
19174TIP3    H279014   0.369   2.187   3.590  1.1027  1.8238 -1.2482
19175TIP3   OH279015   0.961   4.811  16.410 -0.3331  0.0830  0.6297
19175TIP3    H179016   0.907   4.775  16.481 -0.6370 -0.9501 -0.0978
19175TIP3    H279017   1.046   4.829  16.451  0.3740 -2.9989  0.7313
19176TIP3   OH279018   3.030   1.842   2.194  0.2413  0.3511  0.7981
19176TIP3    H179019   3.006   1.935   2.196 -0.2936  0.2233  0.5877
19176TIP3    H279020   2.946   1.796   2.204  0.5871 -0.1104  1.6563
19177TIP3   OH279021   4.250   2.600  13.868  0.2929 -0.2693  0.4409
19177TIP3    H179022   4.200   2.543  13.927 -1.5300 -0.2456 -0.9685
19177TIP3    H279023   4.232   2.689  13.900 -1.4763 -0.1954 -0.6465
19178TIP3   OH279024   0.872   5.668   5.293  0.3563  0.1611 -0.0919
19178TIP3    H179025   0.895   5.739   5.354  1.8384 -1.0008  0.7580
19178TIP3    H279026   0.940   5.672   5.226 -0.9339  1.0510 -1.4141
19179TIP3   OH279027   5.835   0.587  14.448  0.7876 -0.6355  0.3414
19179TIP3    H179028   5.776   0.654  14.412  0.4572 -1.6624 -1.1348
19179TIP3    H279029   5.776   0.521  14.484  1.1103  0.5802  3.3744
19180TIP3   OH279030   6.472   2.538  15.650 -0.3106  0.3640 -0.3570
19180TIP3    H179031   6.403   2.554  15.714  0.3283 -1.0400  0.7441
19180TIP3    H279032   6.431   2.484  15.583 -0.5413  0.4016 -0.2456
19181TIP3   OH279033   1.823   3.885   4.524  0.4591  0.6711 -0.2352
19181TIP3    H179034   1.890   3.864   4.589 -0.7787 -1.5001  0.4325
19181TIP3    H279035   1.753   3.927   4.573  0.7469  1.7778 -0.7241
19182TIP3   OH279036   4.268   2.526  14.633 -0.0902  0.5519  0.9500
19182TIP3    H179037   4.215   2.487  14.703  1.0702  0.8708  2.0559
19182TIP3    H279038   4.358   2.505  14.658  0.3501  0.7691 -0.4147
19183TIP3   OH279039   5.860   4.430   5.678  0.7259 -0.2140 -0.0605
19183TIP3    H179040   5.900   4.382   5.751  2.9271  0.7661 -0.5499
19183TIP3    H279041   5.844   4.363   5.611 -1.0416 -1.0760  1.1480
19184TIP3   OH279042   2.907   2.542   2.438 -0.1011  0.0518  0.3222
19184TIP3    H179043   2.931   2.572   2.350  0.2199 -0.5461  0.1979
19184TIP3    H279044   2.812   2.541   2.438 -0.1413  1.6195  0.5268
19185TIP3   OH279045   5.811   3.673   6.309  0.5758 -0.0233 -0.1238
19185TIP3    H179046   5.802   3.735   6.236 -1.7234  1.1398  1.0442
19185TIP3    H279047   5.867   3.718   6.372  1.6146 -0.5503 -0.6472
19186TIP3   OH279048   1.897   0.233   2.410 -0.3662  0.4111 -0.5371
19186TIP3    H179049   1.878   0.281   2.329  0.7167 -1.0447 -1.7109
19186TIP3    H279050   1.986   0.200   2.398  0.0487  0.6400  1.5289
19187TIP3   OH279051   6.305   2.325   4.948 -0.3889 -0.2931  0.4568
19187TIP3    H179052   6.217   2.362   4.956 -0.6201 -1.0884  1.7826
19187TIP3    H279053   6.305   2.284   4.861 -1.5900 -0.9151  0.7266
19188TIP3   OH279054   6.794   4.161  11.021 -0.5521  0.2300 -0.6242
19188TIP3    H179055   6.803   4.195  11.111  0.6397 -0.6526 -0.3772
19188TIP3    H279056   6.835   4.227  10.966 -0.1051  0.1738 -0.3658
19189TIP3   OH279057   2.602   3.751  15.588 -0.4212  0.0124  0.0565
19189TIP3    H179058   2.554   3.673  15.560 -0.8016 -0.2088  1.2752
19189TIP3    H279059   2.534   3.815  15.608 -0.1068  0.7785 -1.1960
19190TIP3   OH279060   6.583   5.628  16.274  0.6978  0.3946  0.4099
19190TIP3    H179061   6.578   5.717  16.239  2.9170  0.5777  0.3953
19190TIP3    H279062   6.644   5.635  16.348  1.5770 -1.2439 -0.1096
19191TIP3   OH279063   6.663   0.565  13.814  0.3248  0.0675 -0.9698
19191TIP3    H179064   6.600   0.576  13.886  0.0614 -1.0618 -1.0003
19191TIP3    H279065   6.650   0.641  13.758 -0.0217  0.5640 -0.2303
19192TIP3   OH279066   0.563   4.565   5.583  0.5880 -0.8633  0.1600
19192TIP3    H179067   0.579   4.624   5.656  0.6101 -0.2437 -0.3414
19192TIP3    H279068   0.468   4.558   5.577  0.5480  0.1744 -0.6067
19193TIP3   OH279069   3.574   2.561   5.907  0.6688  0.8579 -0.3597
19193TIP3    H179070   3.507   2.628   5.897  0.1021  1.2847  4.1701
19193TIP3    H279071   3.526   2.481   5.930  1.5622  0.4206  0.0683
19194TIP3   OH279072   1.343   1.829   4.800  0.2034  0.4048 -0.0890
19194TIP3    H179073   1.265   1.806   4.850  0.2947 -0.2761 -0.2496
19194TIP3    H279074   1.414   1.781   4.843  0.4785  0.7226 -0.1753
19195TIP3   OH279075   3.449   4.259  14.084 -0.0997  0.0640  0.3890
19195TIP3    H179076   3.404   4.290  14.163  0.3775  1.3152  0.1936
19195TIP3    H279077   3.389   4.279  14.013 -0.3817 -0.7514  0.3862
19196TIP3   OH279078   1.917   4.109   5.092 -0.1922  0.7450 -0.3628
19196TIP3    H179079   1.982   4.176   5.070  1.0849 -0.0641  0.7636
19196TIP3    H279080   1.961   4.053   5.156 -1.9750  0.0775  0.3474
19197TIP3   OH279081   0.781   4.295  14.453 -0.0805  0.3720  0.1644
19197TIP3    H179082   0.760   4.202  14.439  0.9492 -0.1456  1.7628
19197TIP3    H279083   0.823   4.323  14.372  1.8924 -1.2942  0.5144
19198TIP3   OH279084   2.138   0.864   1.053  0.5355  0.3751 -0.3592
19198TIP3    H179085   2.162   0.781   1.095  1.0282  0.7919  0.2031
19198TIP3    H279086   2.076   0.839   0.985 -2.4393 -0.0933  2.3099
19199TIP3   OH279087   4.821   3.472  11.304  0.1749  0.0101 -0.1627
19199TIP3    H179088   4.870   3.482  11.223 -0.2037 -1.0981 -0.5530
19199TIP3    H279089   4.833   3.555  11.351 -1.4715  1.5972 -2.3529
19200TIP3   OH279090   5.193   1.350  14.529 -0.3924  0.1654 -0.5677
19200TIP3    H179091   5.197   1.424  14.590 -0.5295  0.3974 -0.8360
19200TIP3    H279092   5.264   1.292  14.556 -1.4349 -0.5137  0.8062
19201TIP3   OH279093   0.902   2.719   4.714 -0.0065  0.7083  0.1708
19201TIP3    H179094   0.969   2.733   4.646  1.6238  2.2166  1.9687
19201TIP3    H279095   0.820   2.709   4.666  1.3316 -0.1633 -2.0901
19202TIP3   OH279096   4.134   6.145   2.427 -0.2205 -0.7060 -0.2511
19202TIP3    H179097   4.059   6.205   2.428  0.2234 -0.1276 -1.0062
19202TIP3    H279098   4.094   6.058   2.421 -0.8470 -0.4357 -0.1332
19203TIP3   OH279099   0.027   1.983   4.583  0.2298  0.1112  0.2245
19203TIP3    H179100  -0.021   1.923   4.640  1.1319 -1.1685 -0.3139
19203TIP3    H279101   0.086   1.926   4.532  1.1227  1.4535 -0.3029
19204TIP3   OH279102   3.530   6.219   5.988  0.4191 -0.1383 -0.6936
19204TIP3    H179103   3.612   6.171   5.976 -0.5662 -2.3523  0.7235
19204TIP3    H279104   3.550   6.283   6.057  1.1114 -0.1988 -0.8305
19205TIP3   OH279105   4.966   0.114  16.085  1.0041  0.7103 -0.2313
19205TIP3    H179106   4.949   0.191  16.140 -0.1270  0.4710 -0.2149
19205TIP3    H279107   5.027   0.061  16.136 -0.3841  0.2646  1.0432
19206TIP3   OH279108   1.657   4.031  10.662 -0.5917 -0.1587 -0.4708
19206TIP3    H179109   1.645   4.019  10.756 -0.2703  1.2484 -0.2240
19206TIP3    H279110   1.614   4.115  10.643  0.8127  0.4232 -1.2408
19207TIP3   OH279111   0.033   6.334   0.061 -0.1332 -0.2213  0.3772
19207TIP3    H179112   0.069   6.247   0.050 -2.3051 -1.1599  0.0596
19207TIP3    H279113  -0.028   6.344  -0.013  1.1888  2.2090 -0.5060
19208TIP3   OH279114   1.015   3.463   2.850 -0.0127 -0.0312 -0.6029
19208TIP3    H179115   1.071   3.394   2.886  0.9104  0.4900 -0.9907
19208TIP3    H279116   0.929   3.446   2.887  0.0391 -1.7662 -1.1926
19209TIP3   OH279117   4.479   6.808   3.638 -0.0536  0.3626 -0.3033
19209TIP3    H179118   4.570   6.790   3.660  0.4937  1.4791 -1.5184
19209TIP3    H279119   4.434   6.725   3.651  1.9397 -1.5131 -3.7852
19210TIP3   OH279120   0.421   6.792  10.935 -0.4808  1.0960  0.1142
19210TIP3    H179121   0.466   6.876  10.934  0.1373  0.7618 -0.2897
19210TIP3    H279122   0.439   6.753  10.849  1.2649 -0.4959  1.1201
19211TIP3   OH279123   3.718   2.864  12.667  0.4582 -0.3872  0.1750
19211TIP3    H179124   3.720   2.918  12.587 -1.4752 -1.0199 -0.3561
19211TIP3    H279125   3.628   2.833  12.672  0.4204 -0.0266  2.8731
19212TIP3   OH279126   6.399   6.452   1.672 -0.2610  0.1916 -0.0333
19212TIP3    H179127   6.426   6.543   1.687 -0.2033  0.0945  0.4685
19212TIP3    H279128   6.457   6.422   1.602 -1.1589  0.9411 -1.1332
19213TIP3   OH279129   5.417   3.711   1.674 -1.2443 -0.3822 -0.0962
19213TIP3    H179130   5.431   3.697   1.768 -1.6689 -2.3715 -0.2780
19213TIP3    H279131   5.501   3.689   1.634 -0.9610  0.8011 -0.1739
19214TIP3   OH279132   5.866   0.855  11.471 -0.0450  0.2250 -0.0554
19214TIP3    H179133   5.886   0.810  11.553  0.6922  1.6596  0.5768
19214TIP3    H279134   5.793   0.805  11.434 -0.9401  0.0058  1.8663
19215TIP3   OH279135   3.126   3.223  13.022 -0.4781 -0.0877 -0.0281
19215TIP3    H179136   3.081   3.245  12.940 -0.1767  1.7643  0.2560
19215TIP3    H279137   3.146   3.130  13.014 -2.9481 -0.6194 -0.8320
19216TIP3   OH279138   1.826   1.004   2.867 -0.1926  0.6317 -0.4252
19216TIP3    H179139   1.746   0.963   2.899 -0.2349  1.1474  0.1423
19216TIP3    H279140   1.881   0.931   2.839 -0.8660  0.2684 -0.8590
19217TIP3   OH279141   0.837   0.885   2.893 -0.2225  0.5473 -0.1585
19217TIP3    H179142   0.749   0.893   2.857 -1.5704 -0.2119  2.6636
19217TIP3    H279143   0.893   0.872   2.817 -2.8079 -1.0444 -1.9355
19218TIP3   OH279144   6.321   4.472   2.096 -0.4806 -0.1091 -0.0463
19218TIP3    H179145   6.318   4.444   2.004 -2.4411 -1.8667  0.4698
19218TIP3    H279146   6.401   4.434   2.131 -0.4915 -0.7263 -0.6700
19219TIP3   OH279147   2.103   4.190   0.044  0.5254 -0.4927  0.2550
19219TIP3    H179148   2.092   4.108   0.093  0.8922 -0.1506  0.9275
19219TIP3    H279149   2.123   4.162  -0.045 -4.9011 -1.2712 -1.0782
19220TIP3   OH279150   0.062   6.009   2.002 -0.7982 -0.2041  0.3299
19220TIP3    H179151   0.104   5.975   1.923 -0.1975  0.8039  0.1901
19220TIP3    H279152   0.090   6.101   2.006  0.3641 -0.5652  2.4677
19221TIP3   OH279153   6.562   5.138   1.146 -0.3787  0.3672  0.8367
19221TIP3    H179154   6.608   5.054   1.156 -1.1055 -0.3683 -1.2696
19221TIP3    H279155   6.632   5.203   1.140  0.2679 -0.3048  0.9082
19222TIP3   OH279156   4.483   2.629  17.168 -0.0885  0.0088  0.2970
19222TIP3    H179157   4.528   2.545  17.178  1.0324  0.2958 -1.7520
19222TIP3    H279158   4.397   2.616  17.209  1.0985 -1.1749  2.5881
19223TIP3   OH279159   0.434   1.246   5.070 -0.2790  0.1079 -0.0751
19223TIP3    H179160   0.382   1.291   5.137 -0.9211  0.7284 -0.9660
19223TIP3    H279161   0.494   1.190   5.120 -0.6311  0.6692  1.0182
19224TIP3   OH279162   6.483   2.310   0.304 -0.3305 -0.1350 -0.2811
19224TIP3    H179163   6.568   2.273   0.327 -0.3868  0.7056  1.4125
19224TIP3    H279164   6.420   2.241   0.322 -0.0522 -0.6950 -1.3592
19225TIP3   OH279165   3.019   3.569   5.920  0.3570 -0.5722 -0.0270
19225TIP3    H179166   3.048   3.555   6.010  2.8804  0.1618 -0.6654
19225TIP3    H279167   3.004   3.664   5.915  0.1791 -0.6189 -0.3654
19226TIP3   OH279168   2.896   5.781  13.218 -0.4146 -0.0638  0.3350
19226TIP3    H179169   2.964   5.791  13.285 -0.1099 -0.7469  0.1330
19226TIP3    H279170   2.888   5.869  13.180  1.7066 -0.3449 -0.9230
19227TIP3   OH279171   0.664   0.175  16.015  0.3074  0.3948 -0.1763
19227TIP3    H179172   0.704   0.259  15.992 -0.4553  2.0059  3.5788
19227TIP3    H279173   0.709   0.148  16.095 -2.0857 -0.7113  0.9158
19228TIP3   OH279174   4.894   2.191   4.265  0.0607 -0.4008 -0.2078
19228TIP3    H179175   4.984   2.203   4.235  0.1348 -0.9101 -0.2030
19228TIP3    H279176   4.861   2.280   4.281 -0.4952  0.0271 -3.2007
19229TIP3   OH279177   5.637   2.647   3.113  0.1863  0.1826  0.8204
19229TIP3    H179178   5.697   2.678   3.046 -2.0637  1.7369 -0.6362
19229TIP3    H279179   5.664   2.693   3.193  0.5570  1.3403  0.0478
19230TIP3   OH279180   0.667   0.014   6.256 -1.0414  0.0627 -0.1631
19230TIP3    H179181   0.723   0.086   6.225 -1.7140 -0.8686 -4.1054
19230TIP3    H279182   0.584   0.055   6.277 -0.4203  0.8158  0.9055
19231TIP3   OH279183   4.149   1.395  17.210  1.1601 -0.9112  0.1270
19231TIP3    H179184   4.137   1.488  17.224  0.8239 -0.7525 -1.0611
19231TIP3    H279185   4.191   1.389  17.123 -1.7925 -1.9482 -1.3559
19232TIP3   OH279186   5.995   6.674   4.862 -0.0494 -0.3882 -0.8710
19232TIP3    H179187   5.967   6.723   4.785 -0.3428 -0.7003 -0.9693
19232TIP3    H279188   6.085   6.701   4.877  0.1710 -0.6938 -1.6256
19233TIP3   OH279189   3.654   6.022   6.574 -1.0182 -0.5171  0.1481
19233TIP3    H179190   3.690   6.103   6.538 -0.5758  0.6896  3.0046
19233TIP3    H279191   3.726   5.959   6.567 -0.5708  0.0051 -0.0493
19234TIP3   OH279192   5.557   6.084  17.147  0.4206  0.0007 -0.9297
19234TIP3    H179193   5.467   6.114  17.159  0.5227 -0.1628  0.3901
19234TIP3    H279194   5.548   5.996  17.110 -0.0146 -0.5280  0.3700
19235TIP3   OH279195   0.570   1.906  14.146 -0.2003 -0.0306  0.2760
19235TIP3    H179196   0.553   1.859  14.228  1.6251 -0.6110  0.3514
19235TIP3    H279197   0.575   1.998  14.173  1.5646 -0.3169  1.0650
19236TIP3   OH279198   4.768   4.130  14.080  0.2670 -0.8312 -0.4484
19236TIP3    H179199   4.725   4.045  14.091 -1.4699  0.0670  0.0136
19236TIP3    H279200   4.768   4.145  13.985  1.4300 -1.7153 -0.6231
19237TIP3   OH279201   0.708   2.548  16.009 -0.2248  0.4623  0.1248
19237TIP3    H179202   0.650   2.531  15.935  0.3721 -1.9344  0.1290
19237TIP3    H279203   0.791   2.508  15.985  0.4941  1.1031  1.4060
19238TIP3   OH279204   3.146   3.265  12.584  0.2124  0.1016  0.5088
19238TIP3    H179205   3.092   3.330  12.631  1.3191  0.4151  1.4044
19238TIP3    H279206   3.219   3.316  12.550 -0.8008 -0.0372 -2.0493
19239TIP3   OH279207   5.309   0.172  15.066 -0.1704  0.0654 -0.7160
19239TIP3    H179208   5.355   0.201  15.145  0.6319 -3.1013  0.1062
19239TIP3    H279209   5.225   0.218  15.070 -0.3651 -0.3392  2.2927
19240TIP3   OH279210   4.181   3.707  11.725 -0.2409 -0.2710  0.0401
19240TIP3    H179211   4.188   3.674  11.635  0.0829 -0.7432  0.2302
19240TIP3    H279212   4.133   3.789  11.718  0.4670  0.0878 -0.6543
19241TIP3   OH279213   2.716   3.258   6.551 -0.4254  0.4823  0.3755
19241TIP3    H179214   2.801   3.298   6.569 -0.7866  0.9182  1.1610
19241TIP3    H279215   2.708   3.188   6.615 -0.1240 -0.3898 -0.5132
19242TIP3   OH279216   0.874   6.700   0.547 -0.0477 -0.2892  0.0914
19242TIP3    H179217   0.814   6.626   0.557  0.2520 -0.5068  0.2786
19242TIP3    H279218   0.819   6.770   0.510 -0.4907 -0.3995  0.5166
19243TIP3   OH279219   1.623   0.994   5.900  0.1226 -0.1200  1.0890
19243TIP3    H179220   1.584   0.908   5.919  1.1403 -1.5370 -2.4273
19243TIP3    H279221   1.711   0.974   5.868  0.5533  2.2914  0.5582
19244TIP3   OH279222   4.855   4.395   0.245  0.4846  0.5751 -0.3972
19244TIP3    H179223   4.784   4.458   0.236  0.2980  0.1682 -2.1353
19244TIP3    H279224   4.935   4.447   0.244  0.2435  1.0119  1.2891
19245TIP3   OH279225   5.691   0.430   1.149 -0.1726  0.0815 -0.2952
19245TIP3    H179226   5.657   0.341   1.140 -0.7019  0.0307  1.7238
19245TIP3    H279227   5.642   0.467   1.223  2.5492  0.7955  1.2795
19246TIP3   OH279228   4.854   4.075   0.691  0.2653  0.0827  0.1693
19246TIP3    H179229   4.885   4.069   0.781  0.3619  0.4833  0.1666
19246TIP3    H279230   4.914   4.136   0.649  1.3743 -1.5135 -0.6792
19247TIP3   OH279231   0.732   0.880   5.381 -0.5031  0.0646  0.0139
19247TIP3    H179232   0.698   0.966   5.406 -2.0124 -0.1399 -1.1508
19247TIP3    H279233   0.825   0.883   5.403 -0.8524  1.3816  1.5449
19248TIP3   OH279234   2.661   6.714  13.703 -0.3561  0.2241 -0.2539
19248TIP3    H179235   2.745   6.701  13.659 -0.2927 -1.4269  0.3176
19248TIP3    H279236   2.599   6.658  13.656 -0.7419  0.0315  0.4741
19249TIP3   OH279237   4.007   4.146  12.492 -0.6137 -0.4137  0.5712
19249TIP3    H179238   4.045   4.061  12.516 -0.4415  0.3488  3.2472
19249TIP3    H279239   4.076   4.190  12.443 -0.6524 -1.7151 -0.7274
19250TIP3   OH279240   4.190   2.781  14.970  0.1504 -0.1438 -0.1458
19250TIP3    H179241   4.109   2.731  14.979 -0.1086 -0.1463 -2.1315
19250TIP3    H279242   4.174   2.862  15.018 -0.3743 -0.8718  0.9342
19251TIP3   OH279243   0.188   4.701  14.422  0.8234  0.1563  0.4681
19251TIP3    H179244   0.263   4.657  14.464  0.7519 -0.8143 -0.3817
19251TIP3    H279245   0.139   4.630  14.381 -0.1857  0.8694  0.4096
19252TIP3   OH279246   0.224   5.660  13.553 -0.4351  0.2161  0.1227
19252TIP3    H179247   0.228   5.680  13.460  0.6132  0.4392  0.2015
19252TIP3    H279248   0.274   5.578  13.562  0.1001  0.5889  0.5871
19253TIP3   OH279249   1.186   2.884   2.364 -0.8328  0.7071 -0.3127
19253TIP3    H179250   1.225   2.849   2.444 -1.2909 -0.8556 -0.7456
19253TIP3    H279251   1.259   2.928   2.319  0.2143 -1.2200 -0.5785
19254TIP3   OH279252   4.719   4.625   0.699  0.3355 -0.7712  0.0373
19254TIP3    H179253   4.753   4.634   0.610 -1.2945  0.2639 -0.5155
19254TIP3    H279254   4.785   4.668   0.754  1.3881 -1.4706 -0.6383
19255TIP3   OH279255   1.683   1.120  14.688 -0.0320  0.1084 -0.2441
19255TIP3    H179256   1.709   1.182  14.756 -0.5245  0.4076 -0.3292
19255TIP3    H279257   1.757   1.121  14.627  1.4116 -1.7738  1.3423
19256TIP3   OH279258   5.698   6.388   0.670 -0.0221  0.3107  0.5715
19256TIP3    H179259   5.655   6.415   0.751 -1.2018 -0.0789  0.1027
19256TIP3    H279260   5.689   6.464   0.612 -1.9020 -0.4455 -0.1990
19257TIP3   OH279261   0.617   0.042  13.293  0.2226 -0.2053  0.1050
19257TIP3    H179262   0.704   0.015  13.267  1.3686 -0.8748  3.9456
19257TIP3    H279263   0.569  -0.040  13.307  1.1974 -0.2828  4.1831
19258TIP3   OH279264   5.597   3.783  12.938  0.0423  0.0461  0.0708
19258TIP3    H179265   5.625   3.865  12.978 -1.2631  0.9443 -0.8112
19258TIP3    H279266   5.588   3.803  12.845 -2.5346 -0.4271  0.1575
19259TIP3   OH279267   1.682   5.127  12.241  0.6862 -0.1403  0.6306
19259TIP3    H179268   1.749   5.186  12.207  0.3345 -0.5704 -0.8581
19259TIP3    H279269   1.731   5.050  12.272  0.8459 -1.0214 -1.6375
19260TIP3   OH279270   5.676   0.508  16.038  0.2078  0.3421 -0.2575
19260TIP3    H179271   5.616   0.488  15.966  1.8412  0.8539 -1.8443
19260TIP3    H279272   5.698   0.422  16.074  0.3109 -0.0357 -1.1870
19261TIP3   OH279273   4.575   0.978  16.627 -0.1624  0.3483 -0.0209
19261TIP3    H179274   4.589   0.930  16.546  0.4648 -1.3847  1.0525
19261TIP3    H279275   4.647   1.041  16.631  0.7099 -0.6134 -0.1007
19262TIP3   OH279276   1.582   3.972  11.252  0.3507  0.1216 -0.0135
19262TIP3    H179277   1.635   3.990  11.174 -1.4054 -0.4766 -1.4244
19262TIP3    H279278   1.634   3.910  11.303  1.8244  1.0214 -0.3693
19263TIP3   OH279279   6.355   0.660  12.131  0.2089 -0.3816 -0.1018
19263TIP3    H179280   6.422   0.595  12.110  1.6574  0.7010  0.9840
19263TIP3    H279281   6.377   0.735  12.077 -0.8465 -0.4009 -0.5882
19264TIP3   OH279282   6.280   2.125   3.076 -0.2773 -1.0009  0.0361
19264TIP3    H179283   6.367   2.086   3.077  0.6034  0.8211  2.0258
19264TIP3    H279284   6.295   2.219   3.079 -2.2758 -0.6463  1.6888
19265TIP3   OH279285   5.014   1.066  15.300  0.1336  0.0309 -0.8720
19265TIP3    H179286   5.080   0.998  15.284  1.2291 -0.0851  3.0578
19265TIP3    H279287   4.937   1.018  15.330  0.2478  0.4131  0.0567
19266TIP3   OH279288   1.202   0.691  15.638 -0.0147  0.0434 -0.0525
19266TIP3    H179289   1.275   0.753  15.632 -1.4823  1.9964  1.1243
19266TIP3    H279290   1.229   0.629  15.705  1.6657 -0.9375 -1.5524
19267TIP3   OH279291   2.483   0.078   5.147  0.2280  0.2316  0.2978
19267TIP3    H179292   2.422   0.089   5.221  0.9227  1.5154  0.7147
19267TIP3    H279293   2.567   0.058   5.189  0.1330 -1.4192 -0.2666
19268TIP3   OH279294   1.532   0.031   1.257  0.0771  0.1485 -0.4589
19268TIP3    H179295   1.501   0.007   1.170 -0.6962 -0.3732 -0.0563
19268TIP3    H279296   1.552  -0.053   1.299 -0.7735  0.3071  0.2908
19269TIP3   OH279297   1.039   6.804  16.423 -0.1669  0.6218  0.1540
19269TIP3    H179298   1.019   6.723  16.375  1.5875  0.2237  0.0386
19269TIP3    H279299   0.980   6.802  16.499 -0.0430 -0.8429  0.2390
19270TIP3   OH279300   3.660   1.335   4.644  0.4130 -0.2599  0.0254
19270TIP3    H179301   3.628   1.425   4.641  0.5693 -0.2032  0.0102
19270TIP3    H279302   3.733   1.334   4.581  0.2620 -0.4564 -0.1460
19271TIP3   OH279303   0.681   5.076   5.974 -0.4080 -0.3474  0.8194
19271TIP3    H179304   0.618   5.052   6.042 -0.5458 -0.4311  0.6623
19271TIP3    H279305   0.765   5.082   6.021 -0.8008  1.4803  1.3597
19272TIP3   OH279306   1.772   4.309  11.973  0.8579 -0.1002  0.1928
19272TIP3    H179307   1.742   4.225  11.937 -0.4287  0.1051  0.7117
19272TIP3    H279308   1.697   4.368  11.959  2.4103  1.5126 -1.9287
19273TIP3   OH279309   2.793   0.202   5.675 -0.4674  0.0759  0.3473
19273TIP3    H179310   2.812   0.130   5.735 -1.0322  1.6851  2.5860
19273TIP3    H279311   2.719   0.171   5.623 -1.0799 -0.7675  1.6654
19274TIP3   OH279312   4.500   3.548   3.813 -0.3358  0.2128  0.1310
19274TIP3    H179313   4.430   3.589   3.763 -1.1958 -1.1103  0.1955
19274TIP3    H279314   4.481   3.454   3.808  1.6257 -0.2020 -0.1106
19275TIP3   OH279315   6.117   1.860  11.440 -0.0006  0.1334  0.1992
19275TIP3    H179316   6.202   1.904  11.433  0.9464 -1.8418 -1.7761
19275TIP3    H279317   6.138   1.767  11.438 -2.1063 -0.4557  1.9057
19276TIP3   OH279318   1.937   0.661   4.515  0.2513  0.6936 -0.2720
19276TIP3    H179319   1.856   0.692   4.554  0.4832  0.3522  0.5116
19276TIP3    H279320   2.002   0.726   4.540  0.4917  0.2373  0.3092
19277TIP3   OH279321   4.152   4.812   6.160 -0.4266  0.0540 -0.0155
19277TIP3    H179322   4.141   4.722   6.193 -1.0110  0.3351  0.5846
19277TIP3    H279323   4.242   4.834   6.182 -0.6920  0.1001  1.1037
19278TIP3   OH279324   2.399   3.305   2.821  0.1632 -0.1565  0.4326
19278TIP3    H179325   2.322   3.248   2.816 -0.4338  0.6155  0.4640
19278TIP3    H279326   2.414   3.332   2.730 -0.8796  1.2977  0.6495
19279TIP3   OH279327   1.306   4.829  13.348  0.2039  0.3047 -0.4531
19279TIP3    H179328   1.229   4.777  13.370  0.7181  0.2756  1.4815
19279TIP3    H279329   1.369   4.766  13.312 -0.8264  0.4289 -2.6601
19280TIP3   OH279330   2.877   4.816   3.692 -0.1574 -0.0747 -1.0015
19280TIP3    H179331   2.847   4.820   3.602  1.0172 -0.5289 -1.4369
19280TIP3    H279332   2.888   4.908   3.718 -1.4007  0.0820 -0.9863
19281TIP3   OH279333   4.525   6.605  11.924 -0.3721 -0.0237  0.4456
19281TIP3    H179334   4.479   6.524  11.906  1.7507 -1.9673  2.8746
19281TIP3    H279335   4.582   6.618  11.848 -0.6026 -0.9169  0.1102
19282TIP3   OH279336   1.097   2.256  11.551 -0.5047  0.2925  0.7099
19282TIP3    H179337   1.082   2.162  11.545 -0.4887  0.2367  1.4478
19282TIP3    H279338   1.047   2.293  11.478 -1.6113 -0.1782  1.2074
19283TIP3   OH279339   5.886   3.374  12.665  0.4194  0.0224 -0.2150
19283TIP3    H179340   5.868   3.425  12.585  1.5048  0.9403  0.0995
19283TIP3    H279341   5.815   3.398  12.725  1.7665  2.5579  0.5344
19284TIP3   OH279342   3.148   5.566   2.323  0.7977 -0.5989  0.1952
19284TIP3    H179343   3.189   5.594   2.405 -0.9817  1.1948  0.5478
19284TIP3    H279344   3.118   5.648   2.283  2.4942 -1.2758 -2.8025
19285TIP3   OH279345   1.232   3.633   0.469  0.0370 -0.0233  0.0707
19285TIP3    H179346   1.146   3.608   0.437 -0.0025 -1.4907  1.2212
19285TIP3    H279347   1.293   3.588   0.411  0.0077 -0.1635  0.1486
19286TIP3   OH279348   0.235   3.564   5.740 -0.5655 -0.6201  0.0150
19286TIP3    H179349   0.239   3.472   5.714  0.7321 -0.9310  1.1619
19286TIP3    H279350   0.209   3.611   5.661 -0.3334 -1.8748 -0.8351
19287TIP3   OH279351   1.677   5.288  16.966  0.5308  0.6591 -0.2587
19287TIP3    H179352   1.670   5.312  17.059 -0.3631 -1.4708  0.2759
19287TIP3    H279353   1.673   5.372  16.920  3.1311  1.9870  1.6545
19288TIP3   OH279354   2.842   0.057   4.044 -0.0550  0.1206  0.2929
19288TIP3    H179355   2.875  -0.033   4.043 -0.3703  0.0093  0.0992
19288TIP3    H279356   2.747   0.048   4.037  0.0507  0.5725 -4.2872
19289TIP3   OH279357   6.050   5.802  13.957  0.0953  0.2599 -0.1108
19289TIP3    H179358   6.099   5.773  13.880  0.3310  0.0804  0.1069
19289TIP3    H279359   6.101   5.875  13.992  0.3694 -0.1116  0.2837
19290TIP3   OH279360   2.062   4.227   2.806 -0.0623 -0.3380  0.3904
19290TIP3    H179361   1.994   4.285   2.841  2.5877  3.3684 -0.0738
19290TIP3    H279362   2.047   4.228   2.711  1.1033  1.3591  0.1710
19291TIP3   OH279363   5.600   0.651   3.613  0.0095  0.1447  0.2167
19291TIP3    H179364   5.556   0.734   3.594  0.0293  0.2329  0.5475
19291TIP3    H279365   5.625   0.658   3.705  0.6369  0.0591  0.0629
19292TIP3   OH279366   5.176   1.039   3.728 -0.0257 -0.0615 -0.0726
19292TIP3    H179367   5.140   0.967   3.676  0.7642 -1.2907  1.0258
19292TIP3    H279368   5.101   1.070   3.779 -0.7570  1.0086 -1.6844
19293TIP3   OH279369   4.442   2.802   2.857 -0.3590 -0.0753 -0.2336
19293TIP3    H179370   4.486   2.793   2.942 -1.5382  1.3919  0.5726
19293TIP3    H279371   4.485   2.877   2.816 -0.3145 -0.3020 -0.6049
19294TIP3   OH279372   0.376   2.813   3.587  0.2647 -0.4883  0.0445
19294TIP3    H179373   0.471   2.823   3.586  0.3127 -0.8682  0.5664
19294TIP3    H279374   0.362   2.722   3.561  0.1213 -0.9127  1.5393
19295TIP3   OH279375   4.470   5.282  10.547  0.1791  0.2662 -0.4488
19295TIP3    H179376   4.494   5.370  10.519 -1.2713  0.3959 -1.3927
19295TIP3    H279377   4.375   5.281  10.545  0.1536 -1.1259  0.2095
19296TIP3   OH279378   5.945   4.268   6.123 -0.4463 -0.0641 -0.1265
19296TIP3    H179379   6.015   4.304   6.177 -1.8425  2.2132  0.2901
19296TIP3    H279380   5.937   4.177   6.152  0.1971  0.5166  2.0829
19297TIP3   OH279381   4.080   4.014  10.419 -0.0906 -0.6897  0.7853
19297TIP3    H179382   4.112   4.000  10.330 -0.8189 -1.8101  0.6754
19297TIP3    H279383   4.031   4.095  10.416  1.0458  0.0080  0.4990
19298TIP3   OH279384   6.255   0.351  11.834 -0.1819  0.0241 -0.0405
19298TIP3    H179385   6.186   0.412  11.860 -0.8558 -0.5248 -0.4763
19298TIP3    H279386   6.213   0.265  11.838  0.8614 -0.4607  0.9421
19299TIP3   OH279387   5.168   4.454  11.361  0.6719  0.7969 -0.5000
19299TIP3    H179388   5.261   4.471  11.375  0.9747 -0.6985 -0.4564
19299TIP3    H279389   5.134   4.437  11.449  0.3816  1.2195 -0.5298
19300TIP3   OH279390   2.043   5.363   1.787 -0.5909 -0.4850  0.2787
19300TIP3    H179391   2.075   5.275   1.808  0.6208 -0.3846 -0.9690
19300TIP3    H279392   2.049   5.411   1.870 -1.2670 -1.5527  0.9736
19301TIP3   OH279393   1.491   4.073   5.410 -0.1866  0.6567  0.6365
19301TIP3    H179394   1.406   4.087   5.452 -0.4464 -1.1415  0.7756
19301TIP3    H279395   1.554   4.075   5.482 -0.7667 -3.8395  1.5662
19302TIP3   OH279396   3.031   5.683  16.133  0.6139  0.1246 -0.4088
19302TIP3    H179397   3.018   5.777  16.146 -0.3546  0.0071 -0.4340
19302TIP3    H279398   3.120   5.666  16.165  0.3014  0.8085  0.8777
19303TIP3   OH279399   6.407   6.782   2.528  0.3548  0.0767 -0.4333
19303TIP3    H179400   6.415   6.802   2.621 -0.0019  0.2533 -0.4365
19303TIP3    H279401   6.469   6.842   2.486  1.1239 -0.5747 -0.2548
19304TIP3   OH279402   3.264   2.767  17.054  0.1391 -0.3561 -0.4332
19304TIP3    H179403   3.300   2.828  17.118  0.1866  0.0076 -0.7946
19304TIP3    H279404   3.180   2.739  17.091 -0.4812  0.9106 -0.8277
19305TIP3   OH279405   1.240   5.015   0.542 -0.1645  0.2304  0.1353
19305TIP3    H179406   1.231   5.097   0.590 -1.1335 -0.3021  0.9188
19305TIP3    H279407   1.333   4.995   0.545 -0.0264  0.9172  0.5911
19306TIP3   OH279408   4.443   2.254   0.551 -0.2996  0.7480 -0.0124
19306TIP3    H179409   4.441   2.227   0.459  0.3542  1.5353 -0.2734
19306TIP3    H279410   4.417   2.346   0.549 -0.8793  0.6062  0.6682
19307TIP3   OH279411   5.259   3.468   5.310  0.1839  0.1572  0.0312
19307TIP3    H179412   5.300   3.541   5.357  0.5043  1.1261 -1.6915
19307TIP3    H279413   5.219   3.415   5.379  0.3395  1.7053  1.3699
19308TIP3   OH279414   0.285   4.794  14.153 -0.3192  0.2140  0.4282
19308TIP3    H179415   0.362   4.835  14.191 -0.8092 -0.5835  2.3900
19308TIP3    H279416   0.232   4.767  14.228 -3.3241  2.1736 -0.7915
19309TIP3   OH279417   6.525   3.067   3.828  0.0281 -0.2497  0.3920
19309TIP3    H179418   6.573   3.070   3.911  0.1573  0.2584  0.3050
19309TIP3    H279419   6.524   2.975   3.803 -0.8140 -0.5479  1.4314
19310TIP3   OH279420   6.760   5.884  13.528 -0.1671  0.2028  0.3253
19310TIP3    H179421   6.833   5.939  13.499 -0.3810  1.2218  1.6474
19310TIP3    H279422   6.798   5.826  13.594 -0.4761  0.5316  0.7981
19311TIP3   OH279423   2.770   3.422  13.021  0.3244  0.1756 -0.1713
19311TIP3    H179424   2.821   3.477  13.080  0.7898  0.3136 -0.6885
19311TIP3    H279425   2.680   3.429  13.052  0.5627  0.2437  0.5168
19312TIP3   OH279426   2.198   1.575  11.674 -0.0306 -0.0952 -0.3513
19312TIP3    H179427   2.191   1.489  11.631  1.8978  0.6331 -2.2897
19312TIP3    H279428   2.123   1.624  11.641 -0.0402 -0.3891 -0.7726
19313TIP3   OH279429   3.558   4.080   3.106  0.2915  0.5223  0.1721
19313TIP3    H179430   3.477   4.030   3.114 -0.1657  1.1596 -0.3374
19313TIP3    H279431   3.574   4.085   3.012  0.6831  0.7823  0.2494
19314TIP3   OH279432   2.806   1.306  11.558 -0.1525  0.2569  0.8487
19314TIP3    H179433   2.839   1.374  11.501 -1.2844  1.7879  1.9486
19314TIP3    H279434   2.788   1.232  11.500  1.8248  0.5689 -0.2509
19315TIP3   OH279435   2.128   0.387   2.325  0.4276 -0.2287  0.3650
19315TIP3    H179436   2.117   0.474   2.288  1.9280 -0.3844 -0.5066
19315TIP3    H279437   2.187   0.342   2.265 -0.4096 -1.9051  0.7240
19316TIP3   OH279438   1.509   1.872  15.689 -0.3552  0.8028 -0.2282
19316TIP3    H179439   1.484   1.906  15.603  2.6179  0.9128 -1.1870
19316TIP3    H279440   1.522   1.949  15.743  2.6189  1.1820 -1.2689
19317TIP3   OH279441   2.592   2.364   1.939  0.0612 -0.0759  0.1996
19317TIP3    H179442   2.640   2.383   2.020  0.7933 -0.4108 -0.1508
19317TIP3    H279443   2.660   2.346   1.874 -0.5402 -1.9904  0.0408
19318TIP3   OH279444   1.727   4.879   1.499 -0.0100 -0.1876 -0.5237
19318TIP3    H179445   1.701   4.966   1.470  2.3844  1.4058  1.5817
19318TIP3    H279446   1.733   4.827   1.419 -3.2373  0.9688 -1.6646
19319TIP3   OH279447   3.187   5.439   0.751 -0.8545  0.1533  0.0106
19319TIP3    H179448   3.180   5.383   0.673  0.6843  1.9599 -1.5344
19319TIP3    H279449   3.104   5.488   0.752 -0.2338  1.3111 -1.5385
19320TIP3   OH279450   5.581   1.662   4.842 -0.1454 -0.5058 -0.3640
19320TIP3    H179451   5.493   1.694   4.826 -0.0455  1.1950  1.9946
19320TIP3    H279452   5.570   1.571   4.867 -1.2427 -0.3261 -0.1627
19321TIP3   OH279453   1.950   5.155  11.015 -0.3304  0.2478  0.3792
19321TIP3    H179454   2.031   5.205  11.011  0.9108 -1.7081 -0.4019
19321TIP3    H279455   1.909   5.170  10.929 -1.0747  1.5539  0.9135
19322TIP3   OH279456   3.714   6.677  15.701  0.3071 -0.1336 -0.0426
19322TIP3    H179457   3.637   6.731  15.718  0.1823  0.0917 -1.2542
19322TIP3    H279458   3.706   6.651  15.610  2.2153  0.8218 -0.5507
19323TIP3   OH279459   6.155   1.966  14.304  0.3950  0.3900  0.0895
19323TIP3    H179460   6.122   2.054  14.323 -1.8304 -0.1766 -0.7919
19323TIP3    H279461   6.077   1.917  14.276  1.4054 -2.1157  1.3820
19324TIP3   OH279462   6.107   4.206   3.063  0.1137  0.5669  0.3701
19324TIP3    H179463   6.090   4.168   3.149  1.7882  3.3968  2.1319
19324TIP3    H279464   6.082   4.298   3.072  2.3253  1.4509 -1.4571
19325TIP3   OH279465   1.359   5.075   1.072 -0.5849 -0.2079  0.1590
19325TIP3    H179466   1.378   5.098   0.981  0.5892 -0.0303  0.4245
19325TIP3    H279467   1.267   5.097   1.084 -0.3101  1.5247 -0.4771
19326TIP3   OH279468   5.640   5.369  15.769  0.0157  0.1529 -0.5044
19326TIP3    H179469   5.634   5.299  15.704 -0.0325 -0.0131 -0.3206
19326TIP3    H279470   5.679   5.442  15.721  1.4383 -0.4626 -0.3347
19327TIP3   OH279471   1.540   0.482  11.007  0.3071  0.1875  0.0318
19327TIP3    H179472   1.538   0.399  11.054 -1.1105  3.0230  5.9077
19327TIP3    H279473   1.629   0.516  11.022 -0.0522  0.9906  0.3984
19328TIP3   OH279474   2.203   1.203   5.305 -0.0944  0.0125 -0.1637
19328TIP3    H179475   2.121   1.178   5.348 -0.4019  1.6027  0.2286
19328TIP3    H279476   2.203   1.152   5.223 -1.9101  0.6052 -0.5966
19329TIP3   OH279477   6.466   6.314   1.326 -0.0413  0.1312  0.0351
19329TIP3    H179478   6.475   6.262   1.406  0.4022  1.0171  0.5734
19329TIP3    H279479   6.465   6.405   1.356 -2.7639  0.4354 -0.7018
19330TIP3   OH279480   0.074   6.053   4.288  0.4897 -0.2259 -0.1203
19330TIP3    H179481   0.121   6.084   4.210  0.8463 -0.7771 -0.1295
19330TIP3    H279482  -0.017   6.080   4.274  0.4306 -0.8625 -1.0114
19331TIP3   OH279483   1.577   0.835   0.148 -0.7079  0.6255 -0.0462
19331TIP3    H179484   1.528   0.916   0.138 -1.4465  0.3545  1.1634
19331TIP3    H279485   1.513   0.766   0.127 -0.1737  0.3398 -0.7662
19332TIP3   OH279486   2.012   2.121   2.201  0.3468 -0.7655  0.2972
19332TIP3    H179487   2.031   2.212   2.175  0.4345 -0.9373 -0.2452
19332TIP3    H279488   2.016   2.123   2.297  0.5772 -0.2442  0.2836
19333TIP3   OH279489   4.958   2.735   4.990  0.1005 -0.1456 -0.4362
19333TIP3    H179490   4.999   2.781   4.917 -1.0473  2.2934  0.3498
19333TIP3    H279491   4.998   2.774   5.068 -1.3809  0.0479  0.2688
19334TIP3   OH279492   0.656   4.648   2.534  0.4670  0.1859  0.2511
19334TIP3    H179493   0.650   4.611   2.622  1.9306 -0.8736 -0.0667
19334TIP3    H279494   0.593   4.599   2.482 -0.8065  1.1884  0.8003
19335TIP3   OH279495   3.446   3.562   1.279 -0.2015  0.8227 -0.1994
19335TIP3    H179496   3.485   3.479   1.251  1.1825  1.6674 -0.8891
19335TIP3    H279497   3.375   3.577   1.217 -0.0907  0.4405 -0.4216
19336TIP3   OH279498   0.716   1.227   6.129 -0.1354  0.1973 -0.5826
19336TIP3    H179499   0.621   1.223   6.114 -0.0229 -0.2407 -1.1989
19336TIP3    H279500   0.729   1.176   6.209 -0.4598  0.5692 -0.2869
19337TIP3   OH279501   3.307   6.238  13.155  0.3455  0.5477  0.0233
19337TIP3    H179502   3.355   6.159  13.181 -0.9030  0.1186  1.1478
19337TIP3    H279503   3.239   6.206  13.095 -1.6318  0.3271  2.2232
19338TIP3   OH279504   6.531   4.646  13.203  0.3740  0.6415 -0.2164
19338TIP3    H179505   6.585   4.638  13.125 -0.9772 -1.0280 -1.0473
19338TIP3    H279506   6.464   4.577  13.194 -0.1371  0.7161  2.1562
19339TIP3   OH279507   2.145   3.766   4.161  0.0251 -0.3144 -0.1578
19339TIP3    H179508   2.136   3.672   4.176  2.3667 -0.2970  2.0629
19339TIP3    H279509   2.055   3.798   4.151 -1.1750 -2.2434  2.9369
19340TIP3   OH279510   2.452   0.629  13.820 -0.3872 -0.3521 -0.0215
19340TIP3    H179511   2.547   0.635  13.823 -0.4680  1.2931 -0.2196
19340TIP3    H279512   2.433   0.537  13.841  1.2773 -0.9944 -1.1965
19341TIP3   OH279513   0.411   5.543  14.961 -0.0405 -0.1543  0.0689
19341TIP3    H179514   0.396   5.568  14.869  1.1043 -0.1091 -0.1290
19341TIP3    H279515   0.389   5.621  15.011  1.1958  0.4966 -0.3507
19342TIP3   OH279516   6.556   0.789   4.396  0.1060  1.1151 -0.9694
19342TIP3    H179517   6.601   0.766   4.477  0.4111  0.6829 -1.2526
19342TIP3    H279518   6.464   0.800   4.421 -0.1012 -0.6278 -0.8279
19343TIP3   OH279519   6.454   6.282  15.808 -0.0407  0.3059 -0.1519
19343TIP3    H179520   6.414   6.333  15.737  1.0023 -0.3158 -1.2188
19343TIP3    H279521   6.544   6.269  15.780  0.2857 -0.2925  1.1238
19344TIP3   OH279522   1.746   2.777  15.613  0.2279 -0.2088  0.4439
19344TIP3    H179523   1.840   2.777  15.595  0.4941  1.2206  1.7340
19344TIP3    H279524   1.733   2.703  15.673  0.7319  0.3340  1.2289
19345TIP3   OH279525   1.436   2.260  15.596  0.2999 -0.4553 -0.6845
19345TIP3    H179526   1.398   2.347  15.608  2.2176  0.6853 -2.2283
19345TIP3    H279527   1.421   2.239  15.504  0.1346 -1.6434 -0.4101
19346TIP3   OH279528   2.351   5.584   3.421  0.3761  0.1585  0.1600
19346TIP3    H179529   2.380   5.498   3.450 -0.4582  0.3801  1.7824
19346TIP3    H279530   2.299   5.567   3.342  2.5725 -0.4922 -1.2475
19347TIP3   OH279531   5.256   1.108  17.162  0.4906  0.3343 -0.1302
19347TIP3    H179532   5.313   1.031  17.165  0.1639  0.1301  1.1721
19347TIP3    H279533   5.246   1.135  17.253  0.9727  2.2211 -0.6018
19348TIP3   OH279534   2.310   0.917   1.293  0.3031  0.1868  0.3087
19348TIP3    H179535   2.348   0.902   1.380 -0.9114 -1.3856  0.6135
19348TIP3    H279536   2.282   0.831   1.264 -0.7009  0.9201 -1.0059
19349TIP3   OH279537   5.507   4.446  13.161 -0.1001 -0.4101  0.0377
19349TIP3    H179538   5.569   4.449  13.088 -1.5923 -2.2724 -1.4207
19349TIP3    H279539   5.457   4.366  13.146 -2.4777  0.7119  1.4501
19350TIP3   OH279540   6.697   1.257   1.484  0.2618 -0.1986 -0.2395
19350TIP3    H179541   6.762   1.327   1.476 -0.8588  0.8635 -0.5304
19350TIP3    H279542   6.718   1.197   1.413  2.3286 -1.1517  1.0746
19351TIP3   OH279543   5.150   4.395   5.003 -0.4853  0.7014 -0.7556
19351TIP3    H179544   5.236   4.393   5.043 -0.5131  0.3857 -0.7086
19351TIP3    H279545   5.131   4.488   4.991 -0.8739  0.8495  0.8147
19352TIP3   OH279546   4.572   4.248  13.616 -0.3200  0.4776  0.0442
19352TIP3    H179547   4.653   4.248  13.565  0.7125 -0.2765  1.5942
19352TIP3    H279548   4.507   4.285  13.557  1.1532  1.1666 -1.2378
19353TIP3   OH279549   2.610   3.174  13.327 -0.7460 -0.5568 -0.4105
19353TIP3    H179550   2.556   3.111  13.279 -0.2356 -0.2667 -1.4011
19353TIP3    H279551   2.675   3.202  13.263 -0.6330  0.5655  0.1779
19354TIP3   OH279552   6.658   0.274   2.941 -1.0137  0.1138  0.0399
19354TIP3    H179553   6.726   0.327   2.901 -0.2554 -0.3653  0.6752
19354TIP3    H279554   6.627   0.325   3.015 -1.1700  0.2143 -0.0926
19355TIP3   OH279555   3.625   1.671  12.296 -0.2294 -0.1286  0.1166
19355TIP3    H179556   3.704   1.617  12.297 -0.3575 -0.3225 -0.3283
19355TIP3    H279557   3.627   1.717  12.381 -0.6622 -1.6257  0.9735
19356TIP3   OH279558   2.020   1.197  11.209  0.1013  0.1463  0.0539
19356TIP3    H179559   2.035   1.108  11.239 -0.5650  0.2083  0.5975
19356TIP3    H279560   1.961   1.235  11.274 -1.6107  0.2204 -1.4501
19357TIP3   OH279561   0.040   2.974  14.833 -0.0233 -0.3841 -0.4035
19357TIP3    H179562   0.033   2.969  14.928 -3.5505 -2.2363 -0.6125
19357TIP3    H279563  -0.039   3.020  14.805  0.0694 -1.3842 -2.5357
19358TIP3   OH279564   2.064   5.518  16.615  0.4555  0.4538 -0.6091
19358TIP3    H179565   1.994   5.463  16.579  0.4065 -0.3040  0.6033
19358TIP3    H279566   2.078   5.585  16.548 -0.3902 -0.2632 -1.5364
19359TIP3   OH279567   0.158   3.880  13.148  0.3136 -0.2836 -0.3917
19359TIP3    H179568   0.126   3.845  13.231 -0.7125  1.1327 -0.1610
19359TIP3    H279569   0.225   3.817  13.120  0.7263 -0.7474  1.5226
19360TIP3   OH279570   3.568   6.595  11.704  0.3978  0.1779  0.1335
19360TIP3    H179571   3.486   6.640  11.723 -0.5165 -1.8063  1.1753
19360TIP3    H279572   3.542   6.517  11.655  1.8819  0.4184 -1.1514
19361TIP3   OH279573   1.281   6.743   3.269 -0.4362 -0.5740  0.1794
19361TIP3    H179574   1.256   6.835   3.268 -0.3927 -0.5288  1.3625
19361TIP3    H279575   1.364   6.740   3.221 -0.2087  0.0788  0.5212
19362TIP3   OH279576   0.369   1.609  13.572  0.0858 -0.3494  0.1720
19362TIP3    H179577   0.296   1.667  13.591  0.2304 -0.4103  0.9487
19362TIP3    H279578   0.334   1.521  13.587  0.8390 -0.3206  2.5831
19363TIP3   OH279579   3.265   5.257   1.359  0.3415 -0.2963 -0.3114
19363TIP3    H179580   3.204   5.330   1.373  0.0143 -0.7587  0.7216
19363TIP3    H279581   3.212   5.179   1.367  0.8274 -0.6758 -0.7247
19364TIP3   OH279582   2.899   3.146   1.210  0.3135  0.2074 -0.4653
19364TIP3    H179583   2.812   3.161   1.245  0.9978  1.2904  0.8610
19364TIP3    H279584   2.907   3.208   1.137 -0.1043 -0.0987 -0.7811
19365TIP3   OH279585   5.906   4.530  12.361 -0.4517  0.3630  0.2629
19365TIP3    H179586   5.978   4.466  12.362  0.4287  1.1416 -2.9403
19365TIP3    H279587   5.840   4.491  12.304 -1.3386  0.9400  0.8736
19366TIP3   OH279588   2.133   3.236   2.072 -0.0379 -0.4014 -0.3671
19366TIP3    H179589   2.068   3.179   2.030 -1.2025  0.9942 -0.5770
19366TIP3    H279590   2.185   3.269   1.999  0.0708 -0.5309 -0.3473
19367TIP3   OH279591   1.211   3.691   3.135  0.0352 -0.3202 -0.5075
19367TIP3    H179592   1.222   3.785   3.123 -0.4596 -0.4214 -1.8949
19367TIP3    H279593   1.150   3.664   3.067 -2.2473 -1.1674  1.7272
19368TIP3   OH279594   4.646   0.253   3.824  0.0226  0.0556 -0.7209
19368TIP3    H179595   4.725   0.233   3.774  1.6865  1.0430  1.3077
19368TIP3    H279596   4.587   0.180   3.808  1.4968 -0.8857 -2.0396
19369TIP3   OH279597   3.042   0.486  15.340 -0.0662 -0.5084 -0.8840
19369TIP3    H179598   2.983   0.475  15.415  0.5355  0.4446 -0.2432
19369TIP3    H279599   3.105   0.551  15.369  0.6547 -0.7068 -1.9548
19370TIP3   OH279600   2.195   0.754   2.394  0.3615 -0.5445 -0.1647
19370TIP3    H179601   2.276   0.759   2.342  0.0660  0.9609 -0.5490
19370TIP3    H279602   2.127   0.784   2.334  0.0499  1.4889  1.1192
19371TIP3   OH279603   2.963   5.207   3.634  0.3639 -0.3096  0.1683
19371TIP3    H179604   3.031   5.274   3.624  0.7707 -0.4993  1.5397
19371TIP3    H279605   2.925   5.223   3.720 -2.0341  0.3958 -0.9315
19372TIP3   OH279606   4.054   0.338  16.830 -0.0903  0.4696  0.4978
19372TIP3    H179607   4.130   0.318  16.775 -1.8842 -1.6645 -1.4219
19372TIP3    H279608   4.001   0.398  16.777 -1.8930 -1.6985 -0.3222
19373TIP3   OH279609   0.677   0.783  16.236 -0.5766  0.4182 -0.0231
19373TIP3    H179610   0.614   0.835  16.186  0.0113 -0.2347 -1.5286
19373TIP3    H279611   0.753   0.840  16.248 -0.6018  0.4779 -0.1523
19374TIP3   OH279612   0.840   1.914  15.908 -0.2666 -0.1290  0.5902
19374TIP3    H179613   0.801   1.895  15.823 -0.5955 -1.6963  1.0454
19374TIP3    H279614   0.836   2.009  15.916 -1.2143 -0.0357 -0.6850
19375TIP3   OH279615   3.658   0.774  16.001  0.2822 -0.7472  0.5305
19375TIP3    H179616   3.639   0.786  15.908  1.8637 -0.6189  0.2039
19375TIP3    H279617   3.576   0.797  16.045 -0.5577 -1.0198 -0.8282
19376TIP3   OH279618   3.053   1.096  14.841  0.5485  0.8296 -0.2540
19376TIP3    H179619   3.105   1.076  14.919  1.3597  0.1587 -0.9520
19376TIP3    H279620   2.963   1.100  14.873  0.5175 -2.0825  0.3223
19377TIP3   OH279621   1.096   4.038   1.697  0.4081  0.2157  0.4663
19377TIP3    H179622   1.155   3.971   1.730 -1.1704 -1.0871  0.7617
19377TIP3    H279623   1.134   4.065   1.613  1.7673 -0.0601  0.9729
19378TIP3   OH279624   0.035   1.355   5.630 -0.0558 -0.1521 -0.1473
19378TIP3    H179625   0.024   1.450   5.633  2.2008  0.2907 -2.2113
19378TIP3    H279626   0.105   1.338   5.694 -0.8470 -0.5346  0.6320
19379TIP3   OH279627   6.509   1.949   5.374 -0.4339  0.1155 -0.2052
19379TIP3    H179628   6.596   1.950   5.334  0.2017 -1.5271  1.0208
19379TIP3    H279629   6.510   2.023   5.434  0.6151 -0.5917  0.6999
19380TIP3   OH279630   2.317   0.205   0.666  0.8683 -0.2368  0.5739
19380TIP3    H179631   2.260   0.153   0.610 -0.1775 -0.7108  2.0239
19380TIP3    H279632   2.260   0.236   0.736  2.0012  0.8698  1.0501
19381TIP3   OH279633   1.038   1.927   3.373 -0.1225 -0.3668 -0.0327
19381TIP3    H179634   1.108   1.993   3.379  3.3851 -3.6547 -1.0818
19381TIP3    H279635   1.039   1.900   3.281 -0.0889 -3.0594  0.6743
19382TIP3   OH279636   6.285   5.249   4.591 -0.0099 -0.5476  0.2786
19382TIP3    H179637   6.253   5.264   4.680 -0.4785  0.8921 -0.1130
19382TIP3    H279638   6.207   5.257   4.536  0.6248  0.8423 -0.4763
19383TIP3   OH279639   6.630   1.193   5.619 -0.3279  0.9379 -0.1610
19383TIP3    H179640   6.569   1.267   5.618  2.2170  3.3314 -3.7382
19383TIP3    H279641   6.713   1.231   5.648  0.7158 -0.8467 -0.6793
19384TIP3   OH279642   2.832   4.255   3.967  0.2654 -0.1866 -0.3840
19384TIP3    H179643   2.810   4.334   4.017 -0.1055 -0.6604  0.2216
19384TIP3    H279644   2.920   4.271   3.934  0.4296  0.2323  0.2411
19385TIP3   OH279645   4.889   0.688  13.981  0.2680  0.3412 -0.2914
19385TIP3    H179646   4.823   0.666  14.047 -0.2872  1.1657 -0.5553
19385TIP3    H279647   4.933   0.605  13.963 -0.7962 -0.2690 -0.2050
19386TIP3   OH279648   0.776   2.016  16.776 -0.2114  0.4881  0.2696
19386TIP3    H179649   0.735   2.028  16.862 -0.8009  2.0387 -0.1918
19386TIP3    H279650   0.865   2.050  16.787  0.1924 -0.6219  0.6141
19387TIP3   OH279651   5.501   6.089  15.258 -0.2126  0.0506  0.5697
19387TIP3    H179652   5.549   6.018  15.300  0.6229  1.3754  1.9919
19387TIP3    H279653   5.456   6.133  15.330  0.9808  2.1995  0.0766
19388TIP3   OH279654   3.286   2.033   2.903 -0.2339 -0.0107 -0.0728
19388TIP3    H179655   3.278   2.123   2.935 -3.6109 -0.3154  0.3568
19388TIP3    H279656   3.348   1.992   2.963  0.0046  1.5824  0.8359
19389TIP3   OH279657   4.862   1.367  14.565  0.0141 -0.0065  0.9359
19389TIP3    H179658   4.860   1.413  14.649  0.5539  0.6278  0.6097
19389TIP3    H279659   4.955   1.350  14.549 -0.1251 -0.6242  0.7290
19390TIP3   OH279660   1.723   6.813  13.404  0.2269 -0.2673  0.0588
19390TIP3    H179661   1.803   6.761  13.415 -0.2139 -0.8427  0.6434
19390TIP3    H279662   1.746   6.880  13.340  1.0467 -0.7039 -0.1145
19391TIP3   OH279663   0.570   6.776  16.259  0.4104  0.3020  0.5849
19391TIP3    H179664   0.641   6.805  16.317  2.7071  0.4213 -2.0795
19391TIP3    H279665   0.591   6.685  16.238  1.9474  1.2980 -2.9603
19392TIP3   OH279666   1.959   4.982   1.212 -0.2544 -0.0860  0.0222
19392TIP3    H179667   1.992   4.996   1.301 -2.0813  2.1384  0.4597
19392TIP3    H279668   2.028   5.014   1.155  1.4378 -2.6043  0.4946
19393TIP3   OH279669   1.717   1.246  11.949 -0.2587 -0.1717 -0.7573
19393TIP3    H179670   1.638   1.244  11.896  0.2076  1.3635 -1.5778
19393TIP3    H279671   1.687   1.235  12.039 -1.2373 -1.0939 -1.1821
19394TIP3   OH279672   3.829   3.451   4.468  0.5889  0.2778  0.1959
19394TIP3    H179673   3.766   3.457   4.397 -0.3363  0.5374  1.0228
19394TIP3    H279674   3.910   3.486   4.431 -0.0562  1.0432 -0.5309
19395TIP3   OH279675   5.769   4.588  12.071 -0.4087 -0.0802 -0.5358
19395TIP3    H179676   5.861   4.601  12.047  0.4391 -2.5112  0.9588
19395TIP3    H279677   5.747   4.666  12.123  0.4100  1.0823 -1.8635
19396TIP3   OH279678   0.164   1.085   5.256 -0.6708 -0.1379  0.6376
19396TIP3    H179679   0.182   1.172   5.220  1.8617 -0.9840 -0.3554
19396TIP3    H279680   0.178   1.095   5.350  1.2198  0.2297  0.3602
19397TIP3   OH279681   5.421   0.281  15.294 -0.0464 -0.5025 -0.2307
19397TIP3    H179682   5.456   0.259  15.380  2.2556 -1.3509 -1.2794
19397TIP3    H279683   5.396   0.373  15.300  0.2844 -0.4935  1.2793
19398TIP3   OH279684   3.818   4.461   5.124  0.1229 -0.0129  0.4150
19398TIP3    H179685   3.870   4.386   5.150  0.8744 -0.1785 -1.4360
19398TIP3    H279686   3.860   4.536   5.167 -0.2296 -0.5358  1.7166
19399TIP3   OH279687   0.569   5.123  11.998  0.3212  0.1973  0.2815
19399TIP3    H179688   0.664   5.122  11.999  0.3691  1.7672  1.0905
19399TIP3    H279689   0.543   5.051  12.056  0.9670 -0.9407 -0.8106
19400TIP3   OH279690   1.914   0.654  11.517  0.4770  0.3376 -0.1083
19400TIP3    H179691   1.894   0.588  11.583 -0.4558 -0.7483 -1.4079
19400TIP3    H279692   1.854   0.635  11.445  0.0256  2.7582 -0.4634
19401TIP3   OH279693   0.942   1.781   3.692 -0.1691  0.0393 -0.0942
19401TIP3    H179694   0.903   1.868   3.685  0.4070  0.2822 -0.3450
19401TIP3    H279695   1.034   1.794   3.670  0.5663 -0.1585  2.5289
19402TIP3   OH279696   6.672   5.724  14.774 -0.5680 -0.3534 -0.4862
19402TIP3    H179697   6.590   5.752  14.734 -1.3917 -0.9164  0.7591
19402TIP3    H279698   6.694   5.642  14.729 -0.7539 -0.2668 -0.7351
19403TIP3   OH279699   1.922   1.802   2.617  0.8728 -0.1937 -0.6398
19403TIP3    H179700   1.849   1.848   2.658  1.4945  0.0376  0.2482
19403TIP3    H279701   1.900   1.709   2.625  1.3301 -0.2028  0.9846
19404TIP3   OH279702   2.214   3.373   3.976  0.1797  0.3862 -0.1644
19404TIP3    H179703   2.280   3.322   3.930 -0.7758  1.3159 -2.7620
19404TIP3    H279704   2.151   3.308   4.008  0.5576 -0.2571 -0.7042
19405TIP3   OH279705   6.326   6.605   2.327  0.0179 -0.0160 -0.2639
19405TIP3    H179706   6.335   6.545   2.402  0.3921  0.3790  0.0116
19405TIP3    H279707   6.372   6.684   2.354  0.7646 -0.1160 -1.1991
19406TIP3   OH279708   1.519   3.781  11.580 -0.5191  0.3914  0.3257
19406TIP3    H179709   1.533   3.693  11.613 -0.5531 -1.0747 -3.1427
19406TIP3    H279710   1.588   3.833  11.620  1.3761 -1.8847  0.1977
19407TIP3   OH279711   2.586   0.721  16.324 -0.0014 -0.7514  0.4553
19407TIP3    H179712   2.527   0.763  16.386  1.0502  1.9687 -0.2685
19407TIP3    H279713   2.669   0.767  16.334 -0.3024  1.3672 -4.3282
19408TIP3   OH279714   3.573   5.513   0.511  0.6367 -0.1115 -0.5142
19408TIP3    H179715   3.527   5.444   0.559 -0.3328  2.4517  2.6323
19408TIP3    H279716   3.531   5.515   0.425 -1.2165 -1.5838  0.2825
19409TIP3   OH279717   0.886   1.364   0.842  0.1113  0.7471 -0.1193
19409TIP3    H179718   0.822   1.300   0.875  1.1392 -0.0954  0.3199
19409TIP3    H279719   0.881   1.355   0.747  0.4368 -0.2251 -0.0651
19410TIP3   OH279720   1.457   5.399  14.290 -0.4561  0.1271 -0.2980
19410TIP3    H179721   1.449   5.315  14.244 -1.7995  1.3493 -2.4758
19410TIP3    H279722   1.411   5.461  14.234 -1.1472  1.9986  2.1612
19411TIP3   OH279723   0.990   6.811   3.580  0.0556  0.3420 -0.3442
19411TIP3    H179724   0.926   6.761   3.529 -1.7204  1.8846  0.2616
19411TIP3    H279725   1.074   6.772   3.556 -0.9780 -1.0755 -1.9923
19412TIP3   OH279726   4.677   4.159   1.296 -0.0172  0.1438  0.3408
19412TIP3    H179727   4.762   4.187   1.264  0.0987 -0.7040 -0.1217
19412TIP3    H279728   4.680   4.174   1.391  0.1159  1.4500  0.1398
19413TIP3   OH279729   5.825   5.973  14.256 -0.2907 -0.1283 -0.0260
19413TIP3    H179730   5.765   5.991  14.329 -1.3696 -0.3871 -0.8254
19413TIP3    H279731   5.904   6.023  14.277 -1.5861  2.0106 -0.0215
19414TIP3   OH279732   2.994   2.512  12.242 -0.7758 -0.2139 -0.0573
19414TIP3    H179733   3.068   2.473  12.288 -0.3003  1.3374  0.5474
19414TIP3    H279734   3.024   2.599  12.218 -2.0988  0.1084 -0.6403
19415TIP3   OH279735   2.827   1.442  12.674 -0.0930  0.3999  0.1723
19415TIP3    H179736   2.900   1.493  12.638 -1.1253  2.2087  0.5341
19415TIP3    H279737   2.860   1.409  12.757  0.7572  0.0444 -0.2925
19416TIP3   OH279738   1.729   1.745  13.583  0.0679 -0.6443 -0.8986
19416TIP3    H179739   1.757   1.781  13.666 -1.8949 -0.9678 -0.0320
19416TIP3    H279740   1.714   1.821  13.527  0.1819 -0.3561 -0.5359
19417TIP3   OH279741   3.774   6.345   3.139  0.4948  0.0731 -0.1398
19417TIP3    H179742   3.791   6.436   3.166 -1.0771  0.4450 -0.2995
19417TIP3    H279743   3.702   6.352   3.075  2.0320 -1.0593 -2.1240
19418TIP3   OH279744   4.993   1.568   4.845  0.0060  0.4214  0.1092
19418TIP3    H179745   4.978   1.588   4.753 -0.0500  2.3268  0.4838
19418TIP3    H279746   4.963   1.647   4.891 -1.2174 -1.0076  1.8547
19419TIP3   OH279747   2.132   3.903   4.515  0.1485 -0.0678  0.6296
19419TIP3    H179748   2.107   3.975   4.573  0.3100  0.1131  0.4789
19419TIP3    H279749   2.120   3.937   4.427 -2.1273 -1.0442  0.5063
19420TIP3   OH279750   5.162   6.365  16.881 -0.5009 -0.0752  0.3244
19420TIP3    H179751   5.106   6.423  16.932  2.3449  1.0540  2.4255
19420TIP3    H279752   5.147   6.278  16.919 -0.2391  0.3529  1.4488
19421TIP3   OH279753   5.800   5.187  13.937 -0.4450  0.6301 -0.2461
19421TIP3    H179754   5.770   5.268  13.978 -1.0857  0.0854  0.3861
19421TIP3    H279755   5.788   5.120  14.005  1.2105  0.2072 -0.3414
19422TIP3   OH279756   3.023   0.613   3.253  0.3888 -0.2970  0.3553
19422TIP3    H179757   2.970   0.687   3.283  0.4199 -0.6576  1.3475
19422TIP3    H279758   2.965   0.564   3.194  0.6602  0.9712 -1.0297
19423TIP3   OH279759   1.351   4.474   6.435 -0.4640  0.7751 -0.2392
19423TIP3    H179760   1.288   4.468   6.364  0.7588 -0.0547 -1.3083
19423TIP3    H279761   1.436   4.459   6.393  0.5225  2.4333  1.0366
19424TIP3   OH279762   6.304   6.710  14.377 -0.9990 -0.4680 -0.0535
19424TIP3    H179763   6.381   6.739  14.426 -0.3191 -0.3415 -1.1571
19424TIP3    H279764   6.340   6.677  14.295 -1.8604 -3.0478  0.5031
19425TIP3   OH279765   6.776   5.683  13.737  0.5966  0.1133 -0.4159
19425TIP3    H179766   6.729   5.625  13.798  0.8358 -0.4391 -0.7498
19425TIP3    H279767   6.810   5.624  13.669  1.1801  0.5985 -0.5532
19426TIP3   OH279768   2.223   6.282   2.266  0.2620  0.5134 -0.0314
19426TIP3    H179769   2.304   6.308   2.311 -0.3280 -1.9661  2.7006
19426TIP3    H279770   2.169   6.361   2.268  1.3335  1.2726  1.1339
19427TIP3   OH279771   2.460   3.702  15.242 -0.1868  0.1057 -0.0262
19427TIP3    H179772   2.545   3.661  15.256 -0.6626 -0.5178  1.1427
19427TIP3    H279773   2.404   3.632  15.209 -0.9373 -0.1790  1.7434
19428TIP3   OH279774   1.834   2.254  12.294 -0.2787  0.6287  0.0719
19428TIP3    H179775   1.790   2.224  12.374 -1.1534  0.4681 -0.4631
19428TIP3    H279776   1.926   2.231  12.308 -0.6846 -0.9859  0.3015
19429TIP3   OH279777   5.917   6.518  14.986  0.5930 -0.4635 -0.1961
19429TIP3    H179778   5.899   6.428  14.961  0.4438 -0.4377 -0.1805
19429TIP3    H279779   5.932   6.515  15.080 -0.9504 -0.2407  0.0797
19430TIP3   OH279780   2.660   3.977  16.007 -0.0426  0.2080  0.0187
19430TIP3    H179781   2.668   3.982  15.912 -0.7892 -0.3259 -0.0809
19430TIP3    H279782   2.567   3.966  16.023  0.0522  0.5100  0.8282
19431TIP3   OH279783   5.902   5.214   5.772  0.1981 -0.2996  0.5046
19431TIP3    H179784   5.824   5.243   5.725 -0.1815 -1.3534  0.4583
19431TIP3    H279785   5.905   5.119   5.758  0.3260 -0.5818  2.2218
19432TIP3   OH279786   3.530   4.724   4.371  0.0699  0.3418 -0.0578
19432TIP3    H179787   3.613   4.676   4.372  0.3316  0.5400 -3.0514
19432TIP3    H279788   3.480   4.683   4.301 -0.7520  2.7095 -0.9626
19433TIP3   OH279789   1.442   4.700  16.156  0.1063  0.5340 -0.0758
19433TIP3    H179790   1.449   4.761  16.082 -0.9520  1.2354  0.3680
19433TIP3    H279791   1.348   4.688  16.167  0.2953 -0.8529  0.1322
19434TIP3   OH279792   6.732   4.207   3.682  0.1085  0.2497  0.0389
19434TIP3    H179793   6.752   4.147   3.753  2.9838  0.5577 -0.4049
19434TIP3    H279794   6.645   4.241   3.703 -0.2902 -1.7415  1.8876
19435TIP3   OH279795   5.387   6.746   4.051  0.0229  0.0810  0.3672
19435TIP3    H179796   5.426   6.703   3.975  0.8014  0.6319  0.4468
19435TIP3    H279797   5.461   6.783   4.098 -0.2084 -1.9243  2.4741
19436TIP3   OH279798   0.357   1.276  15.106  0.0335  0.2523 -0.1497
19436TIP3    H179799   0.438   1.326  15.097 -0.4337  1.3881  1.4839
19436TIP3    H279800   0.290   1.330  15.064 -0.1078 -0.0769 -0.3541
19437TIP3   OH279801   4.343   5.055  13.932  0.1497  0.5162  0.3823
19437TIP3    H179802   4.266   5.004  13.906  0.1717 -0.4497  2.0791
19437TIP3    H279803   4.308   5.135  13.971  0.0318  0.3831  0.5461
19438TIP3   OH279804   5.720   5.723   3.693  0.4125 -0.3625 -0.3953
19438TIP3    H179805   5.719   5.808   3.649  0.5801  0.8142  1.7025
19438TIP3    H279806   5.772   5.667   3.636 -2.2900 -0.0540 -3.4344
19439TIP3   OH279807   4.023   1.198   0.117 -0.4254  0.0742  0.5558
19439TIP3    H179808   4.104   1.243   0.143 -0.2923 -0.3911  0.9509
19439TIP3    H279809   4.004   1.232   0.030  1.0235 -0.8955 -0.1756
19440TIP3   OH279810   2.895   4.547  10.652  0.2859  0.0033  1.0717
19440TIP3    H179811   2.907   4.637  10.683  2.1357  0.3076 -0.2995
19440TIP3    H279812   2.964   4.535  10.586 -1.3247 -1.6822 -0.4361
19441TIP3   OH279813   3.513   0.410   3.323  0.1600  0.5852  0.2361
19441TIP3    H179814   3.420   0.414   3.345  0.0589 -0.5241  0.0948
19441TIP3    H279815   3.557   0.451   3.397 -0.3801  0.0020  0.9005
19442TIP3   OH279816   0.746   2.195  15.968 -0.1291 -0.0418 -0.6053
19442TIP3    H179817   0.761   2.254  15.895  0.2981  0.2977 -0.2514
19442TIP3    H279818   0.766   2.248  16.046  1.0216 -0.8695 -0.3069
19443TIP3   OH279819   6.681   2.220  13.162  0.3617 -0.4887 -0.2064
19443TIP3    H179820   6.696   2.313  13.140 -0.9864 -0.2946 -0.3970
19443TIP3    H279821   6.734   2.205  13.240 -0.9407  1.0288  1.0517
19444TIP3   OH279822   2.586   3.802   2.335  0.0968 -0.3459 -0.7406
19444TIP3    H179823   2.566   3.866   2.266 -0.0531 -0.6145 -0.9510
19444TIP3    H279824   2.631   3.852   2.402 -0.8605  0.1755 -0.4730
19445TIP3   OH279825   6.374   6.188   0.801 -0.4084 -0.4743  0.5768
19445TIP3    H179826   6.317   6.217   0.872  0.6056 -0.1061  1.2596
19445TIP3    H279827   6.437   6.259   0.790  0.5689 -1.3277  0.5667
19446TIP3   OH279828   5.287   4.917   0.341  0.1423  0.0205  0.3367
19446TIP3    H179829   5.377   4.940   0.365  1.0746 -1.9152 -1.0697
19446TIP3    H279830   5.261   4.853   0.407  0.9978 -1.7758 -0.9927
19447TIP3   OH279831   2.367   3.877   4.285 -0.3597  0.5852 -0.0927
19447TIP3    H179832   2.283   3.865   4.241 -0.3528  0.7375 -0.1471
19447TIP3    H279833   2.395   3.965   4.260 -0.6430  0.9073  0.6845
19448TIP3   OH279834   0.177   6.080   2.309  0.1584  0.5281 -0.4196
19448TIP3    H179835   0.201   6.018   2.378 -2.6571  0.4264  0.5931
19448TIP3    H279836   0.242   6.066   2.240  1.8202 -0.8610  1.3121
19449TIP3   OH279837   4.355   1.573  13.090  0.4486  0.7315  0.0664
19449TIP3    H179838   4.363   1.663  13.059  0.6556  0.1030 -1.8856
19449TIP3    H279839   4.442   1.534  13.075  0.5343  0.3387  1.4266
19450TIP3   OH279840   1.615   1.869  14.188 -0.2258 -0.0699 -0.2859
19450TIP3    H179841   1.691   1.927  14.188 -0.2357 -0.0404 -1.0734
19450TIP3    H279842   1.639   1.799  14.127 -0.6103 -0.3532 -0.1130
19451TIP3   OH279843   4.195   1.617   2.911  0.0146  0.0333 -0.2970
19451TIP3    H179844   4.274   1.650   2.869  0.0714 -0.1507 -0.3372
19451TIP3    H279845   4.157   1.557   2.847  1.0005 -1.5676  0.5402
19452TIP3   OH279846   3.983   5.854  14.136  0.2018 -0.1824 -0.1532
19452TIP3    H179847   4.057   5.797  14.114  0.7676  1.0060 -1.4669
19452TIP3    H279848   3.915   5.794  14.167  1.0782 -1.4744 -0.6464
19453TIP3   OH279849   4.145   4.895   6.483 -0.1537  0.1246  0.8539
19453TIP3    H179850   4.222   4.842   6.466 -0.3181 -0.0479  0.6316
19453TIP3    H279851   4.079   4.862   6.422  0.3633  1.9873 -0.7900
19454TIP3   OH279852   1.408   0.595  16.280  0.0631 -0.0630  0.1996
19454TIP3    H179853   1.430   0.672  16.333 -0.5613 -0.0493  0.4411
19454TIP3    H279854   1.489   0.545  16.277  0.4160  0.4924  0.2237
19455TIP3   OH279855   3.788   5.939  11.811  0.1598 -0.4330 -0.2804
19455TIP3    H179856   3.782   6.021  11.860  0.1974  1.2211 -2.8747
19455TIP3    H279857   3.882   5.926  11.796  0.1967 -1.2819  0.5599
19456TIP3   OH279858   2.606   4.526  12.465  0.4370  0.2013 -0.2175
19456TIP3    H179859   2.613   4.590  12.536  0.3300  1.4166 -1.2559
19456TIP3    H279860   2.512   4.522  12.446  0.6550  1.9647 -2.0423
19457TIP3   OH279861   5.022   6.743   5.318 -0.1434  0.3254  0.1839
19457TIP3    H179862   4.973   6.732   5.236 -1.4352  0.9152  0.8507
19457TIP3    H279863   5.092   6.804   5.295 -0.1364  0.0439 -0.6070
19458TIP3   OH279864   3.330   5.557   1.596  0.4548 -0.5509  0.4666
19458TIP3    H179865   3.274   5.535   1.521  1.2256  0.8068 -0.5643
19458TIP3    H279866   3.295   5.641   1.627 -0.4010 -1.5153  2.2201
19459TIP3   OH279867   0.442   3.173   3.482  0.4554  0.9523 -0.5065
19459TIP3    H179868   0.489   3.098   3.518  0.7247  1.8151  0.9868
19459TIP3    H279869   0.350   3.145   3.480  0.4272  0.9025  0.9262
19460TIP3   OH279870   4.725   6.242  11.389  0.5161  0.3764 -0.1292
19460TIP3    H179871   4.744   6.150  11.373  1.3535  0.4923  0.1393
19460TIP3    H279872   4.797   6.272  11.446  0.2929  1.2070 -0.2666
19461TIP3   OH279873   5.175   3.107  13.133  0.1856 -1.1527 -0.4229
19461TIP3    H179874   5.193   3.064  13.049  0.2998 -1.5773 -0.1824
19461TIP3    H279875   5.216   3.193  13.124  0.5309 -1.3368 -0.6601
19462TIP3   OH279876   4.177   6.396  15.083 -0.7888  0.3796  0.0681
19462TIP3    H179877   4.200   6.425  15.172  1.5440 -0.4157 -0.2111
19462TIP3    H279878   4.221   6.458  15.025 -0.4271 -0.4187 -0.5252
19463TIP3   OH279879   3.061   4.961   5.611 -0.4967  0.0767  0.2170
19463TIP3    H179880   3.034   4.927   5.697 -0.4251 -2.0164 -0.5247
19463TIP3    H279881   3.155   4.973   5.619 -0.6114  0.7260  0.6839
19464TIP3   OH279882   3.477   5.352   5.022  0.0183  0.2004  0.0487
19464TIP3    H179883   3.538   5.360   5.096 -0.3515  0.7002  0.3023
19464TIP3    H279884   3.411   5.419   5.038 -0.6014 -0.3357 -0.2292
19465TIP3   OH279885   2.367   5.856  11.175 -0.6877  0.2800 -0.1413
19465TIP3    H179886   2.309   5.927  11.203 -0.3074  0.9528 -1.0029
19465TIP3    H279887   2.421   5.836  11.251  0.1528  1.8911 -0.2713
19466TIP3   OH279888   2.073   6.077  17.047 -0.3968  0.3209  0.2423
19466TIP3    H179889   1.996   6.035  17.084 -1.4413  1.1932 -0.8669
19466TIP3    H279890   2.139   6.008  17.044 -1.8951 -1.1116 -1.0603
19467TIP3   OH279891   1.449   4.167  16.309 -0.1410 -0.2084  0.0187
19467TIP3    H179892   1.426   4.083  16.349 -2.1592  0.6938  0.8765
19467TIP3    H279893   1.371   4.221  16.320 -0.1498  0.7504 -3.4498
19468TIP3   OH279894   2.533   1.365  14.990  0.0429 -0.0907 -0.6973
19468TIP3    H179895   2.550   1.298  15.056 -0.2556 -1.9491 -2.4077
19468TIP3    H279896   2.471   1.324  14.930 -1.2000  2.2305 -1.1093
19469TIP3   OH279897   0.390   3.984  16.738  0.3667 -0.3834  0.0195
19469TIP3    H179898   0.461   3.993  16.675  0.3679 -0.2831  0.0340
19469TIP3    H279899   0.387   4.068  16.783 -1.0999  0.4037 -1.4075
19470TIP3   OH279900   1.879   2.430  12.106 -0.4344 -0.1760 -0.1012
19470TIP3    H179901   1.835   2.364  12.053 -0.3136  0.9654 -1.6976
19470TIP3    H279902   1.891   2.389  12.192 -0.1553 -2.2784 -1.1003
19471TIP3   OH279903   6.799   2.085  15.167  0.0793 -0.8743  0.3564
19471TIP3    H179904   6.846   2.057  15.246 -0.7666 -1.5755  0.6217
19471TIP3    H279905   6.868   2.121  15.110  0.8039 -1.0394  1.1068
19472TIP3   OH279906   0.425   6.663  17.105  0.5671  0.0171 -0.1093
19472TIP3    H179907   0.397   6.743  17.061 -0.5974 -0.6288 -0.5796
19472TIP3    H279908   0.402   6.677  17.197 -1.5312 -0.5548 -0.5040
19473TIP3   OH279909   1.822   5.478  13.707 -0.1224  0.8146 -0.3630
19473TIP3    H179910   1.753   5.526  13.754 -0.0393  1.1669 -0.6019
19473TIP3    H279911   1.867   5.545  13.656 -0.2479  0.4218 -0.9995
19474TIP3   OH279912   6.502   5.352   6.370 -0.3085 -0.0968 -0.1171
19474TIP3    H179913   6.597   5.342   6.381 -0.1613  0.2960 -0.9429
19474TIP3    H279914   6.489   5.447   6.362 -0.6007 -0.2229 -1.3586
19475TIP3   OH279915   1.650   0.190   0.191 -0.1466 -0.5260  0.0546
19475TIP3    H179916   1.627   0.106   0.231 -1.4663 -0.3626 -0.3219
19475TIP3    H279917   1.602   0.191   0.108 -0.4788  0.7852  0.2512
19476TIP3   OH279918   6.554   2.645   2.809 -0.0773  0.4109 -0.0084
19476TIP3    H179919   6.487   2.692   2.858  1.4026  1.0688  1.4807
19476TIP3    H279920   6.636   2.668   2.852  0.9762 -1.5183 -0.8368
19477TIP3   OH279921   6.537   1.075  11.794 -0.1088  0.9186  0.1075
19477TIP3    H179922   6.598   1.070  11.721  0.3616 -0.6548  0.5611
19477TIP3    H279923   6.578   1.135  11.856 -0.7612  2.6906 -1.0963
19478TIP3   OH279924   1.568   3.612  17.016  0.1265 -0.1218 -0.0436
19478TIP3    H179925   1.579   3.625  17.110  0.1200 -0.4103 -0.0001
19478TIP3    H279926   1.651   3.575  16.987  0.6632  1.3088 -0.4154
19479TIP3   OH279927   3.899   3.001   6.387  0.1198  0.0200 -0.1895
19479TIP3    H179928   3.888   2.945   6.311  0.4629 -0.0965 -0.1533
19479TIP3    H279929   3.978   3.051   6.370  0.7742 -0.7354  0.5343
19480TIP3   OH279930   0.946   6.636  11.859 -0.0036  0.1551 -0.6089
19480TIP3    H179931   0.861   6.667  11.890 -0.4062 -0.5473 -0.9850
19480TIP3    H279932   0.960   6.554  11.905 -0.3211 -0.5883 -1.7747
19481TIP3   OH279933   2.078   1.594  15.667 -0.2887  0.0958 -0.2915
19481TIP3    H179934   2.161   1.633  15.640 -0.2392  1.2218  1.3466
19481TIP3    H279935   2.086   1.584  15.761 -1.6070 -0.8055 -0.2517
19482TIP3   OH279936   5.941   2.774   3.866 -0.4437 -0.1028 -0.2452
19482TIP3    H179937   6.024   2.753   3.909 -0.8594  0.7312  1.0597
19482TIP3    H279938   5.877   2.717   3.908 -0.7367  0.2190 -0.2439
19483TIP3   OH279939   3.487   0.157   3.630 -0.4328  0.0469 -0.4312
19483TIP3    H179940   3.437   0.194   3.703 -2.7709 -0.2271 -1.7801
19483TIP3    H279941   3.430   0.170   3.554  2.3970  1.3848 -2.4680
19484TIP3   OH279942   2.261   6.506   0.487 -0.3560  0.6473 -0.4123
19484TIP3    H179943   2.245   6.439   0.554  0.4623 -0.3769 -1.2083
19484TIP3    H279944   2.339   6.553   0.518 -0.1568  0.3714 -0.4898
19485TIP3   OH279945   6.014   4.109   1.660  0.2143  0.3831  0.8364
19485TIP3    H179946   5.981   4.071   1.579 -2.1471  1.1547  1.3552
19485TIP3    H279947   6.074   4.043   1.694 -0.1080 -0.7399 -0.6406
19486TIP3   OH279948   3.446   6.366   5.033  0.0163 -0.4609 -0.7978
19486TIP3    H179949   3.505   6.294   5.051 -0.0630 -0.5679 -0.9722
19486TIP3    H279950   3.359   6.331   5.053 -0.0009 -0.3460 -0.6706
19487TIP3   OH279951   1.578   1.997  15.314  0.6158 -0.0004  0.5236
19487TIP3    H179952   1.497   1.982  15.362 -0.2920 -1.7793 -1.3946
19487TIP3    H279953   1.556   1.977  15.223  2.8578  0.8706 -0.2887
19488TIP3   OH279954   2.390   0.912   0.324 -0.2828 -0.7651 -0.0970
19488TIP3    H179955   2.391   0.937   0.416  1.9364 -1.6806  0.2014
19488TIP3    H279956   2.325   0.843   0.318 -1.8149  0.5749  0.3520
19489TIP3   OH279957   1.901   2.768  12.732  0.0496 -0.1790  0.1945
19489TIP3    H179958   1.829   2.807  12.683 -1.1531  0.2137  2.1975
19489TIP3    H279959   1.979   2.793  12.682 -0.9014  2.3234 -0.2142
19490TIP3   OH279960   0.943   1.385  15.141  0.3853  0.1770 -0.5392
19490TIP3    H179961   1.015   1.435  15.103 -0.2410  1.1481 -0.4646
19490TIP3    H279962   0.867   1.407  15.087  0.3055 -1.6039 -1.2517
19491TIP3   OH279963   5.005   0.410   1.264 -0.0867 -1.0283  0.0627
19491TIP3    H179964   5.027   0.395   1.356 -1.3586 -2.7519  0.1347
19491TIP3    H279965   4.909   0.418   1.263  0.0034  0.1711 -0.9756
19492TIP3   OH279966   6.710   4.619  12.927 -0.3718 -0.4711 -0.2013
19492TIP3    H179967   6.752   4.576  13.001 -1.5563 -1.3755 -0.0379
19492TIP3    H279968   6.760   4.589  12.851  1.3200  1.0404  0.2463
19493TIP3   OH279969   5.533   1.024  16.710  0.4557  0.7211  0.2115
19493TIP3    H179970   5.562   1.037  16.801  1.4370  2.8343 -0.3477
19493TIP3    H279971   5.439   1.012  16.717  0.3655  1.8938  1.4600
19494TIP3   OH279972   3.543   1.547   1.502  0.4773 -0.0267 -0.0230
19494TIP3    H179973   3.546   1.621   1.440 -0.6457  0.9363  1.0106
19494TIP3    H279974   3.487   1.578   1.573 -0.6271 -2.1506  0.1180
19495TIP3   OH279975   2.911   3.813  12.745 -0.3819  0.5568  1.0358
19495TIP3    H179976   2.996   3.840  12.710  1.4120 -3.3313  1.8976
19495TIP3    H279977   2.928   3.792  12.837 -1.2853 -3.3892  0.4988
19496TIP3   OH279978   2.298   4.436   5.946  0.1550 -0.4816  0.1044
19496TIP3    H179979   2.280   4.343   5.929  2.4432 -0.4749 -3.5010
19496TIP3    H279980   2.370   4.435   6.009  0.1519 -1.1457  0.1112
19497TIP3   OH279981   0.613   4.452  14.622  0.2790 -0.1771  0.5136
19497TIP3    H179982   0.660   4.464  14.705  0.7594 -0.3619  0.2725
19497TIP3    H279983   0.675   4.405  14.566 -0.7122 -1.6688  0.6419
19498TIP3   OH279984   1.810   0.938  12.783 -0.4962  0.2772  0.0787
19498TIP3    H179985   1.894   0.973  12.753 -0.5163  0.7476  0.5421
19498TIP3    H279986   1.788   0.870  12.720  0.9920 -0.9434  0.8202
19499TIP3   OH279987   3.965   4.738  15.806  0.0234  0.2296 -0.0288
19499TIP3    H179988   4.029   4.807  15.824 -1.2289  1.6391 -0.8033
19499TIP3    H279989   3.956   4.738  15.710 -0.1491 -0.8861 -0.0296
19500TIP3   OH279990   1.876   4.851   4.026 -0.4243  0.4956 -0.5559
19500TIP3    H179991   1.935   4.779   4.049 -0.2252  0.6150 -0.6909
19500TIP3    H279992   1.848   4.831   3.937  1.7028  1.9235 -1.6588
19501TIP3   OH279993   0.193   3.984   0.412  0.0907 -0.5393  0.1636
19501TIP3    H179994   0.280   3.997   0.448 -0.9998  1.7542  2.2594
19501TIP3    H279995   0.177   3.890   0.421  2.4573 -1.0790 -0.6951
19502TIP3   OH279996   5.785   6.057  14.004 -0.2638  0.2154 -0.3355
19502TIP3    H179997   5.819   6.011  14.080  0.5949 -0.7241 -1.2582
19502TIP3    H279998   5.799   6.150  14.024 -1.8386  0.1250  1.4691
19503TIP3   OH279999   4.880   4.814  17.091  0.2987  0.4018  0.2861
19503TIP3    H180000   4.970   4.800  17.120 -0.2023 -2.4020  0.7357
19503TIP3    H280001   4.873   4.764  17.009 -1.0412 -0.0106  0.6371
19504TIP3   OH280002   1.617   3.159  16.724  0.6735  0.1923  0.1980
19504TIP3    H180003   1.604   3.101  16.649 -0.3733 -0.1913  0.6592
19504TIP3    H280004   1.701   3.201  16.708  0.8197 -0.4649 -0.8043
19505TIP3   OH280005   5.078   3.324   1.987  0.2764  0.4429  0.0326
19505TIP3    H180006   5.024   3.284   1.919  1.4025 -0.9512 -0.0976
19505TIP3    H280007   5.131   3.251   2.021  0.0668  1.1947  2.0947
19506TIP3   OH280008   0.291   5.987   1.829  0.4221  0.2317 -0.2463
19506TIP3    H180009   0.365   5.973   1.888  1.1284  0.4168 -1.0563
19506TIP3    H280010   0.310   6.070   1.787 -0.4399  0.4538 -0.2053
19507TIP3   OH280011   3.878   1.122  14.357 -0.2749 -0.1945 -1.2958
19507TIP3    H180012   3.946   1.185  14.383 -0.7536  0.1611 -0.8990
19507TIP3    H280013   3.924   1.060  14.301  0.3642  0.0931 -1.1012
19508TIP3   OH280014   3.152   1.916  16.023 -0.2317 -0.3021  0.4785
19508TIP3    H180015   3.131   1.874  16.106 -0.5309 -1.0403  0.0360
19508TIP3    H280016   3.117   2.005  16.032 -2.7374 -1.1847  0.1223
19509TIP3   OH280017   6.264   0.461   1.073  0.1151 -0.4785 -0.2315
19509TIP3    H180018   6.214   0.498   1.145 -1.2623  0.3191 -1.5386
19509TIP3    H280019   6.354   0.487   1.089  0.0845 -1.5218  1.9169
19510TIP3   OH280020   0.770   1.873   0.180 -0.8827  0.2166 -0.3540
19510TIP3    H180021   0.737   1.919   0.258 -1.0220 -0.2023 -0.1626
19510TIP3    H280022   0.864   1.866   0.195 -1.0450 -0.7823  0.2740
19511TIP3   OH280023   6.054   2.402  14.508 -0.5415  0.1237  0.4171
19511TIP3    H180024   6.139   2.445  14.504  0.5181 -1.8131  0.9848
19511TIP3    H280025   6.011   2.440  14.585  0.2676  0.3371  0.7641
19512TIP3   OH280026   0.972   0.445   5.378  0.8597  0.0775 -0.5891
19512TIP3    H180027   0.923   0.516   5.337  1.0418 -0.9603 -2.7275
19512TIP3    H280028   1.060   0.480   5.388  0.9909  0.1332 -1.7847
19513TIP3   OH280029   1.230   0.578   0.560  0.1374 -0.1826 -0.2734
19513TIP3    H180030   1.279   0.656   0.535  1.1344 -0.6532  0.1623
19513TIP3    H280031   1.297   0.512   0.578 -0.6491 -0.7666  0.5941
19514TIP3   OH280032   0.495   6.259  14.928  0.0160 -0.0831 -0.7079
19514TIP3    H180033   0.454   6.181  14.891 -0.2209 -0.0735 -0.4657
19514TIP3    H280034   0.425   6.324  14.933  0.4329  0.4725 -1.8203
19515TIP3   OH280035   5.322   3.333  15.350 -0.3501 -0.6001  0.1447
19515TIP3    H180036   5.354   3.364  15.435 -0.2783 -1.9825  0.6452
19515TIP3    H280037   5.238   3.291  15.369 -0.8441  0.0053 -0.6432
19516TIP3   OH280038   5.018   2.447   1.261  0.4119  0.3608 -0.2851
19516TIP3    H180039   5.010   2.356   1.234  0.7237  0.9206 -2.4620
19516TIP3    H280040   5.112   2.460   1.275  0.3972  0.4380 -0.2555
19517TIP3   OH280041   1.518   6.151   4.633  0.0298 -0.4462  0.0488
19517TIP3    H180042   1.495   6.240   4.658 -1.4199 -0.3620 -1.4117
19517TIP3    H280043   1.480   6.096   4.702 -0.9694 -0.0468 -0.1674
19518TIP3   OH280044   0.154   0.263   2.920  0.4589  0.3371  0.1960
19518TIP3    H180045   0.191   0.177   2.938  0.5418  0.0125 -1.4293
19518TIP3    H280046   0.229   0.323   2.924  0.7085  0.0703 -0.4326
19519TIP3   OH280047   1.869   6.069   2.418  0.2405 -0.0355  0.4584
19519TIP3    H180048   1.908   6.083   2.331  1.7362 -0.1933  1.0735
19519TIP3    H280049   1.808   6.141   2.429 -0.8818 -0.6519 -1.2017
19520TIP3   OH280050   5.117   5.803   3.838  0.0408  0.4333 -0.4673
19520TIP3    H180051   5.193   5.799   3.780  0.2562  0.6102 -0.1989
19520TIP3    H280052   5.132   5.733   3.902  0.4004  1.0142  0.0927
19521TIP3   OH280053   1.740   6.780   0.092 -0.3871 -0.4395 -0.4730
19521TIP3    H180054   1.720   6.687   0.077  0.1698 -0.4333 -1.3142
19521TIP3    H280055   1.676   6.827   0.038 -0.6962 -0.3206 -0.0155
19522TIP3   OH280056   1.219   1.489   6.370  0.6972 -0.2043 -0.3347
19522TIP3    H180057   1.189   1.469   6.282 -0.3551 -1.2220  0.2276
19522TIP3    H280058   1.188   1.578   6.387  2.1883  0.5816 -1.4982
19523TIP3   OH280059   6.595   6.575   3.325  0.2981  0.1062  0.4621
19523TIP3    H180060   6.629   6.652   3.280  0.3064 -0.6090 -0.8000
19523TIP3    H280061   6.546   6.610   3.400  2.2260  1.2369  1.2653
19524TIP3   OH280062   6.020   6.318   0.962 -0.2010  0.3446  0.9020
19524TIP3    H180063   6.094   6.344   1.017 -0.6712  0.5768  1.4434
19524TIP3    H280064   6.026   6.223   0.955  1.2616  0.4954 -0.6874
19525TIP3   OH280065   0.711   0.780   3.117 -0.5370 -0.1919  0.2505
19525TIP3    H180066   0.753   0.839   3.053 -0.7041  2.5374  2.4622
19525TIP3    H280067   0.693   0.700   3.067  1.9212  0.6774 -2.3377
19526TIP3   OH280068   1.301   1.021   3.645  0.0191 -0.0229 -0.0613
19526TIP3    H180069   1.248   1.077   3.589 -0.9813 -0.4622  0.4153
19526TIP3    H280070   1.295   1.062   3.732 -0.6555 -0.7984  0.2715
19527TIP3   OH280071   4.009   5.390  14.565  0.1286  0.3317 -0.4394
19527TIP3    H180072   3.952   5.457  14.601  1.0446  1.9885 -1.9179
19527TIP3    H280073   3.952   5.313  14.557 -1.1542  1.1182  0.6099
19528TIP3   OH280074   0.206   1.886  17.143 -0.5983  0.5847 -0.2573
19528TIP3    H180075   0.224   1.858  17.053 -0.0963 -1.6988  0.4894
19528TIP3    H280076   0.111   1.883  17.151 -0.6304  0.5655 -0.6432
19529TIP3   OH280077   0.766   5.721   4.207 -0.5943  0.2907  0.3895
19529TIP3    H180078   0.738   5.630   4.215  1.7163 -0.3196  3.8152
19529TIP3    H280079   0.789   5.747   4.296  3.1321  2.7256 -1.0396
19530TIP3   OH280080   1.496   1.265  11.768 -0.2528  0.1518 -0.0081
19530TIP3    H180081   1.527   1.303  11.685  1.3793 -0.5506  0.2582
19530TIP3    H280082   1.430   1.328  11.799  0.9097  1.7219 -0.5961
19531TIP3   OH280083   6.824   3.023   3.296 -0.2863 -0.4282 -0.0326
19531TIP3    H180084   6.741   2.992   3.261 -0.4737  0.7759 -0.6917
19531TIP3    H280085   6.875   3.049   3.219  0.5605 -0.7964  0.3866
19532TIP3   OH280086   6.615   1.996   4.227 -0.0995 -0.4682  0.7267
19532TIP3    H180087   6.650   2.048   4.299 -0.6898 -0.0502  0.7228
19532TIP3    H280088   6.555   1.935   4.269 -0.4139 -0.2503  0.6030
19533TIP3   OH280089   6.637   1.603   3.941  0.9524 -0.2955  0.4315
19533TIP3    H180090   6.635   1.693   3.909  0.1215 -0.1215  0.9356
19533TIP3    H280091   6.712   1.601   4.001  0.9010  0.0934  0.5157
19534TIP3   OH280092   0.189   6.506   3.838 -0.4130  0.3755  0.7072
19534TIP3    H180093   0.269   6.555   3.820  1.1380 -1.0847  3.0257
19534TIP3    H280094   0.200   6.424   3.790 -1.0872  0.6254  0.1092
19535TIP3   OH280095   4.782   3.769  12.777  0.3725 -0.2930  0.6256
19535TIP3    H180096   4.694   3.772  12.817  0.0148 -1.3429 -0.0400
19535TIP3    H280097   4.765   3.761  12.683  1.2054  1.5111  0.2870
19536TIP3   OH280098   4.363   2.938   3.358 -0.3474  0.0060  0.4477
19536TIP3    H180099   4.364   2.979   3.272  0.6906 -3.6135 -1.4931
19536TIP3    H280100   4.448   2.959   3.396 -0.8663  1.7423  0.7453
19537TIP3   OH280101   4.177   4.823   2.279 -0.7702 -0.0605  0.2453
19537TIP3    H180102   4.240   4.878   2.234 -0.4670 -0.9337 -0.4381
19537TIP3    H280103   4.091   4.855   2.250 -0.5961  0.0287 -0.1719
19538TIP3   OH280104   4.955   5.278   0.378  0.4676  0.0890 -0.1328
19538TIP3    H180105   4.917   5.366   0.382 -1.0919 -0.5520 -0.2901
19538TIP3    H280106   4.881   5.220   0.362  1.1904 -1.4730  1.8240
19539TIP3   OH280107   2.678   1.162  11.281  0.7523 -0.4361  0.3104
19539TIP3    H180108   2.647   1.152  11.371 -1.6606 -1.3846 -0.5280
19539TIP3    H280109   2.673   1.074  11.244 -1.1454  0.3414 -1.5148
19540TIP3   OH280110   3.865   5.023  13.087 -0.1429  0.0270 -0.6183
19540TIP3    H180111   3.816   4.953  13.130  1.8318 -1.3626 -0.4840
19540TIP3    H280112   3.910   5.068  13.158  0.8635 -0.4416 -0.9359
19541TIP3   OH280113   1.785   0.862   1.805  0.2507  0.4292  0.3023
19541TIP3    H180114   1.774   0.767   1.807 -0.5124  0.4388 -1.4059
19541TIP3    H280115   1.811   0.880   1.714  1.6129  1.7445  0.9199
19542TIP3   OH280116   1.233   3.947   5.542  0.3619  1.0971 -0.0970
19542TIP3    H180117   1.202   4.035   5.562 -1.2927  0.6611 -0.5392
19542TIP3    H280118   1.161   3.890   5.569  0.5476  0.0511 -1.6562
19543TIP3   OH280119   2.292   1.272  12.583  0.0551 -0.1603 -0.3222
19543TIP3    H180120   2.296   1.184  12.620  1.7803 -1.0457 -2.3904
19543TIP3    H280121   2.217   1.313  12.626 -2.0715 -3.3170 -0.6584
19544TIP3   OH280122   6.041   0.420   3.900 -0.5487  0.7060  0.4037
19544TIP3    H180123   6.112   0.399   3.961 -0.3658 -1.3906 -0.4401
19544TIP3    H280124   6.070   0.501   3.857  0.8700  0.4381  0.7818
19545TIP3   OH280125   0.879   1.136  11.910 -0.4199  0.6036 -0.0540
19545TIP3    H180126   0.841   1.175  11.831 -1.3034 -1.6353 -0.8172
19545TIP3    H280127   0.824   1.169  11.981 -0.5772  1.4350 -0.5433
19546TIP3   OH280128   6.211   1.595   4.500 -0.4606 -0.0975 -0.1609
19546TIP3    H180129   6.213   1.590   4.405  1.2314 -0.9514 -0.1230
19546TIP3    H280130   6.204   1.689   4.519  0.2322  0.1654 -1.1337
19547TIP3   OH280131   2.632   2.483  15.136  0.0220 -0.0333 -0.3437
19547TIP3    H180132   2.607   2.416  15.201 -1.4563 -0.0581 -0.8970
19547TIP3    H280133   2.720   2.457  15.108 -0.1836 -1.2650  0.0723
19548TIP3   OH280134   4.786   1.104  12.179 -0.6988 -0.3029  0.5680
19548TIP3    H180135   4.791   1.063  12.093 -1.5876 -2.8551  1.6079
19548TIP3    H280136   4.871   1.086  12.220 -0.4416  0.5031  0.3984
19549TIP3   OH280137   5.993   5.378  12.439  0.1485 -0.6313  0.5289
19549TIP3    H180138   6.008   5.395  12.346  1.8658  0.1209  0.8887
19549TIP3    H280139   5.928   5.309  12.441 -0.4957 -0.1353 -1.2144
19550TIP3   OH280140   3.322   6.305   0.113 -0.2167  0.0866  0.1317
19550TIP3    H180141   3.376   6.359   0.055 -0.0140  0.1312  0.3592
19550TIP3    H280142   3.385   6.248   0.158 -0.4253 -0.2890 -0.0557
19551TIP3   OH280143   4.073   6.074   2.979  0.1581 -0.3820 -0.0354
19551TIP3    H180144   4.159   6.096   3.015  0.1721  1.3731 -0.9763
19551TIP3    H280145   4.091   6.049   2.888 -0.4118  1.9514 -0.8809
19552TIP3   OH280146   6.405   5.652   6.297  0.1276  0.0961 -0.1282
19552TIP3    H180147   6.329   5.700   6.329  0.0373  0.3098 -0.6527
19552TIP3    H280148   6.444   5.710   6.231 -1.2381 -1.4526 -2.4098
19553TIP3   OH280149   3.631   0.796  14.543  0.3367 -0.6040  0.0907
19553TIP3    H180150   3.575   0.731  14.500  0.2455 -0.6354  0.2580
19553TIP3    H280151   3.597   0.801  14.633 -0.7248  0.8835 -0.3547
19554TIP3   OH280152   5.053   3.919   2.250 -0.6212 -0.3483  0.1300
19554TIP3    H180153   5.001   3.888   2.324 -2.3304  1.6943 -0.1281
19554TIP3    H280154   4.992   3.971   2.198  1.3715  1.0634 -0.9228
19555TIP3   OH280155   5.926   3.270  12.995  0.0772 -0.0465 -0.3118
19555TIP3    H180156   5.910   3.362  13.016  0.3498  0.0179 -0.3879
19555TIP3    H280157   5.970   3.236  13.073 -3.7233 -1.1932  1.5952
19556TIP3   OH280158   2.901   1.537  16.580  0.6137  0.5473  0.1600
19556TIP3    H180159   2.811   1.529  16.612  0.2753 -0.6102 -1.0097
19556TIP3    H280160   2.939   1.450  16.593  1.6662  1.0937  0.8876
19557TIP3   OH280161   4.715   2.666   4.618  0.1156 -0.0309  0.6674
19557TIP3    H180162   4.647   2.614   4.660  1.4986 -0.5091  2.4272
19557TIP3    H280163   4.782   2.603   4.591 -0.1940  0.3981 -1.2713
19558TIP3   OH280164   5.787   3.813   2.310  0.5056 -0.0732  0.5603
19558TIP3    H180165   5.772   3.739   2.252 -1.2012  2.1567 -2.0630
19558TIP3    H280166   5.723   3.802   2.380 -2.2614  0.6561 -1.7108
19559TIP3   OH280167   3.753   4.032   3.956  0.4588 -0.3894  0.2290
19559TIP3    H180168   3.786   4.113   3.996  1.3687  0.6716 -2.4015
19559TIP3    H280169   3.828   3.973   3.954  0.4813 -0.3553 -0.0500
19560TIP3   OH280170   2.301   0.155   3.921  0.0321 -0.2993  0.2480
19560TIP3    H180171   2.212   0.154   3.886  0.1644  0.5646 -0.1315
19560TIP3    H280172   2.321   0.063   3.937 -0.5499 -0.5955 -0.6382
19561TIP3   OH280173   5.649   1.265   0.808  0.4863  0.1104 -0.6673
19561TIP3    H180174   5.709   1.212   0.756  0.0866  0.1834 -1.2115
19561TIP3    H280175   5.562   1.239   0.778  0.2364 -0.1453  0.2591
19562TIP3   OH280176   1.360   1.763   0.757 -0.5032 -0.4322  0.2242
19562TIP3    H180177   1.383   1.703   0.827 -0.7722 -0.5922  0.1781
19562TIP3    H280178   1.280   1.807   0.788 -0.5090 -0.3587  0.1071
19563TIP3   OH280179   1.664   6.113  15.040  0.2479 -0.2464  0.4204
19563TIP3    H180180   1.742   6.149  15.000  0.7199 -0.5044  1.0889
19563TIP3    H280181   1.680   6.118  15.134 -0.5343 -0.3117  0.5693
19564TIP3   OH280182   4.294   2.243   4.000  0.4116 -0.3577 -0.0342
19564TIP3    H180183   4.248   2.238   3.916  0.7679  0.1328 -0.2640
19564TIP3    H280184   4.224   2.233   4.065  0.2045 -1.2717 -0.3802
19565TIP3   OH280185   2.669   0.486  11.998  0.1082 -0.0805  0.7137
19565TIP3    H180186   2.596   0.526  11.952 -0.4714 -1.8028  0.0596
19565TIP3    H280187   2.745   0.503  11.942 -0.3888 -1.1296 -0.3157
19566TIP3   OH280188   0.216   6.240   4.069 -0.3295  0.0321  0.2966
19566TIP3    H180189   0.206   6.160   4.016 -1.6168  0.6393 -0.4178
19566TIP3    H280190   0.296   6.225   4.119  1.1499 -0.4768 -2.0279
19567TIP3   OH280191   3.318   0.478  12.651  0.0319 -0.2862  0.3750
19567TIP3    H180192   3.301   0.392  12.691 -2.0865  0.7969  2.0510
19567TIP3    H280193   3.351   0.531  12.723  0.5780  0.5259 -0.4589
19568TIP3   OH280194   1.812   2.809   1.027 -0.0910  0.3354 -0.2705
19568TIP3    H180195   1.748   2.748   0.990  0.3161 -0.0591 -0.3292
19568TIP3    H280196   1.859   2.844   0.951 -1.7323  2.3516 -0.4350
19569TIP3   OH280197   6.762   1.340  14.587  0.6232  0.0831 -0.5372
19569TIP3    H180198   6.714   1.275  14.537 -0.9317  1.9185 -1.5716
19569TIP3    H280199   6.802   1.397  14.521  0.9694  0.8596  0.3173
19570TIP3   OH280200   1.883   3.369   1.136  0.0899 -0.4203  0.4679
19570TIP3    H180201   1.950   3.364   1.204 -0.2594 -0.7779  0.7952
19570TIP3    H280202   1.867   3.278   1.111 -0.9610 -0.4285  1.0916
19571TIP3   OH280203   2.250   5.877  16.958  0.1719  0.0011 -0.5573
19571TIP3    H180204   2.218   5.816  16.892  2.8010 -2.2058  0.0603
19571TIP3    H280205   2.289   5.949  16.908 -0.1477 -0.3739 -1.3553
19572TIP3   OH280206   3.267   1.501   5.575 -0.5087 -0.7061  0.2316
19572TIP3    H180207   3.269   1.408   5.600 -1.8999 -0.3024  2.1449
19572TIP3    H280208   3.288   1.547   5.656  1.5002  0.6766 -0.9982
19573TIP3   OH280209   1.564   5.846   0.340 -0.3993  0.2341 -0.1279
19573TIP3    H180210   1.546   5.755   0.364 -2.4694  0.7334  0.3945
19573TIP3    H280211   1.479   5.890   0.347  0.1838  1.8320 -2.1342
19574TIP3   OH280212   5.034   5.440   3.870  0.3890 -0.3823  0.4446
19574TIP3    H180213   5.058   5.449   3.778  0.0819  1.1067  0.4849
19574TIP3    H280214   5.082   5.509   3.914 -2.6637  1.7443  0.7407
19575TIP3   OH280215   3.586   4.815   6.408  0.0073 -0.7409  0.1715
19575TIP3    H180216   3.567   4.880   6.341 -0.1163  0.2745  1.1637
19575TIP3    H280217   3.535   4.843   6.484 -0.0127 -1.9740  0.6436
19576TIP3   OH280218   5.121   5.717  14.744  0.5480 -0.2088  0.0344
19576TIP3    H180219   5.215   5.706  14.754  0.4611 -1.2638 -0.1347
19576TIP3    H280220   5.090   5.632  14.711 -0.8688 -1.0006  3.0094
19577TIP3   OH280221   4.494   6.824  13.565 -0.2026  0.5244  0.1262
19577TIP3    H180222   4.448   6.900  13.529  1.0893  0.8373 -0.9504
19577TIP3    H280223   4.427   6.757  13.574 -0.7791  0.7620 -1.9641
19578TIP3   OH280224   6.334   6.418   1.951  0.5058 -0.6257  0.1813
19578TIP3    H180225   6.304   6.504   1.980  0.4733 -0.6870  0.3284
19578TIP3    H280226   6.341   6.426   1.856 -0.9476 -0.9213  0.0270
19579TIP3   OH280227   6.699   6.416  11.782  0.1862  0.1673  0.3186
19579TIP3    H180228   6.660   6.423  11.869 -0.6555  0.7968 -0.0887
19579TIP3    H280229   6.639   6.465  11.725 -0.0664 -1.4565 -0.8778
19580TIP3   OH280230   3.340   4.323   0.734 -0.1001 -0.1504  0.0923
19580TIP3    H180231   3.406   4.256   0.717 -0.1640 -0.0530 -0.5821
19580TIP3    H280232   3.368   4.398   0.682  0.8337  0.9235  2.0609
19581TIP3   OH280233   5.272   6.317  15.071  0.1218 -1.0175  0.2319
19581TIP3    H180234   5.335   6.379  15.107 -2.5468  1.0465  1.7525
19581TIP3    H280235   5.234   6.362  14.996 -2.7545 -0.0441  2.0980
19582TIP3   OH280236   3.788   5.482  17.119  0.5510 -0.3695 -0.8200
19582TIP3    H180237   3.748   5.568  17.135 -0.2762 -0.6008 -1.5665
19582TIP3    H280238   3.882   5.501  17.110  0.5535  0.2664  0.3154
19583TIP3   OH280239   0.893   4.706  12.642  0.3028 -0.3086 -0.3671
19583TIP3    H180240   0.870   4.745  12.727 -0.6065 -0.5640 -0.4879
19583TIP3    H280241   0.873   4.775  12.578  0.6600 -0.2393 -0.4049
19584TIP3   OH280242   4.353   0.139   2.051 -0.0130  0.0567  0.0282
19584TIP3    H180243   4.287   0.120   2.117  1.9835 -1.1738  1.7987
19584TIP3    H280244   4.407   0.208   2.091 -0.1096  0.9685 -1.3355
19585TIP3   OH280245   0.788   5.584   2.925  0.3372  0.2682 -0.4588
19585TIP3    H180246   0.697   5.613   2.924  0.5022  0.8805 -2.6870
19585TIP3    H280247   0.834   5.652   2.975 -0.3308  0.1850  0.2933
19586TIP3   OH280248   1.753   6.144   1.714 -0.0631  0.4460 -0.0359
19586TIP3    H180249   1.716   6.124   1.628  2.0664  1.0185 -1.1692
19586TIP3    H280250   1.762   6.240   1.714 -0.6348  0.5111  1.1037
19587TIP3   OH280251   5.331   4.772  11.173 -0.0282 -0.3705 -1.0686
19587TIP3    H180252   5.343   4.677  11.180  0.8880 -0.2183 -0.4876
19587TIP3    H280253   5.356   4.806  11.258  0.0773  0.4438 -1.4195
19588TIP3   OH280254   3.818   0.720   5.965 -0.1329  0.4312  0.3393
19588TIP3    H180255   3.861   0.797   6.001  1.3760 -0.7187  1.0927
19588TIP3    H280256   3.889   0.666   5.930 -0.9715 -1.3388  1.2392
19589TIP3   OH280257   3.508   0.660  16.783 -0.1781  0.0278 -0.1244
19589TIP3    H180258   3.548   0.705  16.708 -2.3740  1.7679 -0.3768
19589TIP3    H280259   3.541   0.707  16.860 -0.2532  0.2241 -0.2114
19590TIP3   OH280260   3.716   0.254  11.040 -0.0740  0.8854 -0.6700
19590TIP3    H180261   3.801   0.261  10.998  1.1046  0.4651  1.5084
19590TIP3    H280262   3.689   0.163  11.026 -0.7183  1.2931 -2.2796
19591TIP3   OH280263   6.755   3.167  12.072 -0.4446  0.4381  0.3409
19591TIP3    H180264   6.733   3.185  12.163 -2.0874 -0.0642  0.0816
19591TIP3    H280265   6.832   3.221  12.054 -1.3428  2.1664  1.4246
19592TIP3   OH280266   5.054   5.387  16.647  0.3547  0.9515 -0.1811
19592TIP3    H180267   4.995   5.319  16.679  0.2136  2.3237  2.8866
19592TIP3    H280268   5.128   5.339  16.611 -0.1981 -0.8598  0.9428
19593TIP3   OH280269   3.958   0.028   5.339 -0.5126  0.1870 -0.3664
19593TIP3    H180270   3.942  -0.066   5.346 -0.2783  0.2157  0.7428
19593TIP3    H280271   3.904   0.067   5.408  0.7477  0.6911  0.3764
19594TIP3   OH280272   4.091   1.368   1.086 -0.1978  0.3324  0.5355
19594TIP3    H180273   4.096   1.379   0.991 -1.4057 -1.2783  0.2294
19594TIP3    H280274   4.027   1.433   1.114 -2.0061 -1.0268 -0.2152
19595TIP3   OH280275   6.545   0.165  13.591  0.1125 -0.0026  1.0087
19595TIP3    H180276   6.601   0.241  13.603 -0.0955  0.1916  0.7624
19595TIP3    H280277   6.584   0.097  13.646  0.9836 -0.0792  0.3125
19596TIP3   OH280278   3.013   0.851   0.514  0.2600 -0.0211  0.0741
19596TIP3    H180279   3.063   0.918   0.467  0.8963  0.1299  0.9473
19596TIP3    H280280   2.982   0.792   0.445  1.1896  0.1852 -0.5374
19597TIP3   OH280281   1.794   5.354   0.690  0.2529  0.5438 -0.0816
19597TIP3    H180282   1.730   5.294   0.729 -0.4849 -0.0753 -2.1413
19597TIP3    H280283   1.744   5.406   0.628  1.1085  2.5580  0.8349
19598TIP3   OH280284   0.980   6.379  13.754  0.3407 -0.2027 -0.0809
19598TIP3    H180285   1.011   6.451  13.808  0.4308 -1.1336  1.1441
19598TIP3    H280286   1.041   6.308  13.771  0.3840 -0.5165 -1.4400
19599TIP3   OH280287   6.135   1.679  12.978 -0.0054  0.1825  0.6630
19599TIP3    H180288   6.127   1.772  12.955  1.3819  0.1091 -0.2268
19599TIP3    H280289   6.045   1.651  12.997 -0.8655  1.0610 -1.7092
19600TIP3   OH280290   0.662   2.395   4.571  0.5136  0.1686  0.3518
19600TIP3    H180291   0.659   2.488   4.551  2.2518  0.1409 -0.2026
19600TIP3    H280292   0.594   2.356   4.516  0.7814  0.9354 -0.5473
19601TIP3   OH280293   3.488   5.453  12.718 -0.5862 -0.2484  0.0486
19601TIP3    H180294   3.458   5.530  12.669  0.4415  0.5601  0.6466
19601TIP3    H280295   3.409   5.417  12.757 -0.9436  1.2681  0.7993
19602TIP3   OH280296   6.279   6.531   2.816 -0.6245 -0.4657 -0.1666
19602TIP3    H180297   6.362   6.560   2.854 -0.6496  1.0199 -1.1779
19602TIP3    H280298   6.274   6.437   2.837  0.0175 -0.0299  2.2424
19603TIP3   OH280299   5.514   4.923  12.411 -0.5403  0.2817  0.5459
19603TIP3    H180300   5.425   4.894  12.391  0.2592 -0.6703 -2.0001
19603TIP3    H280301   5.503   5.008  12.453 -2.6644 -0.3176  1.3231
19604TIP3   OH280302   4.520   1.718   0.781  0.0834  0.2689 -0.3424
19604TIP3    H180303   4.490   1.808   0.785 -1.0733  0.0645 -2.7876
19604TIP3    H280304   4.597   1.720   0.724 -0.4734 -0.3865 -1.1396
19605TIP3   OH280305   6.310   1.226  15.112  0.2019 -0.3443  0.3830
19605TIP3    H180306   6.223   1.189  15.126 -0.1349 -0.1612 -1.0054
19605TIP3    H280307   6.361   1.198  15.187 -0.0607 -3.4725 -0.4835
19606TIP3   OH280308   0.564   6.522   3.145  0.2703  0.2759 -0.7553
19606TIP3    H180309   0.580   6.612   3.173  4.0999 -1.1361  2.5539
19606TIP3    H280310   0.542   6.475   3.226 -1.5509 -1.8985 -2.3637
19607TIP3   OH280311   4.074   5.554  12.642 -0.2124  0.2705  0.0541
19607TIP3    H180312   4.143   5.601  12.594  0.1626  0.6206  0.9151
19607TIP3    H280313   3.994   5.601  12.621  0.1522  1.3069  0.8837
19608TIP3   OH280314   2.883   5.939   1.920  0.8098  0.6322 -0.2142
19608TIP3    H180315   2.894   5.988   2.002 -0.6704 -1.8515  1.6191
19608TIP3    H280316   2.949   5.976   1.861  1.7509  2.7406  1.9745
19609TIP3   OH280317   4.625   0.987  13.834 -0.1404 -0.3804  0.4916
19609TIP3    H180318   4.564   0.993  13.908  0.4460 -1.2435  1.0596
19609TIP3    H280319   4.572   0.954  13.762 -1.3151  2.6775 -0.2233
19610TIP3   OH280320   4.586   6.410  13.722  0.1318 -0.0158 -0.0679
19610TIP3    H180321   4.541   6.470  13.662 -2.3893 -0.2120  1.4555
19610TIP3    H280322   4.597   6.329  13.672  1.6787  1.0131 -1.4744
19611TIP3   OH280323   6.698   1.783   4.715 -0.2757  0.3492 -1.0217
19611TIP3    H180324   6.604   1.793   4.700 -0.2360 -0.0203 -1.5297
19611TIP3    H280325   6.721   1.701   4.672  0.1991  0.2055 -0.5139
19612TIP3   OH280326   3.567   5.021   3.660 -0.5886 -0.0278 -0.0513
19612TIP3    H180327   3.517   4.965   3.719  0.1250  0.5797  1.1646
19612TIP3    H280328   3.647   5.041   3.707  1.7948 -2.5114 -2.6522
19613TIP3   OH280329   4.302   1.722   1.025 -0.0739  0.0039 -0.5441
19613TIP3    H180330   4.216   1.701   1.060  0.0389 -0.1448 -0.3565
19613TIP3    H280331   4.324   1.650   0.966  1.0761 -1.3416  1.4308
19614TIP3   OH280332   1.862   3.858   6.156  0.0672 -0.8403 -0.2114
19614TIP3    H180333   1.874   3.919   6.083 -0.8243 -2.3779 -1.7309
19614TIP3    H280334   1.871   3.912   6.234  0.1687  1.0618 -1.4654
19615TIP3   OH280335   1.352   2.483   5.197 -1.1063  0.6136  0.0503
19615TIP3    H180336   1.380   2.400   5.159  2.3578  0.7967  1.7710
19615TIP3    H280337   1.291   2.457   5.267 -1.1153 -0.3629 -0.3013
19616TIP3   OH280338   1.571   5.059   5.285  0.1734 -0.0943  0.2257
19616TIP3    H180339   1.662   5.050   5.257 -0.0272  0.0213 -0.4653
19616TIP3    H280340   1.576   5.114   5.364  0.5196  1.7739 -1.0454
19617TIP3   OH280341   3.281   1.946  11.431 -0.2054 -0.5995  0.2387
19617TIP3    H180342   3.338   2.021  11.445  0.7180 -0.7924 -1.9778
19617TIP3    H280343   3.223   1.945  11.507  2.1154  0.1577  2.1593
19618TIP3   OH280344   5.031   0.478  15.691 -0.1166 -1.1135 -0.1566
19618TIP3    H180345   4.978   0.401  15.673 -3.5034  0.7667  0.8902
19618TIP3    H280346   5.058   0.469  15.782 -0.7715 -0.9465  0.0579
19619TIP3   OH280347   0.963   6.526  11.294 -0.0645  0.0533 -0.4252
19619TIP3    H180348   1.000   6.533  11.382 -0.8413  2.4751 -0.2032
19619TIP3    H280349   1.038   6.540  11.236  0.1103  0.5585 -0.0870
19620TIP3   OH280350   4.361   5.355  13.927  0.0563  0.2452 -0.1955
19620TIP3    H180351   4.315   5.307  13.996  0.9367 -0.8100 -0.3174
19620TIP3    H280352   4.393   5.434  13.971  0.1255 -0.1420  0.4756
19621TIP3   OH280353   4.079   1.140   6.685  0.0950  0.3657 -0.1805
19621TIP3    H180354   4.057   1.232   6.673 -2.7953  0.0880  1.9531
19621TIP3    H280355   4.134   1.138   6.763 -0.6476  0.2217  0.3451
19622TIP3   OH280356   4.885   5.265  16.400 -0.1989 -0.3416  0.3020
19622TIP3    H180357   4.835   5.290  16.478 -2.6731 -0.2258 -1.2033
19622TIP3    H280358   4.931   5.186  16.426 -1.1249 -0.4245  1.8370
19623TIP3   OH280359   6.750   3.287   3.154 -0.8045 -0.5340 -0.5121
19623TIP3    H180360   6.703   3.318   3.077  0.4726 -0.4015 -1.2708
19623TIP3    H280361   6.697   3.215   3.188 -3.4161  1.8717  0.8044
19624TIP3   OH280362   4.553   2.832   5.705  0.2771 -0.1179  0.1132
19624TIP3    H180363   4.578   2.768   5.771  1.2827  0.4733  0.3233
19624TIP3    H280364   4.630   2.842   5.649 -0.3022 -0.0391 -0.6862
19625TIP3   OH280365   0.057   1.223   0.325  0.4042 -0.0908 -0.3999
19625TIP3    H180366   0.140   1.256   0.361  0.7116  0.1892 -1.3334
19625TIP3    H280367   0.068   1.230   0.230  0.1230 -2.0756 -0.6094
19626TIP3   OH280368   2.169   0.717   3.984 -0.1132 -0.2901  0.0999
19626TIP3    H180369   2.208   0.630   3.989  0.3876 -0.0490  0.4565
19626TIP3    H280370   2.144   0.738   4.073  1.7562  0.8097  0.4233
19627TIP3   OH280371   5.442   2.324  15.168 -0.1808  0.2340 -0.2162
19627TIP3    H180372   5.381   2.288  15.104  1.4909 -1.1503 -1.1446
19627TIP3    H280373   5.394   2.393  15.213 -2.4005 -0.8248 -0.8609
19628TIP3   OH280374   5.235   0.399  10.790 -0.2320  0.5717  0.6909
19628TIP3    H180375   5.174   0.389  10.716  1.0295 -0.2856 -0.2882
19628TIP3    H280376   5.286   0.318  10.790  0.7363  1.1526  1.6409
19629TIP3   OH280377   0.378   0.791  12.283 -0.0988  0.4615  0.1736
19629TIP3    H180378   0.327   0.715  12.312 -1.8700  1.6234  0.2423
19629TIP3    H280379   0.353   0.803  12.191 -0.1963  1.2204  0.2892
19630TIP3   OH280380   6.115   1.829   0.620  0.5165  0.3181  0.6058
19630TIP3    H180381   6.138   1.916   0.588  0.1818  0.5516  0.9905
19630TIP3    H280382   6.135   1.770   0.547  2.3177  0.5030  0.9043
19631TIP3   OH280383   6.686   2.271  15.941  0.4968 -0.4807  0.3202
19631TIP3    H180384   6.751   2.249  16.008  1.7183 -0.7951 -0.9309
19631TIP3    H280385   6.701   2.207  15.872 -0.5856 -0.0065 -0.3613
19632TIP3   OH280386   4.627   2.278   0.029  0.0863  0.2060 -0.1705
19632TIP3    H180387   4.629   2.222  -0.049  0.2305  0.9352 -0.6970
19632TIP3    H280388   4.536   2.276   0.057 -0.1362  0.6084 -0.8511
19633TIP3   OH280389   2.334   3.471   1.538 -0.0932  0.2105  0.0985
19633TIP3    H180390   2.395   3.504   1.605  3.2015  0.3595 -2.6679
19633TIP3    H280391   2.309   3.384   1.570  2.1936 -0.1682  1.0829
19634TIP3   OH280392   4.673   1.853   6.301 -0.5465  0.2362  0.5696
19634TIP3    H180393   4.733   1.927   6.300 -0.6446  0.4311 -3.2982
19634TIP3    H280394   4.721   1.784   6.347  1.3433  1.3349  0.3641
19635TIP3   OH280395   6.193   0.641  16.344  0.3377 -0.2162  0.7071
19635TIP3    H180396   6.279   0.622  16.379  0.4376 -1.5865 -0.2327
19635TIP3    H280397   6.201   0.626  16.250 -0.7329  0.3832  0.4988
19636TIP3   OH280398   2.357   2.018  14.947 -0.0366  0.0397  0.1274
19636TIP3    H180399   2.407   1.975  15.017 -1.7268 -0.9219  0.8139
19636TIP3    H280400   2.349   2.109  14.975 -0.2797 -0.2280  0.9616
19637TIP3   OH280401   4.646   2.079  13.591  0.0794  0.0830  0.1830
19637TIP3    H180402   4.592   2.004  13.567 -0.3443 -0.1433  1.7375
19637TIP3    H280403   4.733   2.058  13.556 -0.7522  0.4433 -2.3175
19638TIP3   OH280404   1.576   5.376   4.053  0.2536  0.2143  0.3807
19638TIP3    H180405   1.571   5.445   3.987 -2.4750  1.4082  1.6740
19638TIP3    H280406   1.665   5.342   4.045  1.0250  2.4118 -1.7624
19639TIP3   OH280407   5.768   6.311   0.036 -0.5496  0.2749 -0.4303
19639TIP3    H180408   5.798   6.374  -0.030  0.8952  1.3147  1.1387
19639TIP3    H280409   5.676   6.296   0.014 -0.2021  0.8154 -2.4776
19640TIP3   OH280410   2.541   5.806  11.389 -1.0987  0.0214 -0.5541
19640TIP3    H180411   2.608   5.812  11.320 -1.9249  1.2773 -1.2852
19640TIP3    H280412   2.578   5.856  11.462 -1.4120  1.1188 -1.1246
19641TIP3   OH280413   2.226   6.585  12.482 -0.2978  0.4542 -0.4451
19641TIP3    H180414   2.286   6.596  12.408 -1.9583  2.4588 -1.5876
19641TIP3    H280415   2.281   6.597  12.559  1.0746  0.5143 -1.3877
19642TIP3   OH280416   6.460   5.826   3.913  0.0332 -0.0140  0.2782
19642TIP3    H180417   6.491   5.901   3.863 -0.7039  1.7618  2.3317
19642TIP3    H280418   6.377   5.802   3.872 -1.3517  2.4106  1.4585
19643TIP3   OH280419   3.220   0.957  16.823  0.6322 -0.1346  0.1297
19643TIP3    H180420   3.137   0.984  16.862  1.4951  1.4254  0.9755
19643TIP3    H280421   3.195   0.888  16.762 -1.3878  0.7557 -0.1657
19644TIP3   OH280422   0.524   2.101  13.880 -0.0483  0.3373 -0.0186
19644TIP3    H180423   0.493   2.127  13.794 -1.6191 -0.9095  0.1159
19644TIP3    H280424   0.481   2.160  13.941 -0.7325 -0.2037  0.0390
19645TIP3   OH280425   2.657   3.822   0.051  0.2620 -0.9775  0.4598
19645TIP3    H180426   2.702   3.800  -0.031  0.6070 -1.1344  0.6856
19645TIP3    H280427   2.677   3.749   0.109  1.4090 -0.0979  1.2170
19646TIP3   OH280428   0.715   5.884   0.127 -0.0293  0.2060 -0.1429
19646TIP3    H180429   0.773   5.823   0.173 -0.2273 -0.0328 -0.2043
19646TIP3    H280430   0.769   5.960   0.108 -0.4070  1.1483  2.1955
19647TIP3   OH280431   2.764   0.353  12.792 -0.9089  0.5052  0.4420
19647TIP3    H180432   2.840   0.353  12.734 -0.1765 -0.5347  1.3620
19647TIP3    H280433   2.691   0.377  12.735 -0.0193  0.7977 -0.6224
19648TIP3   OH280434   4.055   3.368  14.434  0.8687  0.2643 -1.0639
19648TIP3    H180435   4.133   3.319  14.460  0.6956 -1.1994 -3.0286
19648TIP3    H280436   4.059   3.369  14.338 -0.5562  1.8271 -1.1555
19649TIP3   OH280437   5.758   2.018   1.038 -0.9594 -0.0523 -0.0049
19649TIP3    H180438   5.800   1.947   0.990  1.0997  1.3910 -0.4724
19649TIP3    H280439   5.718   2.072   0.970  0.1480  0.8604  0.0404
19650TIP3   OH280440   6.050   4.409  14.925 -0.1226 -1.1456 -0.2770
19650TIP3    H180441   6.068   4.393  14.832  0.4891 -0.8306 -0.2177
19650TIP3    H280442   6.114   4.475  14.951 -1.0027 -0.4163  0.0986
19651TIP3   OH280443   2.777   2.951  12.477 -0.0581 -0.4588 -0.7065
19651TIP3    H180444   2.814   2.873  12.518 -0.6875 -0.4346 -0.0765
19651TIP3    H280445   2.699   2.920  12.431 -0.2014 -0.2394 -0.6159
19652TIP3   OH280446   5.640   6.783  11.132  0.1991 -0.6152  0.0307
19652TIP3    H180447   5.575   6.720  11.101 -1.1815  0.8383 -0.1726
19652TIP3    H280448   5.689   6.806  11.053 -1.1845  0.6638 -0.4970
19653TIP3   OH280449   3.263   1.620   1.620  0.3093  0.3077  0.7315
19653TIP3    H180450   3.275   1.586   1.709  0.1062  0.8032  0.9534
19653TIP3    H280451   3.316   1.700   1.617 -2.0239  1.9862  1.4176
19654TIP3   OH280452   2.519   0.769   5.820 -0.2192 -0.2686 -0.1297
19654TIP3    H180453   2.578   0.841   5.843  0.6732 -0.4382 -1.7157
19654TIP3    H280454   2.494   0.788   5.729 -2.2909 -0.4453  0.3628
19655TIP3   OH280455   5.378   4.229  16.574  0.0756  0.4469  0.2630
19655TIP3    H180456   5.398   4.196  16.662 -3.4217 -1.4008  0.5282
19655TIP3    H280457   5.329   4.310  16.590 -1.5253 -0.4631  0.1324
19656TIP3   OH280458   2.894   0.319  15.923 -0.3824  0.1993  0.2448
19656TIP3    H180459   2.813   0.346  15.966 -0.3578 -0.7696  0.9080
19656TIP3    H280460   2.923   0.397  15.876 -1.8000  0.5073 -0.1580
19657TIP3   OH280461   3.128   4.296  12.806 -0.0266  0.2629  0.3290
19657TIP3    H180462   3.115   4.352  12.882 -0.5720  1.4183 -0.5924
19657TIP3    H280463   3.040   4.285  12.769  0.0791 -1.1209  0.4162
19658TIP3   OH280464   4.405   0.413  13.621 -0.1043 -0.4549  0.2655
19658TIP3    H180465   4.403   0.385  13.529  1.9514 -2.7769  0.8186
19658TIP3    H280466   4.459   0.347  13.665  2.2035  2.5904  2.4683
19659TIP3   OH280467   2.499   4.512  11.695 -0.3438  0.5332 -0.2455
19659TIP3    H180468   2.442   4.589  11.691  0.2342  0.9249 -3.2304
19659TIP3    H280469   2.446   4.446  11.740 -1.2743  2.2827  1.3798
19660TIP3   OH280470   3.477   5.157   5.386  0.7989 -0.2713  0.4669
19660TIP3    H180471   3.510   5.215   5.455  0.1808 -0.8922  1.2956
19660TIP3    H280472   3.530   5.078   5.394  1.4646  0.0574 -0.4961
19661TIP3   OH280473   4.483   2.283   3.012  0.2823  0.2139  0.1010
19661TIP3    H180474   4.499   2.193   2.986 -1.0240 -0.7894  2.4767
19661TIP3    H280475   4.392   2.300   2.988  0.6600  1.1230 -0.7930
19662TIP3   OH280476   4.915   4.195   4.620  0.2514  0.0467  0.5071
19662TIP3    H180477   4.945   4.282   4.595 -0.1855  0.0651  0.0453
19662TIP3    H280478   4.863   4.210   4.699 -1.9551  0.5656 -0.9577
19663TIP3   OH280479   2.187   0.580   3.153  0.0982  0.0479 -0.6705
19663TIP3    H180480   2.198   0.521   3.078  4.3414 -0.1218 -0.1781
19663TIP3    H280481   2.263   0.638   3.149 -2.3486  3.6580  0.5708
19664TIP3   OH280482   5.957   4.652   0.073 -0.1745  0.1860  0.1019
19664TIP3    H180483   6.042   4.644   0.116 -0.4230  0.5817  0.6785
19664TIP3    H280484   5.893   4.635   0.142 -0.6044  2.1080  0.2299
19665TIP3   OH280485   1.704   0.456  16.938  0.3891  0.1414 -0.2372
19665TIP3    H180486   1.701   0.472  17.032 -0.2727  3.0579 -0.6463
19665TIP3    H280487   1.678   0.365  16.927 -2.3360  0.5075  2.2471
19666TIP3   OH280488   4.358   1.861   2.110 -0.4823  0.7363 -0.2006
19666TIP3    H180489   4.276   1.897   2.077 -0.1101  1.1788 -0.6567
19666TIP3    H280490   4.383   1.919   2.181 -0.0599  1.1813 -0.7092
19667TIP3   OH280491   4.529   4.384  15.547 -0.0961  0.5022  0.6931
19667TIP3    H180492   4.591   4.321  15.511 -0.4692 -0.9387  2.4214
19667TIP3    H280493   4.507   4.350  15.634 -1.2594  2.3904  1.2137
19668TIP3   OH280494   2.747   1.009  14.566 -0.3531  0.3029 -0.0911
19668TIP3    H180495   2.704   1.094  14.579 -0.0112  0.5175 -0.3568
19668TIP3    H280496   2.709   0.953  14.634  1.1262  1.2861  1.6251
19669TIP3   OH280497   5.936   1.646  10.560  0.4223 -0.2972 -0.0922
19669TIP3    H180498   5.952   1.651  10.654 -0.7238  0.5575  0.0799
19669TIP3    H280499   5.862   1.705  10.545  2.0918  1.4675 -1.9072
19670TIP3   OH280500   3.093   4.780  12.459  0.1876  0.3229  0.5355
19670TIP3    H180501   3.006   4.770  12.421  0.3099 -1.5790  0.6580
19670TIP3    H280502   3.113   4.873  12.449 -1.7267  0.7470  0.2449
19671TIP3   OH280503   2.706   2.122   2.465  0.0060 -0.3138 -0.0325
19671TIP3    H180504   2.767   2.048   2.463 -0.4202 -0.6856  0.4426
19671TIP3    H280505   2.734   2.175   2.540  0.3143  0.0104 -0.3758
19672TIP3   OH280506   1.982   1.699  14.962 -0.2774  0.0608 -0.5893
19672TIP3    H180507   1.966   1.699  14.867  2.1564  1.0276 -1.0662
19672TIP3    H280508   1.945   1.782  14.992  0.3771  0.5128 -0.9991
19673TIP3   OH280509   0.205   5.709   4.812 -0.4620  0.0773  0.5187
19673TIP3    H180510   0.204   5.775   4.742 -1.7464 -0.6011 -0.1470
19673TIP3    H280511   0.185   5.757   4.891  1.4195  0.9316  0.5117
19674TIP3   OH280512   0.017   5.002  15.791  1.1183 -0.0946 -0.1536
19674TIP3    H180513   0.102   4.989  15.831  0.6828  1.4819  1.4219
19674TIP3    H280514  -0.031   5.056  15.854 -0.9290 -0.6541 -1.1439
19675TIP3   OH280515   1.263   3.878  11.915  0.3498 -0.1322 -0.0440
19675TIP3    H180516   1.275   3.894  11.822 -2.2713 -0.8871 -0.6086
19675TIP3    H280517   1.231   3.960  11.950 -0.6753 -0.4210 -0.2719
19676TIP3   OH280518   6.386   3.265  12.215  0.2916 -0.0158  0.3038
19676TIP3    H180519   6.301   3.221  12.214  0.2357  0.0617  1.1395
19676TIP3    H280520   6.364   3.357  12.230  0.4686  0.1663 -0.4897
19677TIP3   OH280521   4.787   1.214   6.370  0.6269  0.1638 -0.1687
19677TIP3    H180522   4.774   1.133   6.320 -1.4432 -1.7258  3.0454
19677TIP3    H280523   4.712   1.269   6.346  0.8671  0.2294 -0.7794
19678TIP3   OH280524   2.164   6.820   0.483  0.0287 -0.3005 -0.8505
19678TIP3    H180525   2.122   6.734   0.470 -0.8252 -0.0097 -0.0567
19678TIP3    H280526   2.097   6.874   0.524  1.0276  0.3236  0.0130
19679TIP3   OH280527   6.616   6.550  15.730  0.2449  0.1329  0.3686
19679TIP3    H180528   6.692   6.599  15.764  0.4756 -0.4605  0.7166
19679TIP3    H280529   6.541   6.589  15.775  0.2450  1.2255 -0.5173
19680TIP3   OH280530   3.066   0.352  16.303  0.1726 -0.5764 -0.0743
19680TIP3    H180531   2.992   0.408  16.327  0.5196 -1.4962  3.6980
19680TIP3    H280532   3.025   0.270  16.274 -0.3047 -0.3603 -0.0175
19681TIP3   OH280533   2.503   5.498  16.633  0.2540 -0.0871  0.4756
19681TIP3    H180534   2.418   5.465  16.604  0.0939  0.1612  0.6508
19681TIP3    H280535   2.566   5.458  16.574  0.2410 -2.0656  1.7287
19682TIP3   OH280536   2.936   6.460   3.774 -0.3793 -0.1312 -0.1502
19682TIP3    H180537   3.029   6.445   3.757 -0.6142 -2.9048  0.5241
19682TIP3    H280538   2.896   6.466   3.687  0.3922  1.1308 -0.4448
19683TIP3   OH280539   2.318   6.003  12.300 -0.0139  0.2861 -0.3038
19683TIP3    H180540   2.407   6.005  12.267 -0.5620  0.5071 -1.8270
19683TIP3    H280541   2.327   5.976  12.392  1.7281  2.0144  0.0777
19684TIP3   OH280542   2.703   3.198   0.333 -0.4336 -0.0901 -0.5950
19684TIP3    H180543   2.663   3.277   0.296  0.0799  1.3321  1.6806
19684TIP3    H280544   2.634   3.132   0.328 -1.4443  0.9729 -1.0760
19685TIP3   OH280545   3.388   4.890  14.157  0.8503 -0.2638  0.0489
19685TIP3    H180546   3.294   4.877  14.151  0.6542  1.1687 -0.4722
19685TIP3    H280547   3.426   4.807  14.127 -0.2356 -0.7188 -0.1049
19686TIP3   OH280548   6.619   6.476  14.257  0.2157 -0.1842 -0.5821
19686TIP3    H180549   6.654   6.388  14.264  0.8745  0.0707 -0.6390
19686TIP3    H280550   6.694   6.534  14.274 -0.5329  0.3588  1.1746
19687TIP3   OH280551   4.960   5.816   3.106  0.2569 -0.0284  0.4847
19687TIP3    H180552   4.907   5.802   3.027  1.4957  0.6228 -0.5103
19687TIP3    H280553   4.945   5.908   3.129 -0.9169 -0.4859  1.6679
19688TIP3   OH280554   2.855   3.018  16.144 -0.0626 -0.5927  0.5921
19688TIP3    H180555   2.936   2.987  16.103 -0.2740 -2.2503  1.3534
19688TIP3    H280556   2.881   3.099  16.188  1.2347 -1.1540  0.9211
19689TIP3   OH280557   6.191   1.137   4.360  0.4939 -0.7232  0.1922
19689TIP3    H180558   6.104   1.171   4.337  0.5108 -0.8778 -0.1106
19689TIP3    H280559   6.200   1.058   4.306  0.2714 -1.4672  1.2062
19690TIP3   OH280560   4.580   1.774   4.834  0.4642  0.2247 -0.0478
19690TIP3    H180561   4.560   1.841   4.899 -0.0713  0.5826 -0.5761
19690TIP3    H280562   4.646   1.718   4.877  0.7906  0.9790  0.4505
19691TIP3   OH280563   2.762   2.177   3.531  0.3386 -0.1103  0.3562
19691TIP3    H180564   2.724   2.114   3.591  2.5586 -0.2004  1.7796
19691TIP3    H280565   2.704   2.176   3.455 -1.1501 -1.8653  1.4410
19692TIP3   OH280566   3.039   1.797  14.994 -0.5830  0.2421 -0.6305
19692TIP3    H180567   2.960   1.824  14.946 -1.3105 -0.1261  0.3061
19692TIP3    H280568   3.026   1.704  15.010 -0.2783  0.3231  0.1209
19693TIP3   OH280569   4.423   6.673   1.142  0.3263 -0.1759 -0.6204
19693TIP3    H180570   4.384   6.681   1.229 -0.6956  2.0767 -1.2135
19693TIP3    H280571   4.427   6.578   1.126  1.1712 -0.6746  2.1092
19694TIP3   OH280572   3.039   1.642  11.084 -0.5097 -0.0301  0.0273
19694TIP3    H180573   3.100   1.666  11.014 -0.0197  0.7134  0.6973
19694TIP3    H280574   2.981   1.577  11.044  1.5386 -1.7683 -0.2509
19695TIP3   OH280575   5.347   6.787  16.940  0.0126 -0.2361 -0.1667
19695TIP3    H180576   5.302   6.740  16.870 -1.9988  2.1913 -0.6460
19695TIP3    H280577   5.323   6.740  17.020 -2.7831  0.4500 -0.5122
19696TIP3   OH280578   1.287   3.395  14.188 -0.2611 -0.0348 -0.2242
19696TIP3    H180579   1.305   3.322  14.129  0.5094 -1.1281  1.2833
19696TIP3    H280580   1.320   3.472  14.142 -0.6807 -0.6761 -1.6630
19697TIP3   OH280581   6.221   5.875  15.895 -0.0081 -0.3497  0.3479
19697TIP3    H180582   6.247   5.955  15.941  0.6287 -0.6138  0.4497
19697TIP3    H280583   6.283   5.867  15.822 -0.5337 -0.3500 -0.1100
19698TIP3   OH280584   1.211   5.385   2.320  0.2037  0.2079  0.0619
19698TIP3    H180585   1.273   5.448   2.282 -0.9137  1.9540  1.0183
19698TIP3    H280586   1.187   5.328   2.247  1.6319  0.5543 -0.7156
19699TIP3   OH280587   3.646   4.790  14.933  0.2584  0.3801  0.1586
19699TIP3    H180588   3.692   4.864  14.892  1.1043 -0.0131  0.3612
19699TIP3    H280589   3.639   4.814  15.025 -0.3940  0.6569  0.0382
19700TIP3   OH280590   2.872   1.406   5.661 -0.3450 -0.6866 -0.4159
19700TIP3    H180591   2.914   1.491   5.649 -1.1881 -0.0690  0.7962
19700TIP3    H280592   2.914   1.369   5.739  0.1214 -1.4607 -1.0209
19701TIP3   OH280593   6.551   2.738   5.010  0.7656 -0.2607  0.2041
19701TIP3    H180594   6.596   2.653   5.013 -0.8380 -1.1634 -0.3008
19701TIP3    H280595   6.460   2.717   5.027  0.4286  1.4670  0.6828
19702TIP3   OH280596   5.922   2.080  11.679 -0.5080 -1.0231  0.4722
19702TIP3    H180597   6.007   2.071  11.722 -0.5957 -1.7411  0.5171
19702TIP3    H280598   5.913   2.000  11.627 -1.0782 -0.8717  0.3249
19703TIP3   OH280599   1.223   6.718   4.965  0.6264  0.2702  0.5022
19703TIP3    H180600   1.171   6.779   5.017  1.1847 -1.8923  3.9304
19703TIP3    H280601   1.161   6.649   4.941  1.2591 -1.2215  2.7587
19704TIP3   OH280602   1.620   0.590  16.045  0.4074  0.3319 -0.5169
19704TIP3    H180603   1.694   0.650  16.040  1.2558 -0.5305  0.9096
19704TIP3    H280604   1.653   0.516  16.096 -0.8881 -0.9313 -1.4535
19705TIP3   OH280605   5.815   2.808  16.325  0.0877 -0.1026 -0.2353
19705TIP3    H180606   5.826   2.779  16.235  0.1251 -2.6002  0.5027
19705TIP3    H280607   5.812   2.904  16.319  0.2639 -0.1854 -2.8344
19706TIP3   OH280608   1.472   3.220   4.282 -0.2987 -0.1528  0.1858
19706TIP3    H180609   1.504   3.285   4.344 -0.2403 -0.4610  0.4849
19706TIP3    H280610   1.549   3.193   4.233 -0.6294  1.4333 -1.3271
19707TIP3   OH280611   0.810   6.343   3.940  0.3696  0.1400  0.5779
19707TIP3    H180612   0.732   6.398   3.947 -0.1019 -0.2021 -1.4423
19707TIP3    H280613   0.850   6.347   4.027 -2.0109  0.1233  1.7533
19708TIP3   OH280614   4.657   1.522  15.733  0.2517  0.0742 -0.0504
19708TIP3    H180615   4.616   1.576  15.800 -0.1682 -1.8704  1.3457
19708TIP3    H280616   4.654   1.575  15.653 -2.0958  1.2436  0.7438
19709TIP3   OH280617   2.930   6.455  14.805  0.4957 -0.5888 -0.2851
19709TIP3    H180618   2.932   6.427  14.897 -0.9530  0.5131  0.1306
19709TIP3    H280619   2.837   6.451  14.782  0.6676  0.5775 -1.2333
19710TIP3   OH280620   6.025   2.882   6.521  0.0381  0.0797 -0.2220
19710TIP3    H180621   6.028   2.964   6.572 -0.0189 -0.3179  0.4393
19710TIP3    H280622   6.099   2.888   6.461 -2.1770  2.3850 -2.9946
19711TIP3   OH280623   2.151   1.436  13.675 -0.3130  0.4560 -0.3106
19711TIP3    H180624   2.196   1.520  13.688  0.0229  0.4966 -1.6323
19711TIP3    H280625   2.058   1.458  13.683 -0.1805  0.5190  1.6120
19712TIP3   OH280626   5.304   3.152   2.496 -0.0591 -0.3333  0.6327
19712TIP3    H180627   5.247   3.195   2.432  0.8978  0.7940  0.5005
19712TIP3    H280628   5.280   3.060   2.490  1.6106 -0.7048 -3.1330
19713TIP3   OH280629   0.965   1.412   2.656  0.0545 -0.1696  0.2244
19713TIP3    H180630   0.903   1.356   2.609  2.3414 -1.5700 -1.3248
19713TIP3    H280631   0.978   1.487   2.599 -1.2264  0.8604  1.2202
19714TIP3   OH280632   6.463   2.180   3.435  0.8943 -0.0085  0.0443
19714TIP3    H180633   6.376   2.179   3.474  0.9561 -0.1138  0.1823
19714TIP3    H280634   6.472   2.267   3.397  1.2541  0.4843  1.2093
19715TIP3   OH280635   4.404   3.245  16.495  0.4902  0.0784  0.2095
19715TIP3    H180636   4.333   3.255  16.558 -1.3097  1.1367 -1.8483
19715TIP3    H280637   4.474   3.301  16.529 -0.4317  0.6650  1.2211
19716TIP3   OH280638   4.271   1.629   4.541  0.2720  0.1839  0.5059
19716TIP3    H180639   4.219   1.665   4.469  0.2276 -1.5932 -0.4153
19716TIP3    H280640   4.291   1.540   4.513  3.8026  0.7170  0.7782
19717TIP3   OH280641   2.154   5.447   2.515 -0.1384  0.0603 -0.3005
19717TIP3    H180642   2.106   5.446   2.598 -1.7597  1.5775 -1.1623
19717TIP3    H280643   2.244   5.428   2.540 -0.6095  0.3127  1.7865
19718TIP3   OH280644   1.345   5.413   4.178  0.4732  0.2179 -0.2847
19718TIP3    H180645   1.432   5.396   4.140  0.7052 -1.0341  0.7224
19718TIP3    H280646   1.357   5.491   4.231  1.2502 -0.4928  0.6116
19719TIP3   OH280647   1.316   2.955  16.753  0.1549  0.2643  0.0024
19719TIP3    H180648   1.267   2.953  16.670  2.8058 -0.8106 -1.6540
19719TIP3    H280649   1.253   2.990  16.816 -3.0153 -1.7843 -1.7302
19720TIP3   OH280650   1.924   3.914   1.042 -0.0052 -0.0643 -0.0486
19720TIP3    H180651   1.911   3.970   0.966 -1.5432  1.1029  1.0207
19720TIP3    H280652   1.850   3.854   1.041 -1.2395  1.3436  1.6418
19721TIP3   OH280653   0.163   0.458   0.807 -0.0274  0.3554 -0.5164
19721TIP3    H180654   0.095   0.438   0.742  0.3633 -3.4055  0.0500
19721TIP3    H280655   0.115   0.469   0.889 -0.1869  1.0907 -0.6997
19722TIP3   OH280656   4.865   0.014  17.148  0.6343  0.1938 -0.2025
19722TIP3    H180657   4.876  -0.070  17.193  0.4909  1.0546  1.5336
19722TIP3    H280658   4.811  -0.006  17.072  1.4283 -1.4440 -0.3780
19723TIP3   OH280659   2.772   4.247   2.468 -0.3250  0.5736  0.0771
19723TIP3    H180660   2.830   4.306   2.420 -0.7246  1.1637  0.3003
19723TIP3    H280661   2.829   4.203   2.531 -0.0437  0.8162 -0.0045
19724TIP3   OH280662   4.658   0.820   2.428 -0.2353  0.2883 -0.3441
19724TIP3    H180663   4.660   0.860   2.515 -0.8669  0.4155 -0.3786
19724TIP3    H280664   4.583   0.760   2.432  0.8391 -1.0954 -0.2087
19725TIP3   OH280665   0.061   4.729   6.123 -0.4920 -0.3915 -0.3754
19725TIP3    H180666  -0.011   4.666   6.122 -0.9695  0.1510 -1.7354
19725TIP3    H280667   0.043   4.785   6.199 -0.4741 -1.3989  0.3906
19726TIP3   OH280668   3.755   0.940  14.990  0.6571 -0.5894  0.0333
19726TIP3    H180669   3.806   0.985  15.058 -0.3332  0.3830  0.1561
19726TIP3    H280670   3.738   1.007  14.924 -1.9555 -0.3533  0.8300
19727TIP3   OH280671   1.714   0.299   4.857  0.4018 -0.3125 -0.4179
19727TIP3    H180672   1.786   0.242   4.831  1.2389  1.3743 -2.0674
19727TIP3    H280673   1.712   0.367   4.789 -2.7232 -0.2634 -0.4309
19728TIP3   OH280674   6.562   2.384   3.854 -0.3202  0.0428  0.5591
19728TIP3    H180675   6.586   2.297   3.821  2.3491  1.1340 -0.6734
19728TIP3    H280676   6.620   2.397   3.930  0.4260  1.2887 -0.1882
19729TIP3   OH280677   1.592   1.280   2.208 -0.2036  0.3383 -0.5070
19729TIP3    H180678   1.559   1.356   2.255  0.2521  1.0049 -1.2334
19729TIP3    H280679   1.573   1.299   2.116  2.5065  0.9708 -1.0327
19730TIP3   OH280680   0.481   5.362   4.020 -0.1686 -0.3836 -0.7049
19730TIP3    H180681   0.525   5.291   3.972  1.0323  0.3214 -0.6821
19730TIP3    H280682   0.427   5.405   3.953  1.3153  0.4486 -1.4225
19731TIP3   OH280683   0.861   2.103   6.759 -0.3059  0.5316 -0.0351
19731TIP3    H180684   0.843   2.144   6.674  0.4190  0.3043 -0.3079
19731TIP3    H280685   0.780   2.112   6.808 -1.0695 -0.2344 -1.1143
19732TIP3   OH280686   2.094   3.221   0.400 -0.5456 -0.3205  0.5392
19732TIP3    H180687   2.174   3.264   0.428  1.3297 -0.9692 -3.1205
19732TIP3    H280688   2.024   3.265   0.448  1.8515  1.0822  3.0190
19733TIP3   OH280689   0.407   3.859  11.806 -0.0109  0.0005  0.1956
19733TIP3    H180690   0.466   3.788  11.781  0.0718 -0.0157  0.4338
19733TIP3    H280691   0.344   3.865  11.734 -0.2890 -0.6081  0.3804
19734TIP3   OH280692   5.673   2.229   4.917 -0.1298 -0.6476  0.3685
19734TIP3    H180693   5.589   2.183   4.922 -1.4049  1.4407 -0.5070
19734TIP3    H280694   5.715   2.192   4.840 -1.7923  0.5658 -1.2168
19735TIP3   OH280695   1.308   3.111   1.179 -0.9091 -0.5860  0.1814
19735TIP3    H180696   1.404   3.109   1.180 -0.7647  2.1353  1.4384
19735TIP3    H280697   1.285   3.156   1.098 -1.0049  0.2699  0.6679
19736TIP3   OH280698   5.823   0.998  16.635 -0.1429 -0.0789 -0.2692
19736TIP3    H180699   5.733   1.029  16.648 -0.3519 -0.5806 -0.4637
19736TIP3    H280700   5.878   1.071  16.662 -0.6163  0.7636 -1.4914
19737TIP3   OH280701   1.103   4.743  11.117 -0.2428 -0.0772 -0.1175
19737TIP3    H180702   1.146   4.764  11.199  0.5409 -2.8150  0.2879
19737TIP3    H280703   1.140   4.805  11.054  0.3764  1.0057  1.2639
19738TIP3   OH280704   1.919   5.984  14.122  0.3287  0.3025  0.4551
19738TIP3    H180705   2.003   5.973  14.167  0.9723  0.4961 -0.6743
19738TIP3    H280706   1.928   5.935  14.041 -0.7298  0.1639  0.4026
19739TIP3   OH280707   0.564   4.210  16.566 -0.2520 -0.4432 -0.1841
19739TIP3    H180708   0.625   4.282  16.546  0.6407 -0.8903  0.8068
19739TIP3    H280709   0.619   4.143  16.606 -1.5049 -0.6157  1.3339
19740TIP3   OH280710   2.134   3.028  15.095  0.6319  0.3019 -0.2387
19740TIP3    H180711   2.046   3.023  15.133 -0.1183  0.7412 -1.8527
19740TIP3    H280712   2.192   3.031  15.171 -0.7403  0.1235  0.8676
19741TIP3   OH280713   2.333   1.620   3.022 -0.0989  0.2912 -0.3965
19741TIP3    H180714   2.377   1.639   3.106  0.4319  0.7994 -0.7781
19741TIP3    H280715   2.403   1.591   2.964 -0.4776 -0.1297 -0.6518
19742TIP3   OH280716   0.180   0.245  13.840  0.1955  0.4670 -0.7269
19742TIP3    H180717   0.169   0.340  13.832 -1.6709  0.3191 -0.3421
19742TIP3    H280718   0.175   0.212  13.750  1.2104  0.7426 -0.8976
19743TIP3   OH280719   5.213   6.666  16.725 -0.2551  0.2082 -0.8297
19743TIP3    H180720   5.122   6.667  16.755 -0.8976 -3.1905 -2.2026
19743TIP3    H280721   5.211   6.615  16.644  2.6502  1.6451 -1.9591
19744TIP3   OH280722   1.823   5.168  16.735  0.4554  0.2911  0.2961
19744TIP3    H180723   1.783   5.200  16.816 -1.8901 -2.3476  0.3398
19744TIP3    H280724   1.901   5.122  16.764  1.5403  2.1983  0.6200
19745TIP3   OH280725   5.433   4.412  15.127  0.2154  0.2058  0.3433
19745TIP3    H180726   5.368   4.478  15.152  0.6541  0.6535  0.3284
19745TIP3    H280727   5.513   4.463  15.110  0.5564 -0.3322  0.3213
19746TIP3   OH280728   6.572   4.605  16.034  0.0764 -0.0948  0.3254
19746TIP3    H180729   6.583   4.521  15.988  2.3774 -0.1497  0.8528
19746TIP3    H280730   6.573   4.671  15.964 -2.8761 -0.5015 -0.1968
19747TIP3   OH280731   5.491   0.545   4.022  0.4851 -0.1623  0.3731
19747TIP3    H180732   5.422   0.583   4.075  1.9525  0.9899  1.5210
19747TIP3    H280733   5.496   0.454   4.051  0.5393  0.1718  1.4241
19748TIP3   OH280734   6.188   6.549  11.460  0.5362  0.7769 -0.1929
19748TIP3    H180735   6.263   6.490  11.462  0.7818  1.0865 -0.1183
19748TIP3    H280736   6.210   6.613  11.392  1.1242  1.8778  0.9795
19749TIP3   OH280737   1.021   5.015   4.545 -0.6741 -0.4294  0.1684
19749TIP3    H180738   1.079   5.079   4.503 -2.1003  0.5331 -0.4275
19749TIP3    H280739   1.050   5.013   4.636  0.6242 -0.3862 -0.2217
19750TIP3   OH280740   1.704   5.992   3.309 -0.3181 -0.1206  0.1642
19750TIP3    H180741   1.617   6.027   3.289  0.7636  1.1767 -3.0080
19750TIP3    H280742   1.753   6.067   3.344  0.0342 -0.3289  0.1279
19751TIP3   OH280743   0.949   4.884  12.094  0.1604 -0.2086  0.0303
19751TIP3    H180744   0.902   4.955  12.051 -0.4694 -1.2294 -1.0378
19751TIP3    H280745   0.881   4.819  12.113  0.5493 -0.1011  1.9314
19752TIP3   OH280746   1.741   2.307  14.208  0.1616  0.5708 -0.0424
19752TIP3    H180747   1.785   2.231  14.170  0.8221  1.0744 -0.2920
19752TIP3    H280748   1.703   2.352  14.133  0.1153  0.7093  0.0658
19753TIP3   OH280749   0.124   4.881  13.472 -0.2499  0.1214  0.6781
19753TIP3    H180750   0.101   4.788  13.470 -3.8859  0.8077  2.3712
19753TIP3    H280751   0.141   4.899  13.564  2.1396  0.8857  0.1521
19754TIP3   OH280752   6.016   0.807  13.490  0.2883  0.0064  0.8248
19754TIP3    H180753   6.029   0.728  13.437  0.9811  1.0298 -0.6188
19754TIP3    H280754   6.023   0.879  13.427  0.5355  1.2691  2.2322
19755TIP3   OH280755   0.667   4.727   6.647  0.4801  0.5448 -0.2031
19755TIP3    H180756   0.572   4.715   6.649  0.4711  0.7005  0.8765
19755TIP3    H280757   0.699   4.654   6.594 -0.3126  1.0639 -1.4151
19756TIP3   OH280758   2.147   3.880  13.838 -0.1589 -0.7247  0.2105
19756TIP3    H180759   2.213   3.899  13.771 -0.4972 -0.8809 -0.1723
19756TIP3    H280760   2.187   3.909  13.920 -0.1427  0.4387 -0.1868
19757TIP3   OH280761   2.881   4.244  10.531  0.3352 -0.4666 -0.1620
19757TIP3    H180762   2.845   4.226  10.445  1.1410 -1.9224 -0.2180
19757TIP3    H280763   2.958   4.188  10.538  1.4174  1.0497  0.7544
19758TIP3   OH280764   2.907   5.322   0.589 -0.1347  0.1221  0.0535
19758TIP3    H180765   2.867   5.280   0.513 -0.3031  0.4379 -0.0364
19758TIP3    H280766   3.000   5.301   0.582 -0.1318  0.2498 -0.3064
19759TIP3   OH280767   4.909   1.376   3.684 -0.1071  0.1063  0.2357
19759TIP3    H180768   4.976   1.425   3.635 -1.3286 -0.8584 -2.5880
19759TIP3    H280769   4.872   1.316   3.620 -2.0447 -1.0871  2.3494
19760TIP3   OH280770   0.703   6.153   4.576  0.0928 -0.2202 -0.0541
19760TIP3    H180771   0.766   6.177   4.508  0.6260 -0.8591  0.1992
19760TIP3    H280772   0.635   6.105   4.529 -0.6350  1.1752 -0.4538
19761TIP3   OH280773   3.882   4.189   3.312  0.1340 -0.0463  0.1082
19761TIP3    H180774   3.854   4.227   3.229 -1.0241 -1.3443 -0.1393
19761TIP3    H280775   3.808   4.135   3.339  0.9422 -0.5420  1.4234
19762TIP3   OH280776   3.766   6.389  15.780 -0.0523  0.4445  0.2023
19762TIP3    H180777   3.837   6.334  15.813 -0.7208 -0.0126  0.9150
19762TIP3    H280778   3.785   6.476  15.816  1.8346  1.1174 -2.1356
19763TIP3   OH280779   5.937   2.174   4.294 -0.3076  0.2949 -0.2376
19763TIP3    H180780   5.901   2.236   4.357 -0.3614 -0.3012  0.3287
19763TIP3    H280781   6.025   2.206   4.277 -0.8469  1.3814 -1.1167
19764TIP3   OH280782   3.485   5.065   1.864 -0.2545  0.2238  0.1734
19764TIP3    H180783   3.470   5.039   1.773 -0.4788 -0.6561  0.4483
19764TIP3    H280784   3.413   5.125   1.884 -0.7923 -0.3719  0.0701
19765TIP3   OH280785   5.849   4.895   0.062  0.4578 -0.5806 -0.0612
19765TIP3    H180786   5.885   4.808   0.080  2.1113 -0.4868 -2.4337
19765TIP3    H280787   5.902   4.955   0.115  0.9178 -0.8281 -0.2348
19766TIP3   OH280788   6.076   0.041  16.279  0.1916  0.0817 -0.0657
19766TIP3    H180789   6.085  -0.043  16.324 -0.5286 -0.5572 -1.0595
19766TIP3    H280790   6.071   0.105  16.350 -1.4333 -0.9351  0.8259
19767TIP3   OH280791   2.928   1.306   1.089  0.1254  0.3040  0.0903
19767TIP3    H180792   2.931   1.297   1.184 -1.6892 -1.3693  0.0508
19767TIP3    H280793   2.836   1.294   1.066  0.7104 -0.7975 -1.9949
19768TIP3   OH280794   2.595   1.379   4.728 -0.0340 -0.3328 -0.4806
19768TIP3    H180795   2.546   1.431   4.663  0.6798  1.0880  0.0828
19768TIP3    H280796   2.531   1.363   4.798 -0.1445  0.2023 -0.4501
19769TIP3   OH280797   3.277   1.335  16.390 -0.3906 -0.1800  0.3337
19769TIP3    H180798   3.260   1.248  16.425 -0.4605 -0.5480 -0.5658
19769TIP3    H280799   3.366   1.330  16.356  0.8316  1.0865  3.0856
19770TIP3   OH280800   6.349   1.918  12.926 -0.3108 -1.2234  0.1777
19770TIP3    H180801   6.404   1.995  12.941 -1.2347 -0.4194 -0.4222
19770TIP3    H280802   6.262   1.954  12.906 -1.0053 -2.4453  0.8439
19771TIP3   OH280803   3.521   5.151  13.733 -0.2111  0.5521 -0.3538
19771TIP3    H180804   3.514   5.246  13.743  0.9923  0.5238  1.2065
19771TIP3    H280805   3.526   5.118  13.822 -0.0741 -0.9404 -0.8853
19772TIP3   OH280806   6.635   2.255  14.339  0.0184 -0.6673 -0.4324
19772TIP3    H180807   6.560   2.267  14.398 -0.1757 -1.8155 -0.4299
19772TIP3    H280808   6.681   2.339  14.342 -0.7190 -0.2727  0.3283
19773TIP3   OH280809   4.395   0.693   2.467  0.1772  0.5887  0.1087
19773TIP3    H180810   4.380   0.760   2.533 -0.5620  0.0721  0.4739
19773TIP3    H280811   4.311   0.682   2.423  0.3814  0.1533 -0.1881
19774TIP3   OH280812   6.047   0.050  16.667 -0.5828  0.5188 -0.3004
19774TIP3    H180813   6.025   0.071  16.758  0.2903 -2.8401  0.8451
19774TIP3    H280814   6.006  -0.035  16.651  2.2494 -0.7319 -1.7383
19775TIP3   OH280815   6.616   2.011   5.843  0.2570 -0.3034 -0.1383
19775TIP3    H180816   6.694   2.010   5.898  0.1195 -0.1372  0.0632
19775TIP3    H280817   6.562   2.082   5.879  0.8558  0.8770 -1.4627
19776TIP3   OH280818   6.649   0.215   0.027 -0.2166  0.4162 -0.3008
19776TIP3    H180819   6.735   0.238   0.061 -0.8243 -0.0438  1.6759
19776TIP3    H280820   6.667   0.175  -0.058  1.3216  2.2813 -0.9292
19777TIP3   OH280821   4.459   2.946   0.732 -0.0937  0.2321  0.0602
19777TIP3    H180822   4.516   2.907   0.666 -0.6430 -0.2943 -0.1134
19777TIP3    H280823   4.370   2.922   0.704 -0.2566 -2.0215  2.2390
19778TIP3   OH280824   6.122   2.270  13.434 -0.0992  0.0504  0.1388
19778TIP3    H180825   6.101   2.332  13.504  0.1947  0.2293  0.0694
19778TIP3    H280826   6.039   2.225  13.416  0.0289 -0.6539  1.2414
19779TIP3   OH280827   1.373   2.384  11.333 -0.2529 -0.0308  0.7539
19779TIP3    H180828   1.298   2.365  11.277 -1.2255 -1.0125  2.2987
19779TIP3    H280829   1.441   2.416  11.273 -1.3221 -0.7405 -0.9092
19780TIP3   OH280830   3.020   3.784   0.108 -0.8181  0.1868  0.0286
19780TIP3    H180831   2.930   3.755   0.093 -0.7446  0.0211 -0.0939
19780TIP3    H280832   3.074   3.723   0.057 -0.6181  0.0953  0.3424
19781TIP3   OH280833   3.824   2.068  17.061  0.1745  0.2148 -0.5353
19781TIP3    H180834   3.768   1.992  17.079  1.0581  0.0223  1.6962
19781TIP3    H280835   3.907   2.031  17.033  0.1623  0.4154 -0.8432
19782TIP3   OH280836   5.776   2.280   0.052 -0.1209 -0.1423 -0.0843
19782TIP3    H180837   5.777   2.370   0.085  2.3259 -0.1926  0.1793
19782TIP3    H280838   5.796   2.290  -0.042  1.5244 -0.4292  0.2043
19783TIP3   OH280839   3.841   5.680  14.301 -0.0442 -0.1771  0.7361
19783TIP3    H180840   3.795   5.743  14.356  0.6511 -0.5545  1.7761
19783TIP3    H280841   3.773   5.645  14.243 -0.5203  1.2043  0.4226
19784TIP3   OH280842   6.039   6.749  11.823 -0.0562  0.2065 -0.0881
19784TIP3    H180843   6.041   6.791  11.737 -3.2919  0.0877 -0.3494
19784TIP3    H280844   6.069   6.660  11.806 -0.6325  0.1846 -1.1039
19785TIP3   OH280845   5.928   1.615   2.934 -0.3496 -0.1001  0.3143
19785TIP3    H180846   5.836   1.599   2.912 -0.4577  1.7315 -0.8207
19785TIP3    H280847   5.925   1.685   3.000  0.2165  1.2322 -1.0034
19786TIP3   OH280848   0.913   1.718   0.770 -0.0600  0.5504  0.0461
19786TIP3    H180849   0.817   1.709   0.777 -0.2892  2.4281 -0.3577
19786TIP3    H280850   0.932   1.693   0.680 -0.1538  0.2058  0.1170
19787TIP3   OH280851   1.112   6.725   3.966  0.0072 -0.7012  0.1361
19787TIP3    H180852   1.044   6.698   3.905  0.6230 -0.0039 -0.8962
19787TIP3    H280853   1.072   6.795   4.018 -0.3504 -0.9330  0.1753
19788TIP3   OH280854   6.581   1.107  14.425  0.3566 -0.3156  0.7835
19788TIP3    H180855   6.490   1.114  14.456  0.7202 -0.0372  1.8102
19788TIP3    H280856   6.573   1.110  14.329 -0.6007  1.3265  0.8754
19789TIP3   OH280857   2.652   0.687  14.464 -0.2003  0.1428  0.2441
19789TIP3    H180858   2.617   0.692  14.553 -0.9378  0.1749 -0.0463
19789TIP3    H280859   2.576   0.691  14.407  0.3191  0.9470 -0.4253
19790TIP3   OH280860   5.017   1.765  15.196  0.5545  0.1443  0.3185
19790TIP3    H180861   5.112   1.761  15.202  0.4923 -0.9946  0.7021
19790TIP3    H280862   4.992   1.688  15.145 -0.2549 -0.5273  1.6446
19791TIP3   OH280863   4.625   1.426  10.794  0.2963 -0.5920 -0.1752
19791TIP3    H180864   4.552   1.464  10.842 -0.9435 -0.9051 -1.7072
19791TIP3    H280865   4.665   1.500  10.748  0.0045 -0.6345 -0.5000
19792TIP3   OH280866   6.261   0.487  11.566  0.7245  0.0965  0.0062
19792TIP3    H180867   6.292   0.433  11.638  2.4910 -1.2092 -1.6185
19792TIP3    H280868   6.244   0.572  11.605  2.1760 -0.4020  1.8562
19793TIP3   OH280869   0.646   1.621   0.720  0.5164  0.2102 -0.0135
19793TIP3    H180870   0.686   1.534   0.724 -2.7658 -1.4866 -0.1463
19793TIP3    H280871   0.666   1.652   0.631 -0.0822 -1.4386 -0.7650
19794TIP3   OH280872   1.730   6.460   0.436 -0.6973  0.0431  0.7863
19794TIP3    H180873   1.692   6.376   0.409  0.1665  0.0067 -0.3893
19794TIP3    H280874   1.736   6.511   0.355 -0.5135  0.9622  1.3617
19795TIP3   OH280875   3.495   2.354   2.616 -0.6294 -0.3166  0.7655
19795TIP3    H180876   3.545   2.422   2.662 -1.2487 -0.2497  1.3546
19795TIP3    H280877   3.531   2.272   2.648  0.2779 -0.2774 -0.1200
19796TIP3   OH280878   6.724   4.363  13.837  0.4672 -0.6636 -0.0670
19796TIP3    H180879   6.794   4.374  13.902  0.4307 -1.6181  0.1415
19796TIP3    H280880   6.756   4.293  13.780 -0.0729 -0.7080 -0.3153
19797TIP3   OH280881   5.217   5.541   2.659  0.0541 -0.1153  0.1136
19797TIP3    H180882   5.309   5.516   2.648 -0.3052 -1.4661  0.0425
19797TIP3    H280883   5.208   5.621   2.607  0.8958 -0.6661 -0.9406
19798TIP3   OH280884   3.480   0.568   5.689 -0.4521  0.1909 -0.6464
19798TIP3    H180885   3.413   0.578   5.621  1.2140 -0.5406 -2.4830
19798TIP3    H280886   3.559   0.543   5.641  0.3004 -2.4991  1.7708
19799TIP3   OH280887   3.449   3.887  11.178  0.1962 -0.4630 -0.6888
19799TIP3    H180888   3.392   3.964  11.175  1.2044  0.2590 -2.3240
19799TIP3    H280889   3.407   3.824  11.121 -0.6117 -1.1596  0.6258
19800TIP3   OH280890   6.130   6.169   2.587 -0.1161  0.1142  0.3290
19800TIP3    H180891   6.183   6.189   2.665  2.4576 -1.2384 -0.9488
19800TIP3    H280892   6.184   6.199   2.514 -0.7498 -2.0481 -1.0999
19801TIP3   OH280893   0.325   3.924   4.828  0.2572 -0.6870  0.3848
19801TIP3    H180894   0.377   3.974   4.891  0.5162 -0.5380  0.0595
19801TIP3    H280895   0.389   3.872   4.780  0.2038  0.0340 -0.5040
19802TIP3   OH280896   1.049   2.869   3.157  0.2991  0.5995 -0.0361
19802TIP3    H180897   1.029   2.776   3.167  0.6858  0.6944  2.0497
19802TIP3    H280898   0.992   2.913   3.220  0.9271  1.6666 -0.1895
19803TIP3   OH280899   3.533   4.693   4.701 -0.4510  0.1878 -0.2579
19803TIP3    H180900   3.497   4.777   4.729 -2.4222 -1.1739  1.6447
19803TIP3    H280901   3.588   4.714   4.626 -1.2300  3.0914 -0.1319
19804TIP3   OH280902   1.360   1.822  10.884 -0.0530 -0.1172 -0.2606
19804TIP3    H180903   1.444   1.777  10.874 -0.9127 -1.8394 -0.0080
19804TIP3    H280904   1.296   1.752  10.892 -1.2429  1.1272  2.1561
19805TIP3   OH280905   2.829   3.292   7.003  0.1248  0.2704  0.6038
19805TIP3    H180906   2.902   3.321   6.949  0.0133 -0.4171  0.0767
19805TIP3    H280907   2.763   3.361   6.991 -1.4654 -1.6489 -3.3224
19806TIP3   OH280908   5.424   0.498   5.668 -0.0275 -0.0590  0.1006
19806TIP3    H180909   5.368   0.448   5.608 -0.7045 -0.2798  0.9070
19806TIP3    H280910   5.471   0.559   5.611 -1.7341  0.7510 -0.5101
19807TIP3   OH280911   1.028   0.620   3.018  0.1344  0.2423 -0.3512
19807TIP3    H180912   1.118   0.633   3.045  0.0997 -0.9407  0.3959
19807TIP3    H280913   1.007   0.698   2.966  1.3396  0.8676  0.0672
19808TIP3   OH280914   5.812   5.519  16.428 -0.1079 -0.2359 -0.0969
19808TIP3    H180915   5.874   5.525  16.501 -1.1516  1.1230  0.7065
19808TIP3    H280916   5.726   5.515  16.470 -0.9110  2.8294 -1.2054
19809TIP3   OH280917   0.238   1.061   2.721 -0.3150 -0.4209  0.1447
19809TIP3    H180918   0.193   1.056   2.637 -2.1729 -2.4764  1.1561
19809TIP3    H280919   0.178   1.110   2.777 -0.6813 -1.8877  1.1054
19810TIP3   OH280920   5.829   6.221  10.616  0.5813  0.0619 -0.5229
19810TIP3    H180921   5.909   6.173  10.595 -0.4475 -2.3964  0.7809
19810TIP3    H280922   5.758   6.159  10.600 -0.8819  1.2508  0.8951
19811TIP3   OH280923   4.833   5.978  11.255 -0.2494 -0.1190  0.4162
19811TIP3    H180924   4.854   5.990  11.163 -1.7257  1.3617  0.2191
19811TIP3    H280925   4.772   5.904  11.257 -1.8870  1.1323 -0.1261
19812TIP3   OH280926   4.513   1.535   4.700  0.7606  0.2151  0.2408
19812TIP3    H180927   4.538   1.609   4.755  0.4451  0.4842  0.0233
19812TIP3    H280928   4.423   1.553   4.674  1.8048  1.6601 -2.8551
19813TIP3   OH280929   5.551   5.626  14.008  0.2206  0.1004  0.5073
19813TIP3    H180930   5.591   5.552  13.963  0.4524  1.1213 -1.0054
19813TIP3    H280931   5.621   5.661  14.063  1.0117  0.9844 -1.0161
19814TIP3   OH280932   4.131   2.699   6.565 -0.1288  0.1651 -0.5786
19814TIP3    H180933   4.110   2.699   6.472 -1.4060  3.0088 -0.4127
19814TIP3    H280934   4.080   2.772   6.601  2.0708  0.6392  1.9242
19815TIP3   OH280935   0.079   0.261   4.572 -0.2398 -0.0178 -0.0192
19815TIP3    H180936   0.071   0.166   4.569  1.6568 -0.2262  0.1338
19815TIP3    H280937   0.039   0.287   4.654  0.8278 -0.9144  0.8163
19816TIP3   OH280938   2.542   6.342   3.816 -0.0761  0.1175  0.0239
19816TIP3    H180939   2.536   6.247   3.810  2.5335 -0.2903  2.1515
19816TIP3    H280940   2.590   6.368   3.737  1.2097 -0.6484  0.5215
19817TIP3   OH280941   2.825   6.052   3.119 -0.1536 -0.6121 -0.1777
19817TIP3    H180942   2.741   6.084   3.085 -3.3336 -4.4957  2.9489
19817TIP3    H280943   2.829   6.085   3.208  1.7323 -0.4749 -0.2846
19818TIP3   OH280944   3.748   3.946   1.199 -0.0044 -1.2395 -0.6105
19818TIP3    H180945   3.820   3.961   1.260  0.6836 -0.0732 -1.6962
19818TIP3    H280946   3.728   3.853   1.209 -0.1747 -1.0244  1.6675
19819TIP3   OH280947   5.051   0.400   0.218  0.0818  0.1236 -0.1865
19819TIP3    H180948   5.008   0.475   0.258 -1.9352 -1.4409  0.7730
19819TIP3    H280949   4.981   0.336   0.206  1.5401 -1.2669 -1.8607
19820TIP3   OH280950   1.656   1.940   3.256  0.1854 -0.2042  0.2351
19820TIP3    H180951   1.706   1.864   3.287 -0.7542 -1.5509 -1.3887
19820TIP3    H280952   1.695   1.962   3.172 -1.4906 -0.8965 -0.7743
19821TIP3   OH280953   4.513   2.925  11.510 -0.1975 -0.3664 -0.0826
19821TIP3    H180954   4.442   2.960  11.456  1.3344  1.5402 -0.9945
19821TIP3    H280955   4.550   2.855  11.457 -0.1246  0.0037 -0.5321
19822TIP3   OH280956   4.522   2.972  13.985  0.3738  0.1465  0.2358
19822TIP3    H180957   4.591   2.935  14.039  0.3022  0.2092  0.3726
19822TIP3    H280958   4.568   3.020  13.916  0.4741  0.7958  0.7389
19823TIP3   OH280959   6.717   5.509  14.625  0.6897  0.4644  0.0889
19823TIP3    H180960   6.630   5.469  14.636 -1.0371  3.8761  0.3117
19823TIP3    H280961   6.731   5.511  14.530  0.1817  0.4838  0.0104
19824TIP3   OH280962   4.260   3.790   2.835  0.1354 -0.0507  0.2942
19824TIP3    H180963   4.227   3.838   2.911 -2.8372  1.1226 -1.5938
19824TIP3    H280964   4.330   3.846   2.800 -0.8561  1.1680  0.1966
19825TIP3   OH280965   5.960   2.447   0.994 -0.4012  0.4035  0.3817
19825TIP3    H180966   5.975   2.527   1.045  0.8271 -0.4139  1.3574
19825TIP3    H280967   5.967   2.376   1.058  2.3233 -0.7512 -1.0572
19826TIP3   OH280968   5.398   5.481   4.213  0.8262 -0.0579  0.2237
19826TIP3    H180969   5.433   5.500   4.300  1.7012  2.0206 -0.5162
19826TIP3    H280970   5.463   5.424   4.173  1.6233  0.9002  0.1181
19827TIP3   OH280971   4.331   2.937  15.714  0.2719 -0.3905  0.2433
19827TIP3    H180972   4.323   2.843  15.728 -0.2080 -0.4937 -0.6856
19827TIP3    H280973   4.392   2.946  15.642 -0.5095 -0.0369 -0.3877
19828TIP3   OH280974   0.940   1.679   4.269  0.1224  0.1939  0.6719
19828TIP3    H180975   0.849   1.668   4.297 -0.6919  1.9379 -1.0732
19828TIP3    H280976   0.950   1.773   4.256  1.4526 -0.1624 -1.4161
19829TIP3   OH280977   1.726   0.419   0.335 -0.1890 -0.4852  0.0630
19829TIP3    H180978   1.709   0.350   0.270  1.6198 -0.9776  0.0438
19829TIP3    H280979   1.780   0.375   0.401  2.6404  1.2873 -0.8827
19830TIP3   OH280980   0.084   2.334  13.546  0.3038  0.1553 -0.3053
19830TIP3    H180981   0.014   2.312  13.607  0.0913 -2.7877 -1.4495
19830TIP3    H280982   0.043   2.331  13.460  1.1612  1.6591 -0.7960
19831TIP3   OH280983   1.426   0.589  14.844  0.1835  0.1288  0.1998
19831TIP3    H180984   1.390   0.675  14.863 -0.4781 -0.1583  0.2597
19831TIP3    H280985   1.467   0.562  14.926 -1.9432 -0.7493  1.0547
19832TIP3   OH280986   0.895   3.056   3.277 -0.2162 -0.1684 -0.2461
19832TIP3    H180987   0.923   3.147   3.285 -1.2600  0.0865  0.9560
19832TIP3    H280988   0.839   3.054   3.200 -0.5983  0.3334  0.0143
19833TIP3   OH280989   3.172   0.125   3.965 -0.5334 -0.0961 -0.2247
19833TIP3    H180990   3.251   0.175   3.943 -1.1751  0.2945 -1.8139
19833TIP3    H280991   3.144   0.160   4.049  1.7337 -1.2143  1.0944
19834TIP3   OH280992   0.443   1.487   1.572  0.1456  0.2775  0.4898
19834TIP3    H180993   0.398   1.552   1.626  0.6569  0.6247  0.5137
19834TIP3    H280994   0.412   1.503   1.483  0.2992  0.5898  0.4891
19835TIP3   OH280995   4.117   1.711   2.601  0.3108 -0.2709 -0.0004
19835TIP3    H180996   4.091   1.773   2.670 -0.0725 -0.8193  0.3534
19835TIP3    H280997   4.104   1.760   2.520  1.8738  0.7942  0.3388
19836TIP3   OH280998   4.929   5.638  10.709 -0.3903  0.1651 -0.2767
19836TIP3    H180999   4.976   5.561  10.679 -0.7894 -0.6104  1.0339
19836TIP3    H281000   4.837   5.613  10.708 -0.4297  0.0974  1.5229
19837TIP3   OH281001   6.080   5.805  12.679  0.3346 -0.1641 -0.1069
19837TIP3    H181002   6.111   5.774  12.594 -1.5332  0.0320 -0.9098
19837TIP3    H281003   5.991   5.838  12.662  0.6593  1.7690  1.5135
19838TIP3   OH281004   2.253   0.917   3.337 -0.1663 -0.6212 -0.4863
19838TIP3    H181005   2.318   0.851   3.310  0.2796 -0.1858 -0.4815
19838TIP3    H281006   2.287   0.952   3.419  0.0294  0.2122 -0.9182
19839TIP3   OH281007   2.659   6.703  10.425  0.8885  0.2683  0.5669
19839TIP3    H181008   2.740   6.745  10.397  1.9418 -1.7610  0.3932
19839TIP3    H281009   2.686   6.639  10.490 -0.3751 -1.4525 -0.5168
19840TIP3   OH281010   0.994   0.397   1.229 -0.3311 -0.0273 -0.2373
19840TIP3    H181011   0.912   0.379   1.275 -1.1862  0.3867 -1.5295
19840TIP3    H281012   1.042   0.315   1.233 -1.2392 -0.5839 -0.2823
19841TIP3   OH281013   3.687   4.717  12.918 -0.3758  0.2865 -0.4626
19841TIP3    H181014   3.597   4.748  12.911 -0.2101  0.6322 -1.0714
19841TIP3    H281015   3.734   4.761  12.848  0.4255  0.6558  0.2851
19842TIP3   OH281016   0.124   2.440   0.670 -0.0524 -0.3181 -0.0776
19842TIP3    H181017   0.205   2.488   0.691  0.7563 -1.1973 -1.0612
19842TIP3    H281018   0.147   2.388   0.593 -1.9481  0.3984 -1.1906
19843TIP3   OH281019   3.548   2.284   6.004 -0.7083 -0.5361  0.9133
19843TIP3    H181020   3.566   2.199   5.964  1.8832 -0.2829  1.3420
19843TIP3    H281021   3.476   2.320   5.952 -0.6197 -2.1919 -0.4552
19844TIP3   OH281022   3.408   2.296   4.939  0.2898 -0.4386  0.4820
19844TIP3    H181023   3.496   2.285   4.904  0.6043 -0.2742  1.2046
19844TIP3    H281024   3.418   2.286   5.034 -0.9020 -3.1555  0.4102
19845TIP3   OH281025   2.698   5.584   3.047  0.0463 -0.7827 -0.0543
19845TIP3    H181026   2.698   5.522   3.120 -0.6653 -0.3419  0.3265
19845TIP3    H281027   2.640   5.654   3.075  1.4843  0.4898 -0.1281
19846TIP3   OH281028   2.862   0.565   4.326  0.0870 -0.3281  0.0270
19846TIP3    H181029   2.935   0.510   4.298 -0.7496 -0.9907 -0.9013
19846TIP3    H281030   2.815   0.585   4.245 -1.0522 -0.3502  0.6700
19847TIP3   OH281031   3.186   0.332  12.906 -0.1306  0.0592 -0.0316
19847TIP3    H181032   3.278   0.347  12.927 -0.0261 -0.1406 -0.3294
19847TIP3    H281033   3.162   0.254  12.957 -0.3352  0.5224  0.5876
19848TIP3   OH281034   5.640   1.628   2.272  0.3104 -0.4491  0.1851
19848TIP3    H181035   5.701   1.700   2.288 -0.9990  0.8205 -0.2757
19848TIP3    H281036   5.695   1.553   2.253  1.7230  0.5113  0.3455
19849TIP3   OH281037   4.860   6.482   0.513  0.6488  0.1443 -0.4074
19849TIP3    H181038   4.840   6.391   0.492 -1.1171  0.9112 -2.3883
19849TIP3    H281039   4.778   6.517   0.549  0.7361  1.4057 -1.3734
19850TIP3   OH281040   6.055   4.289   4.853 -0.0408  0.5677  0.7188
19850TIP3    H181041   6.110   4.324   4.782  0.3711 -0.0623  0.7137
19850TIP3    H281042   6.021   4.367   4.898 -0.2627  0.9756 -0.1296
19851TIP3   OH281043   1.307   6.025   0.079  0.3601 -0.6789 -0.1378
19851TIP3    H181044   1.305   5.961   0.007  0.8703  0.6876 -1.4041
19851TIP3    H281045   1.382   6.080   0.059 -0.1985  0.4471  0.8199
19852TIP3   OH281046   5.445   2.496  11.757  0.8284 -0.4672  0.1040
19852TIP3    H181047   5.353   2.515  11.738  0.3521 -0.8954  1.8357
19852TIP3    H281048   5.453   2.401  11.746  1.1191 -0.4051 -0.2403
19853TIP3   OH281049   2.059   6.532   0.820 -0.5006 -0.2813 -0.2283
19853TIP3    H181050   2.054   6.576   0.905 -0.2552 -1.3043  0.3286
19853TIP3    H281051   2.153   6.530   0.800 -0.5278 -0.3653 -0.3465
19854TIP3   OH281052   2.648   6.024  14.251  0.8310  0.1074 -0.4431
19854TIP3    H181053   2.695   6.100  14.286 -0.0266 -0.0599  1.1907
19854TIP3    H281054   2.692   5.948  14.289  0.2814 -0.1148 -0.2315
19855TIP3   OH281055   1.399   4.029  16.735 -0.0334 -0.1472  0.1226
19855TIP3    H181056   1.396   4.124  16.749 -0.2475 -0.0327 -0.6410
19855TIP3    H281057   1.452   4.018  16.656  2.6708 -0.8751  1.8947
19856TIP3   OH281058   5.342   4.544   5.600  0.7719  0.3681  0.2884
19856TIP3    H181059   5.326   4.453   5.574 -1.2810  1.1310 -1.3975
19856TIP3    H281060   5.275   4.563   5.666  0.7862  0.8570  0.1679
19857TIP3   OH281061   2.120   3.913  15.957  0.0382  0.1941  0.1083
19857TIP3    H181062   2.134   3.831  16.005  1.6940  0.4480  0.1169
19857TIP3    H281063   2.104   3.978  16.025  0.9162  0.2737  0.2525
19858TIP3   OH281064   1.996   5.991  15.053 -0.1792  0.0019 -0.5777
19858TIP3    H181065   1.958   6.069  15.012 -1.1856  0.1955  0.6556
19858TIP3    H281066   2.066   5.965  14.994 -0.6415  1.1020 -1.6642
19859TIP3   OH281067   3.048   0.151   2.512 -0.2411 -0.0729  0.2291
19859TIP3    H181068   3.089   0.075   2.471 -1.1668 -0.8938  0.7741
19859TIP3    H281069   3.112   0.182   2.576  0.5358  0.2127 -0.6774
19860TIP3   OH281070   3.914   1.862  12.452  0.4154 -0.0787 -0.5501
19860TIP3    H181071   4.008   1.869  12.432  0.2254  1.3178 -1.0659
19860TIP3    H281072   3.887   1.952  12.470 -0.5443 -0.6406  0.9980
19861TIP3   OH281073   5.569   5.715   4.090  0.1987  0.6339  0.0127
19861TIP3    H181074   5.604   5.632   4.123 -0.2090 -0.1554 -1.4617
19861TIP3    H281075   5.530   5.757   4.167  0.0860 -0.7077  0.7194
19862TIP3   OH281076   1.558   0.368   4.158 -0.2190 -0.2743 -0.7126
19862TIP3    H181077   1.489   0.301   4.159 -0.2336 -0.2639  0.8215
19862TIP3    H281078   1.555   0.403   4.069 -0.5737 -1.9237 -1.3953
19863TIP3   OH281079   4.221   6.816  14.678  0.1182  0.3131  0.1306
19863TIP3    H181080   4.150   6.832  14.740 -0.4770  1.6127 -0.8553
19863TIP3    H281081   4.201   6.731  14.639 -0.1786  0.0760  0.7795
19864TIP3   OH281082   0.253   6.466   5.035 -0.1054  0.0629  0.2263
19864TIP3    H181083   0.303   6.404   4.982 -0.7672  0.0088 -0.3505
19864TIP3    H281084   0.310   6.543   5.041  0.6095 -0.4888  0.7224
19865TIP3   OH281085   3.813   2.749  14.688  0.4319  0.4684 -0.0867
19865TIP3    H181086   3.888   2.714  14.640  0.9796  1.8159 -0.2695
19865TIP3    H281087   3.773   2.812  14.627  0.2556  1.1178  0.6814
19866TIP3   OH281088   0.717   2.390  15.721  0.1397  0.1927  0.1923
19866TIP3    H181089   0.764   2.409  15.641  2.0795 -1.2518  0.9034
19866TIP3    H281090   0.625   2.384  15.695  0.5336  1.3835 -1.5807
19867TIP3   OH281091   4.870   1.560  14.181 -0.5902 -0.4682  0.1685
19867TIP3    H181092   4.895   1.471  14.155  0.5905  0.1268 -0.8397
19867TIP3    H281093   4.803   1.586  14.117 -0.0263 -0.1825 -0.3108
19868TIP3   OH281094   3.649   4.294   5.403 -0.1682  0.1676 -0.0086
19868TIP3    H181095   3.635   4.354   5.330 -0.3628  0.4864  0.2855
19868TIP3    H281096   3.617   4.210   5.371 -0.2974  0.3147 -0.2760
19869TIP3   OH281097   4.928   1.718   5.055 -0.9336 -0.4634 -0.3496
19869TIP3    H181098   4.905   1.665   5.131  0.6726  0.6881  1.0219
19869TIP3    H281099   5.018   1.747   5.072 -1.9999  3.4895 -0.4586
19870TIP3   OH281100   6.424   3.365   2.715  0.0838  0.6574 -0.9122
19870TIP3    H181101   6.378   3.440   2.677  0.5698 -0.3375 -3.7580
19870TIP3    H281102   6.494   3.346   2.652 -0.3642 -2.5059 -0.6164
19871TIP3   OH281103   2.296   3.648   2.826  0.2761 -0.0624  0.1967
19871TIP3    H181104   2.369   3.604   2.782 -1.4707 -0.5391 -2.4268
19871TIP3    H281105   2.234   3.578   2.845  0.0138  0.4841  1.4517
19872TIP3   OH281106   2.014   1.855   5.370 -0.3608  0.0347  0.6073
19872TIP3    H181107   1.968   1.938   5.355  1.0769  0.8421  0.5374
19872TIP3    H281108   2.087   1.878   5.426  0.4426 -1.0702  0.0390
19873TIP3   OH281109   1.367   5.157  15.380  0.0960 -0.1201 -0.1461
19873TIP3    H181110   1.374   5.201  15.295  0.8454 -1.2318 -0.6753
19873TIP3    H281111   1.281   5.183  15.413  0.1306  0.9788 -0.8664
19874TIP3   OH281112   5.487   2.935   0.434 -0.1619  0.5884  0.3187
19874TIP3    H181113   5.541   2.994   0.381 -0.9724  1.7206  0.7086
19874TIP3    H281114   5.500   2.849   0.394  0.6413  1.1050 -0.5993
19875TIP3   OH281115   4.718   1.045   1.277  0.4016 -0.3542 -1.0639
19875TIP3    H181116   4.627   1.063   1.255  0.4512 -0.9197 -1.7638
19875TIP3    H281117   4.767   1.067   1.198  0.6698 -1.6968 -1.2898
19876TIP3   OH281118   4.556   4.761  16.884 -0.0090  0.0557 -0.5750
19876TIP3    H181119   4.584   4.848  16.911 -0.6497  0.0178  0.2679
19876TIP3    H281120   4.483   4.740  16.942  2.0702 -2.3318  1.4048
19877TIP3   OH281121   0.188   4.169   4.018 -0.1586 -0.2963  0.2058
19877TIP3    H181122   0.234   4.146   4.099 -0.9522 -1.9832  0.2331
19877TIP3    H281123   0.257   4.172   3.952  0.2563 -0.8849  0.5931
19878TIP3   OH281124   4.449   5.856  10.991  0.5683  0.3152  0.1502
19878TIP3    H181125   4.428   5.923  10.926  1.6179  0.3940 -0.1331
19878TIP3    H281126   4.476   5.780  10.939  0.9000  0.2012  0.4808
19879TIP3   OH281127   3.294   2.521   3.890 -0.2021 -0.0634 -0.1625
19879TIP3    H181128   3.362   2.458   3.912 -0.8341 -1.1435 -1.1767
19879TIP3    H281129   3.337   2.583   3.831  0.4281  0.5171  0.8625
19880TIP3   OH281130   5.219   2.274  11.773  0.3130  0.1155 -0.2899
19880TIP3    H181131   5.145   2.221  11.803 -1.2013  2.4075  0.3471
19880TIP3    H281132   5.197   2.363  11.801  2.8653  1.0530 -0.9941
19881TIP3   OH281133   4.918   0.924   4.142 -0.0113 -0.2991  0.0738
19881TIP3    H181134   4.865   1.003   4.158  0.5305  0.1396 -0.2802
19881TIP3    H281135   4.994   0.956   4.094  0.7593 -0.8679  0.9019
19882TIP3   OH281136   1.423   4.153  13.531  0.4030  0.0153  0.3421
19882TIP3    H181137   1.443   4.247  13.535 -0.6957  0.2602  0.4284
19882TIP3    H281138   1.344   4.143  13.584 -0.9075 -0.5418 -1.5938
19883TIP3   OH281139   6.354   1.812   3.713 -0.2711  0.0231 -0.1999
19883TIP3    H181140   6.292   1.854   3.772  1.2338  1.5035  0.3968
19883TIP3    H281141   6.328   1.719   3.714 -0.3887 -0.0238  2.7422
19884TIP3   OH281142   4.423   4.953  15.093 -0.0342  0.1710 -0.6674
19884TIP3    H181143   4.398   4.881  15.151 -0.0748  0.7924  0.1079
19884TIP3    H281144   4.518   4.959  15.101 -0.1399  0.9175  0.1475
19885TIP3   OH281145   3.276   4.845   3.599  0.4370 -0.0345  0.6819
19885TIP3    H181146   3.206   4.895   3.558 -0.2217 -0.9500  0.6484
19885TIP3    H281147   3.304   4.898   3.673  0.7497  1.0389 -0.1809
19886TIP3   OH281148   6.746   1.631   5.003 -0.8648  0.1968 -0.3031
19886TIP3    H181149   6.698   1.650   4.922 -1.0383  1.5160  0.0793
19886TIP3    H281150   6.815   1.698   5.005 -1.1151  0.4313  0.8386
19887TIP3   OH281151   4.591   5.323   4.922  0.6383 -0.4326 -0.4764
19887TIP3    H181152   4.569   5.371   5.002 -0.1451 -2.2229  0.4302
19887TIP3    H281153   4.550   5.374   4.852 -0.4236  0.0814  0.4898
19888TIP3   OH281154   3.620   3.889  10.933  0.4505 -0.1107 -0.3524
19888TIP3    H181155   3.532   3.858  10.912  0.7478  0.3231 -2.5045
19888TIP3    H281156   3.606   3.967  10.987 -0.5737  0.6744 -1.6778
19889TIP3   OH281157   0.109   6.576   0.507  0.2139  0.3463  0.1004
19889TIP3    H181158   0.027   6.614   0.539  0.0222  2.0618 -2.1531
19889TIP3    H281159   0.091   6.482   0.497 -0.8313  0.3884  1.4457
19890TIP3   OH281160   3.557   2.099   4.266  0.1575  0.0700 -0.4190
19890TIP3    H181161   3.530   2.009   4.246  0.4711 -0.1965  0.3058
19890TIP3    H281162   3.555   2.103   4.362 -3.0647  1.8078 -0.3998
19891TIP3   OH281163   0.664   2.978   3.426 -0.2380  0.1940  0.2568
19891TIP3    H181164   0.737   3.028   3.392  0.1140  0.4869  1.3778
19891TIP3    H281165   0.654   3.009   3.517 -0.6701 -1.0277  0.6479
19892TIP3   OH281166   1.693   3.423  17.236  0.6077  0.3049  0.3206
19892TIP3    H181167   1.737   3.384  17.160 -1.5702 -0.9113 -0.4095
19892TIP3    H281168   1.738   3.386  17.312 -0.6242 -2.9098 -0.3592
19893TIP3   OH281169   1.936   4.344   4.403  0.0871 -0.0477 -0.2037
19893TIP3    H181170   1.871   4.328   4.472  0.7599 -0.7036  0.3024
19893TIP3    H281171   1.995   4.409   4.440  0.2117 -0.0953 -0.3168
19894TIP3   OH281172   6.219   2.076  12.247  0.3627  0.0152  0.0282
19894TIP3    H181173   6.222   2.053  12.340  1.8684  1.1577  0.2857
19894TIP3    H281174   6.129   2.108  12.233  0.0028 -0.5445  0.9711
19895TIP3   OH281175   3.875   5.240   1.938  0.4627  0.3698  0.0816
19895TIP3    H181176   3.804   5.189   1.976  0.4223  1.6802  1.9179
19895TIP3    H281177   3.842   5.330   1.939  1.3559  0.7323 -1.0183
19896TIP3   OH281178   0.131   0.903  15.762  0.7513 -0.2269 -0.7905
19896TIP3    H181179   0.099   0.885  15.673 -2.3802 -0.1107  0.1995
19896TIP3    H281180   0.113   0.996  15.775 -1.0304 -0.7348  0.7173
19897TIP3   OH281181   3.556   5.633   0.200 -0.7681 -0.2612 -0.1407
19897TIP3    H181182   3.543   5.539   0.186 -1.0177 -0.1894 -0.4108
19897TIP3    H281183   3.468   5.667   0.217 -0.6092 -0.1596  0.4813
19898TIP3   OH281184   0.310   6.512   1.444  0.0390  0.5606 -0.0851
19898TIP3    H181185   0.322   6.436   1.388  0.8343 -0.1055  0.9464
19898TIP3    H281186   0.315   6.587   1.385  2.5620 -0.0198 -0.7243
19899TIP3   OH281187   4.600   1.929   1.935 -0.6908  0.2304  0.0383
19899TIP3    H181188   4.637   1.994   1.994  0.9665 -0.9198  0.3409
19899TIP3    H281189   4.520   1.899   1.979  0.9266 -1.2161  2.2020
19900TIP3   OH281190   0.510   5.674   2.352 -0.1228  0.2028 -0.0024
19900TIP3    H181191   0.443   5.609   2.332 -0.7601  1.1746 -1.1191
19900TIP3    H281192   0.579   5.624   2.397 -0.9390 -1.0799 -0.1227
19901TIP3   OH281193   2.356   6.725   4.113 -0.2291  0.3717 -0.2978
19901TIP3    H181194   2.361   6.690   4.024 -0.5802 -0.8696  0.1532
19901TIP3    H281195   2.445   6.717   4.147 -0.6607 -1.8392  0.4245
19902TIP3   OH281196   6.465   3.364  16.519  0.2558 -0.1092  0.6249
19902TIP3    H181197   6.473   3.276  16.556  0.0447 -0.8203 -0.9484
19902TIP3    H281198   6.458   3.350  16.424  1.9957  1.6968  0.1566
19903TIP3   OH281199   2.605   5.424   2.809 -0.2934 -0.0734 -0.2604
19903TIP3    H181200   2.645   5.340   2.787 -1.2342 -1.1379  1.7910
19903TIP3    H281201   2.637   5.444   2.897  0.3939  2.0742 -0.9217
19904TIP3   OH281202   1.631   1.653   0.287  0.0913 -0.0634  0.1185
19904TIP3    H181203   1.652   1.738   0.325 -0.9139 -0.1619  0.9445
19904TIP3    H281204   1.590   1.604   0.359 -0.1568 -0.9216 -0.5864
19905TIP3   OH281205   6.802   0.648  13.309  0.1185  0.6336 -0.1005
19905TIP3    H181206   6.789   0.613  13.220  1.2201  0.3421 -0.1594
19905TIP3    H281207   6.845   0.578  13.357 -0.0453  0.9619  0.5414
19906TIP3   OH281208   2.371   3.908  15.407 -0.2960 -0.1773 -0.2268
19906TIP3    H181209   2.387   3.837  15.345  3.1029 -0.9421  1.2979
19906TIP3    H281210   2.362   3.864  15.492  2.9169  1.0661  0.9150
19907TIP3   OH281211   3.091   1.242   0.532 -0.2944  0.2933 -0.1446
19907TIP3    H181212   3.173   1.203   0.501 -0.0190  0.0552  0.8499
19907TIP3    H281213   3.116   1.293   0.609 -1.1899 -0.4098  0.6380
19908TIP3   OH281214   0.074   1.481   4.823 -0.3138 -0.1934 -0.4719
19908TIP3    H181215   0.113   1.396   4.844 -2.3355 -1.2956 -0.9297
19908TIP3    H281216   0.012   1.497   4.894 -1.3800 -0.0652 -1.4167
19909TIP3   OH281217   2.917   1.803   4.174  0.7592 -0.1547 -0.0885
19909TIP3    H181218   2.949   1.713   4.174  0.6504 -0.2038  1.0330
19909TIP3    H281219   2.996   1.857   4.185  0.9477 -0.0367 -1.7368
19910TIP3   OH281220   0.870   6.815   3.083  0.2048 -0.6327  0.3989
19910TIP3    H181221   0.776   6.806   3.065  0.2734 -0.0750 -0.2402
19910TIP3    H281222   0.875   6.814   3.179 -0.5647  0.3828  0.4675
19911TIP3   OH281223   0.632   3.505  13.309 -0.2509  0.1795  0.0894
19911TIP3    H181224   0.690   3.494  13.233 -0.8463  0.2566 -0.3816
19911TIP3    H281225   0.551   3.460  13.284  0.1987 -1.5222  1.4406
19912TIP3   OH281226   1.405   0.283   3.547 -0.3157  0.2578 -0.4296
19912TIP3    H181227   1.384   0.345   3.477  1.0692  1.1222 -0.1016
19912TIP3    H281228   1.320   0.247   3.572 -0.9109  0.2974 -2.1975
19913TIP3   OH281229   6.775   3.541   5.911 -0.1912  0.0606 -0.5179
19913TIP3    H181230   6.704   3.477   5.902 -0.7526  0.1687  2.1663
19913TIP3    H281231   6.853   3.487   5.922  0.0203 -0.0705 -2.4121
19914TIP3   OH281232   5.883   6.733   3.188  0.6456  0.6006 -0.0362
19914TIP3    H181233   5.959   6.789   3.205  2.5507 -1.1099 -2.2139
19914TIP3    H281234   5.852   6.759   3.102 -0.3649  0.3446  0.2419
19915TIP3   OH281235   5.735   0.247   5.286  0.1508  0.9359 -0.0646
19915TIP3    H181236   5.824   0.263   5.318 -0.6022  0.0922  2.7290
19915TIP3    H281237   5.736   0.156   5.257 -0.1653  0.3781  1.5719
19916TIP3   OH281238   6.818   0.952  13.697 -0.5146  0.2543 -0.2637
19916TIP3    H181239   6.857   0.872  13.731 -1.6217 -0.7548 -1.2769
19916TIP3    H281240   6.878   0.981  13.629  0.9086  1.4260  1.4035
19917TIP3   OH281241   2.461   2.290  12.570  0.5218  0.2021  0.0197
19917TIP3    H181242   2.538   2.291  12.626  0.4378 -0.1039  0.1458
19917TIP3    H281243   2.387   2.297  12.630  0.4862  2.0604 -0.2079
19918TIP3   OH281244   5.134   5.721  14.199  0.3838 -0.2934  0.4812
19918TIP3    H181245   5.216   5.717  14.249  1.5880  2.5529 -1.0207
19918TIP3    H281246   5.160   5.710  14.108 -1.0866 -0.5276  0.0628
19919TIP3   OH281247   6.212   5.817   4.692  0.1183  0.8658 -0.2366
19919TIP3    H181248   6.232   5.815   4.785 -2.8163  1.4195  0.5057
19919TIP3    H281249   6.283   5.767   4.651  1.0288 -0.1252  2.3562
19920TIP3   OH281250   0.188   0.492  15.943  0.0801  0.1129  0.1673
19920TIP3    H181251   0.167   0.436  15.868  0.7066 -0.2390  0.2405
19920TIP3    H281252   0.124   0.468  16.010 -0.9558  0.9515 -0.4904
19921TIP3   OH281253   3.511   3.391   5.590 -0.2863 -0.1703  0.0418
19921TIP3    H181254   3.468   3.440   5.520 -0.8718  0.7670  1.0169
19921TIP3    H281255   3.591   3.357   5.551  0.1932  1.6711 -0.6592
19922TIP3   OH281256   4.841   6.651   5.981 -0.0464 -0.0513  0.2503
19922TIP3    H181257   4.910   6.584   5.981  0.8273  0.7773 -1.7718
19922TIP3    H281258   4.877   6.723   6.031  0.0196 -0.1180  0.2998
19923TIP3   OH281259   4.183   4.116   5.049 -0.2273  0.2970  0.4890
19923TIP3    H181260   4.165   4.118   5.143  0.4127  0.5397  0.6119
19923TIP3    H281261   4.268   4.159   5.040  1.5949 -3.0210  0.2283
19924TIP3   OH281262   4.860   5.029  12.645  0.3824  0.4595  0.0647
19924TIP3    H181263   4.803   5.010  12.720  0.3774  1.8148  0.4301
19924TIP3    H281264   4.945   5.050  12.683  0.5465  0.5566 -0.3430
19925TIP3   OH281265   5.767   0.330   2.347 -0.0114 -0.4847  0.0541
19925TIP3    H181266   5.808   0.255   2.389 -2.0864 -1.2810  0.8025
19925TIP3    H281267   5.835   0.366   2.289  2.0901 -0.9174  2.1238
19926TIP3   OH281268   1.547   6.773  13.863 -0.4234  0.0698 -0.1685
19926TIP3    H181269   1.551   6.724  13.945  1.3604 -0.4077 -0.4835
19926TIP3    H281270   1.489   6.721  13.807 -1.8543  0.5313  0.8342
19927TIP3   OH281271   0.384   6.603   0.410 -0.1977  0.1134 -0.5624
19927TIP3    H181272   0.409   6.512   0.390  0.2277  0.4051 -1.4052
19927TIP3    H281273   0.299   6.595   0.452 -0.1867 -0.6832 -0.6671
19928TIP3   OH281274   0.258   5.891  16.024  0.0219 -0.4172  0.2081
19928TIP3    H181275   0.215   5.895  16.110 -1.5035  0.0761 -0.5348
19928TIP3    H281276   0.206   5.826  15.976 -0.7844  1.1846 -1.1625
19929TIP3   OH281277   0.110   6.148   4.550  0.1271 -0.0867 -0.0960
19929TIP3    H181278   0.182   6.192   4.595  1.6204 -0.0756 -2.3136
19929TIP3    H281279   0.140   6.140   4.459 -1.3756 -2.8972 -0.4639
19930TIP3   OH281280   2.828   5.139   3.099 -0.5135  0.6102  0.8709
19930TIP3    H181281   2.851   5.161   3.189  1.8790  1.4970  0.1073
19930TIP3    H281282   2.814   5.224   3.056  0.3761  0.3103 -0.0557
19931TIP3   OH281283   4.734   5.723  14.889  0.6392  0.0695  0.4904
19931TIP3    H181284   4.694   5.735  14.976  0.6775  1.6854  0.3180
19931TIP3    H281285   4.681   5.655  14.848  0.5450 -0.6425  1.7302
19932TIP3   OH281286   1.647   0.729  12.196  0.2435  0.3144  0.2836
19932TIP3    H181287   1.699   0.648  12.191 -0.1131  0.1423 -1.6463
19932TIP3    H281288   1.596   0.720  12.277  1.1204 -0.8194  0.7387
19933TIP3   OH281289   2.835   1.748   1.152  0.1207 -0.1059 -0.4352
19933TIP3    H181290   2.782   1.691   1.095  0.0777 -1.0919  0.5496
19933TIP3    H281291   2.776   1.776   1.221  0.4999  0.0102 -0.1503
19934TIP3   OH281292   6.479   6.060   1.159 -0.0773 -0.3563  0.4683
19934TIP3    H181293   6.394   6.021   1.176  0.6037 -2.4357 -0.4625
19934TIP3    H281294   6.481   6.140   1.211 -1.1681 -2.1230  3.4221
19935TIP3   OH281295   0.293   3.565  11.032  0.0609  0.1607 -0.3040
19935TIP3    H181296   0.328   3.563  10.943 -1.8208 -2.1732 -1.0800
19935TIP3    H281297   0.362   3.526  11.086 -0.1015 -1.7131 -1.3535
19936TIP3   OH281298   0.055   4.947  14.754 -0.2723  0.2737  0.4136
19936TIP3    H181299   0.140   4.955  14.711  0.3004 -0.8499  1.3113
19936TIP3    H281300   0.057   5.013  14.824  0.0424 -0.0661  0.7257
19937TIP3   OH281301   5.717   6.355   5.589 -0.9746  0.3622 -0.1339
19937TIP3    H181302   5.748   6.272   5.554  0.3181  1.6535 -2.2847
19937TIP3    H281303   5.664   6.331   5.665  0.9728 -2.2758  0.5194
19938TIP3   OH281304   4.687   2.049   3.290 -0.5025  0.3957  0.2171
19938TIP3    H181305   4.660   2.010   3.207  1.5982  0.3239 -0.4815
19938TIP3    H281306   4.704   2.141   3.269  0.0684  0.3727  0.5561
19939TIP3   OH281307   4.169   4.740   5.051 -0.3485  0.2592 -0.3939
19939TIP3    H181308   4.256   4.713   5.081 -0.7485 -0.3184  0.2977
19939TIP3    H281309   4.108   4.689   5.105 -1.1212 -1.3852 -2.6396
19940TIP3   OH281310   4.085   5.978   1.216  0.0042 -0.4139  0.4970
19940TIP3    H181311   4.153   5.992   1.281 -1.0194 -0.0874  1.5316
19940TIP3    H281312   4.088   5.883   1.198  2.1775 -0.1175 -1.1711
19941TIP3   OH281313   5.859   6.274  16.528 -0.4688  0.0964 -0.3065
19941TIP3    H181314   5.790   6.326  16.570 -0.8268 -0.5594 -0.0725
19941TIP3    H281315   5.941   6.314  16.559 -0.6915  2.2184 -2.2226
19942TIP3   OH281316   2.320   2.401   1.767  0.1014 -0.0867 -0.9239
19942TIP3    H181317   2.364   2.321   1.796 -1.5016 -0.1316  1.6502
19942TIP3    H281318   2.227   2.383   1.778 -0.2969  2.3169  0.3001
19943TIP3   OH281319   0.640   2.965  15.737 -0.0270  0.0256 -0.3311
19943TIP3    H181320   0.719   2.936  15.782  1.1919 -0.0960 -2.4209
19943TIP3    H281321   0.659   3.056  15.713 -1.9489  1.1868  2.0915
19944TIP3   OH281322   1.669   4.862   1.990  0.0521 -0.6364 -0.1273
19944TIP3    H181323   1.718   4.781   2.002 -0.2917 -0.8018  0.1948
19944TIP3    H281324   1.702   4.921   2.058  0.9381 -0.1903 -0.9272
19945TIP3   OH281325   6.058   0.165   5.130  0.4904  0.1788  0.6679
19945TIP3    H181326   6.003   0.109   5.185 -0.5712  0.6270  0.0804
19945TIP3    H281327   6.102   0.105   5.071  1.0130 -0.2296  1.4494
19946TIP3   OH281328   4.425   4.456   3.133  0.3111 -0.3639 -0.3212
19946TIP3    H181329   4.436   4.361   3.144  1.2679 -0.4249 -1.5614
19946TIP3    H281330   4.332   4.467   3.112  0.1590 -1.0118 -0.0116
19947TIP3   OH281331   5.247   0.601   0.443 -0.2311  0.0507 -0.0818
19947TIP3    H181332   5.189   0.559   0.506 -0.6270 -1.2832 -1.2948
19947TIP3    H281333   5.191   0.660   0.393 -0.5743 -1.2053 -1.2243
19948TIP3   OH281334   1.749   0.860  13.839 -1.3837  0.3926  0.2125
19948TIP3    H181335   1.817   0.914  13.798 -1.6952  0.7801  0.2004
19948TIP3    H281336   1.788   0.773  13.844 -0.7641  0.6829  0.5073
19949TIP3   OH281337   2.100   2.879   4.521  0.7178  0.0134 -0.6460
19949TIP3    H181338   2.085   2.852   4.612 -1.3204  1.4989 -0.4731
19949TIP3    H281339   2.167   2.947   4.526 -1.1783  1.9199  0.1226
19950TIP3   OH281340   0.781   1.829  16.278  0.2984 -0.3474 -0.5016
19950TIP3    H181341   0.804   1.921  16.271 -1.1863  0.0318 -0.8415
19950TIP3    H281342   0.813   1.803  16.365  0.9992  0.4034 -0.5302
19951TIP3   OH281343   5.720   3.876  11.237 -0.2097 -0.1083  0.9253
19951TIP3    H181344   5.743   3.902  11.148 -1.2608 -0.5468  0.5015
19951TIP3    H281345   5.701   3.782  11.230 -0.6930 -0.0613  1.5222
19952TIP3   OH281346   4.660   3.564  10.944  0.1823 -0.6395  0.4513
19952TIP3    H181347   4.695   3.517  10.868  1.3986 -0.5676  0.9356
19952TIP3    H281348   4.614   3.639  10.906 -0.3562 -1.3093 -0.2542
19953TIP3   OH281349   5.765   0.668  14.808  0.0296 -0.1117  0.2401
19953TIP3    H181350   5.795   0.655  14.718 -0.0509  1.9549 -0.1531
19953TIP3    H281351   5.822   0.738  14.842 -1.7849  1.1622  0.7907
19954TIP3   OH281352   4.163   2.767   5.195  0.1310 -0.1923 -0.2501
19954TIP3    H181353   4.129   2.691   5.147  0.1998  0.3188 -1.1268
19954TIP3    H281354   4.091   2.793   5.253 -0.0607 -0.6356 -0.2814
19955TIP3   OH281355   3.019   0.317   0.522  0.6513 -0.1063  0.2714
19955TIP3    H181356   2.928   0.324   0.550  0.8613  0.0179  0.9540
19955TIP3    H281357   3.021   0.240   0.466  0.3043 -0.6783  1.0222
19956TIP3   OH281358   3.236   1.635  14.659  0.2654 -0.0723 -0.0237
19956TIP3    H181359   3.151   1.680  14.665  0.3863  0.1441  0.0664
19956TIP3    H281360   3.228   1.561  14.718 -0.3632 -0.8592 -1.0563
19957TIP3   OH281361   4.673   3.190   4.948 -0.2756 -0.3315  0.2851
19957TIP3    H181362   4.688   3.201   4.854 -0.7932  0.6255  0.2972
19957TIP3    H281363   4.632   3.104   4.955 -3.5124  0.9430 -0.8208
19958TIP3   OH281364   2.936   4.455  14.158 -0.0848  0.2317 -0.4201
19958TIP3    H181365   2.969   4.395  14.225 -1.4202 -0.3856 -0.2987
19958TIP3    H281366   2.909   4.533  14.207  0.4242  0.4181 -0.4301
19959TIP3   OH281367   0.396   2.155  12.085 -0.0551 -0.5935 -0.1178
19959TIP3    H181368   0.374   2.137  12.177  1.0804  0.3653  0.3612
19959TIP3    H281369   0.313   2.183  12.046 -0.1877  0.8373  1.1092
19960TIP3   OH281370   6.420   5.396   5.813 -0.3532 -0.4978 -0.3949
19960TIP3    H181371   6.332   5.435   5.812 -0.8328 -1.4726 -2.7818
19960TIP3    H281372   6.445   5.396   5.905 -1.1503  3.4954  0.0051
19961TIP3   OH281373   2.600   1.128  12.688 -0.0990 -0.0666  0.3029
19961TIP3    H181374   2.603   1.174  12.772  0.0854 -0.4133  0.4858
19961TIP3    H281375   2.539   1.180  12.635  0.2660  0.5095  0.4355
19962TIP3   OH281376   0.207   4.835  16.192  0.6966  0.4514 -0.1722
19962TIP3    H181377   0.261   4.859  16.116  3.4350  1.5576  1.9369
19962TIP3    H281378   0.174   4.919  16.224 -0.4947 -0.0194 -0.1220
19963TIP3   OH281379   3.858   3.299   6.385  0.6691 -0.6402  0.2232
19963TIP3    H181380   3.820   3.364   6.445 -2.2773  1.3432 -3.3750
19963TIP3    H281381   3.890   3.351   6.311  1.1855 -3.1045 -1.3958
19964TIP3   OH281382   2.770   2.960   1.044 -0.3798 -0.2626 -1.0015
19964TIP3    H181383   2.843   2.944   1.104 -0.9880 -1.1252 -0.4751
19964TIP3    H281384   2.783   3.051   1.015  2.3492 -1.1162 -2.9415
19965TIP3   OH281385   6.209   5.594  13.242  0.0537  0.4042 -0.3205
19965TIP3    H181386   6.207   5.512  13.193 -0.4232  1.1110 -1.5149
19965TIP3    H281387   6.126   5.596  13.290 -0.0227  0.2769 -0.4477
19966TIP3   OH281388   5.065   1.095   6.055 -0.1849  0.0593 -0.1902
19966TIP3    H181389   5.085   1.006   6.026  0.4062 -0.1067  0.6937
19966TIP3    H281390   5.148   1.129   6.090 -0.8132  0.3016  1.1354
19967TIP3   OH281391   3.528   3.990   4.093 -0.4124  0.2118 -0.3704
19967TIP3    H181392   3.554   3.997   4.185 -3.1615 -0.1841  0.5293
19967TIP3    H281393   3.603   4.024   4.044  1.1634  0.3755  1.9878
19968TIP3   OH281394   3.276   6.792  10.768 -0.0099 -0.5361 -0.4793
19968TIP3    H181395   3.305   6.844  10.693 -2.5308 -1.9172 -2.5648
19968TIP3    H281396   3.290   6.849  10.843  2.8834  0.8306 -1.8714
19969TIP3   OH281397   5.829   1.851  14.738  0.6036  0.2106 -0.5037
19969TIP3    H181398   5.875   1.926  14.700 -0.5967  1.5115  0.5253
19969TIP3    H281399   5.752   1.839  14.682  1.8541 -1.6903 -1.9624
19970TIP3   OH281400   4.238   6.202  12.660  0.6591  0.5319  0.1698
19970TIP3    H181401   4.326   6.184  12.693  1.5487  0.9987 -1.8226
19970TIP3    H281402   4.206   6.117  12.629  0.8032  0.5462 -0.0170
19971TIP3   OH281403   2.219   1.701   1.088 -0.1548 -0.5168 -0.9421
19971TIP3    H181404   2.140   1.739   1.127  0.6523 -0.0257  0.2734
19971TIP3    H281405   2.186   1.640   1.022 -1.7385 -3.2612  2.0945
19972TIP3   OH281406   4.198   5.988  12.240 -0.2032 -0.1702 -0.4196
19972TIP3    H181407   4.148   5.910  12.215 -0.9471  0.3815 -0.6702
19972TIP3    H281408   4.233   6.021  12.157  0.5279 -0.5053 -0.2550
19973TIP3   OH281409   4.426   4.404   5.715 -0.9410 -0.2259  0.1554
19973TIP3    H181410   4.483   4.342   5.760 -2.3014 -2.0817 -0.5455
19973TIP3    H281411   4.483   4.447   5.652 -0.0041 -0.9451  0.4847
19974TIP3   OH281412   3.578   2.333  15.381 -0.7641 -0.4855  0.3960
19974TIP3    H181413   3.495   2.307  15.341  0.4248 -1.6325 -1.4849
19974TIP3    H281414   3.636   2.258  15.366  1.1508  1.0082 -0.0573
19975TIP3   OH281415   5.062   2.336  16.364 -0.5157  0.0544  0.2603
19975TIP3    H181416   5.106   2.419  16.382  0.9028 -0.8440  1.1331
19975TIP3    H281417   5.103   2.305  16.283 -0.6899 -0.0416  0.2089
19976TIP3   OH281418   6.171   0.836  11.346 -0.0747  0.4776  0.1341
19976TIP3    H181419   6.101   0.777  11.373  1.2960 -1.3717 -0.1561
19976TIP3    H281420   6.188   0.890  11.424 -1.3234  0.5010  0.4160
19977TIP3   OH281421   4.954   2.478  11.801 -0.1969 -0.6991 -0.7010
19977TIP3    H181422   5.034   2.484  11.748 -1.2210 -2.7651 -2.6726
19977TIP3    H281423   4.892   2.537  11.759 -0.0095  0.2201  0.2839
19978TIP3   OH281424   5.961   1.296   0.046 -0.6816 -0.3238 -0.0640
19978TIP3    H181425   5.885   1.316   0.101 -0.3919 -0.9863  0.5821
19978TIP3    H281426   5.924   1.279  -0.041 -1.2032  0.0390  0.0811
19979TIP3   OH281427   3.079   2.085   5.983 -0.7951 -0.6155  0.2899
19979TIP3    H181428   3.083   2.162   6.040 -0.8555 -1.7695  1.9355
19979TIP3    H281429   3.044   2.118   5.900  0.5123  1.3675  0.4538
19980TIP3   OH281430   0.941   3.811   0.777 -0.0494 -0.3387 -0.4967
19980TIP3    H181431   0.861   3.856   0.751 -1.1938 -0.6393  2.1617
19980TIP3    H281432   0.952   3.742   0.712 -1.4710  0.2425 -1.4061
19981TIP3   OH281433   1.204   3.310   3.507 -0.4202 -0.2536  0.3002
19981TIP3    H181434   1.299   3.318   3.500  0.0234 -3.3117  1.5924
19981TIP3    H281435   1.188   3.277   3.595 -2.4747 -1.9019 -0.5957
19982TIP3   OH281436   3.076   2.044   2.713  0.0211  0.1840  0.1468
19982TIP3    H181437   3.168   2.031   2.737 -0.4724 -0.2392  1.9806
19982TIP3    H281438   3.063   1.991   2.635  1.1825 -0.2418  0.2302
19983TIP3   OH281439   2.429   5.974   2.367 -0.2422  0.2452 -0.2346
19983TIP3    H181440   2.385   5.908   2.312  0.2503  0.8861 -1.4232
19983TIP3    H281441   2.491   6.017   2.309 -0.2510  1.4912  0.6324
19984TIP3   OH281442   6.137   5.438  13.666  0.1914 -0.0900  0.1221
19984TIP3    H181443   6.058   5.490  13.680 -0.2754 -0.4359 -1.0765
19984TIP3    H281444   6.207   5.503  13.654  0.1709  0.2165  1.5084
19985TIP3   OH281445   1.065   5.831  12.618 -0.3973 -0.0159 -0.4298
19985TIP3    H181446   1.108   5.907  12.579 -1.5368  0.3495 -1.0403
19985TIP3    H281447   0.971   5.850  12.610 -0.7379 -1.7667 -1.2036
19986TIP3   OH281448   6.698   3.801   6.292 -0.0276 -0.4933 -0.1863
19986TIP3    H181449   6.635   3.794   6.363 -1.3774  2.5831 -0.8941
19986TIP3    H281450   6.783   3.787   6.333 -0.9341 -1.5629  1.4264
19987TIP3   OH281451   0.651   6.445   1.285  0.0112  0.0181 -0.4569
19987TIP3    H181452   0.717   6.378   1.306  0.0197 -0.2105 -1.1752
19987TIP3    H281453   0.592   6.401   1.224  0.4100  0.8808 -1.4743
19988TIP3   OH281454   6.764   0.908  14.541 -0.2328 -0.2830 -0.5775
19988TIP3    H181455   6.709   0.836  14.571  1.1056 -1.0463  0.1274
19988TIP3    H281456   6.709   0.956  14.480 -0.7685 -2.6773 -2.1199
19989TIP3   OH281457   3.151   3.763   3.704  0.2389 -0.0327 -0.4061
19989TIP3    H181458   3.242   3.787   3.685 -0.0996  0.2707 -1.7092
19989TIP3    H281459   3.156   3.674   3.738  0.7937 -1.2655 -3.4339
19990TIP3   OH281460   6.648   6.188  12.918  0.6117  0.2972  0.1697
19990TIP3    H181461   6.742   6.173  12.921  0.9671  1.9011 -1.0671
19990TIP3    H281462   6.639   6.284  12.923 -0.8766  0.2423 -0.7594
19991TIP3   OH281463   4.046   2.323   3.559  0.7208 -0.1547  0.3847
19991TIP3    H181464   4.004   2.317   3.645  1.2143 -1.2713  0.5656
19991TIP3    H281465   4.139   2.337   3.579  0.8808 -0.7121  0.0397
19992TIP3   OH281466   4.283   4.960   0.432 -0.7053 -0.0443  0.2980
19992TIP3    H181467   4.333   4.908   0.369 -0.3834 -0.2041  0.6837
19992TIP3    H281468   4.235   4.895   0.484 -0.9013  0.0811  0.2740
19993TIP3   OH281469   6.530   0.230   0.746  0.3232 -0.3424 -0.1507
19993TIP3    H181470   6.485   0.146   0.749 -0.9587  0.3285  0.5404
19993TIP3    H281471   6.599   0.223   0.812  2.2973 -1.8963 -2.2075
19994TIP3   OH281472   1.230   4.682   6.059 -0.3305  0.1588  0.0987
19994TIP3    H181473   1.241   4.777   6.050 -0.1977  0.2211  0.8364
19994TIP3    H281474   1.303   4.645   6.010 -0.6807  0.4226 -0.6354
19995TIP3   OH281475   6.292   1.117  13.730  0.5019  0.4714  0.5823
19995TIP3    H181476   6.280   1.073  13.814 -1.5149  1.6634  0.9888
19995TIP3    H281477   6.380   1.091  13.702  0.5274 -1.4157  2.1615
19996TIP3   OH281478   0.059   2.787   4.545  0.1209  0.0587  0.0378
19996TIP3    H181479   0.053   2.872   4.500 -0.0917  0.8938  1.5841
19996TIP3    H281480  -0.025   2.745   4.530 -0.1853  0.6089  0.2205
19997TIP3   OH281481   2.715   3.020  14.998  0.0556 -0.3333 -0.2448
19997TIP3    H181482   2.627   3.055  15.014 -0.0826  0.3355 -2.2149
19997TIP3    H281483   2.740   2.980  15.081 -0.8300  2.2113  1.3754
19998TIP3   OH281484   6.373   5.308  15.217 -0.2502  0.0735  0.3929
19998TIP3    H181485   6.451   5.267  15.180  0.8661  0.4337  2.2307
19998TIP3    H281486   6.302   5.248  15.195  0.3437  0.2148 -2.1340
19999TIP3   OH281487   1.129   1.851  14.835  0.0720 -0.3349  0.0920
19999TIP3    H181488   1.058   1.913  14.819  2.0567  1.9942 -0.1505
19999TIP3    H281489   1.181   1.853  14.754  1.7599 -0.0845  1.1394
20000TIP3   OH281490   6.798   5.196   0.804 -0.1854  0.1699  0.5297
20000TIP3    H181491   6.740   5.125   0.830 -1.0791 -0.1310 -1.9885
20000TIP3    H281492   6.782   5.265   0.868 -3.5363  0.1690 -0.1565
20001TIP3   OH281493   1.567   1.073   6.362  0.2529  0.1409 -0.1950
20001TIP3    H181494   1.531   1.081   6.450  3.3061  0.6441  1.1057
20001TIP3    H281495   1.537   1.152   6.316  2.7433  2.5993  2.0716
20002TIP3   OH281496   0.145   0.316  13.207 -0.5502  0.0570  0.6351
20002TIP3    H181497   0.102   0.330  13.291 -0.1610  5.0635  0.2910
20002TIP3    H281498   0.238   0.307  13.229 -0.8008 -3.3672  0.8581
20003TIP3   OH281499   2.222   2.555   0.526 -0.0272 -0.3098 -0.0779
20003TIP3    H181500   2.274   2.488   0.571  1.4113  0.1869 -0.9271
20003TIP3    H281501   2.144   2.566   0.581  1.2523 -0.3295  1.8339
20004TIP3   OH281502   5.683   2.786   4.394  0.0645  0.0764 -0.0299
20004TIP3    H181503   5.700   2.865   4.445  0.0820  0.9720 -1.3767
20004TIP3    H281504   5.614   2.811   4.333 -0.1204 -1.0365 -0.2980
20005TIP3   OH281505   2.611   4.561  15.751 -0.5448  0.3786  0.0303
20005TIP3    H181506   2.662   4.482  15.730 -1.4050 -0.3563  0.5875
20005TIP3    H281507   2.549   4.569  15.679 -1.8803 -0.7334  0.9902
20006TIP3   OH281508   5.107   6.385   1.567  0.3608  0.1868 -0.5940
20006TIP3    H181509   5.202   6.373   1.567  0.2437 -0.8184 -0.2573
20006TIP3    H281510   5.090   6.437   1.646  0.7289  1.3294 -1.2468
20007TIP3   OH281511   4.577   2.318  12.383  0.3081 -0.4726  0.4975
20007TIP3    H181512   4.560   2.258  12.310  1.2534  1.9027 -1.8332
20007TIP3    H281513   4.644   2.273  12.435  0.7602 -1.5909 -0.9656
20008TIP3   OH281514   2.654   6.572  11.206  0.0168  0.4906  0.1011
20008TIP3    H181515   2.660   6.639  11.138 -0.4735 -0.0788 -0.5204
20008TIP3    H281516   2.632   6.620  11.285  1.5393  1.2723  0.0691
20009TIP3   OH281517   4.708   3.927  11.829 -0.1085 -0.0192 -0.3826
20009TIP3    H181518   4.627   3.966  11.862 -1.3879 -1.9168 -1.0998
20009TIP3    H281519   4.758   3.906  11.908 -0.5764  0.6444  0.0982
20010TIP3   OH281520   0.483   3.861   5.172 -0.0845  0.4963  0.7151
20010TIP3    H181521   0.480   3.947   5.129 -0.3703  0.5545  0.8452
20010TIP3    H281522   0.555   3.815   5.129 -0.8573  0.2640 -0.3681
20011TIP3   OH281523   3.104   0.534   2.886 -0.3607  0.0024 -0.0197
20011TIP3    H181524   3.044   0.545   2.960  0.0563 -0.3855  0.3851
20011TIP3    H281525   3.180   0.587   2.908 -0.8637  1.1369 -0.9058
20012TIP3   OH281526   5.468   3.071  14.652 -0.3402  0.2555 -0.3444
20012TIP3    H181527   5.488   3.086  14.560 -0.4761 -0.0642 -0.4280
20012TIP3    H281528   5.372   3.068  14.656 -0.3409  0.4996 -0.1554
20013TIP3   OH281529   4.432   3.095  12.296 -0.2377  0.1186 -0.5097
20013TIP3    H181530   4.513   3.065  12.338  0.2436  0.7868 -0.9284
20013TIP3    H281531   4.364   3.081  12.361 -0.0183 -1.6703 -0.6155
20014TIP3   OH281532   6.384   4.610  11.764 -0.2878  0.0308  0.1359
20014TIP3    H181533   6.411   4.595  11.673 -0.7295  0.4599 -0.0734
20014TIP3    H281534   6.410   4.531  11.811  1.2504  0.3807 -0.0628
20015TIP3   OH281535   2.459   2.701   5.070 -0.2069  0.2389 -0.1449
20015TIP3    H181536   2.376   2.654   5.075 -0.4189  0.5521 -0.6119
20015TIP3    H281537   2.524   2.633   5.054 -0.6392  0.1662 -1.8416
20016TIP3   OH281538   1.514   6.258   4.385 -0.8215  0.0480  0.0814
20016TIP3    H181539   1.502   6.216   4.470 -2.4916  1.2406  0.4855
20016TIP3    H281540   1.428   6.253   4.343 -0.3064  0.4600 -1.0752
20017TIP3   OH281541   5.044   1.452  11.345  0.2504 -0.5216  0.2198
20017TIP3    H181542   4.999   1.535  11.359 -0.7692 -1.1899  0.9892
20017TIP3    H281543   5.136   1.471  11.367 -0.3383 -0.1442  2.6244
20018TIP3   OH281544   2.462   2.671  13.869 -0.9081 -0.4546  0.1231
20018TIP3    H181545   2.496   2.756  13.897  0.3578 -1.0347  0.3883
20018TIP3    H281546   2.402   2.646  13.940 -0.1415 -0.4633  0.7806
20019TIP3   OH281547   1.251   4.531  11.510 -0.3655 -0.0249  0.2775
20019TIP3    H181548   1.181   4.521  11.574 -1.9067 -0.8831 -1.4493
20019TIP3    H281549   1.247   4.450  11.458  1.7990 -0.0157 -0.0107
20020TIP3   OH281550   3.549   0.921   3.223 -0.3608 -0.4447 -0.1508
20020TIP3    H181551   3.510   0.983   3.161  1.9637  1.3581  0.0385
20020TIP3    H281552   3.523   0.835   3.191 -2.8173  0.5436 -1.0721
20021TIP3   OH281553   2.072   0.794  12.908  0.1383  0.1356  0.1435
20021TIP3    H181554   2.006   0.785  12.839 -1.3062 -1.0344  1.6049
20021TIP3    H281555   2.078   0.888  12.924 -2.1068  0.2235  0.7847
20022TIP3   OH281556   0.459   0.869   3.772 -0.3779 -0.3762  0.3606
20022TIP3    H181557   0.375   0.914   3.767 -0.8758 -0.9736  2.4634
20022TIP3    H281558   0.511   0.921   3.833  0.5535 -0.3921 -0.3943
20023TIP3   OH281559   6.163   0.981  13.041 -0.1054 -0.1557 -0.5751
20023TIP3    H181560   6.105   1.055  13.021  1.6353  1.9358  1.6282
20023TIP3    H281561   6.225   0.979  12.968  1.1486  2.0548  0.3368
20024TIP3   OH281562   0.650   3.718   4.328 -0.2285  0.1131  0.4309
20024TIP3    H181563   0.615   3.671   4.252 -0.8894  3.6163 -1.7159
20024TIP3    H281564   0.736   3.749   4.299  1.3545 -1.7545  2.7325
20025TIP3   OH281565   6.648   2.370   3.141 -0.0569 -0.0494 -0.1366
20025TIP3    H181566   6.614   2.357   3.230  3.6485  2.2295  1.8622
20025TIP3    H281567   6.677   2.461   3.140  2.4128 -0.7321 -2.8003
20026TIP3   OH281568   6.395   3.692  10.867 -0.3667 -0.3925  0.0455
20026TIP3    H181569   6.320   3.637  10.890 -2.0918  2.1431  0.8913
20026TIP3    H281570   6.365   3.743  10.792  0.6121  0.4278  0.1948
20027TIP3   OH281571   5.840   2.088   1.410  0.1007  0.0817 -0.0793
20027TIP3    H181572   5.843   2.000   1.448  0.8537 -0.0219 -0.3681
20027TIP3    H281573   5.747   2.112   1.412  0.0674 -0.0590  1.5121
20028TIP3   OH281574   2.120   4.726   1.312 -0.6395  0.2479  0.2994
20028TIP3    H181575   2.178   4.664   1.356 -0.6745 -0.6806 -0.9156
20028TIP3    H281576   2.175   4.801   1.292  0.7731 -1.3761 -2.5709
20029TIP3   OH281577   0.783   4.243   5.250 -0.1536  0.8024 -0.2268
20029TIP3    H181578   0.786   4.328   5.293  1.5159 -0.0032  1.4057
20029TIP3    H281579   0.814   4.260   5.161 -1.3307  2.1155 -0.4230
20030TIP3   OH281580   1.856   1.928  14.759 -0.5232  0.4160 -1.1132
20030TIP3    H181581   1.826   2.007  14.714 -0.1071 -0.4976 -3.1215
20030TIP3    H281582   1.927   1.959  14.816 -1.9332  1.8142 -0.0032
20031TIP3   OH281583   5.235   4.147   5.878 -0.0885  0.5274 -0.1021
20031TIP3    H181584   5.318   4.148   5.831  0.8567  1.7338  1.4993
20031TIP3    H281585   5.255   4.106   5.962 -1.1431  0.6918  0.2468
20032TIP3   OH281586   6.587   3.446   0.245  0.2658 -0.1383  0.2055
20032TIP3    H181587   6.540   3.397   0.177  0.7827  1.2515 -1.2059
20032TIP3    H281588   6.679   3.420   0.232  0.1409 -1.6072  1.9017
20033TIP3   OH281589   0.946   1.675  13.529  0.7304 -0.0052 -0.4424
20033TIP3    H181590   0.969   1.694  13.438 -0.3471  0.2463 -0.6793
20033TIP3    H281591   0.862   1.719  13.542  0.4944 -0.6904  0.4426
20034TIP3   OH281592   4.456   0.324  10.584 -0.1918 -0.6491 -0.2841
20034TIP3    H181593   4.515   0.384  10.538  1.4594 -1.0098  1.2529
20034TIP3    H281594   4.514   0.265  10.632 -1.8019 -1.0192  1.3161
20035TIP3   OH281595   4.328   3.488   1.761 -0.2960  0.4845 -0.2973
20035TIP3    H181596   4.353   3.427   1.830 -0.8831 -0.9054 -1.2768
20035TIP3    H281597   4.302   3.433   1.688 -1.9268  1.8905 -0.8452
20036TIP3   OH281598   0.700   2.225   3.919  0.7401 -0.0329  0.2122
20036TIP3    H181599   0.780   2.212   3.971 -0.0570  1.0844  1.8207
20036TIP3    H281600   0.637   2.164   3.958 -0.0524  1.2604  1.0282
20037TIP3   OH281601   5.846   2.091   1.830  0.6243  0.5187 -0.3713
20037TIP3    H181602   5.788   2.046   1.769  1.0706 -0.4793 -0.0734
20037TIP3    H281603   5.791   2.159   1.870 -0.8421 -1.4247  1.0903
20038TIP3   OH281604   2.099   1.435  12.076  0.0144 -0.0426  0.3394
20038TIP3    H181605   2.083   1.488  12.155 -2.4196  1.5644 -1.0941
20038TIP3    H281606   2.185   1.463  12.046 -0.2325  1.4552  0.9099
20039TIP3   OH281607   0.552   0.764  15.890 -0.1430 -0.1823 -0.1558
20039TIP3    H181608   0.490   0.782  15.819 -0.3984 -1.0129 -0.1500
20039TIP3    H281609   0.501   0.714  15.953  0.1774  0.2638  0.4633
20040TIP3   OH281610   0.978   3.424  15.155 -0.0099 -0.3303  0.3369
20040TIP3    H181611   0.948   3.515  15.147  0.0957 -0.2539  0.8000
20040TIP3    H281612   1.071   3.428  15.131 -0.0960 -0.3778 -0.0031
20041TIP3   OH281613   2.736   1.771  14.920 -0.2249  0.5142 -0.4378
20041TIP3    H181614   2.733   1.707  14.990  1.3674 -0.1122 -0.8991
20041TIP3    H281615   2.721   1.855  14.963  0.5996  0.1276  0.6468
20042TIP3   OH281616   2.565   5.577  15.381  0.4832  0.4086  0.2732
20042TIP3    H181617   2.512   5.569  15.460  0.9412  1.1266  0.6713
20042TIP3    H281618   2.652   5.601  15.414  0.6650  0.7577 -0.4480
20043TIP3   OH281619   1.693   0.330  12.570 -0.1161  0.3264 -0.2788
20043TIP3    H181620   1.727   0.241  12.560  2.0663  1.2961 -2.8019
20043TIP3    H281621   1.768   0.379  12.604 -1.0563  1.3525  0.3415
20044TIP3   OH281622   6.659   3.984  10.767  0.2596 -0.1134 -0.0255
20044TIP3    H181623   6.566   4.006  10.756  0.6083  1.2063 -0.5074
20044TIP3    H281624   6.703   4.068  10.777  1.3363 -0.7607  0.8994
20045TIP3   OH281625   4.237   0.036  12.066  0.2663 -0.2290  0.7083
20045TIP3    H181626   4.284  -0.041  12.100  1.4660 -0.1007 -0.5850
20045TIP3    H281627   4.240   0.027  11.971  0.2149  1.2952  0.5320
20046TIP3   OH281628   4.408   4.690   1.417  0.1912  0.0762  0.0392
20046TIP3    H181629   4.386   4.773   1.459  3.0110 -0.0015  1.8883
20046TIP3    H281630   4.480   4.712   1.358  0.7082 -0.9856  0.2609
20047TIP3   OH281631   2.927   5.023  16.184  0.6070 -0.3947  0.9384
20047TIP3    H181632   2.907   4.930  16.192  1.4590 -0.6341  0.4025
20047TIP3    H281633   2.959   5.033  16.094 -0.3255  0.5834  0.6981
20048TIP3   OH281634   0.354   2.256  16.894  0.5485  0.1283  0.2195
20048TIP3    H181635   0.342   2.289  16.805  0.4865  0.4799  0.3560
20048TIP3    H281636   0.265   2.248  16.929  0.5759  0.0636  0.2739
20049TIP3   OH281637   2.201   3.545   3.205  0.0629  0.2189  0.5650
20049TIP3    H181638   2.292   3.518   3.220  0.0174  0.6549  1.7478
20049TIP3    H281639   2.206   3.611   3.137  0.4787 -0.7193 -0.3429
20050TIP3   OH281640   4.341   5.769  17.173 -0.6270  0.1014 -0.2238
20050TIP3    H181641   4.299   5.764  17.259  0.5261 -2.1737  0.2634
20050TIP3    H281642   4.319   5.687  17.129  0.6251  0.2515 -1.2241
20051TIP3   OH281643   6.161   5.309   0.871 -0.1612 -0.3797  0.2384
20051TIP3    H181644   6.220   5.238   0.847 -0.0204 -0.3896  0.6094
20051TIP3    H281645   6.218   5.384   0.886 -0.2857 -0.2593  0.1177
20052TIP3   OH281646   1.340   4.815  13.963  0.0550 -0.1256 -0.3364
20052TIP3    H181647   1.356   4.809  14.057 -1.2117 -1.1424 -0.1579
20052TIP3    H281648   1.418   4.777  13.923 -0.7692 -2.8130  0.4257
20053TIP3   OH281649   0.106   3.741  10.709 -0.3267  0.9254 -0.5113
20053TIP3    H181650   0.123   3.649  10.732  0.6001  0.3579 -3.1008
20053TIP3    H281651   0.129   3.790  10.788 -0.0957 -0.9836  0.6860
20054TIP3   OH281652   2.018   0.969  15.123 -0.1668  0.1290  0.1098
20054TIP3    H181653   2.057   0.884  15.143  0.3488  0.1594 -0.6943
20054TIP3    H281654   2.023   1.018  15.205  1.1290 -0.0112  0.1358
20055TIP3   OH281655   1.424   3.437  10.399 -0.1978  0.0701  0.3490
20055TIP3    H181656   1.338   3.446  10.441 -0.2783 -1.2787  0.5294
20055TIP3    H281657   1.473   3.380  10.458  0.1872 -0.6714 -0.6592
20056TIP3   OH281658   0.878   6.738   1.874  0.1552 -0.9669  0.1461
20056TIP3    H181659   0.852   6.799   1.943 -0.2561 -0.2150 -0.6593
20056TIP3    H281660   0.903   6.793   1.800 -2.3866 -1.6986 -1.4186
20057TIP3   OH281661   4.846   1.882  16.773 -0.0075 -0.1704 -0.0594
20057TIP3    H181662   4.848   1.960  16.827 -1.7167 -1.6138  2.2972
20057TIP3    H281663   4.761   1.885  16.730 -0.3335 -0.9845  0.5055
20058TIP3   OH281664   6.706   2.869  12.363 -0.1806 -0.1280 -0.6238
20058TIP3    H181665   6.618   2.904  12.349  0.3086  0.9266 -1.1319
20058TIP3    H281666   6.762   2.946  12.369  0.8509 -0.8167 -1.2531
20059TIP3   OH281667   1.799   4.096  13.651  0.6889 -0.0127 -0.1882
20059TIP3    H181668   1.832   4.107  13.740 -0.8923 -1.2680  0.5952
20059TIP3    H281669   1.776   4.004  13.645  1.5204 -0.1392 -2.2010
20060TIP3   OH281670   0.672   1.264   2.265  0.4399  0.5347  0.5264
20060TIP3    H181671   0.716   1.338   2.223 -0.6531 -0.6450 -3.0251
20060TIP3    H281672   0.723   1.187   2.241  0.2146 -0.1473  2.1184
20061TIP3   OH281673   6.338   0.278   0.414 -0.3341 -0.5629  0.2416
20061TIP3    H181674   6.279   0.227   0.358  0.7499 -0.3668 -1.1158
20061TIP3    H281675   6.411   0.302   0.358 -0.2326  1.5128  1.1480
20062TIP3   OH281676   2.625   2.987   0.054  0.0220  0.1899  0.0274
20062TIP3    H181677   2.580   2.912   0.016 -0.7375 -1.3092  3.4930
20062TIP3    H281678   2.704   2.951   0.094  0.3785  1.4861  0.5600
20063TIP3   OH281679   0.939   5.676   2.406 -1.5115  0.0336 -0.4556
20063TIP3    H181680   0.897   5.752   2.365 -0.6622  1.8339  1.7841
20063TIP3    H281681   0.883   5.655   2.480 -1.7518 -1.6268 -1.0618
20064TIP3   OH281682   6.808   2.186   5.697  0.3949  0.1169 -0.2047
20064TIP3    H181683   6.767   2.203   5.612 -2.0681 -0.3485  0.8058
20064TIP3    H281684   6.827   2.092   5.696  1.8529  0.3828 -0.7867
20065TIP3   OH281685   3.059   3.632  12.948 -0.6528 -0.2199  0.4255
20065TIP3    H181686   3.039   3.564  12.884  0.5675 -0.5738  0.3823
20065TIP3    H281687   2.993   3.622  13.016 -0.0673 -1.9495  0.7889
20066TIP3   OH281688   5.255   3.163  14.197  0.1037  0.3639  0.0806
20066TIP3    H181689   5.215   3.173  14.284 -1.9645  1.5550 -0.9307
20066TIP3    H281690   5.249   3.069  14.179  0.1412  0.1665  1.0328
20067TIP3   OH281691   4.935   4.314   5.156 -0.0238  0.1275  0.1373
20067TIP3    H181692   4.927   4.378   5.228  0.1326  2.1836 -1.5775
20067TIP3    H281693   5.020   4.333   5.116  0.0507 -1.2215 -0.4063
20068TIP3   OH281694   0.591   1.042   3.426 -0.1842 -0.2987 -0.2555
20068TIP3    H181695   0.609   1.134   3.406 -0.5902 -0.1011  0.2656
20068TIP3    H281696   0.546   1.044   3.510  0.6041 -1.0355  0.1985
20069TIP3   OH281697   3.528   6.315  10.844 -0.1826 -0.2631 -0.2078
20069TIP3    H181698   3.475   6.395  10.847  0.3697  0.1248 -0.5390
20069TIP3    H281699   3.551   6.305  10.751 -0.4246 -0.9329 -0.2042
20070TIP3   OH281700   1.020   0.288   5.878 -0.1685 -0.7982  0.1399
20070TIP3    H181701   0.926   0.295   5.860 -0.4537 -1.2634  1.3368
20070TIP3    H281702   1.056   0.240   5.803 -1.0710 -1.5385  0.1613
20071TIP3   OH281703   3.358   4.664   1.036 -0.3696  0.0575 -0.0079
20071TIP3    H181704   3.438   4.716   1.029 -0.3457 -0.1535 -1.9598
20071TIP3    H281705   3.287   4.726   1.021 -0.2810 -0.5768 -4.4133
20072TIP3   OH281706   6.072   2.405  12.244  0.2453  0.7441 -0.0330
20072TIP3    H181707   6.020   2.350  12.185 -0.7267  1.1667  0.4106
20072TIP3    H281708   6.061   2.365  12.330  0.6672  0.8318  0.0633
20073TIP3   OH281709   0.771   3.270  16.795 -0.1270  0.1655 -0.2424
20073TIP3    H181710   0.723   3.188  16.805  0.3543 -0.0771  0.0879
20073TIP3    H281711   0.817   3.283  16.878  0.2154  0.5000 -0.4761
20074TIP3   OH281712   5.193   0.498  11.710  0.4121 -0.0953  0.1314
20074TIP3    H181713   5.119   0.440  11.692  0.4947 -0.0101 -0.5149
20074TIP3    H281714   5.167   0.547  11.787  0.9224 -1.9670  1.5544
20075TIP3   OH281715   3.474   1.360  14.250 -0.2492  0.1817  0.3660
20075TIP3    H181716   3.390   1.400  14.271 -0.9870  0.4999 -2.7301
20075TIP3    H281717   3.529   1.433  14.222 -0.6612 -0.4998 -2.4918
20076TIP3   OH281718   1.684   5.165  14.911  0.5049 -0.9522 -0.4190
20076TIP3    H181719   1.657   5.255  14.933 -3.3040 -0.1561 -6.1948
20076TIP3    H281720   1.779   5.169  14.905  0.7938  1.5565  2.9480
20077TIP3   OH281721   4.483   5.441   1.963  0.0149 -0.3032  0.3137
20077TIP3    H181722   4.411   5.380   1.979  1.1256 -1.2961  1.6758
20077TIP3    H281723   4.533   5.442   2.044  0.2831  2.1321  0.1927
20078TIP3   OH281724   5.773   5.796  16.428 -0.0401  0.5703  0.7145
20078TIP3    H181725   5.779   5.705  16.397 -0.3309  0.4556  0.9866
20078TIP3    H281726   5.750   5.788  16.521  2.9657  0.8516  1.5785
20079TIP3   OH281727   3.619   0.534   6.153  0.2767 -0.1852 -0.5434
20079TIP3    H181728   3.692   0.479   6.123  0.4615 -0.4787  0.4124
20079TIP3    H281729   3.638   0.550   6.246 -0.8767 -0.2775 -0.2792
20080TIP3   OH281730   1.918   5.548  10.676 -0.4721  0.0633 -0.6174
20080TIP3    H181731   1.840   5.596  10.647  0.2358  1.4853 -0.2640
20080TIP3    H281732   1.897   5.520  10.765 -0.2151  1.3672 -0.1199
20081TIP3   OH281733   4.802   2.395   5.386  0.4139 -0.0693 -0.4926
20081TIP3    H181734   4.787   2.419   5.478 -1.6629  0.6751 -0.9641
20081TIP3    H281735   4.897   2.402   5.375  0.4970  2.5741  0.9082
20082TIP3   OH281736   1.228   4.313   4.227 -0.1313 -0.1944  0.4636
20082TIP3    H181737   1.308   4.265   4.204  0.1231  1.1165 -1.5935
20082TIP3    H281738   1.240   4.336   4.319  0.3663 -2.7840  1.1218
20083TIP3   OH281739   6.401   3.713  14.669  0.1356  0.6930  0.5704
20083TIP3    H181740   6.359   3.651  14.610  1.0816 -0.0889  0.6873
20083TIP3    H281741   6.343   3.789  14.670 -3.0763 -1.4985  3.3333
20084TIP3   OH281742   6.704   4.943   0.860  0.0657 -0.2578  0.1047
20084TIP3    H181743   6.625   4.897   0.831 -0.1161  0.4918 -0.6017
20084TIP3    H281744   6.715   4.916   0.951 -1.4061  0.1797  0.4283
20085TIP3   OH281745   5.177   5.555  15.398 -0.7810  0.2060  0.1439
20085TIP3    H181746   5.260   5.585  15.436  0.0655 -0.1740 -1.3207
20085TIP3    H281747   5.128   5.635  15.380 -0.1333  0.5272 -0.2436
20086TIP3   OH281748   6.074   5.556  12.920 -0.1128 -0.4234 -0.4519
20086TIP3    H181749   6.118   5.617  12.979 -1.3619  0.7782 -0.7225
20086TIP3    H281750   6.131   5.554  12.842  0.7222 -0.8108  0.1497
20087TIP3   OH281751   2.316   6.779  16.115  0.4761 -0.7732 -0.3381
20087TIP3    H181752   2.286   6.847  16.175 -0.3681 -0.3065 -1.2549
20087TIP3    H281753   2.342   6.706  16.172  1.9966  0.5125  0.7043
20088TIP3   OH281754   5.580   1.812  14.627 -0.2676 -1.0380  0.7666
20088TIP3    H181755   5.553   1.900  14.652 -1.8542 -1.5384  0.9525
20088TIP3    H281756   5.498   1.763  14.621  0.5728 -2.4734  0.5495
20089TIP3   OH281757   6.502   1.133   6.277 -0.0797  0.4913  0.3030
20089TIP3    H181758   6.430   1.074   6.302  1.2062 -0.8501  0.9870
20089TIP3    H281759   6.516   1.187   6.355 -0.3683  0.7772  0.1570
20090TIP3   OH281760   5.793   3.681   2.059 -0.5991 -0.1769  0.3222
20090TIP3    H181761   5.865   3.740   2.083  0.6749 -1.4865 -0.1488
20090TIP3    H281762   5.817   3.650   1.972 -1.4883 -1.0346  0.3816
20091TIP3   OH281763   2.288   6.741  15.403 -0.4782  1.0907  0.6631
20091TIP3    H181764   2.365   6.740  15.346  0.7792  1.6080  2.2789
20091TIP3    H281765   2.257   6.650  15.402  0.6439  0.6926  0.6324
20092TIP3   OH281766   4.044   4.917   1.225  0.4945  0.5673  0.3786
20092TIP3    H181767   4.015   4.932   1.135  0.5877  1.7935  0.5397
20092TIP3    H281768   4.052   4.822   1.232 -1.8510  0.2525 -0.1944
20093TIP3   OH281769   2.833   4.526   1.728  0.3438 -0.2199  0.1123
20093TIP3    H181770   2.879   4.597   1.773 -2.5493  0.5628  2.1233
20093TIP3    H281771   2.824   4.556   1.638 -1.0374  2.1927  0.9708
20094TIP3   OH281772   1.431   0.738  16.804 -0.0241 -0.3115  0.3572
20094TIP3    H181773   1.400   0.693  16.883 -0.3024 -0.7368  0.0091
20094TIP3    H281774   1.357   0.791  16.775 -1.8635 -4.0448 -2.5362
20095TIP3   OH281775   1.229   2.914  12.942 -0.1419  0.0767  0.1115
20095TIP3    H181776   1.253   3.003  12.917 -0.0976 -0.0442 -0.2891
20095TIP3    H281777   1.151   2.894  12.889  1.3446 -1.0566 -1.7575
20096TIP3   OH281778   1.087   5.985  10.459 -0.3963 -0.0761  0.3017
20096TIP3    H181779   1.110   5.917  10.521  2.0310  0.0286 -0.3819
20096TIP3    H281780   0.994   5.969  10.439 -0.7442 -1.1887  2.5148
20097TIP3   OH281781   0.890   6.238   1.778  0.0610 -0.2487  0.1847
20097TIP3    H181782   0.824   6.220   1.845 -0.9233  1.8634 -0.1454
20097TIP3    H281783   0.929   6.321   1.804 -0.9184  1.0557 -2.2316
20098TIP3   OH281784   0.901   6.260   5.579  0.2953 -0.3634  0.1680
20098TIP3    H181785   0.953   6.224   5.651  0.6185  0.6299  0.4495
20098TIP3    H281786   0.824   6.205   5.575  0.3166 -0.4900  1.2282
20099TIP3   OH281787   1.645   6.302  16.107  0.1639 -0.7440 -0.0125
20099TIP3    H181788   1.634   6.349  16.025  1.5474 -0.6093 -0.1593
20099TIP3    H281789   1.705   6.230  16.085  0.4893 -0.7500  0.8509
20100TIP3   OH281790   6.307   3.811  13.262 -0.4468  0.1152  0.2836
20100TIP3    H181791   6.344   3.852  13.183  1.0894 -0.6406  0.5754
20100TIP3    H281792   6.240   3.752  13.229  0.5464 -0.5982 -0.5277
20101TIP3   OH281793   2.584   5.527   0.184 -0.4685  0.1195  0.0975
20101TIP3    H181794   2.519   5.519   0.114  0.8633 -1.0693 -1.0821
20101TIP3    H281795   2.617   5.438   0.196  0.9716  0.6930  0.6106
20102TIP3   OH281796   3.521   2.876  15.006  0.2739  0.0129 -0.2229
20102TIP3    H181797   3.468   2.872  14.927  0.3600  0.2450 -0.2927
20102TIP3    H281798   3.485   2.949  15.056 -0.4052 -0.7344  0.4042
20103TIP3   OH281799   5.137   2.637  15.665 -0.2640  0.0864 -0.0103
20103TIP3    H181800   5.065   2.581  15.695 -1.5696  0.8180 -1.6253
20103TIP3    H281801   5.174   2.590  15.590  1.5032 -0.6549  1.2654
20104TIP3   OH281802   4.367   5.579   2.302  0.4203  0.4051 -0.7635
20104TIP3    H181803   4.296   5.600   2.241 -0.8568  0.7705  0.7830
20104TIP3    H281804   4.429   5.528   2.250 -0.9567  0.0925 -2.1722
20105TIP3   OH281805   1.980   3.654  17.127 -0.0993  0.1167  0.3381
20105TIP3    H181806   1.957   3.740  17.162 -1.2335  0.4872 -1.1949
20105TIP3    H281807   1.953   3.658  17.035  3.3567 -0.5562 -0.8349
20106TIP3   OH281808   5.829   5.519  14.850 -0.1471  0.1278 -0.1767
20106TIP3    H181809   5.871   5.593  14.807  3.2314 -0.7990  1.1764
20106TIP3    H281810   5.856   5.443  14.798 -0.1728 -0.5156  0.7240
20107TIP3   OH281811   5.899   1.851   3.420  0.7783  0.0208 -0.0204
20107TIP3    H181812   5.819   1.892   3.451 -0.1153  0.9418 -3.1815
20107TIP3    H281813   5.963   1.922   3.416  0.8066 -0.0248 -0.4601
20108TIP3   OH281814   3.854   3.327  13.541 -0.0351  0.3532  0.2228
20108TIP3    H181815   3.830   3.240  13.509  0.7677 -0.2249  1.1320
20108TIP3    H281816   3.775   3.379  13.530 -0.5702 -0.5215 -0.2178
20109TIP3   OH281817   5.619   0.466  13.170 -0.8981 -0.4852 -0.1511
20109TIP3    H181818   5.610   0.381  13.215 -1.1707 -0.9956 -1.1346
20109TIP3    H281819   5.680   0.448  13.098 -3.5911 -0.8214 -2.5542
20110TIP3   OH281820   2.922   6.756  10.599  0.3586  0.0594  0.2190
20110TIP3    H181821   2.871   6.675  10.606  0.1393  0.2401  0.7529
20110TIP3    H281822   2.930   6.787  10.689 -0.4559  1.1867 -0.0808
20111TIP3   OH281823   2.337   1.801  12.609  0.2001  0.2125  0.2887
20111TIP3    H181824   2.397   1.754  12.551 -0.5944 -1.1456  0.5251
20111TIP3    H281825   2.389   1.818  12.688  0.1726 -1.3631  0.6789
20112TIP3   OH281826   6.336   5.514   0.918  0.0139  0.1117  0.1996
20112TIP3    H181827   6.358   5.540   0.828  0.2575  0.2720  0.3055
20112TIP3    H281828   6.412   5.464   0.948 -0.4178 -0.6839  0.0219
20113TIP3   OH281829   2.804   2.748  11.372 -0.6422 -0.5148  0.6694
20113TIP3    H181830   2.771   2.671  11.326 -0.1426 -1.1016  1.2593
20113TIP3    H281831   2.736   2.770  11.435 -0.3385 -1.1433  1.2351
20114TIP3   OH281832   4.624   3.331  15.413 -0.2458  0.0323 -0.5483
20114TIP3    H181833   4.659   3.316  15.501 -2.3280  0.5069  0.4178
20114TIP3    H281834   4.540   3.286  15.413 -1.6400  2.4564 -1.2700
20115TIP3   OH281835   1.822   0.884   2.224 -0.1648  0.3671 -0.3779
20115TIP3    H181836   1.730   0.899   2.201 -0.7370  0.6485  1.9213
20115TIP3    H281837   1.824   0.887   2.319  2.2351  0.2601 -0.3740
20116TIP3   OH281838   5.149   5.384  13.210  0.2735  0.4261  0.1484
20116TIP3    H181839   5.058   5.408  13.197  0.5871  1.2305 -0.6876
20116TIP3    H281840   5.152   5.344  13.298 -1.1563 -1.1700 -0.4825
20117TIP3   OH281841   5.759   1.330  12.525  0.1589  0.0270  0.2226
20117TIP3    H181842   5.693   1.269  12.558  0.6973 -0.8000 -0.1757
20117TIP3    H281843   5.710   1.391  12.469 -0.4792  0.3415  1.1056
20118TIP3   OH281844   2.475   0.946  13.811 -0.4311  0.0749 -0.1662
20118TIP3    H181845   2.477   0.851  13.819 -1.1302  0.0854  0.1682
20118TIP3    H281846   2.423   0.976  13.886  0.6607  0.7918  0.3278
20119TIP3   OH281847   5.698   4.676  15.897  0.5590  0.3371  0.1021
20119TIP3    H181848   5.708   4.680  15.992 -0.0315 -0.6389  0.2128
20119TIP3    H281849   5.763   4.611  15.868 -0.9430 -1.2414  0.1354
20120TIP3   OH281850   3.922   2.140  11.898  0.8280  0.0594 -0.3149
20120TIP3    H181851   3.946   2.189  11.976 -2.1221  0.8602  0.1961
20120TIP3    H281852   3.920   2.049  11.927 -0.3390  0.3576  0.6020
20121TIP3   OH281853   4.104   0.435  15.643 -0.3781  0.2395  0.2276
20121TIP3    H181854   4.104   0.463  15.551  0.2621  0.3124  0.2476
20121TIP3    H281855   4.014   0.408  15.659 -1.4356  3.4766  0.5513
20122TIP3   OH281856   6.657   0.145  15.658 -0.6697 -0.0421  0.7360
20122TIP3    H181857   6.606   0.156  15.739 -0.7500 -1.2148  0.8696
20122TIP3    H281858   6.744   0.120  15.688 -0.5777 -0.0481  0.4670
20123TIP3   OH281859   4.435   2.155  15.574  0.3287  0.1356 -0.1432
20123TIP3    H181860   4.529   2.167  15.562  0.0641  2.6991 -0.1789
20123TIP3    H281861   4.425   2.063  15.596  2.9858  0.0850  1.1806
20124TIP3   OH281862   0.522   1.642   1.015 -0.1751 -0.2056 -0.3208
20124TIP3    H181863   0.457   1.600   0.958 -1.8864  0.2083  1.2232
20124TIP3    H281864   0.606   1.624   0.973 -1.2821 -0.5964 -2.5187
20125TIP3   OH281865   1.314   4.372   0.062 -0.4583 -0.1205  0.2741
20125TIP3    H181866   1.360   4.290   0.042 -0.1982 -0.4804  2.1972
20125TIP3    H281867   1.291   4.408  -0.024 -0.9883 -2.4236 -0.6066
20126TIP3   OH281868   4.759   5.707   1.010 -0.5931 -0.4302 -0.1499
20126TIP3    H181869   4.773   5.613   1.001 -0.8965 -0.3135 -3.0451
20126TIP3    H281870   4.848   5.744   1.015 -0.4781 -0.8448  1.2259
20127TIP3   OH281871   0.165   5.664  11.106 -0.4406  0.2780  0.2774
20127TIP3    H181872   0.170   5.644  11.200 -0.5964  0.4263  0.3169
20127TIP3    H281873   0.153   5.579  11.064 -0.4019  0.2145  0.3946
20128TIP3   OH281874   4.326   4.430   3.924 -0.0703 -0.7040  0.7072
20128TIP3    H181875   4.304   4.362   3.860 -1.1715 -0.0724  0.3780
20128TIP3    H281876   4.288   4.398   4.006  0.9854 -1.3215  0.9684
20129TIP3   OH281877   3.927   2.548   5.662  0.4655  0.0952 -0.3498
20129TIP3    H181878   3.926   2.454   5.676  0.7655  0.4018  2.0348
20129TIP3    H281879   3.947   2.586   5.748  1.8408  2.2772 -1.5165
20130TIP3   OH281880   1.508   5.178   2.461 -0.7432  0.2096 -0.3849
20130TIP3    H181881   1.551   5.254   2.500 -1.1972 -1.1815  3.1418
20130TIP3    H281882   1.417   5.183   2.491 -0.9326 -1.3819 -0.6040
20131TIP3   OH281883   1.272   1.525  12.093  0.1631  0.1069 -0.0498
20131TIP3    H181884   1.225   1.446  12.118  0.2325  0.6931  2.1172
20131TIP3    H281885   1.254   1.535  12.000 -0.7570 -1.8319 -0.1311
20132TIP3   OH281886   4.853   4.499  12.456  0.1777  0.0696 -0.0665
20132TIP3    H181887   4.921   4.434  12.436  0.6553  0.2159  1.0113
20132TIP3    H281888   4.866   4.520  12.549 -2.5259 -1.2796  0.7079
20133TIP3   OH281889   3.423   3.854  12.541  0.5085 -0.0666  0.1339
20133TIP3    H181890   3.486   3.916  12.577  0.9994 -1.9684  2.8328
20133TIP3    H281891   3.474   3.774  12.525 -0.3183 -0.2218 -2.1954
20134TIP3   OH281892   3.028   5.323  13.659  0.3143 -0.6494  0.0463
20134TIP3    H181893   3.105   5.268  13.641 -0.8181 -2.0597 -0.6986
20134TIP3    H281894   3.015   5.373  13.578  2.0609  1.7515  1.1226
20135TIP3   OH281895   5.219   1.095   5.780  0.2349  0.7075  0.5114
20135TIP3    H181896   5.263   1.060   5.857 -1.1061 -0.9538  0.5884
20135TIP3    H281897   5.134   1.050   5.778 -0.5633  2.1503 -0.8459
20136TIP3   OH281898   4.703   3.444  15.192  0.0739  0.1827  0.1577
20136TIP3    H181899   4.681   3.429  15.284  1.8372 -1.0842  0.4354
20136TIP3    H281900   4.644   3.385  15.144  0.6051 -0.7754  0.6473
20137TIP3   OH281901   3.199   5.213   0.969 -0.0235  0.5045  0.2853
20137TIP3    H181902   3.218   5.121   0.952  1.4719  0.9635 -0.6957
20137TIP3    H281903   3.184   5.251   0.882  3.7901  2.0677  0.1262
20138TIP3   OH281904   4.136   5.741  13.866  0.0088 -0.0707 -0.0696
20138TIP3    H181905   4.103   5.830  13.856 -0.0330 -0.1813 -1.1067
20138TIP3    H281906   4.170   5.737  13.955 -0.5152  0.8028  0.1797
20139TIP3   OH281907   0.512   2.410   0.649 -0.0461 -0.5599 -0.4613
20139TIP3    H181908   0.488   2.346   0.583 -0.2842 -0.3833 -0.5489
20139TIP3    H281909   0.539   2.487   0.599  1.1123 -0.8995 -0.3677
20140TIP3   OH281910   2.956   3.382   6.552  0.1652  0.7294 -0.5247
20140TIP3    H181911   3.019   3.325   6.507  2.3274  0.8840  2.0429
20140TIP3    H281912   2.989   3.471   6.537 -0.0710  0.8999 -0.0632
20141TIP3   OH281913   2.247   4.963  13.972  0.3377  0.2895 -0.3943
20141TIP3    H181914   2.342   4.958  13.960  0.7947 -1.1470  2.9247
20141TIP3    H281915   2.216   4.875  13.952 -0.2939  0.6850 -1.2084
20142TIP3   OH281916   2.152   5.878   2.031 -0.4277  0.2350  0.3006
20142TIP3    H181917   2.154   5.834   1.946 -0.9015 -0.7698  0.7805
20142TIP3    H281918   2.234   5.926   2.035 -0.5279  0.5354 -0.8428
20143TIP3   OH281919   4.625   0.133  16.626  0.4846  0.8763  0.4971
20143TIP3    H181920   4.664   0.046  16.641  0.2028  0.5117 -0.7144
20143TIP3    H281921   4.540   0.114  16.586 -0.8475  1.6656  2.7551
20144TIP3   OH281922   4.163   4.770   5.763  0.0324  0.0819 -0.6548
20144TIP3    H181923   4.075   4.809   5.764  0.5123  1.2211  0.3930
20144TIP3    H281924   4.213   4.824   5.824  1.2179 -1.1268 -0.5159
20145TIP3   OH281925   2.324   2.629   1.445 -0.3379 -0.3972 -0.0279
20145TIP3    H181926   2.345   2.644   1.352  0.0751  0.9764  0.2701
20145TIP3    H281927   2.394   2.571   1.476 -1.1152 -1.8217 -0.8359
20146TIP3   OH281928   3.214   3.895   5.474 -0.0759  0.2337  0.1877
20146TIP3    H181929   3.176   3.873   5.559  0.0173  0.0024  0.1700
20146TIP3    H281930   3.299   3.851   5.473 -0.5755 -0.7580 -0.4966
20147TIP3   OH281931   5.508   0.873   0.746 -0.2910 -0.1098 -0.5267
20147TIP3    H181932   5.549   0.801   0.698 -0.6996 -0.4570 -0.3642
20147TIP3    H281933   5.495   0.838   0.835 -0.5502  0.1442 -0.4636
20148TIP3   OH281934   6.096   5.309   3.407 -0.4926  0.1941 -0.2634
20148TIP3    H181935   6.077   5.363   3.484  0.1745  0.0633 -0.0001
20148TIP3    H281936   6.136   5.230   3.443  1.7943  1.0102 -0.8476
20149TIP3   OH281937   4.163   4.923  15.852  0.1288 -0.7959 -0.1219
20149TIP3    H181938   4.236   4.946  15.795  0.1969  3.2371  1.2510
20149TIP3    H281939   4.202   4.910  15.938 -0.6339  0.7618  0.4993
20150TIP3   OH281940   5.302   2.979  13.352 -0.0971  0.4138  0.0254
20150TIP3    H181941   5.355   3.047  13.395  0.6954 -0.4635  0.4745
20150TIP3    H281942   5.308   2.998  13.259  2.7566 -0.8278 -0.1413
20151TIP3   OH281943   4.285   1.684   3.952  0.5430 -0.2985 -0.6384
20151TIP3    H181944   4.190   1.673   3.952  0.4848  0.1481 -1.3092
20151TIP3    H281945   4.318   1.607   3.998 -0.1466 -0.3826 -0.2681
20152TIP3   OH281946   3.659   0.971  12.987 -0.0288 -0.5133 -0.6256
20152TIP3    H181947   3.728   1.026  13.024 -0.2165 -0.0247 -0.9988
20152TIP3    H281948   3.595   0.961  13.057  0.6753 -1.4296 -0.0843
20153TIP3   OH281949   2.630   1.157   3.573  0.5636 -0.1182  0.1754
20153TIP3    H181950   2.537   1.168   3.593  0.7055  0.4741  0.5354
20153TIP3    H281951   2.666   1.113   3.650  0.3401 -1.5931 -0.5194
20154TIP3   OH281952   4.785   5.416   3.662 -0.4805 -0.4113  1.0369
20154TIP3    H181953   4.821   5.346   3.717 -1.0511 -0.7760  0.9469
20154TIP3    H281954   4.859   5.444   3.608 -0.3107 -1.1187  0.8937
20155TIP3   OH281955   6.684   2.962  16.067 -0.0264  0.1233  0.3986
20155TIP3    H181956   6.635   3.004  15.996  0.3220 -1.6676 -0.9499
20155TIP3    H281957   6.698   3.033  16.131 -2.0279  1.3285 -0.3823
20156TIP3   OH281958   3.371   1.196   3.435  0.2969  0.4015  0.1428
20156TIP3    H181959   3.318   1.238   3.367  0.4297  2.2230  1.1073
20156TIP3    H281960   3.323   1.115   3.456  0.3884 -0.3442 -2.2481
20157TIP3   OH281961   6.632   2.787   3.171 -0.0694  0.4354 -0.1598
20157TIP3    H181962   6.564   2.760   3.110  0.1930 -0.6055 -0.0047
20157TIP3    H281963   6.592   2.776   3.258 -0.0290  0.7546 -0.0978
20158TIP3   OH281964   1.078   1.548  14.071  0.2426 -0.1887 -0.1505
20158TIP3    H181965   1.065   1.547  14.166  1.3042  0.5596  0.0280
20158TIP3    H281966   0.991   1.539  14.034 -0.0050 -2.6786  0.8672
20159TIP3   OH281967   5.471   0.836   4.548 -0.0914  0.0859  0.2340
20159TIP3    H181968   5.430   0.883   4.474  4.2512  1.9346 -1.3166
20159TIP3    H281969   5.518   0.764   4.507 -0.1054 -0.7567  1.6532
20160TIP3   OH281970   0.935   2.648   0.107 -0.3432  0.2342  0.0288
20160TIP3    H181971   1.016   2.640   0.156  0.1167  1.2210 -0.5497
20160TIP3    H281972   0.905   2.737   0.123  0.9262  1.3542 -3.0926
20161TIP3   OH281973   6.257   0.762   3.949 -0.1913  0.2591  0.1746
20161TIP3    H181974   6.178   0.715   3.924 -0.5210  1.2185 -0.6777
20161TIP3    H281975   6.288   0.801   3.867  1.4005 -0.4433  0.4251
20162TIP3   OH281976   5.557   1.857  16.474  0.1184  0.3677  0.5110
20162TIP3    H181977   5.559   1.952  16.478  1.2262  0.3227  3.1963
20162TIP3    H281978   5.629   1.834  16.414  0.6996  1.2060  0.8648
20163TIP3   OH281979   4.566   0.267   1.710  0.0989 -0.7592 -0.5215
20163TIP3    H181980   4.582   0.173   1.717  1.4962 -0.4994  0.0528
20163TIP3    H281981   4.482   0.273   1.665 -1.8657 -2.3351  2.5946
20164TIP3   OH281982   1.108   4.067  14.473  0.0679  0.3902 -0.2140
20164TIP3    H181983   1.117   3.973  14.488  0.0047  0.6953  2.2010
20164TIP3    H281984   1.154   4.107  14.547  1.7559  2.3310 -2.1647
20165TIP3   OH281985   3.287   0.721   1.255  0.0686  0.2012 -0.1976
20165TIP3    H181986   3.343   0.666   1.201 -0.1352  0.2814 -0.4917
20165TIP3    H281987   3.198   0.695   1.231 -0.0276 -0.7314  1.0824
20166TIP3   OH281988   1.163   2.186   6.563 -0.4221  0.4694  0.0018
20166TIP3    H181989   1.136   2.207   6.652 -2.8207  0.8998 -0.7486
20166TIP3    H281990   1.187   2.270   6.524 -0.5670  0.4528 -0.1242
20167TIP3   OH281991   5.835   5.675  14.593  0.2952  0.2001 -0.2093
20167TIP3    H181992   5.770   5.668  14.524  3.2131 -4.2505 -3.0092
20167TIP3    H281993   5.907   5.724  14.554  0.5817  0.8723  1.0936
20168TIP3   OH281994   4.782   2.279  14.003  0.1151  0.1993 -0.2764
20168TIP3    H181995   4.716   2.228  14.049  1.9369 -1.4232  0.6929
20168TIP3    H281996   4.745   2.367  13.995 -2.2576 -0.7302 -0.1069
20169TIP3   OH281997   5.147   6.642  12.420  0.5290  0.1863  0.5542
20169TIP3    H181998   5.172   6.577  12.486 -0.1666 -0.1329  0.5118
20169TIP3    H281999   5.052   6.632  12.412  0.7214 -0.5481 -1.2929
20170TIP3   OH282000   5.433   2.286  11.156 -0.4612 -0.1728  0.8065
20170TIP3    H182001   5.520   2.316  11.183  0.4361 -0.4109 -1.5350
20170TIP3    H282002   5.444   2.192  11.139 -1.8517 -0.7701  2.7955
20171TIP3   OH282003   3.877   3.731  12.694 -0.0071 -0.1604 -0.5586
20171TIP3    H182004   3.790   3.705  12.724 -0.7003  1.5455 -0.9612
20171TIP3    H282005   3.860   3.779  12.613  1.0238  2.4340  0.6628
20172TIP3   OH282006   6.334   4.218  15.316  0.6269  0.6955  0.2719
20172TIP3    H182007   6.277   4.154  15.358 -0.0265  0.6118 -0.7048
20172TIP3    H282008   6.416   4.170  15.301  0.1403  0.0554 -0.4642
20173TIP3   OH282009   3.854   1.843   0.832  0.7005  0.3804  0.3614
20173TIP3    H182010   3.865   1.886   0.748  1.1715 -0.7239 -0.1643
20173TIP3    H282011   3.936   1.858   0.878  0.9476 -0.1333  0.0913
20174TIP3   OH282012   0.293   5.208  11.190  0.1079  0.0628 -0.5214
20174TIP3    H182013   0.211   5.236  11.232  0.7903  3.7001 -1.2488
20174TIP3    H282014   0.267   5.133  11.136 -1.7593 -1.6607  2.4496
20175TIP3   OH282015   4.395   5.348  14.626  0.0333  0.0826  0.4471
20175TIP3    H182016   4.466   5.404  14.657  1.1881  0.5036 -2.5775
20175TIP3    H282017   4.438   5.265  14.604 -1.0154 -0.7624  1.4771
20176TIP3   OH282018   1.065   2.798  12.564  0.2778 -0.4264 -0.2954
20176TIP3    H182019   1.057   2.809  12.659  1.1600 -0.4296 -0.2125
20176TIP3    H282020   1.063   2.703  12.551 -1.1895 -0.3930 -0.4187
20177TIP3   OH282021   0.866   5.213   1.785  0.0740 -0.0900 -0.2645
20177TIP3    H182022   0.812   5.154   1.838  2.3535 -0.4150  1.9081
20177TIP3    H282023   0.803   5.264   1.734 -2.1763 -1.4551  0.9787
20178TIP3   OH282024   1.599   2.601   5.105 -0.1833  0.4430  0.2886
20178TIP3    H182025   1.595   2.663   5.179 -1.2204  0.1360  0.5014
20178TIP3    H282026   1.523   2.544   5.117 -0.1101  0.0997 -0.7700
20179TIP3   OH282027   5.428   1.802  14.902  0.3411  0.5683 -0.3905
20179TIP3    H182028   5.510   1.851  14.892 -0.0533  1.8214  1.7866
20179TIP3    H282029   5.403   1.817  14.993 -1.4498 -1.1952 -0.5383
20180TIP3   OH282030   3.331   4.945  12.000 -0.1319 -0.4339 -0.8422
20180TIP3    H182031   3.300   5.023  11.955 -0.0864 -0.6423 -1.2348
20180TIP3    H282032   3.296   4.872  11.949 -0.9247 -0.6842  0.0234
20181TIP3   OH282033   5.723   3.576  14.172  0.2113 -0.0861  0.6346
20181TIP3    H182034   5.715   3.643  14.104 -0.7599 -1.3910 -0.5948
20181TIP3    H282035   5.790   3.610  14.232 -0.6174  2.2021  0.3564
20182TIP3   OH282036   4.819   6.488   2.104 -0.0494 -0.0215 -0.0918
20182TIP3    H182037   4.759   6.414   2.109 -0.2121  0.0204 -1.2258
20182TIP3    H282038   4.789   6.539   2.029  1.1201  0.2522 -0.4042
20183TIP3   OH282039   0.784   4.648   0.837 -0.1631 -0.3430 -0.1409
20183TIP3    H182040   0.689   4.637   0.844 -0.0561 -1.1724  0.1024
20183TIP3    H282041   0.818   4.559   0.827  0.8003 -0.3655  2.4928
20184TIP3   OH282042   3.961   3.213  16.340 -0.4359 -0.3461 -0.4353
20184TIP3    H182043   4.015   3.290  16.321  1.3476 -1.5339 -0.5185
20184TIP3    H282044   3.923   3.231  16.426 -0.1200  0.6556 -0.4903
20185TIP3   OH282045   5.277   2.231  11.526  0.3415  0.1296 -0.3398
20185TIP3    H182046   5.239   2.237  11.614 -1.6346  1.5318 -1.2152
20185TIP3    H282047   5.362   2.274  11.533  0.1964  0.2481  0.8854
20186TIP3   OH282048   6.020   1.989  12.433  0.5390  0.3817 -0.3536
20186TIP3    H182049   5.934   1.984  12.475  1.5667 -0.3976  1.8198
20186TIP3    H282050   6.082   1.981  12.505  2.4584  0.4741 -1.9110
20187TIP3   OH282051   3.016   1.272  13.065 -0.4407  0.3343 -0.0758
20187TIP3    H182052   2.997   1.184  13.032  3.0497 -1.3256  1.8268
20187TIP3    H282053   3.101   1.294  13.027 -0.8165  2.5346  0.2166
20188TIP3   OH282054   2.447   1.037   0.070  0.9822 -0.5229 -0.4821
20188TIP3    H182055   2.460   1.008   0.161  1.9311  0.0019 -0.4327
20188TIP3    H282056   2.445   0.956   0.019  0.8321 -0.8055 -0.0367
20189TIP3   OH282057   5.632   4.096   4.907  0.0613  0.5697 -0.2338
20189TIP3    H182058   5.598   4.118   4.820  0.6206  0.4133 -0.4964
20189TIP3    H282059   5.725   4.082   4.893  0.6289  2.8509  0.7789
20190TIP3   OH282060   1.217   3.453   3.907  0.0040  0.3867 -0.0801
20190TIP3    H182061   1.256   3.541   3.897  1.9357 -0.0118  2.7494
20190TIP3    H282062   1.142   3.467   3.965 -0.4919  0.3138 -0.6939
20191TIP3   OH282063   4.536   1.982   2.739 -0.1028  0.3765  0.5208
20191TIP3    H182064   4.622   2.021   2.723 -0.2422  0.7342  0.6337
20191TIP3    H282065   4.539   1.897   2.694 -0.1985  1.0105 -0.7474
20192TIP3   OH282066   0.533   2.518   2.697 -0.3683  0.0322 -0.3073
20192TIP3    H182067   0.625   2.544   2.694 -0.4497  0.4164  0.3814
20192TIP3    H282068   0.488   2.591   2.740 -0.9101 -0.3859 -0.1477
20193TIP3   OH282069   0.856   4.226   4.982  0.1760  0.2902 -0.0416
20193TIP3    H182070   0.782   4.258   4.930 -0.5879 -0.3935  0.5899
20193TIP3    H282071   0.924   4.292   4.971 -1.0914  1.7837  0.6541
20194TIP3   OH282072   1.999   5.602  13.031  0.2225  0.5057  0.3564
20194TIP3    H182073   2.063   5.587  13.100  0.5440 -2.7600 -0.5140
20194TIP3    H282074   1.935   5.532  13.042 -0.4308  0.6858 -1.8603
20195TIP3   OH282075   4.122   2.317   0.572  0.5627 -0.2152  0.2394
20195TIP3    H182076   4.051   2.359   0.524  1.9742 -0.5905 -2.3812
20195TIP3    H282077   4.191   2.383   0.577  1.3474 -0.9468 -0.4629
20196TIP3   OH282078   0.283   3.736  10.501 -0.1346 -0.5654  0.0501
20196TIP3    H182079   0.212   3.729  10.564  1.3483  0.2334  1.9035
20196TIP3    H282080   0.336   3.658  10.515 -0.6510 -1.2155 -1.3975
20197TIP3   OH282081   4.924   0.117  16.559 -0.1948  0.2744 -0.2626
20197TIP3    H182082   4.963   0.033  16.534 -1.4866 -0.1914 -0.7713
20197TIP3    H282083   5.000   0.175  16.572  0.6763 -0.6504 -1.0098
20198TIP3   OH282084   6.311   3.345   1.748  0.0245 -0.0243  0.1591
20198TIP3    H182085   6.356   3.286   1.808 -0.6771 -0.9677 -0.2324
20198TIP3    H282086   6.365   3.425   1.749  0.7975 -0.5334  0.9405
20199TIP3   OH282087   3.415   5.292   4.003  0.1589  0.5173  0.0966
20199TIP3    H182088   3.503   5.254   4.003 -0.7131 -1.6647 -0.5580
20199TIP3    H282089   3.419   5.362   3.938  1.6496  1.1476  0.8154
20200TIP3   OH282090   0.642   0.986  12.352 -0.2140  0.1452  0.7226
20200TIP3    H182091   0.661   1.079  12.354 -2.4440  0.6524  0.9147
20200TIP3    H282092   0.610   0.966  12.440  0.9121 -0.9869  0.9039
20201TIP3   OH282093   4.937   4.288  15.940 -0.0964  0.8407 -0.1181
20201TIP3    H182094   4.893   4.241  16.012 -1.2158  1.1158 -0.5999
20201TIP3    H282095   4.866   4.333  15.895  0.7465  1.5607 -0.7405
20202TIP3   OH282096   5.228   1.946   3.789 -0.3624 -0.2805 -0.1752
20202TIP3    H182097   5.246   2.015   3.725 -0.4567  1.8012  1.9277
20202TIP3    H282098   5.139   1.917   3.767 -0.8900  1.2904 -0.2727
20203TIP3   OH282099   6.677   2.400  14.893  0.4353  0.0109  0.2248
20203TIP3    H182100   6.651   2.321  14.940  1.3181 -1.1393 -1.1479
20203TIP3    H282101   6.727   2.451  14.957 -1.7320  0.4221  1.7148
20204TIP3   OH282102   3.387   1.153  12.454 -0.0266 -0.3733 -0.0138
20204TIP3    H182103   3.332   1.089  12.408 -0.5762  0.0647  0.0259
20204TIP3    H282104   3.332   1.186  12.525  0.4472 -0.2608  0.3046
20205TIP3   OH282105   0.363   3.936  15.960  0.3311 -0.1271 -0.3952
20205TIP3    H182106   0.269   3.923  15.947  0.6240 -0.6534 -2.2140
20205TIP3    H282107   0.370   3.976  16.047 -1.4267 -1.7974  0.5899
20206TIP3   OH282108   1.719   3.165   4.169  0.3414 -0.1902  0.5392
20206TIP3    H182109   1.794   3.211   4.132 -0.2274 -0.2263 -0.6860
20206TIP3    H282110   1.742   3.072   4.160 -1.0187 -0.3272 -2.5193
20207TIP3   OH282111   5.574   1.816  11.817 -0.1770 -0.3911  0.2844
20207TIP3    H182112   5.588   1.747  11.752  0.5225 -0.7341  0.7890
20207TIP3    H282113   5.529   1.885  11.768 -1.8631 -1.6140  0.0120
20208TIP3   OH282114   2.547   1.369   4.217 -0.3253 -0.5562  0.6543
20208TIP3    H182115   2.639   1.385   4.196 -0.9195  1.2942 -0.7498
20208TIP3    H282116   2.521   1.299   4.157 -0.2634  0.1330 -0.1970
20209TIP3   OH282117   3.296   0.172  15.465  0.1189  0.4657 -0.4088
20209TIP3    H182118   3.259   0.197  15.381 -1.7150  1.8665  0.7428
20209TIP3    H282119   3.221   0.146  15.518  1.3656 -1.7416  0.4016
20210TIP3   OH282120   3.201   4.543  16.110  0.1116 -0.1180  0.0407
20210TIP3    H182121   3.256   4.475  16.071  0.6412  0.8640 -0.9851
20210TIP3    H282122   3.242   4.561  16.194  0.3973 -0.5624  0.0029
20211TIP3   OH282123   3.846   1.268   3.121  0.2383  0.1497 -0.2688
20211TIP3    H182124   3.834   1.197   3.184  0.4181 -0.9036 -1.3775
20211TIP3    H282125   3.833   1.348   3.172  2.0398 -0.5791  1.5051
20212TIP3   OH282126   1.811   6.617   2.639  0.6229  0.4451  0.3812
20212TIP3    H182127   1.784   6.709   2.633 -0.3115  0.1717  0.3032
20212TIP3    H282128   1.795   6.582   2.552 -0.1125 -0.0871  0.7287
20213TIP3   OH282129   6.772   4.478  15.052  0.0285  0.2367 -0.5962
20213TIP3    H182130   6.706   4.423  15.094  0.4587  0.5176  0.4598
20213TIP3    H282131   6.748   4.476  14.959 -1.3920  0.2401 -0.2591
20214TIP3   OH282132   0.388   0.643  15.414  0.3846  0.1722  0.3904
20214TIP3    H182133   0.333   0.644  15.336  0.0224  0.4075  0.6444
20214TIP3    H282134   0.477   0.626  15.382  0.6107  2.3188 -0.3114
20215TIP3   OH282135   6.467   5.442   2.506 -0.3494 -0.5257  0.4669
20215TIP3    H182136   6.445   5.357   2.467 -0.2477 -0.0620 -0.6196
20215TIP3    H282137   6.393   5.460   2.565 -2.2164  0.2428 -1.9205
20216TIP3   OH282138   4.966   5.417   5.503 -0.7048  0.2051 -0.1284
20216TIP3    H182139   5.059   5.414   5.524 -1.3111 -1.0224  2.8854
20216TIP3    H282140   4.946   5.329   5.470 -1.1376 -0.2465  1.2568
20217TIP3   OH282141   3.804   4.883   5.859  0.1569 -0.6443  0.1556
20217TIP3    H182142   3.802   4.804   5.805  0.3149 -0.5046 -0.0587
20217TIP3    H282143   3.880   4.932   5.827  0.6008 -0.8323  0.8889
20218TIP3   OH282144   0.570   4.838   6.370 -0.0174  0.0432  0.1722
20218TIP3    H182145   0.510   4.787   6.425  1.6291 -2.7017 -0.3578
20218TIP3    H282146   0.601   4.908   6.428 -1.2087 -0.4609  1.4956
20219TIP3   OH282147   2.199   6.114  15.712 -0.2316 -0.0030  0.0909
20219TIP3    H182148   2.158   6.092  15.796  0.2635 -0.8838  0.1077
20219TIP3    H282149   2.292   6.124  15.732 -0.3111  1.2100 -0.0946
20220TIP3   OH282150   3.985   3.162   2.357 -0.4712  0.0405 -0.2527
20220TIP3    H182151   3.899   3.178   2.394 -0.1539  1.4150 -0.0863
20220TIP3    H282152   4.037   3.240   2.378  0.8409 -0.7776 -0.2886
20221TIP3   OH282153   2.039   4.284  14.477 -0.3330  0.0453  0.4675
20221TIP3    H182154   2.092   4.219  14.525  0.6189  0.4980  0.0635
20221TIP3    H282155   1.955   4.284  14.522  0.0378 -0.6356  1.1931
20222TIP3   OH282156   1.056   3.214  12.771  0.1009 -0.2915  0.2284
20222TIP3    H182157   1.030   3.242  12.683  0.3572 -0.4937  0.0878
20222TIP3    H282158   1.011   3.275  12.830 -1.5005 -1.2191  0.0317
20223TIP3   OH282159   5.293   3.854  11.703  0.3462  0.2038 -0.2087
20223TIP3    H182160   5.319   3.786  11.640 -1.1497 -1.0484  0.4744
20223TIP3    H282161   5.369   3.913  11.706  0.2195  0.7849 -3.7608
20224TIP3   OH282162   2.410   1.303   1.870  0.5792 -0.3319 -0.3015
20224TIP3    H182163   2.415   1.348   1.954 -1.7574  1.9443 -1.2426
20224TIP3    H282164   2.362   1.363   1.813  1.6643 -1.9644 -3.1700
20225TIP3   OH282165   5.604   4.613   2.053  0.7275  0.2450 -0.0062
20225TIP3    H182166   5.569   4.527   2.033 -2.7296  1.5117 -0.0232
20225TIP3    H282167   5.655   4.636   1.975  2.6728 -2.1069  0.4438
20226TIP3   OH282168   1.423   2.842   1.690  0.4149 -0.0004  0.2664
20226TIP3    H182169   1.435   2.868   1.598 -0.6142 -1.0199 -0.1805
20226TIP3    H282170   1.349   2.782   1.688  0.8244 -0.5887  1.6781
20227TIP3   OH282171   6.040   1.129   2.969 -0.3024 -0.5478 -0.0228
20227TIP3    H182172   6.022   1.207   3.021  0.8936 -0.1792 -0.1267
20227TIP3    H282173   6.063   1.062   3.034  1.4474 -0.0174 -0.0350
20228TIP3   OH282174   4.977   3.709   4.394  0.3625 -0.1291  0.0712
20228TIP3    H182175   4.904   3.769   4.376  1.0817  0.3339 -1.5151
20228TIP3    H282176   4.999   3.725   4.485 -0.0445  1.4086 -0.0677
20229TIP3   OH282177   0.571   6.728  11.857 -0.0630  0.4870 -0.1603
20229TIP3    H182178   0.528   6.670  11.795 -1.5394  0.4914  0.8022
20229TIP3    H282179   0.634   6.673  11.903  0.8536  0.4288 -1.4435
20230TIP3   OH282180   1.410   6.536   0.246 -1.1638  0.2751 -0.5027
20230TIP3    H182181   1.459   6.460   0.275 -1.0045  0.6592  0.2508
20230TIP3    H282182   1.318   6.512   0.257 -1.1241  1.1439  2.3600
20231TIP3   OH282183   5.771   0.998   5.186  0.3619  0.1177  0.4690
20231TIP3    H182184   5.711   0.938   5.141 -0.2939 -0.3318  1.8798
20231TIP3    H282185   5.855   0.951   5.187  0.5349  0.3730 -0.7451
20232TIP3   OH282186   0.870   4.116  12.669  0.2411 -0.5531 -0.1185
20232TIP3    H182187   0.803   4.151  12.610  0.5987 -2.0801 -1.5020
20232TIP3    H282188   0.852   4.159  12.753  0.9755  3.3255 -1.7184
20233TIP3   OH282189   0.017   0.340  12.344 -0.1212  0.6830  0.0925
20233TIP3    H182190  -0.065   0.292  12.336 -0.7332  1.5983  0.5298
20233TIP3    H282191   0.004   0.395  12.422  1.3334  0.0467  0.8347
20234TIP3   OH282192   0.451   0.252   3.436  0.4602 -0.4772 -0.2122
20234TIP3    H182193   0.474   0.325   3.378 -0.4374 -0.2225 -0.2678
20234TIP3    H282194   0.467   0.174   3.383  1.8299 -0.3518 -0.0090
20235TIP3   OH282195   2.088   4.844   3.752 -0.1877 -0.6448 -0.2549
20235TIP3    H182196   2.009   4.807   3.713  0.2599  0.0635 -1.9089
20235TIP3    H282197   2.154   4.838   3.683  0.2814  1.8747 -0.1208
20236TIP3   OH282198   4.110   6.041   5.626 -0.1944 -0.2204 -0.9973
20236TIP3    H182199   4.135   5.952   5.650  0.4913  0.0439 -0.7195
20236TIP3    H282200   4.062   6.075   5.702  1.8109  0.5502 -0.0102
20237TIP3   OH282201   0.022   3.176   4.297 -0.5438  0.0470 -0.0241
20237TIP3    H182202   0.017   3.251   4.356  0.4576  0.1964 -0.1040
20237TIP3    H282203  -0.019   3.104   4.345 -0.0218  0.2469  0.7356
20238TIP3   OH282204   2.611   0.011  11.335 -0.5961 -0.4555 -0.3940
20238TIP3    H182205   2.519  -0.002  11.357 -0.0546 -0.0057  2.6642
20238TIP3    H282206   2.616   0.102  11.308 -1.4473 -1.2671 -3.7404
20239TIP3   OH282207   2.412   1.755   1.491 -0.0698  0.2175 -0.0701
20239TIP3    H182208   2.322   1.729   1.475 -0.0095  0.6041 -1.1229
20239TIP3    H282209   2.406   1.847   1.519  0.0017  0.3057 -0.3355
20240TIP3   OH282210   3.271   4.832   0.128  0.2052  0.1020  0.5703
20240TIP3    H182211   3.364   4.857   0.129  0.1523  0.3708  2.2912
20240TIP3    H282212   3.269   4.745   0.169 -0.2642 -0.0231  0.2806
20241TIP3   OH282213   2.826   1.934   4.692 -0.0964  0.0302 -0.3444
20241TIP3    H182214   2.865   2.021   4.696 -0.6471  0.2537  0.8734
20241TIP3    H282215   2.895   1.875   4.724 -0.5607  0.3777  1.4353
20242TIP3   OH282216   4.300   0.930   1.465  0.2084 -0.9989 -0.3910
20242TIP3    H182217   4.209   0.921   1.493  0.5397 -1.2667  0.6425
20242TIP3    H282218   4.351   0.886   1.533  1.2538  0.8571  0.1027
20243TIP3   OH282219   3.233   4.356  14.967  0.1068  0.0052  0.0994
20243TIP3    H182220   3.209   4.285  15.027 -1.0796 -0.1770 -0.5645
20243TIP3    H282221   3.176   4.344  14.891  0.6717  1.0150 -0.5107
20244TIP3   OH282222   2.203   1.077   4.702  0.3051  0.6430  0.3125
20244TIP3    H182223   2.266   1.011   4.672 -0.0896  0.7237 -0.7412
20244TIP3    H282224   2.251   1.126   4.769  1.1638  0.3318 -0.0535
20245TIP3   OH282225   1.001   2.835  11.949  0.1266  0.5687  0.3718
20245TIP3    H182226   1.058   2.814  12.024  2.2782 -1.3319 -1.6489
20245TIP3    H282227   0.946   2.758  11.938  0.0983  0.6799 -0.2592
20246TIP3   OH282228   5.412   6.397  12.106  0.0775  0.1026 -0.4557
20246TIP3    H182229   5.464   6.441  12.039  0.3470  1.3160  0.5232
20246TIP3    H282230   5.400   6.462  12.175 -0.0648 -1.1358  0.7573
20247TIP3   OH282231   1.971   1.167   5.734 -0.0368  0.0877  0.1828
20247TIP3    H182232   1.946   1.258   5.717 -1.3714  0.2023  2.2869
20247TIP3    H282233   2.062   1.161   5.706 -0.2795  1.7416 -1.0899
20248TIP3   OH282234   5.821   2.836  16.062  0.0420  0.0501 -0.1809
20248TIP3    H182235   5.817   2.793  15.976  0.6457  3.0945 -1.9041
20248TIP3    H282236   5.856   2.923  16.043  0.7016  0.6788  3.2883
20249LIG      S82237   3.203   3.834  17.069  0.0830  0.0611 -0.2336
20249LIG     N182238   3.413   3.346  17.248  0.4997 -0.4688 -0.0625
20249LIG     N282239   3.286   3.602  17.243 -0.1069  0.4127 -0.0373
20249LIG     C182240   3.287   3.319  17.167  0.2097  0.3777  0.6964
20249LIG     C282241   3.254   3.436  17.065 -0.2326 -0.3223 -0.4719
20249LIG     C382242   3.240   3.569  17.110  0.0305  0.6295  0.2691
20249LIG     C482243   3.427   3.294  17.381 -0.2584  0.0600 -0.4222
20249LIG     C582244   3.535   3.367  17.169  0.0686  0.2899  0.3514
20249LIG     C682245   3.290   3.176  17.109  0.3322 -0.5418 -0.1291
20249LIG     C782246   3.191   3.663  17.018  0.6065 -0.2623 -0.7858
20249LIG     C882247   3.231   3.410  16.928 -0.3422  0.0066 -0.2297
20249LIG     C982248   3.366   3.718  17.257  0.0796  0.0821  0.2419
20249LIG    C1082249   3.360   3.372  17.497  0.6242 -0.0582  0.4251
20249LIG    C1182250   3.605   3.247  17.114  0.4461 -0.1028  0.2077
20249LIG    C1282251   3.176   3.634  16.880  0.0637 -1.1168 -0.3961
20249LIG    C1382252   3.190   3.500  16.839  0.7167 -0.0746  1.0138
20249LIG    C1482253   3.333   3.841  17.183 -0.2517 -0.0406 -0.0778
20249LIG    C1582254   3.488   3.706  17.330  0.0918 -0.1781 -0.0250
20249LIG    C1682255   3.436   3.943  17.183  0.3545  0.2701 -0.0069
20249LIG    C1782256   3.573   3.809  17.333 -0.4488 -0.3922 -0.2748
20249LIG    C1882257   3.553   3.924  17.267 -0.1301 -0.5640 -0.6828
20249LIG     H182258   3.202   3.320  17.238 -0.3643  0.6291  0.0217
20249LIG     H282259   3.535   3.292  17.408 -1.0067 -0.5795  2.9716
20249LIG     H382260   3.404   3.185  17.376  0.8791 -0.1565 -1.8987
20249LIG     H482261   3.605   3.417  17.240  2.4036 -0.5110 -1.2419
20249LIG     H582262   3.522   3.447  17.093 -0.5940 -1.9710 -2.0393
20249LIG     H682263   3.184   3.172  17.073  0.1376  0.5828  0.2840
20249LIG     H782264   3.293   3.096  17.186  1.4285  0.0694  0.4727
20249LIG     H882265   3.369   3.145  17.037  0.1504 -1.2305 -0.0407
20249LIG     H982266   3.244   3.307  16.897 -1.1153 -0.2929  0.4074
20249LIG    H1082267   3.331   3.519  17.283  2.5258  1.5574 -0.4398
20249LIG    H1182268   3.249   3.372  17.488  0.6452 -0.3883  0.1679
20249LIG    H1282269   3.402   3.475  17.499  1.4207 -0.3790  0.6202
20249LIG    H1382270   3.385   3.318  17.591  3.6070  2.4425  1.2277
20249LIG    H1482271   3.709   3.268  17.083  0.5544 -2.7009 -1.6247
20249LIG    H1582272   3.558   3.199  17.024  0.6583  1.8424 -0.9852
20249LIG    H1682273   3.610   3.165  17.189 -0.1405 -0.6358 -0.3158
20249LIG    H1782274   3.131   3.710  16.818 -2.0438 -0.8024  1.4016
20249LIG    H1882275   3.147   3.473  16.743 -2.5665  0.2593  2.2448
20249LIG    H1982276   3.510   3.611  17.374 -0.8552 -0.3192  0.1670
20249LIG    H2082277   3.421   4.036  17.130  1.7505  1.4865  1.6238
20249LIG    H2182278   3.670   3.797  17.379 -0.5167 -1.6322 -0.4307
20249LIG    H2282279   3.622   4.007  17.261  1.2668 -1.4287  1.7083
   6.82468   6.82468  17.23919
