Title
82279
    1SAPS     N    1   2.879   2.928  11.096
    1SAPS   HN1    2   2.806   2.992  11.057
    1SAPS   HN2    3   2.919   2.977  11.179
    1SAPS   HN3    4   2.947   2.901  11.022
    1SAPS   C12    5   2.817   2.807  11.143
    1SAPS  H12A    6   2.837   2.788  11.247
    1SAPS   C13    7   2.670   2.808  11.127
    1SAPS  O13A    8   2.618   2.923  11.099
    1SAPS  O13B    9   2.601   2.720  11.191
    1SAPS   C11   10   2.867   2.685  11.059
    1SAPS  H11A   11   2.836   2.702  10.954
    1SAPS  H11B   12   2.817   2.591  11.092
    1SAPS     P   13   3.072   2.525  11.060
    1SAPS   O13   14   3.217   2.544  11.032
    1SAPS   O14   15   3.026   2.455  11.185
    1SAPS   O12   16   3.007   2.667  11.059
    1SAPS   O11   17   3.009   2.447  10.941
    1SAPS    C1   18   3.064   2.467  10.806
    1SAPS    HA   19   3.118   2.563  10.796
    1SAPS    HB   20   3.131   2.384  10.775
    1SAPS    C2   21   2.947   2.485  10.705
    1SAPS    HS   22   2.891   2.581  10.715
    1SAPS   O21   23   2.859   2.372  10.702
    1SAPS   C21   24   2.752   2.388  10.774
    1SAPS   O22   25   2.731   2.480  10.854
    1SAPS   C22   26   2.653   2.285  10.721
    1SAPS   H2R   27   2.706   2.216  10.652
    1SAPS   H2S   28   2.631   2.231  10.816
    1SAPS    C3   29   3.019   2.499  10.564
    1SAPS    HX   30   3.109   2.434  10.560
    1SAPS    HY   31   3.056   2.603  10.547
    1SAPS   O31   32   2.930   2.462  10.454
    1SAPS   C31   33   2.992   2.456  10.332
    1SAPS   O32   34   3.109   2.487  10.311
    1SAPS   C32   35   2.890   2.419  10.226
    1SAPS   H2X   36   2.850   2.510  10.177
    1SAPS   H2Y   37   2.803   2.373  10.276
    1SAPS   C23   38   2.527   2.352  10.670
    1SAPS   H3R   39   2.472   2.411  10.746
    1SAPS   H3S   40   2.456   2.272  10.638
    1SAPS   C24   41   2.551   2.439  10.542
    1SAPS   H4R   42   2.610   2.379  10.470
    1SAPS   H4S   43   2.608   2.534  10.549
    1SAPS   C25   44   2.420   2.473  10.477
    1SAPS   H5R   45   2.356   2.523  10.550
    1SAPS   C26   46   2.381   2.446  10.354
    1SAPS   H6R   47   2.285   2.487  10.320
    1SAPS   C27   48   2.467   2.392  10.239
    1SAPS   H7R   49   2.572   2.428  10.241
    1SAPS   H7S   50   2.421   2.441  10.150
    1SAPS   C28   51   2.473   2.246  10.221
    1SAPS   H8R   52   2.473   2.196  10.319
    1SAPS   C29   53   2.464   2.173  10.108
    1SAPS   H9R   54   2.477   2.064  10.118
    1SAPS  C210   55   2.434   2.238   9.973
    1SAPS  H10R   56   2.526   2.290   9.939
    1SAPS  H10S   57   2.352   2.313   9.976
    1SAPS  C211   58   2.404   2.131   9.867
    1SAPS  H11R   59   2.346   2.045   9.905
    1SAPS  C212   60   2.439   2.139   9.735
    1SAPS  H12R   61   2.401   2.064   9.664
    1SAPS  C213   62   2.525   2.258   9.684
    1SAPS  H13R   63   2.506   2.349   9.745
    1SAPS  H13S   64   2.495   2.288   9.581
    1SAPS  C214   65   2.675   2.206   9.691
    1SAPS  H14R   66   2.687   2.140   9.778
    1SAPS  C215   67   2.764   2.214   9.592
    1SAPS  H15R   68   2.851   2.146   9.590
    1SAPS  C216   69   2.735   2.267   9.460
    1SAPS  H16R   70   2.832   2.282   9.408
    1SAPS  H16S   71   2.689   2.368   9.464
    1SAPS  C217   72   2.646   2.174   9.384
    1SAPS  H17R   73   2.553   2.140   9.434
    1SAPS  H17S   74   2.703   2.083   9.355
    1SAPS  C218   75   2.602   2.219   9.244
    1SAPS  H18R   76   2.682   2.242   9.171
    1SAPS  H18S   77   2.539   2.310   9.254
    1SAPS  C219   78   2.511   2.111   9.176
    1SAPS  H19R   79   2.431   2.088   9.250
    1SAPS  H19S   80   2.572   2.018   9.178
    1SAPS  C220   81   2.475   2.137   9.032
    1SAPS  H20R   82   2.402   2.219   9.013
    1SAPS  H20S   83   2.431   2.047   8.985
    1SAPS  H20T   84   2.565   2.170   8.975
    1SAPS   C33   85   2.944   2.324  10.110
    1SAPS   H3X   86   2.856   2.289  10.052
    1SAPS   H3Y   87   2.992   2.231  10.147
    1SAPS   C34   88   3.037   2.394  10.012
    1SAPS   H4X   89   3.136   2.385  10.063
    1SAPS   H4Y   90   3.011   2.501   9.996
    1SAPS   C35   91   3.052   2.316   9.880
    1SAPS   H5X   92   2.965   2.339   9.815
    1SAPS   H5Y   93   3.050   2.206   9.899
    1SAPS   C36   94   3.179   2.344   9.800
    1SAPS   H6X   95   3.202   2.260   9.731
    1SAPS   H6Y   96   3.263   2.350   9.873
    1SAPS   C37   97   3.176   2.468   9.713
    1SAPS   H7X   98   3.280   2.484   9.678
    1SAPS   H7Y   99   3.156   2.557   9.777
    1SAPS   C38  100   3.090   2.450   9.587
    1SAPS   H8X  101   2.981   2.434   9.602
    1SAPS   H8Y  102   3.129   2.360   9.534
    1SAPS   C39  103   3.097   2.569   9.490
    1SAPS   H9X  104   3.201   2.609   9.484
    1SAPS   H9Y  105   3.038   2.652   9.533
    1SAPS  C310  106   3.054   2.548   9.356
    1SAPS  H10X  107   2.946   2.521   9.351
    1SAPS  H10Y  108   3.113   2.465   9.313
    1SAPS  C311  109   3.059   2.679   9.281
    1SAPS  H11X  110   3.162   2.720   9.266
    1SAPS  H11Y  111   2.997   2.760   9.326
    1SAPS  C312  112   2.996   2.661   9.138
    1SAPS  H12X  113   2.896   2.619   9.160
    1SAPS  H12Y  114   3.057   2.587   9.081
    1SAPS  C313  115   2.976   2.791   9.050
    1SAPS  H13X  116   2.969   2.880   9.116
    1SAPS  H13Y  117   2.887   2.787   8.982
    1SAPS  C314  118   3.098   2.823   8.963
    1SAPS  H14X  119   3.079   2.762   8.873
    1SAPS  H14Y  120   3.190   2.781   9.009
    1SAPS  C315  121   3.116   2.973   8.926
    1SAPS  H15X  122   3.121   3.025   9.024
    1SAPS  H15Y  123   3.039   3.019   8.860
    1SAPS  C316  124   3.247   2.987   8.848
    1SAPS  H16X  125   3.317   2.912   8.891
    1SAPS  H16Y  126   3.298   3.086   8.850
    1SAPS  C317  127   3.241   2.947   8.697
    1SAPS  H17X  128   3.180   3.021   8.641
    1SAPS  H17Y  129   3.184   2.852   8.696
    1SAPS  C318  130   3.375   2.927   8.630
    1SAPS  H18X  131   3.442   3.015   8.632
    1SAPS  H18Y  132   3.373   2.883   8.527
    1SAPS  H18Z  133   3.431   2.856   8.695
    2SAPS     N  134   1.269   2.868  10.924
    2SAPS   HN1  135   1.261   2.972  10.928
    2SAPS   HN2  136   1.359   2.841  10.969
    2SAPS   HN3  137   1.259   2.836  10.826
    2SAPS   C12  138   1.151   2.794  10.994
    2SAPS  H12A  139   1.166   2.687  10.986
    2SAPS   C13  140   1.154   2.826  11.138
    2SAPS  O13A  141   1.238   2.909  11.188
    2SAPS  O13B  142   1.065   2.787  11.217
    2SAPS   C11  143   1.014   2.852  10.936
    2SAPS  H11A  144   1.007   2.962  10.953
    2SAPS  H11B  145   0.931   2.814  10.999
    2SAPS     P  146   0.858   2.859  10.731
    2SAPS   O13  147   0.754   2.833  10.831
    2SAPS   O14  148   0.867   3.001  10.690
    2SAPS   O12  149   1.001   2.826  10.796
    2SAPS   O11  150   0.855   2.767  10.608
    2SAPS    C1  151   0.981   2.730  10.546
    2SAPS    HA  152   1.033   2.821  10.511
    2SAPS    HB  153   1.038   2.665  10.617
    2SAPS    C2  154   0.973   2.627  10.427
    2SAPS    HS  155   1.071   2.584  10.400
    2SAPS   O21  156   0.913   2.683  10.311
    2SAPS   C21  157   1.008   2.744  10.233
    2SAPS   O22  158   1.125   2.752  10.256
    2SAPS   C22  159   0.962   2.758  10.097
    2SAPS   H2R  160   0.943   2.655  10.060
    2SAPS   H2S  161   0.858   2.797  10.098
    2SAPS    C3  162   0.885   2.507  10.472
    2SAPS    HX  163   0.785   2.554  10.479
    2SAPS    HY  164   0.911   2.471  10.574
    2SAPS   O31  165   0.894   2.397  10.375
    2SAPS   C31  166   0.996   2.315  10.390
    2SAPS   O32  167   1.090   2.334  10.467
    2SAPS   C32  168   0.993   2.198  10.299
    2SAPS   H2X  169   0.899   2.141  10.319
    2SAPS   H2Y  170   1.072   2.123  10.320
    2SAPS   C23  171   1.051   2.852  10.006
    2SAPS   H3R  172   1.155   2.812  10.011
    2SAPS   H3S  173   1.051   2.957  10.041
    2SAPS   C24  174   1.016   2.861   9.856
    2SAPS   H4R  175   1.094   2.929   9.816
    2SAPS   H4S  176   0.917   2.910   9.841
    2SAPS   C25  177   1.032   2.725   9.786
    2SAPS   H5R  178   1.022   2.636   9.850
    2SAPS   C26  179   1.079   2.710   9.660
    2SAPS   H6R  180   1.108   2.608   9.630
    2SAPS   C27  181   1.127   2.811   9.561
    2SAPS   H7R  182   1.217   2.775   9.506
    2SAPS   H7S  183   1.155   2.906   9.611
    2SAPS   C28  184   1.004   2.834   9.472
    2SAPS   H8R  185   0.921   2.881   9.527
    2SAPS   C29  186   0.999   2.802   9.340
    2SAPS   H9R  187   0.905   2.832   9.289
    2SAPS  C210  188   1.104   2.747   9.247
    2SAPS  H10R  189   1.058   2.708   9.154
    2SAPS  H10S  190   1.163   2.675   9.307
    2SAPS  C211  191   1.198   2.851   9.198
    2SAPS  H11R  192   1.204   2.943   9.258
    2SAPS  C212  193   1.268   2.848   9.082
    2SAPS  H12R  194   1.336   2.929   9.050
    2SAPS  C213  195   1.256   2.734   8.980
    2SAPS  H13R  196   1.240   2.647   9.048
    2SAPS  H13S  197   1.354   2.726   8.928
    2SAPS  C214  198   1.146   2.748   8.880
    2SAPS  H14R  199   1.048   2.763   8.926
    2SAPS  C215  200   1.146   2.731   8.748
    2SAPS  H15R  201   1.051   2.752   8.696
    2SAPS  C216  202   1.271   2.694   8.669
    2SAPS  H16R  203   1.302   2.592   8.700
    2SAPS  H16S  204   1.359   2.756   8.698
    2SAPS  C217  205   1.243   2.714   8.518
    2SAPS  H17R  206   1.339   2.713   8.463
    2SAPS  H17S  207   1.202   2.815   8.499
    2SAPS  C218  208   1.148   2.611   8.458
    2SAPS  H18R  209   1.157   2.618   8.348
    2SAPS  H18S  210   1.046   2.628   8.500
    2SAPS  C219  211   1.198   2.468   8.478
    2SAPS  H19R  212   1.171   2.435   8.580
    2SAPS  H19S  213   1.309   2.464   8.482
    2SAPS  C220  214   1.152   2.368   8.375
    2SAPS  H20R  215   1.194   2.266   8.388
    2SAPS  H20S  216   1.189   2.405   8.277
    2SAPS  H20T  217   1.042   2.370   8.362
    2SAPS   C33  218   1.003   2.244  10.155
    2SAPS   H3X  219   0.911   2.299  10.126
    2SAPS   H3Y  220   0.998   2.153  10.090
    2SAPS   C34  221   1.128   2.319  10.100
    2SAPS   H4X  222   1.219   2.257  10.082
    2SAPS   H4Y  223   1.153   2.396  10.175
    2SAPS   C35  224   1.110   2.372   9.957
    2SAPS   H5X  225   1.204   2.413   9.916
    2SAPS   H5Y  226   1.028   2.446   9.970
    2SAPS   C36  227   1.072   2.265   9.852
    2SAPS   H6X  228   0.970   2.228   9.875
    2SAPS   H6Y  229   1.144   2.181   9.864
    2SAPS   C37  230   1.077   2.305   9.706
    2SAPS   H7X  231   1.173   2.273   9.660
    2SAPS   H7Y  232   1.065   2.413   9.682
    2SAPS   C38  233   0.968   2.239   9.630
    2SAPS   H8X  234   0.869   2.285   9.652
    2SAPS   H8Y  235   0.954   2.134   9.662
    2SAPS   C39  236   0.997   2.250   9.484
    2SAPS   H9X  237   1.095   2.208   9.455
    2SAPS   H9Y  238   1.016   2.358   9.462
    2SAPS  C310  239   0.893   2.193   9.386
    2SAPS  H10X  240   0.800   2.250   9.410
    2SAPS  H10Y  241   0.878   2.085   9.405
    2SAPS  C311  242   0.923   2.209   9.235
    2SAPS  H11X  243   0.946   2.318   9.231
    2SAPS  H11Y  244   0.828   2.194   9.180
    2SAPS  C312  245   1.040   2.129   9.196
    2SAPS  H12X  246   1.007   2.024   9.184
    2SAPS  H12Y  247   1.131   2.125   9.260
    2SAPS  C313  248   1.096   2.185   9.060
    2SAPS  H13X  249   1.133   2.283   9.095
    2SAPS  H13Y  250   1.014   2.197   8.987
    2SAPS  C314  251   1.210   2.102   9.007
    2SAPS  H14X  252   1.162   2.003   8.990
    2SAPS  H14Y  253   1.288   2.083   9.084
    2SAPS  C315  254   1.261   2.160   8.872
    2SAPS  H15X  255   1.312   2.258   8.875
    2SAPS  H15Y  256   1.169   2.178   8.811
    2SAPS  C316  257   1.352   2.067   8.790
    2SAPS  H16X  258   1.303   1.967   8.785
    2SAPS  H16Y  259   1.448   2.063   8.845
    2SAPS  C317  260   1.377   2.106   8.649
    2SAPS  H17X  261   1.280   2.096   8.598
    2SAPS  H17Y  262   1.442   2.032   8.598
    2SAPS  C318  263   1.440   2.248   8.625
    2SAPS  H18X  264   1.542   2.233   8.667
    2SAPS  H18Y  265   1.381   2.333   8.665
    2SAPS  H18Z  266   1.451   2.275   8.518
    3SAPS     N  267   0.817   3.653  10.940
    3SAPS   HN1  268   0.749   3.609  10.874
    3SAPS   HN2  269   0.901   3.678  10.884
    3SAPS   HN3  270   0.837   3.583  11.014
    3SAPS   C12  271   0.754   3.776  11.003
    3SAPS  H12A  272   0.718   3.842  10.925
    3SAPS   C13  273   0.632   3.740  11.085
    3SAPS  O13A  274   0.594   3.623  11.103
    3SAPS  O13B  275   0.572   3.839  11.132
    3SAPS   C11  276   0.862   3.859  11.078
    3SAPS  H11A  277   0.873   3.806  11.176
    3SAPS  H11B  278   0.818   3.958  11.101
    3SAPS     P  279   1.023   3.978  10.917
    3SAPS   O13  280   1.081   4.078  11.008
    3SAPS   O14  281   1.110   3.931  10.803
    3SAPS   O12  282   0.982   3.857  11.006
    3SAPS   O11  283   0.889   4.033  10.870
    3SAPS    C1  284   0.815   4.009  10.742
    3SAPS    HA  285   0.811   3.902  10.714
    3SAPS    HB  286   0.712   4.045  10.762
    3SAPS    C2  287   0.885   4.088  10.629
    3SAPS    HS  288   0.989   4.047  10.622
    3SAPS   O21  289   0.875   4.232  10.674
    3SAPS   C21  290   0.984   4.301  10.652
    3SAPS   O22  291   1.090   4.263  10.605
    3SAPS   C22  292   0.954   4.440  10.707
    3SAPS   H2R  293   0.852   4.479  10.690
    3SAPS   H2S  294   0.968   4.441  10.818
    3SAPS    C3  295   0.816   4.069  10.490
    3SAPS    HX  296   0.708   4.070  10.517
    3SAPS    HY  297   0.825   3.966  10.450
    3SAPS   O31  298   0.849   4.174  10.391
    3SAPS   C31  299   0.961   4.145  10.331
    3SAPS   O32  300   1.019   4.041  10.338
    3SAPS   C32  301   1.017   4.267  10.260
    3SAPS   H2X  302   1.127   4.263  10.242
    3SAPS   H2Y  303   1.001   4.356  10.324
    3SAPS   C23  304   1.040   4.558  10.650
    3SAPS   H3R  305   1.136   4.513  10.618
    3SAPS   H3S  306   1.073   4.633  10.725
    3SAPS   C24  307   0.971   4.631  10.529
    3SAPS   H4R  308   0.868   4.655  10.562
    3SAPS   H4S  309   0.960   4.558  10.446
    3SAPS   C25  310   1.050   4.752  10.488
    3SAPS   H5R  311   1.038   4.830  10.565
    3SAPS   C26  312   1.143   4.762  10.394
    3SAPS   H6R  313   1.194   4.859  10.387
    3SAPS   C27  314   1.167   4.665  10.273
    3SAPS   H7R  315   1.098   4.579  10.288
    3SAPS   H7S  316   1.271   4.628  10.275
    3SAPS   C28  317   1.133   4.734  10.146
    3SAPS   H8R  318   1.031   4.736  10.106
    3SAPS   C29  319   1.215   4.820  10.084
    3SAPS   H9R  320   1.189   4.846   9.980
    3SAPS  C210  321   1.350   4.861  10.124
    3SAPS  H10R  322   1.426   4.808  10.063
    3SAPS  H10S  323   1.361   4.836  10.232
    3SAPS  C211  324   1.362   5.003  10.097
    3SAPS  H11R  325   1.344   5.073  10.180
    3SAPS  C212  326   1.400   5.054   9.973
    3SAPS  H12R  327   1.414   5.162   9.959
    3SAPS  C213  328   1.436   4.984   9.845
    3SAPS  H13R  329   1.355   4.986   9.769
    3SAPS  H13S  330   1.451   4.876   9.866
    3SAPS  C214  331   1.568   5.036   9.793
    3SAPS  H14R  332   1.649   5.016   9.864
    3SAPS  C215  333   1.580   5.081   9.672
    3SAPS  H15R  334   1.675   5.133   9.654
    3SAPS  C216  335   1.474   5.122   9.576
    3SAPS  H16R  336   1.377   5.148   9.624
    3SAPS  H16S  337   1.467   5.043   9.498
    3SAPS  C217  338   1.508   5.260   9.518
    3SAPS  H17R  339   1.540   5.337   9.592
    3SAPS  H17S  340   1.415   5.296   9.470
    3SAPS  C218  341   1.621   5.259   9.402
    3SAPS  H18R  342   1.606   5.175   9.330
    3SAPS  H18S  343   1.718   5.242   9.454
    3SAPS  C219  344   1.619   5.399   9.329
    3SAPS  H19R  345   1.516   5.413   9.289
    3SAPS  H19S  346   1.688   5.388   9.243
    3SAPS  C220  347   1.656   5.508   9.421
    3SAPS  H20R  348   1.722   5.474   9.503
    3SAPS  H20S  349   1.561   5.538   9.471
    3SAPS  H20T  350   1.702   5.599   9.378
    3SAPS   C33  351   0.949   4.304  10.126
    3SAPS   H3X  352   0.972   4.407  10.092
    3SAPS   H3Y  353   0.840   4.305  10.145
    3SAPS   C34  354   0.983   4.211  10.007
    3SAPS   H4X  355   0.894   4.144  10.003
    3SAPS   H4Y  356   1.073   4.148  10.025
    3SAPS   C35  357   0.999   4.289   9.873
    3SAPS   H5X  358   1.079   4.365   9.886
    3SAPS   H5Y  359   0.905   4.348   9.862
    3SAPS   C36  360   1.052   4.208   9.754
    3SAPS   H6X  361   1.029   4.099   9.760
    3SAPS   H6Y  362   1.161   4.225   9.767
    3SAPS   C37  363   1.001   4.268   9.624
    3SAPS   H7X  364   1.020   4.377   9.629
    3SAPS   H7Y  365   0.895   4.246   9.602
    3SAPS   C38  366   1.077   4.219   9.499
    3SAPS   H8X  367   1.066   4.111   9.477
    3SAPS   H8Y  368   1.185   4.219   9.525
    3SAPS   C39  369   1.049   4.299   9.372
    3SAPS   H9X  370   1.095   4.400   9.385
    3SAPS   H9Y  371   0.941   4.324   9.363
    3SAPS  C310  372   1.110   4.220   9.258
    3SAPS  H10X  373   1.041   4.134   9.246
    3SAPS  H10Y  374   1.206   4.173   9.289
    3SAPS  C311  375   1.133   4.295   9.123
    3SAPS  H11X  376   1.206   4.377   9.138
    3SAPS  H11Y  377   1.038   4.333   9.078
    3SAPS  C312  378   1.186   4.196   9.026
    3SAPS  H12X  379   1.122   4.105   9.025
    3SAPS  H12Y  380   1.289   4.162   9.049
    3SAPS  C313  381   1.212   4.251   8.888
    3SAPS  H13X  382   1.270   4.345   8.900
    3SAPS  H13Y  383   1.113   4.259   8.837
    3SAPS  C314  384   1.289   4.142   8.813
    3SAPS  H14X  385   1.251   4.039   8.832
    3SAPS  H14Y  386   1.391   4.147   8.858
    3SAPS  C315  387   1.288   4.183   8.665
    3SAPS  H15X  388   1.343   4.279   8.666
    3SAPS  H15Y  389   1.183   4.192   8.629
    3SAPS  C316  390   1.366   4.091   8.564
    3SAPS  H16X  391   1.329   3.990   8.593
    3SAPS  H16Y  392   1.473   4.086   8.593
    3SAPS  C317  393   1.348   4.109   8.415
    3SAPS  H17X  394   1.437   4.078   8.356
    3SAPS  H17Y  395   1.349   4.220   8.406
    3SAPS  C318  396   1.219   4.058   8.351
    3SAPS  H18X  397   1.131   4.074   8.417
    3SAPS  H18Y  398   1.216   3.950   8.326
    3SAPS  H18Z  399   1.199   4.119   8.260
    4SAPS     N  400   3.166   5.370  10.642
    4SAPS   HN1  401   3.071   5.401  10.670
    4SAPS   HN2  402   3.187   5.370  10.540
    4SAPS   HN3  403   3.164   5.272  10.675
    4SAPS   C12  404   3.263   5.451  10.728
    4SAPS  H12A  405   3.295   5.533  10.666
    4SAPS   C13  406   3.190   5.511  10.858
    4SAPS  O13A  407   3.081   5.457  10.900
    4SAPS  O13B  408   3.247   5.607  10.924
    4SAPS   C11  409   3.376   5.357  10.777
    4SAPS  H11A  410   3.336   5.282  10.849
    4SAPS  H11B  411   3.457   5.412  10.830
    4SAPS     P  412   3.548   5.177  10.696
    4SAPS   O13  413   3.566   5.168  10.845
    4SAPS   O14  414   3.507   5.054  10.621
    4SAPS   O12  415   3.441   5.290  10.666
    4SAPS   O11  416   3.679   5.232  10.636
    4SAPS    C1  417   3.721   5.365  10.638
    4SAPS    HA  418   3.676   5.415  10.727
    4SAPS    HB  419   3.831   5.374  10.643
    4SAPS    C2  420   3.668   5.430  10.508
    4SAPS    HS  421   3.559   5.419  10.524
    4SAPS   O21  422   3.724   5.364  10.385
    4SAPS   C21  423   3.624   5.331  10.308
    4SAPS   O22  424   3.506   5.370  10.325
    4SAPS   C22  425   3.654   5.211  10.220
    4SAPS   H2R  426   3.758   5.223  10.185
    4SAPS   H2S  427   3.651   5.117  10.279
    4SAPS    C3  428   3.683   5.581  10.504
    4SAPS    HX  429   3.793   5.593  10.513
    4SAPS    HY  430   3.633   5.619  10.595
    4SAPS   O31  431   3.623   5.638  10.380
    4SAPS   C31  432   3.499   5.687  10.379
    4SAPS   O32  433   3.421   5.679  10.475
    4SAPS   C32  434   3.464   5.759  10.244
    4SAPS   H2X  435   3.530   5.848  10.236
    4SAPS   H2Y  436   3.359   5.795  10.243
    4SAPS   C23  437   3.565   5.189  10.103
    4SAPS   H3R  438   3.525   5.277  10.048
    4SAPS   H3S  439   3.475   5.145  10.152
    4SAPS   C24  440   3.625   5.084  10.008
    4SAPS   H4R  441   3.645   4.994  10.070
    4SAPS   H4S  442   3.728   5.104   9.972
    4SAPS   C25  443   3.531   5.047   9.897
    4SAPS   H5R  444   3.429   5.038   9.938
    4SAPS   C26  445   3.559   5.055   9.764
    4SAPS   H6R  446   3.475   5.047   9.693
    4SAPS   C27  447   3.693   5.084   9.704
    4SAPS   H7R  448   3.695   5.013   9.619
    4SAPS   H7S  449   3.776   5.054   9.770
    4SAPS   C28  450   3.731   5.224   9.667
    4SAPS   H8R  451   3.744   5.292   9.753
    4SAPS   C29  452   3.745   5.271   9.539
    4SAPS   H9R  453   3.775   5.376   9.522
    4SAPS  C210  454   3.713   5.196   9.414
    4SAPS  H10R  455   3.661   5.262   9.341
    4SAPS  H10S  456   3.644   5.112   9.434
    4SAPS  C211  457   3.839   5.141   9.350
    4SAPS  H11R  458   3.928   5.135   9.415
    4SAPS  C212  459   3.852   5.089   9.227
    4SAPS  H12R  460   3.957   5.073   9.197
    4SAPS  C213  461   3.748   5.062   9.122
    4SAPS  H13R  462   3.735   5.153   9.060
    4SAPS  H13S  463   3.651   5.060   9.178
    4SAPS  C214  464   3.755   4.940   9.038
    4SAPS  H14R  465   3.847   4.931   8.978
    4SAPS  C215  466   3.679   4.829   9.051
    4SAPS  H15R  467   3.703   4.738   8.994
    4SAPS  C216  468   3.541   4.818   9.113
    4SAPS  H16R  469   3.467   4.778   9.040
    4SAPS  H16S  470   3.495   4.918   9.133
    4SAPS  C217  471   3.538   4.744   9.244
    4SAPS  H17R  472   3.588   4.645   9.244
    4SAPS  H17S  473   3.431   4.734   9.274
    4SAPS  C218  474   3.621   4.819   9.351
    4SAPS  H18R  475   3.573   4.919   9.359
    4SAPS  H18S  476   3.730   4.826   9.327
    4SAPS  C219  477   3.627   4.755   9.492
    4SAPS  H19R  478   3.539   4.792   9.548
    4SAPS  H19S  479   3.714   4.804   9.540
    4SAPS  C220  480   3.661   4.601   9.489
    4SAPS  H20R  481   3.674   4.562   9.592
    4SAPS  H20S  482   3.753   4.590   9.427
    4SAPS  H20T  483   3.573   4.545   9.450
    4SAPS   C33  484   3.484   5.676  10.119
    4SAPS   H3X  485   3.424   5.584  10.132
    4SAPS   H3Y  486   3.584   5.629  10.107
    4SAPS   C34  487   3.434   5.752   9.990
    4SAPS   H4X  488   3.491   5.848   9.994
    4SAPS   H4Y  489   3.324   5.768   9.999
    4SAPS   C35  490   3.468   5.676   9.862
    4SAPS   H5X  491   3.578   5.658   9.859
    4SAPS   H5Y  492   3.466   5.746   9.775
    4SAPS   C36  493   3.388   5.551   9.845
    4SAPS   H6X  494   3.283   5.586   9.837
    4SAPS   H6Y  495   3.390   5.472   9.923
    4SAPS   C37  496   3.423   5.485   9.711
    4SAPS   H7X  497   3.366   5.390   9.714
    4SAPS   H7Y  498   3.530   5.459   9.702
    4SAPS   C38  499   3.369   5.564   9.589
    4SAPS   H8X  500   3.421   5.662   9.584
    4SAPS   H8Y  501   3.263   5.587   9.610
    4SAPS   C39  502   3.372   5.491   9.452
    4SAPS   H9X  503   3.303   5.404   9.456
    4SAPS   H9Y  504   3.473   5.445   9.441
    4SAPS  C310  505   3.340   5.588   9.336
    4SAPS  H10X  506   3.422   5.662   9.349
    4SAPS  H10Y  507   3.243   5.641   9.351
    4SAPS  C311  508   3.331   5.511   9.205
    4SAPS  H11X  509   3.239   5.453   9.225
    4SAPS  H11Y  510   3.419   5.447   9.179
    4SAPS  C312  511   3.302   5.591   9.080
    4SAPS  H12X  512   3.277   5.515   9.003
    4SAPS  H12Y  513   3.391   5.634   9.030
    4SAPS  C313  514   3.178   5.677   9.082
    4SAPS  H13X  515   3.197   5.778   9.125
    4SAPS  H13Y  516   3.102   5.619   9.139
    4SAPS  C314  517   3.099   5.695   8.948
    4SAPS  H14X  518   3.083   5.593   8.908
    4SAPS  H14Y  519   3.159   5.759   8.879
    4SAPS  C315  520   2.960   5.752   8.966
    4SAPS  H15X  521   2.950   5.840   9.034
    4SAPS  H15Y  522   2.911   5.669   9.021
    4SAPS  C316  523   2.902   5.774   8.830
    4SAPS  H16X  524   2.873   5.672   8.797
    4SAPS  H16Y  525   2.966   5.825   8.755
    4SAPS  C317  526   2.780   5.861   8.830
    4SAPS  H17X  527   2.808   5.968   8.842
    4SAPS  H17Y  528   2.710   5.832   8.911
    4SAPS  C318  529   2.698   5.848   8.696
    4SAPS  H18X  530   2.594   5.887   8.710
    4SAPS  H18Y  531   2.682   5.741   8.673
    4SAPS  H18Z  532   2.747   5.902   8.612
    5SAPS     N  533   6.753   4.049  11.092
    5SAPS   HN1  534   6.843   4.030  11.141
    5SAPS   HN2  535   6.682   3.982  11.127
    5SAPS   HN3  536   6.772   4.035  10.991
    5SAPS   C12  537   6.725   4.189  11.125
    5SAPS  H12A  538   6.634   4.214  11.071
    5SAPS   C13  539   6.702   4.221  11.277
    5SAPS  O13A  540   6.689   4.126  11.359
    5SAPS  O13B  541   6.676   4.345  11.299
    5SAPS   C11  542   6.841   4.275  11.066
    5SAPS  H11A  543   6.925   4.276  11.138
    5SAPS  H11B  544   6.810   4.382  11.062
    5SAPS     P  545   7.023   4.244  10.886
    5SAPS   O13  546   7.113   4.136  10.938
    5SAPS   O14  547   7.019   4.261  10.740
    5SAPS   O12  548   6.874   4.227  10.943
    5SAPS   O11  549   7.069   4.376  10.948
    5SAPS    C1  550   7.208   4.411  10.966
    5SAPS    HA  551   7.216   4.504  11.026
    5SAPS    HB  552   7.271   4.335  11.016
    5SAPS    C2  553   7.289   4.444  10.836
    5SAPS    HS  554   7.382   4.493  10.871
    5SAPS   O21  555   7.215   4.540  10.749
    5SAPS   C21  556   7.204   4.665  10.786
    5SAPS   O22  557   7.235   4.717  10.893
    5SAPS   C22  558   7.130   4.742  10.669
    5SAPS   H2R  559   7.020   4.725  10.675
    5SAPS   H2S  560   7.131   4.851  10.687
    5SAPS    C3  561   7.348   4.321  10.749
    5SAPS    HX  562   7.268   4.251  10.718
    5SAPS    HY  563   7.407   4.266  10.825
    5SAPS   O31  564   7.439   4.368  10.644
    5SAPS   C31  565   7.383   4.394  10.526
    5SAPS   O32  566   7.276   4.349  10.490
    5SAPS   C32  567   7.473   4.482  10.449
    5SAPS   H2X  568   7.571   4.435  10.429
    5SAPS   H2Y  569   7.494   4.572  10.511
    5SAPS   C23  570   7.202   4.718  10.528
    5SAPS   H3R  571   7.128   4.733  10.446
    5SAPS   H3S  572   7.232   4.612  10.517
    5SAPS   C24  573   7.316   4.817  10.507
    5SAPS   H4R  574   7.388   4.770  10.436
    5SAPS   H4S  575   7.372   4.827  10.602
    5SAPS   C25  576   7.279   4.962  10.458
    5SAPS   H5R  577   7.252   5.035  10.536
    5SAPS   C26  578   7.277   5.007  10.328
    5SAPS   H6R  579   7.270   5.116  10.312
    5SAPS   C27  580   7.291   4.923  10.205
    5SAPS   H7R  581   7.353   4.832  10.222
    5SAPS   H7S  582   7.342   4.971  10.118
    5SAPS   C28  583   7.153   4.876  10.165
    5SAPS   H8R  584   7.112   4.798  10.232
    5SAPS   C29  585   7.084   4.910  10.053
    5SAPS   H9R  586   6.986   4.860  10.039
    5SAPS  C210  587   7.139   4.986   9.934
    5SAPS  H10R  588   7.222   5.052   9.967
    5SAPS  H10S  589   7.061   5.049   9.886
    5SAPS  C211  590   7.210   4.906   9.828
    5SAPS  H11R  591   7.238   4.805   9.861
    5SAPS  C212  592   7.223   4.933   9.693
    5SAPS  H12R  593   7.279   4.862   9.631
    5SAPS  C213  594   7.166   5.044   9.613
    5SAPS  H13R  595   7.092   5.109   9.664
    5SAPS  H13S  596   7.097   4.998   9.539
    5SAPS  C214  597   7.268   5.117   9.534
    5SAPS  H14R  598   7.370   5.092   9.566
    5SAPS  C215  599   7.250   5.217   9.446
    5SAPS  H15R  600   7.334   5.259   9.388
    5SAPS  C216  601   7.118   5.260   9.385
    5SAPS  H16R  602   7.090   5.346   9.450
    5SAPS  H16S  603   7.042   5.181   9.403
    5SAPS  C217  604   7.118   5.290   9.233
    5SAPS  H17R  605   7.175   5.383   9.215
    5SAPS  H17S  606   7.011   5.311   9.207
    5SAPS  C218  607   7.168   5.175   9.148
    5SAPS  H18R  608   7.275   5.159   9.172
    5SAPS  H18S  609   7.113   5.079   9.167
    5SAPS  C219  610   7.170   5.186   8.995
    5SAPS  H19R  611   7.063   5.209   8.975
    5SAPS  H19S  612   7.195   5.086   8.953
    5SAPS  C220  613   7.266   5.291   8.942
    5SAPS  H20R  614   7.269   5.377   9.012
    5SAPS  H20S  615   7.239   5.317   8.837
    5SAPS  H20T  616   7.368   5.246   8.943
    5SAPS   C33  617   7.425   4.519  10.299
    5SAPS   H3X  618   7.333   4.581  10.300
    5SAPS   H3Y  619   7.389   4.424  10.253
    5SAPS   C34  620   7.531   4.582  10.215
    5SAPS   H4X  621   7.629   4.534  10.237
    5SAPS   H4Y  622   7.551   4.688  10.245
    5SAPS   C35  623   7.503   4.569  10.060
    5SAPS   H5X  624   7.400   4.608  10.046
    5SAPS   H5Y  625   7.511   4.459  10.044
    5SAPS   C36  626   7.603   4.628   9.957
    5SAPS   H6X  627   7.701   4.575   9.958
    5SAPS   H6Y  628   7.630   4.730   9.992
    5SAPS   C37  629   7.549   4.637   9.812
    5SAPS   H7X  630   7.471   4.716   9.810
    5SAPS   H7Y  631   7.481   4.551   9.794
    5SAPS   C38  632   7.654   4.644   9.700
    5SAPS   H8X  633   7.735   4.569   9.699
    5SAPS   H8Y  634   7.704   4.741   9.719
    5SAPS   C39  635   7.585   4.637   9.561
    5SAPS   H9X  636   7.503   4.711   9.547
    5SAPS   H9Y  637   7.551   4.531   9.564
    5SAPS  C310  638   7.674   4.642   9.440
    5SAPS  H10X  639   7.735   4.550   9.436
    5SAPS  H10Y  640   7.746   4.727   9.446
    5SAPS  C311  641   7.597   4.651   9.307
    5SAPS  H11X  642   7.573   4.755   9.277
    5SAPS  H11Y  643   7.493   4.618   9.326
    5SAPS  C312  644   7.663   4.573   9.194
    5SAPS  H12X  645   7.666   4.463   9.209
    5SAPS  H12Y  646   7.763   4.619   9.182
    5SAPS  C313  647   7.582   4.591   9.062
    5SAPS  H13X  648   7.582   4.702   9.050
    5SAPS  H13Y  649   7.478   4.560   9.086
    5SAPS  C314  650   7.628   4.532   8.927
    5SAPS  H14X  651   7.546   4.555   8.856
    5SAPS  H14Y  652   7.635   4.421   8.930
    5SAPS  C315  653   7.760   4.583   8.874
    5SAPS  H15X  654   7.847   4.515   8.889
    5SAPS  H15Y  655   7.784   4.674   8.932
    5SAPS  C316  656   7.753   4.613   8.725
    5SAPS  H16X  657   7.677   4.693   8.708
    5SAPS  H16Y  658   7.741   4.529   8.654
    5SAPS  C317  659   7.872   4.699   8.678
    5SAPS  H17X  660   7.884   4.778   8.755
    5SAPS  H17Y  661   7.847   4.755   8.585
    5SAPS  C318  662   8.003   4.611   8.662
    5SAPS  H18X  663   7.969   4.524   8.602
    5SAPS  H18Y  664   8.032   4.582   8.765
    5SAPS  H18Z  665   8.080   4.666   8.604
    6SAPS     N  666   0.355   3.873  10.955
    6SAPS   HN1  667   0.412   3.868  11.041
    6SAPS   HN2  668   0.414   3.856  10.871
    6SAPS   HN3  669   0.314   3.969  10.955
    6SAPS   C12  670   0.250   3.782  10.966
    6SAPS  H12A  671   0.290   3.694  11.015
    6SAPS   C13  672   0.151   3.833  11.072
    6SAPS  O13A  673   0.179   3.935  11.148
    6SAPS  O13B  674   0.062   3.749  11.107
    6SAPS   C11  675   0.174   3.755  10.836
    6SAPS  H11A  676   0.077   3.708  10.863
    6SAPS  H11B  677   0.227   3.691  10.762
    6SAPS     P  678   0.017   3.920  10.697
    6SAPS   O13  679  -0.067   3.951  10.821
    6SAPS   O14  680   0.031   4.033  10.607
    6SAPS   O12  681   0.156   3.877  10.765
    6SAPS   O11  682  -0.039   3.791  10.620
    6SAPS    C1  683   0.033   3.711  10.526
    6SAPS    HA  684   0.131   3.754  10.498
    6SAPS    HB  685   0.057   3.615  10.577
    6SAPS    C2  686  -0.050   3.669  10.400
    6SAPS    HS  687  -0.000   3.590  10.339
    6SAPS   O21  688  -0.084   3.783  10.316
    6SAPS   C21  689   0.019   3.804  10.233
    6SAPS   O22  690   0.129   3.754  10.247
    6SAPS   C22  691  -0.032   3.883  10.116
    6SAPS   H2R  692  -0.109   3.820  10.065
    6SAPS   H2S  693  -0.092   3.970  10.148
    6SAPS    C3  694  -0.177   3.594  10.446
    6SAPS    HX  695  -0.237   3.664  10.507
    6SAPS    HY  696  -0.159   3.504  10.509
    6SAPS   O31  697  -0.248   3.553  10.327
    6SAPS   C31  698  -0.344   3.467  10.352
    6SAPS   O32  699  -0.380   3.431  10.465
    6SAPS   C32  700  -0.411   3.430  10.217
    6SAPS   H2X  701  -0.351   3.453  10.127
    6SAPS   H2Y  702  -0.501   3.496  10.220
    6SAPS   C23  703   0.083   3.926  10.022
    6SAPS   H3R  704   0.130   3.835   9.977
    6SAPS   H3S  705   0.171   3.970  10.075
    6SAPS   C24  706   0.033   4.018   9.905
    6SAPS   H4R  707  -0.018   4.105   9.951
    6SAPS   H4S  708  -0.051   3.959   9.861
    6SAPS   C25  709   0.146   4.071   9.812
    6SAPS   H5R  710   0.219   4.128   9.870
    6SAPS   C26  711   0.146   4.078   9.682
    6SAPS   H6R  712   0.235   4.114   9.628
    6SAPS   C27  713   0.038   4.020   9.597
    6SAPS   H7R  714  -0.044   4.094   9.581
    6SAPS   H7S  715  -0.004   3.927   9.642
    6SAPS   C28  716   0.083   3.969   9.463
    6SAPS   H8R  717   0.093   3.861   9.446
    6SAPS   C29  718   0.133   4.040   9.360
    6SAPS   H9R  719   0.153   3.987   9.265
    6SAPS  C210  720   0.142   4.189   9.346
    6SAPS  H10R  721   0.230   4.224   9.288
    6SAPS  H10S  722   0.161   4.238   9.444
    6SAPS  C211  723   0.021   4.267   9.293
    6SAPS  H11R  724  -0.074   4.251   9.346
    6SAPS  C212  725   0.012   4.330   9.175
    6SAPS  H12R  726  -0.083   4.376   9.144
    6SAPS  C213  727   0.114   4.355   9.070
    6SAPS  H13R  728   0.209   4.389   9.116
    6SAPS  H13S  729   0.088   4.440   9.004
    6SAPS  C214  730   0.132   4.233   8.980
    6SAPS  H14R  731   0.228   4.180   8.991
    6SAPS  C215  732   0.055   4.198   8.873
    6SAPS  H15R  733   0.081   4.107   8.818
    6SAPS  C216  734  -0.064   4.273   8.826
    6SAPS  H16R  735  -0.097   4.342   8.907
    6SAPS  H16S  736  -0.151   4.205   8.816
    6SAPS  C217  737  -0.029   4.359   8.711
    6SAPS  H17R  738  -0.006   4.292   8.626
    6SAPS  H17S  739   0.061   4.418   8.737
    6SAPS  C218  740  -0.128   4.471   8.667
    6SAPS  H18R  741  -0.149   4.536   8.754
    6SAPS  H18S  742  -0.226   4.427   8.638
    6SAPS  C219  743  -0.098   4.565   8.550
    6SAPS  H19R  744  -0.189   4.626   8.532
    6SAPS  H19S  745  -0.075   4.502   8.461
    6SAPS  C220  746   0.027   4.654   8.563
    6SAPS  H20R  747   0.117   4.599   8.528
    6SAPS  H20S  748   0.057   4.687   8.665
    6SAPS  H20T  749   0.016   4.743   8.496
    6SAPS   C33  750  -0.445   3.278  10.204
    6SAPS   H3X  751  -0.520   3.270  10.122
    6SAPS   H3Y  752  -0.497   3.242  10.295
    6SAPS   C34  753  -0.316   3.197  10.170
    6SAPS   H4X  754  -0.237   3.229  10.241
    6SAPS   H4Y  755  -0.287   3.231  10.068
    6SAPS   C35  756  -0.327   3.050  10.170
    6SAPS   H5X  757  -0.391   3.016  10.254
    6SAPS   H5Y  758  -0.228   3.002  10.175
    6SAPS   C36  759  -0.411   2.994  10.049
    6SAPS   H6X  760  -0.499   3.061  10.036
    6SAPS   H6Y  761  -0.437   2.889  10.075
    6SAPS   C37  762  -0.344   2.992   9.919
    6SAPS   H7X  763  -0.276   2.904   9.913
    6SAPS   H7Y  764  -0.275   3.079   9.914
    6SAPS   C38  765  -0.440   3.011   9.797
    6SAPS   H8X  766  -0.516   3.090   9.813
    6SAPS   H8Y  767  -0.496   2.915   9.792
    6SAPS   C39  768  -0.366   3.044   9.661
    6SAPS   H9X  769  -0.292   2.961   9.653
    6SAPS   H9Y  770  -0.308   3.138   9.661
    6SAPS  C310  771  -0.456   3.048   9.539
    6SAPS  H10X  772  -0.530   3.130   9.551
    6SAPS  H10Y  773  -0.511   2.951   9.542
    6SAPS  C311  774  -0.372   3.060   9.416
    6SAPS  H11X  775  -0.296   2.978   9.415
    6SAPS  H11Y  776  -0.308   3.151   9.417
    6SAPS  C312  777  -0.447   3.043   9.281
    6SAPS  H12X  778  -0.530   3.117   9.281
    6SAPS  H12Y  779  -0.492   2.942   9.275
    6SAPS  C313  780  -0.350   3.070   9.163
    6SAPS  H13X  781  -0.272   2.995   9.190
    6SAPS  H13Y  782  -0.316   3.176   9.164
    6SAPS  C314  783  -0.413   3.059   9.026
    6SAPS  H14X  784  -0.342   3.108   8.955
    6SAPS  H14Y  785  -0.507   3.118   9.032
    6SAPS  C315  786  -0.432   2.913   8.992
    6SAPS  H15X  787  -0.496   2.879   9.076
    6SAPS  H15Y  788  -0.334   2.862   9.006
    6SAPS  C316  789  -0.491   2.871   8.858
    6SAPS  H16X  790  -0.511   2.762   8.859
    6SAPS  H16Y  791  -0.422   2.901   8.777
    6SAPS  C317  792  -0.621   2.943   8.823
    6SAPS  H17X  793  -0.636   2.922   8.715
    6SAPS  H17Y  794  -0.607   3.053   8.827
    6SAPS  C318  795  -0.735   2.887   8.899
    6SAPS  H18X  796  -0.831   2.929   8.864
    6SAPS  H18Y  797  -0.738   2.909   9.008
    6SAPS  H18Z  798  -0.743   2.777   8.885
    7SAPS     N  799   1.805   4.732  10.691
    7SAPS   HN1  800   1.870   4.664  10.648
    7SAPS   HN2  801   1.743   4.692  10.764
    7SAPS   HN3  802   1.750   4.770  10.611
    7SAPS   C12  803   1.868   4.840  10.770
    7SAPS  H12A  804   1.797   4.908  10.814
    7SAPS   C13  805   1.947   4.781  10.889
    7SAPS  O13A  806   1.949   4.660  10.916
    7SAPS  O13B  807   2.036   4.854  10.941
    7SAPS   C11  808   1.966   4.923  10.686
    7SAPS  H11A  809   2.058   4.862  10.672
    7SAPS  H11B  810   2.017   5.007  10.738
    7SAPS     P  811   1.845   5.110  10.550
    7SAPS   O13  812   1.696   5.101  10.587
    7SAPS   O14  813   1.924   5.208  10.622
    7SAPS   O12  814   1.910   4.971  10.571
    7SAPS   O11  815   1.862   5.138  10.402
    7SAPS    C1  816   1.818   5.050  10.299
    7SAPS    HA  817   1.845   4.946  10.326
    7SAPS    HB  818   1.708   5.058  10.299
    7SAPS    C2  819   1.876   5.070  10.156
    7SAPS    HS  820   1.983   5.099  10.166
    7SAPS   O21  821   1.812   5.178  10.089
    7SAPS   C21  822   1.852   5.298  10.111
    7SAPS   O22  823   1.933   5.333  10.195
    7SAPS   C22  824   1.780   5.388  10.011
    7SAPS   H2R  825   1.769   5.339   9.912
    7SAPS   H2S  826   1.677   5.417  10.040
    7SAPS    C3  827   1.871   4.935  10.080
    7SAPS    HX  828   1.769   4.895  10.099
    7SAPS    HY  829   1.937   4.857  10.124
    7SAPS   O31  830   1.891   4.949   9.941
    7SAPS   C31  831   2.020   4.962   9.887
    7SAPS   O32  832   2.120   4.947   9.954
    7SAPS   C32  833   2.005   4.992   9.735
    7SAPS   H2X  834   1.899   4.972   9.708
    7SAPS   H2Y  835   2.075   4.921   9.684
    7SAPS   C23  836   1.858   5.521  10.006
    7SAPS   H3R  837   1.949   5.516   9.941
    7SAPS   H3S  838   1.894   5.561  10.103
    7SAPS   C24  839   1.762   5.631   9.946
    7SAPS   H4R  840   1.662   5.638   9.994
    7SAPS   H4S  841   1.730   5.596   9.846
    7SAPS   C25  842   1.838   5.762   9.933
    7SAPS   H5R  843   1.843   5.816  10.028
    7SAPS   C26  844   1.905   5.792   9.817
    7SAPS   H6R  845   1.962   5.886   9.814
    7SAPS   C27  846   1.909   5.710   9.685
    7SAPS   H7R  847   1.808   5.715   9.640
    7SAPS   H7S  848   1.928   5.601   9.697
    7SAPS   C28  849   2.016   5.766   9.594
    7SAPS   H8R  850   2.121   5.735   9.609
    7SAPS   C29  851   2.004   5.879   9.518
    7SAPS   H9R  852   2.096   5.921   9.476
    7SAPS  C210  853   1.876   5.964   9.517
    7SAPS  H10R  854   1.791   5.933   9.581
    7SAPS  H10S  855   1.841   5.956   9.412
    7SAPS  C211  856   1.922   6.101   9.550
    7SAPS  H11R  857   1.988   6.110   9.637
    7SAPS  C212  858   1.903   6.208   9.469
    7SAPS  H12R  859   1.943   6.301   9.513
    7SAPS  C213  860   1.821   6.212   9.340
    7SAPS  H13R  861   1.842   6.122   9.279
    7SAPS  H13S  862   1.839   6.306   9.283
    7SAPS  C214  863   1.670   6.209   9.373
    7SAPS  H14R  864   1.637   6.124   9.434
    7SAPS  C215  865   1.575   6.293   9.322
    7SAPS  H15R  866   1.471   6.258   9.331
    7SAPS  C216  867   1.601   6.400   9.220
    7SAPS  H16R  868   1.705   6.408   9.181
    7SAPS  H16S  869   1.603   6.498   9.273
    7SAPS  C217  870   1.511   6.377   9.094
    7SAPS  H17R  871   1.516   6.272   9.057
    7SAPS  H17S  872   1.567   6.433   9.016
    7SAPS  C218  873   1.371   6.431   9.106
    7SAPS  H18R  874   1.379   6.532   9.151
    7SAPS  H18S  875   1.307   6.356   9.158
    7SAPS  C219  876   1.299   6.447   8.969
    7SAPS  H19R  877   1.291   6.346   8.924
    7SAPS  H19S  878   1.364   6.519   8.915
    7SAPS  C220  879   1.157   6.505   8.979
    7SAPS  H20R  880   1.102   6.486   9.074
    7SAPS  H20S  881   1.101   6.489   8.885
    7SAPS  H20T  882   1.191   6.611   8.986
    7SAPS   C33  883   2.048   5.140   9.706
    7SAPS   H3X  884   2.134   5.162   9.773
    7SAPS   H3Y  885   1.961   5.201   9.739
    7SAPS   C34  886   2.079   5.173   9.556
    7SAPS   H4X  887   1.986   5.144   9.502
    7SAPS   H4Y  888   2.159   5.104   9.524
    7SAPS   C35  889   2.096   5.322   9.522
    7SAPS   H5X  890   2.203   5.345   9.544
    7SAPS   H5Y  891   2.024   5.388   9.576
    7SAPS   C36  892   2.084   5.351   9.372
    7SAPS   H6X  893   1.978   5.360   9.340
    7SAPS   H6Y  894   2.124   5.260   9.322
    7SAPS   C37  895   2.157   5.470   9.313
    7SAPS   H7X  896   2.257   5.476   9.360
    7SAPS   H7Y  897   2.104   5.563   9.346
    7SAPS   C38  898   2.136   5.479   9.161
    7SAPS   H8X  899   2.028   5.464   9.138
    7SAPS   H8Y  900   2.194   5.405   9.103
    7SAPS   C39  901   2.170   5.618   9.103
    7SAPS   H9X  902   2.144   5.608   8.995
    7SAPS   H9Y  903   2.279   5.636   9.111
    7SAPS  C310  904   2.091   5.748   9.141
    7SAPS  H10X  905   2.140   5.775   9.237
    7SAPS  H10Y  906   1.985   5.719   9.158
    7SAPS  C311  907   2.110   5.863   9.039
    7SAPS  H11X  908   2.072   5.823   8.943
    7SAPS  H11Y  909   2.218   5.887   9.026
    7SAPS  C312  910   2.036   5.986   9.083
    7SAPS  H12X  911   2.078   6.028   9.178
    7SAPS  H12Y  912   1.931   5.956   9.100
    7SAPS  C313  913   2.022   6.093   8.979
    7SAPS  H13X  914   1.974   6.185   9.018
    7SAPS  H13Y  915   1.957   6.050   8.899
    7SAPS  C314  916   2.157   6.141   8.914
    7SAPS  H14X  917   2.142   6.215   8.833
    7SAPS  H14Y  918   2.198   6.043   8.881
    7SAPS  C315  919   2.264   6.204   9.013
    7SAPS  H15X  920   2.233   6.161   9.111
    7SAPS  H15Y  921   2.249   6.313   9.025
    7SAPS  C316  922   2.409   6.158   8.977
    7SAPS  H16X  923   2.424   6.169   8.867
    7SAPS  H16Y  924   2.426   6.050   8.999
    7SAPS  C317  925   2.523   6.233   9.047
    7SAPS  H17X  926   2.509   6.232   9.157
    7SAPS  H17Y  927   2.527   6.339   9.016
    7SAPS  C318  928   2.659   6.176   8.999
    7SAPS  H18X  929   2.678   6.178   8.889
    7SAPS  H18Y  930   2.667   6.071   9.032
    7SAPS  H18Z  931   2.741   6.230   9.051
    8SAPS     N  932   6.496   6.090  11.193
    8SAPS   HN1  933   6.472   6.182  11.151
    8SAPS   HN2  934   6.525   6.111  11.291
    8SAPS   HN3  935   6.573   6.044  11.140
    8SAPS   C12  936   6.371   6.009  11.197
    8SAPS  H12A  937   6.386   5.921  11.258
    8SAPS   C13  938   6.246   6.078  11.262
    8SAPS  O13A  939   6.259   6.186  11.322
    8SAPS  O13B  940   6.144   6.008  11.282
    8SAPS   C11  941   6.344   5.962  11.053
    8SAPS  H11A  942   6.428   5.902  11.011
    8SAPS  H11B  943   6.338   6.054  10.991
    8SAPS     P  944   6.218   5.736  11.074
    8SAPS   O13  945   6.282   5.703  11.207
    8SAPS   O14  946   6.079   5.689  11.055
    8SAPS   O12  947   6.216   5.894  11.042
    8SAPS   O11  948   6.313   5.689  10.959
    8SAPS    C1  949   6.277   5.659  10.827
    8SAPS    HA  950   6.306   5.553  10.811
    8SAPS    HB  951   6.168   5.681  10.815
    8SAPS    C2  952   6.371   5.738  10.730
    8SAPS    HS  953   6.339   5.844  10.742
    8SAPS   O21  954   6.347   5.706  10.590
    8SAPS   C21  955   6.227   5.749  10.541
    8SAPS   O22  956   6.138   5.802  10.602
    8SAPS   C22  957   6.218   5.700  10.396
    8SAPS   H2R  958   6.310   5.735  10.344
    8SAPS   H2S  959   6.230   5.590  10.398
    8SAPS    C3  960   6.518   5.737  10.767
    8SAPS    HX  961   6.547   5.630  10.755
    8SAPS    HY  962   6.532   5.771  10.872
    8SAPS   O31  963   6.597   5.816  10.677
    8SAPS   C31  964   6.604   5.946  10.722
    8SAPS   O32  965   6.540   5.984  10.818
    8SAPS   C32  966   6.674   6.027  10.617
    8SAPS   H2X  967   6.666   5.976  10.519
    8SAPS   H2Y  968   6.781   6.020  10.647
    8SAPS   C23  969   6.089   5.742  10.318
    8SAPS   H3R  970   6.054   5.845  10.342
    8SAPS   H3S  971   6.003   5.683  10.356
    8SAPS   C24  972   6.101   5.731  10.166
    8SAPS   H4R  973   5.997   5.724  10.128
    8SAPS   H4S  974   6.157   5.636  10.149
    8SAPS   C25  975   6.175   5.845  10.099
    8SAPS   H5R  976   6.176   5.938  10.157
    8SAPS   C26  977   6.243   5.848   9.987
    8SAPS   H6R  978   6.282   5.946   9.957
    8SAPS   C27  979   6.282   5.736   9.893
    8SAPS   H7R  980   6.239   5.762   9.794
    8SAPS   H7S  981   6.231   5.642   9.920
    8SAPS   C28  982   6.432   5.723   9.877
    8SAPS   H8R  983   6.472   5.630   9.920
    8SAPS   C29  984   6.509   5.790   9.791
    8SAPS   H9R  985   6.604   5.742   9.765
    8SAPS  C210  986   6.463   5.897   9.693
    8SAPS  H10R  987   6.476   5.994   9.746
    8SAPS  H10S  988   6.354   5.888   9.673
    8SAPS  C211  989   6.535   5.896   9.564
    8SAPS  H11R  990   6.596   5.806   9.545
    8SAPS  C212  991   6.552   5.997   9.473
    8SAPS  H12R  992   6.617   5.988   9.384
    8SAPS  C213  993   6.493   6.136   9.472
    8SAPS  H13R  994   6.438   6.157   9.566
    8SAPS  H13S  995   6.413   6.145   9.396
    8SAPS  C214  996   6.602   6.238   9.461
    8SAPS  H14R  997   6.684   6.234   9.535
    8SAPS  C215  998   6.602   6.353   9.393
    8SAPS  H15R  999   6.695   6.411   9.382
    8SAPS  C216 1000   6.487   6.406   9.317
    8SAPS  H16R 1001   6.445   6.495   9.367
    8SAPS  H16S 1002   6.400   6.338   9.306
    8SAPS  C217 1003   6.528   6.444   9.172
    8SAPS  H17R 1004   6.582   6.361   9.122
    8SAPS  H17S 1005   6.579   6.543   9.174
    8SAPS  C218 1006   6.403   6.468   9.082
    8SAPS  H18R 1007   6.353   6.555   9.130
    8SAPS  H18S 1008   6.337   6.379   9.085
    8SAPS  C219 1009   6.439   6.502   8.939
    8SAPS  H19R 1010   6.513   6.428   8.900
    8SAPS  H19S 1011   6.492   6.598   8.956
    8SAPS  C220 1012   6.333   6.517   8.843
    8SAPS  H20R 1013   6.369   6.514   8.738
    8SAPS  H20S 1014   6.283   6.612   8.870
    8SAPS  H20T 1015   6.242   6.457   8.864
    8SAPS   C33 1016   6.630   6.171  10.603
    8SAPS   H3X 1017   6.690   6.220  10.523
    8SAPS   H3Y 1018   6.654   6.225  10.697
    8SAPS   C34 1019   6.480   6.189  10.568
    8SAPS   H4X 1020   6.419   6.137  10.646
    8SAPS   H4Y 1021   6.463   6.140  10.470
    8SAPS   C35 1022   6.427   6.332  10.565
    8SAPS   H5X 1023   6.467   6.394  10.648
    8SAPS   H5Y 1024   6.317   6.325  10.578
    8SAPS   C36 1025   6.467   6.397  10.429
    8SAPS   H6X 1026   6.426   6.333  10.348
    8SAPS   H6Y 1027   6.577   6.407  10.421
    8SAPS   C37 1028   6.402   6.533  10.416
    8SAPS   H7X 1029   6.435   6.598  10.500
    8SAPS   H7Y 1030   6.293   6.523  10.434
    8SAPS   C38 1031   6.439   6.596  10.280
    8SAPS   H8X 1032   6.421   6.513  10.208
    8SAPS   H8Y 1033   6.546   6.622  10.269
    8SAPS   C39 1034   6.356   6.722  10.269
    8SAPS   H9X 1035   6.389   6.776  10.360
    8SAPS   H9Y 1036   6.246   6.717  10.284
    8SAPS  C310 1037   6.389   6.820  10.155
    8SAPS  H10X 1038   6.336   6.915  10.178
    8SAPS  H10Y 1039   6.352   6.773  10.061
    8SAPS  C311 1040   6.543   6.857  10.139
    8SAPS  H11X 1041   6.602   6.781  10.083
    8SAPS  H11Y 1042   6.585   6.877  10.240
    8SAPS  C312 1043   6.552   6.985  10.065
    8SAPS  H12X 1044   6.520   7.068  10.132
    8SAPS  H12Y 1045   6.484   6.986   9.978
    8SAPS  C313 1046   6.695   7.028  10.025
    8SAPS  H13X 1047   6.729   6.965   9.940
    8SAPS  H13Y 1048   6.763   7.011  10.110
    8SAPS  C314 1049   6.709   7.177  10.007
    8SAPS  H14X 1050   6.705   7.221  10.108
    8SAPS  H14Y 1051   6.620   7.202   9.946
    8SAPS  C315 1052   6.831   7.228   9.927
    8SAPS  H15X 1053   6.924   7.183   9.968
    8SAPS  H15Y 1054   6.841   7.337   9.947
    8SAPS  C316 1055   6.829   7.201   9.776
    8SAPS  H16X 1056   6.736   7.155   9.737
    8SAPS  H16Y 1057   6.908   7.124   9.762
    8SAPS  C317 1058   6.874   7.322   9.692
    8SAPS  H17X 1059   6.978   7.339   9.725
    8SAPS  H17Y 1060   6.814   7.410   9.723
    8SAPS  C318 1061   6.853   7.299   9.544
    8SAPS  H18X 1062   6.743   7.285   9.533
    8SAPS  H18Y 1063   6.903   7.203   9.521
    8SAPS  H18Z 1064   6.897   7.379   9.481
    9SAPS     N 1065   2.370   2.246   6.360
    9SAPS   HN1 1066   2.311   2.330   6.348
    9SAPS   HN2 1067   2.399   2.210   6.267
    9SAPS   HN3 1068   2.313   2.179   6.416
    9SAPS   C12 1069   2.497   2.266   6.430
    9SAPS  H12A 1070   2.475   2.302   6.529
    9SAPS   C13 1071   2.584   2.147   6.461
    9SAPS  O13A 1072   2.553   2.024   6.437
    9SAPS  O13B 1073   2.700   2.170   6.509
    9SAPS   C11 1074   2.581   2.374   6.349
    9SAPS  H11A 1075   2.605   2.326   6.252
    9SAPS  H11B 1076   2.685   2.384   6.388
    9SAPS     P 1077   2.551   2.621   6.416
    9SAPS   O13 1078   2.700   2.628   6.405
    9SAPS   O14 1079   2.473   2.736   6.360
    9SAPS   O12 1080   2.502   2.490   6.332
    9SAPS   O11 1081   2.505   2.573   6.560
    9SAPS    C1 1082   2.398   2.650   6.623
    9SAPS    HA 1083   2.315   2.676   6.553
    9SAPS    HB 1084   2.343   2.585   6.695
    9SAPS    C2 1085   2.462   2.774   6.692
    9SAPS    HS 1086   2.499   2.847   6.617
    9SAPS   O21 1087   2.571   2.718   6.764
    9SAPS   C21 1088   2.666   2.804   6.791
    9SAPS   O22 1089   2.663   2.923   6.757
    9SAPS   C22 1090   2.777   2.730   6.877
    9SAPS   H2R 1091   2.738   2.629   6.900
    9SAPS   H2S 1092   2.870   2.727   6.817
    9SAPS    C3 1093   2.358   2.844   6.791
    9SAPS    HX 1094   2.270   2.852   6.724
    9SAPS    HY 1095   2.397   2.946   6.813
    9SAPS   O31 1096   2.321   2.764   6.903
    9SAPS   C31 1097   2.385   2.800   7.026
    9SAPS   O32 1098   2.458   2.896   7.037
    9SAPS   C32 1099   2.323   2.710   7.132
    9SAPS   H2X 1100   2.337   2.604   7.101
    9SAPS   H2Y 1101   2.216   2.739   7.134
    9SAPS   C23 1102   2.810   2.808   7.005
    9SAPS   H3R 1103   2.720   2.851   7.053
    9SAPS   H3S 1104   2.881   2.885   6.968
    9SAPS   C24 1105   2.879   2.723   7.115
    9SAPS   H4R 1106   2.907   2.790   7.198
    9SAPS   H4S 1107   2.969   2.675   7.071
    9SAPS   C25 1108   2.787   2.611   7.165
    9SAPS   H5R 1109   2.739   2.554   7.083
    9SAPS   C26 1110   2.765   2.575   7.292
    9SAPS   H6R 1111   2.704   2.488   7.321
    9SAPS   C27 1112   2.833   2.630   7.414
    9SAPS   H7R 1113   2.941   2.613   7.393
    9SAPS   H7S 1114   2.805   2.561   7.496
    9SAPS   C28 1115   2.802   2.764   7.481
    9SAPS   H8R 1116   2.717   2.816   7.434
    9SAPS   C29 1117   2.861   2.816   7.594
    9SAPS   H9R 1118   2.837   2.918   7.626
    9SAPS  C210 1119   2.981   2.749   7.662
    9SAPS  H10R 1120   3.074   2.804   7.637
    9SAPS  H10S 1121   3.001   2.646   7.626
    9SAPS  C211 1122   2.963   2.750   7.814
    9SAPS  H11R 1123   2.960   2.847   7.865
    9SAPS  C212 1124   2.959   2.639   7.891
    9SAPS  H12R 1125   2.951   2.656   8.000
    9SAPS  C213 1126   2.970   2.502   7.848
    9SAPS  H13R 1127   3.073   2.461   7.860
    9SAPS  H13S 1128   2.944   2.491   7.740
    9SAPS  C214 1129   2.881   2.418   7.932
    9SAPS  H14R 1130   2.772   2.422   7.915
    9SAPS  C215 1131   2.924   2.338   8.035
    9SAPS  H15R 1132   2.837   2.298   8.089
    9SAPS  C216 1133   3.059   2.322   8.100
    9SAPS  H16R 1134   3.124   2.289   8.017
    9SAPS  H16S 1135   3.055   2.246   8.181
    9SAPS  C217 1136   3.125   2.442   8.167
    9SAPS  H17R 1137   3.147   2.526   8.098
    9SAPS  H17S 1138   3.226   2.405   8.196
    9SAPS  C218 1139   3.048   2.488   8.283
    9SAPS  H18R 1140   3.041   2.399   8.349
    9SAPS  H18S 1141   2.944   2.517   8.256
    9SAPS  C219 1142   3.117   2.593   8.367
    9SAPS  H19R 1143   3.053   2.611   8.456
    9SAPS  H19S 1144   3.135   2.685   8.308
    9SAPS  C220 1145   3.256   2.549   8.430
    9SAPS  H20R 1146   3.290   2.625   8.504
    9SAPS  H20S 1147   3.330   2.551   8.346
    9SAPS  H20T 1148   3.254   2.450   8.479
    9SAPS   C33 1149   2.390   2.727   7.274
    9SAPS   H3X 1150   2.439   2.826   7.278
    9SAPS   H3Y 1151   2.479   2.664   7.296
    9SAPS   C34 1152   2.296   2.687   7.391
    9SAPS   H4X 1153   2.275   2.578   7.389
    9SAPS   H4Y 1154   2.193   2.728   7.390
    9SAPS   C35 1155   2.351   2.706   7.529
    9SAPS   H5X 1156   2.452   2.659   7.540
    9SAPS   H5Y 1157   2.288   2.658   7.607
    9SAPS   C36 1158   2.366   2.856   7.561
    9SAPS   H6X 1159   2.279   2.907   7.514
    9SAPS   H6Y 1160   2.460   2.887   7.511
    9SAPS   C37 1161   2.385   2.886   7.711
    9SAPS   H7X 1162   2.291   2.856   7.762
    9SAPS   H7Y 1163   2.391   2.997   7.709
    9SAPS   C38 1164   2.514   2.830   7.768
    9SAPS   H8X 1165   2.593   2.858   7.695
    9SAPS   H8Y 1166   2.515   2.718   7.766
    9SAPS   C39 1167   2.540   2.881   7.910
    9SAPS   H9X 1168   2.553   2.991   7.915
    9SAPS   H9Y 1169   2.631   2.834   7.953
    9SAPS  C310 1170   2.426   2.837   8.003
    9SAPS  H10X 1171   2.413   2.731   7.974
    9SAPS  H10Y 1172   2.333   2.888   7.968
    9SAPS  C311 1173   2.441   2.864   8.147
    9SAPS  H11X 1174   2.343   2.846   8.198
    9SAPS  H11Y 1175   2.476   2.967   8.171
    9SAPS  C312 1176   2.546   2.770   8.201
    9SAPS  H12X 1177   2.647   2.798   8.163
    9SAPS  H12Y 1178   2.532   2.668   8.160
    9SAPS  C313 1179   2.551   2.768   8.355
    9SAPS  H13X 1180   2.447   2.794   8.385
    9SAPS  H13Y 1181   2.621   2.842   8.399
    9SAPS  C314 1182   2.597   2.629   8.408
    9SAPS  H14X 1183   2.698   2.615   8.365
    9SAPS  H14Y 1184   2.529   2.547   8.378
    9SAPS  C315 1185   2.591   2.632   8.563
    9SAPS  H15X 1186   2.486   2.630   8.601
    9SAPS  H15Y 1187   2.639   2.725   8.599
    9SAPS  C316 1188   2.659   2.510   8.628
    9SAPS  H16X 1189   2.770   2.505   8.615
    9SAPS  H16Y 1190   2.614   2.417   8.587
    9SAPS  C317 1191   2.630   2.488   8.779
    9SAPS  H17X 1192   2.673   2.574   8.834
    9SAPS  H17Y 1193   2.687   2.397   8.809
    9SAPS  C318 1194   2.481   2.488   8.823
    9SAPS  H18X 1195   2.475   2.479   8.933
    9SAPS  H18Y 1196   2.422   2.401   8.787
    9SAPS  H18Z 1197   2.442   2.591   8.809
   10SAPS     N 1198   2.594   1.792   6.323
   10SAPS   HN1 1199   2.491   1.776   6.314
   10SAPS   HN2 1200   2.618   1.736   6.408
   10SAPS   HN3 1201   2.598   1.891   6.353
   10SAPS   C12 1202   2.670   1.747   6.203
   10SAPS  H12A 1203   2.647   1.643   6.182
   10SAPS   C13 1204   2.648   1.829   6.067
   10SAPS  O13A 1205   2.577   1.928   6.072
   10SAPS  O13B 1206   2.699   1.790   5.962
   10SAPS   C11 1207   2.818   1.738   6.230
   10SAPS  H11A 1208   2.864   1.837   6.246
   10SAPS  H11B 1209   2.868   1.708   6.135
   10SAPS     P 1210   2.875   1.693   6.479
   10SAPS   O13 1211   2.742   1.729   6.540
   10SAPS   O14 1212   2.951   1.592   6.553
   10SAPS   O12 1213   2.857   1.646   6.334
   10SAPS   O11 1214   2.961   1.828   6.461
   10SAPS    C1 1215   3.084   1.849   6.536
   10SAPS    HA 1216   3.146   1.757   6.544
   10SAPS    HB 1217   3.135   1.935   6.489
   10SAPS    C2 1218   3.056   1.907   6.682
   10SAPS    HS 1219   3.157   1.915   6.727
   10SAPS   O21 1220   2.983   1.813   6.763
   10SAPS   C21 1221   3.053   1.708   6.807
   10SAPS   O22 1222   3.172   1.701   6.802
   10SAPS   C22 1223   2.958   1.604   6.871
   10SAPS   H2R 1224   2.893   1.568   6.788
   10SAPS   H2S 1225   3.024   1.529   6.919
   10SAPS    C3 1226   2.996   2.053   6.677
   10SAPS    HX 1227   2.893   2.052   6.635
   10SAPS    HY 1228   3.076   2.103   6.618
   10SAPS   O31 1229   3.001   2.114   6.807
   10SAPS   C31 1230   2.900   2.091   6.890
   10SAPS   O32 1231   2.806   2.015   6.863
   10SAPS   C32 1232   2.911   2.175   7.016
   10SAPS   H2X 1233   2.849   2.266   7.004
   10SAPS   H2Y 1234   3.012   2.222   7.020
   10SAPS   C23 1235   2.868   1.668   6.980
   10SAPS   H3R 1236   2.801   1.588   7.020
   10SAPS   H3S 1237   2.809   1.730   6.909
   10SAPS   C24 1238   2.930   1.748   7.096
   10SAPS   H4R 1239   2.853   1.791   7.163
   10SAPS   H4S 1240   2.986   1.829   7.044
   10SAPS   C25 1241   3.038   1.681   7.172
   10SAPS   H5R 1242   3.108   1.621   7.111
   10SAPS   C26 1243   3.057   1.695   7.306
   10SAPS   H6R 1244   3.135   1.641   7.361
   10SAPS   C27 1245   2.960   1.774   7.392
   10SAPS   H7R 1246   2.855   1.737   7.389
   10SAPS   H7S 1247   2.963   1.878   7.354
   10SAPS   C28 1248   3.003   1.776   7.540
   10SAPS   H8R 1249   3.042   1.871   7.580
   10SAPS   C29 1250   2.982   1.672   7.626
   10SAPS   H9R 1251   3.012   1.682   7.731
   10SAPS  C210 1252   2.933   1.540   7.587
   10SAPS  H10R 1253   3.007   1.458   7.597
   10SAPS  H10S 1254   2.911   1.527   7.479
   10SAPS  C211 1255   2.812   1.524   7.664
   10SAPS  H11R 1256   2.734   1.589   7.623
   10SAPS  C212 1257   2.786   1.442   7.775
   10SAPS  H12R 1258   2.687   1.440   7.822
   10SAPS  C213 1259   2.877   1.345   7.838
   10SAPS  H13R 1260   2.959   1.302   7.777
   10SAPS  H13S 1261   2.809   1.260   7.859
   10SAPS  C214 1262   2.948   1.386   7.965
   10SAPS  H14R 1263   3.008   1.476   7.947
   10SAPS  C215 1264   2.959   1.318   8.078
   10SAPS  H15R 1265   3.027   1.351   8.158
   10SAPS  C216 1266   2.902   1.184   8.108
   10SAPS  H16R 1267   2.949   1.106   8.043
   10SAPS  H16S 1268   2.792   1.186   8.088
   10SAPS  C217 1269   2.927   1.140   8.258
   10SAPS  H17R 1270   2.906   1.229   8.321
   10SAPS  H17S 1271   3.034   1.119   8.280
   10SAPS  C218 1272   2.852   1.014   8.293
   10SAPS  H18R 1273   2.866   0.948   8.205
   10SAPS  H18S 1274   2.742   1.023   8.295
   10SAPS  C219 1275   2.885   0.947   8.427
   10SAPS  H19R 1276   2.994   0.928   8.426
   10SAPS  H19S 1277   2.828   0.852   8.437
   10SAPS  C220 1278   2.847   1.036   8.548
   10SAPS  H20R 1279   2.888   1.139   8.535
   10SAPS  H20S 1280   2.891   0.998   8.642
   10SAPS  H20T 1281   2.737   1.050   8.552
   10SAPS   C33 1282   2.873   2.112   7.150
   10SAPS   H3X 1283   2.945   2.037   7.190
   10SAPS   H3Y 1284   2.773   2.062   7.152
   10SAPS   C34 1285   2.882   2.218   7.262
   10SAPS   H4X 1286   2.798   2.288   7.247
   10SAPS   H4Y 1287   2.970   2.283   7.245
   10SAPS   C35 1288   2.887   2.162   7.405
   10SAPS   H5X 1289   2.938   2.063   7.405
   10SAPS   H5Y 1290   2.782   2.143   7.436
   10SAPS   C36 1291   2.952   2.251   7.514
   10SAPS   H6X 1292   2.887   2.340   7.531
   10SAPS   H6Y 1293   3.049   2.287   7.474
   10SAPS   C37 1294   2.981   2.178   7.648
   10SAPS   H7X 1295   3.025   2.244   7.726
   10SAPS   H7Y 1296   3.067   2.110   7.633
   10SAPS   C38 1297   2.864   2.092   7.704
   10SAPS   H8X 1298   2.827   2.022   7.626
   10SAPS   H8Y 1299   2.778   2.158   7.727
   10SAPS   C39 1300   2.908   2.003   7.822
   10SAPS   H9X 1301   2.934   2.078   7.900
   10SAPS   H9Y 1302   2.999   1.950   7.790
   10SAPS  C310 1303   2.799   1.898   7.861
   10SAPS  H10X 1304   2.786   1.825   7.778
   10SAPS  H10Y 1305   2.699   1.947   7.868
   10SAPS  C311 1306   2.820   1.829   7.990
   10SAPS  H11X 1307   2.847   1.906   8.066
   10SAPS  H11Y 1308   2.913   1.773   7.967
   10SAPS  C312 1309   2.709   1.743   8.046
   10SAPS  H12X 1310   2.670   1.680   7.963
   10SAPS  H12Y 1311   2.630   1.816   8.077
   10SAPS  C313 1312   2.746   1.658   8.165
   10SAPS  H13X 1313   2.789   1.566   8.120
   10SAPS  H13Y 1314   2.647   1.621   8.202
   10SAPS  C314 1315   2.821   1.730   8.275
   10SAPS  H14X 1316   2.757   1.808   8.320
   10SAPS  H14Y 1317   2.909   1.783   8.233
   10SAPS  C315 1318   2.861   1.637   8.391
   10SAPS  H15X 1319   2.951   1.584   8.353
   10SAPS  H15Y 1320   2.773   1.569   8.394
   10SAPS  C316 1321   2.883   1.710   8.523
   10SAPS  H16X 1322   2.807   1.782   8.560
   10SAPS  H16Y 1323   2.980   1.760   8.502
   10SAPS  C317 1324   2.920   1.617   8.638
   10SAPS  H17X 1325   3.005   1.560   8.595
   10SAPS  H17Y 1326   2.836   1.551   8.667
   10SAPS  C318 1327   2.959   1.699   8.765
   10SAPS  H18X 1328   3.054   1.752   8.743
   10SAPS  H18Y 1329   2.983   1.631   8.849
   10SAPS  H18Z 1330   2.875   1.770   8.783
   11SAPS     N 1331   4.354   5.234   5.770
   11SAPS   HN1 1332   4.301   5.149   5.798
   11SAPS   HN2 1333   4.292   5.292   5.709
   11SAPS   HN3 1334   4.431   5.211   5.704
   11SAPS   C12 1335   4.384   5.311   5.893
   11SAPS  H12A 1336   4.416   5.411   5.867
   11SAPS   C13 1337   4.263   5.335   5.987
   11SAPS  O13A 1338   4.145   5.314   5.950
   11SAPS  O13B 1339   4.275   5.422   6.078
   11SAPS   C11 1340   4.509   5.251   5.963
   11SAPS  H11A 1341   4.473   5.178   6.038
   11SAPS  H11B 1342   4.559   5.328   6.025
   11SAPS     P 1343   4.761   5.233   5.860
   11SAPS   O13 1344   4.855   5.114   5.860
   11SAPS   O14 1345   4.758   5.316   5.739
   11SAPS   O12 1346   4.607   5.194   5.870
   11SAPS   O11 1347   4.798   5.322   5.985
   11SAPS    C1 1348   4.884   5.272   6.088
   11SAPS    HA 1349   4.983   5.238   6.050
   11SAPS    HB 1350   4.909   5.363   6.145
   11SAPS    C2 1351   4.808   5.183   6.187
   11SAPS    HS 1352   4.776   5.091   6.135
   11SAPS   O21 1353   4.697   5.260   6.234
   11SAPS   C21 1354   4.609   5.180   6.293
   11SAPS   O22 1355   4.616   5.059   6.311
   11SAPS   C22 1356   4.508   5.270   6.356
   11SAPS   H2R 1357   4.555   5.366   6.387
   11SAPS   H2S 1358   4.430   5.309   6.286
   11SAPS    C3 1359   4.912   5.133   6.301
   11SAPS    HX 1360   5.014   5.102   6.268
   11SAPS    HY 1361   4.882   5.037   6.347
   11SAPS   O31 1362   4.924   5.239   6.396
   11SAPS   C31 1363   4.947   5.211   6.520
   11SAPS   O32 1364   4.983   5.104   6.567
   11SAPS   C32 1365   4.911   5.344   6.593
   11SAPS   H2X 1366   4.801   5.355   6.589
   11SAPS   H2Y 1367   4.962   5.421   6.531
   11SAPS   C23 1368   4.436   5.229   6.484
   11SAPS   H3R 1369   4.372   5.141   6.461
   11SAPS   H3S 1370   4.367   5.310   6.516
   11SAPS   C24 1371   4.531   5.210   6.605
   11SAPS   H4R 1372   4.466   5.242   6.689
   11SAPS   H4S 1373   4.610   5.288   6.596
   11SAPS   C25 1374   4.580   5.069   6.631
   11SAPS   H5R 1375   4.611   5.015   6.540
   11SAPS   C26 1376   4.581   5.016   6.757
   11SAPS   H6R 1377   4.613   4.913   6.773
   11SAPS   C27 1378   4.542   5.082   6.888
   11SAPS   H7R 1379   4.549   5.192   6.876
   11SAPS   H7S 1380   4.605   5.056   6.975
   11SAPS   C28 1381   4.399   5.048   6.925
   11SAPS   H8R 1382   4.334   5.042   6.836
   11SAPS   C29 1383   4.341   5.054   7.051
   11SAPS   H9R 1384   4.234   5.031   7.043
   11SAPS  C210 1385   4.417   5.070   7.176
   11SAPS  H10R 1386   4.508   5.005   7.177
   11SAPS  H10S 1387   4.344   5.031   7.250
   11SAPS  C211 1388   4.454   5.212   7.199
   11SAPS  H11R 1389   4.465   5.272   7.108
   11SAPS  C212 1390   4.486   5.272   7.309
   11SAPS  H12R 1391   4.496   5.382   7.309
   11SAPS  C213 1392   4.488   5.207   7.446
   11SAPS  H13R 1393   4.573   5.242   7.508
   11SAPS  H13S 1394   4.516   5.102   7.424
   11SAPS  C214 1395   4.357   5.198   7.519
   11SAPS  H14R 1396   4.268   5.165   7.464
   11SAPS  C215 1397   4.336   5.214   7.653
   11SAPS  H15R 1398   4.234   5.210   7.694
   11SAPS  C216 1399   4.436   5.249   7.762
   11SAPS  H16R 1400   4.403   5.337   7.822
   11SAPS  H16S 1401   4.531   5.274   7.711
   11SAPS  C217 1402   4.492   5.147   7.862
   11SAPS  H17R 1403   4.553   5.204   7.935
   11SAPS  H17S 1404   4.560   5.080   7.805
   11SAPS  C218 1405   4.390   5.074   7.953
   11SAPS  H18R 1406   4.315   5.018   7.893
   11SAPS  H18S 1407   4.325   5.147   8.005
   11SAPS  C219 1408   4.451   4.984   8.062
   11SAPS  H19R 1409   4.561   4.990   8.049
   11SAPS  H19S 1410   4.425   4.879   8.035
   11SAPS  C220 1411   4.410   5.021   8.206
   11SAPS  H20R 1412   4.448   4.955   8.287
   11SAPS  H20S 1413   4.300   5.021   8.215
   11SAPS  H20T 1414   4.430   5.127   8.231
   11SAPS   C33 1415   4.958   5.352   6.743
   11SAPS   H3X 1416   4.929   5.455   6.775
   11SAPS   H3Y 1417   5.068   5.351   6.733
   11SAPS   C34 1418   4.896   5.255   6.847
   11SAPS   H4X 1419   4.921   5.159   6.798
   11SAPS   H4Y 1420   4.788   5.276   6.863
   11SAPS   C35 1421   4.960   5.265   6.993
   11SAPS   H5X 1422   4.927   5.356   7.047
   11SAPS   H5Y 1423   5.070   5.272   6.981
   11SAPS   C36 1424   4.920   5.147   7.085
   11SAPS   H6X 1425   4.961   5.049   7.053
   11SAPS   H6Y 1426   4.809   5.137   7.083
   11SAPS   C37 1427   4.973   5.154   7.226
   11SAPS   H7X 1428   5.080   5.183   7.234
   11SAPS   H7Y 1429   4.959   5.051   7.264
   11SAPS   C38 1430   4.892   5.248   7.318
   11SAPS   H8X 1431   4.784   5.227   7.307
   11SAPS   H8Y 1432   4.897   5.356   7.292
   11SAPS   C39 1433   4.923   5.215   7.463
   11SAPS   H9X 1434   5.033   5.202   7.473
   11SAPS   H9Y 1435   4.878   5.118   7.492
   11SAPS  C310 1436   4.875   5.321   7.566
   11SAPS  H10X 1437   4.768   5.345   7.557
   11SAPS  H10Y 1438   4.927   5.419   7.557
   11SAPS  C311 1439   4.898   5.269   7.710
   11SAPS  H11X 1440   5.004   5.234   7.713
   11SAPS  H11Y 1441   4.830   5.186   7.739
   11SAPS  C312 1442   4.894   5.388   7.807
   11SAPS  H12X 1443   4.801   5.448   7.803
   11SAPS  H12Y 1444   4.965   5.460   7.763
   11SAPS  C313 1445   4.935   5.344   7.948
   11SAPS  H13X 1446   4.931   5.429   8.020
   11SAPS  H13Y 1447   5.037   5.300   7.950
   11SAPS  C314 1448   4.840   5.249   8.016
   11SAPS  H14X 1449   4.828   5.154   7.960
   11SAPS  H14Y 1450   4.737   5.291   8.018
   11SAPS  C315 1451   4.883   5.220   8.157
   11SAPS  H15X 1452   4.935   5.302   8.210
   11SAPS  H15Y 1453   4.952   5.133   8.154
   11SAPS  C316 1454   4.759   5.183   8.242
   11SAPS  H16X 1455   4.700   5.111   8.181
   11SAPS  H16Y 1456   4.711   5.279   8.269
   11SAPS  C317 1457   4.790   5.101   8.369
   11SAPS  H17X 1458   4.864   5.158   8.430
   11SAPS  H17Y 1459   4.843   5.006   8.349
   11SAPS  C318 1460   4.672   5.060   8.450
   11SAPS  H18X 1461   4.607   4.977   8.414
   11SAPS  H18Y 1462   4.599   5.141   8.467
   11SAPS  H18Z 1463   4.713   5.033   8.549
   12SAPS     N 1464   4.395   5.831   5.968
   12SAPS   HN1 1465   4.354   5.792   5.881
   12SAPS   HN2 1466   4.425   5.749   6.023
   12SAPS   HN3 1467   4.310   5.873   6.011
   12SAPS   C12 1468   4.490   5.941   5.935
   12SAPS  H12A 1469   4.593   5.915   5.918
   12SAPS   C13 1470   4.454   6.032   5.817
   12SAPS  O13A 1471   4.371   6.001   5.726
   12SAPS  O13B 1472   4.544   6.113   5.791
   12SAPS   C11 1473   4.489   6.036   6.060
   12SAPS  H11A 1474   4.572   6.099   6.022
   12SAPS  H11B 1475   4.528   5.984   6.150
   12SAPS     P 1476   4.245   6.092   6.148
   12SAPS   O13 1477   4.148   6.196   6.109
   12SAPS   O14 1478   4.206   5.951   6.117
   12SAPS   O12 1479   4.383   6.117   6.081
   12SAPS   O11 1480   4.264   6.111   6.300
   12SAPS    C1 1481   4.261   6.244   6.367
   12SAPS    HA 1482   4.189   6.311   6.317
   12SAPS    HB 1483   4.219   6.238   6.470
   12SAPS    C2 1484   4.398   6.306   6.367
   12SAPS    HS 1485   4.434   6.315   6.262
   12SAPS   O21 1486   4.492   6.219   6.429
   12SAPS   C21 1487   4.616   6.250   6.430
   12SAPS   O22 1488   4.675   6.345   6.383
   12SAPS   C22 1489   4.680   6.144   6.522
   12SAPS   H2R 1490   4.599   6.115   6.592
   12SAPS   H2S 1491   4.709   6.055   6.462
   12SAPS    C3 1492   4.397   6.453   6.433
   12SAPS    HX 1493   4.316   6.508   6.383
   12SAPS    HY 1494   4.496   6.500   6.413
   12SAPS   O31 1495   4.359   6.447   6.570
   12SAPS   C31 1496   4.450   6.468   6.656
   12SAPS   O32 1497   4.571   6.478   6.636
   12SAPS   C32 1498   4.385   6.483   6.792
   12SAPS   H2X 1499   4.349   6.382   6.823
   12SAPS   H2Y 1500   4.297   6.551   6.786
   12SAPS   C23 1501   4.800   6.192   6.613
   12SAPS   H3R 1502   4.774   6.286   6.665
   12SAPS   H3S 1503   4.883   6.221   6.545
   12SAPS   C24 1504   4.824   6.077   6.713
   12SAPS   H4R 1505   4.836   5.988   6.647
   12SAPS   H4S 1506   4.731   6.050   6.767
   12SAPS   C25 1507   4.937   6.101   6.810
   12SAPS   H5R 1508   5.035   6.075   6.768
   12SAPS   C26 1509   4.922   6.124   6.938
   12SAPS   H6R 1510   5.015   6.125   6.998
   12SAPS   C27 1511   4.789   6.152   6.998
   12SAPS   H7R 1512   4.707   6.175   6.926
   12SAPS   H7S 1513   4.800   6.246   7.056
   12SAPS   C28 1514   4.723   6.040   7.072
   12SAPS   H8R 1515   4.647   5.992   7.009
   12SAPS   C29 1516   4.747   6.004   7.194
   12SAPS   H9R 1517   4.675   5.931   7.234
   12SAPS  C210 1518   4.847   6.056   7.292
   12SAPS  H10R 1519   4.791   6.122   7.362
   12SAPS  H10S 1520   4.934   6.104   7.242
   12SAPS  C211 1521   4.888   5.939   7.380
   12SAPS  H11R 1522   4.895   5.844   7.326
   12SAPS  C212 1523   4.926   5.924   7.503
   12SAPS  H12R 1524   4.942   5.821   7.538
   12SAPS  C213 1525   4.918   6.040   7.604
   12SAPS  H13R 1526   4.861   6.012   7.695
   12SAPS  H13S 1527   4.866   6.130   7.563
   12SAPS  C214 1528   5.056   6.066   7.645
   12SAPS  H14R 1529   5.111   6.149   7.598
   12SAPS  C215 1530   5.129   5.985   7.724
   12SAPS  H15R 1531   5.229   6.022   7.754
   12SAPS  C216 1532   5.078   5.863   7.790
   12SAPS  H16R 1533   4.984   5.832   7.738
   12SAPS  H16S 1534   5.050   5.899   7.891
   12SAPS  C217 1535   5.178   5.746   7.782
   12SAPS  H17R 1536   5.188   5.698   7.682
   12SAPS  H17S 1537   5.128   5.666   7.841
   12SAPS  C218 1538   5.312   5.779   7.858
   12SAPS  H18R 1539   5.301   5.811   7.963
   12SAPS  H18S 1540   5.372   5.847   7.794
   12SAPS  C219 1541   5.399   5.655   7.902
   12SAPS  H19R 1542   5.336   5.573   7.942
   12SAPS  H19S 1543   5.476   5.691   7.974
   12SAPS  C220 1544   5.478   5.584   7.786
   12SAPS  H20R 1545   5.399   5.568   7.709
   12SAPS  H20S 1546   5.520   5.485   7.814
   12SAPS  H20T 1547   5.562   5.648   7.752
   12SAPS   C33 1548   4.487   6.533   6.905
   12SAPS   H3X 1549   4.528   6.634   6.881
   12SAPS   H3Y 1550   4.575   6.466   6.907
   12SAPS   C34 1551   4.409   6.547   7.044
   12SAPS   H4X 1552   4.354   6.450   7.052
   12SAPS   H4Y 1553   4.337   6.629   7.026
   12SAPS   C35 1554   4.506   6.579   7.155
   12SAPS   H5X 1555   4.443   6.592   7.246
   12SAPS   H5Y 1556   4.557   6.673   7.125
   12SAPS   C36 1557   4.606   6.467   7.191
   12SAPS   H6X 1558   4.686   6.465   7.113
   12SAPS   H6Y 1559   4.536   6.381   7.188
   12SAPS   C37 1560   4.665   6.470   7.332
   12SAPS   H7X 1561   4.708   6.569   7.359
   12SAPS   H7Y 1562   4.756   6.406   7.325
   12SAPS   C38 1563   4.571   6.408   7.439
   12SAPS   H8X 1564   4.525   6.309   7.416
   12SAPS   H8Y 1565   4.489   6.479   7.462
   12SAPS   C39 1566   4.636   6.388   7.566
   12SAPS   H9X 1567   4.718   6.463   7.575
   12SAPS   H9Y 1568   4.701   6.299   7.557
   12SAPS  C310 1569   4.528   6.381   7.675
   12SAPS  H10X 1570   4.438   6.321   7.653
   12SAPS  H10Y 1571   4.491   6.485   7.684
   12SAPS  C311 1572   4.592   6.337   7.810
   12SAPS  H11X 1573   4.520   6.349   7.893
   12SAPS  H11Y 1574   4.680   6.401   7.831
   12SAPS  C312 1575   4.633   6.190   7.811
   12SAPS  H12X 1576   4.707   6.172   7.730
   12SAPS  H12Y 1577   4.549   6.117   7.804
   12SAPS  C313 1578   4.709   6.151   7.937
   12SAPS  H13X 1579   4.732   6.042   7.935
   12SAPS  H13Y 1580   4.651   6.179   8.028
   12SAPS  C314 1581   4.848   6.211   7.953
   12SAPS  H14X 1582   4.833   6.313   7.996
   12SAPS  H14Y 1583   4.901   6.224   7.856
   12SAPS  C315 1584   4.934   6.140   8.057
   12SAPS  H15X 1585   4.955   6.037   8.019
   12SAPS  H15Y 1586   4.897   6.127   8.160
   12SAPS  C316 1587   5.078   6.193   8.055
   12SAPS  H16X 1588   5.094   6.294   8.100
   12SAPS  H16Y 1589   5.109   6.206   7.949
   12SAPS  C317 1590   5.180   6.089   8.117
   12SAPS  H17X 1591   5.166   5.989   8.071
   12SAPS  H17Y 1592   5.166   6.097   8.227
   12SAPS  C318 1593   5.325   6.132   8.097
   12SAPS  H18X 1594   5.349   6.101   7.993
   12SAPS  H18Y 1595   5.397   6.085   8.168
   12SAPS  H18Z 1596   5.327   6.242   8.112
   13SAPS     N 1597   4.809   3.082   6.231
   13SAPS   HN1 1598   4.740   3.160   6.236
   13SAPS   HN2 1599   4.764   2.990   6.214
   13SAPS   HN3 1600   4.860   3.076   6.321
   13SAPS   C12 1601   4.910   3.102   6.120
   13SAPS  H12A 1602   4.951   3.004   6.103
   13SAPS   C13 1603   4.866   3.152   5.983
   13SAPS  O13A 1604   4.744   3.183   5.968
   13SAPS  O13B 1605   4.946   3.163   5.887
   13SAPS   C11 1606   5.026   3.196   6.168
   13SAPS  H11A 1607   5.088   3.230   6.082
   13SAPS  H11B 1608   5.095   3.146   6.240
   13SAPS     P 1609   5.009   3.451   6.231
   13SAPS   O13 1610   5.160   3.451   6.222
   13SAPS   O14 1611   4.931   3.525   6.130
   13SAPS   O12 1612   4.966   3.304   6.240
   13SAPS   O11 1613   4.967   3.514   6.373
   13SAPS    C1 1614   4.940   3.429   6.492
   13SAPS    HA 1615   4.985   3.329   6.475
   13SAPS    HB 1616   4.997   3.470   6.578
   13SAPS    C2 1617   4.788   3.409   6.523
   13SAPS    HS 1618   4.746   3.360   6.432
   13SAPS   O21 1619   4.731   3.537   6.535
   13SAPS   C21 1620   4.599   3.548   6.551
   13SAPS   O22 1621   4.523   3.457   6.523
   13SAPS   C22 1622   4.561   3.688   6.589
   13SAPS   H2R 1623   4.640   3.759   6.556
   13SAPS   H2S 1624   4.482   3.714   6.516
   13SAPS    C3 1625   4.763   3.318   6.646
   13SAPS    HX 1626   4.782   3.215   6.607
   13SAPS    HY 1627   4.658   3.309   6.681
   13SAPS   O31 1628   4.841   3.358   6.761
   13SAPS   C31 1629   4.950   3.289   6.779
   13SAPS   O32 1630   4.977   3.187   6.722
   13SAPS   C32 1631   5.038   3.340   6.892
   13SAPS   H2X 1632   5.143   3.342   6.856
   13SAPS   H2Y 1633   5.027   3.274   6.980
   13SAPS   C23 1634   4.525   3.701   6.734
   13SAPS   H3R 1635   4.444   3.627   6.754
   13SAPS   H3S 1636   4.480   3.797   6.766
   13SAPS   C24 1637   4.644   3.673   6.833
   13SAPS   H4R 1638   4.685   3.578   6.792
   13SAPS   H4S 1639   4.602   3.656   6.934
   13SAPS   C25 1640   4.759   3.767   6.833
   13SAPS   H5R 1641   4.814   3.739   6.742
   13SAPS   C26 1642   4.795   3.853   6.933
   13SAPS   H6R 1643   4.881   3.919   6.914
   13SAPS   C27 1644   4.725   3.859   7.062
   13SAPS   H7R 1645   4.767   3.774   7.119
   13SAPS   H7S 1646   4.616   3.840   7.046
   13SAPS   C28 1647   4.753   3.990   7.138
   13SAPS   H8R 1648   4.769   4.080   7.077
   13SAPS   C29 1649   4.767   4.002   7.270
   13SAPS   H9R 1650   4.772   4.105   7.308
   13SAPS  C210 1651   4.747   3.899   7.377
   13SAPS  H10R 1652   4.839   3.882   7.437
   13SAPS  H10S 1653   4.724   3.797   7.339
   13SAPS  C211 1654   4.640   3.937   7.471
   13SAPS  H11R 1655   4.553   3.995   7.438
   13SAPS  C212 1656   4.644   3.911   7.604
   13SAPS  H12R 1657   4.570   3.940   7.679
   13SAPS  C213 1658   4.753   3.838   7.674
   13SAPS  H13R 1659   4.751   3.881   7.776
   13SAPS  H13S 1660   4.853   3.863   7.632
   13SAPS  C214 1661   4.748   3.690   7.674
   13SAPS  H14R 1662   4.838   3.650   7.624
   13SAPS  C215 1663   4.656   3.613   7.739
   13SAPS  H15R 1664   4.649   3.505   7.718
   13SAPS  C216 1665   4.551   3.660   7.837
   13SAPS  H16R 1666   4.459   3.665   7.774
   13SAPS  H16S 1667   4.566   3.767   7.865
   13SAPS  C217 1668   4.532   3.566   7.951
   13SAPS  H17R 1669   4.605   3.594   8.030
   13SAPS  H17S 1670   4.567   3.462   7.930
   13SAPS  C218 1671   4.399   3.568   8.022
   13SAPS  H18R 1672   4.354   3.669   8.027
   13SAPS  H18S 1673   4.415   3.531   8.125
   13SAPS  C219 1674   4.296   3.480   7.950
   13SAPS  H19R 1675   4.344   3.380   7.937
   13SAPS  H19S 1676   4.287   3.505   7.842
   13SAPS  C220 1677   4.159   3.460   8.019
   13SAPS  H20R 1678   4.094   3.419   7.939
   13SAPS  H20S 1679   4.115   3.554   8.059
   13SAPS  H20T 1680   4.172   3.386   8.101
   13SAPS   C33 1681   4.996   3.475   6.959
   13SAPS   H3X 1682   4.893   3.467   7.000
   13SAPS   H3Y 1683   5.003   3.542   6.871
   13SAPS   C34 1684   5.102   3.520   7.060
   13SAPS   H4X 1685   5.099   3.621   7.106
   13SAPS   H4Y 1686   5.202   3.492   7.021
   13SAPS   C35 1687   5.075   3.436   7.184
   13SAPS   H5X 1688   5.157   3.463   7.254
   13SAPS   H5Y 1689   5.062   3.327   7.171
   13SAPS   C36 1690   4.949   3.475   7.271
   13SAPS   H6X 1691   4.860   3.415   7.242
   13SAPS   H6Y 1692   4.922   3.580   7.244
   13SAPS   C37 1693   4.975   3.464   7.422
   13SAPS   H7X 1694   4.880   3.475   7.479
   13SAPS   H7Y 1695   5.034   3.555   7.450
   13SAPS   C38 1696   5.040   3.329   7.471
   13SAPS   H8X 1697   5.133   3.313   7.412
   13SAPS   H8Y 1698   4.980   3.237   7.456
   13SAPS   C39 1699   5.099   3.332   7.614
   13SAPS   H9X 1700   5.174   3.412   7.628
   13SAPS   H9Y 1701   5.155   3.236   7.617
   13SAPS  C310 1702   4.980   3.331   7.714
   13SAPS  H10X 1703   4.917   3.243   7.692
   13SAPS  H10Y 1704   4.922   3.424   7.695
   13SAPS  C311 1705   5.025   3.307   7.861
   13SAPS  H11X 1706   5.125   3.353   7.877
   13SAPS  H11Y 1707   5.031   3.197   7.878
   13SAPS  C312 1708   4.929   3.358   7.968
   13SAPS  H12X 1709   4.826   3.321   7.950
   13SAPS  H12Y 1710   4.917   3.467   7.950
   13SAPS  C313 1711   4.977   3.333   8.110
   13SAPS  H13X 1712   5.075   3.384   8.123
   13SAPS  H13Y 1713   5.000   3.227   8.132
   13SAPS  C314 1714   4.873   3.373   8.223
   13SAPS  H14X 1715   4.805   3.293   8.258
   13SAPS  H14Y 1716   4.807   3.449   8.177
   13SAPS  C315 1717   4.950   3.418   8.344
   13SAPS  H15X 1718   4.873   3.466   8.408
   13SAPS  H15Y 1719   5.033   3.488   8.320
   13SAPS  C316 1720   5.020   3.304   8.428
   13SAPS  H16X 1721   5.114   3.268   8.382
   13SAPS  H16Y 1722   4.961   3.210   8.430
   13SAPS  C317 1723   5.054   3.351   8.574
   13SAPS  H17X 1724   5.037   3.258   8.633
   13SAPS  H17Y 1725   4.971   3.415   8.609
   13SAPS  C318 1726   5.192   3.415   8.589
   13SAPS  H18X 1727   5.280   3.348   8.577
   13SAPS  H18Y 1728   5.211   3.455   8.691
   13SAPS  H18Z 1729   5.208   3.488   8.507
   14SAPS     N 1730   4.765   5.511   5.561
   14SAPS   HN1 1731   4.852   5.565   5.580
   14SAPS   HN2 1732   4.774   5.438   5.634
   14SAPS   HN3 1733   4.766   5.460   5.470
   14SAPS   C12 1734   4.647   5.596   5.591
   14SAPS  H12A 1735   4.648   5.678   5.521
   14SAPS   C13 1736   4.516   5.522   5.568
   14SAPS  O13A 1737   4.500   5.412   5.522
   14SAPS  O13B 1738   4.414   5.593   5.593
   14SAPS   C11 1739   4.656   5.662   5.722
   14SAPS  H11A 1740   4.681   5.584   5.797
   14SAPS  H11B 1741   4.562   5.710   5.754
   14SAPS     P 1742   4.872   5.757   5.830
   14SAPS   O13 1743   4.954   5.642   5.803
   14SAPS   O14 1744   4.944   5.885   5.836
   14SAPS   O12 1745   4.759   5.762   5.721
   14SAPS   O11 1746   4.789   5.735   5.960
   14SAPS    C1 1747   4.840   5.648   6.058
   14SAPS    HA 1748   4.795   5.547   6.050
   14SAPS    HB 1749   4.950   5.633   6.059
   14SAPS    C2 1750   4.815   5.704   6.202
   14SAPS    HS 1751   4.718   5.758   6.202
   14SAPS   O21 1752   4.922   5.790   6.232
   14SAPS   C21 1753   4.903   5.921   6.231
   14SAPS   O22 1754   4.802   5.969   6.192
   14SAPS   C22 1755   5.025   5.998   6.269
   14SAPS   H2R 1756   5.087   6.026   6.181
   14SAPS   H2S 1757   4.997   6.086   6.330
   14SAPS    C3 1758   4.812   5.589   6.307
   14SAPS    HX 1759   4.912   5.541   6.305
   14SAPS    HY 1760   4.748   5.505   6.271
   14SAPS   O31 1761   4.788   5.635   6.449
   14SAPS   C31 1762   4.662   5.635   6.482
   14SAPS   O32 1763   4.568   5.594   6.410
   14SAPS   C32 1764   4.648   5.692   6.622
   14SAPS   H2X 1765   4.557   5.755   6.610
   14SAPS   H2Y 1766   4.732   5.760   6.647
   14SAPS   C23 1767   5.127   5.920   6.366
   14SAPS   H3R 1768   5.196   5.873   6.293
   14SAPS   H3S 1769   5.075   5.850   6.435
   14SAPS   C24 1770   5.199   6.022   6.459
   14SAPS   H4R 1771   5.268   5.961   6.520
   14SAPS   H4S 1772   5.123   6.065   6.527
   14SAPS   C25 1773   5.268   6.142   6.396
   14SAPS   H5R 1774   5.321   6.118   6.304
   14SAPS   C26 1775   5.268   6.265   6.456
   14SAPS   H6R 1776   5.349   6.328   6.418
   14SAPS   C27 1777   5.190   6.321   6.573
   14SAPS   H7R 1778   5.252   6.313   6.665
   14SAPS   H7S 1779   5.104   6.252   6.586
   14SAPS   C28 1780   5.154   6.469   6.561
   14SAPS   H8R 1781   5.140   6.514   6.461
   14SAPS   C29 1782   5.135   6.562   6.658
   14SAPS   H9R 1783   5.084   6.654   6.626
   14SAPS  C210 1784   5.151   6.529   6.809
   14SAPS  H10R 1785   5.200   6.620   6.850
   14SAPS  H10S 1786   5.224   6.446   6.822
   14SAPS  C211 1787   5.020   6.496   6.882
   14SAPS  H11R 1788   4.948   6.477   6.801
   14SAPS  C212 1789   5.009   6.457   7.013
   14SAPS  H12R 1790   4.908   6.422   7.042
   14SAPS  C213 1791   5.118   6.461   7.117
   14SAPS  H13R 1792   5.127   6.569   7.141
   14SAPS  H13S 1793   5.218   6.430   7.079
   14SAPS  C214 1794   5.092   6.382   7.244
   14SAPS  H14R 1795   5.004   6.315   7.241
   14SAPS  C215 1796   5.154   6.405   7.358
   14SAPS  H15R 1797   5.118   6.362   7.452
   14SAPS  C216 1798   5.277   6.489   7.371
   14SAPS  H16R 1799   5.234   6.591   7.365
   14SAPS  H16S 1800   5.346   6.481   7.284
   14SAPS  C217 1801   5.341   6.461   7.502
   14SAPS  H17R 1802   5.269   6.490   7.581
   14SAPS  H17S 1803   5.431   6.525   7.518
   14SAPS  C218 1804   5.397   6.317   7.509
   14SAPS  H18R 1805   5.479   6.306   7.434
   14SAPS  H18S 1806   5.323   6.239   7.483
   14SAPS  C219 1807   5.475   6.269   7.643
   14SAPS  H19R 1808   5.394   6.233   7.710
   14SAPS  H19S 1809   5.525   6.363   7.675
   14SAPS  C220 1810   5.577   6.159   7.608
   14SAPS  H20R 1811   5.606   6.175   7.503
   14SAPS  H20S 1812   5.513   6.068   7.609
   14SAPS  H20T 1813   5.668   6.137   7.668
   14SAPS   C33 1814   4.622   5.573   6.721
   14SAPS   H3X 1815   4.711   5.506   6.726
   14SAPS   H3Y 1816   4.535   5.513   6.686
   14SAPS   C34 1817   4.606   5.621   6.863
   14SAPS   H4X 1818   4.550   5.546   6.924
   14SAPS   H4Y 1819   4.539   5.710   6.872
   14SAPS   C35 1820   4.729   5.665   6.931
   14SAPS   H5X 1821   4.773   5.754   6.882
   14SAPS   H5Y 1822   4.812   5.592   6.914
   14SAPS   C36 1823   4.710   5.684   7.083
   14SAPS   H6X 1824   4.629   5.758   7.097
   14SAPS   H6Y 1825   4.791   5.742   7.134
   14SAPS   C37 1826   4.697   5.550   7.154
   14SAPS   H7X 1827   4.782   5.486   7.122
   14SAPS   H7Y 1828   4.606   5.491   7.130
   14SAPS   C38 1829   4.703   5.579   7.302
   14SAPS   H8X 1830   4.789   5.641   7.335
   14SAPS   H8Y 1831   4.725   5.484   7.355
   14SAPS   C39 1832   4.577   5.643   7.356
   14SAPS   H9X 1833   4.490   5.605   7.298
   14SAPS   H9Y 1834   4.570   5.751   7.330
   14SAPS  C310 1835   4.545   5.623   7.503
   14SAPS  H10X 1836   4.533   5.515   7.528
   14SAPS  H10Y 1837   4.455   5.685   7.526
   14SAPS  C311 1838   4.657   5.693   7.585
   14SAPS  H11X 1839   4.672   5.795   7.545
   14SAPS  H11Y 1840   4.744   5.624   7.577
   14SAPS  C312 1841   4.619   5.696   7.730
   14SAPS  H12X 1842   4.584   5.597   7.767
   14SAPS  H12Y 1843   4.541   5.774   7.745
   14SAPS  C313 1844   4.749   5.720   7.809
   14SAPS  H13X 1845   4.779   5.827   7.797
   14SAPS  H13Y 1846   4.833   5.660   7.767
   14SAPS  C314 1847   4.730   5.713   7.961
   14SAPS  H14X 1848   4.689   5.612   7.984
   14SAPS  H14Y 1849   4.667   5.796   7.998
   14SAPS  C315 1850   4.862   5.733   8.044
   14SAPS  H15X 1851   4.922   5.813   7.995
   14SAPS  H15Y 1852   4.912   5.635   8.026
   14SAPS  C316 1853   4.838   5.765   8.192
   14SAPS  H16X 1854   4.794   5.866   8.198
   14SAPS  H16Y 1855   4.942   5.759   8.229
   14SAPS  C317 1856   4.755   5.661   8.256
   14SAPS  H17X 1857   4.779   5.567   8.203
   14SAPS  H17Y 1858   4.644   5.669   8.251
   14SAPS  C318 1859   4.779   5.647   8.405
   14SAPS  H18X 1860   4.808   5.743   8.452
   14SAPS  H18Y 1861   4.861   5.578   8.435
   14SAPS  H18Z 1862   4.686   5.616   8.456
   15SAPS     N 1863   5.151   5.468   5.786
   15SAPS   HN1 1864   5.219   5.518   5.725
   15SAPS   HN2 1865   5.067   5.529   5.783
   15SAPS   HN3 1866   5.180   5.463   5.885
   15SAPS   C12 1867   5.134   5.321   5.739
   15SAPS  H12A 1868   5.061   5.277   5.806
   15SAPS   C13 1869   5.085   5.303   5.592
   15SAPS  O13A 1870   5.090   5.403   5.517
   15SAPS  O13B 1871   5.089   5.183   5.545
   15SAPS   C11 1872   5.268   5.247   5.770
   15SAPS  H11A 1873   5.348   5.309   5.724
   15SAPS  H11B 1874   5.267   5.148   5.719
   15SAPS     P 1875   5.439   5.215   5.954
   15SAPS   O13 1876   5.474   5.084   5.897
   15SAPS   O14 1877   5.526   5.334   5.924
   15SAPS   O12 1878   5.288   5.242   5.909
   15SAPS   O11 1879   5.438   5.201   6.107
   15SAPS    C1 1880   5.311   5.188   6.168
   15SAPS    HA 1881   5.247   5.275   6.141
   15SAPS    HB 1882   5.250   5.103   6.130
   15SAPS    C2 1883   5.307   5.172   6.325
   15SAPS    HS 1884   5.202   5.191   6.355
   15SAPS   O21 1885   5.391   5.272   6.384
   15SAPS   C21 1886   5.351   5.396   6.376
   15SAPS   O22 1887   5.242   5.435   6.335
   15SAPS   C22 1888   5.461   5.498   6.408
   15SAPS   H2R 1889   5.556   5.464   6.359
   15SAPS   H2S 1890   5.443   5.596   6.358
   15SAPS    C3 1891   5.357   5.029   6.359
   15SAPS    HX 1892   5.465   5.013   6.342
   15SAPS    HY 1893   5.313   4.956   6.287
   15SAPS   O31 1894   5.322   4.999   6.497
   15SAPS   C31 1895   5.400   5.041   6.590
   15SAPS   O32 1896   5.506   5.105   6.575
   15SAPS   C32 1897   5.345   5.004   6.725
   15SAPS   H2X 1898   5.428   4.964   6.788
   15SAPS   H2Y 1899   5.271   4.921   6.721
   15SAPS   C23 1900   5.499   5.517   6.556
   15SAPS   H3R 1901   5.573   5.601   6.560
   15SAPS   H3S 1902   5.549   5.421   6.582
   15SAPS   C24 1903   5.381   5.524   6.657
   15SAPS   H4R 1904   5.421   5.532   6.760
   15SAPS   H4S 1905   5.314   5.436   6.644
   15SAPS   C25 1906   5.301   5.643   6.611
   15SAPS   H5R 1907   5.303   5.676   6.506
   15SAPS   C26 1908   5.213   5.709   6.688
   15SAPS   H6R 1909   5.166   5.801   6.651
   15SAPS   C27 1910   5.189   5.673   6.832
   15SAPS   H7R 1911   5.281   5.632   6.880
   15SAPS   H7S 1912   5.131   5.579   6.827
   15SAPS   C28 1913   5.128   5.782   6.916
   15SAPS   H8R 1914   5.020   5.772   6.936
   15SAPS   C29 1915   5.200   5.872   6.986
   15SAPS   H9R 1916   5.139   5.943   7.042
   15SAPS  C210 1917   5.348   5.893   6.982
   15SAPS  H10R 1918   5.399   5.833   6.904
   15SAPS  H10S 1919   5.394   5.861   7.078
   15SAPS  C211 1920   5.384   6.032   6.951
   15SAPS  H11R 1921   5.363   6.065   6.849
   15SAPS  C212 1922   5.441   6.115   7.036
   15SAPS  H12R 1923   5.455   6.219   7.003
   15SAPS  C213 1924   5.481   6.073   7.178
   15SAPS  H13R 1925   5.553   6.147   7.221
   15SAPS  H13S 1926   5.533   5.975   7.188
   15SAPS  C214 1927   5.359   6.072   7.274
   15SAPS  H14R 1928   5.283   6.150   7.259
   15SAPS  C215 1929   5.332   5.987   7.371
   15SAPS  H15R 1930   5.244   6.009   7.432
   15SAPS  C216 1931   5.417   5.863   7.403
   15SAPS  H16R 1932   5.420   5.842   7.512
   15SAPS  H16S 1933   5.522   5.883   7.372
   15SAPS  C217 1934   5.379   5.724   7.354
   15SAPS  H17R 1935   5.433   5.637   7.396
   15SAPS  H17S 1936   5.397   5.729   7.244
   15SAPS  C218 1937   5.225   5.684   7.365
   15SAPS  H18R 1938   5.164   5.759   7.310
   15SAPS  H18S 1939   5.198   5.700   7.472
   15SAPS  C219 1940   5.201   5.539   7.327
   15SAPS  H19R 1941   5.097   5.511   7.353
   15SAPS  H19S 1942   5.277   5.470   7.371
   15SAPS  C220 1943   5.196   5.523   7.173
   15SAPS  H20R 1944   5.101   5.568   7.137
   15SAPS  H20S 1945   5.193   5.414   7.151
   15SAPS  H20T 1946   5.280   5.576   7.123
   15SAPS   C33 1947   5.266   5.112   6.802
   15SAPS   H3X 1948   5.217   5.071   6.893
   15SAPS   H3Y 1949   5.198   5.165   6.731
   15SAPS   C34 1950   5.356   5.225   6.851
   15SAPS   H4X 1951   5.287   5.308   6.878
   15SAPS   H4Y 1952   5.415   5.273   6.770
   15SAPS   C35 1953   5.452   5.201   6.969
   15SAPS   H5X 1954   5.532   5.125   6.958
   15SAPS   H5Y 1955   5.393   5.163   7.055
   15SAPS   C36 1956   5.509   5.336   7.015
   15SAPS   H6X 1957   5.435   5.417   7.031
   15SAPS   H6Y 1958   5.573   5.368   6.930
   15SAPS   C37 1959   5.587   5.333   7.141
   15SAPS   H7X 1960   5.662   5.415   7.147
   15SAPS   H7Y 1961   5.643   5.237   7.144
   15SAPS   C38 1962   5.498   5.341   7.261
   15SAPS   H8X 1963   5.403   5.290   7.236
   15SAPS   H8Y 1964   5.476   5.450   7.271
   15SAPS   C39 1965   5.544   5.268   7.387
   15SAPS   H9X 1966   5.641   5.306   7.426
   15SAPS   H9Y 1967   5.565   5.167   7.348
   15SAPS  C310 1968   5.438   5.253   7.501
   15SAPS  H10X 1969   5.357   5.180   7.478
   15SAPS  H10Y 1970   5.388   5.352   7.511
   15SAPS  C311 1971   5.491   5.229   7.642
   15SAPS  H11X 1972   5.542   5.323   7.673
   15SAPS  H11Y 1973   5.556   5.142   7.617
   15SAPS  C312 1974   5.386   5.178   7.742
   15SAPS  H12X 1975   5.336   5.085   7.710
   15SAPS  H12Y 1976   5.301   5.249   7.753
   15SAPS  C313 1977   5.451   5.180   7.878
   15SAPS  H13X 1978   5.503   5.277   7.894
   15SAPS  H13Y 1979   5.533   5.105   7.883
   15SAPS  C314 1980   5.350   5.163   7.998
   15SAPS  H14X 1981   5.281   5.080   7.971
   15SAPS  H14Y 1982   5.289   5.253   8.020
   15SAPS  C315 1983   5.427   5.124   8.127
   15SAPS  H15X 1984   5.512   5.193   8.146
   15SAPS  H15Y 1985   5.477   5.027   8.108
   15SAPS  C316 1986   5.336   5.121   8.249
   15SAPS  H16X 1987   5.284   5.219   8.258
   15SAPS  H16Y 1988   5.409   5.102   8.331
   15SAPS  C317 1989   5.231   5.006   8.246
   15SAPS  H17X 1990   5.272   4.903   8.241
   15SAPS  H17Y 1991   5.167   5.021   8.156
   15SAPS  C318 1992   5.128   5.018   8.365
   15SAPS  H18X 1993   5.041   4.951   8.353
   15SAPS  H18Y 1994   5.095   5.124   8.371
   15SAPS  H18Z 1995   5.179   4.993   8.460
   16SAPS     N 1996   6.788   0.298   6.506
   16SAPS   HN1 1997   6.826   0.270   6.599
   16SAPS   HN2 1998   6.710   0.364   6.524
   16SAPS   HN3 1999   6.751   0.210   6.465
   16SAPS   C12 2000   6.897   0.356   6.425
   16SAPS  H12A 2001   6.956   0.275   6.384
   16SAPS   C13 2002   6.835   0.447   6.314
   16SAPS  O13A 2003   6.717   0.427   6.281
   16SAPS  O13B 2004   6.902   0.545   6.265
   16SAPS   C11 2005   6.984   0.438   6.521
   16SAPS  H11A 2006   6.923   0.519   6.568
   16SAPS  H11B 2007   7.065   0.492   6.467
   16SAPS     P 2008   7.188   0.332   6.650
   16SAPS   O13 2009   7.210   0.192   6.606
   16SAPS   O14 2010   7.269   0.438   6.586
   16SAPS   O12 2011   7.033   0.356   6.625
   16SAPS   O11 2012   7.213   0.349   6.802
   16SAPS    C1 2013   7.093   0.316   6.874
   16SAPS    HA 2014   7.013   0.389   6.848
   16SAPS    HB 2015   7.062   0.211   6.852
   16SAPS    C2 2016   7.132   0.338   7.025
   16SAPS    HS 2017   7.158   0.446   7.028
   16SAPS   O21 2018   7.237   0.246   7.066
   16SAPS   C21 2019   7.325   0.296   7.153
   16SAPS   O22 2020   7.318   0.407   7.203
   16SAPS   C22 2021   7.434   0.195   7.175
   16SAPS   H2R 2022   7.382   0.099   7.157
   16SAPS   H2S 2023   7.512   0.226   7.102
   16SAPS    C3 2024   7.005   0.312   7.119
   16SAPS    HX 2025   6.997   0.202   7.131
   16SAPS    HY 2026   6.914   0.340   7.062
   16SAPS   O31 2027   7.023   0.364   7.253
   16SAPS   C31 2028   7.006   0.497   7.266
   16SAPS   O32 2029   6.970   0.577   7.186
   16SAPS   C32 2030   7.027   0.525   7.417
   16SAPS   H2X 2031   7.034   0.635   7.430
   16SAPS   H2Y 2032   7.129   0.487   7.435
   16SAPS   C23 2033   7.502   0.202   7.314
   16SAPS   H3R 2034   7.503   0.307   7.350
   16SAPS   H3S 2035   7.607   0.171   7.296
   16SAPS   C24 2036   7.436   0.120   7.419
   16SAPS   H4R 2037   7.456   0.012   7.401
   16SAPS   H4S 2038   7.327   0.136   7.406
   16SAPS   C25 2039   7.489   0.139   7.561
   16SAPS   H5R 2040   7.597   0.123   7.571
   16SAPS   C26 2041   7.420   0.146   7.674
   16SAPS   H6R 2042   7.478   0.145   7.767
   16SAPS   C27 2043   7.273   0.160   7.689
   16SAPS   H7R 2044   7.236   0.105   7.778
   16SAPS   H7S 2045   7.217   0.101   7.612
   16SAPS   C28 2046   7.234   0.299   7.691
   16SAPS   H8R 2047   7.265   0.354   7.602
   16SAPS   C29 2048   7.170   0.371   7.787
   16SAPS   H9R 2049   7.138   0.475   7.768
   16SAPS  C210 2050   7.131   0.322   7.923
   16SAPS  H10R 2051   7.120   0.211   7.923
   16SAPS  H10S 2052   7.027   0.354   7.941
   16SAPS  C211 2053   7.237   0.349   8.032
   16SAPS  H11R 2054   7.332   0.394   7.997
   16SAPS  C212 2055   7.230   0.318   8.163
   16SAPS  H12R 2056   7.313   0.333   8.234
   16SAPS  C213 2057   7.102   0.258   8.220
   16SAPS  H13R 2058   7.134   0.223   8.321
   16SAPS  H13S 2059   7.060   0.171   8.165
   16SAPS  C214 2060   6.994   0.367   8.236
   16SAPS  H14R 2061   6.996   0.438   8.152
   16SAPS  C215 2062   6.919   0.389   8.343
   16SAPS  H15R 2063   6.849   0.472   8.328
   16SAPS  C216 2064   6.922   0.322   8.481
   16SAPS  H16R 2065   6.922   0.400   8.560
   16SAPS  H16S 2066   7.017   0.265   8.488
   16SAPS  C217 2067   6.811   0.216   8.507
   16SAPS  H17R 2068   6.845   0.126   8.452
   16SAPS  H17S 2069   6.715   0.256   8.467
   16SAPS  C218 2070   6.802   0.179   8.656
   16SAPS  H18R 2071   6.796   0.277   8.708
   16SAPS  H18S 2072   6.897   0.133   8.693
   16SAPS  C219 2073   6.686   0.096   8.693
   16SAPS  H19R 2074   6.699   0.000   8.638
   16SAPS  H19S 2075   6.588   0.136   8.659
   16SAPS  C220 2076   6.667   0.065   8.843
   16SAPS  H20R 2077   6.563   0.032   8.866
   16SAPS  H20S 2078   6.698   0.155   8.900
   16SAPS  H20T 2079   6.740  -0.014   8.872
   16SAPS   C33 2080   6.923   0.467   7.509
   16SAPS   H3X 2081   6.957   0.465   7.614
   16SAPS   H3Y 2082   6.895   0.364   7.478
   16SAPS   C34 2083   6.794   0.549   7.512
   16SAPS   H4X 2084   6.756   0.531   7.409
   16SAPS   H4Y 2085   6.831   0.654   7.523
   16SAPS   C35 2086   6.688   0.496   7.615
   16SAPS   H5X 2087   6.674   0.387   7.598
   16SAPS   H5Y 2088   6.588   0.541   7.596
   16SAPS   C36 2089   6.740   0.519   7.761
   16SAPS   H6X 2090   6.745   0.629   7.779
   16SAPS   H6Y 2091   6.834   0.464   7.779
   16SAPS   C37 2092   6.642   0.485   7.881
   16SAPS   H7X 2093   6.586   0.395   7.848
   16SAPS   H7Y 2094   6.565   0.565   7.879
   16SAPS   C38 2095   6.704   0.449   8.016
   16SAPS   H8X 2096   6.778   0.529   8.038
   16SAPS   H8Y 2097   6.770   0.360   8.008
   16SAPS   C39 2098   6.612   0.457   8.137
   16SAPS   H9X 2099   6.651   0.398   8.222
   16SAPS   H9Y 2100   6.511   0.417   8.112
   16SAPS  C310 2101   6.601   0.596   8.191
   16SAPS  H10X 2102   6.558   0.652   8.105
   16SAPS  H10Y 2103   6.691   0.655   8.219
   16SAPS  C311 2104   6.494   0.596   8.302
   16SAPS  H11X 2105   6.527   0.510   8.365
   16SAPS  H11Y 2106   6.393   0.575   8.259
   16SAPS  C312 2107   6.499   0.717   8.403
   16SAPS  H12X 2108   6.469   0.816   8.364
   16SAPS  H12Y 2109   6.605   0.730   8.433
   16SAPS  C313 2110   6.425   0.691   8.535
   16SAPS  H13X 2111   6.469   0.601   8.583
   16SAPS  H13Y 2112   6.318   0.672   8.513
   16SAPS  C314 2113   6.411   0.797   8.654
   16SAPS  H14X 2114   6.334   0.866   8.614
   16SAPS  H14Y 2115   6.503   0.856   8.675
   16SAPS  C315 2116   6.368   0.731   8.785
   16SAPS  H15X 2117   6.463   0.691   8.826
   16SAPS  H15Y 2118   6.295   0.652   8.757
   16SAPS  C316 2119   6.286   0.816   8.888
   16SAPS  H16X 2120   6.363   0.881   8.936
   16SAPS  H16Y 2121   6.229   0.755   8.961
   16SAPS  C317 2122   6.175   0.899   8.818
   16SAPS  H17X 2123   6.125   0.840   8.738
   16SAPS  H17Y 2124   6.229   0.982   8.767
   16SAPS  C318 2125   6.075   0.964   8.908
   16SAPS  H18X 2126   6.034   0.878   8.966
   16SAPS  H18Y 2127   5.990   1.009   8.852
   16SAPS  H18Z 2128   6.114   1.038   8.980
   17SAPC     N 2129   3.738   3.534  10.314
   17SAPC   C12 2130   3.822   3.414  10.355
   17SAPC  H12A 2131   3.763   3.341  10.407
   17SAPC  H12B 2132   3.894   3.436  10.433
   17SAPC   C13 2133   3.805   3.642  10.243
   17SAPC  H13A 2134   3.722   3.703  10.210
   17SAPC  H13B 2135   3.878   3.698  10.299
   17SAPC  H13C 2136   3.840   3.601  10.149
   17SAPC   C14 2137   3.643   3.480  10.208
   17SAPC  H14A 2138   3.562   3.550  10.190
   17SAPC  H14B 2139   3.688   3.466  10.111
   17SAPC  H14C 2140   3.604   3.384  10.237
   17SAPC   C15 2141   3.648   3.579  10.423
   17SAPC  H15A 2142   3.704   3.619  10.506
   17SAPC  H15B 2143   3.586   3.660  10.388
   17SAPC  H15C 2144   3.572   3.505  10.445
   17SAPC   C11 2145   3.906   3.350  10.237
   17SAPC  H11A 2146   3.968   3.427  10.186
   17SAPC  H11B 2147   3.832   3.306  10.167
   17SAPC     P 2148   4.139   3.276  10.325
   17SAPC   O13 2149   4.144   3.403  10.401
   17SAPC   O14 2150   4.192   3.155  10.388
   17SAPC   O12 2151   3.985   3.249  10.294
   17SAPC   O11 2152   4.224   3.305  10.193
   17SAPC    C1 2153   4.321   3.213  10.139
   17SAPC    HA 2154   4.416   3.268  10.121
   17SAPC    HB 2155   4.332   3.129  10.210
   17SAPC    C2 2156   4.281   3.158   9.999
   17SAPC    HS 2157   4.217   3.069  10.017
   17SAPC   O21 2158   4.393   3.126   9.924
   17SAPC   C21 2159   4.463   3.024   9.976
   17SAPC   O22 2160   4.431   2.962  10.079
   17SAPC   C22 2161   4.599   3.023   9.912
   17SAPC   H2R 2162   4.598   2.985   9.808
   17SAPC   H2S 2163   4.639   3.126   9.897
   17SAPC    C3 2164   4.194   3.266   9.926
   17SAPC    HX 2165   4.268   3.348   9.913
   17SAPC    HY 2166   4.113   3.287   9.998
   17SAPC   O31 2167   4.152   3.242   9.793
   17SAPC   C31 2168   4.046   3.166   9.782
   17SAPC   O32 2169   3.978   3.116   9.869
   17SAPC   C32 2170   4.016   3.133   9.636
   17SAPC   H2X 2171   3.913   3.169   9.612
   17SAPC   H2Y 2172   4.011   3.023   9.633
   17SAPC   C23 2173   4.699   2.946   9.993
   17SAPC   H3R 2174   4.677   2.837   9.997
   17SAPC   H3S 2175   4.702   2.987  10.096
   17SAPC   C24 2176   4.837   2.948   9.933
   17SAPC   H4R 2177   4.813   2.934   9.826
   17SAPC   H4S 2178   4.896   2.863   9.972
   17SAPC   C25 2179   4.914   3.074   9.962
   17SAPC   H5R 2180   4.912   3.117  10.063
   17SAPC   C26 2181   4.997   3.142   9.882
   17SAPC   H6R 2182   5.064   3.210   9.936
   17SAPC   C27 2183   5.037   3.106   9.742
   17SAPC   H7R 2184   4.963   3.031   9.708
   17SAPC   H7S 2185   5.134   3.052   9.734
   17SAPC   C28 2186   5.018   3.219   9.649
   17SAPC   H8R 2187   5.078   3.308   9.673
   17SAPC   C29 2188   4.957   3.226   9.529
   17SAPC   H9R 2189   4.943   3.325   9.483
   17SAPC  C210 2190   4.906   3.110   9.451
   17SAPC  H10R 2191   4.854   3.032   9.511
   17SAPC  H10S 2192   4.990   3.049   9.410
   17SAPC  C211 2193   4.822   3.155   9.333
   17SAPC  H11R 2194   4.859   3.239   9.272
   17SAPC  C212 2195   4.702   3.104   9.305
   17SAPC  H12R 2196   4.648   3.140   9.217
   17SAPC  C213 2197   4.634   2.993   9.376
   17SAPC  H13R 2198   4.700   2.911   9.409
   17SAPC  H13S 2199   4.569   2.948   9.298
   17SAPC  C214 2200   4.547   3.043   9.494
   17SAPC  H14R 2201   4.569   3.146   9.527
   17SAPC  C215 2202   4.465   2.968   9.566
   17SAPC  H15R 2203   4.403   3.008   9.647
   17SAPC  C216 2204   4.444   2.824   9.550
   17SAPC  H16R 2205   4.523   2.781   9.485
   17SAPC  H16S 2206   4.346   2.807   9.499
   17SAPC  C217 2207   4.437   2.745   9.675
   17SAPC  H17R 2208   4.514   2.766   9.753
   17SAPC  H17S 2209   4.455   2.641   9.641
   17SAPC  C218 2210   4.301   2.760   9.739
   17SAPC  H18R 2211   4.216   2.757   9.668
   17SAPC  H18S 2212   4.300   2.858   9.791
   17SAPC  C219 2213   4.286   2.654   9.843
   17SAPC  H19R 2214   4.361   2.678   9.921
   17SAPC  H19S 2215   4.312   2.554   9.801
   17SAPC  C220 2216   4.146   2.658   9.911
   17SAPC  H20R 2217   4.068   2.639   9.834
   17SAPC  H20S 2218   4.127   2.761   9.949
   17SAPC  H20T 2219   4.148   2.586   9.995
   17SAPC   C33 2220   4.120   3.174   9.529
   17SAPC   H3X 2221   4.207   3.106   9.541
   17SAPC   H3Y 2222   4.155   3.278   9.543
   17SAPC   C34 2223   4.057   3.173   9.393
   17SAPC   H4X 2224   3.958   3.221   9.396
   17SAPC   H4Y 2225   4.040   3.070   9.354
   17SAPC   C35 2226   4.151   3.241   9.281
   17SAPC   H5X 2227   4.228   3.165   9.256
   17SAPC   H5Y 2228   4.202   3.334   9.312
   17SAPC   C36 2229   4.056   3.247   9.163
   17SAPC   H6X 2230   3.968   3.309   9.188
   17SAPC   H6Y 2231   4.015   3.147   9.137
   17SAPC   C37 2232   4.129   3.301   9.042
   17SAPC   H7X 2233   4.239   3.311   9.055
   17SAPC   H7Y 2234   4.094   3.404   9.021
   17SAPC   C38 2235   4.116   3.233   8.903
   17SAPC   H8X 2236   4.162   3.308   8.835
   17SAPC   H8Y 2237   4.009   3.221   8.876
   17SAPC   C39 2238   4.193   3.101   8.891
   17SAPC   H9X 2239   4.145   3.024   8.955
   17SAPC   H9Y 2240   4.290   3.117   8.944
   17SAPC  C310 2241   4.194   3.061   8.741
   17SAPC  H10X 2242   4.260   3.140   8.700
   17SAPC  H10Y 2243   4.095   3.063   8.690
   17SAPC  C311 2244   4.268   2.928   8.723
   17SAPC  H11X 2245   4.210   2.849   8.773
   17SAPC  H11Y 2246   4.363   2.922   8.781
   17SAPC  C312 2247   4.306   2.911   8.577
   17SAPC  H12X 2248   4.396   2.851   8.555
   17SAPC  H12Y 2249   4.337   3.007   8.530
   17SAPC  C313 2250   4.196   2.853   8.482
   17SAPC  H13X 2251   4.103   2.907   8.511
   17SAPC  H13Y 2252   4.168   2.749   8.508
   17SAPC  C314 2253   4.209   2.876   8.332
   17SAPC  H14X 2254   4.294   2.942   8.303
   17SAPC  H14Y 2255   4.122   2.902   8.268
   17SAPC  C315 2256   4.247   2.743   8.267
   17SAPC  H15X 2257   4.166   2.668   8.277
   17SAPC  H15Y 2258   4.330   2.696   8.325
   17SAPC  C316 2259   4.281   2.759   8.121
   17SAPC  H16X 2260   4.355   2.842   8.117
   17SAPC  H16Y 2261   4.188   2.793   8.072
   17SAPC  C317 2262   4.328   2.637   8.040
   17SAPC  H17X 2263   4.435   2.623   8.066
   17SAPC  H17Y 2264   4.317   2.661   7.932
   17SAPC  C318 2265   4.255   2.508   8.073
   17SAPC  H18X 2266   4.256   2.428   7.996
   17SAPC  H18Y 2267   4.285   2.473   8.174
   17SAPC  H18Z 2268   4.150   2.541   8.089
   18SAPC     N 2269   5.493   3.173  10.662
   18SAPC   C12 2270   5.405   3.093  10.564
   18SAPC  H12A 2271   5.339   3.169  10.522
   18SAPC  H12B 2272   5.335   3.024  10.607
   18SAPC   C13 2273   5.562   3.282  10.585
   18SAPC  H13A 2274   5.620   3.237  10.505
   18SAPC  H13B 2275   5.492   3.354  10.547
   18SAPC  H13C 2276   5.626   3.340  10.650
   18SAPC   C14 2277   5.406   3.228  10.769
   18SAPC  H14A 2278   5.316   3.265  10.722
   18SAPC  H14B 2279   5.372   3.156  10.842
   18SAPC  H14C 2280   5.445   3.318  10.816
   18SAPC   C15 2281   5.588   3.083  10.731
   18SAPC  H15A 2282   5.536   3.008  10.788
   18SAPC  H15B 2283   5.640   3.024  10.657
   18SAPC  H15C 2284   5.660   3.126  10.799
   18SAPC   C11 2285   5.473   3.010  10.450
   18SAPC  H11A 2286   5.555   3.069  10.404
   18SAPC  H11B 2287   5.401   3.000  10.365
   18SAPC     P 2288   5.407   2.775  10.518
   18SAPC   O13 2289   5.460   2.660  10.591
   18SAPC   O14 2290   5.279   2.826  10.573
   18SAPC   O12 2291   5.514   2.885  10.503
   18SAPC   O11 2292   5.375   2.723  10.366
   18SAPC    C1 2293   5.475   2.726  10.264
   18SAPC    HA 2294   5.449   2.812  10.199
   18SAPC    HB 2295   5.575   2.750  10.306
   18SAPC    C2 2296   5.480   2.587  10.185
   18SAPC    HS 2297   5.570   2.598  10.122
   18SAPC   O21 2298   5.371   2.567  10.096
   18SAPC   C21 2299   5.352   2.651  10.001
   18SAPC   O22 2300   5.431   2.733   9.960
   18SAPC   C22 2301   5.210   2.619   9.939
   18SAPC   H2R 2302   5.200   2.509   9.937
   18SAPC   H2S 2303   5.123   2.667   9.989
   18SAPC    C3 2304   5.490   2.466  10.288
   18SAPC    HX 2305   5.403   2.474  10.356
   18SAPC    HY 2306   5.575   2.490  10.355
   18SAPC   O31 2307   5.513   2.335  10.231
   18SAPC   C31 2308   5.403   2.259  10.212
   18SAPC   O32 2309   5.293   2.302  10.238
   18SAPC   C32 2310   5.440   2.125  10.133
   18SAPC   H2X 2311   5.427   2.036  10.198
   18SAPC   H2Y 2312   5.547   2.139  10.107
   18SAPC   C23 2313   5.202   2.658   9.792
   18SAPC   H3R 2314   5.286   2.614   9.734
   18SAPC   H3S 2315   5.218   2.766   9.772
   18SAPC   C24 2316   5.069   2.619   9.724
   18SAPC   H4R 2317   4.996   2.684   9.777
   18SAPC   H4S 2318   5.042   2.516   9.757
   18SAPC   C25 2319   5.063   2.622   9.571
   18SAPC   H5R 2320   5.132   2.693   9.523
   18SAPC   C26 2321   5.005   2.530   9.490
   18SAPC   H6R 2322   5.027   2.530   9.382
   18SAPC   C27 2323   4.931   2.411   9.539
   18SAPC   H7R 2324   4.860   2.456   9.611
   18SAPC   H7S 2325   4.998   2.346   9.599
   18SAPC   C28 2326   4.864   2.319   9.442
   18SAPC   H8R 2327   4.897   2.215   9.450
   18SAPC   C29 2328   4.769   2.353   9.361
   18SAPC   H9R 2329   4.732   2.271   9.297
   18SAPC  C210 2330   4.691   2.478   9.358
   18SAPC  H10R 2331   4.653   2.500   9.255
   18SAPC  H10S 2332   4.760   2.554   9.399
   18SAPC  C211 2333   4.570   2.461   9.441
   18SAPC  H11R 2334   4.600   2.482   9.544
   18SAPC  C212 2335   4.450   2.401   9.414
   18SAPC  H12R 2336   4.372   2.417   9.490
   18SAPC  C213 2337   4.401   2.346   9.274
   18SAPC  H13R 2338   4.487   2.339   9.205
   18SAPC  H13S 2339   4.321   2.411   9.234
   18SAPC  C214 2340   4.336   2.209   9.272
   18SAPC  H14R 2341   4.303   2.165   9.367
   18SAPC  C215 2342   4.359   2.115   9.181
   18SAPC  H15R 2343   4.314   2.014   9.187
   18SAPC  C216 2344   4.440   2.127   9.050
   18SAPC  H16R 2345   4.544   2.096   9.070
   18SAPC  H16S 2346   4.430   2.222   8.992
   18SAPC  C217 2347   4.390   2.024   8.946
   18SAPC  H17R 2348   4.284   2.043   8.919
   18SAPC  H17S 2349   4.378   1.923   8.990
   18SAPC  C218 2350   4.470   2.002   8.818
   18SAPC  H18R 2351   4.579   1.982   8.831
   18SAPC  H18S 2352   4.464   2.098   8.763
   18SAPC  C219 2353   4.409   1.898   8.731
   18SAPC  H19R 2354   4.320   1.938   8.679
   18SAPC  H19S 2355   4.375   1.806   8.785
   18SAPC  C220 2356   4.490   1.853   8.608
   18SAPC  H20R 2357   4.536   1.940   8.558
   18SAPC  H20S 2358   4.422   1.800   8.538
   18SAPC  H20T 2359   4.582   1.798   8.641
   18SAPC   C33 2360   5.352   2.116  10.009
   18SAPC   H3X 2361   5.247   2.123  10.042
   18SAPC   H3Y 2362   5.362   2.014   9.966
   18SAPC   C34 2363   5.379   2.228   9.905
   18SAPC   H4X 2364   5.478   2.216   9.856
   18SAPC   H4Y 2365   5.368   2.331   9.943
   18SAPC   C35 2366   5.271   2.234   9.791
   18SAPC   H5X 2367   5.302   2.322   9.729
   18SAPC   H5Y 2368   5.175   2.256   9.842
   18SAPC   C36 2369   5.258   2.110   9.696
   18SAPC   H6X 2370   5.201   2.029   9.746
   18SAPC   H6Y 2371   5.365   2.083   9.684
   18SAPC   C37 2372   5.190   2.143   9.563
   18SAPC   H7X 2373   5.207   2.247   9.529
   18SAPC   H7Y 2374   5.081   2.130   9.584
   18SAPC   C38 2375   5.240   2.040   9.453
   18SAPC   H8X 2376   5.153   1.974   9.435
   18SAPC   H8Y 2377   5.309   1.961   9.490
   18SAPC   C39 2378   5.300   2.104   9.325
   18SAPC   H9X 2379   5.352   2.034   9.256
   18SAPC   H9Y 2380   5.374   2.181   9.356
   18SAPC  C310 2381   5.189   2.166   9.237
   18SAPC  H10X 2382   5.235   2.237   9.166
   18SAPC  H10Y 2383   5.133   2.226   9.313
   18SAPC  C311 2384   5.095   2.065   9.166
   18SAPC  H11X 2385   5.057   1.996   9.244
   18SAPC  H11Y 2386   5.138   2.016   9.076
   18SAPC  C312 2387   4.968   2.131   9.107
   18SAPC  H12X 2388   4.944   2.224   9.165
   18SAPC  H12Y 2389   4.883   2.065   9.134
   18SAPC  C313 2390   4.967   2.156   8.956
   18SAPC  H13X 2391   4.970   2.059   8.901
   18SAPC  H13Y 2392   5.065   2.199   8.927
   18SAPC  C314 2393   4.844   2.235   8.906
   18SAPC  H14X 2394   4.750   2.177   8.898
   18SAPC  H14Y 2395   4.888   2.276   8.813
   18SAPC  C315 2396   4.802   2.355   8.986
   18SAPC  H15X 2397   4.899   2.402   9.014
   18SAPC  H15Y 2398   4.742   2.332   9.076
   18SAPC  C316 2399   4.729   2.463   8.897
   18SAPC  H16X 2400   4.633   2.421   8.861
   18SAPC  H16Y 2401   4.779   2.484   8.800
   18SAPC  C317 2402   4.724   2.591   8.965
   18SAPC  H17X 2403   4.826   2.630   8.985
   18SAPC  H17Y 2404   4.675   2.572   9.062
   18SAPC  C318 2405   4.646   2.691   8.891
   18SAPC  H18X 2406   4.648   2.786   8.949
   18SAPC  H18Y 2407   4.541   2.658   8.880
   18SAPC  H18Z 2408   4.686   2.700   8.787
   19SAPC     N 2409   4.373   4.019  10.631
   19SAPC   C12 2410   4.254   4.113  10.659
   19SAPC  H12A 2411   4.266   4.187  10.581
   19SAPC  H12B 2412   4.262   4.157  10.757
   19SAPC   C13 2413   4.499   4.088  10.669
   19SAPC  H13A 2414   4.570   4.024  10.619
   19SAPC  H13B 2415   4.505   4.184  10.620
   19SAPC  H13C 2416   4.525   4.089  10.774
   19SAPC   C14 2417   4.355   3.885  10.698
   19SAPC  H14A 2418   4.338   3.904  10.803
   19SAPC  H14B 2419   4.267   3.846  10.650
   19SAPC  H14C 2420   4.430   3.808  10.693
   19SAPC   C15 2421   4.374   3.996  10.483
   19SAPC  H15A 2422   4.419   4.078  10.427
   19SAPC  H15B 2423   4.420   3.900  10.465
   19SAPC  H15C 2424   4.271   3.995  10.450
   19SAPC   C11 2425   4.113   4.054  10.651
   19SAPC  H11A 2426   4.043   4.137  10.675
   19SAPC  H11B 2427   4.104   3.975  10.728
   19SAPC     P 2428   3.953   3.938  10.481
   19SAPC   O13 2429   3.992   3.819  10.396
   19SAPC   O14 2430   3.872   3.916  10.599
   19SAPC   O12 2431   4.091   4.001  10.520
   19SAPC   O11 2432   3.878   4.042  10.390
   19SAPC    C1 2433   3.854   4.181  10.427
   19SAPC    HA 2434   3.743   4.194  10.427
   19SAPC    HB 2435   3.897   4.213  10.524
   19SAPC    C2 2436   3.920   4.274  10.320
   19SAPC    HS 2437   3.882   4.374  10.350
   19SAPC   O21 2438   3.878   4.235  10.184
   19SAPC   C21 2439   3.756   4.299  10.155
   19SAPC   O22 2440   3.699   4.379  10.227
   19SAPC   C22 2441   3.712   4.256  10.013
   19SAPC   H2R 2442   3.725   4.147  10.000
   19SAPC   H2S 2443   3.604   4.282  10.005
   19SAPC    C3 2444   4.075   4.282  10.336
   19SAPC    HX 2445   4.121   4.181  10.331
   19SAPC    HY 2446   4.108   4.319  10.435
   19SAPC   O31 2447   4.120   4.369  10.236
   19SAPC   C31 2448   4.244   4.356  10.196
   19SAPC   O32 2449   4.322   4.272  10.236
   19SAPC   C32 2450   4.278   4.451  10.080
   19SAPC   H2X 2451   4.371   4.409  10.036
   19SAPC   H2Y 2452   4.312   4.544  10.131
   19SAPC   C23 2453   3.782   4.345   9.906
   19SAPC   H3R 2454   3.891   4.323   9.917
   19SAPC   H3S 2455   3.769   4.454   9.919
   19SAPC   C24 2456   3.747   4.303   9.763
   19SAPC   H4R 2457   3.786   4.199   9.758
   19SAPC   H4S 2458   3.806   4.361   9.689
   19SAPC   C25 2459   3.603   4.314   9.721
   19SAPC   H5R 2460   3.534   4.360   9.794
   19SAPC   C26 2461   3.557   4.269   9.602
   19SAPC   H6R 2462   3.450   4.281   9.580
   19SAPC   C27 2463   3.645   4.199   9.499
   19SAPC   H7R 2464   3.670   4.094   9.526
   19SAPC   H7S 2465   3.743   4.250   9.496
   19SAPC   C28 2466   3.577   4.213   9.360
   19SAPC   H8R 2467   3.485   4.154   9.350
   19SAPC   C29 2468   3.620   4.266   9.247
   19SAPC   H9R 2469   3.558   4.242   9.160
   19SAPC  C210 2470   3.745   4.351   9.226
   19SAPC  H10R 2471   3.791   4.350   9.327
   19SAPC  H10S 2472   3.715   4.456   9.202
   19SAPC  C211 2473   3.835   4.294   9.122
   19SAPC  H11R 2474   3.873   4.192   9.140
   19SAPC  C212 2475   3.882   4.368   9.018
   19SAPC  H12R 2476   3.944   4.307   8.952
   19SAPC  C213 2477   3.851   4.512   8.979
   19SAPC  H13R 2478   3.881   4.573   9.067
   19SAPC  H13S 2479   3.740   4.523   8.971
   19SAPC  C214 2480   3.924   4.563   8.859
   19SAPC  H14R 2481   4.033   4.552   8.861
   19SAPC  C215 2482   3.872   4.628   8.755
   19SAPC  H15R 2483   3.938   4.641   8.668
   19SAPC  C216 2484   3.730   4.664   8.722
   19SAPC  H16R 2485   3.716   4.771   8.746
   19SAPC  H16S 2486   3.655   4.606   8.780
   19SAPC  C217 2487   3.690   4.654   8.569
   19SAPC  H17R 2488   3.725   4.555   8.533
   19SAPC  H17S 2489   3.755   4.731   8.521
   19SAPC  C218 2490   3.541   4.659   8.545
   19SAPC  H18R 2491   3.485   4.748   8.580
   19SAPC  H18S 2492   3.499   4.577   8.606
   19SAPC  C219 2493   3.495   4.639   8.404
   19SAPC  H19R 2494   3.405   4.576   8.402
   19SAPC  H19S 2495   3.577   4.587   8.350
   19SAPC  C220 2496   3.478   4.766   8.325
   19SAPC  H20R 2497   3.422   4.746   8.231
   19SAPC  H20S 2498   3.576   4.817   8.316
   19SAPC  H20T 2499   3.406   4.837   8.372
   19SAPC   C33 2500   4.161   4.469   9.984
   19SAPC   H3X 2501   4.078   4.510  10.045
   19SAPC   H3Y 2502   4.126   4.371   9.947
   19SAPC   C34 2503   4.189   4.568   9.861
   19SAPC   H4X 2504   4.255   4.515   9.789
   19SAPC   H4Y 2505   4.253   4.653   9.892
   19SAPC   C35 2506   4.065   4.604   9.777
   19SAPC   H5X 2507   3.992   4.673   9.825
   19SAPC   H5Y 2508   4.004   4.513   9.763
   19SAPC   C36 2509   4.112   4.667   9.645
   19SAPC   H6X 2510   4.157   4.590   9.580
   19SAPC   H6Y 2511   4.199   4.734   9.657
   19SAPC   C37 2512   3.996   4.737   9.568
   19SAPC   H7X 2513   3.952   4.816   9.632
   19SAPC   H7Y 2514   3.916   4.661   9.552
   19SAPC   C38 2515   4.042   4.787   9.435
   19SAPC   H8X 2516   4.123   4.863   9.434
   19SAPC   H8Y 2517   3.957   4.851   9.404
   19SAPC   C39 2518   4.079   4.683   9.332
   19SAPC   H9X 2519   4.000   4.605   9.324
   19SAPC   H9Y 2520   4.175   4.630   9.350
   19SAPC  C310 2521   4.074   4.750   9.194
   19SAPC  H10X 2522   3.977   4.804   9.186
   19SAPC  H10Y 2523   4.069   4.675   9.112
   19SAPC  C311 2524   4.189   4.841   9.166
   19SAPC  H11X 2525   4.281   4.785   9.194
   19SAPC  H11Y 2526   4.180   4.918   9.245
   19SAPC  C312 2527   4.191   4.880   9.020
   19SAPC  H12X 2528   4.227   4.982   8.994
   19SAPC  H12Y 2529   4.086   4.880   8.984
   19SAPC  C313 2530   4.266   4.777   8.933
   19SAPC  H13X 2531   4.232   4.672   8.946
   19SAPC  H13Y 2532   4.372   4.771   8.966
   19SAPC  C314 2533   4.272   4.823   8.786
   19SAPC  H14X 2534   4.331   4.917   8.786
   19SAPC  H14Y 2535   4.165   4.839   8.760
   19SAPC  C315 2536   4.368   4.738   8.694
   19SAPC  H15X 2537   4.342   4.630   8.699
   19SAPC  H15Y 2538   4.475   4.757   8.718
   19SAPC  C316 2539   4.364   4.782   8.542
   19SAPC  H16X 2540   4.390   4.890   8.545
   19SAPC  H16Y 2541   4.263   4.769   8.498
   19SAPC  C317 2542   4.464   4.702   8.456
   19SAPC  H17X 2543   4.563   4.738   8.494
   19SAPC  H17Y 2544   4.457   4.730   8.349
   19SAPC  C318 2545   4.446   4.551   8.468
   19SAPC  H18X 2546   4.470   4.531   8.574
   19SAPC  H18Y 2547   4.504   4.484   8.400
   19SAPC  H18Z 2548   4.338   4.531   8.455
   20SAPC     N 2549   4.616   0.838  11.092
   20SAPC   C12 2550   4.554   0.801  10.957
   20SAPC  H12A 2551   4.469   0.740  10.982
   20SAPC  H12B 2552   4.623   0.732  10.909
   20SAPC   C13 2553   4.639   0.720  11.182
   20SAPC  H13A 2554   4.671   0.749  11.282
   20SAPC  H13B 2555   4.553   0.656  11.192
   20SAPC  H13C 2556   4.711   0.653  11.139
   20SAPC   C14 2557   4.732   0.933  11.074
   20SAPC  H14A 2558   4.809   0.883  11.016
   20SAPC  H14B 2559   4.710   1.020  11.014
   20SAPC  H14C 2560   4.765   0.962  11.172
   20SAPC   C15 2561   4.513   0.908  11.174
   20SAPC  H15A 2562   4.469   0.988  11.116
   20SAPC  H15B 2563   4.433   0.844  11.208
   20SAPC  H15C 2564   4.556   0.946  11.265
   20SAPC   C11 2565   4.508   0.916  10.862
   20SAPC  H11A 2566   4.461   0.876  10.769
   20SAPC  H11B 2567   4.593   0.970  10.814
   20SAPC     P 2568   4.272   1.010  10.925
   20SAPC   O13 2569   4.232   0.874  10.931
   20SAPC   O14 2570   4.237   1.086  11.050
   20SAPC   O12 2571   4.431   1.017  10.919
   20SAPC   O11 2572   4.220   1.077  10.792
   20SAPC    C1 2573   4.310   1.142  10.705
   20SAPC    HA 2574   4.318   1.248  10.737
   20SAPC    HB 2575   4.407   1.088  10.696
   20SAPC    C2 2576   4.267   1.146  10.557
   20SAPC    HS 2577   4.336   1.211  10.499
   20SAPC   O21 2578   4.133   1.189  10.533
   20SAPC   C21 2579   4.113   1.325  10.538
   20SAPC   O22 2580   4.201   1.407  10.532
   20SAPC   C22 2581   3.968   1.359  10.546
   20SAPC   H2R 2582   3.930   1.315  10.641
   20SAPC   H2S 2583   3.962   1.470  10.554
   20SAPC    C3 2584   4.279   1.006  10.483
   20SAPC    HX 2585   4.202   0.952  10.543
   20SAPC    HY 2586   4.375   0.955  10.505
   20SAPC   O31 2587   4.264   1.014  10.340
   20SAPC   C31 2588   4.145   0.977  10.289
   20SAPC   O32 2589   4.050   0.939  10.352
   20SAPC   C32 2590   4.159   0.986  10.140
   20SAPC   H2X 2591   4.246   0.926  10.107
   20SAPC   H2Y 2592   4.178   1.091  10.109
   20SAPC   C23 2593   3.870   1.305  10.434
   20SAPC   H3R 2594   3.880   1.194  10.442
   20SAPC   H3S 2595   3.909   1.335  10.334
   20SAPC   C24 2596   3.726   1.345  10.454
   20SAPC   H4R 2597   3.702   1.340  10.562
   20SAPC   H4S 2598   3.663   1.263  10.414
   20SAPC   C25 2599   3.700   1.477  10.389
   20SAPC   H5R 2600   3.705   1.560  10.462
   20SAPC   C26 2601   3.681   1.503  10.257
   20SAPC   H6R 2602   3.660   1.607  10.228
   20SAPC   C27 2603   3.690   1.408  10.141
   20SAPC   H7R 2604   3.605   1.436  10.075
   20SAPC   H7S 2605   3.676   1.304  10.178
   20SAPC   C28 2606   3.816   1.415  10.055
   20SAPC   H8R 2607   3.906   1.435  10.115
   20SAPC   C29 2608   3.816   1.400   9.922
   20SAPC   H9R 2609   3.913   1.393   9.871
   20SAPC  C210 2610   3.699   1.356   9.841
   20SAPC  H10R 2611   3.606   1.338   9.900
   20SAPC  H10S 2612   3.725   1.253   9.809
   20SAPC  C211 2613   3.674   1.452   9.729
   20SAPC  H11R 2614   3.643   1.554   9.757
   20SAPC  C212 2615   3.693   1.433   9.598
   20SAPC  H12R 2616   3.685   1.522   9.533
   20SAPC  C213 2617   3.767   1.318   9.524
   20SAPC  H13R 2618   3.707   1.270   9.444
   20SAPC  H13S 2619   3.776   1.236   9.598
   20SAPC  C214 2620   3.903   1.371   9.484
   20SAPC  H14R 2621   3.942   1.419   9.575
   20SAPC  C215 2622   3.963   1.370   9.365
   20SAPC  H15R 2623   4.055   1.420   9.333
   20SAPC  C216 2624   3.916   1.297   9.244
   20SAPC  H16R 2625   3.860   1.204   9.271
   20SAPC  H16S 2626   4.007   1.252   9.200
   20SAPC  C217 2627   3.840   1.388   9.143
   20SAPC  H17R 2628   3.893   1.484   9.124
   20SAPC  H17S 2629   3.748   1.426   9.192
   20SAPC  C218 2630   3.806   1.322   9.015
   20SAPC  H18R 2631   3.773   1.216   9.019
   20SAPC  H18S 2632   3.899   1.314   8.954
   20SAPC  C219 2633   3.691   1.389   8.935
   20SAPC  H19R 2634   3.605   1.407   9.003
   20SAPC  H19S 2635   3.662   1.321   8.852
   20SAPC  C220 2636   3.727   1.527   8.879
   20SAPC  H20R 2637   3.778   1.510   8.782
   20SAPC  H20S 2638   3.813   1.575   8.931
   20SAPC  H20T 2639   3.634   1.586   8.865
   20SAPC   C33 2640   4.029   0.932  10.072
   20SAPC   H3X 2641   3.939   0.993  10.096
   20SAPC   H3Y 2642   4.009   0.828  10.102
   20SAPC   C34 2643   4.044   0.942   9.928
   20SAPC   H4X 2644   3.959   0.888   9.882
   20SAPC   H4Y 2645   4.132   0.883   9.896
   20SAPC   C35 2646   4.053   1.082   9.872
   20SAPC   H5X 2647   4.148   1.133   9.901
   20SAPC   H5Y 2648   3.973   1.139   9.924
   20SAPC   C36 2649   4.032   1.117   9.725
   20SAPC   H6X 2650   4.055   1.223   9.702
   20SAPC   H6Y 2651   3.927   1.085   9.704
   20SAPC   C37 2652   4.124   1.043   9.629
   20SAPC   H7X 2653   4.076   1.063   9.531
   20SAPC   H7Y 2654   4.107   0.935   9.652
   20SAPC   C38 2655   4.274   1.088   9.636
   20SAPC   H8X 2656   4.319   1.032   9.721
   20SAPC   H8Y 2657   4.294   1.197   9.647
   20SAPC   C39 2658   4.340   1.043   9.501
   20SAPC   H9X 2659   4.294   0.947   9.469
   20SAPC   H9Y 2660   4.448   1.021   9.516
   20SAPC  C310 2661   4.316   1.140   9.380
   20SAPC  H10X 2662   4.377   1.231   9.399
   20SAPC  H10Y 2663   4.210   1.170   9.368
   20SAPC  C311 2664   4.362   1.081   9.253
   20SAPC  H11X 2665   4.314   0.982   9.243
   20SAPC  H11Y 2666   4.471   1.059   9.243
   20SAPC  C312 2667   4.332   1.173   9.134
   20SAPC  H12X 2668   4.375   1.270   9.166
   20SAPC  H12Y 2669   4.222   1.186   9.135
   20SAPC  C313 2670   4.380   1.140   8.993
   20SAPC  H13X 2671   4.491   1.137   8.986
   20SAPC  H13Y 2672   4.369   1.216   8.912
   20SAPC  C314 2673   4.319   1.012   8.922
   20SAPC  H14X 2674   4.210   1.031   8.917
   20SAPC  H14Y 2675   4.343   0.920   8.980
   20SAPC  C315 2676   4.354   0.991   8.776
   20SAPC  H15X 2677   4.462   0.968   8.773
   20SAPC  H15Y 2678   4.334   1.084   8.719
   20SAPC  C316 2679   4.288   0.872   8.710
   20SAPC  H16X 2680   4.180   0.876   8.734
   20SAPC  H16Y 2681   4.327   0.778   8.754
   20SAPC  C317 2682   4.320   0.867   8.560
   20SAPC  H17X 2683   4.424   0.903   8.548
   20SAPC  H17Y 2684   4.252   0.942   8.513
   20SAPC  C318 2685   4.316   0.732   8.488
   20SAPC  H18X 2686   4.321   0.757   8.379
   20SAPC  H18Y 2687   4.226   0.672   8.510
   20SAPC  H18Z 2688   4.399   0.666   8.519
   21SAPC     N 2689   3.659   0.338  10.797
   21SAPC   C12 2690   3.791   0.268  10.823
   21SAPC  H12A 2691   3.844   0.257  10.729
   21SAPC  H12B 2692   3.766   0.168  10.854
   21SAPC   C13 2693   3.698   0.471  10.744
   21SAPC  H13A 2694   3.773   0.516  10.807
   21SAPC  H13B 2695   3.749   0.459  10.650
   21SAPC  H13C 2696   3.622   0.546  10.731
   21SAPC   C14 2697   3.581   0.250  10.707
   21SAPC  H14A 2698   3.580   0.150  10.748
   21SAPC  H14B 2699   3.485   0.295  10.690
   21SAPC  H14C 2700   3.625   0.242  10.609
   21SAPC   C15 2701   3.584   0.349  10.920
   21SAPC  H15A 2702   3.579   0.248  10.958
   21SAPC  H15B 2703   3.633   0.410  10.994
   21SAPC  H15C 2704   3.483   0.385  10.914
   21SAPC   C11 2705   3.889   0.325  10.925
   21SAPC  H11A 2706   3.962   0.245  10.950
   21SAPC  H11B 2707   3.843   0.347  11.024
   21SAPC     P 2708   4.055   0.438  10.765
   21SAPC   O13 2709   4.034   0.560  10.690
   21SAPC   O14 2710   4.189   0.427  10.827
   21SAPC   O12 2711   3.950   0.444  10.885
   21SAPC   O11 2712   4.026   0.310  10.680
   21SAPC    C1 2713   4.132   0.267  10.587
   21SAPC    HA 2714   4.237   0.293  10.615
   21SAPC    HB 2715   4.130   0.157  10.572
   21SAPC    C2 2716   4.099   0.335  10.450
   21SAPC    HS 2717   4.050   0.432  10.471
   21SAPC   O21 2718   4.017   0.244  10.370
   21SAPC   C21 2719   3.892   0.237  10.409
   21SAPC   O22 2720   3.832   0.298  10.493
   21SAPC   C22 2721   3.839   0.121  10.324
   21SAPC   H2R 2722   3.920   0.092  10.254
   21SAPC   H2S 2723   3.820   0.046  10.405
   21SAPC    C3 2724   4.225   0.375  10.371
   21SAPC    HX 2725   4.282   0.281  10.355
   21SAPC    HY 2726   4.280   0.441  10.442
   21SAPC   O31 2727   4.203   0.446  10.247
   21SAPC   C31 2728   4.191   0.383  10.131
   21SAPC   O32 2729   4.223   0.268  10.106
   21SAPC   C32 2730   4.132   0.473  10.026
   21SAPC   H2X 2731   4.192   0.561   9.995
   21SAPC   H2Y 2732   4.037   0.514  10.065
   21SAPC   C23 2733   3.714   0.163  10.248
   21SAPC   H3R 2734   3.731   0.259  10.195
   21SAPC   H3S 2735   3.625   0.178  10.312
   21SAPC   C24 2736   3.693   0.053  10.140
   21SAPC   H4R 2737   3.689  -0.048  10.187
   21SAPC   H4S 2738   3.787   0.061  10.081
   21SAPC   C25 2739   3.567   0.069  10.060
   21SAPC   H5R 2740   3.478   0.073  10.125
   21SAPC   C26 2741   3.556   0.087   9.927
   21SAPC   H6R 2742   3.455   0.105   9.885
   21SAPC   C27 2743   3.665   0.081   9.822
   21SAPC   H7R 2744   3.619   0.045   9.727
   21SAPC   H7S 2745   3.747   0.016   9.859
   21SAPC   C28 2746   3.717   0.219   9.795
   21SAPC   H8R 2747   3.747   0.278   9.883
   21SAPC   C29 2748   3.746   0.279   9.677
   21SAPC   H9R 2749   3.776   0.385   9.674
   21SAPC  C210 2750   3.741   0.221   9.542
   21SAPC  H10R 2751   3.652   0.265   9.493
   21SAPC  H10S 2752   3.708   0.116   9.532
   21SAPC  C211 2753   3.857   0.247   9.447
   21SAPC  H11R 2754   3.942   0.182   9.471
   21SAPC  C212 2755   3.853   0.320   9.335
   21SAPC  H12R 2756   3.946   0.328   9.277
   21SAPC  C213 2757   3.739   0.408   9.281
   21SAPC  H13R 2758   3.785   0.500   9.239
   21SAPC  H13S 2759   3.678   0.441   9.368
   21SAPC  C214 2760   3.646   0.337   9.190
   21SAPC  H14R 2761   3.652   0.227   9.192
   21SAPC  C215 2762   3.556   0.403   9.108
   21SAPC  H15R 2763   3.492   0.344   9.040
   21SAPC  C216 2764   3.541   0.551   9.072
   21SAPC  H16R 2765   3.600   0.622   9.133
   21SAPC  H16S 2766   3.435   0.570   9.100
   21SAPC  C217 2767   3.568   0.585   8.928
   21SAPC  H17R 2768   3.520   0.519   8.853
   21SAPC  H17S 2769   3.679   0.576   8.925
   21SAPC  C218 2770   3.539   0.730   8.911
   21SAPC  H18R 2771   3.593   0.800   8.978
   21SAPC  H18S 2772   3.429   0.728   8.926
   21SAPC  C219 2773   3.580   0.776   8.765
   21SAPC  H19R 2774   3.515   0.718   8.695
   21SAPC  H19S 2775   3.683   0.740   8.745
   21SAPC  C220 2776   3.574   0.930   8.748
   21SAPC  H20R 2777   3.630   0.960   8.657
   21SAPC  H20S 2778   3.625   0.972   8.837
   21SAPC  H20T 2779   3.466   0.954   8.735
   21SAPC   C33 2780   4.100   0.406   9.894
   21SAPC   H3X 2781   3.990   0.398   9.883
   21SAPC   H3Y 2782   4.130   0.299   9.895
   21SAPC   C34 2783   4.160   0.465   9.765
   21SAPC   H4X 2784   4.271   0.472   9.765
   21SAPC   H4Y 2785   4.132   0.572   9.760
   21SAPC   C35 2786   4.111   0.390   9.641
   21SAPC   H5X 2787   4.009   0.422   9.611
   21SAPC   H5Y 2788   4.094   0.281   9.661
   21SAPC   C36 2789   4.209   0.404   9.526
   21SAPC   H6X 2790   4.222   0.311   9.466
   21SAPC   H6Y 2791   4.310   0.414   9.572
   21SAPC   C37 2792   4.187   0.534   9.448
   21SAPC   H7X 2793   4.203   0.618   9.519
   21SAPC   H7Y 2794   4.080   0.537   9.417
   21SAPC   C38 2795   4.280   0.564   9.330
   21SAPC   H8X 2796   4.386   0.565   9.366
   21SAPC   H8Y 2797   4.250   0.661   9.286
   21SAPC   C39 2798   4.261   0.457   9.215
   21SAPC   H9X 2799   4.155   0.447   9.187
   21SAPC   H9Y 2800   4.287   0.358   9.257
   21SAPC  C310 2801   4.350   0.459   9.088
   21SAPC  H10X 2802   4.457   0.480   9.111
   21SAPC  H10Y 2803   4.326   0.545   9.022
   21SAPC  C311 2804   4.338   0.331   8.995
   21SAPC  H11X 2805   4.331   0.235   9.050
   21SAPC  H11Y 2806   4.442   0.328   8.956
   21SAPC  C312 2807   4.242   0.345   8.872
   21SAPC  H12X 2808   4.245   0.446   8.826
   21SAPC  H12Y 2809   4.135   0.336   8.901
   21SAPC  C313 2810   4.268   0.231   8.765
   21SAPC  H13X 2811   4.377   0.239   8.740
   21SAPC  H13Y 2812   4.208   0.251   8.674
   21SAPC  C314 2813   4.218   0.095   8.809
   21SAPC  H14X 2814   4.108   0.099   8.824
   21SAPC  H14Y 2815   4.254   0.068   8.911
   21SAPC  C315 2816   4.248  -0.020   8.707
   21SAPC  H15X 2817   4.359  -0.024   8.703
   21SAPC  H15Y 2818   4.213   0.034   8.617
   21SAPC  C316 2819   4.184  -0.159   8.736
   21SAPC  H16X 2820   4.076  -0.148   8.757
   21SAPC  H16Y 2821   4.232  -0.205   8.826
   21SAPC  C317 2822   4.212  -0.260   8.623
   21SAPC  H17X 2823   4.313  -0.255   8.577
   21SAPC  H17Y 2824   4.139  -0.233   8.544
   21SAPC  C318 2825   4.196  -0.399   8.669
   21SAPC  H18X 2826   4.198  -0.481   8.593
   21SAPC  H18Y 2827   4.099  -0.429   8.715
   21SAPC  H18Z 2828   4.276  -0.438   8.735
   22SAPC     N 2829   3.135   4.827  11.123
   22SAPC   C12 2830   3.162   4.709  11.031
   22SAPC  H12A 2831   3.087   4.632  11.045
   22SAPC  H12B 2832   3.254   4.664  11.066
   22SAPC   C13 2833   3.238   4.932  11.105
   22SAPC  H13A 2834   3.321   4.882  11.058
   22SAPC  H13B 2835   3.209   5.005  11.031
   22SAPC  H13C 2836   3.263   4.981  11.198
   22SAPC   C14 2837   2.998   4.890  11.082
   22SAPC  H14A 2838   2.933   4.806  11.100
   22SAPC  H14B 2839   2.970   4.968  11.151
   22SAPC  H14C 2840   2.988   4.915  10.978
   22SAPC   C15 2841   3.124   4.782  11.267
   22SAPC  H15A 2842   3.100   4.867  11.329
   22SAPC  H15B 2843   3.031   4.728  11.281
   22SAPC  H15C 2844   3.207   4.724  11.304
   22SAPC   C11 2845   3.183   4.743  10.881
   22SAPC  H11A 2846   3.269   4.813  10.882
   22SAPC  H11B 2847   3.088   4.797  10.861
   22SAPC     P 2848   3.082   4.530  10.772
   22SAPC   O13 2849   3.120   4.388  10.782
   22SAPC   O14 2850   2.959   4.579  10.846
   22SAPC   O12 2851   3.204   4.625  10.805
   22SAPC   O11 2852   3.072   4.562  10.615
   22SAPC    C1 2853   3.028   4.687  10.565
   22SAPC    HA 2854   2.922   4.711  10.588
   22SAPC    HB 2855   3.102   4.758  10.608
   22SAPC    C2 2856   3.056   4.711  10.414
   22SAPC    HS 2857   3.038   4.819  10.396
   22SAPC   O21 2858   2.979   4.622  10.343
   22SAPC   C21 2859   2.864   4.663  10.293
   22SAPC   O22 2860   2.804   4.763  10.330
   22SAPC   C22 2861   2.805   4.558  10.202
   22SAPC   H2R 2862   2.799   4.466  10.264
   22SAPC   H2S 2863   2.699   4.586  10.183
   22SAPC    C3 2864   3.201   4.686  10.378
   22SAPC    HX 2865   3.211   4.576  10.388
   22SAPC    HY 2866   3.265   4.739  10.451
   22SAPC   O31 2867   3.240   4.729  10.247
   22SAPC   C31 2868   3.267   4.631  10.157
   22SAPC   O32 2869   3.239   4.511  10.169
   22SAPC   C32 2870   3.309   4.691  10.017
   22SAPC   H2X 2871   3.413   4.729  10.028
   22SAPC   H2Y 2872   3.239   4.776   9.998
   22SAPC   C23 2873   2.885   4.519  10.070
   22SAPC   H3R 2874   2.827   4.434  10.029
   22SAPC   H3S 2875   2.983   4.484  10.110
   22SAPC   C24 2876   2.890   4.641   9.974
   22SAPC   H4R 2877   2.969   4.627   9.897
   22SAPC   H4S 2878   2.932   4.731  10.024
   22SAPC   C25 2879   2.756   4.684   9.921
   22SAPC   H5R 2880   2.675   4.667   9.994
   22SAPC   C26 2881   2.733   4.742   9.805
   22SAPC   H6R 2882   2.632   4.777   9.779
   22SAPC   C27 2883   2.834   4.792   9.706
   22SAPC   H7R 2884   2.929   4.814   9.758
   22SAPC   H7S 2885   2.789   4.885   9.665
   22SAPC   C28 2886   2.860   4.692   9.593
   22SAPC   H8R 2887   2.917   4.604   9.628
   22SAPC   C29 2888   2.830   4.707   9.466
   22SAPC   H9R 2889   2.851   4.627   9.393
   22SAPC  C210 2890   2.768   4.833   9.409
   22SAPC  H10R 2891   2.794   4.919   9.474
   22SAPC  H10S 2892   2.656   4.830   9.408
   22SAPC  C211 2893   2.807   4.872   9.268
   22SAPC  H11R 2894   2.880   4.955   9.266
   22SAPC  C212 2895   2.769   4.808   9.153
   22SAPC  H12R 2896   2.796   4.846   9.053
   22SAPC  C213 2897   2.685   4.680   9.152
   22SAPC  H13R 2898   2.581   4.697   9.118
   22SAPC  H13S 2899   2.665   4.644   9.255
   22SAPC  C214 2900   2.753   4.574   9.062
   22SAPC  H14R 2901   2.853   4.553   9.103
   22SAPC  C215 2902   2.715   4.527   8.941
   22SAPC  H15R 2903   2.774   4.444   8.898
   22SAPC  C216 2904   2.594   4.568   8.858
   22SAPC  H16R 2905   2.544   4.659   8.897
   22SAPC  H16S 2906   2.524   4.482   8.853
   22SAPC  C217 2907   2.643   4.602   8.711
   22SAPC  H17R 2908   2.552   4.602   8.648
   22SAPC  H17S 2909   2.705   4.515   8.682
   22SAPC  C218 2910   2.695   4.741   8.714
   22SAPC  H18R 2911   2.754   4.758   8.807
   22SAPC  H18S 2912   2.611   4.813   8.717
   22SAPC  C219 2913   2.800   4.775   8.604
   22SAPC  H19R 2914   2.756   4.774   8.502
   22SAPC  H19S 2915   2.887   4.706   8.599
   22SAPC  C220 2916   2.858   4.910   8.629
   22SAPC  H20R 2917   2.951   4.899   8.689
   22SAPC  H20S 2918   2.790   4.972   8.691
   22SAPC  H20T 2919   2.887   4.946   8.528
   22SAPC   C33 2920   3.304   4.585   9.906
   22SAPC   H3X 2921   3.215   4.519   9.914
   22SAPC   H3Y 2922   3.396   4.524   9.920
   22SAPC   C34 2923   3.289   4.643   9.767
   22SAPC   H4X 2924   3.358   4.730   9.758
   22SAPC   H4Y 2925   3.186   4.687   9.768
   22SAPC   C35 2926   3.318   4.546   9.651
   22SAPC   H5X 2927   3.264   4.453   9.678
   22SAPC   H5Y 2928   3.427   4.522   9.650
   22SAPC   C36 2929   3.250   4.600   9.519
   22SAPC   H6X 2930   3.300   4.699   9.506
   22SAPC   H6Y 2931   3.146   4.625   9.547
   22SAPC   C37 2932   3.267   4.506   9.396
   22SAPC   H7X 2933   3.238   4.402   9.422
   22SAPC   H7Y 2934   3.368   4.510   9.350
   22SAPC   C38 2935   3.155   4.542   9.293
   22SAPC   H8X 2936   3.154   4.650   9.269
   22SAPC   H8Y 2937   3.061   4.520   9.347
   22SAPC   C39 2938   3.160   4.464   9.166
   22SAPC   H9X 2939   3.056   4.466   9.126
   22SAPC   H9Y 2940   3.184   4.358   9.188
   22SAPC  C310 2941   3.262   4.518   9.064
   22SAPC  H10X 2942   3.364   4.501   9.104
   22SAPC  H10Y 2943   3.246   4.627   9.054
   22SAPC  C311 2944   3.255   4.452   8.925
   22SAPC  H11X 2945   3.314   4.360   8.941
   22SAPC  H11Y 2946   3.325   4.518   8.871
   22SAPC  C312 2947   3.116   4.442   8.869
   22SAPC  H12X 2948   3.072   4.544   8.879
   22SAPC  H12Y 2949   3.050   4.371   8.923
   22SAPC  C313 2950   3.124   4.400   8.718
   22SAPC  H13X 2951   3.197   4.316   8.715
   22SAPC  H13Y 2952   3.157   4.489   8.660
   22SAPC  C314 2953   2.995   4.355   8.656
   22SAPC  H14X 2954   2.912   4.428   8.661
   22SAPC  H14Y 2955   2.954   4.279   8.726
   22SAPC  C315 2956   3.006   4.273   8.524
   22SAPC  H15X 2957   3.102   4.216   8.531
   22SAPC  H15Y 2958   3.017   4.346   8.441
   22SAPC  C316 2959   2.904   4.158   8.508
   22SAPC  H16X 2960   2.929   4.072   8.573
   22SAPC  H16Y 2961   2.914   4.123   8.403
   22SAPC  C317 2962   2.764   4.203   8.530
   22SAPC  H17X 2963   2.744   4.300   8.480
   22SAPC  H17Y 2964   2.737   4.213   8.638
   22SAPC  C318 2965   2.659   4.093   8.486
   22SAPC  H18X 2966   2.648   4.089   8.375
   22SAPC  H18Y 2967   2.561   4.122   8.530
   22SAPC  H18Z 2968   2.684   3.992   8.524
   23SAPC     N 2969   4.308   6.600  10.795
   23SAPC   C12 2970   4.305   6.498  10.677
   23SAPC  H12A 2971   4.239   6.539  10.602
   23SAPC  H12B 2972   4.252   6.414  10.719
   23SAPC   C13 2973   4.170   6.650  10.817
   23SAPC  H13A 2974   4.176   6.722  10.897
   23SAPC  H13B 2975   4.143   6.705  10.728
   23SAPC  H13C 2976   4.114   6.561  10.843
   23SAPC   C14 2977   4.372   6.535  10.913
   23SAPC  H14A 2978   4.357   6.598  11.000
   23SAPC  H14B 2979   4.330   6.437  10.930
   23SAPC  H14C 2980   4.473   6.514  10.882
   23SAPC   C15 2981   4.394   6.715  10.758
   23SAPC  H15A 2982   4.492   6.672  10.744
   23SAPC  H15B 2983   4.359   6.767  10.670
   23SAPC  H15C 2984   4.403   6.782  10.842
   23SAPC   C11 2985   4.449   6.454  10.616
   23SAPC  H11A 2986   4.507   6.548  10.602
   23SAPC  H11B 2987   4.428   6.416  10.514
   23SAPC     P 2988   4.493   6.215  10.706
   23SAPC   O13 2989   4.573   6.153  10.817
   23SAPC   O14 2990   4.344   6.208  10.695
   23SAPC   O12 2991   4.521   6.363  10.697
   23SAPC   O11 2992   4.557   6.161  10.578
   23SAPC    C1 2993   4.697   6.131  10.584
   23SAPC    HA 2994   4.750   6.209  10.642
   23SAPC    HB 2995   4.726   6.029  10.619
   23SAPC    C2 2996   4.769   6.124  10.441
   23SAPC    HS 2997   4.754   6.222  10.391
   23SAPC   O21 2998   4.718   6.022  10.355
   23SAPC   C21 2999   4.606   6.047  10.292
   23SAPC   O22 3000   4.542   6.152  10.295
   23SAPC   C22 3001   4.566   5.937  10.197
   23SAPC   H2R 3002   4.653   5.898  10.140
   23SAPC   H2S 3003   4.528   5.849  10.253
   23SAPC    C3 3004   4.920   6.106  10.455
   23SAPC    HX 3005   4.937   6.006  10.498
   23SAPC    HY 3006   4.948   6.182  10.531
   23SAPC   O31 3007   4.986   6.126  10.329
   23SAPC   C31 3008   5.121   6.170  10.328
   23SAPC   O32 3009   5.167   6.224  10.425
   23SAPC   C32 3010   5.182   6.114  10.203
   23SAPC   H2X 3011   5.126   6.029  10.159
   23SAPC   H2Y 3012   5.284   6.076  10.224
   23SAPC   C23 3013   4.460   5.975  10.095
   23SAPC   H3R 3014   4.382   6.027  10.154
   23SAPC   H3S 3015   4.406   5.885  10.058
   23SAPC   C24 3016   4.519   6.056   9.981
   23SAPC   H4R 3017   4.599   5.997   9.932
   23SAPC   H4S 3018   4.564   6.148  10.024
   23SAPC   C25 3019   4.420   6.102   9.891
   23SAPC   H5R 3020   4.326   6.144   9.932
   23SAPC   C26 3021   4.414   6.076   9.755
   23SAPC   H6R 3022   4.331   6.121   9.699
   23SAPC   C27 3023   4.519   6.016   9.672
   23SAPC   H7R 3024   4.569   5.937   9.733
   23SAPC   H7S 3025   4.588   6.093   9.632
   23SAPC   C28 3026   4.445   5.944   9.555
   23SAPC   H8R 3027   4.368   5.871   9.582
   23SAPC   C29 3028   4.460   5.964   9.422
   23SAPC   H9R 3029   4.395   5.902   9.358
   23SAPC  C210 3030   4.549   6.056   9.350
   23SAPC  H10R 3031   4.587   6.001   9.261
   23SAPC  H10S 3032   4.640   6.081   9.408
   23SAPC  C211 3033   4.474   6.190   9.317
   23SAPC  H11R 3034   4.442   6.245   9.407
   23SAPC  C212 3035   4.445   6.235   9.197
   23SAPC  H12R 3036   4.390   6.329   9.185
   23SAPC  C213 3037   4.471   6.173   9.060
   23SAPC  H13R 3038   4.390   6.207   8.993
   23SAPC  H13S 3039   4.464   6.062   9.068
   23SAPC  C214 3040   4.600   6.220   9.000
   23SAPC  H14R 3041   4.678   6.219   9.078
   23SAPC  C215 3042   4.628   6.262   8.875
   23SAPC  H15R 3043   4.733   6.285   8.848
   23SAPC  C216 3044   4.534   6.253   8.756
   23SAPC  H16R 3045   4.522   6.362   8.734
   23SAPC  H16S 3046   4.435   6.206   8.775
   23SAPC  C217 3047   4.586   6.190   8.625
   23SAPC  H17R 3048   4.594   6.080   8.638
   23SAPC  H17S 3049   4.691   6.222   8.608
   23SAPC  C218 3050   4.502   6.217   8.501
   23SAPC  H18R 3051   4.519   6.323   8.471
   23SAPC  H18S 3052   4.392   6.206   8.500
   23SAPC  C219 3053   4.548   6.126   8.389
   23SAPC  H19R 3054   4.472   6.129   8.308
   23SAPC  H19S 3055   4.544   6.023   8.431
   23SAPC  C220 3056   4.691   6.168   8.328
   23SAPC  H20R 3057   4.766   6.128   8.400
   23SAPC  H20S 3058   4.697   6.277   8.313
   23SAPC  H20T 3059   4.702   6.118   8.229
   23SAPC   C33 3060   5.193   6.219  10.088
   23SAPC   H3X 3061   5.268   6.291  10.128
   23SAPC   H3Y 3062   5.090   6.257  10.075
   23SAPC   C34 3063   5.260   6.160   9.966
   23SAPC   H4X 3064   5.188   6.084   9.928
   23SAPC   H4Y 3065   5.351   6.109  10.004
   23SAPC   C35 3066   5.288   6.255   9.852
   23SAPC   H5X 3067   5.384   6.310   9.861
   23SAPC   H5Y 3068   5.205   6.327   9.835
   23SAPC   C36 3069   5.306   6.173   9.724
   23SAPC   H6X 3070   5.208   6.120   9.717
   23SAPC   H6Y 3071   5.373   6.085   9.735
   23SAPC   C37 3072   5.343   6.256   9.602
   23SAPC   H7X 3073   5.439   6.310   9.616
   23SAPC   H7Y 3074   5.277   6.344   9.587
   23SAPC   C38 3075   5.346   6.159   9.484
   23SAPC   H8X 3076   5.239   6.139   9.461
   23SAPC   H8Y 3077   5.408   6.070   9.508
   23SAPC   C39 3078   5.405   6.227   9.365
   23SAPC   H9X 3079   5.509   6.247   9.400
   23SAPC   H9Y 3080   5.363   6.324   9.331
   23SAPC  C310 3081   5.425   6.134   9.247
   23SAPC  H10X 3082   5.325   6.099   9.212
   23SAPC  H10Y 3083   5.477   6.040   9.274
   23SAPC  C311 3084   5.494   6.193   9.126
   23SAPC  H11X 3085   5.589   6.247   9.150
   23SAPC  H11Y 3086   5.423   6.266   9.083
   23SAPC  C312 3087   5.529   6.082   9.036
   23SAPC  H12X 3088   5.431   6.031   9.021
   23SAPC  H12Y 3089   5.599   6.016   9.091
   23SAPC  C313 3090   5.580   6.135   8.905
   23SAPC  H13X 3091   5.666   6.203   8.925
   23SAPC  H13Y 3092   5.491   6.173   8.851
   23SAPC  C314 3093   5.641   6.035   8.810
   23SAPC  H14X 3094   5.708   5.963   8.860
   23SAPC  H14Y 3095   5.706   6.100   8.748
   23SAPC  C315 3096   5.535   5.972   8.716
   23SAPC  H15X 3097   5.455   6.046   8.691
   23SAPC  H15Y 3098   5.473   5.897   8.770
   23SAPC  C316 3099   5.588   5.928   8.575
   23SAPC  H16X 3100   5.684   5.873   8.592
   23SAPC  H16Y 3101   5.600   6.019   8.513
   23SAPC  C317 3102   5.502   5.825   8.507
   23SAPC  H17X 3103   5.397   5.857   8.528
   23SAPC  H17Y 3104   5.514   5.726   8.556
   23SAPC  C318 3105   5.534   5.806   8.358
   23SAPC  H18X 3106   5.474   5.723   8.314
   23SAPC  H18Y 3107   5.642   5.785   8.342
   23SAPC  H18Z 3108   5.513   5.903   8.309
   24SAPC     N 3109   6.506   0.112  11.166
   24SAPC   C12 3110   6.544   0.136  11.018
   24SAPC  H12A 3111   6.463   0.184  10.965
   24SAPC  H12B 3112   6.560   0.037  10.978
   24SAPC   C13 3113   6.460   0.235  11.234
   24SAPC  H13A 3114   6.531   0.312  11.263
   24SAPC  H13B 3115   6.386   0.283  11.172
   24SAPC  H13C 3116   6.401   0.214  11.322
   24SAPC   C14 3117   6.391   0.021  11.159
   24SAPC  H14A 3118   6.313   0.060  11.095
   24SAPC  H14B 3119   6.422  -0.078  11.131
   24SAPC  H14C 3120   6.353   0.003  11.258
   24SAPC   C15 3121   6.608   0.040  11.250
   24SAPC  H15A 3122   6.620  -0.060  11.210
   24SAPC  H15B 3123   6.699   0.097  11.238
   24SAPC  H15C 3124   6.590   0.028  11.356
   24SAPC   C11 3125   6.674   0.218  10.991
   24SAPC  H11A 3126   6.647   0.316  11.036
   24SAPC  H11B 3127   6.692   0.233  10.883
   24SAPC     P 3128   6.865   0.034  10.979
   24SAPC   O13 3129   7.009   0.026  11.027
   24SAPC   O14 3130   6.777  -0.083  11.006
   24SAPC   O12 3131   6.789   0.154  11.044
   24SAPC   O11 3132   6.877   0.070  10.831
   24SAPC    C1 3133   6.787   0.013  10.735
   24SAPC    HA 3134   6.691  -0.019  10.780
   24SAPC    HB 3135   6.759   0.094  10.664
   24SAPC    C2 3136   6.839  -0.113  10.669
   24SAPC    HS 3137   6.825  -0.200  10.737
   24SAPC   O21 3138   6.976  -0.086  10.631
   24SAPC   C21 3139   7.069  -0.148  10.699
   24SAPC   O22 3140   7.049  -0.234  10.783
   24SAPC   C22 3141   7.202  -0.085  10.667
   24SAPC   H2R 3142   7.177   0.003  10.604
   24SAPC   H2S 3143   7.249  -0.042  10.758
   24SAPC    C3 3144   6.762  -0.128  10.539
   24SAPC    HX 3145   6.799  -0.047  10.473
   24SAPC    HY 3146   6.651  -0.129  10.545
   24SAPC   O31 3147   6.795  -0.262  10.486
   24SAPC   C31 3148   6.877  -0.263  10.388
   24SAPC   O32 3149   6.928  -0.164  10.335
   24SAPC   C32 3150   6.909  -0.409  10.345
   24SAPC   H2X 3151   6.829  -0.451  10.281
   24SAPC   H2Y 3152   6.904  -0.472  10.437
   24SAPC   C23 3153   7.312  -0.171  10.605
   24SAPC   H3R 3154   7.274  -0.206  10.507
   24SAPC   H3S 3155   7.335  -0.260  10.668
   24SAPC   C24 3156   7.444  -0.092  10.587
   24SAPC   H4R 3157   7.522  -0.165  10.556
   24SAPC   H4S 3158   7.474  -0.060  10.689
   24SAPC   C25 3159   7.444   0.013  10.480
   24SAPC   H5R 3160   7.422   0.109  10.528
   24SAPC   C26 3161   7.421  -0.004  10.351
   24SAPC   H6R 3162   7.422   0.084  10.285
   24SAPC   C27 3163   7.410  -0.135  10.272
   24SAPC   H7R 3164   7.343  -0.210  10.320
   24SAPC   H7S 3165   7.511  -0.181  10.265
   24SAPC   C28 3166   7.358  -0.127  10.134
   24SAPC   H8R 3167   7.251  -0.149  10.124
   24SAPC   C29 3168   7.437  -0.109  10.023
   24SAPC   H9R 3169   7.401  -0.084   9.922
   24SAPC  C210 3170   7.593  -0.099  10.018
   24SAPC  H10R 3171   7.606  -0.039  10.110
   24SAPC  H10S 3172   7.624  -0.033   9.934
   24SAPC  C211 3173   7.687  -0.213  10.017
   24SAPC  H11R 3174   7.644  -0.313  10.029
   24SAPC  C212 3175   7.821  -0.208  10.009
   24SAPC  H12R 3176   7.878  -0.302  10.007
   24SAPC  C213 3177   7.892  -0.074   9.999
   24SAPC  H13R 3178   7.833  -0.003  10.060
   24SAPC  H13S 3179   7.903  -0.031   9.898
   24SAPC  C214 3180   8.024  -0.070  10.068
   24SAPC  H14R 3181   8.112  -0.066  10.003
   24SAPC  C215 3182   8.045  -0.074  10.202
   24SAPC  H15R 3183   8.144  -0.085  10.250
   24SAPC  C216 3184   7.935  -0.082  10.302
   24SAPC  H16R 3185   7.832  -0.062  10.264
   24SAPC  H16S 3186   7.958  -0.013  10.385
   24SAPC  C217 3187   7.935  -0.216  10.377
   24SAPC  H17R 3188   8.034  -0.242  10.422
   24SAPC  H17S 3189   7.917  -0.295  10.301
   24SAPC  C218 3190   7.823  -0.234  10.483
   24SAPC  H18R 3191   7.800  -0.342  10.488
   24SAPC  H18S 3192   7.737  -0.186  10.431
   24SAPC  C219 3193   7.851  -0.181  10.625
   24SAPC  H19R 3194   7.848  -0.071  10.609
   24SAPC  H19S 3195   7.954  -0.210  10.655
   24SAPC  C220 3196   7.749  -0.216  10.737
   24SAPC  H20R 3197   7.673  -0.269  10.675
   24SAPC  H20S 3198   7.710  -0.125  10.787
   24SAPC  H20T 3199   7.789  -0.291  10.808
   24SAPC   C33 3200   7.050  -0.421  10.272
   24SAPC   H3X 3201   7.140  -0.399  10.333
   24SAPC   H3Y 3202   7.048  -0.344  10.192
   24SAPC   C34 3203   7.065  -0.554  10.203
   24SAPC   H4X 3204   6.977  -0.585  10.142
   24SAPC   H4Y 3205   7.070  -0.634  10.279
   24SAPC   C35 3206   7.181  -0.557  10.110
   24SAPC   H5X 3207   7.203  -0.661  10.077
   24SAPC   H5Y 3208   7.269  -0.520  10.166
   24SAPC   C36 3209   7.161  -0.464   9.984
   24SAPC   H6X 3210   7.124  -0.361  10.003
   24SAPC   H6Y 3211   7.097  -0.515   9.910
   24SAPC   C37 3212   7.299  -0.448   9.908
   24SAPC   H7X 3213   7.351  -0.547   9.904
   24SAPC   H7Y 3214   7.358  -0.390   9.982
   24SAPC   C38 3215   7.282  -0.369   9.776
   24SAPC   H8X 3216   7.238  -0.270   9.801
   24SAPC   H8Y 3217   7.215  -0.426   9.708
   24SAPC   C39 3218   7.421  -0.348   9.717
   24SAPC   H9X 3219   7.477  -0.442   9.734
   24SAPC   H9Y 3220   7.463  -0.265   9.778
   24SAPC  C310 3221   7.419  -0.319   9.568
   24SAPC  H10X 3222   7.361  -0.227   9.545
   24SAPC  H10Y 3223   7.369  -0.403   9.514
   24SAPC  C311 3224   7.561  -0.298   9.509
   24SAPC  H11X 3225   7.553  -0.283   9.399
   24SAPC  H11Y 3226   7.614  -0.389   9.542
   24SAPC  C312 3227   7.642  -0.178   9.565
   24SAPC  H12X 3228   7.643  -0.186   9.676
   24SAPC  H12Y 3229   7.590  -0.084   9.535
   24SAPC  C313 3230   7.789  -0.162   9.519
   24SAPC  H13X 3231   7.827  -0.084   9.588
   24SAPC  H13Y 3232   7.782  -0.117   9.417
   24SAPC  C314 3233   7.875  -0.286   9.514
   24SAPC  H14X 3234   7.976  -0.259   9.477
   24SAPC  H14Y 3235   7.827  -0.359   9.444
   24SAPC  C315 3236   7.883  -0.354   9.652
   24SAPC  H15X 3237   7.784  -0.390   9.686
   24SAPC  H15Y 3238   7.911  -0.270   9.720
   24SAPC  C316 3239   7.992  -0.464   9.665
   24SAPC  H16X 3240   8.089  -0.428   9.624
   24SAPC  H16Y 3241   7.960  -0.555   9.612
   24SAPC  C317 3242   8.024  -0.520   9.804
   24SAPC  H17X 3243   8.027  -0.437   9.877
   24SAPC  H17Y 3244   8.119  -0.577   9.808
   24SAPC  C318 3245   7.904  -0.604   9.856
   24SAPC  H18X 3246   7.919  -0.629   9.963
   24SAPC  H18Y 3247   7.904  -0.696   9.793
   24SAPC  H18Z 3248   7.801  -0.565   9.841
   25SAPC     N 3249   3.457   4.534   5.892
   25SAPC   C12 3250   3.529   4.583   6.014
   25SAPC  H12A 3251   3.507   4.523   6.100
   25SAPC  H12B 3252   3.493   4.684   6.027
   25SAPC   C13 3253   3.496   4.620   5.768
   25SAPC  H13A 3254   3.602   4.612   5.751
   25SAPC  H13B 3255   3.448   4.577   5.682
   25SAPC  H13C 3256   3.468   4.724   5.781
   25SAPC   C14 3257   3.487   4.390   5.867
   25SAPC  H14A 3258   3.594   4.378   5.857
   25SAPC  H14B 3259   3.461   4.341   5.960
   25SAPC  H14C 3260   3.422   4.352   5.790
   25SAPC   C15 3261   3.309   4.536   5.923
   25SAPC  H15A 3262   3.281   4.467   6.001
   25SAPC  H15B 3263   3.278   4.633   5.957
   25SAPC  H15C 3264   3.244   4.495   5.847
   25SAPC   C11 3265   3.686   4.590   6.002
   25SAPC  H11A 3266   3.730   4.644   6.088
   25SAPC  H11B 3267   3.707   4.656   5.915
   25SAPC     P 3268   3.751   4.352   6.095
   25SAPC   O13 3269   3.615   4.292   6.122
   25SAPC   O14 3270   3.862   4.257   6.062
   25SAPC   O12 3271   3.744   4.458   5.987
   25SAPC   O11 3272   3.778   4.440   6.225
   25SAPC    C1 3273   3.912   4.481   6.248
   25SAPC    HA 3274   3.969   4.386   6.252
   25SAPC    HB 3275   3.952   4.544   6.166
   25SAPC    C2 3276   3.937   4.549   6.389
   25SAPC    HS 3277   4.036   4.600   6.393
   25SAPC   O21 3278   3.940   4.461   6.498
   25SAPC   C21 3279   4.035   4.375   6.511
   25SAPC   O22 3280   4.135   4.360   6.441
   25SAPC   C22 3281   4.011   4.301   6.641
   25SAPC   H2R 3282   4.002   4.195   6.610
   25SAPC   H2S 3283   4.108   4.304   6.695
   25SAPC    C3 3284   3.826   4.648   6.421
   25SAPC    HX 3285   3.731   4.599   6.393
   25SAPC    HY 3286   3.837   4.734   6.351
   25SAPC   O31 3287   3.830   4.700   6.558
   25SAPC   C31 3288   3.750   4.647   6.636
   25SAPC   O32 3289   3.675   4.553   6.605
   25SAPC   C32 3290   3.753   4.708   6.775
   25SAPC   H2X 3291   3.760   4.634   6.857
   25SAPC   H2Y 3292   3.653   4.756   6.783
   25SAPC   C23 3293   3.883   4.337   6.724
   25SAPC   H3R 3294   3.794   4.308   6.665
   25SAPC   H3S 3295   3.881   4.445   6.750
   25SAPC   C24 3296   3.862   4.261   6.859
   25SAPC   H4R 3297   3.945   4.286   6.928
   25SAPC   H4S 3298   3.874   4.151   6.846
   25SAPC   C25 3299   3.724   4.281   6.924
   25SAPC   H5R 3300   3.663   4.364   6.884
   25SAPC   C26 3301   3.688   4.223   7.037
   25SAPC   H6R 3302   3.596   4.262   7.082
   25SAPC   C27 3303   3.767   4.106   7.097
   25SAPC   H7R 3304   3.851   4.065   7.037
   25SAPC   H7S 3305   3.693   4.023   7.104
   25SAPC   C28 3306   3.816   4.135   7.237
   25SAPC   H8R 3307   3.924   4.152   7.245
   25SAPC   C29 3308   3.738   4.149   7.353
   25SAPC   H9R 3309   3.784   4.188   7.445
   25SAPC  C210 3310   3.585   4.159   7.352
   25SAPC  H10R 3311   3.534   4.148   7.254
   25SAPC  H10S 3312   3.559   4.265   7.373
   25SAPC  C211 3313   3.511   4.063   7.438
   25SAPC  H11R 3314   3.564   3.968   7.459
   25SAPC  C212 3315   3.390   4.086   7.489
   25SAPC  H12R 3316   3.349   4.015   7.563
   25SAPC  C213 3317   3.309   4.213   7.485
   25SAPC  H13R 3318   3.204   4.179   7.473
   25SAPC  H13S 3319   3.345   4.266   7.394
   25SAPC  C214 3320   3.327   4.297   7.610
   25SAPC  H14R 3321   3.390   4.386   7.593
   25SAPC  C215 3322   3.268   4.271   7.729
   25SAPC  H15R 3323   3.308   4.330   7.813
   25SAPC  C216 3324   3.187   4.152   7.758
   25SAPC  H16R 3325   3.215   4.064   7.696
   25SAPC  H16S 3326   3.077   4.166   7.743
   25SAPC  C217 3327   3.206   4.086   7.897
   25SAPC  H17R 3328   3.195   4.165   7.974
   25SAPC  H17S 3329   3.305   4.037   7.900
   25SAPC  C218 3330   3.092   3.988   7.929
   25SAPC  H18R 3331   3.117   3.906   7.858
   25SAPC  H18S 3332   2.998   4.036   7.891
   25SAPC  C219 3333   3.094   3.939   8.073
   25SAPC  H19R 3334   3.195   3.902   8.100
   25SAPC  H19S 3335   3.031   3.847   8.082
   25SAPC  C220 3336   3.045   4.036   8.177
   25SAPC  H20R 3337   3.075   4.140   8.153
   25SAPC  H20S 3338   3.090   4.008   8.275
   25SAPC  H20T 3339   2.934   4.031   8.177
   25SAPC   C33 3340   3.869   4.813   6.798
   25SAPC   H3X 3341   3.853   4.895   6.725
   25SAPC   H3Y 3342   3.971   4.777   6.775
   25SAPC   C34 3343   3.867   4.874   6.937
   25SAPC   H4X 3344   3.867   4.794   7.015
   25SAPC   H4Y 3345   3.768   4.922   6.950
   25SAPC   C35 3346   3.962   4.990   6.964
   25SAPC   H5X 3347   3.948   5.065   6.883
   25SAPC   H5Y 3348   4.068   4.961   6.979
   25SAPC   C36 3349   3.927   5.067   7.096
   25SAPC   H6X 3350   3.818   5.087   7.108
   25SAPC   H6Y 3351   3.985   5.161   7.092
   25SAPC   C37 3352   3.954   4.979   7.223
   25SAPC   H7X 3353   4.056   4.935   7.230
   25SAPC   H7Y 3354   3.873   4.904   7.219
   25SAPC   C38 3355   3.922   5.068   7.343
   25SAPC   H8X 3356   3.827   5.122   7.323
   25SAPC   H8Y 3357   4.000   5.148   7.346
   25SAPC   C39 3358   3.910   4.999   7.485
   25SAPC   H9X 3359   3.811   4.948   7.482
   25SAPC   H9Y 3360   3.905   5.072   7.569
   25SAPC  C310 3361   4.023   4.907   7.523
   25SAPC  H10X 3362   4.119   4.961   7.511
   25SAPC  H10Y 3363   4.023   4.816   7.460
   25SAPC  C311 3364   4.023   4.857   7.671
   25SAPC  H11X 3365   3.949   4.774   7.676
   25SAPC  H11Y 3366   4.000   4.940   7.741
   25SAPC  C312 3367   4.164   4.812   7.714
   25SAPC  H12X 3368   4.238   4.889   7.685
   25SAPC  H12Y 3369   4.188   4.722   7.654
   25SAPC  C313 3370   4.186   4.781   7.856
   25SAPC  H13X 3371   4.162   4.867   7.921
   25SAPC  H13Y 3372   4.288   4.743   7.873
   25SAPC  C314 3373   4.086   4.672   7.908
   25SAPC  H14X 3374   4.087   4.582   7.843
   25SAPC  H14Y 3375   3.979   4.698   7.920
   25SAPC  C315 3376   4.143   4.644   8.048
   25SAPC  H15X 3377   4.172   4.745   8.082
   25SAPC  H15Y 3378   4.227   4.572   8.038
   25SAPC  C316 3379   4.042   4.589   8.140
   25SAPC  H16X 3380   4.007   4.486   8.117
   25SAPC  H16Y 3381   3.948   4.647   8.135
   25SAPC  C317 3382   4.097   4.599   8.286
   25SAPC  H17X 3383   4.130   4.704   8.300
   25SAPC  H17Y 3384   4.181   4.527   8.287
   25SAPC  C318 3385   3.998   4.566   8.394
   25SAPC  H18X 3386   4.034   4.594   8.496
   25SAPC  H18Y 3387   3.969   4.459   8.388
   25SAPC  H18Z 3388   3.900   4.616   8.379
   26SAPC     N 3389   2.826   6.482   6.468
   26SAPC   C12 3390   2.819   6.472   6.312
   26SAPC  H12A 3391   2.721   6.502   6.278
   26SAPC  H12B 3392   2.837   6.370   6.282
   26SAPC   C13 3393   2.801   6.620   6.514
   26SAPC  H13A 3394   2.705   6.664   6.492
   26SAPC  H13B 3395   2.805   6.624   6.622
   26SAPC  H13C 3396   2.879   6.678   6.466
   26SAPC   C14 3397   2.711   6.408   6.528
   26SAPC  H14A 3398   2.708   6.302   6.507
   26SAPC  H14B 3399   2.714   6.412   6.636
   26SAPC  H14C 3400   2.618   6.456   6.501
   26SAPC   C15 3401   2.954   6.427   6.521
   26SAPC  H15A 3402   2.942   6.465   6.621
   26SAPC  H15B 3403   2.951   6.319   6.509
   26SAPC  H15C 3404   3.043   6.477   6.487
   26SAPC   C11 3405   2.910   6.551   6.215
   26SAPC  H11A 3406   2.857   6.528   6.121
   26SAPC  H11B 3407   3.008   6.499   6.224
   26SAPC     P 3408   3.060   6.754   6.287
   26SAPC   O13 3409   3.153   6.703   6.183
   26SAPC   O14 3410   3.049   6.900   6.305
   26SAPC   O12 3411   2.917   6.690   6.255
   26SAPC   O11 3412   3.096   6.683   6.433
   26SAPC    C1 3413   3.221   6.605   6.446
   26SAPC    HA 3414   3.216   6.505   6.398
   26SAPC    HB 3415   3.312   6.655   6.405
   26SAPC    C2 3416   3.270   6.592   6.597
   26SAPC    HS 3417   3.380   6.576   6.600
   26SAPC   O21 3418   3.204   6.480   6.658
   26SAPC   C21 3419   3.278   6.381   6.712
   26SAPC   O22 3420   3.400   6.396   6.727
   26SAPC   C22 3421   3.195   6.264   6.751
   26SAPC   H2R 3422   3.093   6.296   6.779
   26SAPC   H2S 3423   3.191   6.202   6.659
   26SAPC    C3 3424   3.234   6.726   6.665
   26SAPC    HX 3425   3.124   6.741   6.664
   26SAPC    HY 3426   3.271   6.814   6.608
   26SAPC   O31 3427   3.274   6.737   6.802
   26SAPC   C31 3428   3.400   6.779   6.814
   26SAPC   O32 3429   3.476   6.821   6.722
   26SAPC   C32 3430   3.453   6.766   6.958
   26SAPC   H2X 3431   3.392   6.839   7.016
   26SAPC   H2Y 3432   3.562   6.790   6.965
   26SAPC   C23 3433   3.266   6.185   6.861
   26SAPC   H3R 3434   3.289   6.264   6.936
   26SAPC   H3S 3435   3.356   6.136   6.817
   26SAPC   C24 3436   3.194   6.067   6.927
   26SAPC   H4R 3437   3.263   6.009   6.992
   26SAPC   H4S 3438   3.164   5.996   6.847
   26SAPC   C25 3439   3.068   6.100   7.004
   26SAPC   H5R 3440   2.971   6.110   6.953
   26SAPC   C26 3441   3.067   6.109   7.134
   26SAPC   H6R 3442   2.971   6.119   7.188
   26SAPC   C27 3443   3.192   6.107   7.226
   26SAPC   H7R 3444   3.174   6.180   7.308
   26SAPC   H7S 3445   3.279   6.141   7.166
   26SAPC   C28 3446   3.236   5.979   7.304
   26SAPC   H8R 3447   3.215   5.880   7.261
   26SAPC   C29 3448   3.281   5.975   7.433
   26SAPC   H9R 3449   3.285   5.877   7.482
   26SAPC  C210 3450   3.293   6.090   7.533
   26SAPC  H10R 3451   3.293   6.185   7.474
   26SAPC  H10S 3452   3.392   6.094   7.583
   26SAPC  C211 3453   3.178   6.104   7.628
   26SAPC  H11R 3454   3.081   6.098   7.577
   26SAPC  C212 3455   3.180   6.140   7.753
   26SAPC  H12R 3456   3.089   6.158   7.812
   26SAPC  C213 3457   3.306   6.154   7.836
   26SAPC  H13R 3458   3.297   6.202   7.935
   26SAPC  H13S 3459   3.385   6.223   7.799
   26SAPC  C214 3460   3.391   6.024   7.857
   26SAPC  H14R 3461   3.468   6.005   7.781
   26SAPC  C215 3462   3.351   5.927   7.942
   26SAPC  H15R 3463   3.418   5.841   7.956
   26SAPC  C216 3464   3.234   5.946   8.034
   26SAPC  H16R 3465   3.141   5.912   7.985
   26SAPC  H16S 3466   3.220   6.049   8.071
   26SAPC  C217 3467   3.257   5.865   8.167
   26SAPC  H17R 3468   3.338   5.914   8.226
   26SAPC  H17S 3469   3.297   5.763   8.146
   26SAPC  C218 3470   3.133   5.844   8.245
   26SAPC  H18R 3471   3.091   5.742   8.228
   26SAPC  H18S 3472   3.057   5.912   8.202
   26SAPC  C219 3473   3.156   5.874   8.392
   26SAPC  H19R 3474   3.154   5.982   8.419
   26SAPC  H19S 3475   3.256   5.833   8.418
   26SAPC  C220 3476   3.054   5.788   8.468
   26SAPC  H20R 3477   2.952   5.803   8.426
   26SAPC  H20S 3478   3.046   5.824   8.573
   26SAPC  H20T 3479   3.083   5.682   8.453
   26SAPC   C33 3480   3.427   6.624   7.010
   26SAPC   H3X 3481   3.487   6.543   6.963
   26SAPC   H3Y 3482   3.321   6.606   6.980
   26SAPC   C34 3483   3.451   6.621   7.159
   26SAPC   H4X 3484   3.387   6.703   7.198
   26SAPC   H4Y 3485   3.557   6.650   7.174
   26SAPC   C35 3486   3.428   6.486   7.221
   26SAPC   H5X 3487   3.522   6.426   7.219
   26SAPC   H5Y 3488   3.354   6.427   7.163
   26SAPC   C36 3489   3.393   6.499   7.366
   26SAPC   H6X 3490   3.379   6.399   7.411
   26SAPC   H6Y 3491   3.291   6.541   7.375
   26SAPC   C37 3492   3.503   6.568   7.456
   26SAPC   H7X 3493   3.515   6.669   7.412
   26SAPC   H7Y 3494   3.590   6.500   7.437
   26SAPC   C38 3495   3.471   6.570   7.609
   26SAPC   H8X 3496   3.427   6.474   7.644
   26SAPC   H8Y 3497   3.384   6.636   7.632
   26SAPC   C39 3498   3.595   6.615   7.686
   26SAPC   H9X 3499   3.643   6.701   7.633
   26SAPC   H9Y 3500   3.674   6.540   7.667
   26SAPC  C310 3501   3.565   6.649   7.838
   26SAPC  H10X 3502   3.482   6.585   7.873
   26SAPC  H10Y 3503   3.529   6.754   7.833
   26SAPC  C311 3504   3.678   6.641   7.938
   26SAPC  H11X 3505   3.650   6.687   8.035
   26SAPC  H11Y 3506   3.771   6.689   7.902
   26SAPC  C312 3507   3.727   6.493   7.956
   26SAPC  H12X 3508   3.803   6.466   7.879
   26SAPC  H12Y 3509   3.636   6.429   7.957
   26SAPC  C313 3510   3.800   6.473   8.091
   26SAPC  H13X 3511   3.723   6.498   8.167
   26SAPC  H13Y 3512   3.868   6.560   8.109
   26SAPC  C314 3513   3.870   6.345   8.103
   26SAPC  H14X 3514   3.947   6.338   8.023
   26SAPC  H14Y 3515   3.791   6.271   8.079
   26SAPC  C315 3516   3.926   6.307   8.244
   26SAPC  H15X 3517   3.849   6.341   8.317
   26SAPC  H15Y 3518   4.023   6.361   8.249
   26SAPC  C316 3519   3.956   6.156   8.265
   26SAPC  H16X 3520   4.013   6.111   8.181
   26SAPC  H16Y 3521   3.863   6.095   8.269
   26SAPC  C317 3522   4.037   6.124   8.397
   26SAPC  H17X 3523   4.025   6.195   8.482
   26SAPC  H17Y 3524   4.141   6.132   8.358
   26SAPC  C318 3525   3.995   5.995   8.452
   26SAPC  H18X 3526   3.987   5.921   8.370
   26SAPC  H18Y 3527   3.901   5.988   8.511
   26SAPC  H18Z 3528   4.074   5.936   8.505
   27SAPC     N 3529   0.781   0.295   6.783
   27SAPC   C12 3530   0.783   0.154   6.837
   27SAPC  H12A 3531   0.679   0.123   6.834
   27SAPC  H12B 3532   0.814   0.159   6.940
   27SAPC   C13 3533   0.919   0.363   6.771
   27SAPC  H13A 3534   0.989   0.282   6.756
   27SAPC  H13B 3535   0.930   0.421   6.681
   27SAPC  H13C 3536   0.947   0.415   6.861
   27SAPC   C14 3537   0.720   0.300   6.645
   27SAPC  H14A 3538   0.672   0.207   6.619
   27SAPC  H14B 3539   0.646   0.378   6.634
   27SAPC  H14C 3540   0.798   0.306   6.571
   27SAPC   C15 3541   0.692   0.386   6.869
   27SAPC  H15A 3542   0.692   0.475   6.808
   27SAPC  H15B 3543   0.588   0.363   6.884
   27SAPC  H15C 3544   0.741   0.413   6.962
   27SAPC   C11 3545   0.860   0.043   6.764
   27SAPC  H11A 3546   0.819   0.035   6.661
   27SAPC  H11B 3547   0.837  -0.059   6.802
   27SAPC     P 3548   1.120   0.020   6.847
   27SAPC   O13 3549   1.229  -0.044   6.766
   27SAPC   O14 3550   1.155   0.149   6.915
   27SAPC   O12 3551   1.001   0.058   6.753
   27SAPC   O11 3552   1.074  -0.083   6.952
   27SAPC    C1 3553   1.044  -0.218   6.918
   27SAPC    HA 3554   0.954  -0.263   6.964
   27SAPC    HB 3555   1.038  -0.240   6.809
   27SAPC    C2 3556   1.154  -0.318   6.973
   27SAPC    HS 3557   1.115  -0.417   6.938
   27SAPC   O21 3558   1.161  -0.308   7.118
   27SAPC   C21 3559   1.066  -0.370   7.181
   27SAPC   O22 3560   0.967  -0.424   7.133
   27SAPC   C22 3561   1.094  -0.362   7.331
   27SAPC   H2R 3562   1.184  -0.413   7.370
   27SAPC   H2S 3563   1.104  -0.257   7.366
   27SAPC    C3 3564   1.294  -0.289   6.913
   27SAPC    HX 3565   1.323  -0.187   6.947
   27SAPC    HY 3566   1.299  -0.287   6.802
   27SAPC   O31 3567   1.394  -0.386   6.957
   27SAPC   C31 3568   1.405  -0.494   6.876
   27SAPC   O32 3569   1.332  -0.507   6.779
   27SAPC   C32 3570   1.505  -0.599   6.921
   27SAPC   H2X 3571   1.599  -0.557   6.879
   27SAPC   H2Y 3572   1.472  -0.695   6.877
   27SAPC   C23 3573   0.964  -0.421   7.409
   27SAPC   H3R 3574   0.952  -0.528   7.381
   27SAPC   H3S 3575   0.875  -0.359   7.387
   27SAPC   C24 3576   0.987  -0.422   7.564
   27SAPC   H4R 3577   0.887  -0.430   7.609
   27SAPC   H4S 3578   1.026  -0.319   7.580
   27SAPC   C25 3579   1.083  -0.529   7.612
   27SAPC   H5R 3580   1.183  -0.528   7.567
   27SAPC   C26 3581   1.054  -0.595   7.724
   27SAPC   H6R 3582   1.120  -0.672   7.767
   27SAPC   C27 3583   0.925  -0.594   7.798
   27SAPC   H7R 3584   0.903  -0.698   7.831
   27SAPC   H7S 3585   0.837  -0.587   7.730
   27SAPC   C28 3586   0.913  -0.491   7.907
   27SAPC   H8R 3587   0.892  -0.392   7.864
   27SAPC   C29 3588   0.949  -0.500   8.033
   27SAPC   H9R 3589   0.921  -0.425   8.109
   27SAPC  C210 3590   0.991  -0.626   8.096
   27SAPC  H10R 3591   1.083  -0.601   8.153
   27SAPC  H10S 3592   1.004  -0.704   8.018
   27SAPC  C211 3593   0.887  -0.668   8.198
   27SAPC  H11R 3594   0.784  -0.684   8.162
   27SAPC  C212 3595   0.903  -0.704   8.327
   27SAPC  H12R 3596   0.812  -0.719   8.387
   27SAPC  C213 3597   1.036  -0.723   8.408
   27SAPC  H13R 3598   1.057  -0.622   8.447
   27SAPC  H13S 3599   1.118  -0.746   8.336
   27SAPC  C214 3600   1.030  -0.818   8.525
   27SAPC  H14R 3601   1.089  -0.910   8.512
   27SAPC  C215 3602   0.994  -0.784   8.650
   27SAPC  H15R 3603   1.014  -0.853   8.734
   27SAPC  C216 3604   0.923  -0.660   8.687
   27SAPC  H16R 3605   0.857  -0.614   8.610
   27SAPC  H16S 3606   1.002  -0.592   8.727
   27SAPC  C217 3607   0.834  -0.681   8.803
   27SAPC  H17R 3608   0.893  -0.725   8.886
   27SAPC  H17S 3609   0.753  -0.749   8.770
   27SAPC  C218 3610   0.772  -0.555   8.856
   27SAPC  H18R 3611   0.712  -0.496   8.783
   27SAPC  H18S 3612   0.856  -0.484   8.872
   27SAPC  C219 3613   0.695  -0.559   8.989
   27SAPC  H19R 3614   0.650  -0.458   9.003
   27SAPC  H19S 3615   0.760  -0.583   9.075
   27SAPC  C220 3616   0.580  -0.658   8.997
   27SAPC  H20R 3617   0.621  -0.761   8.989
   27SAPC  H20S 3618   0.513  -0.638   8.910
   27SAPC  H20T 3619   0.526  -0.668   9.093
   27SAPC   C33 3620   1.506  -0.613   7.076
   27SAPC   H3X 3621   1.536  -0.520   7.128
   27SAPC   H3Y 3622   1.575  -0.698   7.090
   27SAPC   C34 3623   1.370  -0.663   7.132
   27SAPC   H4X 3624   1.332  -0.733   7.055
   27SAPC   H4Y 3625   1.295  -0.581   7.144
   27SAPC   C35 3626   1.388  -0.746   7.264
   27SAPC   H5X 3627   1.468  -0.822   7.253
   27SAPC   H5Y 3628   1.293  -0.802   7.279
   27SAPC   C36 3629   1.436  -0.658   7.373
   27SAPC   H6X 3630   1.383  -0.561   7.384
   27SAPC   H6Y 3631   1.543  -0.627   7.370
   27SAPC   C37 3632   1.439  -0.744   7.499
   27SAPC   H7X 3633   1.493  -0.839   7.477
   27SAPC   H7Y 3634   1.333  -0.775   7.512
   27SAPC   C38 3635   1.490  -0.669   7.620
   27SAPC   H8X 3636   1.462  -0.562   7.614
   27SAPC   H8Y 3637   1.600  -0.677   7.623
   27SAPC   C39 3638   1.439  -0.732   7.752
   27SAPC   H9X 3639   1.449  -0.840   7.731
   27SAPC   H9Y 3640   1.332  -0.706   7.771
   27SAPC  C310 3641   1.518  -0.693   7.883
   27SAPC  H10X 3642   1.629  -0.698   7.884
   27SAPC  H10Y 3643   1.476  -0.765   7.957
   27SAPC  C311 3644   1.485  -0.551   7.932
   27SAPC  H11X 3645   1.385  -0.520   7.897
   27SAPC  H11Y 3646   1.563  -0.480   7.895
   27SAPC  C312 3647   1.494  -0.532   8.080
   27SAPC  H12X 3648   1.540  -0.433   8.101
   27SAPC  H12Y 3649   1.566  -0.607   8.119
   27SAPC  C313 3650   1.360  -0.550   8.146
   27SAPC  H13X 3651   1.328  -0.655   8.162
   27SAPC  H13Y 3652   1.278  -0.498   8.093
   27SAPC  C314 3653   1.384  -0.513   8.303
   27SAPC  H14X 3654   1.295  -0.487   8.364
   27SAPC  H14Y 3655   1.447  -0.422   8.313
   27SAPC  C315 3656   1.451  -0.631   8.377
   27SAPC  H15X 3657   1.532  -0.668   8.311
   27SAPC  H15Y 3658   1.371  -0.707   8.388
   27SAPC  C316 3659   1.511  -0.593   8.515
   27SAPC  H16X 3660   1.608  -0.540   8.503
   27SAPC  H16Y 3661   1.552  -0.684   8.563
   27SAPC  C317 3662   1.408  -0.531   8.614
   27SAPC  H17X 3663   1.369  -0.441   8.562
   27SAPC  H17Y 3664   1.466  -0.485   8.698
   27SAPC  C318 3665   1.305  -0.625   8.665
   27SAPC  H18X 3666   1.352  -0.721   8.695
   27SAPC  H18Y 3667   1.236  -0.646   8.581
   27SAPC  H18Z 3668   1.239  -0.587   8.747
   28SAPC     N 3669   0.258   4.011   6.603
   28SAPC   C12 3670   0.207   3.994   6.457
   28SAPC  H12A 3671   0.287   4.021   6.390
   28SAPC  H12B 3672   0.134   4.070   6.434
   28SAPC   C13 3673   0.313   4.145   6.625
   28SAPC  H13A 3674   0.350   4.153   6.726
   28SAPC  H13B 3675   0.399   4.171   6.565
   28SAPC  H13C 3676   0.229   4.213   6.619
   28SAPC   C14 3677   0.143   3.996   6.692
   28SAPC  H14A 3678   0.172   4.009   6.795
   28SAPC  H14B 3679   0.069   4.070   6.663
   28SAPC  H14C 3680   0.092   3.901   6.687
   28SAPC   C15 3681   0.359   3.914   6.627
   28SAPC  H15A 3682   0.378   3.887   6.730
   28SAPC  H15B 3683   0.322   3.820   6.588
   28SAPC  H15C 3684   0.451   3.929   6.572
   28SAPC   C11 3685   0.144   3.857   6.410
   28SAPC  H11A 3686   0.120   3.868   6.302
   28SAPC  H11B 3687   0.046   3.834   6.458
   28SAPC     P 3688   0.212   3.623   6.342
   28SAPC   O13 3689   0.080   3.567   6.362
   28SAPC   O14 3690   0.250   3.654   6.202
   28SAPC   O12 3691   0.231   3.751   6.430
   28SAPC   O11 3692   0.318   3.524   6.391
   28SAPC    C1 3693   0.433   3.562   6.466
   28SAPC    HA 3694   0.527   3.532   6.414
   28SAPC    HB 3695   0.448   3.672   6.463
   28SAPC    C2 3696   0.428   3.500   6.601
   28SAPC    HS 3697   0.405   3.391   6.590
   28SAPC   O21 3698   0.330   3.573   6.676
   28SAPC   C21 3699   0.213   3.512   6.682
   28SAPC   O22 3700   0.188   3.400   6.653
   28SAPC   C22 3701   0.097   3.606   6.732
   28SAPC   H2R 3702   0.123   3.713   6.716
   28SAPC   H2S 3703   0.007   3.594   6.667
   28SAPC    C3 3704   0.567   3.509   6.675
   28SAPC    HX 3705   0.589   3.618   6.679
   28SAPC    HY 3706   0.646   3.473   6.606
   28SAPC   O31 3707   0.572   3.449   6.808
   28SAPC   C31 3708   0.596   3.321   6.804
   28SAPC   O32 3709   0.615   3.258   6.698
   28SAPC   C32 3710   0.591   3.267   6.943
   28SAPC   H2X 3711   0.648   3.329   7.016
   28SAPC   H2Y 3712   0.645   3.170   6.951
   28SAPC   C23 3713   0.071   3.587   6.885
   28SAPC   H3R 3714   0.149   3.642   6.942
   28SAPC   H3S 3715   0.065   3.478   6.907
   28SAPC   C24 3716  -0.072   3.641   6.920
   28SAPC   H4R 3717  -0.098   3.732   6.861
   28SAPC   H4S 3718  -0.138   3.566   6.872
   28SAPC   C25 3719  -0.109   3.677   7.060
   28SAPC   H5R 3720  -0.073   3.776   7.094
   28SAPC   C26 3721  -0.167   3.599   7.158
   28SAPC   H6R 3722  -0.179   3.624   7.265
   28SAPC   C27 3723  -0.237   3.465   7.139
   28SAPC   H7R 3724  -0.219   3.405   7.231
   28SAPC   H7S 3725  -0.183   3.407   7.061
   28SAPC   C28 3726  -0.378   3.479   7.103
   28SAPC   H8R 3727  -0.402   3.506   6.999
   28SAPC   C29 3728  -0.489   3.460   7.180
   28SAPC   H9R 3729  -0.586   3.482   7.133
   28SAPC  C210 3730  -0.498   3.448   7.327
   28SAPC  H10R 3731  -0.399   3.478   7.369
   28SAPC  H10S 3732  -0.508   3.338   7.337
   28SAPC  C211 3733  -0.615   3.529   7.382
   28SAPC  H11R 3734  -0.615   3.636   7.358
   28SAPC  C212 3735  -0.693   3.498   7.484
   28SAPC  H12R 3736  -0.790   3.548   7.495
   28SAPC  C213 3737  -0.688   3.375   7.572
   28SAPC  H13R 3738  -0.645   3.291   7.512
   28SAPC  H13S 3739  -0.792   3.343   7.592
   28SAPC  C214 3740  -0.606   3.384   7.694
   28SAPC  H14R 3741  -0.500   3.360   7.681
   28SAPC  C215 3742  -0.657   3.405   7.820
   28SAPC  H15R 3743  -0.587   3.430   7.901
   28SAPC  C216 3744  -0.795   3.420   7.876
   28SAPC  H16R 3745  -0.884   3.404   7.811
   28SAPC  H16S 3746  -0.798   3.525   7.913
   28SAPC  C217 3747  -0.800   3.321   7.993
   28SAPC  H17R 3748  -0.714   3.337   8.061
   28SAPC  H17S 3749  -0.791   3.217   7.953
   28SAPC  C218 3750  -0.927   3.329   8.074
   28SAPC  H18R 3751  -1.012   3.329   8.003
   28SAPC  H18S 3752  -0.939   3.429   8.121
   28SAPC  C219 3753  -0.933   3.225   8.183
   28SAPC  H19R 3754  -0.899   3.128   8.138
   28SAPC  H19S 3755  -1.040   3.209   8.205
   28SAPC  C220 3756  -0.853   3.255   8.307
   28SAPC  H20R 3757  -0.745   3.271   8.284
   28SAPC  H20S 3758  -0.854   3.168   8.376
   28SAPC  H20T 3759  -0.880   3.351   8.357
   28SAPC   C33 3760   0.444   3.234   6.990
   28SAPC   H3X 3761   0.445   3.133   7.036
   28SAPC   H3Y 3762   0.371   3.211   6.909
   28SAPC   C34 3763   0.381   3.341   7.091
   28SAPC   H4X 3764   0.340   3.437   7.052
   28SAPC   H4Y 3765   0.464   3.368   7.160
   28SAPC   C35 3766   0.263   3.274   7.168
   28SAPC   H5X 3767   0.281   3.179   7.223
   28SAPC   H5Y 3768   0.182   3.266   7.092
   28SAPC   C36 3769   0.223   3.370   7.284
   28SAPC   H6X 3770   0.221   3.477   7.254
   28SAPC   H6Y 3771   0.300   3.360   7.364
   28SAPC   C37 3772   0.089   3.321   7.339
   28SAPC   H7X 3773   0.068   3.214   7.320
   28SAPC   H7Y 3774   0.002   3.376   7.295
   28SAPC   C38 3775   0.069   3.349   7.487
   28SAPC   H8X 3776   0.099   3.450   7.523
   28SAPC   H8Y 3777   0.143   3.284   7.538
   28SAPC   C39 3778  -0.073   3.317   7.537
   28SAPC   H9X 3779  -0.101   3.214   7.507
   28SAPC   H9Y 3780  -0.155   3.386   7.505
   28SAPC  C310 3781  -0.064   3.327   7.688
   28SAPC  H10X 3782  -0.020   3.426   7.712
   28SAPC  H10Y 3783   0.005   3.250   7.730
   28SAPC  C311 3784  -0.195   3.295   7.769
   28SAPC  H11X 3785  -0.250   3.210   7.723
   28SAPC  H11Y 3786  -0.265   3.382   7.765
   28SAPC  C312 3787  -0.161   3.263   7.916
   28SAPC  H12X 3788  -0.109   3.356   7.951
   28SAPC  H12Y 3789  -0.072   3.196   7.918
   28SAPC  C313 3790  -0.269   3.226   8.012
   28SAPC  H13X 3791  -0.309   3.126   7.986
   28SAPC  H13Y 3792  -0.343   3.307   7.991
   28SAPC  C314 3793  -0.222   3.227   8.150
   28SAPC  H14X 3794  -0.183   3.324   8.188
   28SAPC  H14Y 3795  -0.134   3.160   8.162
   28SAPC  C315 3796  -0.325   3.182   8.257
   28SAPC  H15X 3797  -0.356   3.082   8.219
   28SAPC  H15Y 3798  -0.409   3.255   8.256
   28SAPC  C316 3799  -0.277   3.160   8.394
   28SAPC  H16X 3800  -0.228   3.255   8.424
   28SAPC  H16Y 3801  -0.197   3.083   8.391
   28SAPC  C317 3802  -0.393   3.131   8.497
   28SAPC  H17X 3803  -0.354   3.116   8.600
   28SAPC  H17Y 3804  -0.440   3.032   8.474
   28SAPC  C318 3805  -0.490   3.244   8.519
   28SAPC  H18X 3806  -0.433   3.340   8.520
   28SAPC  H18Y 3807  -0.539   3.237   8.619
   28SAPC  H18Z 3808  -0.552   3.252   8.428
   29SAPC     N 3809   2.363   0.398   6.282
   29SAPC   C12 3810   2.411   0.514   6.195
   29SAPC  H12A 3811   2.338   0.593   6.194
   29SAPC  H12B 3812   2.399   0.484   6.091
   29SAPC   C13 3813   2.352   0.446   6.424
   29SAPC  H13A 3814   2.447   0.490   6.451
   29SAPC  H13B 3815   2.270   0.513   6.443
   29SAPC  H13C 3816   2.329   0.369   6.496
   29SAPC   C14 3817   2.229   0.351   6.246
   29SAPC  H14A 3818   2.220   0.286   6.161
   29SAPC  H14B 3819   2.195   0.296   6.332
   29SAPC  H14C 3820   2.160   0.431   6.227
   29SAPC   C15 3821   2.458   0.290   6.292
   29SAPC  H15A 3822   2.488   0.257   6.193
   29SAPC  H15B 3823   2.547   0.330   6.339
   29SAPC  H15C 3824   2.427   0.214   6.362
   29SAPC   C11 3825   2.541   0.589   6.224
   29SAPC  H11A 3826   2.520   0.644   6.318
   29SAPC  H11B 3827   2.559   0.667   6.147
   29SAPC     P 3828   2.775   0.531   6.329
   29SAPC   O13 3829   2.870   0.412   6.331
   29SAPC   O14 3830   2.841   0.657   6.302
   29SAPC   O12 3831   2.658   0.507   6.230
   29SAPC   O11 3832   2.711   0.542   6.471
   29SAPC    C1 3833   2.779   0.594   6.586
   29SAPC    HA 3834   2.878   0.638   6.560
   29SAPC    HB 3835   2.708   0.673   6.618
   29SAPC    C2 3836   2.787   0.499   6.711
   29SAPC    HS 3837   2.839   0.556   6.790
   29SAPC   O21 3838   2.850   0.369   6.681
   29SAPC   C21 3839   2.977   0.380   6.671
   29SAPC   O22 3840   3.047   0.480   6.675
   29SAPC   C22 3841   3.027   0.225   6.662
   29SAPC   H2R 3842   2.984   0.191   6.566
   29SAPC   H2S 3843   3.138   0.218   6.669
   29SAPC    C3 3844   2.638   0.469   6.775
   29SAPC    HX 3845   2.558   0.436   6.705
   29SAPC    HY 3846   2.607   0.574   6.798
   29SAPC   O31 3847   2.646   0.392   6.890
   29SAPC   C31 3848   2.601   0.267   6.883
   29SAPC   O32 3849   2.568   0.217   6.776
   29SAPC   C32 3850   2.628   0.188   7.010
   29SAPC   H2X 3851   2.734   0.191   7.043
   29SAPC   H2Y 3852   2.600   0.084   6.983
   29SAPC   C23 3853   2.959   0.138   6.779
   29SAPC   H3R 3854   2.974   0.033   6.747
   29SAPC   H3S 3855   2.848   0.149   6.783
   29SAPC   C24 3856   3.031   0.159   6.915
   29SAPC   H4R 3857   3.140   0.141   6.909
   29SAPC   H4S 3858   2.998   0.072   6.976
   29SAPC   C25 3859   2.984   0.285   6.989
   29SAPC   H5R 3860   2.928   0.364   6.937
   29SAPC   C26 3861   3.020   0.311   7.113
   29SAPC   H6R 3862   2.993   0.410   7.154
   29SAPC   C27 3863   3.100   0.230   7.200
   29SAPC   H7R 3864   3.207   0.246   7.173
   29SAPC   H7S 3865   3.087   0.126   7.165
   29SAPC   C28 3866   3.075   0.229   7.346
   29SAPC   H8R 3867   2.975   0.254   7.383
   29SAPC   C29 3868   3.164   0.197   7.441
   29SAPC   H9R 3869   3.131   0.199   7.546
   29SAPC  C210 3870   3.307   0.155   7.422
   29SAPC  H10R 3871   3.374   0.229   7.373
   29SAPC  H10S 3872   3.311   0.072   7.349
   29SAPC  C211 3873   3.374   0.099   7.540
   29SAPC  H11R 3874   3.419   0.001   7.515
   29SAPC  C212 3875   3.403   0.165   7.649
   29SAPC  H12R 3876   3.450   0.106   7.729
   29SAPC  C213 3877   3.363   0.313   7.670
   29SAPC  H13R 3878   3.271   0.322   7.732
   29SAPC  H13S 3879   3.332   0.359   7.574
   29SAPC  C214 3880   3.490   0.381   7.717
   29SAPC  H14R 3881   3.549   0.426   7.635
   29SAPC  C215 3882   3.524   0.388   7.848
   29SAPC  H15R 3883   3.613   0.447   7.873
   29SAPC  C216 3884   3.453   0.332   7.967
   29SAPC  H16R 3885   3.350   0.298   7.942
   29SAPC  H16S 3886   3.439   0.410   8.045
   29SAPC  C217 3887   3.517   0.201   8.028
   29SAPC  H17R 3888   3.627   0.211   8.045
   29SAPC  H17S 3889   3.510   0.121   7.952
   29SAPC  C218 3890   3.449   0.170   8.163
   29SAPC  H18R 3891   3.339   0.162   8.144
   29SAPC  H18S 3892   3.468   0.252   8.235
   29SAPC  C219 3893   3.482   0.024   8.210
   29SAPC  H19R 3894   3.593   0.015   8.213
   29SAPC  H19S 3895   3.442  -0.053   8.141
   29SAPC  C220 3896   3.429   0.000   8.351
   29SAPC  H20R 3897   3.468   0.064   8.434
   29SAPC  H20S 3898   3.450  -0.105   8.380
   29SAPC  H20T 3899   3.319   0.011   8.351
   29SAPC   C33 3900   2.546   0.232   7.137
   29SAPC   H3X 3901   2.439   0.203   7.133
   29SAPC   H3Y 3902   2.552   0.341   7.160
   29SAPC   C34 3903   2.585   0.157   7.266
   29SAPC   H4X 3904   2.691   0.125   7.272
   29SAPC   H4Y 3905   2.525   0.063   7.266
   29SAPC   C35 3906   2.548   0.227   7.401
   29SAPC   H5X 3907   2.440   0.252   7.399
   29SAPC   H5Y 3908   2.603   0.324   7.406
   29SAPC   C36 3909   2.586   0.151   7.530
   29SAPC   H6X 3910   2.695   0.143   7.549
   29SAPC   H6Y 3911   2.537   0.051   7.522
   29SAPC   C37 3912   2.525   0.218   7.659
   29SAPC   H7X 3913   2.423   0.255   7.637
   29SAPC   H7Y 3914   2.580   0.315   7.666
   29SAPC   C38 3915   2.551   0.131   7.779
   29SAPC   H8X 3916   2.660   0.112   7.787
   29SAPC   H8Y 3917   2.501   0.033   7.764
   29SAPC   C39 3918   2.495   0.201   7.905
   29SAPC   H9X 3919   2.385   0.195   7.889
   29SAPC   H9Y 3920   2.529   0.307   7.907
   29SAPC  C310 3921   2.537   0.123   8.032
   29SAPC  H10X 3922   2.628   0.176   8.069
   29SAPC  H10Y 3923   2.579   0.024   8.003
   29SAPC  C311 3924   2.434   0.125   8.141
   29SAPC  H11X 3925   2.350   0.056   8.119
   29SAPC  H11Y 3926   2.389   0.227   8.137
   29SAPC  C312 3927   2.493   0.097   8.279
   29SAPC  H12X 3928   2.542   0.193   8.307
   29SAPC  H12Y 3929   2.560   0.010   8.264
   29SAPC  C313 3930   2.396   0.064   8.396
   29SAPC  H13X 3931   2.349  -0.033   8.368
   29SAPC  H13Y 3932   2.314   0.138   8.400
   29SAPC  C314 3933   2.440   0.048   8.541
   29SAPC  H14X 3934   2.462   0.149   8.581
   29SAPC  H14Y 3935   2.535  -0.010   8.548
   29SAPC  C315 3936   2.329  -0.014   8.634
   29SAPC  H15X 3937   2.375  -0.041   8.731
   29SAPC  H15Y 3938   2.291  -0.107   8.588
   29SAPC  C316 3939   2.209   0.070   8.673
   29SAPC  H16X 3940   2.163   0.109   8.579
   29SAPC  H16Y 3941   2.249   0.150   8.738
   29SAPC  C317 3942   2.104   0.006   8.765
   29SAPC  H17X 3943   2.156  -0.052   8.845
   29SAPC  H17Y 3944   2.063  -0.078   8.704
   29SAPC  C318 3945   2.001   0.103   8.822
   29SAPC  H18X 3946   2.042   0.181   8.889
   29SAPC  H18Y 3947   1.918   0.040   8.861
   29SAPC  H18Z 3948   1.950   0.150   8.735
   30SAPC     N 3949   3.737   0.295   6.026
   30SAPC   C12 3950   3.828   0.317   6.153
   30SAPC  H12A 3951   3.871   0.227   6.193
   30SAPC  H12B 3952   3.771   0.350   6.239
   30SAPC   C13 3953   3.631   0.187   6.062
   30SAPC  H13A 3954   3.570   0.151   5.981
   30SAPC  H13B 3955   3.677   0.102   6.111
   30SAPC  H13C 3956   3.575   0.228   6.145
   30SAPC   C14 3957   3.659   0.418   5.980
   30SAPC  H14A 3958   3.593   0.440   6.063
   30SAPC  H14B 3959   3.725   0.500   5.955
   30SAPC  H14C 3960   3.612   0.391   5.886
   30SAPC   C15 3961   3.811   0.233   5.916
   30SAPC  H15A 3962   3.832   0.131   5.945
   30SAPC  H15B 3963   3.760   0.237   5.821
   30SAPC  H15C 3964   3.906   0.286   5.918
   30SAPC   C11 3965   3.955   0.412   6.142
   30SAPC  H11A 3966   4.000   0.440   6.239
   30SAPC  H11B 3967   3.917   0.508   6.101
   30SAPC     P 3968   4.132   0.239   6.082
   30SAPC   O13 3969   4.041   0.123   6.084
   30SAPC   O14 3970   4.248   0.234   5.992
   30SAPC   O12 3971   4.043   0.370   6.037
   30SAPC   O11 3972   4.183   0.274   6.227
   30SAPC    C1 3973   4.315   0.335   6.232
   30SAPC    HA 3974   4.403   0.269   6.214
   30SAPC    HB 3975   4.319   0.421   6.163
   30SAPC    C2 3976   4.331   0.396   6.377
   30SAPC    HS 3977   4.439   0.407   6.396
   30SAPC   O21 3978   4.274   0.317   6.479
   30SAPC   C21 3979   4.315   0.193   6.499
   30SAPC   O22 3980   4.411   0.136   6.444
   30SAPC   C22 3981   4.221   0.132   6.599
   30SAPC   H2R 3982   4.164   0.204   6.661
   30SAPC   H2S 3983   4.146   0.079   6.537
   30SAPC    C3 3984   4.266   0.534   6.384
   30SAPC    HX 3985   4.163   0.514   6.348
   30SAPC    HY 3986   4.329   0.590   6.312
   30SAPC   O31 3987   4.262   0.586   6.520
   30SAPC   C31 3988   4.242   0.718   6.522
   30SAPC   O32 3989   4.232   0.790   6.424
   30SAPC   C32 3990   4.228   0.768   6.663
   30SAPC   H2X 3991   4.123   0.756   6.697
   30SAPC   H2Y 3992   4.256   0.875   6.661
   30SAPC   C23 3993   4.284   0.033   6.699
   30SAPC   H3R 3994   4.338  -0.049   6.647
   30SAPC   H3S 3995   4.202  -0.018   6.753
   30SAPC   C24 3996   4.387   0.093   6.795
   30SAPC   H4R 3997   4.469   0.124   6.728
   30SAPC   H4S 3998   4.427   0.006   6.852
   30SAPC   C25 3999   4.337   0.210   6.868
   30SAPC   H5R 4000   4.279   0.288   6.817
   30SAPC   C26 4001   4.357   0.225   7.001
   30SAPC   H6R 4002   4.315   0.319   7.040
   30SAPC   C27 4003   4.411   0.128   7.108
   30SAPC   H7R 4004   4.402   0.028   7.061
   30SAPC   H7S 4005   4.351   0.118   7.201
   30SAPC   C28 4006   4.554   0.157   7.133
   30SAPC   H8R 4007   4.616   0.168   7.043
   30SAPC   C29 4008   4.607   0.189   7.255
   30SAPC   H9R 4009   4.717   0.194   7.259
   30SAPC  C210 4010   4.545   0.175   7.397
   30SAPC  H10R 4011   4.437   0.199   7.407
   30SAPC  H10S 4012   4.603   0.245   7.461
   30SAPC  C211 4013   4.553   0.037   7.462
   30SAPC  H11R 4014   4.580  -0.052   7.403
   30SAPC  C212 4015   4.544   0.023   7.596
   30SAPC  H12R 4016   4.542  -0.079   7.635
   30SAPC  C213 4017   4.528   0.135   7.693
   30SAPC  H13R 4018   4.483   0.228   7.651
   30SAPC  H13S 4019   4.634   0.152   7.720
   30SAPC  C214 4020   4.449   0.102   7.820
   30SAPC  H14R 4021   4.349   0.146   7.836
   30SAPC  C215 4022   4.486   0.015   7.916
   30SAPC  H15R 4023   4.425   0.007   8.007
   30SAPC  C216 4024   4.607  -0.073   7.913
   30SAPC  H16R 4025   4.681  -0.031   7.841
   30SAPC  H16S 4026   4.588  -0.173   7.867
   30SAPC  C217 4027   4.666  -0.103   8.054
   30SAPC  H17R 4028   4.612  -0.183   8.108
   30SAPC  H17S 4029   4.660  -0.007   8.110
   30SAPC  C218 4030   4.815  -0.143   8.044
   30SAPC  H18R 4031   4.862  -0.079   7.966
   30SAPC  H18S 4032   4.832  -0.247   8.008
   30SAPC  C219 4033   4.892  -0.122   8.181
   30SAPC  H19R 4034   4.822  -0.147   8.263
   30SAPC  H19S 4035   4.909  -0.013   8.199
   30SAPC  C220 4036   5.021  -0.197   8.189
   30SAPC  H20R 4037   5.081  -0.176   8.280
   30SAPC  H20S 4038   5.077  -0.165   8.098
   30SAPC  H20T 4039   5.005  -0.306   8.180
   30SAPC   C33 4040   4.326   0.698   6.758
   30SAPC   H3X 4041   4.430   0.714   6.725
   30SAPC   H3Y 4042   4.299   0.590   6.764
   30SAPC   C34 4043   4.316   0.761   6.897
   30SAPC   H4X 4044   4.214   0.792   6.928
   30SAPC   H4Y 4045   4.375   0.853   6.879
   30SAPC   C35 4046   4.391   0.671   6.998
   30SAPC   H5X 4047   4.499   0.670   6.972
   30SAPC   H5Y 4048   4.341   0.572   6.991
   30SAPC   C36 4049   4.396   0.724   7.142
   30SAPC   H6X 4050   4.292   0.752   7.169
   30SAPC   H6Y 4051   4.458   0.816   7.144
   30SAPC   C37 4052   4.456   0.628   7.240
   30SAPC   H7X 4053   4.565   0.622   7.217
   30SAPC   H7Y 4054   4.416   0.527   7.219
   30SAPC   C38 4055   4.420   0.659   7.387
   30SAPC   H8X 4056   4.316   0.696   7.377
   30SAPC   H8Y 4057   4.475   0.741   7.437
   30SAPC   C39 4058   4.416   0.526   7.466
   30SAPC   H9X 4059   4.521   0.492   7.469
   30SAPC   H9Y 4060   4.357   0.445   7.417
   30SAPC  C310 4061   4.349   0.526   7.603
   30SAPC  H10X 4062   4.349   0.421   7.641
   30SAPC  H10Y 4063   4.241   0.552   7.602
   30SAPC  C311 4064   4.414   0.623   7.708
   30SAPC  H11X 4065   4.386   0.730   7.699
   30SAPC  H11Y 4066   4.524   0.615   7.703
   30SAPC  C312 4067   4.380   0.572   7.851
   30SAPC  H12X 4068   4.433   0.478   7.877
   30SAPC  H12Y 4069   4.270   0.561   7.848
   30SAPC  C313 4070   4.414   0.678   7.964
   30SAPC  H13X 4071   4.404   0.778   7.916
   30SAPC  H13Y 4072   4.514   0.669   8.012
   30SAPC  C314 4073   4.312   0.665   8.079
   30SAPC  H14X 4074   4.226   0.701   8.019
   30SAPC  H14Y 4075   4.342   0.735   8.160
   30SAPC  C315 4076   4.286   0.531   8.143
   30SAPC  H15X 4077   4.226   0.467   8.074
   30SAPC  H15Y 4078   4.217   0.539   8.230
   30SAPC  C316 4079   4.407   0.453   8.200
   30SAPC  H16X 4080   4.482   0.522   8.245
   30SAPC  H16Y 4081   4.442   0.395   8.112
   30SAPC  C317 4082   4.368   0.346   8.298
   30SAPC  H17X 4083   4.282   0.291   8.255
   30SAPC  H17Y 4084   4.337   0.403   8.388
   30SAPC  C318 4085   4.487   0.256   8.335
   30SAPC  H18X 4086   4.474   0.177   8.412
   30SAPC  H18Y 4087   4.575   0.317   8.367
   30SAPC  H18Z 4088   4.534   0.213   8.245
   31SAPC     N 4089   4.847   1.331   6.112
   31SAPC   C12 4090   4.811   1.331   6.262
   31SAPC  H12A 4091   4.782   1.232   6.293
   31SAPC  H12B 4092   4.722   1.393   6.271
   31SAPC   C13 4093   4.970   1.249   6.086
   31SAPC  H13A 4094   5.058   1.304   6.115
   31SAPC  H13B 4095   4.964   1.149   6.125
   31SAPC  H13C 4096   4.977   1.235   5.979
   31SAPC   C14 4097   4.736   1.255   6.039
   31SAPC  H14A 4098   4.762   1.244   5.935
   31SAPC  H14B 4099   4.713   1.157   6.079
   31SAPC  H14C 4100   4.642   1.306   6.051
   31SAPC   C15 4101   4.862   1.463   6.056
   31SAPC  H15A 4102   4.769   1.517   6.067
   31SAPC  H15B 4103   4.949   1.507   6.102
   31SAPC  H15C 4104   4.889   1.450   5.952
   31SAPC   C11 4105   4.915   1.383   6.366
   31SAPC  H11A 4106   4.870   1.366   6.467
   31SAPC  H11B 4107   4.922   1.494   6.361
   31SAPC     P 4108   5.100   1.196   6.406
   31SAPC   O13 4109   4.975   1.113   6.420
   31SAPC   O14 4110   5.211   1.149   6.318
   31SAPC   O12 4111   5.055   1.339   6.354
   31SAPC   O11 4112   5.161   1.220   6.549
   31SAPC    C1 4113   5.180   1.345   6.614
   31SAPC    HA 4114   5.113   1.426   6.579
   31SAPC    HB 4115   5.150   1.331   6.720
   31SAPC    C2 4116   5.330   1.392   6.592
   31SAPC    HS 4117   5.381   1.297   6.563
   31SAPC   O21 4118   5.385   1.436   6.716
   31SAPC   C21 4119   5.515   1.423   6.730
   31SAPC   O22 4120   5.595   1.369   6.658
   31SAPC   C22 4121   5.558   1.489   6.862
   31SAPC   H2R 4122   5.529   1.596   6.851
   31SAPC   H2S 4123   5.493   1.443   6.939
   31SAPC    C3 4124   5.342   1.508   6.493
   31SAPC    HX 4125   5.295   1.473   6.398
   31SAPC    HY 4126   5.450   1.520   6.470
   31SAPC   O31 4127   5.280   1.628   6.546
   31SAPC   C31 4128   5.364   1.727   6.572
   31SAPC   O32 4129   5.481   1.713   6.583
   31SAPC   C32 4130   5.286   1.862   6.584
   31SAPC   H2X 4131   5.212   1.856   6.501
   31SAPC   H2Y 4132   5.360   1.944   6.572
   31SAPC   C23 4133   5.706   1.464   6.888
   31SAPC   H3R 4134   5.747   1.514   6.798
   31SAPC   H3S 4135   5.728   1.356   6.885
   31SAPC   C24 4136   5.762   1.523   7.023
   31SAPC   H4R 4137   5.730   1.630   7.027
   31SAPC   H4S 4138   5.872   1.515   7.017
   31SAPC   C25 4139   5.711   1.440   7.144
   31SAPC   H5R 4140   5.764   1.344   7.159
   31SAPC   C26 4141   5.616   1.474   7.236
   31SAPC   H6R 4142   5.594   1.399   7.314
   31SAPC   C27 4143   5.531   1.606   7.247
   31SAPC   H7R 4144   5.486   1.606   7.146
   31SAPC   H7S 4145   5.599   1.693   7.243
   31SAPC   C28 4146   5.426   1.615   7.362
   31SAPC   H8R 4147   5.323   1.593   7.333
   31SAPC   C29 4148   5.448   1.606   7.498
   31SAPC   H9R 4149   5.364   1.598   7.569
   31SAPC  C210 4150   5.583   1.591   7.568
   31SAPC  H10R 4151   5.631   1.691   7.576
   31SAPC  H10S 4152   5.649   1.528   7.503
   31SAPC  C211 4153   5.564   1.531   7.708
   31SAPC  H11R 4154   5.563   1.601   7.793
   31SAPC  C212 4155   5.566   1.401   7.732
   31SAPC  H12R 4156   5.566   1.371   7.838
   31SAPC  C213 4157   5.560   1.289   7.624
   31SAPC  H13R 4158   5.659   1.238   7.620
   31SAPC  H13S 4159   5.549   1.329   7.521
   31SAPC  C214 4160   5.453   1.185   7.648
   31SAPC  H14R 4161   5.470   1.109   7.726
   31SAPC  C215 4162   5.340   1.179   7.582
   31SAPC  H15R 4163   5.275   1.092   7.599
   31SAPC  C216 4164   5.303   1.253   7.456
   31SAPC  H16R 4165   5.356   1.349   7.442
   31SAPC  H16S 4166   5.198   1.289   7.457
   31SAPC  C217 4167   5.300   1.166   7.331
   31SAPC  H17R 4168   5.256   1.067   7.357
   31SAPC  H17S 4169   5.403   1.143   7.296
   31SAPC  C218 4170   5.215   1.212   7.215
   31SAPC  H18R 4171   5.121   1.254   7.258
   31SAPC  H18S 4172   5.183   1.123   7.156
   31SAPC  C219 4173   5.279   1.318   7.123
   31SAPC  H19R 4174   5.375   1.271   7.092
   31SAPC  H19S 4175   5.313   1.409   7.178
   31SAPC  C220 4176   5.194   1.348   6.997
   31SAPC  H20R 4177   5.086   1.361   7.017
   31SAPC  H20S 4178   5.204   1.256   6.937
   31SAPC  H20T 4179   5.228   1.441   6.946
   31SAPC   C33 4180   5.210   1.860   6.717
   31SAPC   H3X 4181   5.134   1.780   6.706
   31SAPC   H3Y 4182   5.155   1.954   6.739
   31SAPC   C34 4183   5.306   1.830   6.834
   31SAPC   H4X 4184   5.394   1.894   6.811
   31SAPC   H4Y 4185   5.347   1.727   6.827
   31SAPC   C35 4186   5.246   1.855   6.968
   31SAPC   H5X 4187   5.153   1.913   6.947
   31SAPC   H5Y 4188   5.324   1.896   7.036
   31SAPC   C36 4189   5.192   1.723   7.025
   31SAPC   H6X 4190   5.274   1.648   7.020
   31SAPC   H6Y 4191   5.096   1.692   6.977
   31SAPC   C37 4192   5.144   1.755   7.165
   31SAPC   H7X 4193   5.075   1.841   7.152
   31SAPC   H7Y 4194   5.226   1.790   7.232
   31SAPC   C38 4195   5.062   1.641   7.226
   31SAPC   H8X 4196   5.123   1.549   7.215
   31SAPC   H8Y 4197   4.964   1.630   7.175
   31SAPC   C39 4198   5.038   1.667   7.375
   31SAPC   H9X 4199   4.983   1.762   7.391
   31SAPC   H9Y 4200   5.134   1.685   7.430
   31SAPC  C310 4201   4.972   1.556   7.456
   31SAPC  H10X 4202   5.037   1.467   7.442
   31SAPC  H10Y 4203   4.874   1.541   7.406
   31SAPC  C311 4204   4.942   1.599   7.598
   31SAPC  H11X 4205   4.895   1.698   7.617
   31SAPC  H11Y 4206   5.040   1.622   7.645
   31SAPC  C312 4207   4.864   1.488   7.675
   31SAPC  H12X 4208   4.929   1.399   7.664
   31SAPC  H12Y 4209   4.770   1.484   7.615
   31SAPC  C313 4210   4.832   1.533   7.812
   31SAPC  H13X 4211   4.783   1.633   7.812
   31SAPC  H13Y 4212   4.916   1.539   7.885
   31SAPC  C314 4213   4.738   1.432   7.888
   31SAPC  H14X 4214   4.782   1.331   7.872
   31SAPC  H14Y 4215   4.631   1.435   7.860
   31SAPC  C315 4216   4.737   1.473   8.039
   31SAPC  H15X 4217   4.704   1.579   8.042
   31SAPC  H15Y 4218   4.836   1.466   8.088
   31SAPC  C316 4219   4.630   1.399   8.129
   31SAPC  H16X 4220   4.645   1.289   8.116
   31SAPC  H16Y 4221   4.526   1.429   8.106
   31SAPC  C317 4222   4.637   1.439   8.277
   31SAPC  H17X 4223   4.636   1.550   8.278
   31SAPC  H17Y 4224   4.742   1.411   8.302
   31SAPC  C318 4225   4.523   1.372   8.356
   31SAPC  H18X 4226   4.528   1.379   8.467
   31SAPC  H18Y 4227   4.513   1.263   8.335
   31SAPC  H18Z 4228   4.435   1.426   8.314
   32SAPC     N 4229   0.043   1.786   6.109
   32SAPC   C12 4230   0.102   1.925   6.098
   32SAPC  H12A 4231   0.151   1.938   6.194
   32SAPC  H12B 4232   0.031   2.003   6.075
   32SAPC   C13 4233  -0.058   1.778   6.220
   32SAPC  H13A 4234  -0.129   1.859   6.213
   32SAPC  H13B 4235  -0.112   1.684   6.227
   32SAPC  H13C 4236  -0.019   1.788   6.319
   32SAPC   C14 4237  -0.032   1.756   5.986
   32SAPC  H14A 4238  -0.113   1.686   6.001
   32SAPC  H14B 4239  -0.086   1.844   5.952
   32SAPC  H14C 4240   0.027   1.704   5.913
   32SAPC   C15 4241   0.140   1.672   6.133
   32SAPC  H15A 4242   0.204   1.688   6.219
   32SAPC  H15B 4243   0.088   1.578   6.143
   32SAPC  H15C 4244   0.209   1.669   6.050
   32SAPC   C11 4245   0.221   1.928   5.999
   32SAPC  H11A 4246   0.232   2.030   5.957
   32SAPC  H11B 4247   0.195   1.863   5.913
   32SAPC     P 4248   0.420   1.962   6.171
   32SAPC   O13 4249   0.538   1.890   6.207
   32SAPC   O14 4250   0.447   2.098   6.120
   32SAPC   O12 4251   0.345   1.887   6.052
   32SAPC   O11 4252   0.310   1.965   6.286
   32SAPC    C1 4253   0.257   2.087   6.346
   32SAPC    HA 4254   0.221   2.151   6.262
   32SAPC    HB 4255   0.164   2.058   6.398
   32SAPC    C2 4256   0.355   2.160   6.450
   32SAPC    HS 4257   0.449   2.191   6.399
   32SAPC   O21 4258   0.382   2.065   6.556
   32SAPC   C21 4259   0.471   2.101   6.648
   32SAPC   O22 4260   0.550   2.192   6.642
   32SAPC   C22 4261   0.468   1.989   6.759
   32SAPC   H2R 4262   0.414   1.901   6.717
   32SAPC   H2S 4263   0.571   1.965   6.794
   32SAPC    C3 4264   0.305   2.297   6.506
   32SAPC    HX 4265   0.267   2.353   6.418
   32SAPC    HY 4266   0.387   2.361   6.545
   32SAPC   O31 4267   0.183   2.282   6.592
   32SAPC   C31 4268   0.196   2.344   6.711
   32SAPC   O32 4269   0.297   2.400   6.749
   32SAPC   C32 4270   0.064   2.339   6.789
   32SAPC   H2X 4271   0.094   2.276   6.876
   32SAPC   H2Y 4272  -0.011   2.282   6.729
   32SAPC   C23 4273   0.374   2.034   6.873
   32SAPC   H3R 4274   0.348   1.947   6.936
   32SAPC   H3S 4275   0.272   2.057   6.835
   32SAPC   C24 4276   0.440   2.144   6.957
   32SAPC   H4R 4277   0.360   2.183   7.023
   32SAPC   H4S 4278   0.470   2.226   6.889
   32SAPC   C25 4279   0.577   2.122   7.018
   32SAPC   H5R 4280   0.655   2.144   6.945
   32SAPC   C26 4281   0.612   2.110   7.144
   32SAPC   H6R 4282   0.715   2.103   7.182
   32SAPC   C27 4283   0.513   2.073   7.255
   32SAPC   H7R 4284   0.565   1.994   7.314
   32SAPC   H7S 4285   0.424   2.019   7.218
   32SAPC   C28 4286   0.462   2.171   7.355
   32SAPC   H8R 4287   0.373   2.229   7.325
   32SAPC   C29 4288   0.512   2.202   7.479
   32SAPC   H9R 4289   0.470   2.285   7.539
   32SAPC  C210 4290   0.618   2.129   7.552
   32SAPC  H10R 4291   0.712   2.187   7.550
   32SAPC  H10S 4292   0.653   2.036   7.502
   32SAPC  C211 4293   0.557   2.096   7.683
   32SAPC  H11R 4294   0.451   2.067   7.682
   32SAPC  C212 4295   0.611   2.109   7.811
   32SAPC  H12R 4296   0.543   2.080   7.893
   32SAPC  C213 4297   0.744   2.151   7.847
   32SAPC  H13R 4298   0.737   2.235   7.919
   32SAPC  H13S 4299   0.795   2.194   7.758
   32SAPC  C214 4300   0.832   2.034   7.886
   32SAPC  H14R 4301   0.852   1.967   7.802
   32SAPC  C215 4302   0.891   2.022   8.006
   32SAPC  H15R 4303   0.959   1.940   8.032
   32SAPC  C216 4304   0.896   2.129   8.113
   32SAPC  H16R 4305   0.921   2.225   8.064
   32SAPC  H16S 4306   0.973   2.116   8.193
   32SAPC  C217 4307   0.756   2.149   8.174
   32SAPC  H17R 4308   0.727   2.056   8.227
   32SAPC  H17S 4309   0.674   2.170   8.101
   32SAPC  C218 4310   0.746   2.263   8.281
   32SAPC  H18R 4311   0.642   2.300   8.287
   32SAPC  H18S 4312   0.807   2.350   8.247
   32SAPC  C219 4313   0.776   2.213   8.427
   32SAPC  H19R 4314   0.880   2.175   8.430
   32SAPC  H19S 4315   0.707   2.133   8.458
   32SAPC  C220 4316   0.765   2.315   8.540
   32SAPC  H20R 4317   0.828   2.405   8.527
   32SAPC  H20S 4318   0.802   2.276   8.637
   32SAPC  H20T 4319   0.658   2.340   8.557
   32SAPC   C33 4320   0.000   2.472   6.830
   32SAPC   H3X 4321   0.012   2.545   6.747
   32SAPC   H3Y 4322   0.072   2.507   6.907
   32SAPC   C34 4323  -0.150   2.469   6.880
   32SAPC   H4X 4324  -0.164   2.392   6.958
   32SAPC   H4Y 4325  -0.221   2.438   6.800
   32SAPC   C35 4326  -0.190   2.602   6.933
   32SAPC   H5X 4327  -0.179   2.684   6.858
   32SAPC   H5Y 4328  -0.133   2.625   7.025
   32SAPC   C36 4329  -0.336   2.620   6.973
   32SAPC   H6X 4330  -0.392   2.589   6.882
   32SAPC   H6Y 4331  -0.369   2.725   6.982
   32SAPC   C37 4332  -0.381   2.541   7.102
   32SAPC   H7X 4333  -0.335   2.441   7.088
   32SAPC   H7Y 4334  -0.492   2.535   7.098
   32SAPC   C38 4335  -0.342   2.605   7.232
   32SAPC   H8X 4336  -0.397   2.698   7.255
   32SAPC   H8Y 4337  -0.235   2.635   7.231
   32SAPC   C39 4338  -0.362   2.519   7.361
   32SAPC   H9X 4339  -0.289   2.434   7.360
   32SAPC   H9Y 4340  -0.464   2.474   7.360
   32SAPC  C310 4341  -0.360   2.610   7.489
   32SAPC  H10X 4342  -0.428   2.697   7.483
   32SAPC  H10Y 4343  -0.261   2.659   7.491
   32SAPC  C311 4344  -0.406   2.545   7.623
   32SAPC  H11X 4345  -0.497   2.483   7.609
   32SAPC  H11Y 4346  -0.428   2.634   7.686
   32SAPC  C312 4347  -0.300   2.469   7.699
   32SAPC  H12X 4348  -0.211   2.536   7.698
   32SAPC  H12Y 4349  -0.288   2.371   7.648
   32SAPC  C313 4350  -0.348   2.441   7.845
   32SAPC  H13X 4351  -0.449   2.395   7.838
   32SAPC  H13Y 4352  -0.342   2.541   7.894
   32SAPC  C314 4353  -0.252   2.338   7.912
   32SAPC  H14X 4354  -0.151   2.384   7.925
   32SAPC  H14Y 4355  -0.234   2.248   7.848
   32SAPC  C315 4356  -0.307   2.294   8.048
   32SAPC  H15X 4357  -0.403   2.237   8.041
   32SAPC  H15Y 4358  -0.335   2.383   8.109
   32SAPC  C316 4359  -0.192   2.212   8.113
   32SAPC  H16X 4360  -0.092   2.259   8.096
   32SAPC  H16Y 4361  -0.190   2.117   8.056
   32SAPC  C317 4362  -0.204   2.196   8.264
   32SAPC  H17X 4363  -0.206   2.297   8.313
   32SAPC  H17Y 4364  -0.115   2.139   8.297
   32SAPC  C318 4365  -0.324   2.116   8.305
   32SAPC  H18X 4366  -0.418   2.173   8.290
   32SAPC  H18Y 4367  -0.305   2.094   8.412
   32SAPC  H18Z 4368  -0.335   2.020   8.250
   33POPC     N 4369   3.908   3.025  10.688
   33POPC   C12 4370   3.883   3.113  10.560
   33POPC  H12A 4371   3.978   3.106  10.510
   33POPC  H12B 4372   3.873   3.216  10.592
   33POPC   C13 4373   3.974   2.896  10.647
   33POPC  H13A 4374   4.060   2.911  10.583
   33POPC  H13B 4375   4.013   2.836  10.728
   33POPC  H13C 4376   3.901   2.830  10.601
   33POPC   C14 4377   4.005   3.110  10.772
   33POPC  H14A 4378   4.044   3.048  10.851
   33POPC  H14B 4379   4.089   3.146  10.715
   33POPC  H14C 4380   3.945   3.192  10.810
   33POPC   C15 4381   3.791   2.995  10.771
   33POPC  H15A 4382   3.825   2.937  10.855
   33POPC  H15B 4383   3.722   2.927  10.723
   33POPC  H15C 4384   3.731   3.081  10.800
   33POPC   C11 4385   3.769   3.069  10.463
   33POPC  H11A 4386   3.789   2.961  10.449
   33POPC  H11B 4387   3.762   3.125  10.367
   33POPC     P 4388   3.564   3.199  10.553
   33POPC   O13 4389   3.659   3.297  10.611
   33POPC   O14 4390   3.447   3.170  10.635
   33POPC   O12 4391   3.641   3.063  10.531
   33POPC   O11 4392   3.517   3.244  10.405
   33POPC    C1 4393   3.463   3.144  10.325
   33POPC    HA 4394   3.540   3.068  10.301
   33POPC    HB 4395   3.382   3.092  10.380
   33POPC    C2 4396   3.380   3.184  10.196
   33POPC    HS 4397   3.325   3.091  10.169
   33POPC   O21 4398   3.469   3.228  10.092
   33POPC   C21 4399   3.519   3.121  10.028
   33POPC   O22 4400   3.491   3.003  10.050
   33POPC   C22 4401   3.619   3.170   9.922
   33POPC   H2R 4402   3.711   3.185   9.983
   33POPC   H2S 4403   3.597   3.275   9.894
   33POPC    C3 4404   3.272   3.291  10.238
   33POPC    HX 4405   3.321   3.378  10.285
   33POPC    HY 4406   3.208   3.240  10.313
   33POPC   O31 4407   3.196   3.323  10.119
   33POPC   C31 4408   3.244   3.419  10.045
   33POPC   O32 4409   3.350   3.478  10.065
   33POPC   C32 4410   3.158   3.453   9.925
   33POPC   H2X 4411   3.117   3.555   9.941
   33POPC   H2Y 4412   3.076   3.381   9.905
   33POPC   C23 4413   3.631   3.068   9.800
   33POPC   H3R 4414   3.611   2.963   9.832
   33POPC   H3S 4415   3.736   3.076   9.765
   33POPC   C24 4416   3.534   3.119   9.690
   33POPC   H4R 4417   3.575   3.220   9.669
   33POPC   H4S 4418   3.431   3.133   9.729
   33POPC   C25 4419   3.539   3.049   9.553
   33POPC   H5R 4420   3.479   2.956   9.564
   33POPC   H5S 4421   3.642   3.016   9.530
   33POPC   C26 4422   3.488   3.124   9.429
   33POPC   H6R 4423   3.557   3.209   9.416
   33POPC   H6S 4424   3.386   3.163   9.448
   33POPC   C27 4425   3.490   3.044   9.297
   33POPC   H7R 4426   3.413   2.968   9.324
   33POPC   H7S 4427   3.590   2.997   9.292
   33POPC   C28 4428   3.467   3.123   9.166
   33POPC   H8R 4429   3.377   3.186   9.187
   33POPC   H8S 4430   3.449   3.052   9.082
   33POPC   C29 4431   3.585   3.211   9.137
   33POPC   H91 4432   3.608   3.277   9.221
   33POPC  C210 4433   3.669   3.202   9.027
   33POPC  H101 4434   3.755   3.270   9.018
   33POPC  C211 4435   3.661   3.112   8.903
   33POPC  H11R 4436   3.677   3.165   8.807
   33POPC  H11S 4437   3.559   3.070   8.894
   33POPC  C212 4438   3.779   3.007   8.913
   33POPC  H12R 4439   3.776   2.945   9.005
   33POPC  H12S 4440   3.880   3.053   8.919
   33POPC  C213 4441   3.768   2.912   8.799
   33POPC  H13R 4442   3.780   2.983   8.714
   33POPC  H13S 4443   3.667   2.869   8.788
   33POPC  C214 4444   3.894   2.826   8.794
   33POPC  H14R 4445   3.980   2.876   8.844
   33POPC  H14S 4446   3.920   2.802   8.688
   33POPC  C215 4447   3.886   2.686   8.863
   33POPC  H15R 4448   3.805   2.631   8.810
   33POPC  H15S 4449   3.874   2.692   8.973
   33POPC  C216 4450   4.010   2.600   8.836
   33POPC  H16R 4451   4.098   2.661   8.867
   33POPC  H16S 4452   4.023   2.574   8.729
   33POPC  C217 4453   4.017   2.471   8.920
   33POPC  H17R 4454   3.933   2.403   8.893
   33POPC  H17S 4455   3.990   2.502   9.024
   33POPC  C218 4456   4.143   2.380   8.919
   33POPC  H18R 4457   4.177   2.359   8.815
   33POPC  H18S 4458   4.122   2.285   8.971
   33POPC  H18T 4459   4.229   2.425   8.973
   33POPC   C33 4460   3.255   3.453   9.799
   33POPC   H3X 4461   3.288   3.350   9.777
   33POPC   H3Y 4462   3.333   3.532   9.795
   33POPC   C34 4463   3.174   3.489   9.674
   33POPC   H4X 4464   3.125   3.588   9.681
   33POPC   H4Y 4465   3.089   3.419   9.656
   33POPC   C35 4466   3.245   3.492   9.534
   33POPC   H5X 4467   3.318   3.410   9.517
   33POPC   H5Y 4468   3.308   3.584   9.533
   33POPC   C36 4469   3.148   3.505   9.415
   33POPC   H6X 4470   3.148   3.611   9.382
   33POPC   H6Y 4471   3.042   3.478   9.437
   33POPC   C37 4472   3.192   3.437   9.275
   33POPC   H7X 4473   3.099   3.436   9.214
   33POPC   H7Y 4474   3.233   3.337   9.296
   33POPC   C38 4475   3.287   3.532   9.197
   33POPC   H8X 4476   3.371   3.558   9.265
   33POPC   H8Y 4477   3.237   3.629   9.177
   33POPC   C39 4478   3.346   3.490   9.066
   33POPC   H9X 4479   3.431   3.425   9.095
   33POPC   H9Y 4480   3.392   3.579   9.018
   33POPC  C310 4481   3.250   3.426   8.956
   33POPC  H10X 4482   3.171   3.500   8.929
   33POPC  H10Y 4483   3.202   3.340   9.007
   33POPC  C311 4484   3.330   3.383   8.833
   33POPC  H11X 4485   3.402   3.301   8.854
   33POPC  H11Y 4486   3.387   3.471   8.796
   33POPC  C312 4487   3.239   3.360   8.710
   33POPC  H12X 4488   3.191   3.459   8.695
   33POPC  H12Y 4489   3.176   3.270   8.729
   33POPC  C313 4490   3.309   3.366   8.570
   33POPC  H13X 4491   3.359   3.267   8.577
   33POPC  H13Y 4492   3.380   3.451   8.567
   33POPC  C314 4493   3.211   3.359   8.454
   33POPC  H14X 4494   3.177   3.459   8.420
   33POPC  H14Y 4495   3.118   3.300   8.465
   33POPC  C315 4496   3.278   3.306   8.329
   33POPC  H15X 4497   3.208   3.305   8.243
   33POPC  H15Y 4498   3.308   3.201   8.344
   33POPC  C316 4499   3.404   3.390   8.281
   33POPC  H16X 4500   3.481   3.386   8.362
   33POPC  H16Y 4501   3.383   3.498   8.267
   33POPC  H16Z 4502   3.444   3.350   8.185
   34POPC     N 4503   3.328   3.829  10.851
   34POPC   C12 4504   3.271   3.747  10.731
   34POPC  H12A 4505   3.225   3.659  10.774
   34POPC  H12B 4506   3.356   3.714  10.673
   34POPC   C13 4507   3.414   3.947  10.817
   34POPC  H13A 4508   3.367   4.018  10.751
   34POPC  H13B 4509   3.448   3.999  10.905
   34POPC  H13C 4510   3.502   3.908  10.768
   34POPC   C14 4511   3.217   3.890  10.929
   34POPC  H14A 4512   3.144   3.812  10.943
   34POPC  H14B 4513   3.261   3.930  11.019
   34POPC  H14C 4514   3.169   3.972  10.877
   34POPC   C15 4515   3.395   3.740  10.946
   34POPC  H15A 4516   3.332   3.658  10.976
   34POPC  H15B 4517   3.427   3.792  11.035
   34POPC  H15C 4518   3.486   3.697  10.906
   34POPC   C11 4519   3.165   3.818  10.649
   34POPC  H11A 4520   3.157   3.754  10.559
   34POPC  H11B 4521   3.187   3.924  10.624
   34POPC     P 4522   2.923   3.916  10.721
   34POPC   O13 4523   2.983   4.045  10.769
   34POPC   O14 4524   2.812   3.869  10.807
   34POPC   O12 4525   3.031   3.804  10.705
   34POPC   O11 4526   2.867   3.925  10.571
   34POPC    C1 4527   2.790   3.811  10.520
   34POPC    HA 4528   2.721   3.776  10.600
   34POPC    HB 4529   2.856   3.722  10.512
   34POPC    C2 4530   2.708   3.844  10.396
   34POPC    HS 4531   2.642   3.757  10.379
   34POPC   O21 4532   2.804   3.867  10.285
   34POPC   C21 4533   2.810   3.766  10.200
   34POPC   O22 4534   2.760   3.656  10.215
   34POPC   C22 4535   2.890   3.806  10.073
   34POPC   H2R 4536   2.991   3.761  10.071
   34POPC   H2S 4537   2.899   3.917  10.075
   34POPC    C3 4538   2.618   3.971  10.410
   34POPC    HX 4539   2.688   4.048  10.451
   34POPC    HY 4540   2.549   3.942  10.492
   34POPC   O31 4541   2.557   4.015  10.290
   34POPC   C31 4542   2.597   4.129  10.232
   34POPC   O32 4543   2.671   4.212  10.283
   34POPC   C32 4544   2.525   4.138  10.099
   34POPC   H2X 4545   2.420   4.108  10.118
   34POPC   H2Y 4546   2.571   4.056  10.039
   34POPC   C23 4547   2.821   3.772   9.941
   34POPC   H3R 4548   2.729   3.834   9.931
   34POPC   H3S 4549   2.791   3.666   9.956
   34POPC   C24 4550   2.907   3.803   9.823
   34POPC   H4R 4551   3.012   3.771   9.841
   34POPC   H4S 4552   2.911   3.912   9.803
   34POPC   C25 4553   2.852   3.717   9.705
   34POPC   H5R 4554   2.747   3.691   9.728
   34POPC   H5S 4555   2.910   3.623   9.703
   34POPC   C26 4556   2.866   3.786   9.574
   34POPC   H6R 4557   2.974   3.807   9.556
   34POPC   H6S 4558   2.826   3.890   9.578
   34POPC   C27 4559   2.802   3.710   9.452
   34POPC   H7R 4560   2.699   3.686   9.487
   34POPC   H7S 4561   2.868   3.621   9.445
   34POPC   C28 4562   2.795   3.784   9.315
   34POPC   H8R 4563   2.896   3.819   9.284
   34POPC   H8S 4564   2.742   3.875   9.348
   34POPC   C29 4565   2.710   3.720   9.203
   34POPC   H91 4566   2.607   3.703   9.238
   34POPC  C210 4567   2.751   3.673   9.086
   34POPC  H101 4568   2.683   3.616   9.022
   34POPC  C211 4569   2.890   3.676   9.031
   34POPC  H11R 4570   2.934   3.574   9.030
   34POPC  H11S 4571   2.958   3.730   9.100
   34POPC  C212 4572   2.884   3.728   8.889
   34POPC  H12R 4573   2.835   3.827   8.890
   34POPC  H12S 4574   2.821   3.656   8.832
   34POPC  C213 4575   3.015   3.745   8.815
   34POPC  H13R 4576   3.038   3.637   8.805
   34POPC  H13S 4577   3.089   3.808   8.868
   34POPC  C214 4578   2.966   3.800   8.680
   34POPC  H14R 4579   3.052   3.850   8.629
   34POPC  H14S 4580   2.875   3.862   8.696
   34POPC  C215 4581   2.919   3.688   8.583
   34POPC  H15R 4582   2.824   3.643   8.618
   34POPC  H15S 4583   3.003   3.617   8.564
   34POPC  C216 4584   2.876   3.743   8.444
   34POPC  H16R 4585   2.961   3.806   8.411
   34POPC  H16S 4586   2.787   3.809   8.455
   34POPC  C217 4587   2.829   3.647   8.343
   34POPC  H17R 4588   2.786   3.701   8.256
   34POPC  H17S 4589   2.746   3.587   8.386
   34POPC  C218 4590   2.935   3.544   8.299
   34POPC  H18R 4591   2.939   3.459   8.371
   34POPC  H18S 4592   3.038   3.577   8.276
   34POPC  H18T 4593   2.898   3.510   8.199
   34POPC   C33 4594   2.543   4.272  10.027
   34POPC   H3X 4595   2.649   4.267   9.993
   34POPC   H3Y 4596   2.540   4.366  10.087
   34POPC   C34 4597   2.464   4.294   9.898
   34POPC   H4X 4598   2.364   4.334   9.926
   34POPC   H4Y 4599   2.448   4.198   9.844
   34POPC   C35 4600   2.528   4.381   9.787
   34POPC   H5X 4601   2.632   4.345   9.773
   34POPC   H5Y 4602   2.515   4.486   9.821
   34POPC   C36 4603   2.447   4.391   9.657
   34POPC   H6X 4604   2.338   4.413   9.664
   34POPC   H6Y 4605   2.461   4.297   9.598
   34POPC   C37 4606   2.515   4.505   9.577
   34POPC   H7X 4607   2.626   4.504   9.574
   34POPC   H7Y 4608   2.481   4.598   9.628
   34POPC   C38 4609   2.438   4.507   9.443
   34POPC   H8X 4610   2.474   4.603   9.402
   34POPC   H8Y 4611   2.331   4.526   9.468
   34POPC   C39 4612   2.451   4.400   9.339
   34POPC   H9X 4613   2.390   4.315   9.378
   34POPC   H9Y 4614   2.551   4.358   9.311
   34POPC  C310 4615   2.382   4.462   9.216
   34POPC  H10X 4616   2.456   4.532   9.171
   34POPC  H10Y 4617   2.287   4.512   9.241
   34POPC  C311 4618   2.335   4.346   9.124
   34POPC  H11X 4619   2.249   4.298   9.176
   34POPC  H11Y 4620   2.421   4.282   9.094
   34POPC  C312 4621   2.266   4.399   8.991
   34POPC  H12X 4622   2.317   4.496   8.975
   34POPC  H12Y 4623   2.157   4.413   9.007
   34POPC  C313 4624   2.283   4.316   8.863
   34POPC  H13X 4625   2.257   4.209   8.874
   34POPC  H13Y 4626   2.391   4.322   8.840
   34POPC  C314 4627   2.187   4.372   8.758
   34POPC  H14X 4628   2.199   4.482   8.751
   34POPC  H14Y 4629   2.081   4.355   8.789
   34POPC  C315 4630   2.216   4.320   8.621
   34POPC  H15X 4631   2.317   4.345   8.582
   34POPC  H15Y 4632   2.152   4.365   8.541
   34POPC  C316 4633   2.206   4.170   8.595
   34POPC  H16X 4634   2.280   4.116   8.657
   34POPC  H16Y 4635   2.230   4.150   8.489
   34POPC  H16Z 4636   2.101   4.134   8.601
   35POPC     N 4637   2.358   1.600  11.422
   35POPC   C12 4638   2.289   1.591  11.289
   35POPC  H12A 4639   2.259   1.694  11.274
   35POPC  H12B 4640   2.201   1.530  11.298
   35POPC   C13 4641   2.283   1.686  11.511
   35POPC  H13A 4642   2.336   1.683  11.605
   35POPC  H13B 4643   2.270   1.789  11.480
   35POPC  H13C 4644   2.184   1.642  11.518
   35POPC   C14 4645   2.374   1.457  11.478
   35POPC  H14A 4646   2.445   1.451  11.560
   35POPC  H14B 4647   2.287   1.397  11.499
   35POPC  H14C 4648   2.414   1.409  11.390
   35POPC   C15 4649   2.496   1.654  11.410
   35POPC  H15A 4650   2.488   1.755  11.370
   35POPC  H15B 4651   2.550   1.597  11.336
   35POPC  H15C 4652   2.543   1.651  11.507
   35POPC   C11 4653   2.369   1.544  11.168
   35POPC  H11A 4654   2.456   1.610  11.150
   35POPC  H11B 4655   2.313   1.561  11.073
   35POPC     P 4656   2.533   1.338  11.166
   35POPC   O13 4657   2.547   1.221  11.258
   35POPC   O14 4658   2.632   1.445  11.178
   35POPC   O12 4659   2.390   1.403  11.187
   35POPC   O11 4660   2.529   1.290  11.015
   35POPC    C1 4661   2.421   1.206  10.967
   35POPC    HA 4662   2.321   1.232  11.008
   35POPC    HB 4663   2.439   1.097  10.969
   35POPC    C2 4664   2.394   1.233  10.816
   35POPC    HS 4665   2.293   1.189  10.798
   35POPC   O21 4666   2.501   1.173  10.737
   35POPC   C21 4667   2.447   1.109  10.630
   35POPC   O22 4668   2.330   1.105  10.598
   35POPC   C22 4669   2.558   1.030  10.565
   35POPC   H2R 4670   2.521   0.948  10.500
   35POPC   H2S 4671   2.627   0.985  10.640
   35POPC    C3 4672   2.387   1.393  10.783
   35POPC    HX 4673   2.485   1.433  10.816
   35POPC    HY 4674   2.316   1.435  10.857
   35POPC   O31 4675   2.359   1.413  10.642
   35POPC   C31 4676   2.229   1.403  10.612
   35POPC   O32 4677   2.142   1.377  10.692
   35POPC   C32 4678   2.211   1.408  10.467
   35POPC   H2X 4679   2.289   1.350  10.414
   35POPC   H2Y 4680   2.212   1.516  10.441
   35POPC   C23 4681   2.640   1.120  10.469
   35POPC   H3R 4682   2.713   1.066  10.406
   35POPC   H3S 4683   2.702   1.187  10.533
   35POPC   C24 4684   2.558   1.211  10.371
   35POPC   H4R 4685   2.637   1.253  10.305
   35POPC   H4S 4686   2.513   1.298  10.422
   35POPC   C25 4687   2.470   1.138  10.268
   35POPC   H5R 4688   2.383   1.095  10.322
   35POPC   H5S 4689   2.515   1.059  10.205
   35POPC   C26 4690   2.404   1.238  10.175
   35POPC   H6R 4691   2.348   1.316  10.232
   35POPC   H6S 4692   2.323   1.189  10.118
   35POPC   C27 4693   2.512   1.288  10.074
   35POPC   H7R 4694   2.602   1.223  10.075
   35POPC   H7S 4695   2.546   1.389  10.107
   35POPC   C28 4696   2.464   1.294   9.929
   35POPC   H8R 4697   2.550   1.339   9.875
   35POPC   H8S 4698   2.377   1.359   9.904
   35POPC   C29 4699   2.439   1.154   9.875
   35POPC   H91 4700   2.438   1.079   9.955
   35POPC  C210 4701   2.431   1.109   9.750
   35POPC  H101 4702   2.406   1.005   9.723
   35POPC  C211 4703   2.413   1.183   9.622
   35POPC  H11R 4704   2.378   1.288   9.635
   35POPC  H11S 4705   2.331   1.139   9.561
   35POPC  C212 4706   2.544   1.192   9.527
   35POPC  H12R 4707   2.607   1.100   9.520
   35POPC  H12S 4708   2.610   1.271   9.567
   35POPC  C213 4709   2.515   1.234   9.384
   35POPC  H13R 4710   2.472   1.336   9.384
   35POPC  H13S 4711   2.432   1.171   9.344
   35POPC  C214 4712   2.633   1.213   9.288
   35POPC  H14R 4713   2.653   1.104   9.276
   35POPC  H14S 4714   2.722   1.251   9.343
   35POPC  C215 4715   2.616   1.286   9.153
   35POPC  H15R 4716   2.613   1.396   9.168
   35POPC  H15S 4717   2.517   1.261   9.109
   35POPC  C216 4718   2.730   1.255   9.057
   35POPC  H16R 4719   2.751   1.148   9.037
   35POPC  H16S 4720   2.828   1.290   9.096
   35POPC  C217 4721   2.705   1.313   8.920
   35POPC  H17R 4722   2.753   1.413   8.926
   35POPC  H17S 4723   2.598   1.307   8.890
   35POPC  C218 4724   2.773   1.243   8.803
   35POPC  H18R 4725   2.755   1.133   8.795
   35POPC  H18S 4726   2.884   1.245   8.810
   35POPC  H18T 4727   2.734   1.278   8.705
   35POPC   C33 4728   2.074   1.352  10.426
   35POPC   H3X 4729   1.998   1.425  10.461
   35POPC   H3Y 4730   2.049   1.256  10.476
   35POPC   C34 4731   2.062   1.320  10.280
   35POPC   H4X 4732   1.964   1.271  10.261
   35POPC   H4Y 4733   2.136   1.240  10.259
   35POPC   C35 4734   2.070   1.439  10.186
   35POPC   H5X 4735   2.169   1.485  10.206
   35POPC   H5Y 4736   1.990   1.514  10.204
   35POPC   C36 4737   2.092   1.403  10.034
   35POPC   H6X 4738   2.190   1.359  10.007
   35POPC   H6Y 4739   2.086   1.499   9.977
   35POPC   C37 4740   1.981   1.301   9.993
   35POPC   H7X 4741   1.882   1.334  10.031
   35POPC   H7Y 4742   1.991   1.195  10.023
   35POPC   C38 4743   1.969   1.287   9.833
   35POPC   H8X 4744   1.960   1.395   9.806
   35POPC   H8Y 4745   1.870   1.241   9.810
   35POPC   C39 4746   2.083   1.217   9.761
   35POPC   H9X 4747   2.096   1.111   9.792
   35POPC   H9Y 4748   2.183   1.260   9.782
   35POPC  C310 4749   2.054   1.222   9.607
   35POPC  H10X 4750   1.952   1.180   9.604
   35POPC  H10Y 4751   2.119   1.148   9.556
   35POPC  C311 4752   2.075   1.360   9.536
   35POPC  H11X 4753   2.132   1.423   9.607
   35POPC  H11Y 4754   1.974   1.401   9.516
   35POPC  C312 4755   2.153   1.364   9.405
   35POPC  H12X 4756   2.089   1.327   9.322
   35POPC  H12Y 4757   2.258   1.329   9.407
   35POPC  C313 4758   2.164   1.507   9.362
   35POPC  H13X 4759   2.198   1.567   9.450
   35POPC  H13Y 4760   2.067   1.553   9.331
   35POPC  C314 4761   2.253   1.523   9.243
   35POPC  H14X 4762   2.194   1.485   9.158
   35POPC  H14Y 4763   2.351   1.477   9.265
   35POPC  C315 4764   2.278   1.673   9.206
   35POPC  H15X 4765   2.334   1.721   9.289
   35POPC  H15Y 4766   2.181   1.722   9.187
   35POPC  C316 4767   2.357   1.670   9.077
   35POPC  H16X 4768   2.289   1.640   8.994
   35POPC  H16Y 4769   2.441   1.601   9.098
   35POPC  H16Z 4770   2.399   1.770   9.053
   36POPC     N 4771   2.142   6.538  11.084
   36POPC   C12 4772   2.227   6.658  11.112
   36POPC  H12A 4773   2.186   6.724  11.186
   36POPC  H12B 4774   2.231   6.717  11.022
   36POPC   C13 4775   2.181   6.463  10.962
   36POPC  H13A 4776   2.276   6.416  10.978
   36POPC  H13B 4777   2.110   6.383  10.949
   36POPC  H13C 4778   2.179   6.525  10.873
   36POPC   C14 4779   2.141   6.439  11.195
   36POPC  H14A 4780   2.121   6.483  11.291
   36POPC  H14B 4781   2.073   6.357  11.176
   36POPC  H14C 4782   2.237   6.392  11.208
   36POPC   C15 4783   2.003   6.596  11.061
   36POPC  H15A 4784   1.970   6.627  11.159
   36POPC  H15B 4785   1.930   6.520  11.038
   36POPC  H15C 4786   1.995   6.678  10.992
   36POPC   C11 4787   2.377   6.632  11.159
   36POPC  H11A 4788   2.376   6.580  11.257
   36POPC  H11B 4789   2.423   6.732  11.172
   36POPC     P 4790   2.528   6.609  10.946
   36POPC   O13 4791   2.605   6.493  10.901
   36POPC   O14 4792   2.608   6.729  10.981
   36POPC   O12 4793   2.446   6.550  11.068
   36POPC   O11 4794   2.424   6.644  10.842
   36POPC    C1 4795   2.467   6.679  10.709
   36POPC    HA 4796   2.531   6.597  10.668
   36POPC    HB 4797   2.515   6.779  10.699
   36POPC    C2 4798   2.344   6.689  10.611
   36POPC    HS 4799   2.286   6.594  10.612
   36POPC   O21 4800   2.396   6.714  10.481
   36POPC   C21 4801   2.431   6.611  10.415
   36POPC   O22 4802   2.413   6.495  10.447
   36POPC   C22 4803   2.490   6.648  10.281
   36POPC   H2R 4804   2.553   6.738  10.294
   36POPC   H2S 4805   2.401   6.678  10.220
   36POPC    C3 4806   2.242   6.805  10.644
   36POPC    HX 4807   2.290   6.899  10.611
   36POPC    HY 4808   2.226   6.817  10.754
   36POPC   O31 4809   2.115   6.800  10.578
   36POPC   C31 4810   2.026   6.731  10.640
   36POPC   O32 4811   2.057   6.653  10.731
   36POPC   C32 4812   1.879   6.752  10.586
   36POPC   H2X 4813   1.873   6.849  10.533
   36POPC   H2Y 4814   1.819   6.763  10.678
   36POPC   C23 4815   2.571   6.533  10.215
   36POPC   H3R 4816   2.509   6.440  10.214
   36POPC   H3S 4817   2.661   6.519  10.278
   36POPC   C24 4818   2.593   6.563  10.070
   36POPC   H4R 4819   2.648   6.659  10.067
   36POPC   H4S 4820   2.502   6.569  10.007
   36POPC   C25 4821   2.675   6.451  10.007
   36POPC   H5R 4822   2.595   6.375   9.998
   36POPC   H5S 4823   2.752   6.419  10.081
   36POPC   C26 4824   2.733   6.475   9.866
   36POPC   H6R 4825   2.830   6.529   9.875
   36POPC   H6S 4826   2.658   6.536   9.811
   36POPC   C27 4827   2.771   6.352   9.793
   36POPC   H7R 4828   2.676   6.300   9.768
   36POPC   H7S 4829   2.834   6.281   9.850
   36POPC   C28 4830   2.832   6.367   9.651
   36POPC   H8R 4831   2.862   6.270   9.606
   36POPC   H8S 4832   2.933   6.413   9.658
   36POPC   C29 4833   2.749   6.452   9.566
   36POPC   H91 4834   2.687   6.528   9.615
   36POPC  C210 4835   2.737   6.440   9.432
   36POPC  H101 4836   2.660   6.499   9.381
   36POPC  C211 4837   2.829   6.364   9.343
   36POPC  H11R 4838   2.770   6.285   9.292
   36POPC  H11S 4839   2.909   6.313   9.401
   36POPC  C212 4840   2.917   6.451   9.244
   36POPC  H12R 4841   2.963   6.544   9.283
   36POPC  H12S 4842   2.839   6.488   9.175
   36POPC  C213 4843   3.017   6.373   9.157
   36POPC  H13R 4844   2.957   6.280   9.154
   36POPC  H13S 4845   3.121   6.364   9.197
   36POPC  C214 4846   3.035   6.429   9.017
   36POPC  H14R 4847   3.067   6.535   9.026
   36POPC  H14S 4848   2.943   6.427   8.955
   36POPC  C215 4849   3.138   6.349   8.929
   36POPC  H15R 4850   3.221   6.336   9.001
   36POPC  H15S 4851   3.176   6.401   8.838
   36POPC  C216 4852   3.073   6.215   8.882
   36POPC  H16R 4853   2.994   6.238   8.807
   36POPC  H16S 4854   3.020   6.164   8.965
   36POPC  C217 4855   3.181   6.111   8.830
   36POPC  H17R 4856   3.143   6.007   8.817
   36POPC  H17S 4857   3.257   6.100   8.911
   36POPC  C218 4858   3.248   6.146   8.699
   36POPC  H18R 4859   3.168   6.153   8.622
   36POPC  H18S 4860   3.322   6.067   8.674
   36POPC  H18T 4861   3.304   6.242   8.698
   36POPC   C33 4862   1.836   6.633  10.501
   36POPC   H3X 4863   1.727   6.653  10.488
   36POPC   H3Y 4864   1.850   6.537  10.554
   36POPC   C34 4865   1.902   6.609  10.366
   36POPC   H4X 4866   1.874   6.507  10.332
   36POPC   H4Y 4867   2.011   6.625  10.380
   36POPC   C35 4868   1.855   6.708  10.255
   36POPC   H5X 4869   1.886   6.808  10.294
   36POPC   H5Y 4870   1.745   6.713  10.241
   36POPC   C36 4871   1.917   6.691  10.115
   36POPC   H6X 4872   1.874   6.599  10.070
   36POPC   H6Y 4873   2.026   6.673  10.124
   36POPC   C37 4874   1.885   6.815  10.027
   36POPC   H7X 4875   1.924   6.907  10.077
   36POPC   H7Y 4876   1.777   6.841  10.014
   36POPC   C38 4877   1.944   6.807   9.889
   36POPC   H8X 4878   1.893   6.720   9.842
   36POPC   H8Y 4879   2.054   6.792   9.883
   36POPC   C39 4880   1.900   6.925   9.789
   36POPC   H9X 4881   1.942   7.026   9.807
   36POPC   H9Y 4882   1.794   6.945   9.816
   36POPC  C310 4883   1.903   6.882   9.642
   36POPC  H10X 4884   1.835   6.796   9.623
   36POPC  H10Y 4885   2.007   6.850   9.618
   36POPC  C311 4886   1.839   6.993   9.559
   36POPC  H11X 4887   1.905   7.080   9.580
   36POPC  H11Y 4888   1.740   7.012   9.605
   36POPC  C312 4889   1.822   6.969   9.407
   36POPC  H12X 4890   1.749   7.043   9.369
   36POPC  H12Y 4891   1.777   6.868   9.396
   36POPC  C313 4892   1.957   6.968   9.329
   36POPC  H13X 4893   2.042   6.925   9.387
   36POPC  H13Y 4894   1.983   7.074   9.309
   36POPC  C314 4895   1.942   6.888   9.195
   36POPC  H14X 4896   2.031   6.900   9.130
   36POPC  H14Y 4897   1.849   6.919   9.144
   36POPC  C315 4898   1.933   6.727   9.205
   36POPC  H15X 4899   1.847   6.691   9.266
   36POPC  H15Y 4900   2.026   6.676   9.238
   36POPC  C316 4901   1.904   6.658   9.068
   36POPC  H16X 4902   1.922   6.549   9.082
   36POPC  H16Y 4903   1.975   6.690   8.989
   36POPC  H16Z 4904   1.801   6.673   9.031
   37POPC     N 4905   1.323   2.597   6.464
   37POPC   C12 4906   1.343   2.583   6.619
   37POPC  H12A 4907   1.382   2.675   6.657
   37POPC  H12B 4908   1.422   2.513   6.639
   37POPC   C13 4909   1.256   2.471   6.412
   37POPC  H13A 4910   1.160   2.453   6.459
   37POPC  H13B 4911   1.243   2.466   6.305
   37POPC  H13C 4912   1.316   2.384   6.436
   37POPC   C14 4913   1.229   2.706   6.444
   37POPC  H14A 4914   1.273   2.798   6.479
   37POPC  H14B 4915   1.209   2.726   6.340
   37POPC  H14C 4916   1.135   2.690   6.495
   37POPC   C15 4917   1.454   2.617   6.392
   37POPC  H15A 4918   1.511   2.526   6.399
   37POPC  H15B 4919   1.511   2.699   6.433
   37POPC  H15C 4920   1.429   2.651   6.292
   37POPC   C11 4921   1.219   2.544   6.700
   37POPC  H11A 4922   1.136   2.616   6.684
   37POPC  H11B 4923   1.234   2.564   6.808
   37POPC     P 4924   1.216   2.284   6.751
   37POPC   O13 4925   1.366   2.291   6.752
   37POPC   O14 4926   1.155   2.171   6.680
   37POPC   O12 4927   1.167   2.413   6.682
   37POPC   O11 4928   1.163   2.296   6.897
   37POPC    C1 4929   1.032   2.285   6.943
   37POPC    HA 4930   0.999   2.180   6.930
   37POPC    HB 4931   0.966   2.355   6.886
   37POPC    C2 4932   1.016   2.312   7.100
   37POPC    HS 4933   0.906   2.321   7.100
   37POPC   O21 4934   1.109   2.413   7.146
   37POPC   C21 4935   1.107   2.531   7.082
   37POPC   O22 4936   1.042   2.570   6.990
   37POPC   C22 4937   1.224   2.613   7.139
   37POPC   H2R 4938   1.176   2.690   7.203
   37POPC   H2S 4939   1.264   2.666   7.050
   37POPC    C3 4940   1.034   2.175   7.176
   37POPC    HX 4941   1.140   2.143   7.164
   37POPC    HY 4942   0.973   2.096   7.127
   37POPC   O31 4943   1.005   2.194   7.321
   37POPC   C31 4944   1.097   2.166   7.405
   37POPC   O32 4945   1.207   2.112   7.382
   37POPC   C32 4946   1.046   2.197   7.548
   37POPC   H2X 4947   1.138   2.189   7.610
   37POPC   H2Y 4948   0.981   2.114   7.582
   37POPC   C23 4949   1.335   2.537   7.216
   37POPC   H3R 4950   1.280   2.463   7.279
   37POPC   H3S 4951   1.387   2.611   7.281
   37POPC   C24 4952   1.426   2.468   7.118
   37POPC   H4R 4953   1.490   2.551   7.080
   37POPC   H4S 4954   1.374   2.432   7.027
   37POPC   C25 4955   1.522   2.360   7.176
   37POPC   H5R 4956   1.603   2.355   7.100
   37POPC   H5S 4957   1.473   2.260   7.168
   37POPC   C26 4958   1.577   2.383   7.317
   37POPC   H6R 4959   1.590   2.489   7.348
   37POPC   H6S 4960   1.676   2.334   7.308
   37POPC   C27 4961   1.497   2.320   7.444
   37POPC   H7R 4962   1.478   2.217   7.406
   37POPC   H7S 4963   1.402   2.370   7.475
   37POPC   C28 4964   1.589   2.297   7.570
   37POPC   H8R 4965   1.666   2.221   7.546
   37POPC   H8S 4966   1.525   2.242   7.642
   37POPC   C29 4967   1.649   2.424   7.627
   37POPC   H91 4968   1.662   2.505   7.554
   37POPC  C210 4969   1.661   2.457   7.754
   37POPC  H101 4970   1.726   2.538   7.791
   37POPC  C211 4971   1.630   2.367   7.865
   37POPC  H11R 4972   1.685   2.271   7.872
   37POPC  H11S 4973   1.523   2.336   7.858
   37POPC  C212 4974   1.637   2.432   8.007
   37POPC  H12R 4975   1.594   2.535   7.997
   37POPC  H12S 4976   1.744   2.443   8.033
   37POPC  C213 4977   1.587   2.356   8.131
   37POPC  H13R 4978   1.652   2.270   8.158
   37POPC  H13S 4979   1.488   2.311   8.109
   37POPC  C214 4980   1.550   2.447   8.246
   37POPC  H14R 4981   1.509   2.379   8.324
   37POPC  H14S 4982   1.477   2.522   8.208
   37POPC  C215 4983   1.669   2.534   8.302
   37POPC  H15R 4984   1.704   2.598   8.219
   37POPC  H15S 4985   1.753   2.464   8.320
   37POPC  C216 4986   1.628   2.611   8.425
   37POPC  H16R 4987   1.556   2.551   8.486
   37POPC  H16S 4988   1.575   2.705   8.397
   37POPC  C217 4989   1.744   2.650   8.511
   37POPC  H17R 4990   1.823   2.710   8.462
   37POPC  H17S 4991   1.792   2.555   8.544
   37POPC  C218 4992   1.700   2.727   8.632
   37POPC  H18R 4993   1.778   2.747   8.708
   37POPC  H18S 4994   1.609   2.693   8.686
   37POPC  H18T 4995   1.675   2.829   8.595
   37POPC   C33 4996   0.985   2.332   7.559
   37POPC   H3X 4997   0.949   2.347   7.663
   37POPC   H3Y 4998   0.891   2.337   7.500
   37POPC   C34 4999   1.094   2.438   7.538
   37POPC   H4X 5000   1.134   2.435   7.435
   37POPC   H4Y 5001   1.176   2.413   7.608
   37POPC   C35 5002   1.036   2.579   7.566
   37POPC   H5X 5003   0.985   2.590   7.665
   37POPC   H5Y 5004   0.960   2.602   7.489
   37POPC   C36 5005   1.143   2.694   7.553
   37POPC   H6X 5006   1.211   2.685   7.466
   37POPC   H6Y 5007   1.212   2.683   7.639
   37POPC   C37 5008   1.081   2.836   7.556
   37POPC   H7X 5009   1.051   2.849   7.663
   37POPC   H7Y 5010   0.985   2.840   7.499
   37POPC   C38 5011   1.171   2.953   7.530
   37POPC   H8X 5012   1.272   2.940   7.575
   37POPC   H8Y 5013   1.139   3.048   7.578
   37POPC   C39 5014   1.189   2.975   7.375
   37POPC   H9X 5015   1.224   2.881   7.328
   37POPC   H9Y 5016   1.276   3.040   7.354
   37POPC  C310 5017   1.060   3.024   7.302
   37POPC  H10X 5018   1.017   3.110   7.358
   37POPC  H10Y 5019   0.986   2.941   7.306
   37POPC  C311 5020   1.089   3.060   7.155
   37POPC  H11X 5021   1.107   2.966   7.099
   37POPC  H11Y 5022   1.171   3.134   7.142
   37POPC  C312 5023   0.966   3.112   7.080
   37POPC  H12X 5024   0.986   3.106   6.971
   37POPC  H12Y 5025   0.926   3.210   7.114
   37POPC  C313 5026   0.848   3.012   7.087
   37POPC  H13X 5027   0.887   2.908   7.095
   37POPC  H13Y 5028   0.784   3.012   6.996
   37POPC  C314 5029   0.746   3.058   7.193
   37POPC  H14X 5030   0.705   3.160   7.181
   37POPC  H14Y 5031   0.788   3.061   7.296
   37POPC  C315 5032   0.627   2.958   7.207
   37POPC  H15X 5033   0.675   2.869   7.252
   37POPC  H15Y 5034   0.590   2.934   7.105
   37POPC  C316 5035   0.515   3.006   7.295
   37POPC  H16X 5036   0.498   2.938   7.381
   37POPC  H16Y 5037   0.416   3.016   7.246
   37POPC  H16Z 5038   0.529   3.109   7.334
   38POPC     N 5039   3.528   6.074   6.269
   38POPC   C12 5040   3.530   6.041   6.418
   38POPC  H12A 5041   3.589   6.108   6.479
   38POPC  H12B 5042   3.570   5.942   6.432
   38POPC   C13 5043   3.665   6.095   6.220
   38POPC  H13A 5044   3.697   6.197   6.237
   38POPC  H13B 5045   3.732   6.031   6.275
   38POPC  H13C 5046   3.679   6.094   6.113
   38POPC   C14 5047   3.469   5.959   6.185
   38POPC  H14A 5048   3.372   5.941   6.230
   38POPC  H14B 5049   3.475   5.975   6.079
   38POPC  H14C 5050   3.528   5.869   6.199
   38POPC   C15 5051   3.446   6.199   6.237
   38POPC  H15A 5052   3.348   6.193   6.282
   38POPC  H15B 5053   3.429   6.211   6.132
   38POPC  H15C 5054   3.495   6.288   6.272
   38POPC   C11 5055   3.391   6.041   6.500
   38POPC  H11A 5056   3.370   6.149   6.507
   38POPC  H11B 5057   3.404   6.008   6.605
   38POPC     P 5058   3.141   6.016   6.422
   38POPC   O13 5059   3.083   5.929   6.321
   38POPC   O14 5060   3.139   6.163   6.396
   38POPC   O12 5061   3.291   5.976   6.425
   38POPC   O11 5062   3.097   5.982   6.578
   38POPC    C1 5063   3.095   5.843   6.610
   38POPC    HA 5064   3.088   5.829   6.720
   38POPC    HB 5065   3.185   5.784   6.581
   38POPC    C2 5066   2.958   5.778   6.565
   38POPC    HS 5067   2.931   5.811   6.462
   38POPC   O21 5068   2.857   5.817   6.660
   38POPC   C21 5069   2.736   5.795   6.617
   38POPC   O22 5070   2.695   5.749   6.513
   38POPC   C22 5071   2.636   5.824   6.730
   38POPC   H2R 5072   2.585   5.727   6.747
   38POPC   H2S 5073   2.544   5.875   6.693
   38POPC    C3 5074   2.966   5.621   6.563
   38POPC    HX 5075   3.036   5.604   6.478
   38POPC    HY 5076   2.870   5.572   6.538
   38POPC   O31 5077   3.016   5.560   6.682
   38POPC   C31 5078   2.937   5.541   6.786
   38POPC   O32 5079   2.813   5.550   6.788
   38POPC   C32 5080   3.025   5.507   6.907
   38POPC   H2X 5081   3.125   5.556   6.900
   38POPC   H2Y 5082   3.044   5.398   6.910
   38POPC   C23 5083   2.682   5.890   6.864
   38POPC   H3R 5084   2.696   6.000   6.858
   38POPC   H3S 5085   2.782   5.848   6.889
   38POPC   C24 5086   2.577   5.868   6.971
   38POPC   H4R 5087   2.596   5.771   7.022
   38POPC   H4S 5088   2.479   5.884   6.921
   38POPC   C25 5089   2.587   5.964   7.090
   38POPC   H5R 5090   2.496   5.938   7.149
   38POPC   H5S 5091   2.574   6.072   7.069
   38POPC   C26 5092   2.712   5.927   7.180
   38POPC   H6R 5093   2.804   5.959   7.126
   38POPC   H6S 5094   2.719   5.816   7.176
   38POPC   C27 5095   2.703   5.985   7.324
   38POPC   H7R 5096   2.598   5.966   7.355
   38POPC   H7S 5097   2.720   6.094   7.327
   38POPC   C28 5098   2.790   5.929   7.430
   38POPC   H8R 5099   2.842   6.010   7.485
   38POPC   H8S 5100   2.874   5.877   7.378
   38POPC   C29 5101   2.728   5.821   7.520
   38POPC   H91 5102   2.736   5.721   7.473
   38POPC  C210 5103   2.691   5.836   7.650
   38POPC  H101 5104   2.660   5.745   7.703
   38POPC  C211 5105   2.682   5.966   7.726
   38POPC  H11R 5106   2.582   5.978   7.773
   38POPC  H11S 5107   2.698   6.055   7.662
   38POPC  C212 5108   2.790   5.967   7.834
   38POPC  H12R 5109   2.890   5.954   7.787
   38POPC  H12S 5110   2.767   5.879   7.897
   38POPC  C213 5111   2.785   6.098   7.918
   38POPC  H13R 5112   2.684   6.112   7.963
   38POPC  H13S 5113   2.823   6.186   7.863
   38POPC  C214 5114   2.876   6.079   8.042
   38POPC  H14R 5115   2.971   6.043   7.997
   38POPC  H14S 5116   2.818   6.001   8.096
   38POPC  C215 5117   2.892   6.204   8.136
   38POPC  H15R 5118   2.847   6.297   8.095
   38POPC  H15S 5119   3.002   6.215   8.148
   38POPC  C216 5120   2.840   6.165   8.280
   38POPC  H16R 5121   2.865   6.059   8.298
   38POPC  H16S 5122   2.730   6.148   8.273
   38POPC  C217 5123   2.885   6.242   8.396
   38POPC  H17R 5124   2.831   6.339   8.397
   38POPC  H17S 5125   2.993   6.259   8.373
   38POPC  C218 5126   2.866   6.163   8.526
   38POPC  H18R 5127   2.812   6.221   8.604
   38POPC  H18S 5128   2.959   6.142   8.582
   38POPC  H18T 5129   2.818   6.063   8.520
   38POPC   C33 5130   2.964   5.546   7.044
   38POPC   H3X 5131   2.878   5.476   7.056
   38POPC   H3Y 5132   2.930   5.652   7.049
   38POPC   C34 5133   3.062   5.534   7.151
   38POPC   H4X 5134   3.161   5.584   7.144
   38POPC   H4Y 5135   3.095   5.428   7.143
   38POPC   C35 5136   3.005   5.553   7.292
   38POPC   H5X 5137   2.929   5.480   7.329
   38POPC   H5Y 5138   2.946   5.646   7.305
   38POPC   C36 5139   3.123   5.556   7.396
   38POPC   H6X 5140   3.202   5.622   7.356
   38POPC   H6Y 5141   3.177   5.459   7.405
   38POPC   C37 5142   3.067   5.599   7.533
   38POPC   H7X 5143   3.017   5.515   7.585
   38POPC   H7Y 5144   2.998   5.684   7.512
   38POPC   C38 5145   3.175   5.632   7.638
   38POPC   H8X 5146   3.236   5.714   7.595
   38POPC   H8Y 5147   3.240   5.542   7.647
   38POPC   C39 5148   3.114   5.671   7.776
   38POPC   H9X 5149   3.071   5.772   7.756
   38POPC   H9Y 5150   3.195   5.690   7.849
   38POPC  C310 5151   3.016   5.571   7.840
   38POPC  H10X 5152   3.056   5.467   7.837
   38POPC  H10Y 5153   2.923   5.573   7.780
   38POPC  C311 5154   2.976   5.612   7.981
   38POPC  H11X 5155   2.920   5.707   7.972
   38POPC  H11Y 5156   3.071   5.631   8.037
   38POPC  C312 5157   2.898   5.513   8.064
   38POPC  H12X 5158   2.810   5.482   8.004
   38POPC  H12Y 5159   2.865   5.579   8.147
   38POPC  C313 5160   2.974   5.388   8.113
   38POPC  H13X 5161   3.018   5.335   8.026
   38POPC  H13Y 5162   2.897   5.327   8.166
   38POPC  C314 5163   3.081   5.422   8.219
   38POPC  H14X 5164   3.042   5.511   8.272
   38POPC  H14Y 5165   3.175   5.450   8.166
   38POPC  C315 5166   3.122   5.313   8.314
   38POPC  H15X 5167   3.166   5.225   8.262
   38POPC  H15Y 5168   3.035   5.280   8.375
   38POPC  C316 5169   3.230   5.364   8.408
   38POPC  H16X 5170   3.320   5.401   8.354
   38POPC  H16Y 5171   3.263   5.297   8.491
   38POPC  H16Z 5172   3.183   5.447   8.465
   39POPC     N 5173   6.200   3.494   5.886
   39POPC   C12 5174   6.087   3.400   5.905
   39POPC  H12A 5175   6.014   3.425   5.828
   39POPC  H12B 5176   6.037   3.409   6.000
   39POPC   C13 5177   6.308   3.468   5.983
   39POPC  H13A 5178   6.387   3.541   5.986
   39POPC  H13B 5179   6.271   3.457   6.085
   39POPC  H13C 5180   6.357   3.374   5.962
   39POPC   C14 5181   6.245   3.490   5.745
   39POPC  H14A 5182   6.157   3.500   5.683
   39POPC  H14B 5183   6.304   3.580   5.741
   39POPC  H14C 5184   6.299   3.398   5.728
   39POPC   C15 5185   6.150   3.635   5.906
   39POPC  H15A 5186   6.083   3.646   5.991
   39POPC  H15B 5187   6.079   3.653   5.827
   39POPC  H15C 5188   6.235   3.700   5.898
   39POPC   C11 5189   6.117   3.245   5.894
   39POPC  H11A 5190   6.159   3.219   5.794
   39POPC  H11B 5191   6.020   3.190   5.892
   39POPC     P 5192   6.164   3.161   6.135
   39POPC   O13 5193   6.233   3.036   6.175
   39POPC   O14 5194   6.015   3.170   6.147
   39POPC   O12 5195   6.212   3.203   5.995
   39POPC   O11 5196   6.222   3.270   6.231
   39POPC    C1 5197   6.356   3.279   6.266
   39POPC    HA 5198   6.390   3.383   6.247
   39POPC    HB 5199   6.424   3.215   6.205
   39POPC    C2 5200   6.383   3.258   6.417
   39POPC    HS 5201   6.366   3.151   6.439
   39POPC   O21 5202   6.293   3.345   6.486
   39POPC   C21 5203   6.250   3.296   6.593
   39POPC   O22 5204   6.299   3.207   6.661
   39POPC   C22 5205   6.118   3.378   6.641
   39POPC   H2R 5206   6.048   3.384   6.555
   39POPC   H2S 5207   6.154   3.480   6.668
   39POPC    C3 5208   6.531   3.299   6.450
   39POPC    HX 5209   6.557   3.403   6.420
   39POPC    HY 5210   6.600   3.231   6.394
   39POPC   O31 5211   6.555   3.297   6.588
   39POPC   C31 5212   6.597   3.192   6.648
   39POPC   O32 5213   6.626   3.090   6.588
   39POPC   C32 5214   6.609   3.199   6.799
   39POPC   H2X 5215   6.708   3.246   6.816
   39POPC   H2Y 5216   6.535   3.273   6.837
   39POPC   C23 5217   6.054   3.327   6.773
   39POPC   H3R 5218   6.135   3.318   6.849
   39POPC   H3S 5219   6.014   3.224   6.764
   39POPC   C24 5220   5.953   3.420   6.842
   39POPC   H4R 5221   5.850   3.429   6.801
   39POPC   H4S 5222   6.002   3.520   6.839
   39POPC   C25 5223   5.935   3.389   6.989
   39POPC   H5R 5224   6.036   3.380   7.033
   39POPC   H5S 5225   5.879   3.294   7.000
   39POPC   C26 5226   5.844   3.496   7.061
   39POPC   H6R 5227   5.738   3.483   7.030
   39POPC   H6S 5228   5.872   3.594   7.018
   39POPC   C27 5229   5.851   3.481   7.214
   39POPC   H7R 5230   5.834   3.582   7.257
   39POPC   H7S 5231   5.954   3.443   7.232
   39POPC   C28 5232   5.762   3.377   7.278
   39POPC   H8R 5233   5.789   3.373   7.386
   39POPC   H8S 5234   5.789   3.277   7.238
   39POPC   C29 5235   5.618   3.414   7.257
   39POPC   H91 5236   5.579   3.410   7.154
   39POPC  C210 5237   5.545   3.471   7.355
   39POPC  H101 5238   5.437   3.477   7.335
   39POPC  C211 5239   5.580   3.489   7.499
   39POPC  H11R 5240   5.528   3.578   7.540
   39POPC  H11S 5241   5.686   3.517   7.514
   39POPC  C212 5242   5.535   3.390   7.606
   39POPC  H12R 5243   5.582   3.291   7.585
   39POPC  H12S 5244   5.431   3.358   7.582
   39POPC  C213 5245   5.539   3.440   7.751
   39POPC  H13R 5246   5.482   3.535   7.760
   39POPC  H13S 5247   5.642   3.466   7.781
   39POPC  C214 5248   5.482   3.339   7.851
   39POPC  H14R 5249   5.544   3.249   7.872
   39POPC  H14S 5250   5.391   3.284   7.821
   39POPC  C215 5251   5.461   3.403   7.983
   39POPC  H15R 5252   5.396   3.494   7.985
   39POPC  H15S 5253   5.558   3.448   8.017
   39POPC  C216 5254   5.413   3.308   8.089
   39POPC  H16R 5255   5.482   3.221   8.094
   39POPC  H16S 5256   5.321   3.260   8.049
   39POPC  C217 5257   5.394   3.373   8.220
   39POPC  H17R 5258   5.312   3.326   8.279
   39POPC  H17S 5259   5.356   3.477   8.211
   39POPC  C218 5260   5.522   3.362   8.308
   39POPC  H18R 5261   5.510   3.418   8.403
   39POPC  H18S 5262   5.608   3.405   8.252
   39POPC  H18T 5263   5.543   3.255   8.327
   39POPC   C33 5264   6.568   3.079   6.879
   39POPC   H3X 5265   6.643   2.998   6.868
   39POPC   H3Y 5266   6.463   3.047   6.861
   39POPC   C34 5267   6.550   3.116   7.032
   39POPC   H4X 5268   6.474   3.197   7.037
   39POPC   H4Y 5269   6.637   3.168   7.076
   39POPC   C35 5270   6.502   3.001   7.119
   39POPC   H5X 5271   6.580   2.923   7.122
   39POPC   H5Y 5272   6.417   2.949   7.070
   39POPC   C36 5273   6.465   3.057   7.261
   39POPC   H6X 5274   6.387   3.134   7.240
   39POPC   H6Y 5275   6.560   3.097   7.302
   39POPC   C37 5276   6.423   2.963   7.376
   39POPC   H7X 5277   6.508   2.894   7.392
   39POPC   H7Y 5278   6.333   2.904   7.347
   39POPC   C38 5279   6.387   3.029   7.511
   39POPC   H8X 5280   6.303   3.101   7.507
   39POPC   H8Y 5281   6.479   3.085   7.538
   39POPC   C39 5282   6.362   2.926   7.625
   39POPC   H9X 5283   6.448   2.856   7.626
   39POPC   H9Y 5284   6.264   2.876   7.609
   39POPC  C310 5285   6.353   2.993   7.766
   39POPC  H10X 5286   6.258   3.052   7.763
   39POPC  H10Y 5287   6.442   3.054   7.790
   39POPC  C311 5288   6.357   2.895   7.885
   39POPC  H11X 5289   6.461   2.871   7.917
   39POPC  H11Y 5290   6.305   2.801   7.857
   39POPC  C312 5291   6.278   2.954   8.003
   39POPC  H12X 5292   6.172   2.976   7.976
   39POPC  H12Y 5293   6.320   3.052   8.034
   39POPC  C313 5294   6.277   2.882   8.137
   39POPC  H13X 5295   6.379   2.876   8.182
   39POPC  H13Y 5296   6.231   2.782   8.126
   39POPC  C314 5297   6.185   2.946   8.244
   39POPC  H14X 5298   6.100   2.997   8.193
   39POPC  H14Y 5299   6.251   3.019   8.296
   39POPC  C315 5300   6.130   2.856   8.355
   39POPC  H15X 5301   6.092   2.912   8.443
   39POPC  H15Y 5302   6.212   2.791   8.392
   39POPC  C316 5303   6.013   2.764   8.320
   39POPC  H16X 5304   6.047   2.679   8.257
   39POPC  H16Y 5305   5.933   2.817   8.264
   39POPC  H16Z 5306   5.977   2.723   8.417
   40POPC     N 5307   5.023   0.528   6.102
   40POPC   C12 5308   5.062   0.514   6.251
   40POPC  H12A 5309   4.976   0.483   6.309
   40POPC  H12B 5310   5.080   0.616   6.282
   40POPC   C13 5311   5.136   0.585   6.019
   40POPC  H13A 5312   5.226   0.525   6.022
   40POPC  H13B 5313   5.106   0.597   5.916
   40POPC  H13C 5314   5.156   0.685   6.055
   40POPC   C14 5315   4.998   0.392   6.039
   40POPC  H14A 5316   4.921   0.339   6.092
   40POPC  H14B 5317   4.990   0.403   5.932
   40POPC  H14C 5318   5.089   0.335   6.046
   40POPC   C15 5319   4.907   0.615   6.089
   40POPC  H15A 5320   4.924   0.718   6.115
   40POPC  H15B 5321   4.822   0.581   6.147
   40POPC  H15C 5322   4.869   0.622   5.988
   40POPC   C11 5323   5.181   0.425   6.287
   40POPC  H11A 5324   5.180   0.338   6.218
   40POPC  H11B 5325   5.172   0.385   6.391
   40POPC     P 5326   5.359   0.598   6.372
   40POPC   O13 5327   5.408   0.719   6.306
   40POPC   O14 5328   5.454   0.524   6.452
   40POPC   O12 5329   5.299   0.497   6.264
   40POPC   O11 5330   5.234   0.644   6.465
   40POPC    C1 5331   5.216   0.774   6.519
   40POPC    HA 5332   5.108   0.794   6.539
   40POPC    HB 5333   5.244   0.845   6.438
   40POPC    C2 5334   5.301   0.797   6.643
   40POPC    HS 5335   5.405   0.760   6.629
   40POPC   O21 5336   5.225   0.751   6.756
   40POPC   C21 5337   5.295   0.673   6.840
   40POPC   O22 5338   5.406   0.628   6.820
   40POPC   C22 5339   5.220   0.672   6.967
   40POPC   H2R 5340   5.250   0.598   7.044
   40POPC   H2S 5341   5.114   0.647   6.946
   40POPC    C3 5342   5.328   0.950   6.666
   40POPC    HX 5343   5.231   0.986   6.706
   40POPC    HY 5344   5.347   1.007   6.572
   40POPC   O31 5345   5.417   0.983   6.770
   40POPC   C31 5346   5.533   1.036   6.733
   40POPC   O32 5347   5.580   1.034   6.620
   40POPC   C32 5348   5.614   1.078   6.857
   40POPC   H2X 5349   5.558   1.163   6.902
   40POPC   H2Y 5350   5.712   1.115   6.818
   40POPC   C23 5351   5.221   0.805   7.045
   40POPC   H3R 5352   5.123   0.840   7.083
   40POPC   H3S 5353   5.267   0.888   6.987
   40POPC   C24 5354   5.313   0.798   7.164
   40POPC   H4R 5355   5.340   0.901   7.196
   40POPC   H4S 5356   5.410   0.743   7.159
   40POPC   C25 5357   5.234   0.741   7.289
   40POPC   H5R 5358   5.196   0.641   7.257
   40POPC   H5S 5359   5.147   0.811   7.296
   40POPC   C26 5360   5.301   0.730   7.426
   40POPC   H6R 5361   5.344   0.831   7.445
   40POPC   H6S 5362   5.387   0.661   7.429
   40POPC   C27 5363   5.210   0.696   7.540
   40POPC   H7R 5364   5.193   0.588   7.556
   40POPC   H7S 5365   5.107   0.732   7.521
   40POPC   C28 5366   5.246   0.762   7.674
   40POPC   H8R 5367   5.250   0.873   7.667
   40POPC   H8S 5368   5.354   0.739   7.684
   40POPC   C29 5369   5.155   0.725   7.789
   40POPC   H91 5370   5.051   0.760   7.792
   40POPC  C210 5371   5.199   0.638   7.884
   40POPC  H101 5372   5.126   0.617   7.964
   40POPC  C211 5373   5.332   0.579   7.895
   40POPC  H11R 5374   5.413   0.634   7.844
   40POPC  H11S 5375   5.328   0.482   7.842
   40POPC  C212 5376   5.374   0.561   8.044
   40POPC  H12R 5377   5.316   0.474   8.085
   40POPC  H12S 5378   5.341   0.643   8.111
   40POPC  C213 5379   5.524   0.534   8.069
   40POPC  H13R 5380   5.589   0.623   8.065
   40POPC  H13S 5381   5.553   0.460   7.991
   40POPC  C214 5382   5.548   0.473   8.206
   40POPC  H14R 5383   5.657   0.469   8.227
   40POPC  H14S 5384   5.506   0.370   8.205
   40POPC  C215 5385   5.483   0.546   8.320
   40POPC  H15R 5386   5.455   0.471   8.399
   40POPC  H15S 5387   5.380   0.574   8.289
   40POPC  C216 5388   5.572   0.657   8.380
   40POPC  H16R 5389   5.592   0.741   8.312
   40POPC  H16S 5390   5.672   0.619   8.409
   40POPC  C217 5391   5.505   0.718   8.501
   40POPC  H17R 5392   5.516   0.649   8.587
   40POPC  H17S 5393   5.394   0.716   8.493
   40POPC  C218 5394   5.545   0.863   8.535
   40POPC  H18R 5395   5.492   0.932   8.466
   40POPC  H18S 5396   5.652   0.892   8.525
   40POPC  H18T 5397   5.510   0.894   8.636
   40POPC   C33 5398   5.633   0.971   6.967
   40POPC   H3X 5399   5.728   0.916   6.952
   40POPC   H3Y 5400   5.545   0.904   6.975
   40POPC   C34 5401   5.646   1.026   7.115
   40POPC   H4X 5402   5.551   1.059   7.163
   40POPC   H4Y 5403   5.712   1.115   7.111
   40POPC   C35 5404   5.713   0.918   7.210
   40POPC   H5X 5405   5.811   0.885   7.171
   40POPC   H5Y 5406   5.650   0.826   7.208
   40POPC   C36 5407   5.720   0.955   7.358
   40POPC   H6X 5408   5.630   1.018   7.374
   40POPC   H6Y 5409   5.813   1.005   7.392
   40POPC   C37 5410   5.703   0.836   7.452
   40POPC   H7X 5411   5.781   0.759   7.433
   40POPC   H7Y 5412   5.605   0.787   7.430
   40POPC   C38 5413   5.708   0.878   7.599
   40POPC   H8X 5414   5.622   0.943   7.622
   40POPC   H8Y 5415   5.802   0.930   7.625
   40POPC   C39 5416   5.674   0.755   7.691
   40POPC   H9X 5417   5.738   0.675   7.649
   40POPC   H9Y 5418   5.569   0.724   7.668
   40POPC  C310 5419   5.702   0.792   7.836
   40POPC  H10X 5420   5.811   0.812   7.846
   40POPC  H10Y 5421   5.693   0.701   7.899
   40POPC  C311 5422   5.618   0.902   7.890
   40POPC  H11X 5423   5.509   0.878   7.883
   40POPC  H11Y 5424   5.630   0.990   7.823
   40POPC  C312 5425   5.648   0.945   8.038
   40POPC  H12X 5426   5.750   0.987   8.039
   40POPC  H12Y 5427   5.644   0.855   8.104
   40POPC  C313 5428   5.545   1.047   8.093
   40POPC  H13X 5429   5.438   1.020   8.100
   40POPC  H13Y 5430   5.536   1.139   8.031
   40POPC  C314 5431   5.574   1.100   8.230
   40POPC  H14X 5432   5.674   1.146   8.239
   40POPC  H14Y 5433   5.561   1.024   8.311
   40POPC  C315 5434   5.467   1.212   8.270
   40POPC  H15X 5435   5.368   1.162   8.268
   40POPC  H15Y 5436   5.453   1.287   8.189
   40POPC  C316 5437   5.494   1.264   8.404
   40POPC  H16X 5438   5.408   1.324   8.441
   40POPC  H16Y 5439   5.593   1.316   8.405
   40POPC  H16Z 5440   5.511   1.180   8.475
   41CHL1    C3 5441   4.234   3.810  10.111
   41CHL1    H3 5442   4.342   3.795  10.090
   41CHL1    O3 5443   4.229   3.756  10.244
   41CHL1   H3' 5444   4.144   3.777  10.283
   41CHL1    C4 5445   4.203   3.958  10.116
   41CHL1   H4A 5446   4.101   3.983  10.152
   41CHL1   H4B 5447   4.276   4.009  10.183
   41CHL1    C5 5448   4.220   4.026   9.978
   41CHL1    C6 5449   4.310   4.123   9.957
   41CHL1    H6 5450   4.355   4.169  10.045
   41CHL1    C7 5451   4.332   4.191   9.823
   41CHL1   H7A 5452   4.325   4.302   9.834
   41CHL1   H7B 5453   4.433   4.158   9.789
   41CHL1    C8 5454   4.229   4.153   9.715
   41CHL1    H8 5455   4.136   4.213   9.732
   41CHL1   C14 5456   4.281   4.181   9.572
   41CHL1   H14 5457   4.367   4.112   9.559
   41CHL1   C15 5458   4.339   4.324   9.530
   41CHL1  H15A 5459   4.292   4.411   9.581
   41CHL1  H15B 5460   4.445   4.310   9.558
   41CHL1   C16 5461   4.324   4.335   9.376
   41CHL1  H16A 5462   4.255   4.418   9.350
   41CHL1  H16B 5463   4.422   4.347   9.325
   41CHL1   C17 5464   4.258   4.199   9.336
   41CHL1   H17 5465   4.341   4.126   9.327
   41CHL1   C13 5466   4.179   4.144   9.456
   41CHL1   C18 5467   4.048   4.229   9.469
   41CHL1  H18A 5468   4.005   4.204   9.568
   41CHL1  H18B 5469   4.084   4.335   9.469
   41CHL1  H18C 5470   3.969   4.210   9.393
   41CHL1   C12 5471   4.141   3.996   9.459
   41CHL1  H12A 5472   4.057   3.972   9.390
   41CHL1  H12B 5473   4.232   3.935   9.441
   41CHL1   C11 5474   4.099   3.952   9.604
   41CHL1  H11A 5475   3.998   3.992   9.628
   41CHL1  H11B 5476   4.097   3.841   9.603
   41CHL1    C9 5477   4.197   4.001   9.718
   41CHL1    H9 5478   4.290   3.944   9.695
   41CHL1   C10 5479   4.151   3.955   9.860
   41CHL1   C19 5480   4.000   3.985   9.881
   41CHL1  H19A 5481   3.985   4.093   9.858
   41CHL1  H19B 5482   3.937   3.917   9.819
   41CHL1  H19C 5483   3.971   3.961   9.985
   41CHL1    C1 5484   4.182   3.805   9.871
   41CHL1   H1A 5485   4.120   3.753   9.795
   41CHL1   H1B 5486   4.292   3.787   9.866
   41CHL1    C2 5487   4.144   3.740  10.009
   41CHL1   H2A 5488   4.174   3.633  10.007
   41CHL1   H2B 5489   4.036   3.738  10.032
   41CHL1   C20 5490   4.192   4.209   9.198
   41CHL1   H20 5491   4.095   4.260   9.214
   41CHL1   C21 5492   4.182   4.074   9.132
   41CHL1  H21A 5493   4.285   4.040   9.110
   41CHL1  H21B 5494   4.116   4.089   9.044
   41CHL1  H21C 5495   4.142   3.996   9.201
   41CHL1   C22 5496   4.249   4.312   9.099
   41CHL1  H22A 5497   4.199   4.318   9.000
   41CHL1  H22B 5498   4.249   4.411   9.149
   41CHL1   C23 5499   4.391   4.278   9.041
   41CHL1  H23A 5500   4.435   4.379   9.027
   41CHL1  H23B 5501   4.458   4.225   9.113
   41CHL1   C24 5502   4.393   4.204   8.905
   41CHL1  H24A 5503   4.328   4.114   8.911
   41CHL1  H24B 5504   4.337   4.263   8.830
   41CHL1   C25 5505   4.534   4.189   8.846
   41CHL1   H25 5506   4.594   4.134   8.922
   41CHL1   C26 5507   4.522   4.110   8.715
   41CHL1  H26A 5508   4.455   4.166   8.646
   41CHL1  H26B 5509   4.622   4.100   8.667
   41CHL1  H26C 5510   4.476   4.010   8.731
   41CHL1   C27 5511   4.605   4.328   8.824
   41CHL1  H27A 5512   4.619   4.381   8.920
   41CHL1  H27B 5513   4.701   4.303   8.775
   41CHL1  H27C 5514   4.548   4.388   8.750
   42CHL1    C3 5515   3.804   3.482   9.781
   42CHL1    H3 5516   3.840   3.384   9.745
   42CHL1    O3 5517   3.791   3.479   9.920
   42CHL1   H3' 5518   3.751   3.565   9.934
   42CHL1    C4 5519   3.902   3.587   9.737
   42CHL1   H4A 5520   3.884   3.685   9.787
   42CHL1   H4B 5521   3.993   3.538   9.777
   42CHL1    C5 5522   3.908   3.602   9.585
   42CHL1    C6 5523   4.031   3.587   9.528
   42CHL1    H6 5524   4.120   3.572   9.592
   42CHL1    C7 5525   4.057   3.603   9.380
   42CHL1   H7A 5526   4.142   3.666   9.349
   42CHL1   H7B 5527   4.078   3.505   9.334
   42CHL1    C8 5528   3.933   3.664   9.308
   42CHL1    H8 5529   3.940   3.772   9.333
   42CHL1   C14 5530   3.937   3.650   9.157
   42CHL1   H14 5531   3.913   3.543   9.135
   42CHL1   C15 5532   4.061   3.692   9.074
   42CHL1  H15A 5533   4.097   3.792   9.106
   42CHL1  H15B 5534   4.149   3.624   9.072
   42CHL1   C16 5535   4.011   3.702   8.926
   42CHL1  H16A 5536   4.031   3.801   8.879
   42CHL1  H16B 5537   4.063   3.619   8.873
   42CHL1   C17 5538   3.856   3.673   8.932
   42CHL1   H17 5539   3.833   3.565   8.925
   42CHL1   C13 5540   3.823   3.712   9.081
   42CHL1   C18 5541   3.826   3.865   9.095
   42CHL1  H18A 5542   3.739   3.918   9.051
   42CHL1  H18B 5543   3.837   3.892   9.202
   42CHL1  H18C 5544   3.906   3.915   9.037
   42CHL1   C12 5545   3.698   3.637   9.128
   42CHL1  H12A 5546   3.604   3.662   9.074
   42CHL1  H12B 5547   3.715   3.528   9.114
   42CHL1   C11 5548   3.679   3.663   9.281
   42CHL1  H11A 5549   3.677   3.773   9.294
   42CHL1  H11B 5550   3.582   3.610   9.298
   42CHL1    C9 5551   3.803   3.609   9.362
   42CHL1    H9 5552   3.810   3.499   9.350
   42CHL1   C10 5553   3.774   3.624   9.512
   42CHL1   C19 5554   3.738   3.770   9.539
   42CHL1  H19A 5555   3.635   3.792   9.504
   42CHL1  H19B 5556   3.742   3.800   9.646
   42CHL1  H19C 5557   3.808   3.839   9.487
   42CHL1    C1 5558   3.672   3.517   9.562
   42CHL1   H1A 5559   3.567   3.520   9.527
   42CHL1   H1B 5560   3.710   3.417   9.532
   42CHL1    C2 5561   3.664   3.519   9.721
   42CHL1   H2A 5562   3.587   3.442   9.742
   42CHL1   H2B 5563   3.638   3.623   9.753
   42CHL1   C20 5564   3.785   3.737   8.813
   42CHL1   H20 5565   3.803   3.847   8.810
   42CHL1   C21 5566   3.629   3.732   8.826
   42CHL1  H21A 5567   3.596   3.786   8.917
   42CHL1  H21B 5568   3.595   3.627   8.839
   42CHL1  H21C 5569   3.588   3.770   8.730
   42CHL1   C22 5570   3.821   3.689   8.671
   42CHL1  H22A 5571   3.752   3.742   8.604
   42CHL1  H22B 5572   3.927   3.706   8.640
   42CHL1   C23 5573   3.804   3.531   8.659
   42CHL1  H23A 5574   3.879   3.478   8.723
   42CHL1  H23B 5575   3.699   3.504   8.684
   42CHL1   C24 5576   3.825   3.471   8.518
   42CHL1  H24A 5577   3.742   3.516   8.460
   42CHL1  H24B 5578   3.920   3.510   8.475
   42CHL1   C25 5579   3.821   3.324   8.506
   42CHL1   H25 5580   3.721   3.305   8.550
   42CHL1   C26 5581   3.817   3.281   8.355
   42CHL1  H26A 5582   3.915   3.298   8.305
   42CHL1  H26B 5583   3.793   3.173   8.342
   42CHL1  H26C 5584   3.753   3.347   8.293
   42CHL1   C27 5585   3.930   3.248   8.582
   42CHL1  H27A 5586   3.905   3.139   8.577
   42CHL1  H27B 5587   4.028   3.248   8.530
   42CHL1  H27C 5588   3.935   3.284   8.687
   43CHL1    C3 5589   4.662   3.530   9.978
   43CHL1    H3 5590   4.764   3.575   9.975
   43CHL1    O3 5591   4.637   3.492  10.112
   43CHL1   H3' 5592   4.546   3.518  10.132
   43CHL1    C4 5593   4.550   3.617   9.912
   43CHL1   H4A 5594   4.446   3.584   9.930
   43CHL1   H4B 5595   4.566   3.715   9.963
   43CHL1    C5 5596   4.558   3.639   9.763
   43CHL1    C6 5597   4.557   3.767   9.717
   43CHL1    H6 5598   4.557   3.850   9.789
   43CHL1    C7 5599   4.571   3.812   9.573
   43CHL1   H7A 5600   4.489   3.885   9.557
   43CHL1   H7B 5601   4.671   3.858   9.556
   43CHL1    C8 5602   4.538   3.688   9.487
   43CHL1    H8 5603   4.428   3.674   9.481
   43CHL1   C14 5604   4.575   3.713   9.339
   43CHL1   H14 5605   4.685   3.725   9.346
   43CHL1   C15 5606   4.527   3.846   9.279
   43CHL1  H15A 5607   4.417   3.846   9.293
   43CHL1  H15B 5608   4.575   3.939   9.319
   43CHL1   C16 5609   4.551   3.821   9.130
   43CHL1  H16A 5610   4.458   3.827   9.071
   43CHL1  H16B 5611   4.628   3.887   9.083
   43CHL1   C17 5612   4.612   3.682   9.124
   43CHL1   H17 5613   4.717   3.705   9.152
   43CHL1   C13 5614   4.550   3.599   9.239
   43CHL1   C18 5615   4.397   3.576   9.221
   43CHL1  H18A 5616   4.390   3.503   9.137
   43CHL1  H18B 5617   4.338   3.551   9.311
   43CHL1  H18C 5618   4.357   3.670   9.177
   43CHL1   C12 5619   4.624   3.469   9.283
   43CHL1  H12A 5620   4.597   3.384   9.216
   43CHL1  H12B 5621   4.730   3.500   9.286
   43CHL1   C11 5622   4.585   3.433   9.423
   43CHL1  H11A 5623   4.478   3.407   9.441
   43CHL1  H11B 5624   4.643   3.347   9.463
   43CHL1    C9 5625   4.609   3.555   9.531
   43CHL1    H9 5626   4.717   3.579   9.525
   43CHL1   C10 5627   4.578   3.513   9.681
   43CHL1   C19 5628   4.445   3.435   9.689
   43CHL1  H19A 5629   4.379   3.473   9.608
   43CHL1  H19B 5630   4.453   3.327   9.667
   43CHL1  H19C 5631   4.388   3.444   9.783
   43CHL1    C1 5632   4.690   3.435   9.748
   43CHL1   H1A 5633   4.697   3.336   9.699
   43CHL1   H1B 5634   4.789   3.481   9.726
   43CHL1    C2 5635   4.677   3.406   9.893
   43CHL1   H2A 5636   4.766   3.350   9.931
   43CHL1   H2B 5637   4.593   3.337   9.913
   43CHL1   C20 5638   4.628   3.621   8.982
   43CHL1   H20 5639   4.639   3.512   9.003
   43CHL1   C21 5640   4.760   3.674   8.916
   43CHL1  H21A 5641   4.844   3.659   8.986
   43CHL1  H21B 5642   4.759   3.781   8.888
   43CHL1  H21C 5643   4.783   3.618   8.823
   43CHL1   C22 5644   4.512   3.641   8.878
   43CHL1  H22A 5645   4.414   3.617   8.923
   43CHL1  H22B 5646   4.508   3.746   8.843
   43CHL1   C23 5647   4.523   3.549   8.759
   43CHL1  H23A 5648   4.606   3.590   8.699
   43CHL1  H23B 5649   4.534   3.440   8.779
   43CHL1   C24 5650   4.396   3.565   8.675
   43CHL1  H24A 5651   4.315   3.522   8.737
   43CHL1  H24B 5652   4.372   3.673   8.673
   43CHL1   C25 5653   4.393   3.492   8.540
   43CHL1   H25 5654   4.416   3.386   8.561
   43CHL1   C26 5655   4.250   3.497   8.481
   43CHL1  H26A 5656   4.225   3.605   8.470
   43CHL1  H26B 5657   4.247   3.452   8.380
   43CHL1  H26C 5658   4.181   3.451   8.555
   43CHL1   C27 5659   4.489   3.553   8.433
   43CHL1  H27A 5660   4.593   3.527   8.462
   43CHL1  H27B 5661   4.469   3.515   8.331
   43CHL1  H27C 5662   4.472   3.663   8.426
   44CHL1    C3 5663   4.785   4.039  10.226
   44CHL1    H3 5664   4.844   3.951  10.191
   44CHL1    O3 5665   4.757   4.041  10.369
   44CHL1   H3' 5666   4.751   3.950  10.397
   44CHL1    C4 5667   4.873   4.163  10.199
   44CHL1   H4A 5668   4.829   4.253  10.246
   44CHL1   H4B 5669   4.963   4.142  10.261
   44CHL1    C5 5670   4.894   4.186  10.052
   44CHL1    C6 5671   5.015   4.200  10.000
   44CHL1    H6 5672   5.107   4.206  10.061
   44CHL1    C7 5673   5.050   4.224   9.853
   44CHL1   H7A 5674   5.133   4.297   9.841
   44CHL1   H7B 5675   5.088   4.127   9.814
   44CHL1    C8 5676   4.930   4.250   9.762
   44CHL1    H8 5677   4.899   4.355   9.779
   44CHL1   C14 5678   4.965   4.234   9.612
   44CHL1   H14 5679   5.005   4.130   9.605
   44CHL1   C15 5680   5.071   4.326   9.548
   44CHL1  H15A 5681   5.053   4.429   9.583
   44CHL1  H15B 5682   5.173   4.287   9.566
   44CHL1   C16 5683   5.041   4.319   9.394
   44CHL1  H16A 5684   5.017   4.424   9.367
   44CHL1  H16B 5685   5.134   4.298   9.336
   44CHL1   C17 5686   4.909   4.241   9.385
   44CHL1   H17 5687   4.948   4.137   9.379
   44CHL1   C13 5688   4.847   4.254   9.522
   44CHL1   C18 5689   4.786   4.400   9.527
   44CHL1  H18A 5690   4.775   4.425   9.635
   44CHL1  H18B 5691   4.850   4.476   9.477
   44CHL1  H18C 5692   4.695   4.405   9.463
   44CHL1   C12 5693   4.741   4.145   9.562
   44CHL1  H12A 5694   4.647   4.172   9.508
   44CHL1  H12B 5695   4.787   4.048   9.532
   44CHL1   C11 5696   4.698   4.159   9.710
   44CHL1  H11A 5697   4.642   4.252   9.733
   44CHL1  H11B 5698   4.625   4.081   9.739
   44CHL1    C9 5699   4.812   4.161   9.811
   44CHL1    H9 5700   4.852   4.058   9.800
   44CHL1   C10 5701   4.771   4.183   9.966
   44CHL1   C19 5702   4.687   4.316   9.980
   44CHL1  H19A 5703   4.678   4.350  10.085
   44CHL1  H19B 5704   4.726   4.400   9.919
   44CHL1  H19C 5705   4.586   4.308   9.934
   44CHL1    C1 5706   4.683   4.060  10.003
   44CHL1   H1A 5707   4.590   4.073   9.944
   44CHL1   H1B 5708   4.734   3.969   9.966
   44CHL1    C2 5709   4.654   4.039  10.151
   44CHL1   H2A 5710   4.603   3.940  10.160
   44CHL1   H2B 5711   4.574   4.112  10.176
   44CHL1   C20 5712   4.830   4.270   9.251
   44CHL1   H20 5713   4.790   4.373   9.254
   44CHL1   C21 5714   4.729   4.159   9.234
   44CHL1  H21A 5715   4.756   4.058   9.271
   44CHL1  H21B 5716   4.696   4.151   9.128
   44CHL1  H21C 5717   4.641   4.181   9.299
   44CHL1   C22 5718   4.920   4.281   9.130
   44CHL1  H22A 5719   4.851   4.298   9.044
   44CHL1  H22B 5720   4.993   4.366   9.131
   44CHL1   C23 5721   5.007   4.159   9.099
   44CHL1  H23A 5722   5.069   4.141   9.190
   44CHL1  H23B 5723   4.933   4.078   9.082
   44CHL1   C24 5724   5.100   4.187   8.980
   44CHL1  H24A 5725   5.153   4.282   9.000
   44CHL1  H24B 5726   5.179   4.111   8.961
   44CHL1   C25 5727   5.033   4.204   8.841
   44CHL1   H25 5728   4.966   4.293   8.848
   44CHL1   C26 5729   5.137   4.228   8.729
   44CHL1  H26A 5730   5.210   4.147   8.705
   44CHL1  H26B 5731   5.082   4.257   8.637
   44CHL1  H26C 5732   5.203   4.313   8.755
   44CHL1   C27 5733   4.950   4.078   8.807
   44CHL1  H27A 5734   5.014   3.990   8.780
   44CHL1  H27B 5735   4.886   4.046   8.891
   44CHL1  H27C 5736   4.882   4.104   8.723
   45CHL1    C3 5737   1.451   2.683  10.295
   45CHL1    H3 5738   1.541   2.676  10.360
   45CHL1    O3 5739   1.340   2.683  10.390
   45CHL1   H3' 5740   1.265   2.725  10.347
   45CHL1    C4 5741   1.457   2.821  10.220
   45CHL1   H4A 5742   1.355   2.849  10.186
   45CHL1   H4B 5743   1.488   2.886  10.305
   45CHL1    C5 5744   1.550   2.826  10.096
   45CHL1    C6 5745   1.652   2.915  10.088
   45CHL1    H6 5746   1.660   2.993  10.165
   45CHL1    C7 5747   1.745   2.925   9.971
   45CHL1   H7A 5748   1.723   3.026   9.931
   45CHL1   H7B 5749   1.852   2.925  10.001
   45CHL1    C8 5750   1.717   2.818   9.858
   45CHL1    H8 5751   1.819   2.806   9.816
   45CHL1   C14 5752   1.651   2.871   9.728
   45CHL1   H14 5753   1.552   2.913   9.755
   45CHL1   C15 5754   1.740   2.980   9.661
   45CHL1  H15A 5755   1.681   3.049   9.598
   45CHL1  H15B 5756   1.793   3.042   9.737
   45CHL1   C16 5757   1.836   2.908   9.560
   45CHL1  H16A 5758   1.852   2.980   9.478
   45CHL1  H16B 5759   1.940   2.896   9.598
   45CHL1   C17 5760   1.782   2.762   9.546
   45CHL1   H17 5761   1.833   2.705   9.626
   45CHL1   C13 5762   1.635   2.769   9.611
   45CHL1   C18 5763   1.529   2.828   9.513
   45CHL1  H18A 5764   1.457   2.883   9.577
   45CHL1  H18B 5765   1.560   2.905   9.439
   45CHL1  H18C 5766   1.476   2.746   9.461
   45CHL1   C12 5767   1.586   2.627   9.668
   45CHL1  H12A 5768   1.475   2.632   9.677
   45CHL1  H12B 5769   1.600   2.548   9.591
   45CHL1   C11 5770   1.665   2.589   9.800
   45CHL1  H11A 5771   1.618   2.494   9.834
   45CHL1  H11B 5772   1.769   2.559   9.775
   45CHL1    C9 5773   1.666   2.690   9.909
   45CHL1    H9 5774   1.748   2.660   9.979
   45CHL1   C10 5775   1.539   2.701  10.007
   45CHL1   C19 5776   1.411   2.693   9.929
   45CHL1  H19A 5777   1.330   2.730   9.995
   45CHL1  H19B 5778   1.407   2.769   9.848
   45CHL1  H19C 5779   1.391   2.589   9.896
   45CHL1    C1 5780   1.555   2.577  10.105
   45CHL1   H1A 5781   1.549   2.484  10.044
   45CHL1   H1B 5782   1.657   2.581  10.149
   45CHL1    C2 5783   1.443   2.569  10.202
   45CHL1   H2A 5784   1.442   2.473  10.258
   45CHL1   H2B 5785   1.345   2.577  10.152
   45CHL1   C20 5786   1.803   2.696   9.416
   45CHL1   H20 5787   1.700   2.679   9.376
   45CHL1   C21 5788   1.846   2.551   9.444
   45CHL1  H21A 5789   1.840   2.488   9.353
   45CHL1  H21B 5790   1.779   2.524   9.528
   45CHL1  H21C 5791   1.953   2.549   9.473
   45CHL1   C22 5792   1.890   2.761   9.301
   45CHL1  H22A 5793   1.982   2.808   9.343
   45CHL1  H22B 5794   1.922   2.681   9.231
   45CHL1   C23 5795   1.809   2.861   9.215
   45CHL1  H23A 5796   1.706   2.820   9.205
   45CHL1  H23B 5797   1.795   2.953   9.276
   45CHL1   C24 5798   1.875   2.885   9.076
   45CHL1  H24A 5799   1.982   2.917   9.081
   45CHL1  H24B 5800   1.885   2.788   9.024
   45CHL1   C25 5801   1.815   2.996   8.990
   45CHL1   H25 5802   1.815   3.093   9.045
   45CHL1   C26 5803   1.900   3.019   8.860
   45CHL1  H26A 5804   1.923   2.925   8.806
   45CHL1  H26B 5805   1.860   3.095   8.790
   45CHL1  H26C 5806   2.003   3.055   8.879
   45CHL1   C27 5807   1.671   2.974   8.939
   45CHL1  H27A 5808   1.623   3.049   8.873
   45CHL1  H27B 5809   1.677   2.884   8.874
   45CHL1  H27C 5810   1.601   2.952   9.023
   46CHL1    C3 5811   4.741   0.125  10.060
   46CHL1    H3 5812   4.822   0.068  10.010
   46CHL1    O3 5813   4.772   0.149  10.202
   46CHL1   H3' 5814   4.781   0.061  10.239
   46CHL1    C4 5815   4.743   0.262   9.990
   46CHL1   H4A 5816   4.658   0.317  10.035
   46CHL1   H4B 5817   4.837   0.316  10.014
   46CHL1    C5 5818   4.721   0.260   9.837
   46CHL1    C6 5819   4.812   0.305   9.755
   46CHL1    H6 5820   4.902   0.358   9.790
   46CHL1    C7 5821   4.811   0.288   9.606
   46CHL1   H7A 5822   4.824   0.383   9.550
   46CHL1   H7B 5823   4.894   0.222   9.575
   46CHL1    C8 5824   4.683   0.215   9.551
   46CHL1    H8 5825   4.609   0.295   9.533
   46CHL1   C14 5826   4.726   0.143   9.430
   46CHL1   H14 5827   4.797   0.065   9.465
   46CHL1   C15 5828   4.804   0.213   9.318
   46CHL1  H15A 5829   4.756   0.313   9.308
   46CHL1  H15B 5830   4.913   0.221   9.338
   46CHL1   C16 5831   4.786   0.125   9.193
   46CHL1  H16A 5832   4.745   0.187   9.111
   46CHL1  H16B 5833   4.883   0.077   9.166
   46CHL1   C17 5834   4.678   0.016   9.231
   46CHL1   H17 5835   4.731  -0.078   9.255
   46CHL1   C13 5836   4.607   0.078   9.356
   46CHL1   C18 5837   4.501   0.188   9.320
   46CHL1  H18A 5838   4.447   0.213   9.414
   46CHL1  H18B 5839   4.546   0.269   9.259
   46CHL1  H18C 5840   4.411   0.148   9.269
   46CHL1   C12 5841   4.549  -0.028   9.456
   46CHL1  H12A 5842   4.454  -0.075   9.423
   46CHL1  H12B 5843   4.622  -0.111   9.466
   46CHL1   C11 5844   4.507   0.030   9.593
   46CHL1  H11A 5845   4.413   0.089   9.589
   46CHL1  H11B 5846   4.491  -0.056   9.660
   46CHL1    C9 5847   4.626   0.110   9.647
   46CHL1    H9 5848   4.707   0.036   9.670
   46CHL1   C10 5849   4.603   0.172   9.795
   46CHL1   C19 5850   4.475   0.265   9.805
   46CHL1  H19A 5851   4.469   0.341   9.725
   46CHL1  H19B 5852   4.378   0.210   9.808
   46CHL1  H19C 5853   4.477   0.316   9.904
   46CHL1    C1 5854   4.587   0.038   9.884
   46CHL1   H1A 5855   4.478   0.019   9.873
   46CHL1   H1B 5856   4.644  -0.053   9.858
   46CHL1    C2 5857   4.604   0.053  10.039
   46CHL1   H2A 5858   4.608  -0.052  10.077
   46CHL1   H2B 5859   4.521   0.118  10.075
   46CHL1   C20 5860   4.591  -0.027   9.103
   46CHL1   H20 5861   4.530   0.056   9.060
   46CHL1   C21 5862   4.488  -0.124   9.153
   46CHL1  H21A 5863   4.404  -0.078   9.209
   46CHL1  H21B 5864   4.532  -0.201   9.220
   46CHL1  H21C 5865   4.450  -0.169   9.059
   46CHL1   C22 5866   4.678  -0.096   8.998
   46CHL1  H22A 5867   4.762  -0.028   8.974
   46CHL1  H22B 5868   4.716  -0.194   9.032
   46CHL1   C23 5869   4.611  -0.123   8.864
   46CHL1  H23A 5870   4.513  -0.175   8.878
   46CHL1  H23B 5871   4.593  -0.033   8.802
   46CHL1   C24 5872   4.706  -0.196   8.768
   46CHL1  H24A 5873   4.795  -0.132   8.779
   46CHL1  H24B 5874   4.734  -0.296   8.807
   46CHL1   C25 5875   4.651  -0.207   8.622
   46CHL1   H25 5876   4.552  -0.257   8.630
   46CHL1   C26 5877   4.640  -0.082   8.536
   46CHL1  H26A 5878   4.565  -0.012   8.579
   46CHL1  H26B 5879   4.739  -0.032   8.525
   46CHL1  H26C 5880   4.594  -0.110   8.438
   46CHL1   C27 5881   4.747  -0.296   8.530
   46CHL1  H27A 5882   4.837  -0.243   8.493
   46CHL1  H27B 5883   4.785  -0.382   8.590
   46CHL1  H27C 5884   4.697  -0.319   8.434
   47CHL1    C3 5885   5.198   3.623  10.061
   47CHL1    H3 5886   5.303   3.610  10.030
   47CHL1    O3 5887   5.203   3.604  10.203
   47CHL1   H3' 5888   5.116   3.570  10.226
   47CHL1    C4 5889   5.139   3.763  10.027
   47CHL1   H4A 5890   5.033   3.772  10.056
   47CHL1   H4B 5891   5.188   3.839  10.092
   47CHL1    C5 5892   5.144   3.791   9.878
   47CHL1    C6 5893   5.222   3.888   9.825
   47CHL1    H6 5894   5.290   3.946   9.889
   47CHL1    C7 5895   5.248   3.916   9.683
   47CHL1   H7A 5896   5.243   4.023   9.654
   47CHL1   H7B 5897   5.349   3.877   9.658
   47CHL1    C8 5898   5.147   3.833   9.594
   47CHL1    H8 5899   5.059   3.898   9.573
   47CHL1   C14 5900   5.206   3.822   9.452
   47CHL1   H14 5901   5.297   3.758   9.462
   47CHL1   C15 5902   5.244   3.948   9.380
   47CHL1  H15A 5903   5.164   4.018   9.413
   47CHL1  H15B 5904   5.344   3.985   9.412
   47CHL1   C16 5905   5.253   3.906   9.234
   47CHL1  H16A 5906   5.203   3.983   9.171
   47CHL1  H16B 5907   5.360   3.904   9.201
   47CHL1   C17 5908   5.202   3.765   9.227
   47CHL1   H17 5909   5.294   3.705   9.241
   47CHL1   C13 5910   5.119   3.748   9.356
   47CHL1   C18 5911   4.981   3.826   9.341
   47CHL1  H18A 5912   4.913   3.753   9.291
   47CHL1  H18B 5913   4.925   3.846   9.435
   47CHL1  H18C 5914   4.986   3.914   9.273
   47CHL1   C12 5915   5.087   3.604   9.407
   47CHL1  H12A 5916   5.019   3.555   9.333
   47CHL1  H12B 5917   5.184   3.550   9.400
   47CHL1   C11 5918   5.027   3.608   9.547
   47CHL1  H11A 5919   4.925   3.653   9.544
   47CHL1  H11B 5920   5.016   3.505   9.586
   47CHL1    C9 5921   5.117   3.694   9.645
   47CHL1    H9 5922   5.219   3.650   9.646
   47CHL1   C10 5923   5.067   3.688   9.795
   47CHL1   C19 5924   4.921   3.738   9.800
   47CHL1  H19A 5925   4.880   3.732   9.903
   47CHL1  H19B 5926   4.914   3.844   9.767
   47CHL1  H19C 5927   4.854   3.683   9.730
   47CHL1    C1 5928   5.076   3.547   9.845
   47CHL1   H1A 5929   4.983   3.492   9.822
   47CHL1   H1B 5930   5.167   3.502   9.798
   47CHL1    C2 5931   5.094   3.526  10.004
   47CHL1   H2A 5932   5.109   3.416  10.015
   47CHL1   H2B 5933   4.997   3.535  10.056
   47CHL1   C20 5934   5.148   3.725   9.082
   47CHL1   H20 5935   5.065   3.797   9.068
   47CHL1   C21 5936   5.081   3.588   9.077
   47CHL1  H21A 5937   5.138   3.518   9.142
   47CHL1  H21B 5938   5.078   3.532   8.981
   47CHL1  H21C 5939   4.978   3.592   9.118
   47CHL1   C22 5940   5.259   3.744   8.970
   47CHL1  H22A 5941   5.204   3.741   8.873
   47CHL1  H22B 5942   5.306   3.843   8.986
   47CHL1   C23 5943   5.368   3.631   8.976
   47CHL1  H23A 5944   5.407   3.633   9.080
   47CHL1  H23B 5945   5.329   3.529   8.955
   47CHL1   C24 5946   5.477   3.662   8.873
   47CHL1  H24A 5947   5.425   3.691   8.779
   47CHL1  H24B 5948   5.536   3.748   8.912
   47CHL1   C25 5949   5.568   3.554   8.831
   47CHL1   H25 5950   5.510   3.468   8.791
   47CHL1   C26 5951   5.669   3.605   8.721
   47CHL1  H26A 5952   5.613   3.641   8.632
   47CHL1  H26B 5953   5.717   3.513   8.679
   47CHL1  H26C 5954   5.736   3.691   8.744
   47CHL1   C27 5955   5.653   3.505   8.953
   47CHL1  H27A 5956   5.723   3.425   8.923
   47CHL1  H27B 5957   5.724   3.582   8.991
   47CHL1  H27C 5958   5.584   3.470   9.033
   48CHL1    C3 5959   5.961   4.244  10.098
   48CHL1    H3 5960   5.853   4.222  10.089
   48CHL1    O3 5961   5.998   4.208  10.231
   48CHL1   H3' 5962   6.093   4.194  10.222
   48CHL1    C4 5963   6.034   4.139  10.009
   48CHL1   H4A 5964   6.141   4.148  10.037
   48CHL1   H4B 5965   5.984   4.045  10.040
   48CHL1    C5 5966   6.009   4.170   9.865
   48CHL1    C6 5967   5.953   4.082   9.785
   48CHL1    H6 5968   5.919   3.989   9.833
   48CHL1    C7 5969   5.926   4.106   9.635
   48CHL1   H7A 5970   5.952   4.011   9.583
   48CHL1   H7B 5971   5.818   4.124   9.615
   48CHL1    C8 5972   6.008   4.224   9.577
   48CHL1    H8 5973   6.113   4.189   9.575
   48CHL1   C14 5974   5.960   4.249   9.436
   48CHL1   H14 5975   5.850   4.267   9.433
   48CHL1   C15 5976   5.975   4.139   9.335
   48CHL1  H15A 5977   6.077   4.093   9.340
   48CHL1  H15B 5978   5.894   4.064   9.327
   48CHL1   C16 5979   5.979   4.213   9.197
   48CHL1  H16A 5980   6.074   4.181   9.151
   48CHL1  H16B 5981   5.894   4.175   9.136
   48CHL1   C17 5982   5.961   4.366   9.233
   48CHL1   H17 5983   5.851   4.372   9.246
   48CHL1   C13 5984   6.015   4.384   9.381
   48CHL1   C18 5985   6.172   4.374   9.375
   48CHL1  H18A 5986   6.202   4.284   9.317
   48CHL1  H18B 5987   6.211   4.457   9.311
   48CHL1  H18C 5988   6.215   4.367   9.477
   48CHL1   C12 5989   5.975   4.506   9.471
   48CHL1  H12A 5990   5.984   4.608   9.428
   48CHL1  H12B 5991   5.865   4.499   9.491
   48CHL1   C11 5992   6.028   4.486   9.616
   48CHL1  H11A 5993   6.138   4.498   9.623
   48CHL1  H11B 5994   5.989   4.567   9.681
   48CHL1    C9 5995   5.990   4.342   9.673
   48CHL1    H9 5996   5.880   4.349   9.688
   48CHL1   C10 5997   6.048   4.304   9.813
   48CHL1   C19 5998   6.197   4.326   9.825
   48CHL1  H19A 5999   6.237   4.290   9.922
   48CHL1  H19B 6000   6.252   4.274   9.744
   48CHL1  H19C 6001   6.220   4.435   9.818
   48CHL1    C1 6002   5.981   4.406   9.916
   48CHL1   H1A 6003   6.026   4.505   9.891
   48CHL1   H1B 6004   5.875   4.419   9.888
   48CHL1    C2 6005   6.009   4.377  10.062
   48CHL1   H2A 6006   5.956   4.459  10.115
   48CHL1   H2B 6007   6.116   4.395  10.085
   48CHL1   C20 6008   5.994   4.476   9.142
   48CHL1   H20 6009   6.084   4.537   9.163
   48CHL1   C21 6010   5.875   4.583   9.147
   48CHL1  H21A 6011   5.829   4.598   9.247
   48CHL1  H21B 6012   5.791   4.540   9.088
   48CHL1  H21C 6013   5.909   4.679   9.103
   48CHL1   C22 6014   6.002   4.413   8.997
   48CHL1  H22A 6015   6.079   4.333   8.995
   48CHL1  H22B 6016   5.905   4.363   8.976
   48CHL1   C23 6017   6.040   4.513   8.895
   48CHL1  H23A 6018   5.945   4.565   8.868
   48CHL1  H23B 6019   6.097   4.598   8.938
   48CHL1   C24 6020   6.107   4.451   8.771
   48CHL1  H24A 6021   6.202   4.410   8.811
   48CHL1  H24B 6022   6.043   4.371   8.727
   48CHL1   C25 6023   6.143   4.568   8.677
   48CHL1   H25 6024   6.167   4.648   8.750
   48CHL1   C26 6025   6.269   4.549   8.598
   48CHL1  H26A 6026   6.344   4.511   8.671
   48CHL1  H26B 6027   6.248   4.469   8.524
   48CHL1  H26C 6028   6.309   4.645   8.557
   48CHL1   C27 6029   6.026   4.618   8.592
   48CHL1  H27A 6030   5.992   4.543   8.517
   48CHL1  H27B 6031   5.950   4.662   8.660
   48CHL1  H27C 6032   6.057   4.708   8.535
   49CHL1    C3 6033   4.210   6.461  10.068
   49CHL1    H3 6034   4.190   6.351  10.068
   49CHL1    O3 6035   4.255   6.498  10.200
   49CHL1   H3' 6036   4.179   6.476  10.254
   49CHL1    C4 6037   4.311   6.495   9.954
   49CHL1   H4A 6038   4.349   6.598   9.973
   49CHL1   H4B 6039   4.403   6.436   9.975
   49CHL1    C5 6040   4.257   6.488   9.809
   49CHL1    C6 6041   4.302   6.409   9.712
   49CHL1    H6 6042   4.383   6.337   9.734
   49CHL1    C7 6043   4.265   6.426   9.567
   49CHL1   H7A 6044   4.364   6.441   9.519
   49CHL1   H7B 6045   4.218   6.331   9.534
   49CHL1    C8 6046   4.183   6.548   9.535
   49CHL1    H8 6047   4.250   6.636   9.537
   49CHL1   C14 6048   4.111   6.538   9.401
   49CHL1   H14 6049   4.048   6.447   9.406
   49CHL1   C15 6050   4.188   6.496   9.273
   49CHL1  H15A 6051   4.293   6.533   9.263
   49CHL1  H15B 6052   4.215   6.389   9.266
   49CHL1   C16 6053   4.098   6.539   9.152
   49CHL1  H16A 6054   4.145   6.613   9.084
   49CHL1  H16B 6055   4.076   6.452   9.087
   49CHL1   C17 6056   3.971   6.598   9.230
   49CHL1   H17 6057   3.907   6.508   9.235
   49CHL1   C13 6058   4.012   6.654   9.364
   49CHL1   C18 6059   4.088   6.790   9.343
   49CHL1  H18A 6060   4.016   6.873   9.325
   49CHL1  H18B 6061   4.159   6.822   9.422
   49CHL1  H18C 6062   4.160   6.787   9.259
   49CHL1   C12 6063   3.908   6.671   9.477
   49CHL1  H12A 6064   3.850   6.765   9.469
   49CHL1  H12B 6065   3.837   6.585   9.474
   49CHL1   C11 6066   3.972   6.691   9.617
   49CHL1  H11A 6067   4.026   6.786   9.636
   49CHL1  H11B 6068   3.886   6.687   9.687
   49CHL1    C9 6069   4.075   6.574   9.648
   49CHL1    H9 6070   4.020   6.478   9.659
   49CHL1   C10 6071   4.146   6.588   9.785
   49CHL1   C19 6072   4.198   6.736   9.803
   49CHL1  H19A 6073   4.250   6.757   9.899
   49CHL1  H19B 6074   4.260   6.768   9.717
   49CHL1  H19C 6075   4.111   6.805   9.804
   49CHL1    C1 6076   4.038   6.549   9.892
   49CHL1   H1A 6077   3.947   6.613   9.882
   49CHL1   H1B 6078   4.005   6.448   9.861
   49CHL1    C2 6079   4.085   6.550  10.042
   49CHL1   H2A 6080   4.013   6.503  10.112
   49CHL1   H2B 6081   4.102   6.653  10.078
   49CHL1   C20 6082   3.900   6.704   9.136
   49CHL1   H20 6083   3.972   6.782   9.103
   49CHL1   C21 6084   3.780   6.767   9.209
   49CHL1  H21A 6085   3.737   6.842   9.139
   49CHL1  H21B 6086   3.812   6.821   9.301
   49CHL1  H21C 6087   3.705   6.691   9.236
   49CHL1   C22 6088   3.838   6.631   9.010
   49CHL1  H22A 6089   3.921   6.572   8.965
   49CHL1  H22B 6090   3.756   6.558   9.028
   49CHL1   C23 6091   3.793   6.729   8.893
   49CHL1  H23A 6092   3.702   6.779   8.930
   49CHL1  H23B 6093   3.869   6.806   8.866
   49CHL1   C24 6094   3.764   6.631   8.772
   49CHL1  H24A 6095   3.862   6.584   8.750
   49CHL1  H24B 6096   3.691   6.551   8.797
   49CHL1   C25 6097   3.735   6.703   8.642
   49CHL1   H25 6098   3.644   6.766   8.654
   49CHL1   C26 6099   3.848   6.799   8.605
   49CHL1  H26A 6100   3.822   6.868   8.522
   49CHL1  H26B 6101   3.889   6.871   8.678
   49CHL1  H26C 6102   3.942   6.742   8.587
   49CHL1   C27 6103   3.709   6.608   8.533
   49CHL1  H27A 6104   3.624   6.544   8.565
   49CHL1  H27B 6105   3.669   6.660   8.444
   49CHL1  H27C 6106   3.799   6.547   8.513
   50CHL1    C3 6107   0.652   1.780  10.092
   50CHL1    H3 6108   0.592   1.688  10.106
   50CHL1    O3 6109   0.688   1.821  10.224
   50CHL1   H3' 6110   0.617   1.876  10.258
   50CHL1    C4 6111   0.776   1.760  10.003
   50CHL1   H4A 6112   0.830   1.856  10.017
   50CHL1   H4B 6113   0.837   1.677  10.045
   50CHL1    C5 6114   0.761   1.721   9.860
   50CHL1    C6 6115   0.811   1.609   9.807
   50CHL1    H6 6116   0.857   1.537   9.877
   50CHL1    C7 6117   0.808   1.582   9.663
   50CHL1   H7A 6118   0.912   1.563   9.629
   50CHL1   H7B 6119   0.748   1.491   9.642
   50CHL1    C8 6120   0.747   1.699   9.573
   50CHL1    H8 6121   0.830   1.771   9.553
   50CHL1   C14 6122   0.694   1.648   9.436
   50CHL1   H14 6123   0.614   1.576   9.464
   50CHL1   C15 6124   0.792   1.572   9.342
   50CHL1  H15A 6125   0.882   1.638   9.338
   50CHL1  H15B 6126   0.817   1.477   9.395
   50CHL1   C16 6127   0.723   1.565   9.206
   50CHL1  H16A 6128   0.785   1.610   9.126
   50CHL1  H16B 6129   0.676   1.468   9.180
   50CHL1   C17 6130   0.606   1.662   9.220
   50CHL1   H17 6131   0.526   1.589   9.245
   50CHL1   C13 6132   0.633   1.752   9.339
   50CHL1   C18 6133   0.736   1.859   9.301
   50CHL1  H18A 6134   0.822   1.829   9.238
   50CHL1  H18B 6135   0.693   1.938   9.235
   50CHL1  H18C 6136   0.768   1.909   9.395
   50CHL1   C12 6137   0.510   1.814   9.420
   50CHL1  H12A 6138   0.467   1.897   9.360
   50CHL1  H12B 6139   0.432   1.736   9.435
   50CHL1   C11 6140   0.556   1.875   9.555
   50CHL1  H11A 6141   0.617   1.968   9.547
   50CHL1  H11B 6142   0.458   1.904   9.598
   50CHL1    C9 6143   0.631   1.771   9.649
   50CHL1    H9 6144   0.552   1.693   9.661
   50CHL1   C10 6145   0.668   1.823   9.789
   50CHL1   C19 6146   0.734   1.965   9.777
   50CHL1  H19A 6147   0.659   2.041   9.748
   50CHL1  H19B 6148   0.783   1.999   9.870
   50CHL1  H19C 6149   0.819   1.962   9.705
   50CHL1    C1 6150   0.534   1.836   9.871
   50CHL1   H1A 6151   0.457   1.901   9.822
   50CHL1   H1B 6152   0.482   1.739   9.880
   50CHL1    C2 6153   0.551   1.878  10.022
   50CHL1   H2A 6154   0.447   1.878  10.061
   50CHL1   H2B 6155   0.597   1.978  10.036
   50CHL1   C20 6156   0.564   1.729   9.090
   50CHL1   H20 6157   0.654   1.767   9.037
   50CHL1   C21 6158   0.466   1.846   9.095
   50CHL1  H21A 6159   0.369   1.810   9.134
   50CHL1  H21B 6160   0.459   1.891   8.993
   50CHL1  H21C 6161   0.489   1.935   9.157
   50CHL1   C22 6162   0.521   1.622   8.980
   50CHL1  H22A 6163   0.537   1.676   8.884
   50CHL1  H22B 6164   0.602   1.546   8.970
   50CHL1   C23 6165   0.388   1.551   9.015
   50CHL1  H23A 6166   0.380   1.526   9.123
   50CHL1  H23B 6167   0.302   1.620   9.003
   50CHL1   C24 6168   0.373   1.417   8.938
   50CHL1  H24A 6169   0.453   1.342   8.955
   50CHL1  H24B 6170   0.284   1.375   8.990
   50CHL1   C25 6171   0.356   1.421   8.786
   50CHL1   H25 6172   0.451   1.459   8.743
   50CHL1   C26 6173   0.332   1.279   8.725
   50CHL1  H26A 6174   0.406   1.208   8.767
   50CHL1  H26B 6175   0.229   1.241   8.740
   50CHL1  H26C 6176   0.348   1.272   8.616
   50CHL1   C27 6177   0.240   1.509   8.744
   50CHL1  H27A 6178   0.141   1.460   8.760
   50CHL1  H27B 6179   0.238   1.614   8.782
   50CHL1  H27C 6180   0.260   1.521   8.635
   51CHL1    C3 6181   1.610   4.156  10.297
   51CHL1    H3 6182   1.554   4.072  10.251
   51CHL1    O3 6183   1.663   4.125  10.429
   51CHL1   H3' 6184   1.708   4.208  10.448
   51CHL1    C4 6185   1.717   4.219  10.215
   51CHL1   H4A 6186   1.757   4.310  10.265
   51CHL1   H4B 6187   1.805   4.151  10.211
   51CHL1    C5 6188   1.662   4.258  10.079
   51CHL1    C6 6189   1.714   4.215   9.970
   51CHL1    H6 6190   1.801   4.149   9.982
   51CHL1    C7 6191   1.666   4.248   9.831
   51CHL1   H7A 6192   1.754   4.276   9.770
   51CHL1   H7B 6193   1.613   4.158   9.793
   51CHL1    C8 6194   1.573   4.375   9.838
   51CHL1    H8 6195   1.646   4.455   9.862
   51CHL1   C14 6196   1.498   4.385   9.712
   51CHL1   H14 6197   1.423   4.303   9.715
   51CHL1   C15 6198   1.571   4.370   9.583
   51CHL1  H15A 6199   1.673   4.414   9.585
   51CHL1  H15B 6200   1.585   4.261   9.571
   51CHL1   C16 6201   1.485   4.442   9.471
   51CHL1  H16A 6202   1.548   4.521   9.425
   51CHL1  H16B 6203   1.441   4.381   9.389
   51CHL1   C17 6204   1.374   4.524   9.560
   51CHL1   H17 6205   1.283   4.460   9.560
   51CHL1   C13 6206   1.423   4.520   9.702
   51CHL1   C18 6207   1.534   4.627   9.726
   51CHL1  H18A 6208   1.626   4.608   9.667
   51CHL1  H18B 6209   1.491   4.720   9.683
   51CHL1  H18C 6210   1.560   4.656   9.830
   51CHL1   C12 6211   1.308   4.520   9.807
   51CHL1  H12A 6212   1.240   4.609   9.801
   51CHL1  H12B 6213   1.243   4.432   9.788
   51CHL1   C11 6214   1.364   4.493   9.950
   51CHL1  H11A 6215   1.414   4.579   9.999
   51CHL1  H11B 6216   1.278   4.466  10.015
   51CHL1    C9 6217   1.468   4.373   9.952
   51CHL1    H9 6218   1.395   4.289   9.943
   51CHL1   C10 6219   1.538   4.358  10.087
   51CHL1   C19 6220   1.609   4.496  10.134
   51CHL1  H19A 6221   1.670   4.496  10.227
   51CHL1  H19B 6222   1.683   4.545  10.067
   51CHL1  H19C 6223   1.537   4.574  10.167
   51CHL1    C1 6224   1.429   4.307  10.185
   51CHL1   H1A 6225   1.351   4.383  10.207
   51CHL1   H1B 6226   1.360   4.230  10.142
   51CHL1    C2 6227   1.494   4.263  10.319
   51CHL1   H2A 6228   1.416   4.215  10.381
   51CHL1   H2B 6229   1.524   4.357  10.370
   51CHL1   C20 6230   1.333   4.657   9.490
   51CHL1   H20 6231   1.424   4.718   9.470
   51CHL1   C21 6232   1.240   4.759   9.573
   51CHL1  H21A 6233   1.219   4.857   9.527
   51CHL1  H21B 6234   1.291   4.805   9.661
   51CHL1  H21C 6235   1.143   4.717   9.608
   51CHL1   C22 6236   1.272   4.626   9.350
   51CHL1  H22A 6237   1.332   4.555   9.290
   51CHL1  H22B 6238   1.172   4.578   9.360
   51CHL1   C23 6239   1.234   4.756   9.258
   51CHL1  H23A 6240   1.153   4.719   9.191
   51CHL1  H23B 6241   1.195   4.842   9.317
   51CHL1   C24 6242   1.343   4.780   9.164
   51CHL1  H24A 6243   1.439   4.787   9.218
   51CHL1  H24B 6244   1.357   4.706   9.082
   51CHL1   C25 6245   1.317   4.914   9.086
   51CHL1   H25 6246   1.212   4.915   9.052
   51CHL1   C26 6247   1.337   5.029   9.176
   51CHL1  H26A 6248   1.252   5.057   9.241
   51CHL1  H26B 6249   1.414   5.005   9.253
   51CHL1  H26C 6250   1.356   5.126   9.125
   51CHL1   C27 6251   1.390   4.933   8.947
   51CHL1  H27A 6252   1.501   4.929   8.949
   51CHL1  H27B 6253   1.356   4.850   8.882
   51CHL1  H27C 6254   1.364   5.028   8.896
   52CHL1    C3 6255   5.523   3.215   9.981
   52CHL1    H3 6256   5.420   3.176   9.999
   52CHL1    O3 6257   5.598   3.245  10.100
   52CHL1   H3' 6258   5.536   3.305  10.143
   52CHL1    C4 6259   5.599   3.109   9.893
   52CHL1   H4A 6260   5.697   3.160   9.879
   52CHL1   H4B 6261   5.611   3.021   9.959
   52CHL1    C5 6262   5.532   3.087   9.763
   52CHL1    C6 6263   5.486   2.966   9.729
   52CHL1    H6 6264   5.502   2.875   9.789
   52CHL1    C7 6265   5.417   2.936   9.598
   52CHL1   H7A 6266   5.460   2.839   9.564
   52CHL1   H7B 6267   5.309   2.921   9.617
   52CHL1    C8 6268   5.436   3.046   9.495
   52CHL1    H8 6269   5.534   3.027   9.446
   52CHL1   C14 6270   5.330   3.032   9.383
   52CHL1   H14 6271   5.233   3.050   9.434
   52CHL1   C15 6272   5.320   2.892   9.317
   52CHL1  H15A 6273   5.420   2.856   9.287
   52CHL1  H15B 6274   5.273   2.820   9.389
   52CHL1   C16 6275   5.241   2.917   9.189
   52CHL1  H16A 6276   5.295   2.871   9.104
   52CHL1  H16B 6277   5.143   2.866   9.200
   52CHL1   C17 6278   5.227   3.076   9.180
   52CHL1   H17 6279   5.135   3.117   9.229
   52CHL1   C13 6280   5.343   3.134   9.267
   52CHL1   C18 6281   5.476   3.118   9.178
   52CHL1  H18A 6282   5.566   3.133   9.242
   52CHL1  H18B 6283   5.476   3.015   9.138
   52CHL1  H18C 6284   5.471   3.198   9.101
   52CHL1   C12 6285   5.329   3.274   9.322
   52CHL1  H12A 6286   5.355   3.345   9.240
   52CHL1  H12B 6287   5.231   3.303   9.364
   52CHL1   C11 6288   5.431   3.292   9.441
   52CHL1  H11A 6289   5.527   3.290   9.386
   52CHL1  H11B 6290   5.408   3.388   9.493
   52CHL1    C9 6291   5.422   3.182   9.555
   52CHL1    H9 6292   5.318   3.188   9.593
   52CHL1   C10 6293   5.513   3.207   9.673
   52CHL1   C19 6294   5.657   3.245   9.619
   52CHL1  H19A 6295   5.691   3.171   9.543
   52CHL1  H19B 6296   5.656   3.338   9.558
   52CHL1  H19C 6297   5.736   3.259   9.697
   52CHL1    C1 6298   5.447   3.320   9.762
   52CHL1   H1A 6299   5.444   3.415   9.704
   52CHL1   H1B 6300   5.340   3.294   9.774
   52CHL1    C2 6301   5.509   3.342   9.903
   52CHL1   H2A 6302   5.448   3.415   9.960
   52CHL1   H2B 6303   5.611   3.386   9.895
   52CHL1   C20 6304   5.215   3.120   9.034
   52CHL1   H20 6305   5.310   3.088   8.986
   52CHL1   C21 6306   5.191   3.269   9.023
   52CHL1  H21A 6307   5.109   3.298   9.092
   52CHL1  H21B 6308   5.171   3.306   8.920
   52CHL1  H21C 6309   5.278   3.331   9.055
   52CHL1   C22 6310   5.102   3.049   8.959
   52CHL1  H22A 6311   5.117   3.068   8.851
   52CHL1  H22B 6312   5.110   2.940   8.973
   52CHL1   C23 6313   4.954   3.087   8.995
   52CHL1  H23A 6314   4.922   3.017   9.075
   52CHL1  H23B 6315   4.943   3.190   9.034
   52CHL1   C24 6316   4.869   3.071   8.873
   52CHL1  H24A 6317   4.908   3.123   8.783
   52CHL1  H24B 6318   4.870   2.966   8.837
   52CHL1   C25 6319   4.717   3.106   8.884
   52CHL1   H25 6320   4.663   3.039   8.954
   52CHL1   C26 6321   4.683   3.246   8.932
   52CHL1  H26A 6322   4.572   3.255   8.933
   52CHL1  H26B 6323   4.719   3.251   9.037
   52CHL1  H26C 6324   4.739   3.316   8.866
   52CHL1   C27 6325   4.651   3.083   8.745
   52CHL1  H27A 6326   4.713   3.141   8.674
   52CHL1  H27B 6327   4.656   2.979   8.706
   52CHL1  H27C 6328   4.544   3.114   8.750
   53CHL1    C3 6329   6.433   2.404  10.023
   53CHL1    H3 6330   6.531   2.351  10.021
   53CHL1    O3 6331   6.394   2.415  10.161
   53CHL1   H3' 6332   6.436   2.336  10.195
   53CHL1    C4 6333   6.434   2.548   9.960
   53CHL1   H4A 6334   6.336   2.594   9.987
   53CHL1   H4B 6335   6.507   2.615  10.009
   53CHL1    C5 6336   6.462   2.549   9.809
   53CHL1    C6 6337   6.553   2.631   9.761
   53CHL1    H6 6338   6.611   2.694   9.829
   53CHL1    C7 6339   6.573   2.646   9.611
   53CHL1   H7A 6340   6.594   2.745   9.566
   53CHL1   H7B 6341   6.666   2.585   9.604
   53CHL1    C8 6342   6.471   2.577   9.521
   53CHL1    H8 6343   6.380   2.640   9.513
   53CHL1   C14 6344   6.522   2.562   9.378
   53CHL1   H14 6345   6.602   2.485   9.387
   53CHL1   C15 6346   6.577   2.688   9.312
   53CHL1  H15A 6347   6.499   2.765   9.331
   53CHL1  H15B 6348   6.681   2.710   9.345
   53CHL1   C16 6349   6.585   2.634   9.169
   53CHL1  H16A 6350   6.537   2.709   9.102
   53CHL1  H16B 6351   6.687   2.624   9.125
   53CHL1   C17 6352   6.509   2.499   9.162
   53CHL1   H17 6353   6.584   2.418   9.165
   53CHL1   C13 6354   6.421   2.486   9.287
   53CHL1   C18 6355   6.284   2.559   9.280
   53CHL1  H18A 6356   6.230   2.563   9.377
   53CHL1  H18B 6357   6.306   2.667   9.264
   53CHL1  H18C 6358   6.217   2.527   9.197
   53CHL1   C12 6359   6.405   2.340   9.349
   53CHL1  H12A 6360   6.321   2.298   9.290
   53CHL1  H12B 6361   6.505   2.293   9.348
   53CHL1   C11 6362   6.359   2.333   9.498
   53CHL1  H11A 6363   6.255   2.371   9.503
   53CHL1  H11B 6364   6.390   2.236   9.543
   53CHL1    C9 6365   6.440   2.439   9.585
   53CHL1    H9 6366   6.541   2.395   9.599
   53CHL1   C10 6367   6.377   2.454   9.727
   53CHL1   C19 6368   6.228   2.503   9.721
   53CHL1  H19A 6369   6.205   2.524   9.828
   53CHL1  H19B 6370   6.222   2.604   9.673
   53CHL1  H19C 6371   6.151   2.432   9.683
   53CHL1    C1 6372   6.379   2.309   9.793
   53CHL1   H1A 6373   6.299   2.242   9.756
   53CHL1   H1B 6374   6.479   2.262   9.779
   53CHL1    C2 6375   6.343   2.313   9.942
   53CHL1   H2A 6376   6.341   2.209   9.981
   53CHL1   H2B 6377   6.246   2.364   9.957
   53CHL1   C20 6378   6.439   2.473   9.028
   53CHL1   H20 6379   6.365   2.555   9.016
   53CHL1   C21 6380   6.383   2.336   9.015
   53CHL1  H21A 6381   6.456   2.261   9.051
   53CHL1  H21B 6382   6.354   2.310   8.911
   53CHL1  H21C 6383   6.284   2.332   9.067
   53CHL1   C22 6384   6.538   2.495   8.907
   53CHL1  H22A 6385   6.584   2.596   8.917
   53CHL1  H22B 6386   6.617   2.418   8.919
   53CHL1   C23 6387   6.473   2.495   8.772
   53CHL1  H23A 6388   6.463   2.389   8.740
   53CHL1  H23B 6389   6.377   2.543   8.801
   53CHL1   C24 6390   6.539   2.583   8.661
   53CHL1  H24A 6391   6.558   2.683   8.706
   53CHL1  H24B 6392   6.647   2.558   8.650
   53CHL1   C25 6393   6.448   2.603   8.542
   53CHL1   H25 6394   6.355   2.651   8.579
   53CHL1   C26 6395   6.510   2.704   8.439
   53CHL1  H26A 6396   6.445   2.716   8.350
   53CHL1  H26B 6397   6.527   2.800   8.492
   53CHL1  H26C 6398   6.610   2.661   8.419
   53CHL1   C27 6399   6.419   2.475   8.463
   53CHL1  H27A 6400   6.507   2.440   8.404
   53CHL1  H27B 6401   6.403   2.400   8.543
   53CHL1  H27C 6402   6.322   2.485   8.411
   54CHL1    C3 6403   6.281   3.844  10.132
   54CHL1    H3 6404   6.192   3.908  10.114
   54CHL1    O3 6405   6.280   3.773  10.261
   54CHL1   H3' 6406   6.216   3.701  10.252
   54CHL1    C4 6407   6.281   3.727  10.036
   54CHL1   H4A 6408   6.370   3.661  10.049
   54CHL1   H4B 6409   6.186   3.671  10.048
   54CHL1    C5 6410   6.283   3.774   9.888
   54CHL1    C6 6411   6.178   3.739   9.806
   54CHL1    H6 6412   6.099   3.672   9.843
   54CHL1    C7 6413   6.180   3.790   9.669
   54CHL1   H7A 6414   6.116   3.728   9.603
   54CHL1   H7B 6415   6.119   3.883   9.673
   54CHL1    C8 6416   6.316   3.838   9.606
   54CHL1    H8 6417   6.376   3.745   9.596
   54CHL1   C14 6418   6.303   3.904   9.472
   54CHL1   H14 6419   6.253   4.001   9.491
   54CHL1   C15 6420   6.229   3.830   9.361
   54CHL1  H15A 6421   6.270   3.727   9.349
   54CHL1  H15B 6422   6.118   3.832   9.360
   54CHL1   C16 6423   6.268   3.894   9.231
   54CHL1  H16A 6424   6.288   3.814   9.157
   54CHL1  H16B 6425   6.181   3.947   9.187
   54CHL1   C17 6426   6.392   3.984   9.271
   54CHL1   H17 6427   6.337   4.079   9.289
   54CHL1   C13 6428   6.436   3.950   9.418
   54CHL1   C18 6429   6.541   3.829   9.410
   54CHL1  H18A 6430   6.642   3.866   9.382
   54CHL1  H18B 6431   6.548   3.767   9.501
   54CHL1  H18C 6432   6.514   3.764   9.324
   54CHL1   C12 6433   6.498   4.059   9.504
   54CHL1  H12A 6434   6.595   4.094   9.463
   54CHL1  H12B 6435   6.427   4.144   9.500
   54CHL1   C11 6436   6.513   4.007   9.644
   54CHL1  H11A 6437   6.593   3.930   9.646
   54CHL1  H11B 6438   6.556   4.072   9.723
   54CHL1    C9 6439   6.392   3.933   9.705
   54CHL1    H9 6440   6.331   4.025   9.719
   54CHL1   C10 6441   6.404   3.865   9.843
   54CHL1   C19 6442   6.532   3.771   9.833
   54CHL1  H19A 6443   6.621   3.837   9.828
   54CHL1  H19B 6444   6.540   3.709   9.925
   54CHL1  H19C 6445   6.530   3.690   9.757
   54CHL1    C1 6446   6.417   3.968   9.960
   54CHL1   H1A 6447   6.500   4.038   9.935
   54CHL1   H1B 6448   6.332   4.039   9.965
   54CHL1    C2 6449   6.413   3.921  10.105
   54CHL1   H2A 6450   6.431   4.006  10.174
   54CHL1   H2B 6451   6.503   3.856  10.117
   54CHL1   C20 6452   6.500   4.019   9.166
   54CHL1   H20 6453   6.599   4.038   9.214
   54CHL1   C21 6454   6.457   4.150   9.088
   54CHL1  H21A 6455   6.382   4.134   9.008
   54CHL1  H21B 6456   6.547   4.179   9.030
   54CHL1  H21C 6457   6.444   4.241   9.151
   54CHL1   C22 6458   6.513   3.905   9.066
   54CHL1  H22A 6459   6.502   3.799   9.098
   54CHL1  H22B 6460   6.430   3.914   8.992
   54CHL1   C23 6461   6.655   3.909   8.989
   54CHL1  H23A 6462   6.653   3.996   8.920
   54CHL1  H23B 6463   6.730   3.926   9.068
   54CHL1   C24 6464   6.674   3.771   8.913
   54CHL1  H24A 6465   6.684   3.694   8.993
   54CHL1  H24B 6466   6.579   3.742   8.863
   54CHL1   C25 6467   6.799   3.754   8.821
   54CHL1   H25 6468   6.802   3.648   8.786
   54CHL1   C26 6469   6.778   3.837   8.696
   54CHL1  H26A 6470   6.846   3.801   8.616
   54CHL1  H26B 6471   6.672   3.819   8.667
   54CHL1  H26C 6472   6.793   3.946   8.705
   54CHL1   C27 6473   6.930   3.789   8.894
   54CHL1  H27A 6474   7.013   3.724   8.860
   54CHL1  H27B 6475   6.942   3.899   8.885
   54CHL1  H27C 6476   6.912   3.783   9.004
   55CHL1    C3 6477   0.090   1.537  10.074
   55CHL1    H3 6478  -0.020   1.544  10.083
   55CHL1    O3 6479   0.150   1.527  10.202
   55CHL1   H3' 6480   0.126   1.609  10.245
   55CHL1    C4 6481   0.122   1.415   9.985
   55CHL1   H4A 6482   0.231   1.402   9.996
   55CHL1   H4B 6483   0.063   1.326  10.018
   55CHL1    C5 6484   0.089   1.448   9.839
   55CHL1    C6 6485   0.007   1.367   9.768
   55CHL1    H6 6486  -0.027   1.280   9.826
   55CHL1    C7 6487  -0.029   1.386   9.622
   55CHL1   H7A 6488  -0.018   1.288   9.572
   55CHL1   H7B 6489  -0.135   1.419   9.623
   55CHL1    C8 6490   0.060   1.487   9.553
   55CHL1    H8 6491   0.155   1.432   9.539
   55CHL1   C14 6492  -0.008   1.516   9.424
   55CHL1   H14 6493  -0.105   1.564   9.450
   55CHL1   C15 6494  -0.024   1.398   9.337
   55CHL1  H15A 6495   0.069   1.338   9.332
   55CHL1  H15B 6496  -0.104   1.325   9.363
   55CHL1   C16 6497  -0.044   1.461   9.197
   55CHL1  H16A 6498   0.023   1.411   9.124
   55CHL1  H16B 6499  -0.151   1.454   9.168
   55CHL1   C17 6500  -0.020   1.613   9.214
   55CHL1   H17 6501  -0.119   1.653   9.244
   55CHL1   C13 6502   0.068   1.622   9.343
   55CHL1   C18 6503   0.213   1.570   9.313
   55CHL1  H18A 6504   0.279   1.650   9.273
   55CHL1  H18B 6505   0.263   1.532   9.404
   55CHL1  H18C 6506   0.203   1.489   9.238
   55CHL1   C12 6507   0.067   1.758   9.423
   55CHL1  H12A 6508   0.139   1.820   9.364
   55CHL1  H12B 6509  -0.036   1.798   9.425
   55CHL1   C11 6510   0.125   1.736   9.556
   55CHL1  H11A 6511   0.235   1.722   9.555
   55CHL1  H11B 6512   0.094   1.824   9.617
   55CHL1    C9 6513   0.068   1.610   9.635
   55CHL1    H9 6514  -0.040   1.634   9.651
   55CHL1   C10 6515   0.135   1.573   9.770
   55CHL1   C19 6516   0.286   1.544   9.745
   55CHL1  H19A 6517   0.347   1.628   9.707
   55CHL1  H19B 6518   0.342   1.503   9.832
   55CHL1  H19C 6519   0.301   1.455   9.680
   55CHL1    C1 6520   0.121   1.691   9.870
   55CHL1   H1A 6521   0.179   1.776   9.827
   55CHL1   H1B 6522   0.015   1.714   9.851
   55CHL1    C2 6523   0.151   1.669  10.014
   55CHL1   H2A 6524   0.117   1.750  10.082
   55CHL1   H2B 6525   0.261   1.662  10.028
   55CHL1   C20 6526   0.021   1.685   9.081
   55CHL1   H20 6527   0.098   1.624   9.030
   55CHL1   C21 6528   0.061   1.829   9.107
   55CHL1  H21A 6529   0.075   1.879   9.009
   55CHL1  H21B 6530   0.155   1.833   9.167
   55CHL1  H21C 6531  -0.013   1.890   9.162
   55CHL1   C22 6532  -0.101   1.697   8.987
   55CHL1  H22A 6533  -0.134   1.592   8.971
   55CHL1  H22B 6534  -0.187   1.754   9.031
   55CHL1   C23 6535  -0.065   1.742   8.837
   55CHL1  H23A 6536  -0.020   1.843   8.836
   55CHL1  H23B 6537   0.014   1.669   8.811
   55CHL1   C24 6538  -0.187   1.740   8.746
   55CHL1  H24A 6539  -0.214   1.635   8.722
   55CHL1  H24B 6540  -0.271   1.794   8.795
   55CHL1   C25 6541  -0.166   1.812   8.613
   55CHL1   H25 6542  -0.253   1.791   8.548
   55CHL1   C26 6543  -0.158   1.965   8.629
   55CHL1  H26A 6544  -0.255   1.997   8.672
   55CHL1  H26B 6545  -0.076   1.997   8.697
   55CHL1  H26C 6546  -0.118   2.007   8.534
   55CHL1   C27 6547  -0.040   1.762   8.530
   55CHL1  H27A 6548  -0.039   1.653   8.510
   55CHL1  H27B 6549  -0.030   1.806   8.429
   55CHL1  H27C 6550   0.054   1.779   8.588
   56CHL1    C3 6551   4.843   6.454  10.060
   56CHL1    H3 6552   4.950   6.428  10.077
   56CHL1    O3 6553   4.771   6.485  10.177
   56CHL1   H3' 6554   4.681   6.452  10.172
   56CHL1    C4 6555   4.845   6.575   9.964
   56CHL1   H4A 6556   4.742   6.617   9.966
   56CHL1   H4B 6557   4.916   6.645  10.013
   56CHL1    C5 6558   4.881   6.544   9.816
   56CHL1    C6 6559   4.983   6.613   9.757
   56CHL1    H6 6560   5.034   6.696   9.807
   56CHL1    C7 6561   5.026   6.580   9.616
   56CHL1   H7A 6562   5.042   6.670   9.553
   56CHL1   H7B 6563   5.125   6.531   9.625
   56CHL1    C8 6564   4.937   6.482   9.531
   56CHL1    H8 6565   4.837   6.522   9.504
   56CHL1   C14 6566   5.020   6.419   9.418
   56CHL1   H14 6567   5.101   6.356   9.461
   56CHL1   C15 6568   5.090   6.513   9.324
   56CHL1  H15A 6569   5.029   6.601   9.294
   56CHL1  H15B 6570   5.189   6.542   9.364
   56CHL1   C16 6571   5.111   6.429   9.198
   56CHL1  H16A 6572   5.070   6.485   9.111
   56CHL1  H16B 6573   5.222   6.425   9.185
   56CHL1   C17 6574   5.040   6.291   9.212
   56CHL1   H17 6575   5.116   6.218   9.248
   56CHL1   C13 6576   4.940   6.322   9.324
   56CHL1   C18 6577   4.803   6.398   9.277
   56CHL1  H18A 6578   4.745   6.321   9.221
   56CHL1  H18B 6579   4.743   6.426   9.367
   56CHL1  H18C 6580   4.830   6.489   9.220
   56CHL1   C12 6581   4.902   6.204   9.410
   56CHL1  H12A 6582   4.838   6.129   9.358
   56CHL1  H12B 6583   4.987   6.134   9.429
   56CHL1   C11 6584   4.824   6.253   9.544
   56CHL1  H11A 6585   4.716   6.270   9.524
   56CHL1  H11B 6586   4.823   6.165   9.612
   56CHL1    C9 6587   4.894   6.366   9.622
   56CHL1    H9 6588   4.993   6.328   9.655
   56CHL1   C10 6589   4.820   6.420   9.752
   56CHL1   C19 6590   4.673   6.453   9.716
   56CHL1  H19A 6591   4.619   6.515   9.790
   56CHL1  H19B 6592   4.660   6.497   9.615
   56CHL1  H19C 6593   4.614   6.359   9.709
   56CHL1    C1 6594   4.818   6.306   9.859
   56CHL1   H1A 6595   4.752   6.223   9.824
   56CHL1   H1B 6596   4.915   6.254   9.872
   56CHL1    C2 6597   4.763   6.343   9.996
   56CHL1   H2A 6598   4.758   6.253  10.060
   56CHL1   H2B 6599   4.655   6.370   9.986
   56CHL1   C20 6600   4.992   6.229   9.077
   56CHL1   H20 6601   4.907   6.285   9.032
   56CHL1   C21 6602   4.955   6.084   9.113
   56CHL1  H21A 6603   5.021   6.038   9.190
   56CHL1  H21B 6604   4.962   6.018   9.024
   56CHL1  H21C 6605   4.852   6.079   9.154
   56CHL1   C22 6606   5.112   6.245   8.978
   56CHL1  H22A 6607   5.164   6.343   8.980
   56CHL1  H22B 6608   5.191   6.172   9.008
   56CHL1   C23 6609   5.069   6.232   8.837
   56CHL1  H23A 6610   5.008   6.140   8.826
   56CHL1  H23B 6611   4.998   6.317   8.827
   56CHL1   C24 6612   5.183   6.233   8.737
   56CHL1  H24A 6613   5.244   6.326   8.745
   56CHL1  H24B 6614   5.244   6.146   8.767
   56CHL1   C25 6615   5.134   6.201   8.591
   56CHL1   H25 6616   5.078   6.106   8.584
   56CHL1   C26 6617   5.047   6.303   8.531
   56CHL1  H26A 6618   5.015   6.276   8.428
   56CHL1  H26B 6619   4.950   6.300   8.585
   56CHL1  H26C 6620   5.101   6.400   8.532
   56CHL1   C27 6621   5.259   6.196   8.505
   56CHL1  H27A 6622   5.232   6.190   8.397
   56CHL1  H27B 6623   5.326   6.285   8.511
   56CHL1  H27C 6624   5.312   6.100   8.522
   57CHL1    C3 6625   0.556   2.463  10.287
   57CHL1    H3 6626   0.666   2.482  10.295
   57CHL1    O3 6627   0.513   2.426  10.421
   57CHL1   H3' 6628   0.418   2.423  10.407
   57CHL1    C4 6629   0.471   2.577  10.239
   57CHL1   H4A 6630   0.362   2.555  10.248
   57CHL1   H4B 6631   0.496   2.656  10.313
   57CHL1    C5 6632   0.503   2.612  10.098
   57CHL1    C6 6633   0.538   2.732  10.060
   57CHL1    H6 6634   0.525   2.807  10.140
   57CHL1    C7 6635   0.569   2.779   9.920
   57CHL1   H7A 6636   0.514   2.871   9.892
   57CHL1   H7B 6637   0.673   2.818   9.928
   57CHL1    C8 6638   0.547   2.673   9.816
   57CHL1    H8 6639   0.437   2.681   9.802
   57CHL1   C14 6640   0.623   2.693   9.682
   57CHL1   H14 6641   0.733   2.682   9.696
   57CHL1   C15 6642   0.600   2.838   9.618
   57CHL1  H15A 6643   0.502   2.871   9.658
   57CHL1  H15B 6644   0.677   2.911   9.650
   57CHL1   C16 6645   0.628   2.815   9.466
   57CHL1  H16A 6646   0.543   2.853   9.407
   57CHL1  H16B 6647   0.712   2.878   9.430
   57CHL1   C17 6648   0.652   2.661   9.446
   57CHL1   H17 6649   0.761   2.651   9.461
   57CHL1   C13 6650   0.579   2.593   9.571
   57CHL1   C18 6651   0.428   2.602   9.539
   57CHL1  H18A 6652   0.365   2.562   9.621
   57CHL1  H18B 6653   0.394   2.708   9.539
   57CHL1  H18C 6654   0.399   2.539   9.453
   57CHL1   C12 6655   0.623   2.454   9.623
   57CHL1  H12A 6656   0.586   2.375   9.554
   57CHL1  H12B 6657   0.732   2.444   9.641
   57CHL1   C11 6658   0.549   2.419   9.759
   57CHL1  H11A 6659   0.443   2.411   9.728
   57CHL1  H11B 6660   0.579   2.321   9.803
   57CHL1    C9 6661   0.574   2.528   9.860
   57CHL1    H9 6662   0.683   2.523   9.878
   57CHL1   C10 6663   0.512   2.501   9.995
   57CHL1   C19 6664   0.367   2.458   9.970
   57CHL1  H19A 6665   0.351   2.362   9.917
   57CHL1  H19B 6666   0.317   2.429  10.065
   57CHL1  H19C 6667   0.306   2.526   9.908
   57CHL1    C1 6668   0.593   2.380  10.063
   57CHL1   H1A 6669   0.593   2.284  10.007
   57CHL1   H1B 6670   0.696   2.415  10.082
   57CHL1    C2 6671   0.538   2.341  10.201
   57CHL1   H2A 6672   0.585   2.247  10.238
   57CHL1   H2B 6673   0.434   2.304  10.189
   57CHL1   C20 6674   0.623   2.616   9.305
   57CHL1   H20 6675   0.512   2.607   9.296
   57CHL1   C21 6676   0.676   2.478   9.277
   57CHL1  H21A 6677   0.684   2.458   9.168
   57CHL1  H21B 6678   0.613   2.397   9.320
   57CHL1  H21C 6679   0.779   2.468   9.316
   57CHL1   C22 6680   0.670   2.702   9.186
   57CHL1  H22A 6681   0.656   2.809   9.214
   57CHL1  H22B 6682   0.780   2.691   9.181
   57CHL1   C23 6683   0.603   2.678   9.051
   57CHL1  H23A 6684   0.567   2.574   9.036
   57CHL1  H23B 6685   0.513   2.743   9.046
   57CHL1   C24 6686   0.687   2.700   8.925
   57CHL1  H24A 6687   0.706   2.810   8.927
   57CHL1  H24B 6688   0.785   2.650   8.939
   57CHL1   C25 6689   0.616   2.644   8.800
   57CHL1   H25 6690   0.633   2.534   8.812
   57CHL1   C26 6691   0.470   2.688   8.772
   57CHL1  H26A 6692   0.441   2.655   8.670
   57CHL1  H26B 6693   0.394   2.663   8.849
   57CHL1  H26C 6694   0.470   2.799   8.760
   57CHL1   C27 6695   0.697   2.690   8.679
   57CHL1  H27A 6696   0.798   2.644   8.688
   57CHL1  H27B 6697   0.645   2.635   8.598
   57CHL1  H27C 6698   0.685   2.798   8.658
   58CHL1    C3 6699   3.287   1.115  10.049
   58CHL1    H3 6700   3.206   1.191  10.050
   58CHL1    O3 6701   3.325   1.113  10.183
   58CHL1   H3' 6702   3.287   1.189  10.227
   58CHL1    C4 6703   3.233   0.989   9.983
   58CHL1   H4A 6704   3.307   0.906   9.984
   58CHL1   H4B 6705   3.148   0.966  10.051
   58CHL1    C5 6706   3.200   1.006   9.839
   58CHL1    C6 6707   3.079   0.980   9.787
   58CHL1    H6 6708   2.995   0.950   9.851
   58CHL1    C7 6709   3.049   0.987   9.638
   58CHL1   H7A 6710   2.995   0.893   9.614
   58CHL1   H7B 6711   2.973   1.064   9.616
   58CHL1    C8 6712   3.173   1.001   9.542
   58CHL1    H8 6713   3.225   0.903   9.534
   58CHL1   C14 6714   3.123   1.052   9.411
   58CHL1   H14 6715   3.078   1.153   9.422
   58CHL1   C15 6716   3.012   0.968   9.344
   58CHL1  H15A 6717   3.023   0.860   9.369
   58CHL1  H15B 6718   2.916   1.008   9.384
   58CHL1   C16 6719   3.031   1.004   9.197
   58CHL1  H16A 6720   3.070   0.906   9.160
   58CHL1  H16B 6721   2.942   1.040   9.143
   58CHL1   C17 6722   3.155   1.102   9.188
   58CHL1   H17 6723   3.112   1.205   9.191
   58CHL1   C13 6724   3.234   1.074   9.314
   58CHL1   C18 6725   3.319   0.946   9.285
   58CHL1  H18A 6726   3.404   0.958   9.216
   58CHL1  H18B 6727   3.364   0.912   9.380
   58CHL1  H18C 6728   3.254   0.859   9.260
   58CHL1   C12 6729   3.325   1.198   9.371
   58CHL1  H12A 6730   3.408   1.212   9.299
   58CHL1  H12B 6731   3.251   1.279   9.388
   58CHL1   C11 6732   3.379   1.164   9.516
   58CHL1  H11A 6733   3.441   1.075   9.493
   58CHL1  H11B 6734   3.447   1.247   9.543
   58CHL1    C9 6735   3.269   1.111   9.608
   58CHL1    H9 6736   3.198   1.196   9.623
   58CHL1   C10 6737   3.314   1.068   9.751
   58CHL1   C19 6738   3.420   0.958   9.740
   58CHL1  H19A 6739   3.476   0.927   9.831
   58CHL1  H19B 6740   3.378   0.868   9.691
   58CHL1  H19C 6741   3.497   1.000   9.672
   58CHL1    C1 6742   3.374   1.189   9.818
   58CHL1   H1A 6743   3.454   1.235   9.756
   58CHL1   H1B 6744   3.290   1.262   9.831
   58CHL1    C2 6745   3.405   1.166   9.966
   58CHL1   H2A 6746   3.449   1.261  10.003
   58CHL1   H2B 6747   3.484   1.088   9.970
   58CHL1   C20 6748   3.231   1.095   9.054
   58CHL1   H20 6749   3.283   0.997   9.043
   58CHL1   C21 6750   3.340   1.194   9.041
   58CHL1  H21A 6751   3.298   1.288   9.083
   58CHL1  H21B 6752   3.367   1.207   8.934
   58CHL1  H21C 6753   3.427   1.167   9.104
   58CHL1   C22 6754   3.127   1.113   8.942
   58CHL1  H22A 6755   3.045   1.039   8.953
   58CHL1  H22B 6756   3.091   1.217   8.931
   58CHL1   C23 6757   3.178   1.099   8.800
   58CHL1  H23A 6758   3.288   1.083   8.810
   58CHL1  H23B 6759   3.144   1.006   8.749
   58CHL1   C24 6760   3.163   1.225   8.712
   58CHL1  H24A 6761   3.055   1.217   8.686
   58CHL1  H24B 6762   3.181   1.326   8.755
   58CHL1   C25 6763   3.240   1.236   8.580
   58CHL1   H25 6764   3.341   1.268   8.613
   58CHL1   C26 6765   3.264   1.098   8.519
   58CHL1  H26A 6766   3.340   1.039   8.573
   58CHL1  H26B 6767   3.169   1.041   8.511
   58CHL1  H26C 6768   3.307   1.114   8.417
   58CHL1   C27 6769   3.177   1.327   8.478
   58CHL1  H27A 6770   3.179   1.432   8.516
   58CHL1  H27B 6771   3.229   1.334   8.380
   58CHL1  H27C 6772   3.074   1.297   8.452
   59CHL1    C3 6773   2.548   0.404  10.365
   59CHL1    H3 6774   2.470   0.483  10.362
   59CHL1    O3 6775   2.591   0.393  10.500
   59CHL1   H3' 6776   2.668   0.337  10.502
   59CHL1    C4 6777   2.498   0.266  10.319
   59CHL1   H4A 6778   2.581   0.194  10.337
   59CHL1   H4B 6779   2.415   0.238  10.387
   59CHL1    C5 6780   2.464   0.264  10.171
   59CHL1    C6 6781   2.340   0.236  10.133
   59CHL1    H6 6782   2.267   0.211  10.210
   59CHL1    C7 6783   2.296   0.235   9.989
   59CHL1   H7A 6784   2.221   0.156   9.967
   59CHL1   H7B 6785   2.237   0.328   9.975
   59CHL1    C8 6786   2.411   0.224   9.891
   59CHL1    H8 6787   2.453   0.122   9.899
   59CHL1   C14 6788   2.372   0.264   9.746
   59CHL1   H14 6789   2.345   0.372   9.749
   59CHL1   C15 6790   2.244   0.193   9.682
   59CHL1  H15A 6791   2.253   0.083   9.694
   59CHL1  H15B 6792   2.158   0.240   9.734
   59CHL1   C16 6793   2.257   0.233   9.535
   59CHL1  H16A 6794   2.236   0.139   9.479
   59CHL1  H16B 6795   2.175   0.303   9.508
   59CHL1   C17 6796   2.396   0.290   9.511
   59CHL1   H17 6797   2.390   0.400   9.512
   59CHL1   C13 6798   2.476   0.250   9.644
   59CHL1   C18 6799   2.523   0.102   9.633
   59CHL1  H18A 6800   2.595   0.088   9.549
   59CHL1  H18B 6801   2.570   0.069   9.728
   59CHL1  H18C 6802   2.443   0.028   9.611
   59CHL1   C12 6803   2.582   0.352   9.694
   59CHL1  H12A 6804   2.659   0.365   9.615
   59CHL1  H12B 6805   2.545   0.457   9.690
   59CHL1   C11 6806   2.635   0.308   9.827
   59CHL1  H11A 6807   2.691   0.212   9.822
   59CHL1  H11B 6808   2.709   0.388   9.847
   59CHL1    C9 6809   2.531   0.312   9.933
   59CHL1    H9 6810   2.478   0.409   9.927
   59CHL1   C10 6811   2.581   0.308  10.078
   59CHL1   C19 6812   2.695   0.205  10.078
   59CHL1  H19A 6813   2.795   0.238  10.042
   59CHL1  H19B 6814   2.713   0.173  10.182
   59CHL1  H19C 6815   2.671   0.108  10.029
   59CHL1    C1 6816   2.631   0.445  10.130
   59CHL1   H1A 6817   2.723   0.471  10.072
   59CHL1   H1B 6818   2.553   0.521  10.108
   59CHL1    C2 6819   2.667   0.445  10.281
   59CHL1   H2A 6820   2.695   0.545  10.318
   59CHL1   H2B 6821   2.767   0.397  10.287
   59CHL1   C20 6822   2.463   0.250   9.373
   59CHL1   H20 6823   2.487   0.142   9.368
   59CHL1   C21 6824   2.602   0.327   9.357
   59CHL1  H21A 6825   2.589   0.437   9.359
   59CHL1  H21B 6826   2.650   0.316   9.258
   59CHL1  H21C 6827   2.676   0.301   9.436
   59CHL1   C22 6828   2.374   0.289   9.253
   59CHL1  H22A 6829   2.443   0.269   9.168
   59CHL1  H22B 6830   2.289   0.218   9.246
   59CHL1   C23 6831   2.330   0.435   9.241
   59CHL1  H23A 6832   2.281   0.462   9.337
   59CHL1  H23B 6833   2.419   0.502   9.239
   59CHL1   C24 6834   2.241   0.455   9.118
   59CHL1  H24A 6835   2.147   0.395   9.114
   59CHL1  H24B 6836   2.196   0.557   9.121
   59CHL1   C25 6837   2.312   0.440   8.977
   59CHL1   H25 6838   2.312   0.330   8.966
   59CHL1   C26 6839   2.229   0.507   8.869
   59CHL1  H26A 6840   2.219   0.615   8.894
   59CHL1  H26B 6841   2.276   0.477   8.773
   59CHL1  H26C 6842   2.123   0.474   8.870
   59CHL1   C27 6843   2.461   0.502   8.974
   59CHL1  H27A 6844   2.512   0.489   8.876
   59CHL1  H27B 6845   2.454   0.608   9.008
   59CHL1  H27C 6846   2.523   0.448   9.049
   60CHL1    C3 6847   1.960   6.023  10.281
   60CHL1    H3 6848   1.903   5.950  10.219
   60CHL1    O3 6849   1.937   5.986  10.418
   60CHL1   H3' 6850   1.989   6.048  10.468
   60CHL1    C4 6851   2.110   6.019  10.252
   60CHL1   H4A 6852   2.156   6.091  10.322
   60CHL1   H4B 6853   2.144   5.913  10.258
   60CHL1    C5 6854   2.142   6.062  10.107
   60CHL1    C6 6855   2.214   5.981  10.021
   60CHL1    H6 6856   2.240   5.879  10.052
   60CHL1    C7 6857   2.249   6.029   9.884
   60CHL1   H7A 6858   2.353   6.002   9.856
   60CHL1   H7B 6859   2.178   5.992   9.807
   60CHL1    C8 6860   2.255   6.182   9.876
   60CHL1    H8 6861   2.343   6.225   9.930
   60CHL1   C14 6862   2.274   6.232   9.729
   60CHL1   H14 6863   2.190   6.175   9.684
   60CHL1   C15 6864   2.392   6.182   9.646
   60CHL1  H15A 6865   2.488   6.205   9.696
   60CHL1  H15B 6866   2.394   6.072   9.626
   60CHL1   C16 6867   2.385   6.270   9.518
   60CHL1  H16A 6868   2.493   6.289   9.501
   60CHL1  H16B 6869   2.348   6.227   9.423
   60CHL1   C17 6870   2.289   6.387   9.554
   60CHL1   H17 6871   2.198   6.354   9.500
   60CHL1   C13 6872   2.259   6.382   9.705
   60CHL1   C18 6873   2.368   6.457   9.785
   60CHL1  H18A 6874   2.365   6.567   9.772
   60CHL1  H18B 6875   2.359   6.428   9.892
   60CHL1  H18C 6876   2.469   6.421   9.756
   60CHL1   C12 6877   2.119   6.417   9.751
   60CHL1  H12A 6878   2.110   6.526   9.734
   60CHL1  H12B 6879   2.046   6.367   9.683
   60CHL1   C11 6880   2.091   6.392   9.902
   60CHL1  H11A 6881   2.168   6.450   9.958
   60CHL1  H11B 6882   1.990   6.430   9.928
   60CHL1    C9 6883   2.120   6.242   9.932
   60CHL1    H9 6884   2.037   6.193   9.877
   60CHL1   C10 6885   2.101   6.206  10.078
   60CHL1   C19 6886   2.173   6.316  10.164
   60CHL1  H19A 6887   2.182   6.290  10.272
   60CHL1  H19B 6888   2.277   6.329  10.129
   60CHL1  H19C 6889   2.126   6.417  10.160
   60CHL1    C1 6890   1.946   6.201  10.121
   60CHL1   H1A 6891   1.906   6.304  10.106
   60CHL1   H1B 6892   1.894   6.132  10.051
   60CHL1    C2 6893   1.901   6.155  10.260
   60CHL1   H2A 6894   1.791   6.161  10.255
   60CHL1   H2B 6895   1.951   6.223  10.333
   60CHL1   C20 6896   2.333   6.526   9.498
   60CHL1   H20 6897   2.423   6.546   9.559
   60CHL1   C21 6898   2.223   6.626   9.526
   60CHL1  H21A 6899   2.125   6.574   9.515
   60CHL1  H21B 6900   2.223   6.719   9.467
   60CHL1  H21C 6901   2.233   6.661   9.631
   60CHL1   C22 6902   2.367   6.514   9.346
   60CHL1  H22A 6903   2.452   6.444   9.335
   60CHL1  H22B 6904   2.284   6.456   9.299
   60CHL1   C23 6905   2.399   6.646   9.281
   60CHL1  H23A 6906   2.307   6.705   9.259
   60CHL1  H23B 6907   2.466   6.713   9.339
   60CHL1   C24 6908   2.460   6.624   9.145
   60CHL1  H24A 6909   2.527   6.537   9.161
   60CHL1  H24B 6910   2.376   6.589   9.082
   60CHL1   C25 6911   2.529   6.742   9.072
   60CHL1   H25 6912   2.596   6.790   9.146
   60CHL1   C26 6913   2.612   6.688   8.955
   60CHL1  H26A 6914   2.681   6.761   8.909
   60CHL1  H26B 6915   2.678   6.602   8.979
   60CHL1  H26C 6916   2.546   6.654   8.873
   60CHL1   C27 6917   2.424   6.831   9.006
   60CHL1  H27A 6918   2.342   6.777   8.954
   60CHL1  H27B 6919   2.376   6.892   9.086
   60CHL1  H27C 6920   2.462   6.910   8.938
   61CHL1    C3 6921   5.430   5.375  10.333
   61CHL1    H3 6922   5.381   5.281  10.301
   61CHL1    O3 6923   5.376   5.416  10.459
   61CHL1   H3' 6924   5.430   5.490  10.488
   61CHL1    C4 6925   5.580   5.335  10.345
   61CHL1   H4A 6926   5.638   5.412  10.401
   61CHL1   H4B 6927   5.594   5.245  10.409
   61CHL1    C5 6928   5.645   5.310  10.209
   61CHL1    C6 6929   5.690   5.190  10.185
   61CHL1    H6 6930   5.690   5.112  10.263
   61CHL1    C7 6931   5.771   5.160  10.067
   61CHL1   H7A 6932   5.858   5.104  10.108
   61CHL1   H7B 6933   5.725   5.083  10.002
   61CHL1    C8 6934   5.808   5.289   9.983
   61CHL1    H8 6935   5.892   5.341  10.034
   61CHL1   C14 6936   5.863   5.246   9.846
   61CHL1   H14 6937   5.782   5.196   9.789
   61CHL1   C15 6938   5.990   5.158   9.845
   61CHL1  H15A 6939   6.063   5.181   9.925
   61CHL1  H15B 6940   5.978   5.048   9.838
   61CHL1   C16 6941   6.060   5.191   9.707
   61CHL1  H16A 6942   6.162   5.233   9.720
   61CHL1  H16B 6943   6.068   5.104   9.639
   61CHL1   C17 6944   5.971   5.299   9.645
   61CHL1   H17 6945   5.886   5.249   9.594
   61CHL1   C13 6946   5.900   5.371   9.760
   61CHL1   C18 6947   6.001   5.469   9.820
   61CHL1  H18A 6948   6.096   5.417   9.846
   61CHL1  H18B 6949   6.022   5.559   9.759
   61CHL1  H18C 6950   5.956   5.510   9.913
   61CHL1   C12 6951   5.773   5.446   9.728
   61CHL1  H12A 6952   5.786   5.531   9.657
   61CHL1  H12B 6953   5.695   5.379   9.687
   61CHL1   C11 6954   5.707   5.492   9.859
   61CHL1  H11A 6955   5.771   5.569   9.907
   61CHL1  H11B 6956   5.609   5.540   9.839
   61CHL1    C9 6957   5.689   5.380   9.968
   61CHL1    H9 6958   5.610   5.313   9.929
   61CHL1   C10 6959   5.637   5.425  10.110
   61CHL1   C19 6960   5.724   5.541  10.158
   61CHL1  H19A 6961   5.716   5.635  10.099
   61CHL1  H19B 6962   5.694   5.575  10.260
   61CHL1  H19C 6963   5.831   5.513  10.166
   61CHL1    C1 6964   5.493   5.468  10.100
   61CHL1   H1A 6965   5.482   5.557  10.033
   61CHL1   H1B 6966   5.434   5.384  10.059
   61CHL1    C2 6967   5.424   5.495  10.238
   61CHL1   H2A 6968   5.319   5.524  10.217
   61CHL1   H2B 6969   5.470   5.577  10.297
   61CHL1   C20 6970   6.039   5.392   9.541
   61CHL1   H20 6971   5.989   5.491   9.546
   61CHL1   C21 6972   6.011   5.335   9.396
   61CHL1  H21A 6973   6.078   5.255   9.359
   61CHL1  H21B 6974   6.001   5.418   9.322
   61CHL1  H21C 6975   5.906   5.297   9.391
   61CHL1   C22 6976   6.190   5.424   9.551
   61CHL1  H22A 6977   6.211   5.459   9.654
   61CHL1  H22B 6978   6.238   5.325   9.539
   61CHL1   C23 6979   6.250   5.531   9.456
   61CHL1  H23A 6980   6.358   5.546   9.475
   61CHL1  H23B 6981   6.244   5.479   9.358
   61CHL1   C24 6982   6.181   5.668   9.459
   61CHL1  H24A 6983   6.071   5.668   9.450
   61CHL1  H24B 6984   6.206   5.724   9.552
   61CHL1   C25 6985   6.221   5.775   9.342
   61CHL1   H25 6986   6.330   5.757   9.330
   61CHL1   C26 6987   6.151   5.735   9.215
   61CHL1  H26A 6988   6.047   5.770   9.225
   61CHL1  H26B 6989   6.201   5.791   9.134
   61CHL1  H26C 6990   6.153   5.625   9.199
   61CHL1   C27 6991   6.191   5.920   9.370
   61CHL1  H27A 6992   6.083   5.938   9.385
   61CHL1  H27B 6993   6.233   5.953   9.468
   61CHL1  H27C 6994   6.234   5.987   9.292
   62CHL1    C3 6995   0.026   2.024   9.992
   62CHL1    H3 6996   0.056   1.933   9.936
   62CHL1    O3 6997   0.002   1.999  10.125
   62CHL1   H3' 6998  -0.030   2.080  10.165
   62CHL1    C4 6999   0.134   2.141   9.971
   62CHL1   H4A 7000   0.093   2.235  10.014
   62CHL1   H4B 7001   0.227   2.114  10.025
   62CHL1    C5 7002   0.153   2.158   9.820
   62CHL1    C6 7003   0.270   2.148   9.754
   62CHL1    H6 7004   0.358   2.142   9.821
   62CHL1    C7 7005   0.297   2.178   9.610
   62CHL1   H7A 7006   0.376   2.256   9.612
   62CHL1   H7B 7007   0.333   2.084   9.563
   62CHL1    C8 7008   0.176   2.228   9.531
   62CHL1    H8 7009   0.165   2.338   9.539
   62CHL1   C14 7010   0.192   2.198   9.384
   62CHL1   H14 7011   0.198   2.087   9.384
   62CHL1   C15 7012   0.318   2.246   9.309
   62CHL1  H15A 7013   0.326   2.354   9.335
   62CHL1  H15B 7014   0.407   2.190   9.346
   62CHL1   C16 7015   0.276   2.232   9.157
   62CHL1  H16A 7016   0.287   2.335   9.116
   62CHL1  H16B 7017   0.339   2.166   9.094
   62CHL1   C17 7018   0.124   2.201   9.158
   62CHL1   H17 7019   0.112   2.091   9.150
   62CHL1   C13 7020   0.073   2.240   9.303
   62CHL1   C18 7021   0.049   2.390   9.311
   62CHL1  H18A 7022  -0.051   2.398   9.264
   62CHL1  H18B 7023   0.031   2.426   9.415
   62CHL1  H18C 7024   0.108   2.460   9.248
   62CHL1   C12 7025  -0.047   2.154   9.355
   62CHL1  H12A 7026  -0.144   2.171   9.302
   62CHL1  H12B 7027  -0.011   2.049   9.354
   62CHL1   C11 7028  -0.080   2.185   9.497
   62CHL1  H11A 7029  -0.110   2.292   9.503
   62CHL1  H11B 7030  -0.165   2.121   9.529
   62CHL1    C9 7031   0.047   2.164   9.587
   62CHL1    H9 7032   0.063   2.054   9.579
   62CHL1   C10 7033   0.023   2.187   9.738
   62CHL1   C19 7034  -0.010   2.338   9.764
   62CHL1  H19A 7035   0.047   2.417   9.710
   62CHL1  H19B 7036  -0.119   2.355   9.748
   62CHL1  H19C 7037  -0.003   2.367   9.871
   62CHL1    C1 7038  -0.093   2.093   9.781
   62CHL1   H1A 7039  -0.193   2.134   9.755
   62CHL1   H1B 7040  -0.069   1.990   9.747
   62CHL1    C2 7041  -0.107   2.069   9.933
   62CHL1   H2A 7042  -0.170   1.978   9.945
   62CHL1   H2B 7043  -0.139   2.163   9.983
   62CHL1   C20 7044   0.042   2.266   9.042
   62CHL1   H20 7045   0.005   2.365   9.076
   62CHL1   C21 7046  -0.091   2.181   9.017
   62CHL1  H21A 7047  -0.069   2.073   9.001
   62CHL1  H21B 7048  -0.145   2.225   8.931
   62CHL1  H21C 7049  -0.152   2.206   9.106
   62CHL1   C22 7050   0.128   2.283   8.915
   62CHL1  H22A 7051   0.197   2.364   8.945
   62CHL1  H22B 7052   0.194   2.196   8.894
   62CHL1   C23 7053   0.056   2.329   8.789
   62CHL1  H23A 7054  -0.008   2.253   8.739
   62CHL1  H23B 7055  -0.003   2.416   8.825
   62CHL1   C24 7056   0.154   2.395   8.687
   62CHL1  H24A 7057   0.091   2.425   8.601
   62CHL1  H24B 7058   0.196   2.483   8.739
   62CHL1   C25 7059   0.256   2.298   8.629
   62CHL1   H25 7060   0.325   2.281   8.714
   62CHL1   C26 7061   0.198   2.166   8.582
   62CHL1  H26A 7062   0.122   2.191   8.505
   62CHL1  H26B 7063   0.283   2.112   8.535
   62CHL1  H26C 7064   0.140   2.101   8.652
   62CHL1   C27 7065   0.347   2.376   8.527
   62CHL1  H27A 7066   0.397   2.459   8.581
   62CHL1  H27B 7067   0.430   2.314   8.487
   62CHL1  H27C 7068   0.285   2.400   8.438
   63CHL1    C3 7069   1.393   3.717  10.436
   63CHL1    H3 7070   1.490   3.771  10.448
   63CHL1    O3 7071   1.340   3.677  10.563
   63CHL1   H3' 7072   1.266   3.617  10.550
   63CHL1    C4 7073   1.286   3.776  10.345
   63CHL1   H4A 7074   1.200   3.706  10.350
   63CHL1   H4B 7075   1.252   3.869  10.396
   63CHL1    C5 7076   1.327   3.797  10.205
   63CHL1    C6 7077   1.317   3.918  10.153
   63CHL1    H6 7078   1.289   4.002  10.218
   63CHL1    C7 7079   1.365   3.951  10.014
   63CHL1   H7A 7080   1.297   4.018   9.957
   63CHL1   H7B 7081   1.463   4.004  10.018
   63CHL1    C8 7082   1.369   3.830   9.922
   63CHL1    H8 7083   1.265   3.798   9.903
   63CHL1   C14 7084   1.441   3.872   9.792
   63CHL1   H14 7085   1.539   3.911   9.827
   63CHL1   C15 7086   1.386   3.989   9.712
   63CHL1  H15A 7087   1.276   3.981   9.699
   63CHL1  H15B 7088   1.404   4.091   9.751
   63CHL1   C16 7089   1.450   3.970   9.578
   63CHL1  H16A 7090   1.368   3.962   9.504
   63CHL1  H16B 7091   1.526   4.045   9.546
   63CHL1   C17 7092   1.529   3.836   9.583
   63CHL1   H17 7093   1.627   3.871   9.621
   63CHL1   C13 7094   1.457   3.761   9.693
   63CHL1   C18 7095   1.321   3.702   9.644
   63CHL1  H18A 7096   1.270   3.646   9.725
   63CHL1  H18B 7097   1.256   3.784   9.605
   63CHL1  H18C 7098   1.332   3.624   9.566
   63CHL1   C12 7099   1.543   3.656   9.762
   63CHL1  H12A 7100   1.538   3.563   9.702
   63CHL1  H12B 7101   1.649   3.682   9.782
   63CHL1   C11 7102   1.494   3.603   9.910
   63CHL1  H11A 7103   1.404   3.544   9.883
   63CHL1  H11B 7104   1.568   3.537   9.960
   63CHL1    C9 7105   1.449   3.722   9.999
   63CHL1    H9 7106   1.541   3.774  10.034
   63CHL1   C10 7107   1.378   3.672  10.125
   63CHL1   C19 7108   1.261   3.579  10.103
   63CHL1  H19A 7109   1.297   3.483  10.059
   63CHL1  H19B 7110   1.226   3.537  10.200
   63CHL1  H19C 7111   1.182   3.623  10.038
   63CHL1    C1 7112   1.489   3.615  10.224
   63CHL1   H1A 7113   1.537   3.527  10.176
   63CHL1   H1B 7114   1.563   3.697  10.235
   63CHL1    C2 7115   1.437   3.583  10.366
   63CHL1   H2A 7116   1.516   3.528  10.423
   63CHL1   H2B 7117   1.355   3.508  10.360
   63CHL1   C20 7118   1.539   3.766   9.437
   63CHL1   H20 7119   1.436   3.763   9.395
   63CHL1   C21 7120   1.607   3.627   9.465
   63CHL1  H21A 7121   1.644   3.588   9.367
   63CHL1  H21B 7122   1.530   3.561   9.510
   63CHL1  H21C 7123   1.695   3.632   9.533
   63CHL1   C22 7124   1.628   3.854   9.352
   63CHL1  H22A 7125   1.585   3.956   9.343
   63CHL1  H22B 7126   1.732   3.857   9.391
   63CHL1   C23 7127   1.638   3.820   9.195
   63CHL1  H23A 7128   1.707   3.888   9.140
   63CHL1  H23B 7129   1.678   3.717   9.189
   63CHL1   C24 7130   1.506   3.846   9.121
   63CHL1  H24A 7131   1.421   3.846   9.192
   63CHL1  H24B 7132   1.501   3.949   9.080
   63CHL1   C25 7133   1.468   3.750   9.006
   63CHL1   H25 7134   1.380   3.802   8.963
   63CHL1   C26 7135   1.573   3.765   8.907
   63CHL1  H26A 7136   1.654   3.690   8.922
   63CHL1  H26B 7137   1.531   3.750   8.804
   63CHL1  H26C 7138   1.611   3.868   8.917
   63CHL1   C27 7139   1.443   3.614   9.055
   63CHL1  H27A 7140   1.369   3.596   9.136
   63CHL1  H27B 7141   1.396   3.565   8.967
   63CHL1  H27C 7142   1.537   3.559   9.077
   64CHL1    C3 7143   0.614   3.155  10.038
   64CHL1    H3 7144   0.633   3.047  10.026
   64CHL1    O3 7145   0.580   3.173  10.173
   64CHL1   H3' 7146   0.545   3.262  10.183
   64CHL1    C4 7147   0.739   3.240  10.007
   64CHL1   H4A 7148   0.705   3.341  10.037
   64CHL1   H4B 7149   0.819   3.214  10.080
   64CHL1    C5 7150   0.782   3.244   9.861
   64CHL1    C6 7151   0.907   3.204   9.826
   64CHL1    H6 7152   0.989   3.197   9.899
   64CHL1    C7 7153   0.954   3.181   9.682
   64CHL1   H7A 7154   1.050   3.233   9.660
   64CHL1   H7B 7155   0.974   3.075   9.658
   64CHL1    C8 7156   0.856   3.251   9.583
   64CHL1    H8 7157   0.869   3.362   9.584
   64CHL1   C14 7158   0.873   3.201   9.441
   64CHL1   H14 7159   0.851   3.092   9.437
   64CHL1   C15 7160   1.015   3.208   9.386
   64CHL1  H15A 7161   1.040   3.313   9.410
   64CHL1  H15B 7162   1.080   3.130   9.431
   64CHL1   C16 7163   1.006   3.189   9.228
   64CHL1  H16A 7164   1.042   3.285   9.185
   64CHL1  H16B 7165   1.064   3.102   9.191
   64CHL1   C17 7166   0.854   3.184   9.198
   64CHL1   H17 7167   0.825   3.079   9.215
   64CHL1   C13 7168   0.793   3.262   9.327
   64CHL1   C18 7169   0.818   3.418   9.310
   64CHL1  H18A 7170   0.764   3.470   9.392
   64CHL1  H18B 7171   0.924   3.450   9.312
   64CHL1  H18C 7172   0.780   3.460   9.215
   64CHL1   C12 7173   0.642   3.236   9.362
   64CHL1  H12A 7174   0.582   3.295   9.290
   64CHL1  H12B 7175   0.634   3.126   9.357
   64CHL1   C11 7176   0.608   3.269   9.507
   64CHL1  H11A 7177   0.604   3.379   9.501
   64CHL1  H11B 7178   0.506   3.231   9.528
   64CHL1    C9 7179   0.710   3.227   9.614
   64CHL1    H9 7180   0.698   3.117   9.619
   64CHL1   C10 7181   0.670   3.264   9.761
   64CHL1   C19 7182   0.634   3.412   9.757
   64CHL1  H19A 7183   0.694   3.477   9.690
   64CHL1  H19B 7184   0.531   3.415   9.714
   64CHL1  H19C 7185   0.618   3.469   9.851
   64CHL1    C1 7186   0.541   3.177   9.799
   64CHL1   H1A 7187   0.450   3.204   9.741
   64CHL1   H1B 7188   0.567   3.070   9.786
   64CHL1    C2 7189   0.498   3.199   9.947
   64CHL1   H2A 7190   0.419   3.125   9.971
   64CHL1   H2B 7191   0.460   3.301   9.967
   64CHL1   C20 7192   0.818   3.230   9.054
   64CHL1   H20 7193   0.839   3.338   9.038
   64CHL1   C21 7194   0.669   3.202   9.028
   64CHL1  H21A 7195   0.650   3.238   8.925
   64CHL1  H21B 7196   0.601   3.250   9.102
   64CHL1  H21C 7197   0.653   3.093   9.037
   64CHL1   C22 7198   0.897   3.149   8.940
   64CHL1  H22A 7199   1.006   3.138   8.955
   64CHL1  H22B 7200   0.855   3.046   8.938
   64CHL1   C23 7201   0.878   3.204   8.800
   64CHL1  H23A 7202   0.783   3.259   8.786
   64CHL1  H23B 7203   0.964   3.270   8.777
   64CHL1   C24 7204   0.898   3.097   8.691
   64CHL1  H24A 7205   1.006   3.072   8.680
   64CHL1  H24B 7206   0.839   3.007   8.719
   64CHL1   C25 7207   0.846   3.137   8.556
   64CHL1   H25 7208   0.737   3.154   8.554
   64CHL1   C26 7209   0.910   3.262   8.495
   64CHL1  H26A 7210   0.873   3.286   8.393
   64CHL1  H26B 7211   0.900   3.357   8.552
   64CHL1  H26C 7212   1.018   3.240   8.479
   64CHL1   C27 7213   0.862   3.018   8.454
   64CHL1  H27A 7214   0.792   2.936   8.478
   64CHL1  H27B 7215   0.831   3.040   8.350
   64CHL1  H27C 7216   0.966   2.981   8.446
   65CHL1    C3 7217   3.255   0.304  10.220
   65CHL1    H3 7218   3.296   0.201  10.207
   65CHL1    O3 7219   3.271   0.325  10.355
   65CHL1   H3' 7220   3.270   0.420  10.364
   65CHL1    C4 7221   3.347   0.410  10.150
   65CHL1   H4A 7222   3.316   0.514  10.175
   65CHL1   H4B 7223   3.452   0.406  10.186
   65CHL1    C5 7224   3.328   0.397   9.998
   65CHL1    C6 7225   3.432   0.378   9.914
   65CHL1    H6 7226   3.537   0.370   9.946
   65CHL1    C7 7227   3.409   0.368   9.763
   65CHL1   H7A 7228   3.492   0.418   9.710
   65CHL1   H7B 7229   3.402   0.263   9.727
   65CHL1    C8 7230   3.277   0.443   9.719
   65CHL1    H8 7231   3.309   0.548   9.738
   65CHL1   C14 7232   3.254   0.424   9.574
   65CHL1   H14 7233   3.247   0.314   9.562
   65CHL1   C15 7234   3.355   0.472   9.470
   65CHL1  H15A 7235   3.371   0.578   9.499
   65CHL1  H15B 7236   3.451   0.418   9.470
   65CHL1   C16 7237   3.288   0.478   9.333
   65CHL1  H16A 7238   3.296   0.578   9.286
   65CHL1  H16B 7239   3.335   0.394   9.277
   65CHL1   C17 7240   3.137   0.448   9.362
   65CHL1   H17 7241   3.120   0.342   9.334
   65CHL1   C13 7242   3.119   0.478   9.515
   65CHL1   C18 7243   3.109   0.634   9.545
   65CHL1  H18A 7244   3.008   0.674   9.522
   65CHL1  H18B 7245   3.125   0.661   9.651
   65CHL1  H18C 7246   3.174   0.699   9.482
   65CHL1   C12 7247   3.012   0.398   9.589
   65CHL1  H12A 7248   2.910   0.434   9.564
   65CHL1  H12B 7249   3.005   0.290   9.563
   65CHL1   C11 7250   3.021   0.422   9.741
   65CHL1  H11A 7251   3.006   0.530   9.763
   65CHL1  H11B 7252   2.937   0.375   9.796
   65CHL1    C9 7253   3.155   0.394   9.799
   65CHL1    H9 7254   3.144   0.284   9.794
   65CHL1   C10 7255   3.180   0.420   9.956
   65CHL1   C19 7256   3.138   0.569   9.984
   65CHL1  H19A 7257   3.032   0.588   9.958
   65CHL1  H19B 7258   3.159   0.600  10.089
   65CHL1  H19C 7259   3.199   0.634   9.918
   65CHL1    C1 7260   3.083   0.325  10.034
   65CHL1   H1A 7261   2.977   0.356  10.024
   65CHL1   H1B 7262   3.101   0.221  10.000
   65CHL1    C2 7263   3.107   0.325  10.183
   65CHL1   H2A 7264   3.048   0.243  10.229
   65CHL1   H2B 7265   3.075   0.424  10.222
   65CHL1   C20 7266   3.041   0.524   9.266
   65CHL1   H20 7267   3.051   0.632   9.289
   65CHL1   C21 7268   2.900   0.467   9.291
   65CHL1  H21A 7269   2.902   0.356   9.278
   65CHL1  H21B 7270   2.831   0.520   9.222
   65CHL1  H21C 7271   2.855   0.489   9.390
   65CHL1   C22 7272   3.083   0.497   9.123
   65CHL1  H22A 7273   3.190   0.503   9.094
   65CHL1  H22B 7274   3.050   0.398   9.085
   65CHL1   C23 7275   3.033   0.603   9.017
   65CHL1  H23A 7276   2.923   0.610   9.024
   65CHL1  H23B 7277   3.078   0.700   9.049
   65CHL1   C24 7278   3.088   0.578   8.877
   65CHL1  H24A 7279   3.198   0.580   8.887
   65CHL1  H24B 7280   3.061   0.478   8.836
   65CHL1   C25 7281   3.027   0.689   8.785
   65CHL1   H25 7282   3.026   0.779   8.851
   65CHL1   C26 7283   3.111   0.717   8.665
   65CHL1  H26A 7284   3.091   0.637   8.591
   65CHL1  H26B 7285   3.069   0.814   8.629
   65CHL1  H26C 7286   3.216   0.741   8.692
   65CHL1   C27 7287   2.878   0.658   8.745
   65CHL1  H27A 7288   2.842   0.758   8.712
   65CHL1  H27B 7289   2.871   0.581   8.665
   65CHL1  H27C 7290   2.811   0.628   8.829
   66CHL1    C3 7291   0.854   5.254  10.684
   66CHL1    H3 7292   0.871   5.364  10.680
   66CHL1    O3 7293   0.842   5.225  10.823
   66CHL1   H3' 7294   0.758   5.179  10.833
   66CHL1    C4 7295   0.716   5.218  10.612
   66CHL1   H4A 7296   0.693   5.116  10.649
   66CHL1   H4B 7297   0.639   5.289  10.651
   66CHL1    C5 7298   0.724   5.227  10.464
   66CHL1    C6 7299   0.649   5.309  10.393
   66CHL1    H6 7300   0.576   5.364  10.454
   66CHL1    C7 7301   0.646   5.325  10.242
   66CHL1   H7A 7302   0.543   5.313  10.202
   66CHL1   H7B 7303   0.686   5.422  10.208
   66CHL1    C8 7304   0.736   5.216  10.177
   66CHL1    H8 7305   0.684   5.117  10.179
   66CHL1   C14 7306   0.766   5.252  10.027
   66CHL1   H14 7307   0.832   5.341  10.038
   66CHL1   C15 7308   0.649   5.292   9.938
   66CHL1  H15A 7309   0.563   5.221   9.943
   66CHL1  H15B 7310   0.621   5.397   9.959
   66CHL1   C16 7311   0.710   5.294   9.795
   66CHL1  H16A 7312   0.639   5.233   9.736
   66CHL1  H16B 7313   0.724   5.394   9.749
   66CHL1   C17 7314   0.848   5.231   9.801
   66CHL1   H17 7315   0.923   5.314   9.804
   66CHL1   C13 7316   0.847   5.158   9.947
   66CHL1   C18 7317   0.769   5.031   9.928
   66CHL1  H18A 7318   0.673   5.050   9.875
   66CHL1  H18B 7319   0.833   4.949   9.889
   66CHL1  H18C 7320   0.742   4.977  10.021
   66CHL1   C12 7321   0.979   5.136  10.020
   66CHL1  H12A 7322   1.022   5.046   9.971
   66CHL1  H12B 7323   1.051   5.219  10.005
   66CHL1   C11 7324   0.957   5.097  10.169
   66CHL1  H11A 7325   0.911   4.996  10.175
   66CHL1  H11B 7326   1.060   5.084  10.209
   66CHL1    C9 7327   0.868   5.194  10.249
   66CHL1    H9 7328   0.921   5.291  10.252
   66CHL1   C10 7329   0.847   5.156  10.400
   66CHL1   C19 7330   0.823   5.003  10.406
   66CHL1  H19A 7331   0.731   4.973  10.351
   66CHL1  H19B 7332   0.908   4.938  10.375
   66CHL1  H19C 7333   0.801   4.973  10.511
   66CHL1    C1 7334   0.975   5.187  10.472
   66CHL1   H1A 7335   1.059   5.122  10.439
   66CHL1   H1B 7336   1.006   5.291  10.450
   66CHL1    C2 7337   0.967   5.173  10.622
   66CHL1   H2A 7338   1.059   5.217  10.667
   66CHL1   H2B 7339   0.959   5.063  10.639
   66CHL1   C20 7340   0.893   5.150   9.686
   66CHL1   H20 7341   0.829   5.059   9.682
   66CHL1   C21 7342   1.039   5.103   9.695
   66CHL1  H21A 7343   1.109   5.190   9.690
   66CHL1  H21B 7344   1.062   5.033   9.612
   66CHL1  H21C 7345   1.055   5.042   9.787
   66CHL1   C22 7346   0.880   5.216   9.539
   66CHL1  H22A 7347   0.783   5.269   9.538
   66CHL1  H22B 7348   0.960   5.290   9.519
   66CHL1   C23 7349   0.897   5.114   9.425
   66CHL1  H23A 7350   0.993   5.058   9.433
   66CHL1  H23B 7351   0.819   5.034   9.430
   66CHL1   C24 7352   0.889   5.174   9.287
   66CHL1  H24A 7353   0.798   5.237   9.275
   66CHL1  H24B 7354   0.983   5.230   9.272
   66CHL1   C25 7355   0.878   5.069   9.172
   66CHL1   H25 7356   0.937   4.978   9.195
   66CHL1   C26 7357   0.738   5.012   9.154
   66CHL1  H26A 7358   0.744   4.920   9.092
   66CHL1  H26B 7359   0.707   4.975   9.254
   66CHL1  H26C 7360   0.667   5.089   9.119
   66CHL1   C27 7361   0.936   5.130   9.042
   66CHL1  H27A 7362   0.933   5.055   8.960
   66CHL1  H27B 7363   0.878   5.221   9.017
   66CHL1  H27C 7364   1.044   5.155   9.046
   67CHL1    C3 7365   5.029   5.665  10.329
   67CHL1    H3 7366   5.125   5.709  10.293
   67CHL1    O3 7367   5.032   5.668  10.471
   67CHL1   H3' 7368   4.938   5.656  10.486
   67CHL1    C4 7369   4.913   5.753  10.281
   67CHL1   H4A 7370   4.817   5.714  10.321
   67CHL1   H4B 7371   4.931   5.853  10.325
   67CHL1    C5 7372   4.909   5.759  10.134
   67CHL1    C6 7373   4.920   5.871  10.066
   67CHL1    H6 7374   4.925   5.965  10.123
   67CHL1    C7 7375   4.916   5.881   9.921
   67CHL1   H7A 7376   4.846   5.956   9.878
   67CHL1   H7B 7377   5.019   5.893   9.882
   67CHL1    C8 7378   4.861   5.747   9.856
   67CHL1    H8 7379   4.750   5.749   9.869
   67CHL1   C14 7380   4.892   5.754   9.711
   67CHL1   H14 7381   5.002   5.753   9.698
   67CHL1   C15 7382   4.853   5.883   9.633
   67CHL1  H15A 7383   4.749   5.906   9.665
   67CHL1  H15B 7384   4.924   5.961   9.667
   67CHL1   C16 7385   4.865   5.837   9.489
   67CHL1  H16A 7386   4.774   5.869   9.435
   67CHL1  H16B 7387   4.955   5.879   9.439
   67CHL1   C17 7388   4.867   5.682   9.482
   67CHL1   H17 7389   4.975   5.660   9.465
   67CHL1   C13 7390   4.841   5.634   9.626
   67CHL1   C18 7391   4.685   5.629   9.639
   67CHL1  H18A 7392   4.626   5.720   9.616
   67CHL1  H18B 7393   4.642   5.555   9.568
   67CHL1  H18C 7394   4.655   5.596   9.741
   67CHL1   C12 7395   4.911   5.504   9.681
   67CHL1  H12A 7396   4.868   5.415   9.629
   67CHL1  H12B 7397   5.016   5.509   9.644
   67CHL1   C11 7398   4.896   5.498   9.834
   67CHL1  H11A 7399   4.796   5.457   9.858
   67CHL1  H11B 7400   4.956   5.417   9.879
   67CHL1    C9 7401   4.924   5.627   9.918
   67CHL1    H9 7402   5.033   5.640   9.899
   67CHL1   C10 7403   4.899   5.615  10.075
   67CHL1   C19 7404   4.761   5.556  10.101
   67CHL1  H19A 7405   4.747   5.458  10.051
   67CHL1  H19B 7406   4.743   5.537  10.209
   67CHL1  H19C 7407   4.686   5.626  10.060
   67CHL1    C1 7408   5.013   5.510  10.130
   67CHL1   H1A 7409   5.000   5.408  10.091
   67CHL1   H1B 7410   5.107   5.559  10.097
   67CHL1    C2 7411   5.019   5.514  10.289
   67CHL1   H2A 7412   5.112   5.458  10.314
   67CHL1   H2B 7413   4.931   5.461  10.329
   67CHL1   C20 7414   4.789   5.617   9.366
   67CHL1   H20 7415   4.685   5.655   9.380
   67CHL1   C21 7416   4.808   5.465   9.360
   67CHL1  H21A 7417   4.761   5.419   9.271
   67CHL1  H21B 7418   4.753   5.419   9.444
   67CHL1  H21C 7419   4.918   5.450   9.368
   67CHL1   C22 7420   4.829   5.671   9.229
   67CHL1  H22A 7421   4.868   5.775   9.239
   67CHL1  H22B 7422   4.915   5.611   9.192
   67CHL1   C23 7423   4.707   5.691   9.133
   67CHL1  H23A 7424   4.657   5.592   9.121
   67CHL1  H23B 7425   4.643   5.767   9.183
   67CHL1   C24 7426   4.755   5.724   8.990
   67CHL1  H24A 7427   4.831   5.804   8.982
   67CHL1  H24B 7428   4.807   5.629   8.964
   67CHL1   C25 7429   4.642   5.736   8.886
   67CHL1   H25 7430   4.560   5.662   8.900
   67CHL1   C26 7431   4.573   5.875   8.899
   67CHL1  H26A 7432   4.524   5.897   8.802
   67CHL1  H26B 7433   4.491   5.879   8.974
   67CHL1  H26C 7434   4.646   5.954   8.926
   67CHL1   C27 7435   4.699   5.714   8.745
   67CHL1  H27A 7436   4.726   5.607   8.731
   67CHL1  H27B 7437   4.627   5.751   8.669
   67CHL1  H27C 7438   4.799   5.763   8.736
   68CHL1    C3 7439   3.099   6.679  10.305
   68CHL1    H3 7440   3.092   6.790  10.312
   68CHL1    O3 7441   3.075   6.631  10.435
   68CHL1   H3' 7442   3.056   6.537  10.427
   68CHL1    C4 7443   2.989   6.630  10.207
   68CHL1   H4A 7444   2.993   6.519  10.209
   68CHL1   H4B 7445   2.887   6.643  10.248
   68CHL1    C5 7446   3.022   6.691  10.070
   68CHL1    C6 7447   2.932   6.759  10.002
   68CHL1    H6 7448   2.834   6.778  10.048
   68CHL1    C7 7449   2.931   6.787   9.853
   68CHL1   H7A 7450   2.844   6.742   9.802
   68CHL1   H7B 7451   2.920   6.897   9.836
   68CHL1    C8 7452   3.052   6.729   9.785
   68CHL1    H8 7453   3.038   6.620   9.771
   68CHL1   C14 7454   3.070   6.802   9.655
   68CHL1   H14 7455   3.092   6.909   9.675
   68CHL1   C15 7456   2.945   6.820   9.564
   68CHL1  H15A 7457   2.889   6.725   9.571
   68CHL1  H15B 7458   2.869   6.899   9.584
   68CHL1   C16 7459   3.016   6.827   9.427
   68CHL1  H16A 7460   2.990   6.738   9.366
   68CHL1  H16B 7461   2.979   6.917   9.374
   68CHL1   C17 7462   3.168   6.827   9.445
   68CHL1   H17 7463   3.199   6.933   9.458
   68CHL1   C13 7464   3.183   6.747   9.575
   68CHL1   C18 7465   3.167   6.598   9.536
   68CHL1  H18A 7466   3.143   6.534   9.623
   68CHL1  H18B 7467   3.087   6.580   9.460
   68CHL1  H18C 7468   3.257   6.560   9.483
   68CHL1   C12 7469   3.316   6.763   9.658
   68CHL1  H12A 7470   3.402   6.719   9.605
   68CHL1  H12B 7471   3.338   6.869   9.684
   68CHL1   C11 7472   3.300   6.682   9.793
   68CHL1  H11A 7473   3.278   6.576   9.768
   68CHL1  H11B 7474   3.396   6.704   9.844
   68CHL1    C9 7475   3.180   6.729   9.878
   68CHL1    H9 7476   3.189   6.838   9.894
   68CHL1   C10 7477   3.163   6.659  10.015
   68CHL1   C19 7478   3.185   6.506  10.002
   68CHL1  H19A 7479   3.158   6.452  10.095
   68CHL1  H19B 7480   3.108   6.471   9.929
   68CHL1  H19C 7481   3.293   6.491   9.980
   68CHL1    C1 7482   3.264   6.713  10.120
   68CHL1   H1A 7483   3.367   6.691  10.087
   68CHL1   H1B 7484   3.254   6.824  10.129
   68CHL1    C2 7485   3.240   6.645  10.259
   68CHL1   H2A 7486   3.310   6.689  10.334
   68CHL1   H2B 7487   3.245   6.534  10.260
   68CHL1   C20 7488   3.242   6.772   9.314
   68CHL1   H20 7489   3.191   6.680   9.277
   68CHL1   C21 7490   3.390   6.728   9.331
   68CHL1  H21A 7491   3.412   6.630   9.379
   68CHL1  H21B 7492   3.458   6.802   9.379
   68CHL1  H21C 7493   3.431   6.709   9.230
   68CHL1   C22 7494   3.235   6.891   9.210
   68CHL1  H22A 7495   3.134   6.933   9.191
   68CHL1  H22B 7496   3.287   6.979   9.254
   68CHL1   C23 7497   3.286   6.858   9.072
   68CHL1  H23A 7498   3.396   6.848   9.073
   68CHL1  H23B 7499   3.244   6.758   9.047
   68CHL1   C24 7500   3.261   6.968   8.970
   68CHL1  H24A 7501   3.151   6.983   8.964
   68CHL1  H24B 7502   3.306   7.065   9.002
   68CHL1   C25 7503   3.299   6.930   8.826
   68CHL1   H25 7504   3.219   6.859   8.796
   68CHL1   C26 7505   3.280   7.056   8.736
   68CHL1  H26A 7506   3.276   7.011   8.634
   68CHL1  H26B 7507   3.178   7.096   8.750
   68CHL1  H26C 7508   3.358   7.134   8.743
   68CHL1   C27 7509   3.439   6.867   8.812
   68CHL1  H27A 7510   3.441   6.778   8.878
   68CHL1  H27B 7511   3.456   6.831   8.709
   68CHL1  H27C 7512   3.521   6.937   8.842
   69CHL1    C3 7513   2.467   4.677   6.787
   69CHL1    H3 7514   2.373   4.736   6.797
   69CHL1    O3 7515   2.477   4.646   6.650
   69CHL1   H3' 7516   2.548   4.584   6.633
   69CHL1    C4 7517   2.586   4.754   6.838
   69CHL1   H4A 7518   2.678   4.696   6.820
   69CHL1   H4B 7519   2.585   4.856   6.795
   69CHL1    C5 7520   2.571   4.777   6.988
   69CHL1    C6 7521   2.569   4.899   7.047
   69CHL1    H6 7522   2.581   4.987   6.982
   69CHL1    C7 7523   2.565   4.927   7.194
   69CHL1   H7A 7524   2.637   5.009   7.216
   69CHL1   H7B 7525   2.472   4.980   7.225
   69CHL1    C8 7526   2.586   4.803   7.290
   69CHL1    H8 7527   2.697   4.795   7.285
   69CHL1   C14 7528   2.532   4.826   7.429
   69CHL1   H14 7529   2.422   4.823   7.414
   69CHL1   C15 7530   2.579   4.954   7.499
   69CHL1  H15A 7531   2.684   4.984   7.477
   69CHL1  H15B 7532   2.519   5.044   7.474
   69CHL1   C16 7533   2.532   4.922   7.643
   69CHL1  H16A 7534   2.616   4.951   7.710
   69CHL1  H16B 7535   2.433   4.965   7.671
   69CHL1   C17 7536   2.504   4.763   7.656
   69CHL1   H17 7537   2.394   4.755   7.660
   69CHL1   C13 7538   2.554   4.709   7.523
   69CHL1   C18 7539   2.706   4.679   7.540
   69CHL1  H18A 7540   2.765   4.758   7.590
   69CHL1  H18B 7541   2.721   4.593   7.608
   69CHL1  H18C 7542   2.771   4.662   7.451
   69CHL1   C12 7543   2.479   4.590   7.462
   69CHL1  H12A 7544   2.513   4.504   7.523
   69CHL1  H12B 7545   2.369   4.589   7.474
   69CHL1   C11 7546   2.527   4.558   7.325
   69CHL1  H11A 7547   2.628   4.513   7.339
   69CHL1  H11B 7548   2.470   4.469   7.290
   69CHL1    C9 7549   2.518   4.675   7.225
   69CHL1    H9 7550   2.411   4.703   7.237
   69CHL1   C10 7551   2.549   4.645   7.071
   69CHL1   C19 7552   2.683   4.574   7.069
   69CHL1  H19A 7553   2.684   4.470   7.108
   69CHL1  H19B 7554   2.712   4.560   6.962
   69CHL1  H19C 7555   2.765   4.636   7.110
   69CHL1    C1 7556   2.427   4.567   7.012
   69CHL1   H1A 7557   2.410   4.466   7.054
   69CHL1   H1B 7558   2.338   4.628   7.037
   69CHL1    C2 7559   2.444   4.548   6.863
   69CHL1   H2A 7560   2.348   4.506   6.826
   69CHL1   H2B 7561   2.528   4.478   6.841
   69CHL1   C20 7562   2.556   4.705   7.786
   69CHL1   H20 7563   2.667   4.693   7.789
   69CHL1   C21 7564   2.491   4.558   7.797
   69CHL1  H21A 7565   2.536   4.491   7.720
   69CHL1  H21B 7566   2.380   4.564   7.788
   69CHL1  H21C 7567   2.516   4.521   7.899
   69CHL1   C22 7568   2.519   4.781   7.915
   69CHL1  H22A 7569   2.560   4.884   7.912
   69CHL1  H22B 7570   2.408   4.779   7.914
   69CHL1   C23 7571   2.553   4.720   8.059
   69CHL1  H23A 7572   2.486   4.632   8.068
   69CHL1  H23B 7573   2.659   4.688   8.054
   69CHL1   C24 7574   2.511   4.826   8.160
   69CHL1  H24A 7575   2.553   4.926   8.139
   69CHL1  H24B 7576   2.403   4.849   8.166
   69CHL1   C25 7577   2.562   4.803   8.304
   69CHL1   H25 7578   2.672   4.794   8.285
   69CHL1   C26 7579   2.553   4.939   8.390
   69CHL1  H26A 7580   2.650   4.988   8.412
   69CHL1  H26B 7581   2.475   5.007   8.350
   69CHL1  H26C 7582   2.507   4.905   8.485
   69CHL1   C27 7583   2.509   4.679   8.379
   69CHL1  H27A 7584   2.406   4.689   8.419
   69CHL1  H27B 7585   2.500   4.593   8.310
   69CHL1  H27C 7586   2.587   4.645   8.451
   70CHL1    C3 7587   1.932   1.375   7.123
   70CHL1    H3 7588   1.995   1.286   7.141
   70CHL1    O3 7589   1.935   1.419   6.987
   70CHL1   H3' 7590   2.022   1.460   6.987
   70CHL1    C4 7591   1.791   1.321   7.154
   70CHL1   H4A 7592   1.716   1.386   7.105
   70CHL1   H4B 7593   1.781   1.222   7.105
   70CHL1    C5 7594   1.764   1.298   7.299
   70CHL1    C6 7595   1.701   1.182   7.352
   70CHL1    H6 7596   1.660   1.106   7.284
   70CHL1    C7 7597   1.666   1.162   7.490
   70CHL1   H7A 7598   1.555   1.152   7.486
   70CHL1   H7B 7599   1.708   1.072   7.540
   70CHL1    C8 7600   1.698   1.286   7.584
   70CHL1    H8 7601   1.605   1.347   7.589
   70CHL1   C14 7602   1.710   1.249   7.731
   70CHL1   H14 7603   1.805   1.191   7.731
   70CHL1   C15 7604   1.605   1.165   7.801
   70CHL1  H15A 7605   1.503   1.200   7.775
   70CHL1  H15B 7606   1.622   1.060   7.770
   70CHL1   C16 7607   1.647   1.183   7.948
   70CHL1  H16A 7608   1.550   1.196   8.001
   70CHL1  H16B 7609   1.688   1.092   7.997
   70CHL1   C17 7610   1.750   1.294   7.964
   70CHL1   H17 7611   1.851   1.249   7.969
   70CHL1   C13 7612   1.741   1.363   7.832
   70CHL1   C18 7613   1.625   1.466   7.843
   70CHL1  H18A 7614   1.545   1.408   7.895
   70CHL1  H18B 7615   1.669   1.555   7.891
   70CHL1  H18C 7616   1.583   1.504   7.748
   70CHL1   C12 7617   1.872   1.433   7.782
   70CHL1  H12A 7618   1.895   1.525   7.840
   70CHL1  H12B 7619   1.959   1.364   7.788
   70CHL1   C11 7620   1.860   1.471   7.638
   70CHL1  H11A 7621   1.786   1.553   7.633
   70CHL1  H11B 7622   1.961   1.511   7.616
   70CHL1    C9 7623   1.822   1.357   7.541
   70CHL1    H9 7624   1.911   1.290   7.540
   70CHL1   C10 7625   1.815   1.407   7.386
   70CHL1   C19 7626   1.709   1.517   7.372
   70CHL1  H19A 7627   1.736   1.604   7.436
   70CHL1  H19B 7628   1.713   1.546   7.265
   70CHL1  H19C 7629   1.613   1.473   7.407
   70CHL1    C1 7630   1.953   1.459   7.352
   70CHL1   H1A 7631   1.962   1.558   7.402
   70CHL1   H1B 7632   2.032   1.385   7.377
   70CHL1    C2 7633   1.978   1.490   7.205
   70CHL1   H2A 7634   2.086   1.507   7.187
   70CHL1   H2B 7635   1.916   1.578   7.177
   70CHL1   C20 7636   1.739   1.369   8.104
   70CHL1   H20 7637   1.643   1.425   8.103
   70CHL1   C21 7638   1.851   1.473   8.117
   70CHL1  H21A 7639   1.838   1.522   8.216
   70CHL1  H21B 7640   1.823   1.557   8.050
   70CHL1  H21C 7641   1.951   1.426   8.124
   70CHL1   C22 7642   1.753   1.271   8.227
   70CHL1  H22A 7643   1.692   1.179   8.215
   70CHL1  H22B 7644   1.858   1.235   8.229
   70CHL1   C23 7645   1.699   1.325   8.364
   70CHL1  H23A 7646   1.749   1.422   8.385
   70CHL1  H23B 7647   1.596   1.364   8.348
   70CHL1   C24 7648   1.706   1.225   8.483
   70CHL1  H24A 7649   1.669   1.285   8.569
   70CHL1  H24B 7650   1.637   1.140   8.464
   70CHL1   C25 7651   1.849   1.164   8.515
   70CHL1   H25 7652   1.899   1.136   8.420
   70CHL1   C26 7653   1.946   1.251   8.596
   70CHL1  H26A 7654   2.045   1.202   8.601
   70CHL1  H26B 7655   1.955   1.353   8.551
   70CHL1  H26C 7656   1.906   1.254   8.700
   70CHL1   C27 7657   1.823   1.032   8.584
   70CHL1  H27A 7658   1.920   0.981   8.603
   70CHL1  H27B 7659   1.778   1.052   8.683
   70CHL1  H27C 7660   1.747   0.983   8.518
   71CHL1    C3 7661   1.253   3.892   6.803
   71CHL1    H3 7662   1.181   3.810   6.825
   71CHL1    O3 7663   1.233   3.923   6.671
   71CHL1   H3' 7664   1.292   3.995   6.649
   71CHL1    C4 7665   1.226   4.014   6.879
   71CHL1   H4A 7666   1.295   4.097   6.856
   71CHL1   H4B 7667   1.124   4.051   6.858
   71CHL1    C5 7668   1.246   3.982   7.033
   71CHL1    C6 7669   1.142   4.003   7.120
   71CHL1    H6 7670   1.048   4.033   7.071
   71CHL1    C7 7671   1.141   3.980   7.266
   71CHL1   H7A 7672   1.101   4.070   7.316
   71CHL1   H7B 7673   1.075   3.894   7.290
   71CHL1    C8 7674   1.278   3.948   7.323
   71CHL1    H8 7675   1.323   4.049   7.332
   71CHL1   C14 7676   1.264   3.879   7.460
   71CHL1   H14 7677   1.218   3.779   7.446
   71CHL1   C15 7678   1.170   3.945   7.558
   71CHL1  H15A 7679   1.177   4.056   7.555
   71CHL1  H15B 7680   1.064   3.931   7.529
   71CHL1   C16 7681   1.218   3.891   7.699
   71CHL1  H16A 7682   1.244   3.972   7.771
   71CHL1  H16B 7683   1.146   3.819   7.745
   71CHL1   C17 7684   1.354   3.815   7.673
   71CHL1   H17 7685   1.332   3.706   7.670
   71CHL1   C13 7686   1.396   3.862   7.534
   71CHL1   C18 7687   1.457   4.003   7.549
   71CHL1  H18A 7688   1.558   4.002   7.596
   71CHL1  H18B 7689   1.474   4.053   7.452
   71CHL1  H18C 7690   1.377   4.062   7.599
   71CHL1   C12 7691   1.482   3.767   7.445
   71CHL1  H12A 7692   1.577   3.749   7.501
   71CHL1  H12B 7693   1.423   3.675   7.429
   71CHL1   C11 7694   1.506   3.822   7.302
   71CHL1  H11A 7695   1.574   3.909   7.308
   71CHL1  H11B 7696   1.557   3.740   7.247
   71CHL1    C9 7697   1.371   3.859   7.229
   71CHL1    H9 7698   1.307   3.769   7.221
   71CHL1   C10 7699   1.375   3.909   7.082
   71CHL1   C19 7700   1.494   4.014   7.080
   71CHL1  H19A 7701   1.512   4.058   6.980
   71CHL1  H19B 7702   1.473   4.089   7.159
   71CHL1  H19C 7703   1.592   3.964   7.097
   71CHL1    C1 7704   1.402   3.788   6.981
   71CHL1   H1A 7705   1.496   3.733   7.002
   71CHL1   H1B 7706   1.330   3.705   6.995
   71CHL1    C2 7707   1.391   3.833   6.826
   71CHL1   H2A 7708   1.408   3.743   6.764
   71CHL1   H2B 7709   1.474   3.906   6.813
   71CHL1   C20 7710   1.450   3.829   7.797
   71CHL1   H20 7711   1.495   3.931   7.799
   71CHL1   C21 7712   1.571   3.734   7.778
   71CHL1  H21A 7713   1.622   3.762   7.684
   71CHL1  H21B 7714   1.549   3.625   7.773
   71CHL1  H21C 7715   1.643   3.761   7.858
   71CHL1   C22 7716   1.384   3.814   7.937
   71CHL1  H22A 7717   1.467   3.815   8.011
   71CHL1  H22B 7718   1.298   3.881   7.958
   71CHL1   C23 7719   1.338   3.666   7.967
   71CHL1  H23A 7720   1.273   3.616   7.891
   71CHL1  H23B 7721   1.434   3.611   7.961
   71CHL1   C24 7722   1.272   3.647   8.106
   71CHL1  H24A 7723   1.335   3.695   8.184
   71CHL1  H24B 7724   1.178   3.704   8.091
   71CHL1   C25 7725   1.252   3.498   8.152
   71CHL1   H25 7726   1.198   3.447   8.070
   71CHL1   C26 7727   1.396   3.442   8.170
   71CHL1  H26A 7728   1.447   3.413   8.076
   71CHL1  H26B 7729   1.459   3.521   8.218
   71CHL1  H26C 7730   1.396   3.350   8.232
   71CHL1   C27 7731   1.173   3.489   8.283
   71CHL1  H27A 7732   1.230   3.535   8.366
   71CHL1  H27B 7733   1.079   3.546   8.274
   71CHL1  H27C 7734   1.159   3.383   8.313
   72CHL1    C3 7735   1.823   2.010   7.149
   72CHL1    H3 7736   1.742   2.085   7.166
   72CHL1    O3 7737   1.830   1.986   7.011
   72CHL1   H3' 7738   1.905   1.927   6.998
   72CHL1    C4 7739   1.957   2.066   7.197
   72CHL1   H4A 7740   2.047   2.008   7.169
   72CHL1   H4B 7741   1.981   2.162   7.145
   72CHL1    C5 7742   1.961   2.082   7.349
   72CHL1    C6 7743   1.984   2.201   7.401
   72CHL1    H6 7744   2.013   2.292   7.348
   72CHL1    C7 7745   1.986   2.222   7.544
   72CHL1   H7A 7746   2.080   2.276   7.568
   72CHL1   H7B 7747   1.893   2.277   7.568
   72CHL1    C8 7748   1.995   2.093   7.628
   72CHL1    H8 7749   2.100   2.058   7.624
   72CHL1   C14 7750   1.983   2.113   7.779
   72CHL1   H14 7751   1.874   2.130   7.784
   72CHL1   C15 7752   2.050   2.232   7.856
   72CHL1  H15A 7753   2.148   2.255   7.810
   72CHL1  H15B 7754   1.985   2.320   7.838
   72CHL1   C16 7755   2.057   2.199   8.002
   72CHL1  H16A 7756   2.163   2.176   8.027
   72CHL1  H16B 7757   2.014   2.275   8.070
   72CHL1   C17 7758   1.979   2.058   8.004
   72CHL1   H17 7759   1.870   2.079   8.014
   72CHL1   C13 7760   2.001   1.992   7.864
   72CHL1   C18 7761   2.148   1.944   7.845
   72CHL1  H18A 7762   2.162   1.858   7.914
   72CHL1  H18B 7763   2.174   1.907   7.743
   72CHL1  H18C 7764   2.235   2.013   7.857
   72CHL1   C12 7765   1.909   1.874   7.816
   72CHL1  H12A 7766   1.941   1.784   7.873
   72CHL1  H12B 7767   1.804   1.908   7.832
   72CHL1   C11 7768   1.917   1.850   7.664
   72CHL1  H11A 7769   2.017   1.805   7.648
   72CHL1  H11B 7770   1.833   1.780   7.644
   72CHL1    C9 7771   1.908   1.978   7.582
   72CHL1    H9 7772   1.809   2.026   7.598
   72CHL1   C10 7773   1.932   1.947   7.429
   72CHL1   C19 7774   2.052   1.853   7.404
   72CHL1  H19A 7775   2.070   1.829   7.298
   72CHL1  H19B 7776   2.148   1.879   7.453
   72CHL1  H19C 7777   2.025   1.755   7.450
   72CHL1    C1 7778   1.803   1.884   7.367
   72CHL1   H1A 7779   1.775   1.785   7.410
   72CHL1   H1B 7780   1.731   1.959   7.405
   72CHL1    C2 7781   1.805   1.874   7.213
   72CHL1   H2A 7782   1.715   1.825   7.171
   72CHL1   H2B 7783   1.885   1.804   7.178
   72CHL1   C20 7784   2.013   1.979   8.139
   72CHL1   H20 7785   2.116   1.937   8.142
   72CHL1   C21 7786   1.915   1.856   8.145
   72CHL1  H21A 7787   1.944   1.776   8.073
   72CHL1  H21B 7788   1.812   1.889   8.117
   72CHL1  H21C 7789   1.915   1.812   8.246
   72CHL1   C22 7790   1.996   2.071   8.267
   72CHL1  H22A 7791   1.969   2.176   8.241
   72CHL1  H22B 7792   1.916   2.022   8.325
   72CHL1   C23 7793   2.122   2.069   8.350
   72CHL1  H23A 7794   2.155   1.967   8.379
   72CHL1  H23B 7795   2.210   2.112   8.296
   72CHL1   C24 7796   2.110   2.147   8.485
   72CHL1  H24A 7797   2.031   2.096   8.544
   72CHL1  H24B 7798   2.202   2.130   8.546
   72CHL1   C25 7799   2.071   2.299   8.471
   72CHL1   H25 7800   1.989   2.319   8.398
   72CHL1   C26 7801   2.029   2.355   8.611
   72CHL1  H26A 7802   2.002   2.463   8.618
   72CHL1  H26B 7803   1.940   2.303   8.652
   72CHL1  H26C 7804   2.111   2.337   8.684
   72CHL1   C27 7805   2.185   2.385   8.411
   72CHL1  H27A 7806   2.281   2.359   8.460
   72CHL1  H27B 7807   2.185   2.381   8.300
   72CHL1  H27C 7808   2.160   2.492   8.430
   73CHL1    C3 7809   1.749   4.982   7.013
   73CHL1    H3 7810   1.846   4.929   7.030
   73CHL1    O3 7811   1.724   4.991   6.870
   73CHL1   H3' 7812   1.634   5.024   6.864
   73CHL1    C4 7813   1.637   4.893   7.068
   73CHL1   H4A 7814   1.546   4.949   7.038
   73CHL1   H4B 7815   1.653   4.790   7.031
   73CHL1    C5 7816   1.639   4.884   7.225
   73CHL1    C6 7817   1.651   4.762   7.279
   73CHL1    H6 7818   1.638   4.674   7.215
   73CHL1    C7 7819   1.648   4.734   7.422
   73CHL1   H7A 7820   1.573   4.655   7.445
   73CHL1   H7B 7821   1.743   4.700   7.469
   73CHL1    C8 7822   1.617   4.856   7.502
   73CHL1    H8 7823   1.508   4.875   7.494
   73CHL1   C14 7824   1.663   4.827   7.652
   73CHL1   H14 7825   1.773   4.812   7.657
   73CHL1   C15 7826   1.599   4.704   7.723
   73CHL1  H15A 7827   1.492   4.701   7.694
   73CHL1  H15B 7828   1.647   4.608   7.694
   73CHL1   C16 7829   1.606   4.742   7.871
   73CHL1  H16A 7830   1.500   4.752   7.903
   73CHL1  H16B 7831   1.657   4.664   7.931
   73CHL1   C17 7832   1.666   4.882   7.881
   73CHL1   H17 7833   1.774   4.860   7.870
   73CHL1   C13 7834   1.632   4.949   7.749
   73CHL1   C18 7835   1.484   4.985   7.755
   73CHL1  H18A 7836   1.412   4.903   7.772
   73CHL1  H18B 7837   1.462   5.076   7.816
   73CHL1  H18C 7838   1.458   5.022   7.654
   73CHL1   C12 7839   1.720   5.065   7.688
   73CHL1  H12A 7840   1.712   5.156   7.750
   73CHL1  H12B 7841   1.829   5.045   7.680
   73CHL1   C11 7842   1.674   5.100   7.546
   73CHL1  H11A 7843   1.572   5.143   7.533
   73CHL1  H11B 7844   1.742   5.182   7.515
   73CHL1    C9 7845   1.692   4.983   7.452
   73CHL1    H9 7846   1.802   4.964   7.449
   73CHL1   C10 7847   1.651   5.015   7.300
   73CHL1   C19 7848   1.512   5.083   7.294
   73CHL1  H19A 7849   1.468   5.093   7.192
   73CHL1  H19B 7850   1.427   5.040   7.350
   73CHL1  H19C 7851   1.519   5.190   7.322
   73CHL1    C1 7852   1.763   5.101   7.236
   73CHL1   H1A 7853   1.760   5.199   7.289
   73CHL1   H1B 7854   1.865   5.059   7.251
   73CHL1    C2 7855   1.747   5.122   7.084
   73CHL1   H2A 7856   1.830   5.191   7.058
   73CHL1   H2B 7857   1.651   5.171   7.060
   73CHL1   C20 7858   1.621   4.950   8.013
   73CHL1   H20 7859   1.511   4.958   8.030
   73CHL1   C21 7860   1.687   5.089   8.007
   73CHL1  H21A 7861   1.694   5.142   8.104
   73CHL1  H21B 7862   1.623   5.160   7.951
   73CHL1  H21C 7863   1.785   5.093   7.955
   73CHL1   C22 7864   1.674   4.869   8.136
   73CHL1  H22A 7865   1.677   4.759   8.120
   73CHL1  H22B 7866   1.777   4.909   8.142
   73CHL1   C23 7867   1.597   4.899   8.265
   73CHL1  H23A 7868   1.561   5.004   8.277
   73CHL1  H23B 7869   1.501   4.845   8.254
   73CHL1   C24 7870   1.669   4.850   8.387
   73CHL1  H24A 7871   1.695   4.745   8.366
   73CHL1  H24B 7872   1.760   4.911   8.405
   73CHL1   C25 7873   1.590   4.859   8.524
   73CHL1   H25 7874   1.488   4.827   8.494
   73CHL1   C26 7875   1.656   4.780   8.637
   73CHL1  H26A 7876   1.756   4.822   8.659
   73CHL1  H26B 7877   1.583   4.793   8.720
   73CHL1  H26C 7878   1.659   4.671   8.614
   73CHL1   C27 7879   1.584   5.001   8.572
   73CHL1  H27A 7880   1.570   5.063   8.481
   73CHL1  H27B 7881   1.495   5.014   8.638
   73CHL1  H27C 7882   1.672   5.030   8.633
   74CHL1    C3 7883   0.598   3.928   6.905
   74CHL1    H3 7884   0.522   4.009   6.912
   74CHL1    O3 7885   0.654   3.923   6.776
   74CHL1   H3' 7886   0.749   3.910   6.780
   74CHL1    C4 7887   0.711   3.955   7.001
   74CHL1   H4A 7888   0.790   3.879   6.980
   74CHL1   H4B 7889   0.750   4.058   6.990
   74CHL1    C5 7890   0.665   3.935   7.145
   74CHL1    C6 7891   0.672   4.032   7.236
   74CHL1    H6 7892   0.730   4.123   7.214
   74CHL1    C7 7893   0.629   4.019   7.382
   74CHL1   H7A 7894   0.716   4.031   7.450
   74CHL1   H7B 7895   0.544   4.089   7.396
   74CHL1    C8 7896   0.585   3.875   7.422
   74CHL1    H8 7897   0.676   3.812   7.435
   74CHL1   C14 7898   0.516   3.886   7.553
   74CHL1   H14 7899   0.428   3.951   7.534
   74CHL1   C15 7900   0.598   3.935   7.669
   74CHL1  H15A 7901   0.689   3.879   7.698
   74CHL1  H15B 7902   0.621   4.044   7.665
   74CHL1   C16 7903   0.498   3.909   7.785
   74CHL1  H16A 7904   0.549   3.876   7.878
   74CHL1  H16B 7905   0.439   3.999   7.810
   74CHL1   C17 7906   0.400   3.800   7.733
   74CHL1   H17 7907   0.301   3.848   7.718
   74CHL1   C13 7908   0.456   3.752   7.601
   74CHL1   C18 7909   0.568   3.654   7.620
   74CHL1  H18A 7910   0.634   3.647   7.531
   74CHL1  H18B 7911   0.637   3.684   7.702
   74CHL1  H18C 7912   0.526   3.552   7.636
   74CHL1   C12 7913   0.354   3.712   7.482
   74CHL1  H12A 7914   0.302   3.618   7.512
   74CHL1  H12B 7915   0.275   3.789   7.471
   74CHL1   C11 7916   0.422   3.691   7.347
   74CHL1  H11A 7917   0.490   3.603   7.350
   74CHL1  H11B 7918   0.348   3.671   7.266
   74CHL1    C9 7919   0.502   3.817   7.307
   74CHL1    H9 7920   0.433   3.903   7.291
   74CHL1   C10 7921   0.582   3.804   7.174
   74CHL1   C19 7922   0.686   3.690   7.183
   74CHL1  H19A 7923   0.646   3.591   7.210
   74CHL1  H19B 7924   0.729   3.682   7.081
   74CHL1  H19C 7925   0.761   3.714   7.262
   74CHL1    C1 7926   0.478   3.777   7.068
   74CHL1   H1A 7927   0.436   3.675   7.081
   74CHL1   H1B 7928   0.393   3.848   7.077
   74CHL1    C2 7929   0.541   3.786   6.925
   74CHL1   H2A 7930   0.465   3.763   6.848
   74CHL1   H2B 7931   0.622   3.711   6.917
   74CHL1   C20 7932   0.368   3.692   7.835
   74CHL1   H20 7933   0.468   3.652   7.862
   74CHL1   C21 7934   0.275   3.584   7.775
   74CHL1  H21A 7935   0.176   3.623   7.742
   74CHL1  H21B 7936   0.255   3.494   7.837
   74CHL1  H21C 7937   0.313   3.539   7.680
   74CHL1   C22 7938   0.315   3.764   7.969
   74CHL1  H22A 7939   0.398   3.827   8.008
   74CHL1  H22B 7940   0.229   3.833   7.949
   74CHL1   C23 7941   0.281   3.674   8.088
   74CHL1  H23A 7942   0.199   3.607   8.054
   74CHL1  H23B 7943   0.371   3.614   8.115
   74CHL1   C24 7944   0.234   3.756   8.209
   74CHL1  H24A 7945   0.326   3.810   8.241
   74CHL1  H24B 7946   0.153   3.828   8.189
   74CHL1   C25 7947   0.181   3.674   8.329
   74CHL1   H25 7948   0.188   3.738   8.420
   74CHL1   C26 7949   0.032   3.646   8.303
   74CHL1  H26A 7950  -0.020   3.590   8.384
   74CHL1  H26B 7951  -0.030   3.736   8.281
   74CHL1  H26C 7952   0.023   3.568   8.225
   74CHL1   C27 7953   0.256   3.538   8.351
   74CHL1  H27A 7954   0.233   3.498   8.453
   74CHL1  H27B 7955   0.229   3.473   8.266
   74CHL1  H27C 7956   0.365   3.557   8.340
   75CHL1    C3 7957   4.053   5.354   6.770
   75CHL1    H3 7958   4.009   5.261   6.813
   75CHL1    O3 7959   4.079   5.350   6.627
   75CHL1   H3' 7960   4.039   5.430   6.591
   75CHL1    C4 7961   3.966   5.474   6.805
   75CHL1   H4A 7962   4.007   5.572   6.774
   75CHL1   H4B 7963   3.872   5.454   6.751
   75CHL1    C5 7964   3.939   5.474   6.952
   75CHL1    C6 7965   3.818   5.465   7.007
   75CHL1    H6 7966   3.739   5.439   6.935
   75CHL1    C7 7967   3.794   5.490   7.155
   75CHL1   H7A 7968   3.705   5.554   7.171
   75CHL1   H7B 7969   3.764   5.390   7.195
   75CHL1    C8 7970   3.913   5.532   7.244
   75CHL1    H8 7971   3.920   5.642   7.234
   75CHL1   C14 7972   3.901   5.496   7.386
   75CHL1   H14 7973   3.912   5.385   7.391
   75CHL1   C15 7974   3.764   5.527   7.452
   75CHL1  H15A 7975   3.727   5.629   7.428
   75CHL1  H15B 7976   3.687   5.452   7.428
   75CHL1   C16 7977   3.802   5.523   7.603
   75CHL1  H16A 7978   3.769   5.614   7.658
   75CHL1  H16B 7979   3.765   5.434   7.657
   75CHL1   C17 7980   3.950   5.507   7.611
   75CHL1   H17 7981   3.976   5.399   7.614
   75CHL1   C13 7982   4.007   5.546   7.478
   75CHL1   C18 7983   4.029   5.695   7.470
   75CHL1  H18A 7984   4.068   5.730   7.372
   75CHL1  H18B 7985   3.935   5.755   7.473
   75CHL1  H18C 7986   4.100   5.746   7.539
   75CHL1   C12 7987   4.129   5.464   7.438
   75CHL1  H12A 7988   4.220   5.492   7.495
   75CHL1  H12B 7989   4.118   5.354   7.434
   75CHL1   C11 7990   4.170   5.497   7.288
   75CHL1  H11A 7991   4.200   5.603   7.276
   75CHL1  H11B 7992   4.258   5.433   7.264
   75CHL1    C9 7993   4.045   5.471   7.192
   75CHL1    H9 7994   4.033   5.361   7.196
   75CHL1   C10 7995   4.071   5.495   7.042
   75CHL1   C19 7996   4.130   5.638   7.011
   75CHL1  H19A 7997   4.132   5.666   6.904
   75CHL1  H19B 7998   4.071   5.722   7.055
   75CHL1  H19C 7999   4.235   5.644   7.048
   75CHL1    C1 8000   4.182   5.394   6.991
   75CHL1   H1A 8001   4.280   5.420   7.036
   75CHL1   H1B 8002   4.160   5.297   7.039
   75CHL1    C2 8003   4.193   5.371   6.838
   75CHL1   H2A 8004   4.259   5.284   6.814
   75CHL1   H2B 8005   4.242   5.458   6.790
   75CHL1   C20 8006   4.009   5.580   7.729
   75CHL1   H20 8007   3.992   5.689   7.717
   75CHL1   C21 8008   4.162   5.569   7.744
   75CHL1  H21A 8009   4.182   5.617   7.842
   75CHL1  H21B 8010   4.215   5.622   7.662
   75CHL1  H21C 8011   4.199   5.464   7.742
   75CHL1   C22 8012   3.948   5.551   7.865
   75CHL1  H22A 8013   4.009   5.606   7.940
   75CHL1  H22B 8014   3.841   5.577   7.879
   75CHL1   C23 8015   3.944   5.399   7.913
   75CHL1  H23A 8016   3.862   5.345   7.862
   75CHL1  H23B 8017   4.038   5.345   7.886
   75CHL1   C24 8018   3.923   5.381   8.070
   75CHL1  H24A 8019   3.987   5.453   8.123
   75CHL1  H24B 8020   3.816   5.409   8.081
   75CHL1   C25 8021   3.946   5.233   8.118
   75CHL1   H25 8022   3.895   5.172   8.040
   75CHL1   C26 8023   4.096   5.190   8.114
   75CHL1  H26A 8024   4.110   5.089   8.159
   75CHL1  H26B 8025   4.145   5.198   8.015
   75CHL1  H26C 8026   4.152   5.256   8.184
   75CHL1   C27 8027   3.887   5.207   8.254
   75CHL1  H27A 8028   3.864   5.101   8.275
   75CHL1  H27B 8029   3.970   5.223   8.327
   75CHL1  H27C 8030   3.799   5.275   8.264
   76CHL1    C3 8031   0.858   0.656   7.334
   76CHL1    H3 8032   0.748   0.665   7.351
   76CHL1    O3 8033   0.874   0.692   7.200
   76CHL1   H3' 8034   0.962   0.664   7.175
   76CHL1    C4 8035   0.930   0.754   7.430
   76CHL1   H4A 8036   1.037   0.724   7.418
   76CHL1   H4B 8037   0.918   0.861   7.402
   76CHL1    C5 8038   0.910   0.712   7.574
   76CHL1    C6 8039   0.868   0.797   7.674
   76CHL1    H6 8040   0.837   0.894   7.632
   76CHL1    C7 8041   0.844   0.773   7.820
   76CHL1   H7A 8042   0.901   0.850   7.876
   76CHL1   H7B 8043   0.736   0.780   7.843
   76CHL1    C8 8044   0.889   0.632   7.863
   76CHL1    H8 8045   1.000   0.632   7.867
   76CHL1   C14 8046   0.833   0.584   8.000
   76CHL1   H14 8047   0.723   0.582   7.980
   76CHL1   C15 8048   0.846   0.678   8.126
   76CHL1  H15A 8049   0.938   0.738   8.114
   76CHL1  H15B 8050   0.759   0.748   8.123
   76CHL1   C16 8051   0.860   0.584   8.251
   76CHL1  H16A 8052   0.962   0.582   8.293
   76CHL1  H16B 8053   0.785   0.610   8.329
   76CHL1   C17 8054   0.841   0.439   8.194
   76CHL1   H17 8055   0.731   0.424   8.191
   76CHL1   C13 8056   0.892   0.451   8.045
   76CHL1   C18 8057   1.045   0.449   8.046
   76CHL1  H18A 8058   1.084   0.349   8.074
   76CHL1  H18B 8059   1.080   0.468   7.943
   76CHL1  H18C 8060   1.097   0.529   8.103
   76CHL1   C12 8061   0.837   0.348   7.951
   76CHL1  H12A 8062   0.865   0.243   7.975
   76CHL1  H12B 8063   0.726   0.353   7.962
   76CHL1   C11 8064   0.871   0.381   7.804
   76CHL1  H11A 8065   0.978   0.353   7.797
   76CHL1  H11B 8066   0.809   0.323   7.733
   76CHL1    C9 8067   0.849   0.529   7.750
   76CHL1    H9 8068   0.739   0.540   7.737
   76CHL1   C10 8069   0.914   0.558   7.612
   76CHL1   C19 8070   1.064   0.527   7.621
   76CHL1  H19A 8071   1.097   0.421   7.632
   76CHL1  H19B 8072   1.126   0.570   7.539
   76CHL1  H19C 8073   1.110   0.575   7.710
   76CHL1    C1 8074   0.859   0.473   7.498
   76CHL1   H1A 8075   0.888   0.368   7.519
   76CHL1   H1B 8076   0.748   0.483   7.504
   76CHL1    C2 8077   0.908   0.510   7.353
   76CHL1   H2A 8078   0.864   0.435   7.284
   76CHL1   H2B 8079   1.016   0.506   7.330
   76CHL1   C20 8080   0.900   0.331   8.290
   76CHL1   H20 8081   1.009   0.317   8.271
   76CHL1   C21 8082   0.835   0.193   8.252
   76CHL1  H21A 8083   0.728   0.207   8.226
   76CHL1  H21B 8084   0.842   0.127   8.341
   76CHL1  H21C 8085   0.875   0.136   8.165
   76CHL1   C22 8086   0.892   0.364   8.444
   76CHL1  H22A 8087   0.963   0.302   8.502
   76CHL1  H22B 8088   0.931   0.468   8.451
   76CHL1   C23 8089   0.749   0.341   8.491
   76CHL1  H23A 8090   0.674   0.392   8.428
   76CHL1  H23B 8091   0.716   0.235   8.488
   76CHL1   C24 8092   0.737   0.397   8.639
   76CHL1  H24A 8093   0.781   0.337   8.721
   76CHL1  H24B 8094   0.807   0.483   8.629
   76CHL1   C25 8095   0.595   0.432   8.690
   76CHL1   H25 8096   0.529   0.343   8.679
   76CHL1   C26 8097   0.596   0.472   8.838
   76CHL1  H26A 8098   0.662   0.561   8.845
   76CHL1  H26B 8099   0.497   0.497   8.883
   76CHL1  H26C 8100   0.638   0.383   8.890
   76CHL1   C27 8101   0.515   0.549   8.615
   76CHL1  H27A 8102   0.412   0.548   8.656
   76CHL1  H27B 8103   0.565   0.641   8.652
   76CHL1  H27C 8104   0.533   0.531   8.506
   77CHL1    C3 8105   1.443   5.534   6.797
   77CHL1    H3 8106   1.408   5.429   6.807
   77CHL1    O3 8107   1.434   5.579   6.661
   77CHL1   H3' 8108   1.421   5.505   6.600
   77CHL1    C4 8109   1.357   5.627   6.883
   77CHL1   H4A 8110   1.406   5.726   6.869
   77CHL1   H4B 8111   1.255   5.619   6.840
   77CHL1    C5 8112   1.369   5.606   7.030
   77CHL1    C6 8113   1.263   5.574   7.102
   77CHL1    H6 8114   1.165   5.590   7.055
   77CHL1    C7 8115   1.269   5.542   7.248
   77CHL1   H7A 8116   1.193   5.598   7.306
   77CHL1   H7B 8117   1.254   5.432   7.251
   77CHL1    C8 8118   1.406   5.576   7.314
   77CHL1    H8 8119   1.414   5.686   7.326
   77CHL1   C14 8120   1.419   5.518   7.457
   77CHL1   H14 8121   1.397   5.410   7.443
   77CHL1   C15 8122   1.315   5.579   7.552
   77CHL1  H15A 8123   1.306   5.689   7.541
   77CHL1  H15B 8124   1.215   5.534   7.533
   77CHL1   C16 8125   1.378   5.536   7.688
   77CHL1  H16A 8126   1.395   5.616   7.764
   77CHL1  H16B 8127   1.323   5.453   7.737
   77CHL1   C17 8128   1.521   5.483   7.656
   77CHL1   H17 8129   1.513   5.373   7.644
   77CHL1   C13 8130   1.557   5.542   7.518
   77CHL1   C18 8131   1.605   5.689   7.543
   77CHL1  H18A 8132   1.636   5.741   7.450
   77CHL1  H18B 8133   1.533   5.754   7.599
   77CHL1  H18C 8134   1.699   5.690   7.602
   77CHL1   C12 8135   1.653   5.462   7.435
   77CHL1  H12A 8136   1.757   5.468   7.475
   77CHL1  H12B 8137   1.624   5.355   7.429
   77CHL1   C11 8138   1.658   5.517   7.289
   77CHL1  H11A 8139   1.712   5.614   7.285
   77CHL1  H11B 8140   1.717   5.443   7.231
   77CHL1    C9 8141   1.516   5.523   7.222
   77CHL1    H9 8142   1.493   5.416   7.206
   77CHL1   C10 8143   1.515   5.589   7.084
   77CHL1   C19 8144   1.580   5.727   7.099
   77CHL1  H19A 8145   1.526   5.795   7.169
   77CHL1  H19B 8146   1.685   5.728   7.133
   77CHL1  H19C 8147   1.589   5.760   6.994
   77CHL1    C1 8148   1.603   5.504   6.990
   77CHL1   H1A 8149   1.709   5.521   7.017
   77CHL1   H1B 8150   1.574   5.397   7.001
   77CHL1    C2 8151   1.592   5.533   6.840
   77CHL1   H2A 8152   1.648   5.453   6.787
   77CHL1   H2B 8153   1.636   5.633   6.817
   77CHL1   C20 8154   1.617   5.517   7.773
   77CHL1   H20 8155   1.640   5.625   7.785
   77CHL1   C21 8156   1.753   5.446   7.735
   77CHL1  H21A 8157   1.804   5.407   7.826
   77CHL1  H21B 8158   1.824   5.515   7.683
   77CHL1  H21C 8159   1.731   5.363   7.665
   77CHL1   C22 8160   1.553   5.450   7.905
   77CHL1  H22A 8161   1.454   5.498   7.918
   77CHL1  H22B 8162   1.528   5.343   7.887
   77CHL1   C23 8163   1.628   5.474   8.030
   77CHL1  H23A 8164   1.723   5.418   8.030
   77CHL1  H23B 8165   1.667   5.577   8.044
   77CHL1   C24 8166   1.543   5.433   8.154
   77CHL1  H24A 8167   1.461   5.505   8.172
   77CHL1  H24B 8168   1.510   5.329   8.135
   77CHL1   C25 8169   1.608   5.441   8.299
   77CHL1   H25 8170   1.524   5.423   8.369
   77CHL1   C26 8171   1.709   5.327   8.326
   77CHL1  H26A 8172   1.800   5.330   8.262
   77CHL1  H26B 8173   1.741   5.333   8.432
   77CHL1  H26C 8174   1.665   5.226   8.313
   77CHL1   C27 8175   1.667   5.582   8.317
   77CHL1  H27A 8176   1.583   5.654   8.328
   77CHL1  H27B 8177   1.722   5.586   8.413
   77CHL1  H27C 8178   1.743   5.601   8.238
   78CHL1    C3 8179   3.871   0.374   6.686
   78CHL1    H3 8180   3.896   0.266   6.670
   78CHL1    O3 8181   3.849   0.442   6.563
   78CHL1   H3' 8182   3.826   0.531   6.591
   78CHL1    C4 8183   3.738   0.392   6.769
   78CHL1   H4A 8184   3.726   0.502   6.765
   78CHL1   H4B 8185   3.648   0.353   6.717
   78CHL1    C5 8186   3.755   0.350   6.914
   78CHL1    C6 8187   3.685   0.250   6.962
   78CHL1    H6 8188   3.611   0.200   6.898
   78CHL1    C7 8189   3.700   0.204   7.107
   78CHL1   H7A 8190   3.596   0.187   7.142
   78CHL1   H7B 8191   3.755   0.108   7.110
   78CHL1    C8 8192   3.779   0.297   7.203
   78CHL1    H8 8193   3.712   0.379   7.237
   78CHL1   C14 8194   3.825   0.222   7.321
   78CHL1   H14 8195   3.909   0.153   7.299
   78CHL1   C15 8196   3.719   0.140   7.403
   78CHL1  H15A 8197   3.623   0.195   7.400
   78CHL1  H15B 8198   3.700   0.044   7.351
   78CHL1   C16 8199   3.774   0.122   7.537
   78CHL1  H16A 8200   3.698   0.156   7.611
   78CHL1  H16B 8201   3.794   0.015   7.558
   78CHL1   C17 8202   3.901   0.212   7.545
   78CHL1   H17 8203   3.983   0.138   7.531
   78CHL1   C13 8204   3.900   0.306   7.422
   78CHL1   C18 8205   3.817   0.431   7.466
   78CHL1  H18A 8206   3.708   0.422   7.479
   78CHL1  H18B 8207   3.859   0.469   7.562
   78CHL1  H18C 8208   3.831   0.515   7.395
   78CHL1   C12 8209   4.038   0.342   7.360
   78CHL1  H12A 8210   4.105   0.401   7.425
   78CHL1  H12B 8211   4.096   0.249   7.343
   78CHL1   C11 8212   4.022   0.404   7.223
   78CHL1  H11A 8213   4.005   0.512   7.239
   78CHL1  H11B 8214   4.113   0.396   7.159
   78CHL1    C9 8215   3.907   0.343   7.127
   78CHL1    H9 8216   3.961   0.250   7.098
   78CHL1   C10 8217   3.880   0.414   6.990
   78CHL1   C19 8218   3.846   0.569   7.006
   78CHL1  H19A 8219   3.930   0.614   7.063
   78CHL1  H19B 8220   3.819   0.629   6.916
   78CHL1  H19C 8221   3.761   0.578   7.077
   78CHL1    C1 8222   4.013   0.397   6.897
   78CHL1   H1A 8223   4.085   0.466   6.947
   78CHL1   H1B 8224   4.047   0.292   6.902
   78CHL1    C2 8225   3.992   0.442   6.757
   78CHL1   H2A 8226   4.083   0.416   6.700
   78CHL1   H2B 8227   3.976   0.552   6.761
   78CHL1   C20 8228   3.927   0.267   7.690
   78CHL1   H20 8229   3.851   0.342   7.718
   78CHL1   C21 8230   4.064   0.344   7.690
   78CHL1  H21A 8231   4.078   0.386   7.791
   78CHL1  H21B 8232   4.065   0.438   7.630
   78CHL1  H21C 8233   4.149   0.280   7.659
   78CHL1   C22 8234   3.918   0.161   7.810
   78CHL1  H22A 8235   3.809   0.164   7.832
   78CHL1  H22B 8236   3.940   0.057   7.775
   78CHL1   C23 8237   3.992   0.181   7.940
   78CHL1  H23A 8238   4.102   0.170   7.929
   78CHL1  H23B 8239   3.967   0.285   7.971
   78CHL1   C24 8240   3.934   0.082   8.046
   78CHL1  H24A 8241   3.827   0.109   8.053
   78CHL1  H24B 8242   3.947  -0.020   8.002
   78CHL1   C25 8243   4.018   0.097   8.179
   78CHL1   H25 8244   4.123   0.072   8.155
   78CHL1   C26 8245   4.002   0.233   8.242
   78CHL1  H26A 8246   4.075   0.302   8.194
   78CHL1  H26B 8247   3.905   0.280   8.216
   78CHL1  H26C 8248   4.008   0.236   8.352
   78CHL1   C27 8249   3.976  -0.008   8.286
   78CHL1  H27A 8250   3.992  -0.106   8.237
   78CHL1  H27B 8251   4.045  -0.004   8.373
   78CHL1  H27C 8252   3.873   0.017   8.320
   79CHL1    C3 8253   2.025   0.103   7.313
   79CHL1    H3 8254   1.995  -0.004   7.314
   79CHL1    O3 8255   2.051   0.123   7.177
   79CHL1   H3' 8256   1.988   0.068   7.130
   79CHL1    C4 8257   1.904   0.193   7.341
   79CHL1   H4A 8258   1.929   0.299   7.317
   79CHL1   H4B 8259   1.824   0.169   7.268
   79CHL1    C5 8260   1.872   0.185   7.490
   79CHL1    C6 8261   1.745   0.159   7.524
   79CHL1    H6 8262   1.675   0.153   7.440
   79CHL1    C7 8263   1.694   0.140   7.665
   79CHL1   H7A 8264   1.603   0.201   7.677
   79CHL1   H7B 8265   1.670   0.032   7.681
   79CHL1    C8 8266   1.797   0.178   7.770
   79CHL1    H8 8267   1.794   0.289   7.772
   79CHL1   C14 8268   1.767   0.109   7.900
   79CHL1   H14 8269   1.798   0.003   7.891
   79CHL1   C15 8270   1.619   0.114   7.937
   79CHL1  H15A 8271   1.585   0.217   7.916
   79CHL1  H15B 8272   1.566   0.032   7.884
   79CHL1   C16 8273   1.620   0.079   8.081
   79CHL1  H16A 8274   1.552   0.155   8.127
   79CHL1  H16B 8275   1.573  -0.019   8.104
   79CHL1   C17 8276   1.769   0.077   8.134
   79CHL1   H17 8277   1.804  -0.028   8.128
   79CHL1   C13 8278   1.847   0.158   8.024
   79CHL1   C18 8279   1.838   0.309   8.035
   79CHL1  H18A 8280   1.884   0.361   7.948
   79CHL1  H18B 8281   1.733   0.341   8.051
   79CHL1  H18C 8282   1.899   0.329   8.126
   79CHL1   C12 8283   1.998   0.115   7.992
   79CHL1  H12A 8284   2.069   0.166   8.060
   79CHL1  H12B 8285   2.002   0.006   8.011
   79CHL1   C11 8286   2.054   0.145   7.846
   79CHL1  H11A 8287   2.094   0.249   7.848
   79CHL1  H11B 8288   2.136   0.073   7.826
   79CHL1    C9 8289   1.939   0.134   7.729
   79CHL1    H9 8290   1.933   0.024   7.713
   79CHL1   C10 8291   1.988   0.190   7.596
   79CHL1   C19 8292   2.020   0.340   7.600
   79CHL1  H19A 8293   1.928   0.401   7.614
   79CHL1  H19B 8294   2.092   0.365   7.681
   79CHL1  H19C 8295   2.067   0.383   7.509
   79CHL1    C1 8296   2.107   0.110   7.549
   79CHL1   H1A 8297   2.192   0.138   7.616
   79CHL1   H1B 8298   2.086   0.002   7.565
   79CHL1    C2 8299   2.147   0.142   7.405
   79CHL1   H2A 8300   2.238   0.083   7.377
   79CHL1   H2B 8301   2.165   0.251   7.392
   79CHL1   C20 8302   1.790   0.118   8.279
   79CHL1   H20 8303   1.757   0.223   8.293
   79CHL1   C21 8304   1.941   0.102   8.313
   79CHL1  H21A 8305   2.008   0.156   8.243
   79CHL1  H21B 8306   1.975  -0.004   8.317
   79CHL1  H21C 8307   1.961   0.135   8.417
   79CHL1   C22 8308   1.690   0.043   8.372
   79CHL1  H22A 8309   1.594   0.095   8.356
   79CHL1  H22B 8310   1.683  -0.065   8.347
   79CHL1   C23 8311   1.703   0.062   8.522
   79CHL1  H23A 8312   1.810   0.044   8.547
   79CHL1  H23B 8313   1.682   0.168   8.548
   79CHL1   C24 8314   1.625  -0.035   8.608
   79CHL1  H24A 8315   1.519  -0.023   8.577
   79CHL1  H24B 8316   1.669  -0.137   8.602
   79CHL1   C25 8317   1.641   0.001   8.763
   79CHL1   H25 8318   1.748  -0.016   8.787
   79CHL1   C26 8319   1.613   0.144   8.814
   79CHL1  H26A 8320   1.505   0.168   8.805
   79CHL1  H26B 8321   1.628   0.142   8.924
   79CHL1  H26C 8322   1.680   0.219   8.766
   79CHL1   C27 8323   1.562  -0.103   8.849
   79CHL1  H27A 8324   1.586  -0.079   8.955
   79CHL1  H27B 8325   1.453  -0.102   8.830
   79CHL1  H27C 8326   1.602  -0.205   8.832
   80CHL1    C3 8327   0.436   4.593   7.152
   80CHL1    H3 8328   0.433   4.703   7.141
   80CHL1    O3 8329   0.445   4.542   7.021
   80CHL1   H3' 8330   0.502   4.604   6.975
   80CHL1    C4 8331   0.555   4.535   7.228
   80CHL1   H4A 8332   0.553   4.425   7.215
   80CHL1   H4B 8333   0.647   4.579   7.184
   80CHL1    C5 8334   0.556   4.549   7.384
   80CHL1    C6 8335   0.652   4.608   7.451
   80CHL1    H6 8336   0.740   4.646   7.396
   80CHL1    C7 8337   0.659   4.618   7.602
   80CHL1   H7A 8338   0.765   4.602   7.632
   80CHL1   H7B 8339   0.654   4.722   7.641
   80CHL1    C8 8340   0.556   4.531   7.672
   80CHL1    H8 8341   0.587   4.426   7.656
   80CHL1   C14 8342   0.546   4.564   7.817
   80CHL1   H14 8343   0.505   4.667   7.826
   80CHL1   C15 8344   0.675   4.575   7.903
   80CHL1  H15A 8345   0.746   4.491   7.886
   80CHL1  H15B 8346   0.725   4.671   7.880
   80CHL1   C16 8347   0.631   4.555   8.051
   80CHL1  H16A 8348   0.658   4.456   8.094
   80CHL1  H16B 8349   0.671   4.642   8.107
   80CHL1   C17 8350   0.475   4.542   8.045
   80CHL1   H17 8351   0.433   4.643   8.027
   80CHL1   C13 8352   0.440   4.490   7.898
   80CHL1   C18 8353   0.469   4.337   7.893
   80CHL1  H18A 8354   0.567   4.316   7.940
   80CHL1  H18B 8355   0.393   4.278   7.949
   80CHL1  H18C 8356   0.469   4.305   7.787
   80CHL1   C12 8357   0.298   4.517   7.842
   80CHL1  H12A 8358   0.225   4.451   7.895
   80CHL1  H12B 8359   0.271   4.624   7.855
   80CHL1   C11 8360   0.301   4.489   7.684
   80CHL1  H11A 8361   0.305   4.378   7.688
   80CHL1  H11B 8362   0.199   4.517   7.651
   80CHL1    C9 8363   0.425   4.553   7.605
   80CHL1    H9 8364   0.411   4.662   7.591
   80CHL1   C10 8365   0.425   4.509   7.451
   80CHL1   C19 8366   0.420   4.356   7.435
   80CHL1  H19A 8367   0.329   4.318   7.487
   80CHL1  H19B 8368   0.421   4.315   7.331
   80CHL1  H19C 8369   0.503   4.309   7.492
   80CHL1    C1 8370   0.308   4.570   7.369
   80CHL1   H1A 8371   0.216   4.539   7.422
   80CHL1   H1B 8372   0.295   4.680   7.377
   80CHL1    C2 8373   0.308   4.547   7.221
   80CHL1   H2A 8374   0.230   4.610   7.174
   80CHL1   H2B 8375   0.286   4.442   7.193
   80CHL1   C20 8376   0.400   4.481   8.163
   80CHL1   H20 8377   0.299   4.449   8.128
   80CHL1   C21 8378   0.365   4.595   8.267
   80CHL1  H21A 8379   0.304   4.560   8.353
   80CHL1  H21B 8380   0.310   4.673   8.210
   80CHL1  H21C 8381   0.454   4.647   8.308
   80CHL1   C22 8382   0.464   4.354   8.228
   80CHL1  H22A 8383   0.517   4.286   8.157
   80CHL1  H22B 8384   0.545   4.398   8.289
   80CHL1   C23 8385   0.374   4.275   8.326
   80CHL1  H23A 8386   0.336   4.349   8.400
   80CHL1  H23B 8387   0.292   4.230   8.266
   80CHL1   C24 8388   0.445   4.164   8.406
   80CHL1  H24A 8389   0.461   4.087   8.327
   80CHL1  H24B 8390   0.535   4.217   8.443
   80CHL1   C25 8391   0.367   4.101   8.518
   80CHL1   H25 8392   0.340   4.187   8.583
   80CHL1   C26 8393   0.234   4.045   8.464
   80CHL1  H26A 8394   0.256   3.955   8.402
   80CHL1  H26B 8395   0.173   4.027   8.555
   80CHL1  H26C 8396   0.179   4.118   8.402
   80CHL1   C27 8397   0.454   4.004   8.599
   80CHL1  H27A 8398   0.541   4.050   8.649
   80CHL1  H27B 8399   0.380   3.960   8.669
   80CHL1  H27C 8400   0.497   3.925   8.533
   81CHL1    C3 8401   5.052   4.645   6.853
   81CHL1    H3 8402   5.114   4.587   6.925
   81CHL1    O3 8403   5.122   4.663   6.735
   81CHL1   H3' 8404   5.069   4.721   6.680
   81CHL1    C4 8405   4.911   4.579   6.829
   81CHL1   H4A 8406   4.867   4.642   6.749
   81CHL1   H4B 8407   4.933   4.484   6.775
   81CHL1    C5 8408   4.830   4.557   6.959
   81CHL1    C6 8409   4.783   4.431   6.990
   81CHL1    H6 8410   4.805   4.350   6.919
   81CHL1    C7 8411   4.715   4.392   7.117
   81CHL1   H7A 8412   4.631   4.320   7.106
   81CHL1   H7B 8413   4.792   4.338   7.176
   81CHL1    C8 8414   4.666   4.506   7.205
   81CHL1    H8 8415   4.575   4.546   7.156
   81CHL1   C14 8416   4.639   4.464   7.351
   81CHL1   H14 8417   4.745   4.445   7.378
   81CHL1   C15 8418   4.552   4.337   7.365
   81CHL1  H15A 8419   4.456   4.339   7.309
   81CHL1  H15B 8420   4.597   4.238   7.344
   81CHL1   C16 8421   4.511   4.355   7.511
   81CHL1  H16A 8422   4.400   4.360   7.515
   81CHL1  H16B 8423   4.534   4.268   7.576
   81CHL1   C17 8424   4.571   4.489   7.566
   81CHL1   H17 8425   4.675   4.461   7.591
   81CHL1   C13 8426   4.588   4.575   7.440
   81CHL1   C18 8427   4.450   4.622   7.402
   81CHL1  H18A 8428   4.368   4.549   7.387
   81CHL1  H18B 8429   4.418   4.687   7.486
   81CHL1  H18C 8430   4.452   4.686   7.311
   81CHL1   C12 8431   4.704   4.680   7.448
   81CHL1  H12A 8432   4.667   4.765   7.510
   81CHL1  H12B 8433   4.790   4.635   7.501
   81CHL1   C11 8434   4.741   4.733   7.309
   81CHL1  H11A 8435   4.648   4.776   7.266
   81CHL1  H11B 8436   4.814   4.817   7.312
   81CHL1    C9 8437   4.768   4.619   7.201
   81CHL1    H9 8438   4.862   4.572   7.236
   81CHL1   C10 8439   4.812   4.672   7.061
   81CHL1   C19 8440   4.700   4.767   7.007
   81CHL1  H19A 8441   4.696   4.861   7.066
   81CHL1  H19B 8442   4.737   4.806   6.910
   81CHL1  H19C 8443   4.601   4.717   7.001
   81CHL1    C1 8444   4.949   4.747   7.064
   81CHL1   H1A 8445   4.934   4.838   7.125
   81CHL1   H1B 8446   5.023   4.688   7.122
   81CHL1    C2 8447   5.022   4.782   6.929
   81CHL1   H2A 8448   5.119   4.829   6.956
   81CHL1   H2B 8449   4.963   4.852   6.866
   81CHL1   C20 8450   4.501   4.536   7.696
   81CHL1   H20 8451   4.394   4.565   7.686
   81CHL1   C21 8452   4.563   4.664   7.755
   81CHL1  H21A 8453   4.534   4.759   7.705
   81CHL1  H21B 8454   4.673   4.657   7.743
   81CHL1  H21C 8455   4.537   4.673   7.863
   81CHL1   C22 8456   4.490   4.423   7.806
   81CHL1  H22A 8457   4.441   4.482   7.887
   81CHL1  H22B 8458   4.435   4.337   7.761
   81CHL1   C23 8459   4.620   4.355   7.862
   81CHL1  H23A 8460   4.672   4.304   7.779
   81CHL1  H23B 8461   4.692   4.429   7.905
   81CHL1   C24 8462   4.586   4.233   7.957
   81CHL1  H24A 8463   4.534   4.287   8.039
   81CHL1  H24B 8464   4.517   4.157   7.916
   81CHL1   C25 8465   4.706   4.154   8.015
   81CHL1   H25 8466   4.781   4.129   7.937
   81CHL1   C26 8467   4.778   4.232   8.123
   81CHL1  H26A 8468   4.831   4.310   8.063
   81CHL1  H26B 8469   4.707   4.282   8.193
   81CHL1  H26C 8470   4.849   4.164   8.175
   81CHL1   C27 8471   4.652   4.022   8.078
   81CHL1  H27A 8472   4.607   4.061   8.171
   81CHL1  H27B 8473   4.573   3.967   8.022
   81CHL1  H27C 8474   4.741   3.963   8.111
   82CHL1    C3 8475   6.089   5.626   7.133
   82CHL1    H3 8476   6.052   5.729   7.150
   82CHL1    O3 8477   6.118   5.615   6.995
   82CHL1   H3' 8478   6.040   5.649   6.951
   82CHL1    C4 8479   6.206   5.585   7.221
   82CHL1   H4A 8480   6.247   5.492   7.177
   82CHL1   H4B 8481   6.276   5.668   7.201
   82CHL1    C5 8482   6.169   5.579   7.368
   82CHL1    C6 8483   6.226   5.665   7.452
   82CHL1    H6 8484   6.308   5.735   7.427
   82CHL1    C7 8485   6.206   5.663   7.602
   82CHL1   H7A 8486   6.305   5.648   7.650
   82CHL1   H7B 8487   6.163   5.760   7.634
   82CHL1    C8 8488   6.117   5.541   7.650
   82CHL1    H8 8489   6.180   5.450   7.655
   82CHL1   C14 8490   6.052   5.580   7.780
   82CHL1   H14 8491   5.978   5.659   7.755
   82CHL1   C15 8492   6.125   5.637   7.905
   82CHL1  H15A 8493   6.226   5.593   7.903
   82CHL1  H15B 8494   6.140   5.747   7.899
   82CHL1   C16 8495   6.041   5.605   8.026
   82CHL1  H16A 8496   6.096   5.545   8.102
   82CHL1  H16B 8497   6.011   5.699   8.076
   82CHL1   C17 8498   5.923   5.529   7.976
   82CHL1   H17 8499   5.846   5.603   7.945
   82CHL1   C13 8500   5.974   5.461   7.846
   82CHL1   C18 8501   6.074   5.345   7.879
   82CHL1  H18A 8502   6.165   5.386   7.929
   82CHL1  H18B 8503   6.019   5.269   7.939
   82CHL1  H18C 8504   6.100   5.283   7.792
   82CHL1   C12 8505   5.862   5.409   7.751
   82CHL1  H12A 8506   5.826   5.309   7.786
   82CHL1  H12B 8507   5.780   5.484   7.752
   82CHL1   C11 8508   5.917   5.391   7.607
   82CHL1  H11A 8509   5.976   5.297   7.606
   82CHL1  H11B 8510   5.841   5.364   7.530
   82CHL1    C9 8511   6.005   5.511   7.552
   82CHL1    H9 8512   5.936   5.598   7.555
   82CHL1   C10 8513   6.055   5.480   7.407
   82CHL1   C19 8514   6.105   5.340   7.380
   82CHL1  H19A 8515   6.139   5.332   7.274
   82CHL1  H19B 8516   6.198   5.316   7.436
   82CHL1  H19C 8517   6.030   5.262   7.402
   82CHL1    C1 8518   5.935   5.512   7.307
   82CHL1   H1A 8519   5.857   5.433   7.316
   82CHL1   H1B 8520   5.897   5.612   7.336
   82CHL1    C2 8521   5.973   5.537   7.164
   82CHL1   H2A 8522   5.886   5.579   7.110
   82CHL1   H2B 8523   5.999   5.440   7.117
   82CHL1   C20 8524   5.857   5.440   8.087
   82CHL1   H20 8525   5.933   5.362   8.109
   82CHL1   C21 8526   5.711   5.401   8.045
   82CHL1  H21A 8527   5.668   5.333   8.122
   82CHL1  H21B 8528   5.704   5.345   7.949
   82CHL1  H21C 8529   5.646   5.489   8.029
   82CHL1   C22 8530   5.841   5.523   8.214
   82CHL1  H22A 8531   5.938   5.545   8.264
   82CHL1  H22B 8532   5.795   5.624   8.206
   82CHL1   C23 8533   5.767   5.442   8.323
   82CHL1  H23A 8534   5.658   5.452   8.303
   82CHL1  H23B 8535   5.794   5.335   8.321
   82CHL1   C24 8536   5.770   5.498   8.467
   82CHL1  H24A 8537   5.875   5.514   8.502
   82CHL1  H24B 8538   5.726   5.599   8.460
   82CHL1   C25 8539   5.692   5.412   8.573
   82CHL1   H25 8540   5.695   5.473   8.665
   82CHL1   C26 8541   5.543   5.398   8.531
   82CHL1  H26A 8542   5.508   5.497   8.494
   82CHL1  H26B 8543   5.535   5.322   8.451
   82CHL1  H26C 8544   5.478   5.369   8.616
   82CHL1   C27 8545   5.755   5.282   8.609
   82CHL1  H27A 8546   5.690   5.234   8.685
   82CHL1  H27B 8547   5.750   5.216   8.520
   82CHL1  H27C 8548   5.859   5.285   8.647
   83CHL1    C3 8549   2.374   6.440   6.950
   83CHL1    H3 8550   2.471   6.387   6.962
   83CHL1    O3 8551   2.353   6.439   6.807
   83CHL1   H3' 8552   2.258   6.451   6.795
   83CHL1    C4 8553   2.273   6.350   7.020
   83CHL1   H4A 8554   2.165   6.372   7.005
   83CHL1   H4B 8555   2.285   6.247   6.979
   83CHL1    C5 8556   2.299   6.346   7.169
   83CHL1    C6 8557   2.328   6.231   7.233
   83CHL1    H6 8558   2.341   6.140   7.172
   83CHL1    C7 8559   2.349   6.221   7.383
   83CHL1   H7A 8560   2.278   6.140   7.411
   83CHL1   H7B 8561   2.453   6.189   7.403
   83CHL1    C8 8562   2.313   6.352   7.460
   83CHL1    H8 8563   2.205   6.376   7.473
   83CHL1   C14 8564   2.387   6.350   7.589
   83CHL1   H14 8565   2.494   6.340   7.562
   83CHL1   C15 8566   2.374   6.233   7.687
   83CHL1  H15A 8567   2.269   6.202   7.705
   83CHL1  H15B 8568   2.438   6.152   7.646
   83CHL1   C16 8569   2.433   6.288   7.818
   83CHL1  H16A 8570   2.366   6.259   7.902
   83CHL1  H16B 8571   2.535   6.246   7.832
   83CHL1   C17 8572   2.445   6.445   7.804
   83CHL1   H17 8573   2.549   6.471   7.777
   83CHL1   C13 8574   2.366   6.477   7.680
   83CHL1   C18 8575   2.214   6.490   7.724
   83CHL1  H18A 8576   2.187   6.585   7.775
   83CHL1  H18B 8577   2.153   6.477   7.633
   83CHL1  H18C 8578   2.188   6.412   7.799
   83CHL1   C12 8579   2.414   6.606   7.610
   83CHL1  H12A 8580   2.372   6.700   7.650
   83CHL1  H12B 8581   2.523   6.612   7.590
   83CHL1   C11 8582   2.352   6.605   7.462
   83CHL1  H11A 8583   2.248   6.641   7.474
   83CHL1  H11B 8584   2.408   6.680   7.403
   83CHL1    C9 8585   2.362   6.478   7.380
   83CHL1    H9 8586   2.471   6.464   7.370
   83CHL1   C10 8587   2.298   6.490   7.239
   83CHL1   C19 8588   2.138   6.520   7.243
   83CHL1  H19A 8589   2.082   6.452   7.311
   83CHL1  H19B 8590   2.134   6.621   7.291
   83CHL1  H19C 8591   2.091   6.523   7.143
   83CHL1    C1 8592   2.374   6.597   7.157
   83CHL1   H1A 8593   2.333   6.698   7.178
   83CHL1   H1B 8594   2.482   6.590   7.183
   83CHL1    C2 8595   2.356   6.585   6.999
   83CHL1   H2A 8596   2.422   6.660   6.949
   83CHL1   H2B 8597   2.251   6.615   6.979
   83CHL1   C20 8598   2.408   6.507   7.944
   83CHL1   H20 8599   2.306   6.469   7.966
   83CHL1   C21 8600   2.432   6.649   7.929
   83CHL1  H21A 8601   2.428   6.707   8.023
   83CHL1  H21B 8602   2.356   6.689   7.859
   83CHL1  H21C 8603   2.533   6.662   7.883
   83CHL1   C22 8604   2.499   6.444   8.060
   83CHL1  H22A 8605   2.485   6.335   8.067
   83CHL1  H22B 8606   2.597   6.450   8.008
   83CHL1   C23 8607   2.482   6.508   8.202
   83CHL1  H23A 8608   2.527   6.610   8.201
   83CHL1  H23B 8609   2.375   6.510   8.235
   83CHL1   C24 8610   2.569   6.449   8.324
   83CHL1  H24A 8611   2.547   6.341   8.338
   83CHL1  H24B 8612   2.673   6.447   8.284
   83CHL1   C25 8613   2.560   6.529   8.456
   83CHL1   H25 8614   2.521   6.630   8.431
   83CHL1   C26 8615   2.456   6.464   8.548
   83CHL1  H26A 8616   2.440   6.530   8.637
   83CHL1  H26B 8617   2.361   6.449   8.493
   83CHL1  H26C 8618   2.501   6.368   8.580
   83CHL1   C27 8619   2.692   6.554   8.533
   83CHL1  H27A 8620   2.676   6.614   8.626
   83CHL1  H27B 8621   2.738   6.456   8.559
   83CHL1  H27C 8622   2.758   6.616   8.469
   84CHL1    C3 8623   4.252   2.772   6.884
   84CHL1    H3 8624   4.202   2.872   6.879
   84CHL1    O3 8625   4.322   2.742   6.759
   84CHL1   H3' 8626   4.265   2.679   6.712
   84CHL1    C4 8627   4.361   2.792   6.991
   84CHL1   H4A 8628   4.436   2.709   6.994
   84CHL1   H4B 8629   4.419   2.883   6.965
   84CHL1    C5 8630   4.297   2.801   7.129
   84CHL1    C6 8631   4.311   2.916   7.200
   84CHL1    H6 8632   4.369   3.002   7.163
   84CHL1    C7 8633   4.250   2.932   7.331
   84CHL1   H7A 8634   4.318   2.988   7.398
   84CHL1   H7B 8635   4.157   2.992   7.318
   84CHL1    C8 8636   4.200   2.808   7.399
   84CHL1    H8 8637   4.290   2.754   7.436
   84CHL1   C14 8638   4.107   2.850   7.513
   84CHL1   H14 8639   4.010   2.888   7.473
   84CHL1   C15 8640   4.168   2.943   7.619
   84CHL1  H15A 8641   4.274   2.915   7.639
   84CHL1  H15B 8642   4.171   3.048   7.582
   84CHL1   C16 8643   4.082   2.920   7.753
   84CHL1  H16A 8644   4.148   2.891   7.838
   84CHL1  H16B 8645   4.026   3.013   7.775
   84CHL1   C17 8646   3.976   2.806   7.709
   84CHL1   H17 8647   3.890   2.849   7.652
   84CHL1   C13 8648   4.052   2.731   7.596
   84CHL1   C18 8649   4.153   2.637   7.664
   84CHL1  H18A 8650   4.235   2.687   7.720
   84CHL1  H18B 8651   4.107   2.553   7.721
   84CHL1  H18C 8652   4.211   2.580   7.589
   84CHL1   C12 8653   3.967   2.647   7.497
   84CHL1  H12A 8654   3.919   2.565   7.554
   84CHL1  H12B 8655   3.889   2.719   7.464
   84CHL1   C11 8656   4.048   2.605   7.372
   84CHL1  H11A 8657   4.119   2.524   7.401
   84CHL1  H11B 8658   3.975   2.554   7.305
   84CHL1    C9 8659   4.120   2.724   7.301
   84CHL1    H9 8660   4.047   2.799   7.264
   84CHL1   C10 8661   4.208   2.695   7.175
   84CHL1   C19 8662   4.292   2.569   7.208
   84CHL1  H19A 8663   4.336   2.597   7.306
   84CHL1  H19B 8664   4.223   2.482   7.222
   84CHL1  H19C 8665   4.375   2.556   7.135
   84CHL1    C1 8666   4.109   2.672   7.057
   84CHL1   H1A 8667   4.028   2.599   7.079
   84CHL1   H1B 8668   4.045   2.762   7.043
   84CHL1    C2 8669   4.163   2.647   6.916
   84CHL1   H2A 8670   4.083   2.637   6.840
   84CHL1   H2B 8671   4.229   2.557   6.911
   84CHL1   C20 8672   3.930   2.723   7.837
   84CHL1   H20 8673   4.014   2.685   7.898
   84CHL1   C21 8674   3.843   2.597   7.796
   84CHL1  H21A 8675   3.787   2.552   7.881
   84CHL1  H21B 8676   3.910   2.525   7.744
   84CHL1  H21C 8677   3.765   2.641   7.730
   84CHL1   C22 8678   3.855   2.816   7.933
   84CHL1  H22A 8679   3.917   2.898   7.974
   84CHL1  H22B 8680   3.763   2.869   7.898
   84CHL1   C23 8681   3.820   2.741   8.070
   84CHL1  H23A 8682   3.726   2.685   8.050
   84CHL1  H23B 8683   3.906   2.674   8.087
   84CHL1   C24 8684   3.800   2.837   8.190
   84CHL1  H24A 8685   3.888   2.905   8.190
   84CHL1  H24B 8686   3.714   2.900   8.159
   84CHL1   C25 8687   3.770   2.772   8.327
   84CHL1   H25 8688   3.865   2.724   8.361
   84CHL1   C26 8689   3.734   2.879   8.425
   84CHL1  H26A 8690   3.812   2.958   8.432
   84CHL1  H26B 8691   3.636   2.920   8.394
   84CHL1  H26C 8692   3.718   2.838   8.527
   84CHL1   C27 8693   3.658   2.660   8.325
   84CHL1  H27A 8694   3.563   2.711   8.298
   84CHL1  H27B 8695   3.699   2.583   8.257
   84CHL1  H27C 8696   3.649   2.615   8.426
   85CHL1    C3 8697   3.768   6.630   6.727
   85CHL1    H3 8698   3.702   6.708   6.771
   85CHL1    O3 8699   3.749   6.632   6.592
   85CHL1   H3' 8700   3.799   6.558   6.559
   85CHL1    C4 8701   3.913   6.673   6.749
   85CHL1   H4A 8702   3.976   6.596   6.699
   85CHL1   H4B 8703   3.918   6.775   6.706
   85CHL1    C5 8704   3.951   6.684   6.893
   85CHL1    C6 8705   4.008   6.792   6.951
   85CHL1    H6 8706   4.023   6.882   6.890
   85CHL1    C7 8707   4.054   6.797   7.094
   85CHL1   H7A 8708   4.159   6.834   7.098
   85CHL1   H7B 8709   3.986   6.863   7.152
   85CHL1    C8 8710   4.062   6.656   7.167
   85CHL1    H8 8711   4.148   6.600   7.124
   85CHL1   C14 8712   4.070   6.668   7.320
   85CHL1   H14 8713   3.979   6.726   7.346
   85CHL1   C15 8714   4.192   6.740   7.371
   85CHL1  H15A 8715   4.281   6.685   7.335
   85CHL1  H15B 8716   4.188   6.847   7.339
   85CHL1   C16 8717   4.179   6.719   7.521
   85CHL1  H16A 8718   4.278   6.687   7.562
   85CHL1  H16B 8719   4.140   6.809   7.573
   85CHL1   C17 8720   4.078   6.598   7.539
   85CHL1   H17 8721   3.981   6.645   7.567
   85CHL1   C13 8722   4.060   6.541   7.397
   85CHL1   C18 8723   4.183   6.445   7.367
   85CHL1  H18A 8724   4.189   6.431   7.257
   85CHL1  H18B 8725   4.278   6.487   7.406
   85CHL1  H18C 8726   4.168   6.350   7.423
   85CHL1   C12 8727   3.924   6.472   7.363
   85CHL1  H12A 8728   3.929   6.371   7.410
   85CHL1  H12B 8729   3.843   6.532   7.409
   85CHL1   C11 8730   3.904   6.454   7.215
   85CHL1  H11A 8731   3.980   6.377   7.188
   85CHL1  H11B 8732   3.802   6.413   7.197
   85CHL1    C9 8733   3.934   6.574   7.123
   85CHL1    H9 8734   3.845   6.633   7.156
   85CHL1   C10 8735   3.913   6.550   6.969
   85CHL1   C19 8736   4.011   6.434   6.928
   85CHL1  H19A 8737   4.020   6.410   6.820
   85CHL1  H19B 8738   4.107   6.434   6.983
   85CHL1  H19C 8739   3.980   6.335   6.968
   85CHL1    C1 8740   3.765   6.507   6.934
   85CHL1   H1A 8741   3.746   6.409   6.984
   85CHL1   H1B 8742   3.700   6.583   6.982
   85CHL1    C2 8743   3.739   6.497   6.789
   85CHL1   H2A 8744   3.629   6.484   6.777
   85CHL1   H2B 8745   3.794   6.424   6.725
   85CHL1   C20 8746   4.109   6.511   7.656
   85CHL1   H20 8747   4.209   6.469   7.630
   85CHL1   C21 8748   4.013   6.388   7.676
   85CHL1  H21A 8749   3.913   6.422   7.642
   85CHL1  H21B 8750   4.013   6.337   7.775
   85CHL1  H21C 8751   4.061   6.319   7.603
   85CHL1   C22 8752   4.110   6.593   7.788
   85CHL1  H22A 8753   4.133   6.701   7.777
   85CHL1  H22B 8754   4.004   6.602   7.817
   85CHL1   C23 8755   4.209   6.536   7.888
   85CHL1  H23A 8756   4.187   6.428   7.901
   85CHL1  H23B 8757   4.311   6.556   7.851
   85CHL1   C24 8758   4.198   6.605   8.024
   85CHL1  H24A 8759   4.207   6.714   8.006
   85CHL1  H24B 8760   4.106   6.581   8.083
   85CHL1   C25 8761   4.311   6.562   8.133
   85CHL1   H25 8762   4.402   6.544   8.073
   85CHL1   C26 8763   4.346   6.659   8.247
   85CHL1  H26A 8764   4.322   6.758   8.203
   85CHL1  H26B 8765   4.278   6.637   8.331
   85CHL1  H26C 8766   4.452   6.650   8.280
   85CHL1   C27 8767   4.280   6.425   8.194
   85CHL1  H27A 8768   4.224   6.365   8.120
   85CHL1  H27B 8769   4.371   6.385   8.243
   85CHL1  H27C 8770   4.209   6.440   8.279
   86CHL1    C3 8771   6.123   4.418   6.985
   86CHL1    H3 8772   6.220   4.473   6.987
   86CHL1    O3 8773   6.091   4.399   6.849
   86CHL1   H3' 8774   6.141   4.466   6.802
   86CHL1    C4 8775   6.133   4.281   7.055
   86CHL1   H4A 8776   6.037   4.225   7.048
   86CHL1   H4B 8777   6.211   4.214   7.012
   86CHL1    C5 8778   6.155   4.299   7.203
   86CHL1    C6 8779   6.251   4.237   7.271
   86CHL1    H6 8780   6.327   4.171   7.226
   86CHL1    C7 8781   6.269   4.259   7.421
   86CHL1   H7A 8782   6.294   4.164   7.474
   86CHL1   H7B 8783   6.352   4.332   7.434
   86CHL1    C8 8784   6.144   4.314   7.495
   86CHL1    H8 8785   6.070   4.231   7.502
   86CHL1   C14 8786   6.180   4.352   7.641
   86CHL1   H14 8787   6.240   4.443   7.619
   86CHL1   C15 8788   6.263   4.262   7.730
   86CHL1  H15A 8789   6.227   4.157   7.718
   86CHL1  H15B 8790   6.368   4.272   7.696
   86CHL1   C16 8791   6.239   4.312   7.877
   86CHL1  H16A 8792   6.206   4.230   7.943
   86CHL1  H16B 8793   6.336   4.353   7.912
   86CHL1   C17 8794   6.134   4.426   7.858
   86CHL1   H17 8795   6.186   4.522   7.843
   86CHL1   C13 8796   6.065   4.401   7.725
   86CHL1   C18 8797   5.946   4.302   7.749
   86CHL1  H18A 8798   5.858   4.351   7.796
   86CHL1  H18B 8799   5.918   4.263   7.649
   86CHL1  H18C 8800   5.984   4.217   7.809
   86CHL1   C12 8801   6.015   4.525   7.652
   86CHL1  H12A 8802   5.921   4.555   7.703
   86CHL1  H12B 8803   6.091   4.602   7.677
   86CHL1   C11 8804   5.973   4.503   7.501
   86CHL1  H11A 8805   5.874   4.453   7.508
   86CHL1  H11B 8806   5.949   4.600   7.452
   86CHL1    C9 8807   6.091   4.434   7.423
   86CHL1    H9 8808   6.169   4.512   7.415
   86CHL1   C10 8809   6.057   4.394   7.275
   86CHL1   C19 8810   5.922   4.311   7.276
   86CHL1  H19A 8811   5.894   4.283   7.172
   86CHL1  H19B 8812   5.916   4.211   7.324
   86CHL1  H19C 8813   5.835   4.367   7.317
   86CHL1    C1 8814   6.030   4.524   7.195
   86CHL1   H1A 8815   5.938   4.576   7.229
   86CHL1   H1B 8816   6.115   4.596   7.204
   86CHL1    C2 8817   6.004   4.497   7.045
   86CHL1   H2A 8818   5.995   4.592   6.987
   86CHL1   H2B 8819   5.909   4.446   7.022
   86CHL1   C20 8820   6.047   4.439   7.988
   86CHL1   H20 8821   5.980   4.353   8.006
   86CHL1   C21 8822   5.963   4.560   7.970
   86CHL1  H21A 8823   5.937   4.594   8.073
   86CHL1  H21B 8824   5.868   4.536   7.918
   86CHL1  H21C 8825   6.020   4.639   7.916
   86CHL1   C22 8826   6.139   4.451   8.107
   86CHL1  H22A 8827   6.074   4.453   8.197
   86CHL1  H22B 8828   6.211   4.367   8.112
   86CHL1   C23 8829   6.223   4.579   8.124
   86CHL1  H23A 8830   6.280   4.598   8.030
   86CHL1  H23B 8831   6.162   4.670   8.140
   86CHL1   C24 8832   6.325   4.563   8.233
   86CHL1  H24A 8833   6.268   4.545   8.327
   86CHL1  H24B 8834   6.393   4.480   8.204
   86CHL1   C25 8835   6.428   4.675   8.261
   86CHL1   H25 8836   6.490   4.646   8.349
   86CHL1   C26 8837   6.524   4.681   8.134
   86CHL1  H26A 8838   6.466   4.705   8.042
   86CHL1  H26B 8839   6.593   4.768   8.139
   86CHL1  H26C 8840   6.592   4.595   8.117
   86CHL1   C27 8841   6.353   4.807   8.291
   86CHL1  H27A 8842   6.301   4.851   8.203
   86CHL1  H27B 8843   6.275   4.795   8.369
   86CHL1  H27C 8844   6.419   4.883   8.337
   87CHL1    C3 8845   5.909   3.014   7.088
   87CHL1    H3 8846   5.809   3.058   7.108
   87CHL1    O3 8847   5.959   3.061   6.964
   87CHL1   H3' 8848   6.044   3.022   6.943
   87CHL1    C4 8849   5.996   3.075   7.197
   87CHL1   H4A 8850   6.098   3.037   7.172
   87CHL1   H4B 8851   6.013   3.184   7.187
   87CHL1    C5 8852   5.954   3.039   7.335
   87CHL1    C6 8853   5.925   3.130   7.435
   87CHL1    H6 8854   5.946   3.233   7.403
   87CHL1    C7 8855   5.886   3.098   7.572
   87CHL1   H7A 8856   5.948   3.159   7.642
   87CHL1   H7B 8857   5.781   3.128   7.591
   87CHL1    C8 8858   5.904   2.949   7.600
   87CHL1    H8 8859   6.009   2.942   7.635
   87CHL1   C14 8860   5.824   2.917   7.725
   87CHL1   H14 8861   5.718   2.923   7.692
   87CHL1   C15 8862   5.830   3.014   7.846
   87CHL1  H15A 8863   5.933   3.049   7.866
   87CHL1  H15B 8864   5.777   3.111   7.838
   87CHL1   C16 8865   5.773   2.925   7.961
   87CHL1  H16A 8866   5.847   2.913   8.043
   87CHL1  H16B 8867   5.677   2.965   8.000
   87CHL1   C17 8868   5.736   2.787   7.902
   87CHL1   H17 8869   5.641   2.796   7.846
   87CHL1   C13 8870   5.839   2.775   7.785
   87CHL1   C18 8871   5.976   2.755   7.845
   87CHL1  H18A 8872   5.997   2.814   7.937
   87CHL1  H18B 8873   5.986   2.655   7.891
   87CHL1  H18C 8874   6.054   2.776   7.770
   87CHL1   C12 8875   5.805   2.670   7.675
   87CHL1  H12A 8876   5.844   2.571   7.708
   87CHL1  H12B 8877   5.695   2.658   7.668
   87CHL1   C11 8878   5.882   2.698   7.542
   87CHL1  H11A 8879   5.989   2.674   7.561
   87CHL1  H11B 8880   5.850   2.628   7.462
   87CHL1    C9 8881   5.871   2.849   7.491
   87CHL1    H9 8882   5.762   2.862   7.472
   87CHL1   C10 8883   5.942   2.884   7.363
   87CHL1   C19 8884   6.078   2.819   7.351
   87CHL1  H19A 8885   6.065   2.711   7.327
   87CHL1  H19B 8886   6.151   2.855   7.275
   87CHL1  H19C 8887   6.127   2.832   7.450
   87CHL1    C1 8888   5.855   2.828   7.244
   87CHL1   H1A 8889   5.852   2.717   7.252
   87CHL1   H1B 8890   5.753   2.872   7.254
   87CHL1    C2 8891   5.903   2.858   7.101
   87CHL1   H2A 8892   5.824   2.823   7.031
   87CHL1   H2B 8893   6.002   2.810   7.089
   87CHL1   C20 8894   5.711   2.670   7.998
   87CHL1   H20 8895   5.804   2.647   8.053
   87CHL1   C21 8896   5.646   2.550   7.932
   87CHL1  H21A 8897   5.727   2.507   7.870
   87CHL1  H21B 8898   5.563   2.573   7.862
   87CHL1  H21C 8899   5.604   2.478   8.005
   87CHL1   C22 8900   5.622   2.719   8.122
   87CHL1  H22A 8901   5.661   2.819   8.151
   87CHL1  H22B 8902   5.515   2.733   8.094
   87CHL1   C23 8903   5.639   2.628   8.245
   87CHL1  H23A 8904   5.621   2.528   8.202
   87CHL1  H23B 8905   5.741   2.636   8.289
   87CHL1   C24 8906   5.542   2.647   8.368
   87CHL1  H24A 8907   5.562   2.749   8.408
   87CHL1  H24B 8908   5.438   2.652   8.328
   87CHL1   C25 8909   5.568   2.551   8.485
   87CHL1   H25 8910   5.669   2.567   8.528
   87CHL1   C26 8911   5.470   2.577   8.600
   87CHL1  H26A 8912   5.369   2.592   8.556
   87CHL1  H26B 8913   5.470   2.487   8.665
   87CHL1  H26C 8914   5.496   2.673   8.651
   87CHL1   C27 8915   5.560   2.401   8.449
   87CHL1  H27A 8916   5.579   2.347   8.544
   87CHL1  H27B 8917   5.462   2.373   8.406
   87CHL1  H27C 8918   5.648   2.371   8.388
   88CHL1    C3 8919   3.866   1.152   6.940
   88CHL1    H3 8920   3.963   1.202   6.960
   88CHL1    O3 8921   3.824   1.176   6.806
   88CHL1   H3' 8922   3.828   1.272   6.799
   88CHL1    C4 8923   3.870   0.998   6.975
   88CHL1   H4A 8924   3.771   0.953   6.951
   88CHL1   H4B 8925   3.941   0.949   6.904
   88CHL1    C5 8926   3.905   0.977   7.116
   88CHL1    C6 8927   4.002   0.888   7.147
   88CHL1    H6 8928   4.057   0.840   7.065
   88CHL1    C7 8929   4.038   0.855   7.289
   88CHL1   H7A 8930   4.065   0.748   7.306
   88CHL1   H7B 8931   4.132   0.901   7.327
   88CHL1    C8 8932   3.929   0.897   7.393
   88CHL1    H8 8933   3.854   0.819   7.367
   88CHL1   C14 8934   3.980   0.883   7.537
   88CHL1   H14 8935   4.066   0.949   7.563
   88CHL1   C15 8936   4.038   0.743   7.590
   88CHL1  H15A 8937   3.969   0.672   7.540
   88CHL1  H15B 8938   4.134   0.724   7.537
   88CHL1   C16 8939   4.026   0.755   7.741
   88CHL1  H16A 8940   3.975   0.657   7.757
   88CHL1  H16B 8941   4.119   0.756   7.802
   88CHL1   C17 8942   3.949   0.885   7.773
   88CHL1   H17 8943   4.028   0.963   7.778
   88CHL1   C13 8944   3.869   0.920   7.636
   88CHL1   C18 8945   3.744   0.818   7.624
   88CHL1  H18A 8946   3.665   0.858   7.691
   88CHL1  H18B 8947   3.705   0.822   7.520
   88CHL1  H18C 8948   3.770   0.711   7.636
   88CHL1   C12 8949   3.825   1.064   7.609
   88CHL1  H12A 8950   3.735   1.087   7.670
   88CHL1  H12B 8951   3.898   1.141   7.643
   88CHL1   C11 8952   3.769   1.080   7.470
   88CHL1  H11A 8953   3.674   1.023   7.466
   88CHL1  H11B 8954   3.741   1.187   7.454
   88CHL1    C9 8955   3.876   1.038   7.365
   88CHL1    H9 8956   3.966   1.102   7.373
   88CHL1   C10 8957   3.822   1.055   7.223
   88CHL1   C19 8958   3.680   0.985   7.217
   88CHL1  H19A 8959   3.601   1.049   7.262
   88CHL1  H19B 8960   3.641   0.958   7.116
   88CHL1  H19C 8961   3.694   0.889   7.270
   88CHL1    C1 8962   3.814   1.206   7.181
   88CHL1   H1A 8963   3.734   1.254   7.241
   88CHL1   H1B 8964   3.912   1.247   7.212
   88CHL1    C2 8965   3.773   1.233   7.036
   88CHL1   H2A 8966   3.782   1.342   7.016
   88CHL1   H2B 8967   3.671   1.195   7.017
   88CHL1   C20 8968   3.872   0.887   7.907
   88CHL1   H20 8969   3.775   0.838   7.883
   88CHL1   C21 8970   3.855   1.026   7.958
   88CHL1  H21A 8971   3.954   1.062   7.995
   88CHL1  H21B 8972   3.785   1.049   8.041
   88CHL1  H21C 8973   3.810   1.085   7.876
   88CHL1   C22 8974   3.935   0.801   8.012
   88CHL1  H22A 8975   3.979   0.701   7.990
   88CHL1  H22B 8976   4.015   0.861   8.060
   88CHL1   C23 8977   3.839   0.757   8.121
   88CHL1  H23A 8978   3.793   0.852   8.156
   88CHL1  H23B 8979   3.750   0.697   8.090
   88CHL1   C24 8980   3.899   0.684   8.233
   88CHL1  H24A 8981   3.904   0.576   8.208
   88CHL1  H24B 8982   3.999   0.732   8.242
   88CHL1   C25 8983   3.831   0.710   8.365
   88CHL1   H25 8984   3.792   0.814   8.357
   88CHL1   C26 8985   3.719   0.619   8.394
   88CHL1  H26A 8986   3.663   0.590   8.302
   88CHL1  H26B 8987   3.757   0.522   8.433
   88CHL1  H26C 8988   3.642   0.659   8.464
   88CHL1   C27 8989   3.928   0.709   8.488
   88CHL1  H27A 8990   3.872   0.753   8.572
   88CHL1  H27B 8991   3.960   0.607   8.518
   88CHL1  H27C 8992   4.024   0.763   8.474
   89CHL1    C3 8993   0.138   4.096   7.052
   89CHL1    H3 8994   0.120   3.991   7.021
   89CHL1    O3 8995   0.200   4.167   6.949
   89CHL1   H3' 8996   0.133   4.186   6.883
   89CHL1    C4 8997  -0.005   4.157   7.087
   89CHL1   H4A 8998   0.007   4.264   7.116
   89CHL1   H4B 8999  -0.061   4.159   6.990
   89CHL1    C5 9000  -0.069   4.088   7.205
   89CHL1    C6 9001  -0.187   4.024   7.190
   89CHL1    H6 9002  -0.237   4.034   7.093
   89CHL1    C7 9003  -0.250   3.945   7.303
   89CHL1   H7A 9004  -0.358   3.969   7.312
   89CHL1   H7B 9005  -0.243   3.836   7.284
   89CHL1    C8 9006  -0.190   3.975   7.440
   89CHL1    H8 9007  -0.228   4.073   7.476
   89CHL1   C14 9008  -0.243   3.867   7.537
   89CHL1   H14 9009  -0.219   3.769   7.491
   89CHL1   C15 9010  -0.396   3.851   7.542
   89CHL1  H15A 9011  -0.464   3.937   7.558
   89CHL1  H15B 9012  -0.433   3.803   7.449
   89CHL1   C16 9013  -0.425   3.776   7.675
   89CHL1  H16A 9014  -0.494   3.832   7.742
   89CHL1  H16B 9015  -0.463   3.677   7.642
   89CHL1   C17 9016  -0.286   3.757   7.746
   89CHL1   H17 9017  -0.244   3.663   7.703
   89CHL1   C13 9018  -0.200   3.870   7.686
   89CHL1   C18 9019  -0.226   4.003   7.758
   89CHL1  H18A 9020  -0.337   4.012   7.763
   89CHL1  H18B 9021  -0.197   4.007   7.865
   89CHL1  H18C 9022  -0.184   4.095   7.711
   89CHL1   C12 9023  -0.047   3.849   7.673
   89CHL1  H12A 9024   0.012   3.855   7.767
   89CHL1  H12B 9025  -0.028   3.748   7.630
   89CHL1   C11 9026   0.022   3.956   7.581
   89CHL1  H11A 9027   0.015   4.056   7.631
   89CHL1  H11B 9028   0.127   3.929   7.558
   89CHL1    C9 9029  -0.041   3.973   7.440
   89CHL1    H9 9030  -0.014   3.874   7.397
   89CHL1   C10 9031   0.018   4.078   7.333
   89CHL1   C19 9032   0.029   4.206   7.415
   89CHL1  H19A 9033   0.065   4.286   7.347
   89CHL1  H19B 9034  -0.068   4.236   7.459
   89CHL1  H19C 9035   0.091   4.191   7.506
   89CHL1    C1 9036   0.160   4.029   7.296
   89CHL1   H1A 9037   0.223   4.023   7.387
   89CHL1   H1B 9038   0.158   3.923   7.263
   89CHL1    C2 9039   0.227   4.107   7.174
   89CHL1   H2A 9040   0.326   4.061   7.152
   89CHL1   H2B 9041   0.230   4.216   7.193
   89CHL1   C20 9042  -0.297   3.733   7.900
   89CHL1   H20 9043  -0.330   3.830   7.944
   89CHL1   C21 9044  -0.160   3.686   7.954
   89CHL1  H21A 9045  -0.082   3.763   7.932
   89CHL1  H21B 9046  -0.119   3.588   7.920
   89CHL1  H21C 9047  -0.153   3.687   8.065
   89CHL1   C22 9048  -0.410   3.632   7.936
   89CHL1  H22A 9049  -0.511   3.666   7.905
   89CHL1  H22B 9050  -0.379   3.544   7.877
   89CHL1   C23 9051  -0.419   3.592   8.087
   89CHL1  H23A 9052  -0.494   3.511   8.088
   89CHL1  H23B 9053  -0.324   3.552   8.129
   89CHL1   C24 9054  -0.483   3.703   8.174
   89CHL1  H24A 9055  -0.413   3.788   8.189
   89CHL1  H24B 9056  -0.578   3.736   8.127
   89CHL1   C25 9057  -0.518   3.655   8.318
   89CHL1   H25 9058  -0.558   3.744   8.372
   89CHL1   C26 9059  -0.625   3.545   8.313
   89CHL1  H26A 9060  -0.706   3.589   8.251
   89CHL1  H26B 9061  -0.578   3.448   8.285
   89CHL1  H26C 9062  -0.674   3.548   8.413
   89CHL1   C27 9063  -0.384   3.613   8.387
   89CHL1  H27A 9064  -0.407   3.590   8.493
   89CHL1  H27B 9065  -0.342   3.524   8.336
   89CHL1  H27C 9066  -0.312   3.697   8.385
   90CHL1    C3 9067   0.040   5.673   6.946
   90CHL1    H3 9068   0.021   5.569   6.980
   90CHL1    O3 9069   0.044   5.674   6.803
   90CHL1   H3' 9070  -0.045   5.693   6.772
   90CHL1    C4 9071  -0.066   5.768   6.997
   90CHL1   H4A 9072  -0.058   5.873   6.962
   90CHL1   H4B 9073  -0.166   5.750   6.952
   90CHL1    C5 9074  -0.079   5.770   7.147
   90CHL1    C6 9075  -0.190   5.729   7.211
   90CHL1    H6 9076  -0.275   5.694   7.152
   90CHL1    C7 9077  -0.213   5.735   7.362
   90CHL1   H7A 9078  -0.313   5.775   7.388
   90CHL1   H7B 9079  -0.218   5.633   7.405
   90CHL1    C8 9080  -0.099   5.819   7.433
   90CHL1    H8 9081  -0.120   5.926   7.414
   90CHL1   C14 9082  -0.097   5.778   7.578
   90CHL1   H14 9083  -0.063   5.673   7.589
   90CHL1   C15 9084  -0.232   5.790   7.649
   90CHL1  H15A 9085  -0.277   5.885   7.613
   90CHL1  H15B 9086  -0.302   5.705   7.635
   90CHL1   C16 9087  -0.193   5.798   7.799
   90CHL1  H16A 9088  -0.241   5.888   7.845
   90CHL1  H16B 9089  -0.223   5.702   7.846
   90CHL1   C17 9090  -0.035   5.798   7.805
   90CHL1   H17 9091  -0.010   5.689   7.804
   90CHL1   C13 9092   0.006   5.859   7.665
   90CHL1   C18 9093  -0.028   6.015   7.664
   90CHL1  H18A 9094  -0.137   6.035   7.674
   90CHL1  H18B 9095   0.028   6.064   7.746
   90CHL1  H18C 9096   0.004   6.056   7.567
   90CHL1   C12 9097   0.146   5.827   7.610
   90CHL1  H12A 9098   0.226   5.883   7.663
   90CHL1  H12B 9099   0.177   5.722   7.629
   90CHL1   C11 9100   0.158   5.847   7.460
   90CHL1  H11A 9101   0.157   5.958   7.453
   90CHL1  H11B 9102   0.262   5.817   7.432
   90CHL1    C9 9103   0.041   5.784   7.376
   90CHL1    H9 9104   0.043   5.674   7.391
   90CHL1   C10 9105   0.048   5.813   7.224
   90CHL1   C19 9106   0.071   5.964   7.208
   90CHL1  H19A 9107   0.071   5.992   7.100
   90CHL1  H19B 9108  -0.006   6.025   7.259
   90CHL1  H19C 9109   0.173   5.990   7.244
   90CHL1    C1 9110   0.158   5.726   7.157
   90CHL1   H1A 9111   0.255   5.750   7.204
   90CHL1   H1B 9112   0.136   5.619   7.174
   90CHL1    C2 9113   0.169   5.729   7.005
   90CHL1   H2A 9114   0.255   5.663   6.979
   90CHL1   H2B 9115   0.195   5.830   6.966
   90CHL1   C20 9116   0.028   5.860   7.928
   90CHL1   H20 9117  -0.005   5.966   7.931
   90CHL1   C21 9118   0.179   5.838   7.923
   90CHL1  H21A 9119   0.225   5.904   7.846
   90CHL1  H21B 9120   0.204   5.735   7.888
   90CHL1  H21C 9121   0.226   5.854   8.022
   90CHL1   C22 9122  -0.025   5.792   8.060
   90CHL1  H22A 9123  -0.135   5.775   8.058
   90CHL1  H22B 9124   0.020   5.691   8.064
   90CHL1   C23 9125   0.001   5.883   8.185
   90CHL1  H23A 9126   0.103   5.879   8.229
   90CHL1  H23B 9127  -0.009   5.989   8.154
   90CHL1   C24 9128  -0.095   5.852   8.308
   90CHL1  H24A 9129  -0.198   5.874   8.274
   90CHL1  H24B 9130  -0.091   5.743   8.328
   90CHL1   C25 9131  -0.061   5.932   8.434
   90CHL1   H25 9132   0.050   5.941   8.437
   90CHL1   C26 9133  -0.132   6.068   8.430
   90CHL1  H26A 9134  -0.110   6.123   8.524
   90CHL1  H26B 9135  -0.094   6.130   8.346
   90CHL1  H26C 9136  -0.242   6.059   8.423
   90CHL1   C27 9137  -0.105   5.856   8.557
   90CHL1  H27A 9138  -0.032   5.783   8.597
   90CHL1  H27B 9139  -0.124   5.932   8.636
   90CHL1  H27C 9140  -0.201   5.810   8.526
   91CHL1    C3 9141   1.384   0.239   7.188
   91CHL1    H3 9142   1.490   0.227   7.219
   91CHL1    O3 9143   1.387   0.273   7.051
   91CHL1   H3' 9144   1.308   0.228   7.020
   91CHL1    C4 9145   1.318   0.092   7.192
   91CHL1   H4A 9146   1.216   0.110   7.153
   91CHL1   H4B 9147   1.372   0.020   7.126
   91CHL1    C5 9148   1.313   0.037   7.338
   91CHL1    C6 9149   1.351  -0.088   7.369
   91CHL1    H6 9150   1.394  -0.153   7.291
   91CHL1    C7 9151   1.353  -0.138   7.508
   91CHL1   H7A 9152   1.307  -0.238   7.492
   91CHL1   H7B 9153   1.456  -0.146   7.547
   91CHL1    C8 9154   1.264  -0.061   7.611
   91CHL1    H8 9155   1.159  -0.086   7.585
   91CHL1   C14 9156   1.290  -0.095   7.758
   91CHL1   H14 9157   1.395  -0.061   7.773
   91CHL1   C15 9158   1.293  -0.245   7.794
   91CHL1  H15A 9159   1.209  -0.295   7.742
   91CHL1  H15B 9160   1.386  -0.301   7.773
   91CHL1   C16 9161   1.263  -0.246   7.940
   91CHL1  H16A 9162   1.173  -0.310   7.950
   91CHL1  H16B 9163   1.339  -0.301   7.999
   91CHL1   C17 9164   1.249  -0.094   7.986
   91CHL1   H17 9165   1.351  -0.059   8.009
   91CHL1   C13 9166   1.202  -0.019   7.854
   91CHL1   C18 9167   1.051  -0.053   7.834
   91CHL1  H18A 9168   0.990   0.006   7.906
   91CHL1  H18B 9169   1.019  -0.016   7.734
   91CHL1  H18C 9170   1.023  -0.159   7.851
   91CHL1   C12 9171   1.235   0.127   7.844
   91CHL1  H12A 9172   1.168   0.191   7.904
   91CHL1  H12B 9173   1.340   0.146   7.876
   91CHL1   C11 9174   1.208   0.173   7.696
   91CHL1  H11A 9175   1.097   0.169   7.691
   91CHL1  H11B 9176   1.239   0.280   7.696
   91CHL1    C9 9177   1.282   0.091   7.586
   91CHL1    H9 9178   1.390   0.109   7.607
   91CHL1   C10 9179   1.258   0.137   7.445
   91CHL1   C19 9180   1.105   0.151   7.416
   91CHL1  H19A 9181   1.050   0.077   7.478
   91CHL1  H19B 9182   1.078   0.253   7.448
   91CHL1  H19C 9183   1.083   0.135   7.308
   91CHL1    C1 9184   1.323   0.275   7.424
   91CHL1   H1A 9185   1.279   0.348   7.496
   91CHL1   H1B 9186   1.428   0.267   7.460
   91CHL1    C2 9187   1.315   0.331   7.283
   91CHL1   H2A 9188   1.370   0.428   7.287
   91CHL1   H2B 9189   1.215   0.371   7.256
   91CHL1   C20 9190   1.160  -0.085   8.108
   91CHL1   H20 9191   1.053  -0.103   8.083
   91CHL1   C21 9192   1.183   0.052   8.177
   91CHL1  H21A 9193   1.277   0.057   8.235
   91CHL1  H21B 9194   1.101   0.081   8.247
   91CHL1  H21C 9195   1.185   0.126   8.093
   91CHL1   C22 9196   1.188  -0.190   8.219
   91CHL1  H22A 9197   1.161  -0.288   8.174
   91CHL1  H22B 9198   1.295  -0.187   8.250
   91CHL1   C23 9199   1.107  -0.167   8.343
   91CHL1  H23A 9200   1.164  -0.089   8.398
   91CHL1  H23B 9201   1.004  -0.126   8.330
   91CHL1   C24 9202   1.089  -0.298   8.425
   91CHL1  H24A 9203   1.039  -0.378   8.365
   91CHL1  H24B 9204   1.184  -0.346   8.457
   91CHL1   C25 9205   1.015  -0.282   8.557
   91CHL1   H25 9206   1.025  -0.382   8.604
   91CHL1   C26 9207   1.076  -0.175   8.650
   91CHL1  H26A 9208   1.062  -0.076   8.600
   91CHL1  H26B 9209   1.024  -0.170   8.748
   91CHL1  H26C 9210   1.184  -0.192   8.668
   91CHL1   C27 9211   0.865  -0.251   8.528
   91CHL1  H27A 9212   0.809  -0.276   8.621
   91CHL1  H27B 9213   0.858  -0.141   8.513
   91CHL1  H27C 9214   0.832  -0.313   8.443
   92CHL1    C3 9215   4.107   2.133   6.823
   92CHL1    H3 9216   4.131   2.025   6.832
   92CHL1    O3 9217   4.131   2.184   6.690
   92CHL1   H3' 9218   4.042   2.206   6.664
   92CHL1    C4 9219   3.961   2.154   6.856
   92CHL1   H4A 9220   3.938   2.259   6.830
   92CHL1   H4B 9221   3.901   2.104   6.778
   92CHL1    C5 9222   3.934   2.113   6.991
   92CHL1    C6 9223   3.835   2.036   7.027
   92CHL1    H6 9224   3.773   1.992   6.947
   92CHL1    C7 9225   3.805   2.006   7.169
   92CHL1   H7A 9226   3.698   2.028   7.192
   92CHL1   H7B 9227   3.813   1.896   7.186
   92CHL1    C8 9228   3.894   2.081   7.278
   92CHL1    H8 9229   3.840   2.177   7.291
   92CHL1   C14 9230   3.892   2.003   7.409
   92CHL1   H14 9231   3.951   1.910   7.390
   92CHL1   C15 9232   3.755   1.956   7.462
   92CHL1  H15A 9233   3.690   2.047   7.457
   92CHL1  H15B 9234   3.732   1.863   7.405
   92CHL1   C16 9235   3.784   1.930   7.608
   92CHL1  H16A 9236   3.709   1.982   7.672
   92CHL1  H16B 9237   3.787   1.821   7.625
   92CHL1   C17 9238   3.931   1.977   7.641
   92CHL1   H17 9239   3.997   1.890   7.617
   92CHL1   C13 9240   3.962   2.081   7.527
   92CHL1   C18 9241   3.895   2.218   7.545
   92CHL1  H18A 9242   3.911   2.283   7.457
   92CHL1  H18B 9243   3.786   2.212   7.563
   92CHL1  H18C 9244   3.959   2.271   7.619
   92CHL1   C12 9245   4.107   2.098   7.480
   92CHL1  H12A 9246   4.158   2.151   7.564
   92CHL1  H12B 9247   4.161   2.002   7.463
   92CHL1   C11 9248   4.123   2.172   7.351
   92CHL1  H11A 9249   4.100   2.281   7.358
   92CHL1  H11B 9250   4.231   2.163   7.327
   92CHL1    C9 9251   4.039   2.102   7.236
   92CHL1    H9 9252   4.079   2.000   7.226
   92CHL1   C10 9253   4.041   2.169   7.096
   92CHL1   C19 9254   3.998   2.318   7.116
   92CHL1  H19A 9255   3.896   2.317   7.160
   92CHL1  H19B 9256   4.071   2.358   7.189
   92CHL1  H19C 9257   4.003   2.372   7.019
   92CHL1    C1 9258   4.190   2.171   7.057
   92CHL1   H1A 9259   4.258   2.229   7.124
   92CHL1   H1B 9260   4.222   2.064   7.057
   92CHL1    C2 9261   4.203   2.210   6.908
   92CHL1   H2A 9262   4.308   2.213   6.873
   92CHL1   H2B 9263   4.167   2.315   6.903
   92CHL1   C20 9264   3.962   2.015   7.785
   92CHL1   H20 9265   3.936   2.122   7.797
   92CHL1   C21 9266   4.115   1.992   7.811
   92CHL1  H21A 9267   4.144   1.885   7.808
   92CHL1  H21B 9268   4.142   2.023   7.914
   92CHL1  H21C 9269   4.181   2.049   7.743
   92CHL1   C22 9270   3.887   1.919   7.881
   92CHL1  H22A 9271   3.776   1.921   7.872
   92CHL1  H22B 9272   3.918   1.815   7.857
   92CHL1   C23 9273   3.931   1.933   8.029
   92CHL1  H23A 9274   4.037   1.917   8.057
   92CHL1  H23B 9275   3.910   2.039   8.053
   92CHL1   C24 9276   3.836   1.850   8.114
   92CHL1  H24A 9277   3.738   1.857   8.063
   92CHL1  H24B 9278   3.869   1.744   8.112
   92CHL1   C25 9279   3.822   1.895   8.257
   92CHL1   H25 9280   3.772   1.994   8.253
   92CHL1   C26 9281   3.742   1.795   8.344
   92CHL1  H26A 9282   3.647   1.772   8.290
   92CHL1  H26B 9283   3.803   1.703   8.340
   92CHL1  H26C 9284   3.713   1.828   8.447
   92CHL1   C27 9285   3.967   1.905   8.326
   92CHL1  H27A 9286   4.032   1.983   8.280
   92CHL1  H27B 9287   3.955   1.938   8.431
   92CHL1  H27C 9288   4.018   1.806   8.327
   93CHL1    C3 9289   2.872   6.492   6.952
   93CHL1    H3 9290   2.936   6.402   6.964
   93CHL1    O3 9291   2.829   6.503   6.818
   93CHL1   H3' 9292   2.783   6.588   6.812
   93CHL1    C4 9293   2.751   6.482   7.050
   93CHL1   H4A 9294   2.677   6.564   7.036
   93CHL1   H4B 9295   2.692   6.391   7.028
   93CHL1    C5 9296   2.786   6.483   7.196
   93CHL1    C6 9297   2.742   6.393   7.288
   93CHL1    H6 9298   2.673   6.313   7.255
   93CHL1    C7 9299   2.788   6.388   7.437
   93CHL1   H7A 9300   2.695   6.380   7.497
   93CHL1   H7B 9301   2.861   6.305   7.447
   93CHL1    C8 9302   2.850   6.522   7.481
   93CHL1    H8 9303   2.776   6.604   7.493
   93CHL1   C14 9304   2.919   6.513   7.612
   93CHL1   H14 9305   3.011   6.451   7.610
   93CHL1   C15 9306   2.838   6.455   7.729
   93CHL1  H15A 9307   2.734   6.491   7.714
   93CHL1  H15B 9308   2.847   6.344   7.737
   93CHL1   C16 9309   2.910   6.505   7.854
   93CHL1  H16A 9310   2.849   6.573   7.917
   93CHL1  H16B 9311   2.940   6.423   7.923
   93CHL1   C17 9312   3.031   6.597   7.806
   93CHL1   H17 9313   3.119   6.534   7.780
   93CHL1   C13 9314   2.978   6.645   7.669
   93CHL1   C18 9315   2.866   6.758   7.691
   93CHL1  H18A 9316   2.900   6.840   7.757
   93CHL1  H18B 9317   2.836   6.799   7.592
   93CHL1  H18C 9318   2.777   6.711   7.736
   93CHL1   C12 9319   3.085   6.685   7.565
   93CHL1  H12A 9320   3.154   6.766   7.598
   93CHL1  H12B 9321   3.159   6.602   7.555
   93CHL1   C11 9322   3.022   6.702   7.422
   93CHL1  H11A 9323   2.956   6.790   7.430
   93CHL1  H11B 9324   3.102   6.725   7.349
   93CHL1    C9 9325   2.950   6.572   7.374
   93CHL1    H9 9326   3.020   6.487   7.363
   93CHL1   C10 9327   2.886   6.597   7.236
   93CHL1   C19 9328   2.803   6.725   7.238
   93CHL1  H19A 9329   2.878   6.807   7.240
   93CHL1  H19B 9330   2.742   6.735   7.146
   93CHL1  H19C 9331   2.733   6.728   7.324
   93CHL1    C1 9332   3.001   6.602   7.126
   93CHL1   H1A 9333   3.062   6.693   7.145
   93CHL1   H1B 9334   3.070   6.515   7.132
   93CHL1    C2 9335   2.956   6.615   6.981
   93CHL1   H2A 9336   3.051   6.625   6.924
   93CHL1   H2B 9337   2.883   6.699   6.969
   93CHL1   C20 9338   3.068   6.701   7.915
   93CHL1   H20 9339   2.983   6.771   7.923
   93CHL1   C21 9340   3.187   6.786   7.865
   93CHL1  H21A 9341   3.138   6.865   7.805
   93CHL1  H21B 9342   3.262   6.722   7.814
   93CHL1  H21C 9343   3.237   6.837   7.950
   93CHL1   C22 9344   3.094   6.640   8.052
   93CHL1  H22A 9345   3.095   6.719   8.130
   93CHL1  H22B 9346   2.998   6.592   8.081
   93CHL1   C23 9347   3.213   6.546   8.062
   93CHL1  H23A 9348   3.201   6.461   7.991
   93CHL1  H23B 9349   3.305   6.596   8.027
   93CHL1   C24 9350   3.237   6.509   8.208
   93CHL1  H24A 9351   3.216   6.601   8.268
   93CHL1  H24B 9352   3.156   6.442   8.242
   93CHL1   C25 9353   3.380   6.458   8.240
   93CHL1   H25 9354   3.444   6.544   8.214
   93CHL1   C26 9355   3.393   6.430   8.393
   93CHL1  H26A 9356   3.343   6.508   8.453
   93CHL1  H26B 9357   3.327   6.342   8.412
   93CHL1  H26C 9358   3.499   6.413   8.423
   93CHL1   C27 9359   3.410   6.335   8.158
   93CHL1  H27A 9360   3.343   6.255   8.196
   93CHL1  H27B 9361   3.378   6.353   8.053
   93CHL1  H27C 9362   3.518   6.310   8.166
   94CHL1    C3 9363   4.985   2.716   6.949
   94CHL1    H3 9364   4.957   2.609   6.954
   94CHL1    O3 9365   5.026   2.747   6.820
   94CHL1   H3' 9366   5.074   2.830   6.827
   94CHL1    C4 9367   4.872   2.805   6.999
   94CHL1   H4A 9368   4.900   2.910   6.977
   94CHL1   H4B 9369   4.789   2.770   6.934
   94CHL1    C5 9370   4.840   2.774   7.147
   94CHL1    C6 9371   4.711   2.749   7.185
   94CHL1    H6 9372   4.629   2.744   7.111
   94CHL1    C7 9373   4.667   2.730   7.333
   94CHL1   H7A 9374   4.563   2.767   7.344
   94CHL1   H7B 9375   4.662   2.620   7.347
   94CHL1    C8 9376   4.774   2.774   7.436
   94CHL1    H8 9377   4.759   2.882   7.455
   94CHL1   C14 9378   4.745   2.708   7.573
   94CHL1   H14 9379   4.740   2.599   7.552
   94CHL1   C15 9380   4.612   2.742   7.640
   94CHL1  H15A 9381   4.601   2.853   7.638
   94CHL1  H15B 9382   4.528   2.700   7.582
   94CHL1   C16 9383   4.632   2.697   7.779
   94CHL1  H16A 9384   4.604   2.777   7.850
   94CHL1  H16B 9385   4.584   2.598   7.796
   94CHL1   C17 9386   4.778   2.661   7.805
   94CHL1   H17 9387   4.799   2.553   7.788
   94CHL1   C13 9388   4.851   2.733   7.684
   94CHL1   C18 9389   4.864   2.889   7.714
   94CHL1  H18A 9390   4.871   2.950   7.622
   94CHL1  H18B 9391   4.776   2.936   7.762
   94CHL1  H18C 9392   4.947   2.912   7.785
   94CHL1   C12 9393   4.985   2.671   7.636
   94CHL1  H12A 9394   5.064   2.701   7.707
   94CHL1  H12B 9395   4.980   2.560   7.636
   94CHL1   C11 9396   5.032   2.732   7.502
   94CHL1  H11A 9397   5.056   2.838   7.523
   94CHL1  H11B 9398   5.124   2.689   7.456
   94CHL1    C9 9399   4.913   2.732   7.388
   94CHL1    H9 9400   4.889   2.625   7.370
   94CHL1   C10 9401   4.955   2.776   7.246
   94CHL1   C19 9402   4.999   2.929   7.256
   94CHL1  H19A 9403   5.031   2.969   7.158
   94CHL1  H19B 9404   4.913   2.985   7.297
   94CHL1  H19C 9405   5.098   2.939   7.306
   94CHL1    C1 9406   5.070   2.685   7.184
   94CHL1   H1A 9407   5.166   2.692   7.239
   94CHL1   H1B 9408   5.046   2.577   7.177
   94CHL1    C2 9409   5.106   2.726   7.042
   94CHL1   H2A 9410   5.185   2.654   7.009
   94CHL1   H2B 9411   5.138   2.832   7.044
   94CHL1   C20 9412   4.823   2.680   7.952
   94CHL1   H20 9413   4.828   2.788   7.977
   94CHL1   C21 9414   4.963   2.623   7.973
   94CHL1  H21A 9415   4.990   2.612   8.081
   94CHL1  H21B 9416   5.040   2.689   7.927
   94CHL1  H21C 9417   4.975   2.521   7.931
   94CHL1   C22 9418   4.722   2.620   8.046
   94CHL1  H22A 9419   4.624   2.672   8.040
   94CHL1  H22B 9420   4.709   2.517   8.006
   94CHL1   C23 9421   4.758   2.617   8.195
   94CHL1  H23A 9422   4.852   2.569   8.229
   94CHL1  H23B 9423   4.765   2.723   8.225
   94CHL1   C24 9424   4.651   2.553   8.285
   94CHL1  H24A 9425   4.552   2.581   8.243
   94CHL1  H24B 9426   4.664   2.443   8.273
   94CHL1   C25 9427   4.664   2.575   8.434
   94CHL1   H25 9428   4.673   2.685   8.450
   94CHL1   C26 9429   4.543   2.515   8.509
   94CHL1  H26A 9430   4.452   2.559   8.463
   94CHL1  H26B 9431   4.532   2.405   8.510
   94CHL1  H26C 9432   4.539   2.556   8.612
   94CHL1   C27 9433   4.798   2.513   8.501
   94CHL1  H27A 9434   4.886   2.542   8.439
   94CHL1  H27B 9435   4.813   2.556   8.602
   94CHL1  H27C 9436   4.780   2.404   8.494
   95CHL1    C3 9437   4.844   1.833   6.589
   95CHL1    H3 9438   4.930   1.767   6.611
   95CHL1    O3 9439   4.853   1.875   6.452
   95CHL1   H3' 9440   4.875   1.969   6.451
   95CHL1    C4 9441   4.709   1.759   6.616
   95CHL1   H4A 9442   4.625   1.813   6.567
   95CHL1   H4B 9443   4.710   1.665   6.558
   95CHL1    C5 9444   4.679   1.728   6.760
   95CHL1    C6 9445   4.647   1.606   6.804
   95CHL1    H6 9446   4.651   1.520   6.734
   95CHL1    C7 9447   4.619   1.567   6.942
   95CHL1   H7A 9448   4.532   1.499   6.952
   95CHL1   H7B 9449   4.695   1.502   6.990
   95CHL1    C8 9450   4.583   1.692   7.030
   95CHL1    H8 9451   4.482   1.730   7.004
   95CHL1   C14 9452   4.565   1.656   7.179
   95CHL1   H14 9453   4.658   1.619   7.228
   95CHL1   C15 9454   4.465   1.546   7.212
   95CHL1  H15A 9455   4.368   1.570   7.162
   95CHL1  H15B 9456   4.490   1.444   7.176
   95CHL1   C16 9457   4.448   1.555   7.364
   95CHL1  H16A 9458   4.339   1.558   7.388
   95CHL1  H16B 9459   4.503   1.473   7.414
   95CHL1   C17 9460   4.527   1.687   7.410
   95CHL1   H17 9461   4.635   1.664   7.424
   95CHL1   C13 9462   4.536   1.770   7.279
   95CHL1   C18 9463   4.401   1.837   7.241
   95CHL1  H18A 9464   4.396   1.937   7.290
   95CHL1  H18B 9465   4.388   1.865   7.134
   95CHL1  H18C 9466   4.310   1.783   7.275
   95CHL1   C12 9467   4.661   1.868   7.268
   95CHL1  H12A 9468   4.663   1.958   7.333
   95CHL1  H12B 9469   4.751   1.809   7.295
   95CHL1   C11 9470   4.689   1.915   7.122
   95CHL1  H11A 9471   4.610   1.992   7.110
   95CHL1  H11B 9472   4.782   1.976   7.116
   95CHL1    C9 9473   4.692   1.802   7.012
   95CHL1    H9 9474   4.789   1.751   7.032
   95CHL1   C10 9475   4.691   1.848   6.862
   95CHL1   C19 9476   4.579   1.950   6.850
   95CHL1  H19A 9477   4.569   1.980   6.744
   95CHL1  H19B 9478   4.482   1.913   6.890
   95CHL1  H19C 9479   4.598   2.035   6.919
   95CHL1    C1 9480   4.837   1.912   6.829
   95CHL1   H1A 9481   4.845   2.009   6.882
   95CHL1   H1B 9482   4.913   1.835   6.856
   95CHL1    C2 9483   4.853   1.952   6.679
   95CHL1   H2A 9484   4.953   1.999   6.662
   95CHL1   H2B 9485   4.778   2.028   6.648
   95CHL1   C20 9486   4.467   1.748   7.534
   95CHL1   H20 9487   4.357   1.765   7.524
   95CHL1   C21 9488   4.523   1.891   7.548
   95CHL1  H21A 9489   4.481   1.954   7.467
   95CHL1  H21B 9490   4.634   1.895   7.554
   95CHL1  H21C 9491   4.487   1.933   7.644
   95CHL1   C22 9492   4.480   1.667   7.667
   95CHL1  H22A 9493   4.442   1.566   7.644
   95CHL1  H22B 9494   4.591   1.667   7.670
   95CHL1   C23 9495   4.414   1.734   7.792
   95CHL1  H23A 9496   4.501   1.788   7.835
   95CHL1  H23B 9497   4.345   1.813   7.756
   95CHL1   C24 9498   4.355   1.631   7.894
   95CHL1  H24A 9499   4.277   1.569   7.845
   95CHL1  H24B 9500   4.435   1.564   7.931
   95CHL1   C25 9501   4.292   1.691   8.023
   95CHL1   H25 9502   4.206   1.754   7.994
   95CHL1   C26 9503   4.258   1.585   8.118
   95CHL1  H26A 9504   4.185   1.514   8.074
   95CHL1  H26B 9505   4.343   1.525   8.156
   95CHL1  H26C 9506   4.204   1.625   8.207
   95CHL1   C27 9507   4.396   1.783   8.099
   95CHL1  H27A 9508   4.480   1.725   8.143
   95CHL1  H27B 9509   4.442   1.862   8.036
   95CHL1  H27C 9510   4.339   1.845   8.171
   96CHL1    C3 9511   4.725   1.136   6.656
   96CHL1    H3 9512   4.638   1.193   6.696
   96CHL1    O3 9513   4.724   1.151   6.516
   96CHL1   H3' 9514   4.812   1.132   6.481
   96CHL1    C4 9515   4.846   1.201   6.720
   96CHL1   H4A 9516   4.938   1.150   6.683
   96CHL1   H4B 9517   4.844   1.310   6.698
   96CHL1    C5 9518   4.832   1.172   6.869
   96CHL1    C6 9519   4.828   1.278   6.956
   96CHL1    H6 9520   4.844   1.377   6.912
   96CHL1    C7 9521   4.806   1.269   7.107
   96CHL1   H7A 9522   4.877   1.337   7.158
   96CHL1   H7B 9523   4.706   1.307   7.137
   96CHL1    C8 9524   4.833   1.128   7.158
   96CHL1    H8 9525   4.943   1.116   7.171
   96CHL1   C14 9526   4.769   1.118   7.295
   96CHL1   H14 9527   4.659   1.114   7.280
   96CHL1   C15 9528   4.783   1.238   7.398
   96CHL1  H15A 9529   4.888   1.273   7.388
   96CHL1  H15B 9530   4.711   1.320   7.377
   96CHL1   C16 9531   4.755   1.180   7.537
   96CHL1  H16A 9532   4.852   1.182   7.590
   96CHL1  H16B 9533   4.676   1.236   7.591
   96CHL1   C17 9534   4.736   1.023   7.526
   96CHL1   H17 9535   4.626   1.011   7.515
   96CHL1   C13 9536   4.796   0.989   7.381
   96CHL1   C18 9537   4.945   0.963   7.400
   96CHL1  H18A 9538   4.997   1.046   7.453
   96CHL1  H18B 9539   4.946   0.862   7.447
   96CHL1  H18C 9540   4.983   0.955   7.296
   96CHL1   C12 9541   4.729   0.880   7.292
   96CHL1  H12A 9542   4.750   0.782   7.339
   96CHL1  H12B 9543   4.619   0.894   7.294
   96CHL1   C11 9544   4.775   0.886   7.147
   96CHL1  H11A 9545   4.883   0.862   7.138
   96CHL1  H11B 9546   4.717   0.824   7.075
   96CHL1    C9 9547   4.767   1.020   7.076
   96CHL1    H9 9548   4.661   1.053   7.075
   96CHL1   C10 9549   4.801   1.027   6.922
   96CHL1   C19 9550   4.943   0.967   6.898
   96CHL1  H19A 9551   4.950   0.869   6.951
   96CHL1  H19B 9552   4.969   0.953   6.791
   96CHL1  H19C 9553   5.021   1.035   6.939
   96CHL1    C1 9554   4.683   0.966   6.838
   96CHL1   H1A 9555   4.682   0.856   6.854
   96CHL1   H1B 9556   4.588   1.011   6.874
   96CHL1    C2 9557   4.699   0.989   6.693
   96CHL1   H2A 9558   4.604   0.963   6.641
   96CHL1   H2B 9559   4.780   0.927   6.647
   96CHL1   C20 9560   4.775   0.949   7.652
   96CHL1   H20 9561   4.885   0.946   7.669
   96CHL1   C21 9562   4.717   0.804   7.639
   96CHL1  H21A 9563   4.609   0.825   7.619
   96CHL1  H21B 9564   4.722   0.757   7.740
   96CHL1  H21C 9565   4.755   0.736   7.561
   96CHL1   C22 9566   4.722   1.023   7.782
   96CHL1  H22A 9567   4.770   1.124   7.787
   96CHL1  H22B 9568   4.614   1.042   7.763
   96CHL1   C23 9569   4.750   0.945   7.915
   96CHL1  H23A 9570   4.671   0.867   7.915
   96CHL1  H23B 9571   4.853   0.903   7.909
   96CHL1   C24 9572   4.730   1.024   8.049
   96CHL1  H24A 9573   4.787   1.119   8.043
   96CHL1  H24B 9574   4.621   1.047   8.055
   96CHL1   C25 9575   4.783   0.946   8.167
   96CHL1   H25 9576   4.891   0.932   8.145
   96CHL1   C26 9577   4.770   1.022   8.299
   96CHL1  H26A 9578   4.839   1.110   8.297
   96CHL1  H26B 9579   4.664   1.049   8.315
   96CHL1  H26C 9580   4.800   0.947   8.374
   96CHL1   C27 9581   4.714   0.812   8.189
   96CHL1  H27A 9582   4.711   0.750   8.097
   96CHL1  H27B 9583   4.769   0.751   8.264
   96CHL1  H27C 9584   4.609   0.823   8.222
   97OSM      N 9585   2.617   2.304  11.181
   97OSM    C15 9586   2.529   2.289  11.302
   97OSM   H15A 9587   2.435   2.261  11.257
   97OSM   H15B 9588   2.516   2.381  11.357
   97OSM   H15C 9589   2.559   2.206  11.363
   97OSM    C14 9590   2.567   2.428  11.111
   97OSM   H14A 9591   2.462   2.415  11.088
   97OSM   H14B 9592   2.610   2.447  11.014
   97OSM   H14C 9593   2.589   2.523  11.157
   97OSM    C13 9594   2.758   2.322  11.218
   97OSM   H13A 9595   2.838   2.346  11.150
   97OSM   H13B 9596   2.792   2.225  11.252
   97OSM   H13C 9597   2.777   2.399  11.292
   97OSM    C12 9598   2.601   2.183  11.089
   97OSM   H12A 9599   2.662   2.104  11.129
   97OSM   H12B 9600   2.648   2.210  10.995
   97OSM    C11 9601   2.460   2.133  11.052
   97OSM   H11A 9602   2.485   2.050  10.982
   97OSM   H11B 9603   2.417   2.212  10.987
   97OSM      P 9604   2.375   1.958  11.211
   97OSM    O13 9605   2.506   1.915  11.257
   97OSM    O14 9606   2.263   1.952  11.302
   97OSM    O11 9607   2.333   1.878  11.090
   97OSM    O12 9608   2.376   2.101  11.155
   97OSM    C1S 9609   2.217   1.898  11.008
   97OSM    H1S 9610   2.178   2.001  11.019
   97OSM    H1T 9611   2.139   1.825  11.036
   97OSM     NF 9612   2.133   1.916  10.770
   97OSM    HNF 9613   2.085   1.840  10.727
   97OSM    C2S 9614   2.251   1.889  10.853
   97OSM    H2S 9615   2.323   1.970  10.829
   97OSM    C3S 9616   2.314   1.746  10.825
   97OSM    H3S 9617   2.242   1.663  10.839
   97OSM     O3 9618   2.425   1.703  10.907
   97OSM    HO3 9619   2.431   1.766  10.979
   97OSM    C4S 9620   2.357   1.736  10.678
   97OSM    H4S 9621   2.304   1.658  10.622
   97OSM    C5S 9622   2.458   1.782  10.609
   97OSM    H5S 9623   2.528   1.856  10.648
   97OSM    C6S 9624   2.478   1.736  10.471
   97OSM    H6S 9625   2.499   1.627  10.477
   97OSM    H6T 9626   2.578   1.769  10.435
   97OSM    C7S 9627   2.372   1.782  10.369
   97OSM    H7S 9628   2.372   1.892  10.357
   97OSM    H7T 9629   2.271   1.753  10.404
   97OSM    C8S 9630   2.392   1.719  10.225
   97OSM    H8S 9631   2.394   1.611  10.248
   97OSM    H8T 9632   2.494   1.745  10.189
   97OSM    C9S 9633   2.290   1.769  10.123
   97OSM    H9S 9634   2.312   1.878  10.124
   97OSM    H9T 9635   2.186   1.769  10.162
   97OSM   C10S 9636   2.293   1.706   9.979
   97OSM   H10S 9637   2.216   1.742   9.909
   97OSM   H10T 9638   2.267   1.598   9.980
   97OSM   C11S 9639   2.428   1.726   9.903
   97OSM   H11S 9640   2.507   1.660   9.945
   97OSM   H11T 9641   2.456   1.832   9.921
   97OSM   C12S 9642   2.408   1.716   9.762
   97OSM   H12S 9643   2.342   1.801   9.734
   97OSM   H12T 9644   2.352   1.625   9.732
   97OSM   C13S 9645   2.536   1.738   9.682
   97OSM   H13S 9646   2.619   1.669   9.706
   97OSM   H13T 9647   2.559   1.844   9.707
   97OSM   C14S 9648   2.516   1.741   9.527
   97OSM   H14S 9649   2.444   1.823   9.508
   97OSM   H14T 9650   2.466   1.646   9.497
   97OSM   C15S 9651   2.648   1.760   9.453
   97OSM   H15S 9652   2.727   1.701   9.504
   97OSM   H15T 9653   2.684   1.865   9.460
   97OSM   C16S 9654   2.635   1.721   9.303
   97OSM   H16S 9655   2.536   1.757   9.270
   97OSM   H16T 9656   2.645   1.610   9.301
   97OSM   C17S 9657   2.750   1.773   9.211
   97OSM   H17S 9658   2.848   1.736   9.247
   97OSM   H17T 9659   2.747   1.883   9.232
   97OSM   C18S 9660   2.737   1.740   9.058
   97OSM   H18S 9661   2.763   1.635   9.033
   97OSM   H18T 9662   2.798   1.802   8.989
   97OSM   H18U 9663   2.632   1.761   9.030
   97OSM    C1F 9664   2.081   2.037  10.762
   97OSM     OF 9665   2.119   2.126  10.835
   97OSM    C2F 9666   1.976   2.062  10.666
   97OSM    H2F 9667   1.949   2.170  10.658
   97OSM    H2G 9668   1.884   2.005  10.692
   97OSM    C3F 9669   2.022   2.019  10.523
   97OSM    H3F 9670   1.930   2.010  10.461
   97OSM    H3G 9671   2.077   1.923  10.522
   97OSM    C4F 9672   2.113   2.128  10.470
   97OSM    H4F 9673   2.200   2.139  10.538
   97OSM    H4G 9674   2.061   2.225  10.485
   97OSM    C5F 9675   2.160   2.126  10.315
   97OSM    H5F 9676   2.230   2.041  10.300
   97OSM    H5G 9677   2.211   2.220  10.283
   97OSM    C6F 9678   2.052   2.104  10.217
   97OSM    H6F 9679   1.959   2.155  10.249
   97OSM    H6G 9680   2.031   1.997  10.235
   97OSM    C7F 9681   2.084   2.114  10.065
   97OSM    H7F 9682   2.153   2.036  10.027
   97OSM    H7G 9683   2.133   2.211  10.045
   97OSM    C8F 9684   1.955   2.113   9.977
   97OSM    H8F 9685   1.887   2.193  10.012
   97OSM    H8G 9686   1.911   2.016  10.010
   97OSM    C9F 9687   1.987   2.133   9.830
   97OSM    H9F 9688   2.002   2.240   9.811
   97OSM   C10F 9689   1.995   2.040   9.741
   97OSM   H10F 9690   2.032   2.080   9.646
   97OSM   C11F 9691   1.956   1.895   9.751
   97OSM   H11F 9692   1.858   1.876   9.800
   97OSM   H11G 9693   2.039   1.855   9.813
   97OSM   C12F 9694   1.957   1.801   9.626
   97OSM   H12F 9695   1.938   1.693   9.642
   97OSM   H12G 9696   2.062   1.803   9.589
   97OSM   C13F 9697   1.870   1.860   9.508
   97OSM   H13F 9698   1.877   1.968   9.484
   97OSM   H13G 9699   1.764   1.847   9.539
   97OSM   C14F 9700   1.904   1.780   9.385
   97OSM   H14F 9701   1.869   1.678   9.413
   97OSM   H14G 9702   2.013   1.771   9.364
   97OSM   C15F 9703   1.826   1.831   9.261
   97OSM   H15F 9704   1.843   1.759   9.178
   97OSM   H15G 9705   1.864   1.932   9.234
   97OSM   C16F 9706   1.672   1.856   9.275
   97OSM   H16F 9707   1.658   1.929   9.357
   97OSM   H16G 9708   1.609   1.768   9.300
   97OSM   C17F 9709   1.603   1.931   9.149
   97OSM   H17F 9710   1.652   2.030   9.135
   97OSM   H17G 9711   1.497   1.931   9.182
   97OSM   C18F 9712   1.623   1.847   9.025
   97OSM   H18F 9713   1.563   1.886   8.940
   97OSM   H18G 9714   1.587   1.745   9.048
   97OSM   H18H 9715   1.732   1.850   9.004
   98OSM      N 9716   1.754   1.833  11.208
   98OSM    C15 9717   1.692   1.963  11.178
   98OSM   H15A 9718   1.761   2.040  11.147
   98OSM   H15B 9719   1.643   2.001  11.266
   98OSM   H15C 9720   1.607   1.949  11.112
   98OSM    C14 9721   1.841   1.869  11.324
   98OSM   H14A 9722   1.903   1.954  11.300
   98OSM   H14B 9723   1.901   1.784  11.354
   98OSM   H14C 9724   1.790   1.900  11.414
   98OSM    C13 9725   1.647   1.735  11.248
   98OSM   H13A 9726   1.588   1.779  11.327
   98OSM   H13B 9727   1.683   1.644  11.292
   98OSM   H13C 9728   1.583   1.715  11.163
   98OSM    C12 9729   1.840   1.779  11.097
   98OSM   H12A 9730   1.865   1.677  11.122
   98OSM   H12B 9731   1.934   1.830  11.088
   98OSM    C11 9732   1.785   1.775  10.953
   98OSM   H11A 9733   1.867   1.742  10.885
   98OSM   H11B 9734   1.757   1.877  10.921
   98OSM      P 9735   1.659   1.550  10.896
   98OSM    O13 9736   1.727   1.450  10.982
   98OSM    O14 9737   1.519   1.520  10.866
   98OSM    O11 9738   1.739   1.552  10.754
   98OSM    O12 9739   1.668   1.693  10.946
   98OSM    C1S 9740   1.693   1.622  10.644
   98OSM    H1S 9741   1.751   1.717  10.632
   98OSM    H1T 9742   1.589   1.661  10.641
   98OSM     NF 9743   1.700   1.617  10.394
   98OSM    HNF 9744   1.612   1.644  10.358
   98OSM    C2S 9745   1.712   1.536  10.513
   98OSM    H2S 9746   1.815   1.500  10.531
   98OSM    C3S 9747   1.624   1.403  10.514
   98OSM    H3S 9748   1.521   1.440  10.495
   98OSM     O3 9749   1.629   1.332  10.632
   98OSM    HO3 9750   1.668   1.396  10.692
   98OSM    C4S 9751   1.647   1.308  10.396
   98OSM    H4S 9752   1.609   1.355  10.304
   98OSM    C5S 9753   1.713   1.187  10.398
   98OSM    H5S 9754   1.765   1.153  10.489
   98OSM    C6S 9755   1.743   1.102  10.282
   98OSM    H6S 9756   1.707   1.006  10.325
   98OSM    H6T 9757   1.851   1.084  10.266
   98OSM    C7S 9758   1.676   1.139  10.150
   98OSM    H7S 9759   1.731   1.223  10.101
   98OSM    H7T 9760   1.568   1.163  10.166
   98OSM    C8S 9761   1.687   1.025  10.040
   98OSM    H8S 9762   1.645   0.933  10.086
   98OSM    H8T 9763   1.796   1.011  10.023
   98OSM    C9S 9764   1.614   1.055   9.903
   98OSM    H9S 9765   1.651   1.156   9.876
   98OSM    H9T 9766   1.505   1.051   9.922
   98OSM   C10S 9767   1.640   0.952   9.794
   98OSM   H10S 9768   1.557   0.878   9.796
   98OSM   H10T 9769   1.738   0.899   9.796
   98OSM   C11S 9770   1.623   1.015   9.651
   98OSM   H11S 9771   1.671   1.115   9.640
   98OSM   H11T 9772   1.516   1.036   9.631
   98OSM   C12S 9773   1.679   0.935   9.539
   98OSM   H12S 9774   1.627   0.839   9.522
   98OSM   H12T 9775   1.789   0.920   9.548
   98OSM   C13S 9776   1.674   1.009   9.400
   98OSM   H13S 9777   1.741   0.958   9.328
   98OSM   H13T 9778   1.710   1.113   9.413
   98OSM   C14S 9779   1.537   1.008   9.334
   98OSM   H14S 9780   1.479   1.077   9.399
   98OSM   H14T 9781   1.492   0.907   9.343
   98OSM   C15S 9782   1.546   1.064   9.189
   98OSM   H15S 9783   1.601   0.990   9.126
   98OSM   H15T 9784   1.600   1.161   9.196
   98OSM   C16S 9785   1.398   1.086   9.134
   98OSM   H16S 9786   1.344   1.160   9.197
   98OSM   H16T 9787   1.337   0.993   9.144
   98OSM   C17S 9788   1.403   1.134   8.990
   98OSM   H17S 9789   1.297   1.136   8.955
   98OSM   H17T 9790   1.452   1.053   8.931
   98OSM   C18S 9791   1.469   1.266   8.958
   98OSM   H18S 9792   1.578   1.250   8.942
   98OSM   H18T 9793   1.446   1.327   9.047
   98OSM   H18U 9794   1.421   1.310   8.868
   98OSM    C1F 9795   1.804   1.692  10.358
   98OSM     OF 9796   1.911   1.691  10.416
   98OSM    C2F 9797   1.768   1.796  10.260
   98OSM    H2F 9798   1.826   1.887  10.288
   98OSM    H2G 9799   1.659   1.817  10.260
   98OSM    C3F 9800   1.798   1.747  10.107
   98OSM    H3F 9801   1.893   1.690  10.115
   98OSM    H3G 9802   1.812   1.838  10.044
   98OSM    C4F 9803   1.676   1.671  10.055
   98OSM    H4F 9804   1.580   1.727  10.066
   98OSM    H4G 9805   1.679   1.571  10.104
   98OSM    C5F 9806   1.692   1.645   9.911
   98OSM    H5F 9807   1.791   1.604   9.881
   98OSM    H5G 9808   1.670   1.747   9.872
   98OSM    C6F 9809   1.582   1.551   9.861
   98OSM    H6F 9810   1.486   1.574   9.911
   98OSM    H6G 9811   1.599   1.442   9.880
   98OSM    C7F 9812   1.553   1.570   9.711
   98OSM    H7F 9813   1.646   1.569   9.650
   98OSM    H7G 9814   1.510   1.672   9.703
   98OSM    C8F 9815   1.466   1.454   9.661
   98OSM    H8F 9816   1.376   1.464   9.725
   98OSM    H8G 9817   1.516   1.355   9.673
   98OSM    C9F 9818   1.426   1.478   9.511
   98OSM    H9F 9819   1.324   1.517   9.497
   98OSM   C10F 9820   1.506   1.469   9.400
   98OSM   H10F 9821   1.464   1.502   9.304
   98OSM   C11F 9822   1.651   1.429   9.378
   98OSM   H11F 9823   1.666   1.321   9.398
   98OSM   H11G 9824   1.720   1.486   9.443
   98OSM   C12F 9825   1.690   1.459   9.229
   98OSM   H12F 9826   1.701   1.569   9.217
   98OSM   H12G 9827   1.614   1.422   9.156
   98OSM   C13F 9828   1.814   1.390   9.174
   98OSM   H13F 9829   1.789   1.286   9.143
   98OSM   H13G 9830   1.889   1.380   9.256
   98OSM   C14F 9831   1.877   1.462   9.059
   98OSM   H14F 9832   1.985   1.434   9.051
   98OSM   H14G 9833   1.883   1.568   9.089
   98OSM   C15F 9834   1.796   1.458   8.929
   98OSM   H15F 9835   1.698   1.510   8.939
   98OSM   H15G 9836   1.780   1.351   8.906
   98OSM   C16F 9837   1.867   1.522   8.800
   98OSM   H16F 9838   1.811   1.512   8.705
   98OSM   H16G 9839   1.951   1.450   8.792
   98OSM   C17F 9840   1.911   1.673   8.797
   98OSM   H17F 9841   1.973   1.695   8.887
   98OSM   H17G 9842   1.821   1.737   8.783
   98OSM   C18F 9843   2.001   1.679   8.676
   98OSM   H18F 9844   2.102   1.638   8.700
   98OSM   H18G 9845   2.012   1.785   8.643
   98OSM   H18H 9846   1.972   1.620   8.587
   99OSM      N 9847   3.902   1.657  11.010
   99OSM    C15 9848   3.844   1.769  11.093
   99OSM   H15A 9849   3.763   1.737  11.158
   99OSM   H15B 9850   3.799   1.844  11.030
   99OSM   H15C 9851   3.924   1.822  11.142
   99OSM    C14 9852   3.982   1.581  11.116
   99OSM   H14A 9853   3.914   1.521  11.175
   99OSM   H14B 9854   4.050   1.642  11.174
   99OSM   H14C 9855   4.040   1.506  11.064
   99OSM    C13 9856   3.798   1.567  10.950
   99OSM   H13A 9857   3.723   1.620  10.893
   99OSM   H13B 9858   3.751   1.507  11.026
   99OSM   H13C 9859   3.842   1.495  10.882
   99OSM    C12 9860   3.999   1.702  10.897
   99OSM   H12A 9861   3.939   1.759  10.829
   99OSM   H12B 9862   4.021   1.612  10.842
   99OSM    C11 9863   4.122   1.786  10.930
   99OSM   H11A 9864   4.190   1.793  10.842
   99OSM   H11B 9865   4.182   1.733  11.007
   99OSM      P 9866   4.026   2.030  10.913
   99OSM    O13 9867   3.887   2.051  10.959
   99OSM    O14 9868   4.115   2.151  10.924
   99OSM    O11 9869   4.015   1.982  10.762
   99OSM    O12 9870   4.091   1.910  10.985
   99OSM    C1S 9871   3.962   2.080  10.671
   99OSM    H1S 9872   4.019   2.174  10.682
   99OSM    H1T 9873   3.858   2.104  10.701
   99OSM     NF 9874   3.930   2.152  10.442
   99OSM    HNF 9875   3.834   2.173  10.427
   99OSM    C2S 9876   3.967   2.037  10.527
   99OSM    H2S 9877   4.073   2.018  10.502
   99OSM    C3S 9878   3.889   1.912  10.507
   99OSM    H3S 9879   3.788   1.931  10.549
   99OSM     O3 9880   3.942   1.800  10.574
   99OSM    HO3 9881   3.990   1.841  10.646
   99OSM    C4S 9882   3.884   1.889  10.358
   99OSM    H4S 9883   3.983   1.887  10.310
   99OSM    C5S 9884   3.766   1.888  10.298
   99OSM    H5S 9885   3.675   1.895  10.361
   99OSM    C6S 9886   3.742   1.865  10.152
   99OSM    H6S 9887   3.676   1.949  10.121
   99OSM    H6T 9888   3.683   1.775  10.127
   99OSM    C7S 9889   3.875   1.878  10.066
   99OSM    H7S 9890   3.942   1.795  10.097
   99OSM    H7T 9891   3.935   1.969  10.083
   99OSM    C8S 9892   3.838   1.864   9.921
   99OSM    H8S 9893   3.801   1.963   9.887
   99OSM    H8T 9894   3.753   1.793   9.915
   99OSM    C9S 9895   3.948   1.829   9.822
   99OSM    H9S 9896   3.968   1.723   9.852
   99OSM    H9T 9897   4.037   1.890   9.847
   99OSM   C10S 9898   3.911   1.814   9.675
   99OSM   H10S 9899   3.801   1.822   9.663
   99OSM   H10T 9900   3.933   1.711   9.640
   99OSM   C11S 9901   3.999   1.916   9.592
   99OSM   H11S 9902   4.108   1.902   9.608
   99OSM   H11T 9903   3.966   2.010   9.641
   99OSM   C12S 9904   3.969   1.915   9.450
   99OSM   H12S 9905   3.998   1.815   9.410
   99OSM   H12T 9906   3.861   1.936   9.438
   99OSM   C13S 9907   4.047   2.023   9.370
   99OSM   H13S 9908   4.152   1.987   9.367
   99OSM   H13T 9909   4.051   2.109   9.440
   99OSM   C14S 9910   3.998   2.059   9.227
   99OSM   H14S 9911   4.055   2.144   9.183
   99OSM   H14T 9912   3.894   2.094   9.239
   99OSM   C15S 9913   4.020   1.934   9.142
   99OSM   H15S 9914   3.955   1.856   9.189
   99OSM   H15T 9915   4.124   1.896   9.153
   99OSM   C16S 9916   3.986   1.948   8.994
   99OSM   H16S 9917   4.040   2.035   8.953
   99OSM   H16T 9918   3.881   1.981   8.981
   99OSM   C17S 9919   4.031   1.829   8.898
   99OSM   H17S 9920   3.980   1.735   8.926
   99OSM   H17T 9921   4.137   1.806   8.924
   99OSM   C18S 9922   4.013   1.854   8.752
   99OSM   H18S 9923   4.045   1.762   8.699
   99OSM   H18T 9924   4.054   1.949   8.711
   99OSM   H18U 9925   3.906   1.855   8.723
   99OSM    C1F 9926   4.022   2.250  10.434
   99OSM     OF 9927   4.139   2.229  10.469
   99OSM    C2F 9928   3.976   2.384  10.387
   99OSM    H2F 9929   4.033   2.464  10.440
   99OSM    H2G 9930   3.869   2.397  10.415
   99OSM    C3F 9931   3.996   2.402  10.234
   99OSM    H3F 9932   3.937   2.492  10.208
   99OSM    H3G 9933   4.104   2.416  10.215
   99OSM    C4F 9934   3.941   2.288  10.142
   99OSM    H4F 9935   3.976   2.190  10.179
   99OSM    H4G 9936   3.988   2.288  10.041
   99OSM    C5F 9937   3.789   2.288  10.130
   99OSM    H5F 9938   3.752   2.338  10.222
   99OSM    H5G 9939   3.744   2.187  10.122
   99OSM    C6F 9940   3.758   2.374  10.010
   99OSM    H6F 9941   3.801   2.333   9.916
   99OSM    H6G 9942   3.805   2.474  10.014
   99OSM    C7F 9943   3.607   2.386   9.992
   99OSM    H7F 9944   3.571   2.423  10.090
   99OSM    H7G 9945   3.557   2.287   9.980
   99OSM    C8F 9946   3.566   2.468   9.876
   99OSM    H8F 9947   3.456   2.462   9.867
   99OSM    H8G 9948   3.610   2.420   9.786
   99OSM    C9F 9949   3.594   2.619   9.889
   99OSM    H9F 9950   3.546   2.668   9.974
   99OSM   C10F 9951   3.688   2.692   9.820
   99OSM   H10F 9952   3.702   2.800   9.841
   99OSM   C11F 9953   3.761   2.637   9.706
   99OSM   H11F 9954   3.725   2.550   9.647
   99OSM   H11G 9955   3.864   2.613   9.740
   99OSM   C12F 9956   3.772   2.749   9.595
   99OSM   H12F 9957   3.818   2.839   9.642
   99OSM   H12G 9958   3.669   2.767   9.559
   99OSM   C13F 9959   3.863   2.728   9.466
   99OSM   H13F 9960   3.826   2.801   9.392
   99OSM   H13G 9961   3.826   2.632   9.425
   99OSM   C14F 9962   4.017   2.743   9.493
   99OSM   H14F 9963   4.064   2.648   9.526
   99OSM   H14G 9964   4.033   2.819   9.573
   99OSM   C15F 9965   4.078   2.796   9.364
   99OSM   H15F 9966   4.164   2.866   9.381
   99OSM   H15G 9967   4.004   2.838   9.294
   99OSM   C16F 9968   4.145   2.682   9.283
   99OSM   H16F 9969   4.073   2.602   9.253
   99OSM   H16G 9970   4.222   2.632   9.346
   99OSM   C17F 9971   4.207   2.724   9.146
   99OSM   H17F 9972   4.127   2.775   9.089
   99OSM   H17G 9973   4.233   2.633   9.087
   99OSM   C18F 9974   4.322   2.819   9.161
   99OSM   H18F 9975   4.401   2.774   9.225
   99OSM   H18G 9976   4.277   2.915   9.192
   99OSM   H18H 9977   4.360   2.836   9.058
  100OSM      N 9978   5.853   2.324  11.256
  100OSM    C15 9979   5.763   2.202  11.273
  100OSM   H15A 9980   5.675   2.217  11.333
  100OSM   H15B 9981   5.810   2.113  11.310
  100OSM   H15C 9982   5.714   2.192  11.177
  100OSM    C14 9983   5.772   2.452  11.237
  100OSM   H14A 9984   5.752   2.457  11.131
  100OSM   H14B 9985   5.834   2.538  11.258
  100OSM   H14C 9986   5.681   2.462  11.295
  100OSM    C13 9987   5.930   2.333  11.383
  100OSM   H13A 9988   5.865   2.370  11.462
  100OSM   H13B 9989   6.008   2.406  11.366
  100OSM   H13C 9990   5.965   2.236  11.414
  100OSM    C12 9991   5.943   2.307  11.132
  100OSM   H12A 9992   6.013   2.227  11.149
  100OSM   H12B 9993   6.001   2.398  11.124
  100OSM    C11 9994   5.876   2.282  10.999
  100OSM   H11A 9995   5.821   2.187  11.013
  100OSM   H11B 9996   5.948   2.253  10.919
  100OSM      P 9997   5.787   2.439  10.814
  100OSM    O13 9998   5.707   2.342  10.742
  100OSM    O14 9999   5.728   2.578  10.827
  100OSM    O1110000   5.939   2.446  10.768
  100OSM    O1210001   5.789   2.383  10.964
  100OSM    C1S10002   5.977   2.363  10.651
  100OSM    H1S10003   5.930   2.262  10.652
  100OSM    H1T10004   6.087   2.344  10.657
  100OSM     NF10005   5.941   2.340  10.396
  100OSM    HNF10006   6.029   2.307  10.363
  100OSM    C2S10007   5.943   2.427  10.515
  100OSM    H2S10008   5.840   2.467  10.525
  100OSM    C3S10009   6.027   2.558  10.507
  100OSM    H3S10010   6.136   2.541  10.517
  100OSM     O310011   5.998   2.654  10.611
  100OSM    HO310012   5.945   2.610  10.678
  100OSM    C4S10013   6.015   2.626  10.369
  100OSM    H4S10014   6.088   2.591  10.295
  100OSM    C5S10015   5.933   2.721  10.329
  100OSM    H5S10016   5.861   2.765  10.400
  100OSM    C6S10017   5.925   2.785  10.191
  100OSM    H6S10018   5.935   2.893  10.212
  100OSM    H6T10019   5.830   2.774  10.134
  100OSM    C7S10020   6.044   2.751  10.091
  100OSM    H7S10021   6.030   2.650  10.048
  100OSM    H7T10022   6.138   2.767  10.148
  100OSM    C8S10023   6.055   2.851   9.981
  100OSM    H8S10024   6.151   2.836   9.927
  100OSM    H8T10025   6.072   2.940  10.044
  100OSM    C9S10026   5.952   2.862   9.874
  100OSM    H9S10027   5.867   2.927   9.903
  100OSM    H9T10028   5.907   2.764   9.848
  100OSM   C10S10029   6.002   2.926   9.741
  100OSM   H10S10030   6.072   2.853   9.694
  100OSM   H10T10031   6.054   3.024   9.742
  100OSM   C11S10032   5.890   2.940   9.644
  100OSM   H11S10033   5.811   3.004   9.687
  100OSM   H11T10034   5.858   2.838   9.613
  100OSM   C12S10035   5.929   3.026   9.519
  100OSM   H12S10036   5.966   3.124   9.555
  100OSM   H12T10037   5.828   3.045   9.476
  100OSM   C13S10038   6.028   2.970   9.416
  100OSM   H13S10039   6.096   2.900   9.469
  100OSM   H13T10040   6.085   3.056   9.374
  100OSM   C14S10041   5.960   2.889   9.301
  100OSM   H14S10042   6.051   2.847   9.253
  100OSM   H14T10043   5.913   2.957   9.227
  100OSM   C15S10044   5.860   2.776   9.331
  100OSM   H15S10045   5.768   2.818   9.378
  100OSM   H15T10046   5.916   2.708   9.399
  100OSM   C16S10047   5.832   2.683   9.207
  100OSM   H16S10048   5.759   2.602   9.229
  100OSM   H16T10049   5.920   2.631   9.165
  100OSM   C17S10050   5.771   2.771   9.093
  100OSM   H17S10051   5.838   2.852   9.059
  100OSM   H17T10052   5.689   2.818   9.151
  100OSM   C18S10053   5.714   2.691   8.977
  100OSM   H18S10054   5.660   2.595   8.997
  100OSM   H18T10055   5.792   2.662   8.903
  100OSM   H18U10056   5.649   2.761   8.921
  100OSM    C1F10057   5.837   2.260  10.382
  100OSM     OF10058   5.740   2.269  10.453
  100OSM    C2F10059   5.849   2.148  10.282
  100OSM    H2F10060   5.754   2.091  10.271
  100OSM    H2G10061   5.921   2.076  10.327
  100OSM    C3F10062   5.897   2.213  10.149
  100OSM    H3F10063   5.927   2.133  10.079
  100OSM    H3G10064   5.992   2.269  10.162
  100OSM    C4F10065   5.809   2.313  10.080
  100OSM    H4F10066   5.803   2.404  10.143
  100OSM    H4G10067   5.708   2.269  10.063
  100OSM    C5F10068   5.877   2.347   9.947
  100OSM    H5F10069   5.888   2.257   9.883
  100OSM    H5G10070   5.979   2.384   9.973
  100OSM    C6F10071   5.815   2.476   9.877
  100OSM    H6F10072   5.874   2.474   9.783
  100OSM    H6G10073   5.835   2.562   9.945
  100OSM    C7F10074   5.657   2.475   9.851
  100OSM    H7F10075   5.603   2.478   9.948
  100OSM    H7G10076   5.631   2.375   9.813
  100OSM    C8F10077   5.607   2.579   9.749
  100OSM    H8F10078   5.614   2.683   9.790
  100OSM    H8G10079   5.500   2.550   9.758
  100OSM    C9F10080   5.664   2.575   9.607
  100OSM    H9F10081   5.757   2.628   9.582
  100OSM   C10F10082   5.615   2.513   9.498
  100OSM   H10F10083   5.669   2.518   9.402
  100OSM   C11F10084   5.494   2.424   9.503
  100OSM   H11F10085   5.459   2.403   9.606
  100OSM   H11G10086   5.523   2.326   9.460
  100OSM   C12F10087   5.370   2.480   9.431
  100OSM   H12F10088   5.329   2.572   9.478
  100OSM   H12G10089   5.286   2.409   9.443
  100OSM   C13F10090   5.388   2.492   9.279
  100OSM   H13F10091   5.418   2.393   9.237
  100OSM   H13G10092   5.473   2.563   9.270
  100OSM   C14F10093   5.262   2.539   9.206
  100OSM   H14F10094   5.220   2.633   9.250
  100OSM   H14G10095   5.185   2.462   9.225
  100OSM   C15F10096   5.291   2.563   9.062
  100OSM   H15F10097   5.335   2.471   9.016
  100OSM   H15G10098   5.363   2.644   9.038
  100OSM   C16F10099   5.164   2.581   8.976
  100OSM   H16F10100   5.124   2.683   8.995
  100OSM   H16G10101   5.089   2.508   9.011
  100OSM   C17F10102   5.182   2.563   8.825
  100OSM   H17F10103   5.097   2.497   8.798
  100OSM   H17G10104   5.273   2.506   8.800
  100OSM   C18F10105   5.165   2.703   8.769
  100OSM   H18F10106   5.073   2.755   8.804
  100OSM   H18G10107   5.172   2.700   8.658
  100OSM   H18H10108   5.250   2.769   8.796
  101OSM      N10109   1.829   2.503  11.299
  101OSM    C1510110   1.789   2.393  11.390
  101OSM   H15A10111   1.872   2.324  11.394
  101OSM   H15B10112   1.709   2.331  11.352
  101OSM   H15C10113   1.771   2.434  11.489
  101OSM    C1410114   1.709   2.572  11.255
  101OSM   H14A10115   1.734   2.644  11.178
  101OSM   H14B10116   1.665   2.626  11.338
  101OSM   H14C10117   1.637   2.505  11.211
  101OSM    C1310118   1.919   2.591  11.375
  101OSM   H13A10119   1.979   2.658  11.314
  101OSM   H13B10120   1.998   2.531  11.418
  101OSM   H13C10121   1.873   2.643  11.457
  101OSM    C1210122   1.910   2.438  11.186
  101OSM   H12A10123   1.842   2.366  11.142
  101OSM   H12B10124   1.994   2.390  11.234
  101OSM    C1110125   1.961   2.529  11.073
  101OSM   H11A10126   2.020   2.465  11.004
  101OSM   H11B10127   2.028   2.601  11.125
  101OSM      P10128   1.787   2.512  10.898
  101OSM    O1310129   1.779   2.371  10.946
  101OSM    O1410130   1.658   2.575  10.866
  101OSM    O1110131   1.882   2.511  10.775
  101OSM    O1210132   1.857   2.600  11.007
  101OSM    C1S10133   1.943   2.625  10.726
  101OSM    H1S10134   2.023   2.657  10.796
  101OSM    H1T10135   1.873   2.712  10.724
  101OSM     NF10136   2.043   2.744  10.549
  101OSM    HNF10137   1.996   2.822  10.510
  101OSM    C2S10138   1.989   2.616  10.582
  101OSM    H2S10139   2.071   2.541  10.572
  101OSM    C3S10140   1.881   2.575  10.479
  101OSM    H3S10141   1.806   2.658  10.477
  101OSM     O310142   1.798   2.462  10.517
  101OSM    HO310143   1.832   2.447  10.605
  101OSM    C4S10144   1.933   2.571  10.341
  101OSM    H4S10145   1.921   2.671  10.296
  101OSM    C5S10146   1.971   2.469  10.265
  101OSM    H5S10147   1.972   2.365  10.304
  101OSM    C6S10148   2.002   2.477  10.120
  101OSM    H6S10149   1.907   2.465  10.064
  101OSM    H6T10150   2.069   2.392  10.095
  101OSM    C7S10151   2.083   2.599  10.087
  101OSM    H7S10152   2.154   2.626  10.169
  101OSM    H7T10153   2.009   2.682  10.076
  101OSM    C8S10154   2.163   2.592   9.954
  101OSM    H8S10155   2.209   2.491   9.945
  101OSM    H8T10156   2.228   2.682   9.953
  101OSM    C9S10157   2.068   2.602   9.829
  101OSM    H9S10158   2.013   2.698   9.829
  101OSM    H9T10159   1.991   2.522   9.834
  101OSM   C10S10160   2.147   2.602   9.695
  101OSM   H10S10161   2.243   2.656   9.709
  101OSM   H10T10162   2.093   2.672   9.628
  101OSM   C11S10163   2.162   2.450   9.655
  101OSM   H11S10164   2.069   2.392   9.668
  101OSM   H11T10165   2.238   2.409   9.725
  101OSM   C12S10166   2.207   2.425   9.513
  101OSM   H12S10167   2.317   2.444   9.505
  101OSM   H12T10168   2.159   2.506   9.454
  101OSM   C13S10169   2.176   2.291   9.451
  101OSM   H13S10170   2.084   2.249   9.497
  101OSM   H13T10171   2.256   2.215   9.467
  101OSM   C14S10172   2.156   2.296   9.299
  101OSM   H14S10173   2.252   2.320   9.250
  101OSM   H14T10174   2.089   2.380   9.271
  101OSM   C15S10175   2.098   2.161   9.245
  101OSM   H15S10176   1.997   2.133   9.282
  101OSM   H15T10177   2.180   2.093   9.277
  101OSM   C16S10178   2.093   2.162   9.089
  101OSM   H16S10179   2.195   2.180   9.048
  101OSM   H16T10180   2.032   2.247   9.051
  101OSM   C17S10181   2.059   2.027   9.024
  101OSM   H17S10182   1.948   2.024   9.022
  101OSM   H17T10183   2.094   1.960   9.106
  101OSM   C18S10184   2.123   1.999   8.886
  101OSM   H18S10185   2.071   2.053   8.804
  101OSM   H18T10186   2.110   1.892   8.858
  101OSM   H18U10187   2.233   2.013   8.891
  101OSM    C1F10188   2.163   2.784  10.594
  101OSM     OF10189   2.229   2.703  10.663
  101OSM    C2F10190   2.224   2.925  10.571
  101OSM    H2F10191   2.227   2.974  10.671
  101OSM    H2G10192   2.151   2.995  10.526
  101OSM    C3F10193   2.357   2.922  10.499
  101OSM    H3F10194   2.419   2.848  10.555
  101OSM    H3G10195   2.420   3.012  10.517
  101OSM    C4F10196   2.359   2.879  10.356
  101OSM    H4F10197   2.312   2.959  10.295
  101OSM    H4G10198   2.300   2.785  10.345
  101OSM    C5F10199   2.499   2.870  10.298
  101OSM    H5F10200   2.566   2.806  10.360
  101OSM    H5G10201   2.546   2.970  10.291
  101OSM    C6F10202   2.491   2.822  10.155
  101OSM    H6F10203   2.412   2.749  10.127
  101OSM    H6G10204   2.467   2.907  10.088
  101OSM    C7F10205   2.622   2.753  10.120
  101OSM    H7F10206   2.625   2.655  10.173
  101OSM    H7G10207   2.716   2.799  10.156
  101OSM    C8F10208   2.641   2.751   9.964
  101OSM    H8F10209   2.743   2.720   9.936
  101OSM    H8G10210   2.620   2.856   9.934
  101OSM    C9F10211   2.539   2.668   9.886
  101OSM    H9F10212   2.438   2.665   9.928
  101OSM   C10F10213   2.561   2.595   9.774
  101OSM   H10F10214   2.478   2.532   9.738
  101OSM   C11F10215   2.690   2.580   9.694
  101OSM   H11F10216   2.695   2.479   9.648
  101OSM   H11G10217   2.783   2.585   9.756
  101OSM   C12F10218   2.699   2.682   9.572
  101OSM   H12F10219   2.795   2.660   9.521
  101OSM   H12G10220   2.710   2.787   9.606
  101OSM   C13F10221   2.593   2.675   9.464
  101OSM   H13F10222   2.531   2.767   9.470
  101OSM   H13G10223   2.520   2.593   9.485
  101OSM   C14F10224   2.643   2.641   9.322
  101OSM   H14F10225   2.671   2.534   9.308
  101OSM   H14G10226   2.740   2.696   9.315
  101OSM   C15F10227   2.557   2.700   9.215
  101OSM   H15F10228   2.611   2.703   9.118
  101OSM   H15G10229   2.526   2.804   9.239
  101OSM   C16F10230   2.425   2.622   9.191
  101OSM   H16F10231   2.370   2.618   9.287
  101OSM   H16G10232   2.454   2.518   9.165
  101OSM   C17F10233   2.339   2.699   9.090
  101OSM   H17F10234   2.397   2.717   8.998
  101OSM   H17G10235   2.319   2.799   9.133
  101OSM   C18F10236   2.211   2.626   9.053
  101OSM   H18F10237   2.240   2.523   9.022
  101OSM   H18G10238   2.163   2.679   8.968
  101OSM   H18H10239   2.144   2.626   9.142
  102OSM      N10240   3.540   4.610  10.702
  102OSM    C1510241   3.437   4.506  10.684
  102OSM   H15A10242   3.481   4.409  10.667
  102OSM   H15B10243   3.360   4.524  10.611
  102OSM   H15C10244   3.377   4.503  10.774
  102OSM    C1410245   3.473   4.742  10.728
  102OSM   H14A10246   3.386   4.719  10.788
  102OSM   H14B10247   3.439   4.787  10.636
  102OSM   H14C10248   3.537   4.813  10.778
  102OSM    C1310249   3.623   4.580  10.827
  102OSM   H13A10250   3.670   4.484  10.813
  102OSM   H13B10251   3.573   4.572  10.922
  102OSM   H13C10252   3.697   4.657  10.844
  102OSM    C1210253   3.625   4.612  10.579
  102OSM   H12A10254   3.702   4.687  10.575
  102OSM   H12B10255   3.555   4.645  10.503
  102OSM    C1110256   3.698   4.485  10.525
  102OSM   H11A10257   3.747   4.501  10.427
  102OSM   H11B10258   3.623   4.404  10.511
  102OSM      P10259   3.929   4.527  10.636
  102OSM    O1310260   3.904   4.603  10.763
  102OSM    O1410261   4.051   4.446  10.626
  102OSM    O1110262   3.933   4.630  10.514
  102OSM    O1210263   3.805   4.440  10.603
  102OSM    C1S10264   4.048   4.710  10.492
  102OSM    H1S10265   4.141   4.660  10.528
  102OSM    H1T10266   4.040   4.813  10.534
  102OSM     NF10267   4.205   4.787  10.315
  102OSM    HNF10268   4.218   4.885  10.303
  102OSM    C2S10269   4.070   4.733  10.332
  102OSM    H2S10270   4.074   4.632  10.284
  102OSM    C3S10271   3.951   4.812  10.267
  102OSM    H3S10272   3.958   4.909  10.322
  102OSM     O310273   3.832   4.744  10.287
  102OSM    HO310274   3.847   4.683  10.359
  102OSM    C4S10275   3.971   4.846  10.120
  102OSM    H4S10276   3.939   4.770  10.048
  102OSM    C5S10277   4.018   4.970  10.075
  102OSM    H5S10278   4.055   5.053  10.138
  102OSM    C6S10279   4.041   4.991   9.925
  102OSM    H6S10280   3.996   5.090   9.900
  102OSM    H6T10281   3.981   4.914   9.874
  102OSM    C7S10282   4.191   5.005   9.881
  102OSM    H7S10283   4.244   4.909   9.862
  102OSM    H7T10284   4.257   5.071   9.942
  102OSM    C8S10285   4.196   5.074   9.743
  102OSM    H8S10286   4.180   5.184   9.747
  102OSM    H8T10287   4.118   5.033   9.675
  102OSM    C9S10288   4.326   5.058   9.659
  102OSM    H9S10289   4.351   4.952   9.637
  102OSM    H9T10290   4.418   5.082   9.718
  102OSM   C10S10291   4.328   5.144   9.530
  102OSM   H10S10292   4.312   5.250   9.556
  102OSM   H10T10293   4.237   5.121   9.470
  102OSM   C11S10294   4.448   5.127   9.450
  102OSM   H11S10295   4.468   5.020   9.424
  102OSM   H11T10296   4.536   5.165   9.506
  102OSM   C12S10297   4.448   5.197   9.308
  102OSM   H12S10298   4.448   5.307   9.319
  102OSM   H12T10299   4.349   5.175   9.263
  102OSM   C13S10300   4.547   5.140   9.210
  102OSM   H13S10301   4.525   5.032   9.197
  102OSM   H13T10302   4.651   5.143   9.248
  102OSM   C14S10303   4.536   5.203   9.069
  102OSM   H14S10304   4.626   5.269   9.076
  102OSM   H14T10305   4.448   5.270   9.079
  102OSM   C15S10306   4.544   5.102   8.953
  102OSM   H15S10307   4.457   5.033   8.959
  102OSM   H15T10308   4.634   5.038   8.970
  102OSM   C16S10309   4.552   5.192   8.828
  102OSM   H16S10310   4.575   5.115   8.751
  102OSM   H16T10311   4.616   5.282   8.828
  102OSM   C17S10312   4.411   5.235   8.802
  102OSM   H17S10313   4.384   5.311   8.878
  102OSM   H17T10314   4.343   5.148   8.790
  102OSM   C18S10315   4.399   5.306   8.664
  102OSM   H18S10316   4.298   5.322   8.622
  102OSM   H18T10317   4.453   5.233   8.599
  102OSM   H18U10318   4.451   5.404   8.668
  102OSM    C1F10319   4.313   4.717  10.344
  102OSM     OF10320   4.304   4.599  10.373
  102OSM    C2F10321   4.444   4.786  10.322
  102OSM    H2F10322   4.503   4.776  10.416
  102OSM    H2G10323   4.420   4.893  10.305
  102OSM    C3F10324   4.541   4.745  10.203
  102OSM    H3F10325   4.558   4.637  10.225
  102OSM    H3G10326   4.645   4.782  10.216
  102OSM    C4F10327   4.486   4.783  10.065
  102OSM    H4F10328   4.486   4.894  10.060
  102OSM    H4G10329   4.380   4.752  10.057
  102OSM    C5F10330   4.563   4.726   9.951
  102OSM    H5F10331   4.573   4.615   9.960
  102OSM    H5G10332   4.667   4.759   9.967
  102OSM    C6F10333   4.524   4.774   9.807
  102OSM    H6F10334   4.501   4.882   9.820
  102OSM    H6G10335   4.424   4.730   9.787
  102OSM    C7F10336   4.612   4.735   9.690
  102OSM    H7F10337   4.625   4.626   9.675
  102OSM    H7G10338   4.718   4.764   9.707
  102OSM    C8F10339   4.580   4.792   9.547
  102OSM    H8F10340   4.680   4.790   9.500
  102OSM    H8G10341   4.546   4.898   9.551
  102OSM    C9F10342   4.476   4.729   9.470
  102OSM    H9F10343   4.379   4.757   9.514
  102OSM   C10F10344   4.480   4.650   9.358
  102OSM   H10F10345   4.390   4.628   9.298
  102OSM   C11F10346   4.608   4.610   9.296
  102OSM   H11F10347   4.620   4.499   9.287
  102OSM   H11G10348   4.702   4.641   9.346
  102OSM   C12F10349   4.608   4.676   9.154
  102OSM   H12F10350   4.611   4.787   9.164
  102OSM   H12G10351   4.521   4.642   9.095
  102OSM   C13F10352   4.731   4.628   9.074
  102OSM   H13F10353   4.732   4.517   9.087
  102OSM   H13G10354   4.830   4.669   9.102
  102OSM   C14F10355   4.710   4.658   8.921
  102OSM   H14F10356   4.683   4.765   8.910
  102OSM   H14G10357   4.610   4.617   8.898
  102OSM   C15F10358   4.814   4.593   8.822
  102OSM   H15F10359   4.771   4.595   8.719
  102OSM   H15G10360   4.818   4.484   8.843
  102OSM   C16F10361   4.954   4.649   8.838
  102OSM   H16F10362   5.009   4.628   8.744
  102OSM   H16G10363   5.010   4.600   8.921
  102OSM   C17F10364   4.955   4.807   8.848
  102OSM   H17F10365   5.063   4.834   8.860
  102OSM   H17G10366   4.882   4.847   8.921
  102OSM   C18F10367   4.907   4.876   8.713
  102OSM   H18F10368   4.808   4.840   8.677
  102OSM   H18G10369   4.997   4.885   8.650
  102OSM   H18H10370   4.889   4.984   8.736
  103OSM      N10371   3.852   1.018  10.812
  103OSM    C1510372   3.892   1.132  10.905
  103OSM   H15A10373   3.998   1.142  10.886
  103OSM   H15B10374   3.869   1.110  11.008
  103OSM   H15C10375   3.839   1.224  10.888
  103OSM    C1410376   3.911   1.040  10.676
  103OSM   H14A10377   3.873   0.967  10.607
  103OSM   H14B10378   4.018   1.027  10.680
  103OSM   H14C10379   3.895   1.139  10.634
  103OSM    C1310380   3.907   0.889  10.867
  103OSM   H13A10381   4.014   0.885  10.862
  103OSM   H13B10382   3.868   0.803  10.814
  103OSM   H13C10383   3.881   0.882  10.971
  103OSM    C1210384   3.701   1.008  10.798
  103OSM   H12A10385   3.665   1.011  10.899
  103OSM   H12B10386   3.682   0.907  10.766
  103OSM    C1110387   3.635   1.116  10.710
  103OSM   H11A10388   3.530   1.084  10.695
  103OSM   H11B10389   3.677   1.111  10.608
  103OSM      P10390   3.533   1.332  10.824
  103OSM    O1310391   3.507   1.296  10.962
  103OSM    O1410392   3.564   1.474  10.803
  103OSM    O1110393   3.402   1.285  10.738
  103OSM    O1210394   3.649   1.247  10.764
  103OSM    C1S10395   3.390   1.343  10.609
  103OSM    H1S10396   3.442   1.273  10.542
  103OSM    H1T10397   3.444   1.440  10.604
  103OSM     NF10398   3.254   1.489  10.472
  103OSM    HNF10399   3.284   1.582  10.490
  103OSM    C2S10400   3.243   1.385  10.578
  103OSM    H2S10401   3.185   1.299  10.538
  103OSM    C3S10402   3.160   1.420  10.709
  103OSM    H3S10403   3.212   1.504  10.760
  103OSM     O310404   3.149   1.319  10.814
  103OSM    HO310405   3.225   1.263  10.797
  103OSM    C4S10406   3.026   1.486  10.682
  103OSM    H4S10407   3.029   1.595  10.664
  103OSM    C5S10408   2.914   1.420  10.655
  103OSM    H5S10409   2.914   1.310  10.661
  103OSM    C6S10410   2.784   1.476  10.607
  103OSM    H6S10411   2.789   1.585  10.630
  103OSM    H6T10412   2.690   1.436  10.652
  103OSM    C7S10413   2.789   1.471  10.450
  103OSM    H7S10414   2.687   1.483  10.407
  103OSM    H7T10415   2.811   1.370  10.409
  103OSM    C8S10416   2.892   1.569  10.381
  103OSM    H8S10417   2.997   1.545  10.408
  103OSM    H8T10418   2.882   1.671  10.426
  103OSM    C9S10419   2.882   1.573  10.231
  103OSM    H9S10420   2.958   1.641  10.187
  103OSM    H9T10421   2.780   1.610  10.208
  103OSM   C10S10422   2.898   1.438  10.162
  103OSM   H10S10423   2.802   1.385  10.182
  103OSM   H10T10424   2.992   1.393  10.199
  103OSM   C11S10425   2.910   1.445  10.000
  103OSM   H11S10426   3.011   1.483   9.975
  103OSM   H11T10427   2.838   1.526   9.976
  103OSM   C12S10428   2.890   1.309   9.935
  103OSM   H12S10429   2.789   1.274   9.965
  103OSM   H12T10430   2.965   1.241   9.980
  103OSM   C13S10431   2.907   1.314   9.779
  103OSM   H13S10432   2.894   1.208   9.746
  103OSM   H13T10433   3.012   1.327   9.747
  103OSM   C14S10434   2.823   1.405   9.697
  103OSM   H14S10435   2.847   1.506   9.736
  103OSM   H14T10436   2.718   1.375   9.720
  103OSM   C15S10437   2.835   1.388   9.542
  103OSM   H15S10438   2.746   1.429   9.491
  103OSM   H15T10439   2.841   1.282   9.510
  103OSM   C16S10440   2.967   1.461   9.496
  103OSM   H16S10441   3.052   1.424   9.558
  103OSM   H16T10442   2.956   1.567   9.527
  103OSM   C17S10443   2.980   1.441   9.347
  103OSM   H17S10444   2.891   1.476   9.290
  103OSM   H17T10445   3.001   1.333   9.331
  103OSM   C18S10446   3.092   1.521   9.290
  103OSM   H18S10447   3.193   1.499   9.331
  103OSM   H18T10448   3.075   1.630   9.307
  103OSM   H18U10449   3.085   1.508   9.180
  103OSM    C1F10450   3.252   1.449  10.346
  103OSM     OF10451   3.228   1.333  10.311
  103OSM    C2F10452   3.285   1.561  10.244
  103OSM    H2F10453   3.393   1.581  10.264
  103OSM    H2G10454   3.220   1.645  10.273
  103OSM    C3F10455   3.271   1.515  10.104
  103OSM    H3F10456   3.162   1.494  10.091
  103OSM    H3G10457   3.321   1.418  10.084
  103OSM    C4F10458   3.319   1.620  10.003
  103OSM    H4F10459   3.430   1.628  10.009
  103OSM    H4G10460   3.274   1.720  10.017
  103OSM    C5F10461   3.303   1.576   9.855
  103OSM    H5F10462   3.195   1.560   9.834
  103OSM    H5G10463   3.361   1.481   9.852
  103OSM    C6F10464   3.364   1.671   9.757
  103OSM    H6F10465   3.466   1.705   9.787
  103OSM    H6G10466   3.303   1.764   9.764
  103OSM    C7F10467   3.375   1.620   9.615
  103OSM    H7F10468   3.270   1.607   9.580
  103OSM    H7G10469   3.417   1.516   9.614
  103OSM    C8F10470   3.450   1.703   9.514
  103OSM    H8F10471   3.555   1.717   9.548
  103OSM    H8G10472   3.397   1.801   9.517
  103OSM    C9F10473   3.444   1.622   9.382
  103OSM    H9F10474   3.454   1.512   9.387
  103OSM   C10F10475   3.430   1.675   9.257
  103OSM   H10F10476   3.445   1.612   9.168
  103OSM   C11F10477   3.420   1.821   9.224
  103OSM   H11F10478   3.426   1.885   9.314
  103OSM   H11G10479   3.321   1.839   9.177
  103OSM   C12F10480   3.530   1.873   9.126
  103OSM   H12F10481   3.516   1.822   9.028
  103OSM   H12G10482   3.638   1.863   9.151
  103OSM   C13F10483   3.512   2.028   9.103
  103OSM   H13F10484   3.611   2.077   9.094
  103OSM   H13G10485   3.467   2.065   9.197
  103OSM   C14F10486   3.435   2.055   8.975
  103OSM   H14F10487   3.405   2.162   8.964
  103OSM   H14G10488   3.352   1.986   8.950
  103OSM   C15F10489   3.525   2.033   8.859
  103OSM   H15F10490   3.464   1.981   8.781
  103OSM   H15G10491   3.606   1.962   8.884
  103OSM   C16F10492   3.591   2.165   8.809
  103OSM   H16F10493   3.668   2.193   8.884
  103OSM   H16G10494   3.519   2.248   8.801
  103OSM   C17F10495   3.670   2.148   8.675
  103OSM   H17F10496   3.620   2.088   8.596
  103OSM   H17G10497   3.743   2.066   8.692
  103OSM   C18F10498   3.734   2.271   8.609
  103OSM   H18F10499   3.794   2.329   8.682
  103OSM   H18G10500   3.659   2.348   8.577
  103OSM   H18H10501   3.797   2.241   8.522
  104OSM      N10502   4.883   6.787  11.079
  104OSM    C1510503   4.989   6.721  11.163
  104OSM   H15A10504   4.938   6.668  11.242
  104OSM   H15B10505   5.055   6.792  11.209
  104OSM   H15C10506   5.051   6.645  11.116
  104OSM    C1410507   4.765   6.693  11.068
  104OSM   H14A10508   4.771   6.613  10.996
  104OSM   H14B10509   4.688   6.760  11.033
  104OSM   H14C10510   4.738   6.652  11.164
  104OSM    C1310511   4.842   6.917  11.137
  104OSM   H13A10512   4.929   6.967  11.176
  104OSM   H13B10513   4.770   6.910  11.217
  104OSM   H13C10514   4.805   6.992  11.069
  104OSM    C1210515   4.950   6.817  10.947
  104OSM   H12A10516   4.987   6.728  10.899
  104OSM   H12B10517   5.029   6.890  10.953
  104OSM    C1110518   4.854   6.878  10.838
  104OSM   H11A10519   4.758   6.821  10.841
  104OSM   H11B10520   4.889   6.860  10.734
  104OSM      P10521   4.939   7.124  10.832
  104OSM    O1310522   4.882   7.260  10.848
  104OSM    O1410523   5.053   7.090  10.918
  104OSM    O1110524   4.972   7.090  10.675
  104OSM    O1210525   4.818   7.016  10.858
  104OSM    C1S10526   4.875   7.100  10.575
  104OSM    H1S10527   4.796   7.168  10.612
  104OSM    H1T10528   4.852   6.996  10.543
  104OSM     NF10529   4.816   7.208  10.360
  104OSM    HNF10530   4.796   7.156  10.278
  104OSM    C2S10531   4.931   7.181  10.447
  104OSM    H2S10532   4.982   7.276  10.475
  104OSM    C3S10533   5.039   7.088  10.377
  104OSM    H3S10534   4.992   6.991  10.351
  104OSM     O310535   5.139   7.046  10.470
  104OSM    HO310536   5.096   7.060  10.555
  104OSM    C4S10537   5.092   7.148  10.258
  104OSM    H4S10538   5.100   7.258  10.256
  104OSM    C5S10539   5.109   7.076  10.143
  104OSM    H5S10540   5.090   6.968  10.149
  104OSM    C6S10541   5.153   7.124  10.004
  104OSM    H6S10542   5.261   7.150   9.999
  104OSM    H6T10543   5.089   7.211   9.977
  104OSM    C7S10544   5.129   7.006   9.905
  104OSM    H7S10545   5.021   6.979   9.900
  104OSM    H7T10546   5.183   6.914   9.936
  104OSM    C8S10547   5.179   7.050   9.765
  104OSM    H8S10548   5.287   7.073   9.778
  104OSM    H8T10549   5.117   7.139   9.740
  104OSM    C9S10550   5.163   6.942   9.651
  104OSM    H9S10551   5.064   6.895   9.670
  104OSM    H9T10552   5.242   6.871   9.684
  104OSM   C10S10553   5.178   6.997   9.507
  104OSM   H10S10554   5.280   7.040   9.517
  104OSM   H10T10555   5.100   7.075   9.495
  104OSM   C11S10556   5.161   6.888   9.396
  104OSM   H11S10557   5.055   6.855   9.391
  104OSM   H11T10558   5.223   6.801   9.426
  104OSM   C12S10559   5.197   6.939   9.262
  104OSM   H12S10560   5.297   6.987   9.267
  104OSM   H12T10561   5.127   7.018   9.225
  104OSM   C13S10562   5.204   6.838   9.144
  104OSM   H13S10563   5.112   6.777   9.151
  104OSM   H13T10564   5.303   6.788   9.156
  104OSM   C14S10565   5.219   6.906   9.014
  104OSM   H14S10566   5.287   6.994   9.019
  104OSM   H14T10567   5.116   6.944   8.997
  104OSM   C15S10568   5.249   6.817   8.899
  104OSM   H15S10569   5.332   6.747   8.921
  104OSM   H15T10570   5.282   6.890   8.822
  104OSM   C16S10571   5.122   6.742   8.861
  104OSM   H16S10572   5.045   6.811   8.821
  104OSM   H16T10573   5.079   6.691   8.950
  104OSM   C17S10574   5.144   6.639   8.752
  104OSM   H17S10575   5.050   6.579   8.749
  104OSM   H17T10576   5.232   6.576   8.774
  104OSM   C18S10577   5.181   6.707   8.618
  104OSM   H18S10578   5.274   6.769   8.620
  104OSM   H18T10579   5.092   6.763   8.582
  104OSM   H18U10580   5.193   6.629   8.540
  104OSM    C1F10581   4.720   7.301  10.380
  104OSM     OF10582   4.742   7.404  10.447
  104OSM    C2F10583   4.586   7.273  10.314
  104OSM    H2F10584   4.509   7.254  10.391
  104OSM    H2G10585   4.583   7.193  10.236
  104OSM    C3F10586   4.555   7.409  10.249
  104OSM    H3F10587   4.529   7.474  10.335
  104OSM    H3G10588   4.463   7.396  10.188
  104OSM    C4F10589   4.648   7.479  10.149
  104OSM    H4F10590   4.683   7.399  10.081
  104OSM    H4G10591   4.728   7.517  10.216
  104OSM    C5F10592   4.604   7.607  10.069
  104OSM    H5F10593   4.684   7.677  10.036
  104OSM    H5G10594   4.534   7.666  10.132
  104OSM    C6F10595   4.521   7.560   9.946
  104OSM    H6F10596   4.472   7.651   9.905
  104OSM    H6G10597   4.435   7.497   9.977
  104OSM    C7F10598   4.605   7.494   9.833
  104OSM    H7F10599   4.647   7.394   9.860
  104OSM    H7G10600   4.689   7.563   9.812
  104OSM    C8F10601   4.525   7.477   9.707
  104OSM    H8F10602   4.496   7.582   9.685
  104OSM    H8G10603   4.437   7.417   9.737
  104OSM    C9F10604   4.592   7.417   9.591
  104OSM    H9F10605   4.625   7.313   9.608
  104OSM   C10F10606   4.625   7.479   9.478
  104OSM   H10F10607   4.644   7.409   9.395
  104OSM   C11F10608   4.598   7.626   9.445
  104OSM   H11F10609   4.626   7.690   9.531
  104OSM   H11G10610   4.489   7.648   9.438
  104OSM   C12F10611   4.659   7.674   9.317
  104OSM   H12F10612   4.767   7.650   9.310
  104OSM   H12G10613   4.663   7.784   9.308
  104OSM   C13F10614   4.586   7.623   9.192
  104OSM   H13F10615   4.482   7.661   9.192
  104OSM   H13G10616   4.583   7.513   9.204
  104OSM   C14F10617   4.658   7.662   9.062
  104OSM   H14F10618   4.767   7.648   9.080
  104OSM   H14G10619   4.637   7.770   9.048
  104OSM   C15F10620   4.609   7.574   8.942
  104OSM   H15F10621   4.506   7.605   8.916
  104OSM   H15G10622   4.618   7.466   8.966
  104OSM   C16F10623   4.708   7.597   8.821
  104OSM   H16F10624   4.807   7.555   8.850
  104OSM   H16G10625   4.730   7.701   8.790
  104OSM   C17F10626   4.663   7.521   8.697
  104OSM   H17F10627   4.571   7.574   8.664
  104OSM   H17G10628   4.646   7.415   8.727
  104OSM   C18F10629   4.771   7.524   8.596
  104OSM   H18F10630   4.851   7.452   8.625
  104OSM   H18G10631   4.819   7.624   8.592
  104OSM   H18H10632   4.749   7.498   8.490
  105OSM      N10633   1.336   3.647  11.032
  105OSM    C1510634   1.439   3.630  11.139
  105OSM   H15A10635   1.403   3.687  11.224
  105OSM   H15B10636   1.532   3.674  11.105
  105OSM   H15C10637   1.455   3.525  11.157
  105OSM    C1410638   1.219   3.566  11.082
  105OSM   H14A10639   1.126   3.580  11.027
  105OSM   H14B10640   1.208   3.573  11.189
  105OSM   H14C10641   1.255   3.466  11.062
  105OSM    C1310642   1.285   3.790  11.018
  105OSM   H13A10643   1.219   3.822  11.098
  105OSM   H13B10644   1.231   3.800  10.925
  105OSM   H13C10645   1.372   3.854  11.014
  105OSM    C1210646   1.384   3.597  10.891
  105OSM   H12A10647   1.463   3.666  10.864
  105OSM   H12B10648   1.304   3.603  10.819
  105OSM    C1110649   1.454   3.463  10.863
  105OSM   H11A10650   1.551   3.462  10.918
  105OSM   H11B10651   1.480   3.455  10.755
  105OSM      P10652   1.376   3.220  10.853
  105OSM    O1310653   1.510   3.158  10.856
  105OSM    O1410654   1.273   3.151  10.935
  105OSM    O1110655   1.347   3.240  10.699
  105OSM    O1210656   1.384   3.356  10.925
  105OSM    C1S10657   1.211   3.275  10.664
  105OSM    H1S10658   1.183   3.377  10.696
  105OSM    H1T10659   1.141   3.197  10.702
  105OSM     NF10660   1.065   3.334  10.465
  105OSM    HNF10661   0.994   3.271  10.434
  105OSM    C2S10662   1.192   3.281  10.509
  105OSM    H2S10663   1.274   3.351  10.484
  105OSM    C3S10664   1.223   3.140  10.449
  105OSM    H3S10665   1.139   3.076  10.485
  105OSM     O310666   1.342   3.072  10.506
  105OSM    HO310667   1.355   3.127  10.584
  105OSM    C4S10668   1.211   3.133  10.296
  105OSM    H4S10669   1.117   3.085  10.267
  105OSM    C5S10670   1.301   3.160  10.200
  105OSM    H5S10671   1.398   3.205  10.224
  105OSM    C6S10672   1.280   3.129  10.055
  105OSM    H6S10673   1.175   3.153  10.030
  105OSM    H6T10674   1.303   3.022  10.032
  105OSM    C7S10675   1.375   3.208   9.961
  105OSM    H7S10676   1.476   3.164   9.977
  105OSM    H7T10677   1.360   3.316   9.983
  105OSM    C8S10678   1.334   3.189   9.811
  105OSM    H8S10679   1.229   3.224   9.795
  105OSM    H8T10680   1.330   3.078   9.819
  105OSM    C9S10681   1.423   3.236   9.690
  105OSM    H9S10682   1.527   3.196   9.690
  105OSM    H9T10683   1.437   3.347   9.697
  105OSM   C10S10684   1.362   3.191   9.562
  105OSM   H10S10685   1.253   3.211   9.555
  105OSM   H10T10686   1.386   3.084   9.547
  105OSM   C11S10687   1.422   3.258   9.437
  105OSM   H11S10688   1.533   3.253   9.438
  105OSM   H11T10689   1.386   3.362   9.421
  105OSM   C12S10690   1.386   3.185   9.306
  105OSM   H12S10691   1.276   3.179   9.315
  105OSM   H12T10692   1.440   3.088   9.297
  105OSM   C13S10693   1.426   3.264   9.178
  105OSM   H13S10694   1.536   3.279   9.179
  105OSM   H13T10695   1.384   3.366   9.189
  105OSM   C14S10696   1.376   3.194   9.048
  105OSM   H14S10697   1.274   3.154   9.066
  105OSM   H14T10698   1.445   3.107   9.036
  105OSM   C15S10699   1.358   3.277   8.925
  105OSM   H15S10700   1.452   3.333   8.906
  105OSM   H15T10701   1.282   3.357   8.942
  105OSM   C16S10702   1.314   3.197   8.808
  105OSM   H16S10703   1.222   3.143   8.840
  105OSM   H16T10704   1.391   3.121   8.783
  105OSM   C17S10705   1.292   3.299   8.700
  105OSM   H17S10706   1.254   3.392   8.749
  105OSM   H17T10707   1.214   3.273   8.626
  105OSM   C18S10708   1.425   3.342   8.626
  105OSM   H18S10709   1.473   3.256   8.575
  105OSM   H18T10710   1.497   3.378   8.702
  105OSM   H18U10711   1.392   3.422   8.556
  105OSM    C1F10712   1.035   3.460  10.484
  105OSM     OF10713   1.123   3.536  10.529
  105OSM    C2F10714   0.887   3.505  10.479
  105OSM    H2F10715   0.854   3.528  10.583
  105OSM    H2G10716   0.825   3.424  10.436
  105OSM    C3F10717   0.868   3.636  10.394
  105OSM    H3F10718   0.954   3.700  10.421
  105OSM    H3G10719   0.778   3.697  10.417
  105OSM    C4F10720   0.878   3.608  10.247
  105OSM    H4F10721   0.805   3.534  10.207
  105OSM    H4G10722   0.980   3.563  10.239
  105OSM    C5F10723   0.873   3.734  10.158
  105OSM    H5F10724   0.957   3.796  10.196
  105OSM    H5G10725   0.779   3.790  10.176
  105OSM    C6F10726   0.888   3.702  10.013
  105OSM    H6F10727   0.793   3.663   9.970
  105OSM    H6G10728   0.967   3.626   9.997
  105OSM    C7F10729   0.950   3.814   9.927
  105OSM    H7F10730   1.048   3.844   9.971
  105OSM    H7G10731   0.888   3.906   9.939
  105OSM    C8F10732   0.966   3.787   9.779
  105OSM    H8F10733   1.026   3.695   9.763
  105OSM    H8G10734   1.017   3.874   9.733
  105OSM    C9F10735   0.836   3.764   9.707
  105OSM    H9F10736   0.748   3.722   9.757
  105OSM   C10F10737   0.818   3.795   9.581
  105OSM   H10F10738   0.715   3.796   9.543
  105OSM   C11F10739   0.915   3.851   9.484
  105OSM   H11F10740   1.018   3.874   9.518
  105OSM   H11G10741   0.873   3.946   9.444
  105OSM   C12F10742   0.935   3.752   9.373
  105OSM   H12F10743   0.835   3.733   9.327
  105OSM   H12G10744   0.992   3.665   9.411
  105OSM   C13F10745   1.014   3.801   9.246
  105OSM   H13F10746   1.118   3.826   9.278
  105OSM   H13G10747   0.973   3.902   9.225
  105OSM   C14F10748   0.992   3.706   9.129
  105OSM   H14F10749   0.889   3.716   9.090
  105OSM   H14G10750   1.009   3.603   9.166
  105OSM   C15F10751   1.090   3.730   9.016
  105OSM   H15F10752   1.190   3.738   9.062
  105OSM   H15G10753   1.073   3.828   8.966
  105OSM   C16F10754   1.080   3.619   8.908
  105OSM   H16F10755   1.072   3.517   8.951
  105OSM   H16G10756   1.174   3.625   8.849
  105OSM   C17F10757   0.974   3.653   8.798
  105OSM   H17F10758   0.956   3.762   8.789
  105OSM   H17G10759   0.879   3.598   8.812
  105OSM   C18F10760   1.009   3.605   8.654
  105OSM   H18F10761   1.101   3.661   8.624
  105OSM   H18G10762   0.922   3.616   8.587
  105OSM   H18H10763   1.035   3.497   8.657
  106OSM      N10764   6.511   2.522  10.594
  106OSM    C1510765   6.496   2.451  10.464
  106OSM   H15A10766   6.423   2.487  10.393
  106OSM   H15B10767   6.477   2.346  10.479
  106OSM   H15C10768   6.589   2.448  10.408
  106OSM    C1410769   6.589   2.655  10.579
  106OSM   H14A10770   6.603   2.705  10.674
  106OSM   H14B10771   6.546   2.723  10.506
  106OSM   H14C10772   6.686   2.625  10.541
  106OSM    C1310773   6.376   2.565  10.651
  106OSM   H13A10774   6.386   2.626  10.739
  106OSM   H13B10775   6.323   2.473  10.674
  106OSM   H13C10776   6.324   2.611  10.568
  106OSM    C1210777   6.580   2.436  10.691
  106OSM   H12A10778   6.527   2.354  10.737
  106OSM   H12B10779   6.598   2.501  10.776
  106OSM    C1110780   6.724   2.385  10.653
  106OSM   H11A10781   6.720   2.311  10.571
  106OSM   H11B10782   6.746   2.330  10.747
  106OSM      P10783   6.917   2.573  10.710
  106OSM    O1310784   6.854   2.606  10.838
  106OSM    O1410785   7.030   2.483  10.709
  106OSM    O1110786   6.956   2.707  10.637
  106OSM    O1210787   6.814   2.494  10.614
  106OSM    C1S10788   6.994   2.722  10.500
  106OSM    H1S10789   6.959   2.637  10.438
  106OSM    H1T10790   7.105   2.729  10.497
  106OSM     NF10791   6.980   2.880  10.305
  106OSM    HNF10792   7.049   2.951  10.298
  106OSM    C2S10793   6.938   2.859  10.442
  106OSM    H2S10794   6.829   2.843  10.449
  106OSM    C3S10795   6.979   2.983  10.529
  106OSM    H3S10796   7.089   2.988  10.514
  106OSM     O310797   6.955   2.975  10.666
  106OSM    HO310798   6.936   2.881  10.680
  106OSM    C4S10799   6.911   3.108  10.483
  106OSM    H4S10800   6.801   3.111  10.484
  106OSM    C5S10801   6.980   3.211  10.435
  106OSM    H5S10802   7.090   3.208  10.431
  106OSM    C6S10803   6.920   3.330  10.375
  106OSM    H6S10804   6.964   3.427  10.408
  106OSM    H6T10805   6.812   3.331  10.404
  106OSM    C7S10806   6.918   3.303  10.220
  106OSM    H7S10807   6.883   3.199  10.208
  106OSM    H7T10808   7.027   3.310  10.199
  106OSM    C8S10809   6.850   3.409  10.137
  106OSM    H8S10810   6.892   3.509  10.162
  106OSM    H8T10811   6.748   3.423  10.178
  106OSM    C9S10812   6.852   3.378   9.986
  106OSM    H9S10813   6.823   3.273   9.965
  106OSM    H9T10814   6.960   3.381   9.961
  106OSM   C10S10815   6.776   3.482   9.905
  106OSM   H10S10816   6.801   3.584   9.940
  106OSM   H10T10817   6.665   3.474   9.914
  106OSM   C11S10818   6.803   3.463   9.755
  106OSM   H11S10819   6.912   3.463   9.735
  106OSM   H11T10820   6.756   3.546   9.698
  106OSM   C12S10821   6.752   3.333   9.707
  106OSM   H12S10822   6.655   3.302   9.752
  106OSM   H12T10823   6.820   3.253   9.745
  106OSM   C13S10824   6.722   3.339   9.551
  106OSM   H13S10825   6.649   3.421   9.537
  106OSM   H13T10826   6.674   3.242   9.525
  106OSM   C14S10827   6.851   3.365   9.472
  106OSM   H14S10828   6.922   3.279   9.477
  106OSM   H14T10829   6.904   3.458   9.501
  106OSM   C15S10830   6.820   3.391   9.317
  106OSM   H15S10831   6.803   3.499   9.302
  106OSM   H15T10832   6.732   3.326   9.297
  106OSM   C16S10833   6.942   3.351   9.231
  106OSM   H16S10834   6.957   3.241   9.229
  106OSM   H16T10835   7.032   3.399   9.275
  106OSM   C17S10836   6.927   3.393   9.086
  106OSM   H17S10837   7.024   3.362   9.041
  106OSM   H17T10838   6.920   3.504   9.084
  106OSM   C18S10839   6.805   3.338   9.013
  106OSM   H18S10840   6.817   3.358   8.904
  106OSM   H18T10841   6.716   3.396   9.046
  106OSM   H18U10842   6.796   3.227   9.020
  106OSM    C1F10843   6.945   2.798  10.200
  106OSM     OF10844   6.881   2.690  10.220
  106OSM    C2F10845   6.987   2.845  10.068
  106OSM    H2F10846   7.090   2.817  10.037
  106OSM    H2G10847   6.983   2.956  10.066
  106OSM    C3F10848   6.888   2.803   9.963
  106OSM    H3F10849   6.786   2.823  10.003
  106OSM    H3G10850   6.892   2.698   9.927
  106OSM    C4F10851   6.917   2.883   9.831
  106OSM    H4F10852   7.024   2.860   9.811
  106OSM    H4G10853   6.906   2.993   9.845
  106OSM    C5F10854   6.829   2.858   9.713
  106OSM    H5F10855   6.725   2.877   9.746
  106OSM    H5G10856   6.834   2.752   9.681
  106OSM    C6F10857   6.851   2.945   9.584
  106OSM    H6F10858   6.813   3.048   9.599
  106OSM    H6G10859   6.786   2.904   9.505
  106OSM    C7F10860   6.992   2.950   9.534
  106OSM    H7F10861   7.011   2.841   9.519
  106OSM    H7G10862   7.068   2.982   9.609
  106OSM    C8F10863   7.007   3.027   9.400
  106OSM    H8F10864   7.018   3.134   9.427
  106OSM    H8G10865   6.910   3.019   9.347
  106OSM    C9F10866   7.118   2.988   9.306
  106OSM    H9F10867   7.211   3.046   9.306
  106OSM   C10F10868   7.127   2.879   9.231
  106OSM   H10F10869   7.221   2.861   9.178
  106OSM   C11F10870   7.032   2.761   9.223
  106OSM   H11F10871   6.945   2.760   9.292
  106OSM   H11G10872   7.087   2.667   9.245
  106OSM   C12F10873   6.967   2.748   9.083
  106OSM   H12F10874   6.905   2.657   9.092
  106OSM   H12G10875   7.049   2.736   9.008
  106OSM   C13F10876   6.880   2.859   9.034
  106OSM   H13F10877   6.947   2.944   9.010
  106OSM   H13G10878   6.814   2.887   9.119
  106OSM   C14F10879   6.794   2.830   8.905
  106OSM   H14F10880   6.710   2.762   8.934
  106OSM   H14G10881   6.863   2.771   8.842
  106OSM   C15F10882   6.731   2.951   8.834
  106OSM   H15F10883   6.667   3.018   8.896
  106OSM   H15G10884   6.662   2.917   8.753
  106OSM   C16F10885   6.831   3.041   8.760
  106OSM   H16F10886   6.876   2.969   8.688
  106OSM   H16G10887   6.903   3.088   8.830
  106OSM   C17F10888   6.757   3.154   8.693
  106OSM   H17F10889   6.682   3.206   8.756
  106OSM   H17G10890   6.694   3.111   8.612
  106OSM   C18F10891   6.855   3.249   8.629
  106OSM   H18F10892   6.932   3.191   8.574
  106OSM   H18G10893   6.906   3.306   8.710
  106OSM   H18H10894   6.815   3.320   8.553
  107OSM      N10895   2.855   1.108  10.943
  107OSM    C1510896   2.751   1.065  11.048
  107OSM   H15A10897   2.747   0.958  11.057
  107OSM   H15B10898   2.653   1.094  11.013
  107OSM   H15C10899   2.780   1.091  11.148
  107OSM    C1410900   2.800   1.082  10.808
  107OSM   H14A10901   2.743   0.991  10.807
  107OSM   H14B10902   2.876   1.072  10.731
  107OSM   H14C10903   2.730   1.156  10.772
  107OSM    C1310904   2.879   1.256  10.960
  107OSM   H13A10905   2.968   1.292  10.911
  107OSM   H13B10906   2.886   1.280  11.065
  107OSM   H13C10907   2.797   1.315  10.920
  107OSM    C1210908   2.982   1.034  10.967
  107OSM   H12A10909   3.011   1.044  11.071
  107OSM   H12B10910   3.060   1.079  10.908
  107OSM    C1110911   2.961   0.882  10.939
  107OSM   H11A10912   2.910   0.862  10.843
  107OSM   H11B10913   2.893   0.834  11.012
  107OSM      P10914   3.199   0.800  10.841
  107OSM    O1310915   3.326   0.766  10.913
  107OSM    O1410916   3.158   0.696  10.740
  107OSM    O1110917   3.199   0.944  10.772
  107OSM    O1210918   3.087   0.810  10.952
  107OSM    C1S10919   3.293   0.960  10.665
  107OSM    H1S10920   3.380   0.893  10.681
  107OSM    H1T10921   3.324   1.066  10.658
  107OSM     NF10922   3.323   0.931  10.412
  107OSM    HNF10923   3.319   1.001  10.341
  107OSM    C2S10924   3.224   0.923  10.523
  107OSM    H2S10925   3.182   0.820  10.529
  107OSM    C3S10926   3.106   1.014  10.494
  107OSM    H3S10927   3.145   1.114  10.465
  107OSM     O310928   3.017   1.050  10.599
  107OSM    HO310929   3.067   1.026  10.677
  107OSM    C4S10930   3.024   0.977  10.373
  107OSM    H4S10931   2.999   0.870  10.368
  107OSM    C5S10932   2.970   1.059  10.284
  107OSM    H5S10933   2.981   1.167  10.301
  107OSM    C6S10934   2.879   1.034  10.171
  107OSM    H6S10935   2.918   1.092  10.085
  107OSM    H6T10936   2.790   1.100  10.188
  107OSM    C7S10937   2.857   0.893  10.125
  107OSM    H7S10938   2.817   0.828  10.205
  107OSM    H7T10939   2.948   0.846  10.083
  107OSM    C8S10940   2.748   0.899  10.016
  107OSM    H8S10941   2.778   0.971   9.937
  107OSM    H8T10942   2.657   0.944  10.061
  107OSM    C9S10943   2.735   0.755   9.958
  107OSM    H9S10944   2.713   0.690  10.046
  107OSM    H9T10945   2.839   0.731   9.928
  107OSM   C10S10946   2.647   0.737   9.835
  107OSM   H10S10947   2.563   0.809   9.846
  107OSM   H10T10948   2.610   0.633   9.832
  107OSM   C11S10949   2.729   0.763   9.707
  107OSM   H11S10950   2.818   0.696   9.697
  107OSM   H11T10951   2.772   0.864   9.724
  107OSM   C12S10952   2.642   0.756   9.584
  107OSM   H12S10953   2.556   0.822   9.607
  107OSM   H12T10954   2.591   0.660   9.562
  107OSM   C13S10955   2.710   0.799   9.452
  107OSM   H13S10956   2.800   0.735   9.439
  107OSM   H13T10957   2.747   0.904   9.460
  107OSM   C14S10958   2.609   0.798   9.337
  107OSM   H14S10959   2.533   0.878   9.351
  107OSM   H14T10960   2.563   0.697   9.330
  107OSM   C15S10961   2.684   0.807   9.201
  107OSM   H15S10962   2.720   0.705   9.175
  107OSM   H15T10963   2.761   0.885   9.220
  107OSM   C16S10964   2.595   0.858   9.095
  107OSM   H16S10965   2.558   0.961   9.115
  107OSM   H16T10966   2.505   0.794   9.088
  107OSM   C17S10967   2.660   0.870   8.962
  107OSM   H17S10968   2.712   0.773   8.948
  107OSM   H17T10969   2.741   0.947   8.958
  107OSM   C18S10970   2.559   0.891   8.845
  107OSM   H18S10971   2.482   0.811   8.851
  107OSM   H18T10972   2.614   0.888   8.748
  107OSM   H18U10973   2.510   0.990   8.862
  107OSM    C1F10974   3.429   0.851  10.407
  107OSM     OF10975   3.426   0.758  10.484
  107OSM    C2F10976   3.540   0.884  10.311
  107OSM    H2F10977   3.592   0.976  10.347
  107OSM    H2G10978   3.486   0.909  10.217
  107OSM    C3F10979   3.648   0.781  10.284
  107OSM    H3F10980   3.616   0.676  10.299
  107OSM    H3G10981   3.726   0.799  10.360
  107OSM    C4F10982   3.714   0.790  10.147
  107OSM    H4F10983   3.806   0.728  10.147
  107OSM    H4G10984   3.744   0.896  10.130
  107OSM    C5F10985   3.624   0.734  10.034
  107OSM    H5F10986   3.529   0.791  10.037
  107OSM    H5G10987   3.602   0.627  10.054
  107OSM    C6F10988   3.673   0.754   9.882
  107OSM    H6F10989   3.712   0.858   9.873
  107OSM    H6G10990   3.583   0.731   9.821
  107OSM    C7F10991   3.788   0.661   9.844
  107OSM    H7F10992   3.743   0.560   9.841
  107OSM    H7G10993   3.872   0.669   9.917
  107OSM    C8F10994   3.845   0.692   9.704
  107OSM    H8F10995   3.940   0.634   9.701
  107OSM    H8G10996   3.869   0.800   9.703
  107OSM    C9F10997   3.748   0.649   9.588
  107OSM    H9F10998   3.723   0.543   9.585
  107OSM   C10F10999   3.692   0.729   9.496
  107OSM   H10F11000   3.622   0.671   9.434
  107OSM   C11F11001   3.702   0.879   9.496
  107OSM   H11F11002   3.726   0.921   9.596
  107OSM   H11G11003   3.604   0.914   9.459
  107OSM   C12F11004   3.794   0.930   9.387
  107OSM   H12F11005   3.793   1.040   9.393
  107OSM   H12G11006   3.757   0.910   9.284
  107OSM   C13F11007   3.939   0.886   9.384
  107OSM   H13F11008   3.936   0.778   9.355
  107OSM   H13G11009   3.991   0.881   9.482
  107OSM   C14F11010   4.030   0.956   9.286
  107OSM   H14F11011   4.130   0.909   9.299
  107OSM   H14G11012   4.044   1.065   9.306
  107OSM   C15F11013   3.984   0.950   9.137
  107OSM   H15F11014   4.040   1.020   9.072
  107OSM   H15G11015   3.876   0.974   9.128
  107OSM   C16F11016   3.986   0.802   9.081
  107OSM   H16F11017   3.899   0.748   9.123
  107OSM   H16G11018   4.075   0.751   9.124
  107OSM   C17F11019   3.958   0.788   8.931
  107OSM   H17F11020   4.024   0.868   8.891
  107OSM   H17G11021   3.853   0.816   8.908
  107OSM   C18F11022   3.997   0.655   8.860
  107OSM   H18F11023   3.949   0.569   8.913
  107OSM   H18G11024   4.105   0.637   8.878
  107OSM   H18H11025   3.966   0.661   8.754
  108OSM      N11026   0.327   1.649  10.652
  108OSM    C1511027   0.419   1.765  10.639
  108OSM   H15A11028   0.479   1.777  10.728
  108OSM   H15B11029   0.354   1.850  10.626
  108OSM   H15C11030   0.468   1.764  10.543
  108OSM    C1411031   0.249   1.644  10.528
  108OSM   H14A11032   0.192   1.554  10.510
  108OSM   H14B11033   0.320   1.656  10.447
  108OSM   H14C11034   0.176   1.724  10.518
  108OSM    C1311035   0.416   1.527  10.664
  108OSM   H13A11036   0.480   1.518  10.577
  108OSM   H13B11037   0.350   1.442  10.657
  108OSM   H13C11038   0.477   1.532  10.752
  108OSM    C1211039   0.234   1.666  10.772
  108OSM   H12A11040   0.286   1.706  10.857
  108OSM   H12B11041   0.203   1.564  10.790
  108OSM    C1111042   0.109   1.749  10.741
  108OSM   H11A11043   0.058   1.768  10.837
  108OSM   H11B11044   0.047   1.686  10.674
  108OSM      P11045   0.013   1.956  10.626
  108OSM    O1311046  -0.075   1.994  10.743
  108OSM    O1411047   0.071   2.072  10.560
  108OSM    O1111048  -0.062   1.867  10.525
  108OSM    O1211049   0.141   1.867  10.674
  108OSM    C1S11050  -0.208   1.870  10.505
  108OSM    H1S11051  -0.254   1.963  10.546
  108OSM    H1T11052  -0.254   1.793  10.571
  108OSM     NF11053  -0.404   1.842  10.355
  108OSM    HNF11054  -0.445   1.751  10.350
  108OSM    C2S11055  -0.254   1.848  10.361
  108OSM    H2S11056  -0.225   1.933  10.295
  108OSM    C3S11057  -0.192   1.728  10.294
  108OSM    H3S11058  -0.223   1.634  10.344
  108OSM     O311059  -0.047   1.718  10.296
  108OSM    HO311060  -0.031   1.768  10.376
  108OSM    C4S11061  -0.239   1.718  10.150
  108OSM    H4S11062  -0.226   1.817  10.106
  108OSM    C5S11063  -0.311   1.620  10.090
  108OSM    H5S11064  -0.326   1.526  10.146
  108OSM    C6S11065  -0.371   1.610   9.949
  108OSM    H6S11066  -0.480   1.596   9.936
  108OSM    H6T11067  -0.328   1.521   9.898
  108OSM    C7S11068  -0.333   1.725   9.855
  108OSM    H7S11069  -0.223   1.745   9.851
  108OSM    H7T11070  -0.377   1.814   9.904
  108OSM    C8S11071  -0.382   1.695   9.712
  108OSM    H8S11072  -0.493   1.692   9.710
  108OSM    H8T11073  -0.351   1.595   9.676
  108OSM    C9S11074  -0.338   1.802   9.617
  108OSM    H9S11075  -0.228   1.811   9.604
  108OSM    H9T11076  -0.367   1.900   9.660
  108OSM   C10S11077  -0.401   1.774   9.473
  108OSM   H10S11078  -0.510   1.757   9.483
  108OSM   H10T11079  -0.351   1.679   9.442
  108OSM   C11S11080  -0.364   1.887   9.378
  108OSM   H11S11081  -0.255   1.906   9.382
  108OSM   H11T11082  -0.411   1.978   9.421
  108OSM   C12S11083  -0.418   1.874   9.234
  108OSM   H12S11084  -0.528   1.866   9.232
  108OSM   H12T11085  -0.383   1.784   9.178
  108OSM   C13S11086  -0.375   1.988   9.141
  108OSM   H13S11087  -0.264   1.991   9.137
  108OSM   H13T11088  -0.414   2.084   9.179
  108OSM   C14S11089  -0.407   1.983   8.990
  108OSM   H14S11090  -0.371   1.888   8.944
  108OSM   H14T11091  -0.350   2.066   8.942
  108OSM   C15S11092  -0.552   2.000   8.951
  108OSM   H15S11093  -0.609   2.085   8.995
  108OSM   H15T11094  -0.615   1.916   8.987
  108OSM   C16S11095  -0.575   2.015   8.797
  108OSM   H16S11096  -0.527   1.931   8.742
  108OSM   H16T11097  -0.517   2.104   8.764
  108OSM   C17S11098  -0.715   2.037   8.763
  108OSM   H17S11099  -0.735   2.062   8.656
  108OSM   H17T11100  -0.740   2.129   8.821
  108OSM   C18S11101  -0.815   1.931   8.801
  108OSM   H18S11102  -0.794   1.828   8.767
  108OSM   H18T11103  -0.917   1.962   8.770
  108OSM   H18U11104  -0.827   1.927   8.912
  108OSM    C1F11105  -0.490   1.934  10.373
  108OSM     OF11106  -0.451   2.046  10.414
  108OSM    C2F11107  -0.628   1.898  10.357
  108OSM    H2F11108  -0.688   1.991  10.364
  108OSM    H2G11109  -0.667   1.826  10.432
  108OSM    C3F11110  -0.638   1.836  10.217
  108OSM    H3F11111  -0.742   1.800  10.202
  108OSM    H3G11112  -0.589   1.736  10.208
  108OSM    C4F11113  -0.606   1.928  10.096
  108OSM    H4F11114  -0.496   1.917  10.087
  108OSM    H4G11115  -0.616   2.037  10.112
  108OSM    C5F11116  -0.661   1.888   9.961
  108OSM    H5F11117  -0.771   1.876   9.965
  108OSM    H5G11118  -0.612   1.799   9.916
  108OSM    C6F11119  -0.629   1.996   9.852
  108OSM    H6F11120  -0.522   2.006   9.825
  108OSM    H6G11121  -0.655   2.096   9.892
  108OSM    C7F11122  -0.715   1.964   9.725
  108OSM    H7F11123  -0.819   1.966   9.764
  108OSM    H7G11124  -0.697   1.857   9.701
  108OSM    C8F11125  -0.691   2.046   9.603
  108OSM    H8F11126  -0.732   1.986   9.519
  108OSM    H8G11127  -0.583   2.048   9.577
  108OSM    C9F11128  -0.747   2.181   9.611
  108OSM    H9F11129  -0.733   2.227   9.710
  108OSM   C10F11130  -0.821   2.248   9.518
  108OSM   H10F11131  -0.855   2.350   9.543
  108OSM   C11F11132  -0.848   2.211   9.375
  108OSM   H11F11133  -0.955   2.181   9.369
  108OSM   H11G11134  -0.780   2.133   9.333
  108OSM   C12F11135  -0.837   2.324   9.275
  108OSM   H12F11136  -0.729   2.346   9.264
  108OSM   H12G11137  -0.878   2.420   9.313
  108OSM   C13F11138  -0.901   2.307   9.134
  108OSM   H13F11139  -0.856   2.221   9.080
  108OSM   H13G11140  -0.878   2.393   9.069
  108OSM   C14F11141  -1.052   2.293   9.128
  108OSM   H14F11142  -1.100   2.390   9.103
  108OSM   H14G11143  -1.082   2.258   9.229
  108OSM   C15F11144  -1.114   2.199   9.027
  108OSM   H15F11145  -1.100   2.097   9.069
  108OSM   H15G11146  -1.063   2.202   8.928
  108OSM   C16F11147  -1.260   2.229   9.002
  108OSM   H16F11148  -1.283   2.336   8.984
  108OSM   H16G11149  -1.321   2.203   9.091
  108OSM   C17F11150  -1.319   2.167   8.873
  108OSM   H17F11151  -1.298   2.060   8.895
  108OSM   H17G11152  -1.258   2.208   8.790
  108OSM   C18F11153  -1.472   2.196   8.856
  108OSM   H18F11154  -1.511   2.142   8.767
  108OSM   H18G11155  -1.491   2.304   8.844
  108OSM   H18H11156  -1.542   2.152   8.930
  109OSM      N11157   5.838   0.035  11.048
  109OSM    C1511158   5.748   0.139  10.980
  109OSM   H15A11159   5.770   0.242  11.005
  109OSM   H15B11160   5.644   0.113  10.995
  109OSM   H15C11161   5.758   0.131  10.873
  109OSM    C1411162   5.960   0.007  10.960
  109OSM   H14A11163   5.944  -0.007  10.855
  109OSM   H14B11164   6.035  -0.058  11.004
  109OSM   H14C11165   6.009   0.104  10.960
  109OSM    C1311166   5.882   0.100  11.175
  109OSM   H13A11167   5.945   0.184  11.155
  109OSM   H13B11168   5.949   0.034  11.228
  109OSM   H13C11169   5.796   0.116  11.239
  109OSM    C1211170   5.767  -0.095  11.072
  109OSM   H12A11171   5.824  -0.167  11.127
  109OSM   H12B11172   5.758  -0.138  10.973
  109OSM    C1111173   5.628  -0.087  11.145
  109OSM   H11A11174   5.634  -0.014  11.228
  109OSM   H11B11175   5.604  -0.182  11.197
  109OSM      P11176   5.442  -0.154  10.980
  109OSM    O1311177   5.516  -0.205  10.864
  109OSM    O1411178   5.383  -0.262  11.068
  109OSM    O1111179   5.320  -0.068  10.921
  109OSM    O1211180   5.525  -0.053  11.056
  109OSM    C1S11181   5.333   0.026  10.818
  109OSM    H1S11182   5.430   0.079  10.811
  109OSM    H1T11183   5.260   0.109  10.828
  109OSM     NF11184   5.349   0.061  10.566
  109OSM    HNF11185   5.279   0.102  10.508
  109OSM    C2S11186   5.304  -0.028  10.672
  109OSM    H2S11187   5.380  -0.107  10.652
  109OSM    C3S11188   5.158  -0.079  10.668
  109OSM    H3S11189   5.098   0.010  10.698
  109OSM     O311190   5.136  -0.185  10.758
  109OSM    HO311191   5.222  -0.197  10.798
  109OSM    C4S11192   5.125  -0.112  10.529
  109OSM    H4S11193   5.090  -0.025  10.471
  109OSM    C5S11194   5.143  -0.222  10.462
  109OSM    H5S11195   5.189  -0.309  10.512
  109OSM    C6S11196   5.116  -0.228  10.311
  109OSM    H6S11197   5.078  -0.131  10.272
  109OSM    H6T11198   5.043  -0.305  10.279
  109OSM    C7S11199   5.254  -0.241  10.235
  109OSM    H7S11200   5.308  -0.337  10.250
  109OSM    H7T11201   5.323  -0.162  10.272
  109OSM    C8S11202   5.246  -0.216  10.083
  109OSM    H8S11203   5.214  -0.111  10.066
  109OSM    H8T11204   5.159  -0.269  10.039
  109OSM    C9S11205   5.374  -0.243   9.993
  109OSM    H9S11206   5.406  -0.349  10.003
  109OSM    H9T11207   5.456  -0.179  10.032
  109OSM   C10S11208   5.347  -0.212   9.849
  109OSM   H10S11209   5.333  -0.102   9.839
  109OSM   H10T11210   5.257  -0.264   9.812
  109OSM   C11S11211   5.460  -0.244   9.757
  109OSM   H11S11212   5.480  -0.353   9.769
  109OSM   H11T11213   5.552  -0.189   9.787
  109OSM   C12S11214   5.436  -0.214   9.608
  109OSM   H12S11215   5.418  -0.106   9.589
  109OSM   H12T11216   5.336  -0.257   9.585
  109OSM   C13S11217   5.543  -0.276   9.510
  109OSM   H13S11218   5.546  -0.387   9.524
  109OSM   H13T11219   5.647  -0.244   9.529
  109OSM   C14S11220   5.499  -0.239   9.370
  109OSM   H14S11221   5.485  -0.129   9.365
  109OSM   H14T11222   5.407  -0.297   9.350
  109OSM   C15S11223   5.596  -0.267   9.252
  109OSM   H15S11224   5.633  -0.370   9.268
  109OSM   H15T11225   5.677  -0.191   9.260
  109OSM   C16S11226   5.523  -0.258   9.117
  109OSM   H16S11227   5.482  -0.157   9.100
  109OSM   H16T11228   5.438  -0.329   9.114
  109OSM   C17S11229   5.621  -0.280   9.004
  109OSM   H17S11230   5.664  -0.382   9.017
  109OSM   H17T11231   5.708  -0.211   9.003
  109OSM   C18S11232   5.550  -0.271   8.867
  109OSM   H18S11233   5.606  -0.310   8.778
  109OSM   H18T11234   5.529  -0.167   8.833
  109OSM   H18U11235   5.458  -0.334   8.866
  109OSM    C1F11236   5.480   0.109  10.560
  109OSM     OF11237   5.566   0.081  10.640
  109OSM    C2F11238   5.513   0.193  10.434
  109OSM    H2F11239   5.621   0.219  10.436
  109OSM    H2G11240   5.457   0.288  10.448
  109OSM    C3F11241   5.476   0.132  10.294
  109OSM    H3F11242   5.366   0.118  10.283
  109OSM    H3G11243   5.512   0.027  10.288
  109OSM    C4F11244   5.534   0.215  10.170
  109OSM    H4F11245   5.639   0.235  10.200
  109OSM    H4G11246   5.476   0.310  10.166
  109OSM    C5F11247   5.527   0.138  10.039
  109OSM    H5F11248   5.431   0.116   9.987
  109OSM    H5G11249   5.566   0.035  10.058
  109OSM    C6F11250   5.605   0.200   9.923
  109OSM    H6F11251   5.710   0.207   9.960
  109OSM    H6G11252   5.550   0.292   9.895
  109OSM    C7F11253   5.595   0.100   9.808
  109OSM    H7F11254   5.488   0.071   9.811
  109OSM    H7G11255   5.658   0.017   9.848
  109OSM    C8F11256   5.645   0.148   9.676
  109OSM    H8F11257   5.731   0.210   9.709
  109OSM    H8G11258   5.572   0.229   9.655
  109OSM    C9F11259   5.664   0.051   9.569
  109OSM    H9F11260   5.660  -0.052   9.606
  109OSM   C10F11261   5.675   0.074   9.432
  109OSM   H10F11262   5.694  -0.007   9.360
  109OSM   C11F11263   5.682   0.209   9.370
  109OSM   H11F11264   5.787   0.245   9.369
  109OSM   H11G11265   5.640   0.291   9.432
  109OSM   C12F11266   5.604   0.205   9.240
  109OSM   H12F11267   5.577   0.310   9.214
  109OSM   H12G11268   5.511   0.145   9.237
  109OSM   C13F11269   5.687   0.164   9.115
  109OSM   H13F11270   5.736   0.065   9.124
  109OSM   H13G11271   5.775   0.228   9.093
  109OSM   C14F11272   5.614   0.157   8.981
  109OSM   H14F11273   5.570   0.256   8.959
  109OSM   H14G11274   5.523   0.093   8.990
  109OSM   C15F11275   5.690   0.110   8.857
  109OSM   H15F11276   5.708   0.002   8.871
  109OSM   H15G11277   5.790   0.158   8.857
  109OSM   C16F11278   5.604   0.146   8.734
  109OSM   H16F11279   5.608   0.257   8.730
  109OSM   H16G11280   5.502   0.110   8.761
  109OSM   C17F11281   5.649   0.082   8.598
  109OSM   H17F11282   5.647  -0.029   8.609
  109OSM   H17G11283   5.745   0.123   8.562
  109OSM   C18F11284   5.544   0.096   8.489
  109OSM   H18F11285   5.458   0.028   8.505
  109OSM   H18G11286   5.596   0.070   8.394
  109OSM   H18H11287   5.511   0.201   8.477
  110OSM      N11288   6.028   5.334  11.215
  110OSM    C1511289   5.901   5.374  11.278
  110OSM   H15A11290   5.914   5.342  11.381
  110OSM   H15B11291   5.821   5.330  11.221
  110OSM   H15C11292   5.875   5.478  11.275
  110OSM    C1411293   6.136   5.396  11.294
  110OSM   H14A11294   6.235   5.366  11.264
  110OSM   H14B11295   6.122   5.362  11.396
  110OSM   H14C11296   6.137   5.504  11.289
  110OSM    C1311297   6.041   5.188  11.219
  110OSM   H13A11298   6.072   5.158  11.318
  110OSM   H13B11299   6.112   5.142  11.152
  110OSM   H13C11300   5.947   5.142  11.195
  110OSM    C1211301   6.031   5.399  11.078
  110OSM   H12A11302   6.020   5.506  11.085
  110OSM   H12B11303   5.942   5.369  11.024
  110OSM    C1111304   6.158   5.372  10.991
  110OSM   H11A11305   6.245   5.410  11.048
  110OSM   H11B11306   6.135   5.438  10.905
  110OSM      P11307   6.325   5.169  10.956
  110OSM    O1311308   6.391   5.215  11.081
  110OSM    O1411309   6.301   5.024  10.946
  110OSM    O1111310   6.397   5.227  10.829
  110OSM    O1211311   6.183   5.239  10.947
  110OSM    C1S11312   6.373   5.189  10.696
  110OSM    H1S11313   6.269   5.156  10.676
  110OSM    H1T11314   6.444   5.107  10.672
  110OSM     NF11315   6.359   5.264  10.462
  110OSM    HNF11316   6.417   5.205  10.406
  110OSM    C2S11317   6.402   5.304  10.596
  110OSM    H2S11318   6.338   5.387  10.633
  110OSM    C3S11319   6.553   5.351  10.608
  110OSM    H3S11320   6.627   5.273  10.580
  110OSM     O311321   6.585   5.394  10.736
  110OSM    HO311322   6.516   5.358  10.791
  110OSM    C4S11323   6.586   5.465  10.510
  110OSM    H4S11324   6.537   5.557  10.545
  110OSM    C5S11325   6.679   5.463  10.410
  110OSM    H5S11326   6.739   5.376  10.379
  110OSM    C6S11327   6.709   5.586  10.327
  110OSM    H6S11328   6.739   5.564  10.222
  110OSM    H6T11329   6.805   5.629  10.363
  110OSM    C7S11330   6.602   5.690  10.333
  110OSM    H7S11331   6.621   5.730  10.434
  110OSM    H7T11332   6.496   5.657  10.328
  110OSM    C8S11333   6.630   5.805  10.236
  110OSM    H8S11334   6.617   5.772  10.131
  110OSM    H8T11335   6.733   5.844  10.251
  110OSM    C9S11336   6.530   5.920  10.273
  110OSM    H9S11337   6.509   5.918  10.383
  110OSM    H9T11338   6.438   5.899  10.215
  110OSM   C10S11339   6.573   6.056  10.242
  110OSM   H10S11340   6.671   6.077  10.290
  110OSM   H10T11341   6.504   6.137  10.275
  110OSM   C11S11342   6.587   6.072  10.088
  110OSM   H11S11343   6.495   6.085  10.028
  110OSM   H11T11344   6.616   5.970  10.052
  110OSM   C12S11345   6.687   6.181  10.046
  110OSM   H12S11346   6.790   6.141  10.055
  110OSM   H12T11347   6.681   6.270  10.113
  110OSM   C13S11348   6.661   6.232   9.905
  110OSM   H13S11349   6.552   6.256   9.903
  110OSM   H13T11350   6.677   6.146   9.837
  110OSM   C14S11351   6.755   6.343   9.852
  110OSM   H14S11352   6.699   6.366   9.759
  110OSM   H14T11353   6.848   6.291   9.823
  110OSM   C15S11354   6.778   6.469   9.939
  110OSM   H15S11355   6.831   6.442  10.033
  110OSM   H15T11356   6.673   6.497   9.965
  110OSM   C16S11357   6.849   6.577   9.860
  110OSM   H16S11358   6.803   6.602   9.762
  110OSM   H16T11359   6.948   6.533   9.834
  110OSM   C17S11360   6.875   6.699   9.943
  110OSM   H17S11361   6.946   6.662  10.019
  110OSM   H17T11362   6.778   6.742   9.978
  110OSM   C18S11363   6.951   6.808   9.877
  110OSM   H18S11364   7.057   6.783   9.856
  110OSM   H18T11365   6.954   6.901   9.938
  110OSM   H18U11366   6.893   6.844   9.789
  110OSM    C1F11367   6.229   5.257  10.437
  110OSM     OF11368   6.144   5.304  10.504
  110OSM    C2F11369   6.182   5.180  10.317
  110OSM    H2F11370   6.084   5.139  10.348
  110OSM    H2G11371   6.264   5.110  10.289
  110OSM    C3F11372   6.136   5.279  10.198
  110OSM    H3F11373   6.074   5.362  10.238
  110OSM    H3G11374   6.069   5.233  10.122
  110OSM    C4F11375   6.255   5.353  10.132
  110OSM    H4F11376   6.299   5.418  10.210
  110OSM    H4G11377   6.218   5.411  10.044
  110OSM    C5F11378   6.373   5.271  10.084
  110OSM    H5F11379   6.330   5.186  10.026
  110OSM    H5G11380   6.428   5.217  10.164
  110OSM    C6F11381   6.471   5.358  10.004
  110OSM    H6F11382   6.565   5.299  10.005
  110OSM    H6G11383   6.499   5.457  10.046
  110OSM    C7F11384   6.432   5.361   9.851
  110OSM    H7F11385   6.346   5.428   9.826
  110OSM    H7G11386   6.397   5.257   9.832
  110OSM    C8F11387   6.548   5.416   9.758
  110OSM    H8F11388   6.584   5.503   9.816
  110OSM    H8G11389   6.501   5.456   9.665
  110OSM    C9F11390   6.658   5.320   9.722
  110OSM    H9F11391   6.659   5.224   9.777
  110OSM   C10F11392   6.752   5.335   9.630
  110OSM   H10F11393   6.826   5.257   9.606
  110OSM   C11F11394   6.774   5.455   9.540
  110OSM   H11F11395   6.881   5.485   9.549
  110OSM   H11G11396   6.710   5.539   9.576
  110OSM   C12F11397   6.726   5.421   9.399
  110OSM   H12F11398   6.626   5.374   9.406
  110OSM   H12G11399   6.793   5.349   9.347
  110OSM   C13F11400   6.712   5.552   9.318
  110OSM   H13F11401   6.804   5.611   9.339
  110OSM   H13G11402   6.624   5.610   9.354
  110OSM   C14F11403   6.714   5.524   9.165
  110OSM   H14F11404   6.618   5.473   9.142
  110OSM   H14G11405   6.806   5.463   9.156
  110OSM   C15F11406   6.735   5.650   9.078
  110OSM   H15F11407   6.735   5.617   8.972
  110OSM   H15G11408   6.839   5.684   9.098
  110OSM   C16F11409   6.623   5.755   9.102
  110OSM   H16F11410   6.619   5.767   9.213
  110OSM   H16G11411   6.527   5.710   9.072
  110OSM   C17F11412   6.642   5.876   9.014
  110OSM   H17F11413   6.690   5.846   8.919
  110OSM   H17G11414   6.724   5.934   9.062
  110OSM   C18F11415   6.517   5.958   8.984
  110OSM   H18F11416   6.535   6.055   8.932
  110OSM   H18G11417   6.488   5.986   9.088
  110OSM   H18H11418   6.433   5.896   8.948
  111OSM      N11419   0.465   3.043  10.834
  111OSM    C1511420   0.579   3.107  10.908
  111OSM   H15A11421   0.603   3.208  10.877
  111OSM   H15B11422   0.665   3.042  10.903
  111OSM   H15C11423   0.557   3.121  11.013
  111OSM    C1411424   0.516   3.013  10.699
  111OSM   H14A11425   0.539   3.106  10.650
  111OSM   H14B11426   0.440   2.963  10.642
  111OSM   H14C11427   0.602   2.947  10.702
  111OSM    C1311428   0.430   2.913  10.899
  111OSM   H13A11429   0.373   2.924  10.990
  111OSM   H13B11430   0.513   2.844  10.901
  111OSM   H13C11431   0.354   2.863  10.841
  111OSM    C1211432   0.347   3.136  10.821
  111OSM   H12A11433   0.327   3.178  10.919
  111OSM   H12B11434   0.261   3.083  10.781
  111OSM    C1111435   0.356   3.264  10.732
  111OSM   H11A11436   0.256   3.311  10.722
  111OSM   H11B11437   0.395   3.231  10.633
  111OSM      P11438   0.567   3.429  10.710
  111OSM    O1311439   0.610   3.551  10.780
  111OSM    O1411440   0.669   3.324  10.690
  111OSM    O1111441   0.512   3.466  10.563
  111OSM    O1211442   0.442   3.366  10.789
  111OSM    C1S11443   0.411   3.565  10.540
  111OSM    H1S11444   0.397   3.637  10.623
  111OSM    H1T11445   0.319   3.503  10.529
  111OSM     NF11446   0.372   3.759  10.377
  111OSM    HNF11447   0.283   3.761  10.332
  111OSM    C2S11448   0.440   3.630  10.395
  111OSM    H2S11449   0.550   3.643  10.387
  111OSM    C3S11450   0.403   3.524  10.288
  111OSM    H3S11451   0.292   3.524  10.292
  111OSM     O311452   0.463   3.396  10.315
  111OSM    HO311453   0.491   3.391  10.407
  111OSM    C4S11454   0.461   3.570  10.153
  111OSM    H4S11455   0.566   3.545  10.134
  111OSM    C5S11456   0.386   3.642  10.071
  111OSM    H5S11457   0.285   3.660  10.112
  111OSM    C6S11458   0.428   3.715   9.948
  111OSM    H6S11459   0.539   3.707   9.945
  111OSM    H6T11460   0.401   3.822   9.956
  111OSM    C7S11461   0.367   3.656   9.827
  111OSM    H7S11462   0.257   3.668   9.823
  111OSM    H7T11463   0.389   3.548   9.819
  111OSM    C8S11464   0.415   3.734   9.698
  111OSM    H8S11465   0.521   3.767   9.689
  111OSM    H8T11466   0.363   3.832   9.697
  111OSM    C9S11467   0.386   3.655   9.570
  111OSM    H9S11468   0.280   3.621   9.568
  111OSM    H9T11469   0.449   3.563   9.569
  111OSM   C10S11470   0.429   3.739   9.446
  111OSM   H10S11471   0.524   3.796   9.457
  111OSM   H10T11472   0.351   3.818   9.435
  111OSM   C11S11473   0.429   3.660   9.316
  111OSM   H11S11474   0.320   3.640   9.299
  111OSM   H11T11475   0.478   3.562   9.335
  111OSM   C12S11476   0.470   3.748   9.200
  111OSM   H12S11477   0.574   3.783   9.213
  111OSM   H12T11478   0.398   3.832   9.191
  111OSM   C13S11479   0.483   3.667   9.065
  111OSM   H13S11480   0.388   3.610   9.053
  111OSM   H13T11481   0.566   3.594   9.072
  111OSM   C14S11482   0.497   3.746   8.941
  111OSM   H14S11483   0.567   3.830   8.960
  111OSM   H14T11484   0.400   3.789   8.907
  111OSM   C15S11485   0.566   3.668   8.823
  111OSM   H15S11486   0.663   3.640   8.868
  111OSM   H15T11487   0.585   3.744   8.744
  111OSM   C16S11488   0.495   3.548   8.777
  111OSM   H16S11489   0.384   3.560   8.785
  111OSM   H16T11490   0.520   3.471   8.853
  111OSM   C17S11491   0.520   3.498   8.631
  111OSM   H17S11492   0.625   3.479   8.603
  111OSM   H17T11493   0.470   3.564   8.557
  111OSM   C18S11494   0.476   3.349   8.621
  111OSM   H18S11495   0.531   3.289   8.697
  111OSM   H18T11496   0.505   3.309   8.522
  111OSM   H18U11497   0.366   3.339   8.637
  111OSM    C1F11498   0.421   3.868  10.434
  111OSM     OF11499   0.516   3.858  10.509
  111OSM    C2F11500   0.357   3.998  10.398
  111OSM    H2F11501   0.343   4.055  10.492
  111OSM    H2G11502   0.260   3.996  10.343
  111OSM    C3F11503   0.441   4.088  10.300
  111OSM    H3F11504   0.538   4.112  10.347
  111OSM    H3G11505   0.381   4.182  10.292
  111OSM    C4F11506   0.457   4.027  10.166
  111OSM    H4F11507   0.377   3.965  10.121
  111OSM    H4G11508   0.531   3.946  10.184
  111OSM    C5F11509   0.520   4.123  10.064
  111OSM    H5F11510   0.612   4.163  10.111
  111OSM    H5G11511   0.442   4.201  10.056
  111OSM    C6F11512   0.559   4.075   9.924
  111OSM    H6F11513   0.480   4.007   9.884
  111OSM    H6G11514   0.649   4.011   9.932
  111OSM    C7F11515   0.589   4.190   9.826
  111OSM    H7F11516   0.661   4.257   9.878
  111OSM    H7G11517   0.501   4.258   9.817
  111OSM    C8F11518   0.647   4.134   9.697
  111OSM    H8F11519   0.718   4.051   9.714
  111OSM    H8G11520   0.704   4.224   9.666
  111OSM    C9F11521   0.539   4.093   9.597
  111OSM    H9F11522   0.486   4.002   9.631
  111OSM   C10F11523   0.504   4.147   9.481
  111OSM   H10F11524   0.421   4.107   9.420
  111OSM   C11F11525   0.595   4.251   9.414
  111OSM   H11F11526   0.696   4.267   9.457
  111OSM   H11G11527   0.535   4.343   9.431
  111OSM   C12F11528   0.611   4.237   9.256
  111OSM   H12F11529   0.649   4.336   9.223
  111OSM   H12G11530   0.511   4.202   9.223
  111OSM   C13F11531   0.711   4.120   9.233
  111OSM   H13F11532   0.654   4.026   9.255
  111OSM   H13G11533   0.802   4.139   9.293
  111OSM   C14F11534   0.762   4.109   9.088
  111OSM   H14F11535   0.809   4.011   9.063
  111OSM   H14G11536   0.839   4.188   9.074
  111OSM   C15F11537   0.661   4.122   8.970
  111OSM   H15F11538   0.593   4.201   9.006
  111OSM   H15G11539   0.604   4.027   8.972
  111OSM   C16F11540   0.735   4.150   8.836
  111OSM   H16F11541   0.822   4.216   8.858
  111OSM   H16G11542   0.685   4.223   8.767
  111OSM   C17F11543   0.804   4.030   8.775
  111OSM   H17F11544   0.726   3.957   8.744
  111OSM   H17G11545   0.874   3.988   8.851
  111OSM   C18F11546   0.872   4.068   8.645
  111OSM   H18F11547   0.885   3.979   8.581
  111OSM   H18G11548   0.968   4.116   8.676
  111OSM   H18H11549   0.810   4.147   8.598
  112OSM      N11550   6.409   1.761  11.242
  112OSM    C1511551   6.436   1.754  11.387
  112OSM   H15A11552   6.393   1.668  11.436
  112OSM   H15B11553   6.406   1.841  11.445
  112OSM   H15C11554   6.542   1.751  11.411
  112OSM    C1411555   6.463   1.897  11.204
  112OSM   H14A11556   6.446   1.920  11.100
  112OSM   H14B11557   6.569   1.904  11.220
  112OSM   H14C11558   6.417   1.976  11.261
  112OSM    C1311559   6.490   1.661  11.168
  112OSM   H13A11560   6.454   1.563  11.197
  112OSM   H13B11561   6.596   1.672  11.184
  112OSM   H13C11562   6.475   1.668  11.061
  112OSM    C1211563   6.258   1.758  11.222
  112OSM   H12A11564   6.216   1.850  11.260
  112OSM   H12B11565   6.219   1.681  11.287
  112OSM    C1111566   6.215   1.755  11.074
  112OSM   H11A11567   6.105   1.746  11.061
  112OSM   H11B11568   6.249   1.660  11.029
  112OSM      P11569   6.261   1.855  10.843
  112OSM    O1311570   6.118   1.866  10.793
  112OSM    O1411571   6.352   1.964  10.798
  112OSM    O1111572   6.338   1.723  10.813
  112OSM    O1211573   6.254   1.872  11.000
  112OSM    C1S11574   6.273   1.619  10.738
  112OSM    H1S11575   6.210   1.664  10.659
  112OSM    H1T11576   6.208   1.551  10.797
  112OSM     NF11577   6.325   1.445  10.568
  112OSM    HNF11578   6.297   1.354  10.599
  112OSM    C2S11579   6.382   1.532  10.677
  112OSM    H2S11580   6.452   1.603  10.628
  112OSM    C3S11581   6.470   1.459  10.783
  112OSM    H3S11582   6.405   1.381  10.828
  112OSM     O311583   6.531   1.544  10.880
  112OSM    HO311584   6.498   1.632  10.862
  112OSM    C4S11585   6.571   1.388  10.706
  112OSM    H4S11586   6.649   1.450  10.659
  112OSM    C5S11587   6.576   1.254  10.682
  112OSM    H5S11588   6.496   1.190  10.720
  112OSM    C6S11589   6.695   1.196  10.616
  112OSM    H6S11590   6.668   1.097  10.573
  112OSM    H6T11591   6.769   1.163  10.692
  112OSM    C7S11592   6.753   1.278  10.493
  112OSM    H7S11593   6.837   1.219  10.450
  112OSM    H7T11594   6.794   1.376  10.526
  112OSM    C8S11595   6.663   1.303  10.373
  112OSM    H8S11596   6.722   1.345  10.288
  112OSM    H8T11597   6.596   1.389  10.394
  112OSM    C9S11598   6.576   1.184  10.329
  112OSM    H9S11599   6.519   1.151  10.419
  112OSM    H9T11600   6.640   1.100  10.295
  112OSM   C10S11601   6.472   1.216  10.222
  112OSM   H10S11602   6.405   1.301  10.247
  112OSM   H10T11603   6.396   1.134  10.227
  112OSM   C11S11604   6.544   1.225  10.088
  112OSM   H11S11605   6.616   1.141  10.081
  112OSM   H11T11606   6.593   1.325  10.085
  112OSM   C12S11607   6.443   1.203   9.970
  112OSM   H12S11608   6.363   1.280   9.967
  112OSM   H12T11609   6.377   1.117   9.991
  112OSM   C13S11610   6.511   1.171   9.831
  112OSM   H13S11611   6.577   1.082   9.847
  112OSM   H13T11612   6.568   1.265   9.811
  112OSM   C14S11613   6.412   1.137   9.713
  112OSM   H14S11614   6.357   1.233   9.709
  112OSM   H14T11615   6.337   1.062   9.745
  112OSM   C15S11616   6.475   1.116   9.575
  112OSM   H15S11617   6.549   1.035   9.593
  112OSM   H15T11618   6.534   1.206   9.548
  112OSM   C16S11619   6.384   1.064   9.464
  112OSM   H16S11620   6.300   1.136   9.450
  112OSM   H16T11621   6.335   0.969   9.496
  112OSM   C17S11622   6.459   1.057   9.335
  112OSM   H17S11623   6.566   1.031   9.351
  112OSM   H17T11624   6.449   1.163   9.303
  112OSM   C18S11625   6.396   0.966   9.227
  112OSM   H18S11626   6.394   0.863   9.268
  112OSM   H18T11627   6.450   0.960   9.129
  112OSM   H18U11628   6.291   0.994   9.206
  112OSM    C1F11629   6.268   1.487  10.452
  112OSM     OF11630   6.311   1.592  10.409
  112OSM    C2F11631   6.169   1.399  10.375
  112OSM    H2F11632   6.072   1.402  10.430
  112OSM    H2G11633   6.202   1.293  10.369
  112OSM    C3F11634   6.138   1.459  10.228
  112OSM    H3F11635   6.238   1.484  10.186
  112OSM    H3G11636   6.084   1.553  10.248
  112OSM    C4F11637   6.069   1.357  10.138
  112OSM    H4F11638   5.975   1.338  10.193
  112OSM    H4G11639   6.118   1.259  10.155
  112OSM    C5F11640   6.046   1.401   9.997
  112OSM    H5F11641   6.142   1.394   9.942
  112OSM    H5G11642   6.012   1.507   9.997
  112OSM    C6F11643   5.955   1.305   9.927
  112OSM    H6F11644   5.860   1.292   9.984
  112OSM    H6G11645   5.990   1.200   9.933
  112OSM    C7F11646   5.940   1.342   9.780
  112OSM    H7F11647   5.892   1.262   9.719
  112OSM    H7G11648   6.042   1.334   9.737
  112OSM    C8F11649   5.889   1.480   9.748
  112OSM    H8F11650   5.967   1.550   9.785
  112OSM    H8G11651   5.794   1.496   9.802
  112OSM    C9F11652   5.874   1.499   9.598
  112OSM    H9F11653   5.773   1.505   9.555
  112OSM   C10F11654   5.979   1.509   9.516
  112OSM   H10F11655   5.948   1.537   9.414
  112OSM   C11F11656   6.131   1.511   9.540
  112OSM   H11F11657   6.162   1.500   9.646
  112OSM   H11G11658   6.169   1.605   9.495
  112OSM   C12F11659   6.189   1.397   9.459
  112OSM   H12F11660   6.149   1.304   9.504
  112OSM   H12G11661   6.300   1.408   9.461
  112OSM   C13F11662   6.157   1.397   9.311
  112OSM   H13F11663   6.049   1.370   9.307
  112OSM   H13G11664   6.215   1.326   9.247
  112OSM   C14F11665   6.163   1.525   9.234
  112OSM   H14F11666   6.258   1.577   9.258
  112OSM   H14G11667   6.074   1.590   9.253
  112OSM   C15F11668   6.155   1.505   9.077
  112OSM   H15F11669   6.061   1.468   9.033
  112OSM   H15G11670   6.218   1.414   9.065
  112OSM   C16F11671   6.211   1.618   8.989
  112OSM   H16F11672   6.308   1.643   9.036
  112OSM   H16G11673   6.138   1.701   8.979
  112OSM   C17F11674   6.261   1.573   8.855
  112OSM   H17F11675   6.307   1.666   8.814
  112OSM   H17G11676   6.170   1.544   8.797
  112OSM   C18F11677   6.374   1.468   8.840
  112OSM   H18F11678   6.343   1.369   8.877
  112OSM   H18G11679   6.463   1.506   8.895
  112OSM   H18H11680   6.401   1.451   8.733
  113OSM      N11681   0.229   0.438  11.131
  113OSM    C1511682   0.335   0.341  11.076
  113OSM   H15A11683   0.368   0.371  10.978
  113OSM   H15B11684   0.293   0.242  11.072
  113OSM   H15C11685   0.423   0.335  11.138
  113OSM    C1411686   0.176   0.387  11.258
  113OSM   H14A11687   0.118   0.295  11.259
  113OSM   H14B11688   0.118   0.459  11.313
  113OSM   H14C11689   0.261   0.363  11.320
  113OSM    C1311690   0.299   0.567  11.161
  113OSM   H13A11691   0.225   0.643  11.183
  113OSM   H13B11692   0.365   0.592  11.079
  113OSM   H13C11693   0.351   0.558  11.255
  113OSM    C1211694   0.113   0.449  11.030
  113OSM   H12A11695   0.055   0.532  11.068
  113OSM   H12B11696   0.047   0.364  11.042
  113OSM    C1111697   0.136   0.465  10.875
  113OSM   H11A11698   0.046   0.472  10.809
  113OSM   H11B11699   0.175   0.364  10.849
  113OSM      P11700   0.217   0.708  10.866
  113OSM    O1311701   0.097   0.732  10.949
  113OSM    O1411702   0.349   0.777  10.897
  113OSM    O1111703   0.169   0.756  10.719
  113OSM    O1211704   0.245   0.556  10.849
  113OSM    C1S11705   0.235   0.684  10.612
  113OSM    H1S11706   0.188   0.585  10.592
  113OSM    H1T11707   0.343   0.662  10.628
  113OSM     NF11708   0.268   0.675  10.369
  113OSM    HNF11709   0.366   0.690  10.359
  113OSM    C2S11710   0.208   0.747  10.480
  113OSM    H2S11711   0.098   0.751  10.465
  113OSM    C3S11712   0.240   0.894  10.485
  113OSM    H3S11713   0.348   0.915  10.497
  113OSM     O311714   0.163   0.970  10.571
  113OSM    HO311715   0.128   0.909  10.637
  113OSM    C4S11716   0.218   0.954  10.352
  113OSM    H4S11717   0.111   0.964  10.328
  113OSM    C5S11718   0.305   0.984  10.251
  113OSM    H5S11719   0.414   0.970  10.265
  113OSM    C6S11720   0.261   1.038  10.116
  113OSM    H6S11721   0.313   1.131  10.083
  113OSM    H6T11722   0.155   1.066  10.135
  113OSM    C7S11723   0.277   0.943  10.001
  113OSM    H7S11724   0.245   0.841  10.031
  113OSM    H7T11725   0.387   0.947   9.986
  113OSM    C8S11726   0.202   0.992   9.875
  113OSM    H8S11727   0.211   1.103   9.867
  113OSM    H8T11728   0.095   0.966   9.886
  113OSM    C9S11729   0.276   0.935   9.754
  113OSM    H9S11730   0.277   0.824   9.748
  113OSM    H9T11731   0.386   0.955   9.754
  113OSM   C10S11732   0.231   1.002   9.623
  113OSM   H10S11733   0.308   0.974   9.549
  113OSM   H10T11734   0.238   1.113   9.630
  113OSM   C11S11735   0.091   0.961   9.575
  113OSM   H11S11736   0.012   0.987   9.649
  113OSM   H11T11737   0.083   0.851   9.561
  113OSM   C12S11738   0.051   1.030   9.445
  113OSM   H12S11739   0.075   1.138   9.441
  113OSM   H12T11740  -0.059   1.021   9.432
  113OSM   C13S11741   0.113   0.959   9.323
  113OSM   H13S11742   0.057   0.868   9.292
  113OSM   H13T11743   0.218   0.938   9.351
  113OSM   C14S11744   0.104   1.054   9.195
  113OSM   H14S11745   0.164   0.997   9.120
  113OSM   H14T11746   0.159   1.150   9.213
  113OSM   C15S11747  -0.039   1.084   9.145
  113OSM   H15S11748  -0.091   1.150   9.217
  113OSM   H15T11749  -0.099   0.991   9.138
  113OSM   C16S11750  -0.041   1.135   9.000
  113OSM   H16S11751   0.065   1.126   8.967
  113OSM   H16T11752  -0.074   1.241   9.002
  113OSM   C17S11753  -0.114   1.045   8.908
  113OSM   H17S11754  -0.220   1.067   8.932
  113OSM   H17T11755  -0.107   0.935   8.918
  113OSM   C18S11756  -0.077   1.068   8.758
  113OSM   H18S11757  -0.068   1.177   8.738
  113OSM   H18T11758  -0.158   1.017   8.702
  113OSM   H18U11759   0.017   1.017   8.729
  113OSM    C1F11760   0.224   0.565  10.309
  113OSM     OF11761   0.128   0.502  10.343
  113OSM    C2F11762   0.310   0.514  10.196
  113OSM    H2F11763   0.247   0.488  10.109
  113OSM    H2G11764   0.360   0.422  10.232
  113OSM    C3F11765   0.424   0.608  10.158
  113OSM    H3F11766   0.499   0.621  10.239
  113OSM    H3G11767   0.386   0.711  10.141
  113OSM    C4F11768   0.495   0.569  10.031
  113OSM    H4F11769   0.546   0.663  10.001
  113OSM    H4G11770   0.422   0.554   9.949
  113OSM    C5F11771   0.592   0.454  10.023
  113OSM    H5F11772   0.659   0.460  10.112
  113OSM    H5G11773   0.658   0.459   9.934
  113OSM    C6F11774   0.534   0.310  10.020
  113OSM    H6F11775   0.492   0.291  10.121
  113OSM    H6G11776   0.619   0.239  10.024
  113OSM    C7F11777   0.432   0.283   9.910
  113OSM    H7F11778   0.358   0.364   9.928
  113OSM    H7G11779   0.385   0.183   9.924
  113OSM    C8F11780   0.481   0.293   9.770
  113OSM    H8F11781   0.525   0.394   9.773
  113OSM    H8G11782   0.391   0.295   9.704
  113OSM    C9F11783   0.585   0.190   9.736
  113OSM    H9F11784   0.692   0.212   9.751
  113OSM   C10F11785   0.551   0.077   9.672
  113OSM   H10F11786   0.631   0.010   9.639
  113OSM   C11F11787   0.414   0.027   9.645
  113OSM   H11F11788   0.343   0.085   9.708
  113OSM   H11G11789   0.415  -0.075   9.688
  113OSM   C12F11790   0.360   0.020   9.499
  113OSM   H12F11791   0.429  -0.045   9.440
  113OSM   H12G11792   0.375   0.120   9.455
  113OSM   C13F11793   0.214  -0.018   9.489
  113OSM   H13F11794   0.178  -0.014   9.384
  113OSM   H13G11795   0.154   0.044   9.559
  113OSM   C14F11796   0.189  -0.164   9.530
  113OSM   H14F11797   0.085  -0.173   9.567
  113OSM   H14G11798   0.254  -0.179   9.619
  113OSM   C15F11799   0.226  -0.252   9.406
  113OSM   H15F11800   0.324  -0.221   9.365
  113OSM   H15G11801   0.155  -0.232   9.323
  113OSM   C16F11802   0.215  -0.407   9.426
  113OSM   H16F11803   0.124  -0.455   9.467
  113OSM   H16G11804   0.301  -0.439   9.489
  113OSM   C17F11805   0.223  -0.489   9.293
  113OSM   H17F11806   0.245  -0.594   9.322
  113OSM   H17G11807   0.310  -0.457   9.232
  113OSM   C18F11808   0.096  -0.478   9.210
  113OSM   H18F11809   0.090  -0.371   9.179
  113OSM   H18G11810   0.012  -0.515   9.272
  113OSM   H18H11811   0.100  -0.534   9.114
  114OSM      N11812   0.939   6.393  11.747
  114OSM    C1511813   0.862   6.304  11.845
  114OSM   H15A11814   0.866   6.337  11.947
  114OSM   H15B11815   0.908   6.207  11.843
  114OSM   H15C11816   0.758   6.311  11.815
  114OSM    C1411817   0.923   6.533  11.792
  114OSM   H14A11818   0.822   6.568  11.781
  114OSM   H14B11819   0.978   6.595  11.723
  114OSM   H14C11820   0.959   6.561  11.890
  114OSM    C1311821   1.084   6.356  11.768
  114OSM   H13A11822   1.112   6.382  11.869
  114OSM   H13B11823   1.130   6.422  11.696
  114OSM   H13C11824   1.105   6.251  11.751
  114OSM    C1211825   0.890   6.372  11.609
  114OSM   H12A11826   0.908   6.271  11.577
  114OSM   H12B11827   0.949   6.432  11.541
  114OSM    C1111828   0.749   6.420  11.557
  114OSM   H11A11829   0.740   6.418  11.446
  114OSM   H11B11830   0.733   6.525  11.588
  114OSM      P11831   0.495   6.354  11.573
  114OSM    O1311832   0.415   6.312  11.689
  114OSM    O1411833   0.469   6.490  11.526
  114OSM    O1111834   0.464   6.260  11.452
  114OSM    O1211835   0.653   6.325  11.604
  114OSM    C1S11836   0.532   6.265  11.320
  114OSM    H1S11837   0.630   6.213  11.313
  114OSM    H1T11838   0.545   6.372  11.291
  114OSM     NF11839   0.521   6.210  11.081
  114OSM    HNF11840   0.496   6.287  11.022
  114OSM    C2S11841   0.446   6.204  11.210
  114OSM    H2S11842   0.428   6.096  11.228
  114OSM    C3S11843   0.303   6.272  11.202
  114OSM    H3S11844   0.330   6.378  11.182
  114OSM     O311845   0.225   6.268  11.327
  114OSM    HO311846   0.294   6.263  11.394
  114OSM    C4S11847   0.222   6.216  11.083
  114OSM    H4S11848   0.218   6.107  11.078
  114OSM    C5S11849   0.184   6.294  10.980
  114OSM    H5S11850   0.196   6.402  10.962
  114OSM    C6S11851   0.110   6.242  10.858
  114OSM    H6S11852   0.022   6.308  10.838
  114OSM    H6T11853   0.086   6.134  10.866
  114OSM    C7S11854   0.200   6.257  10.737
  114OSM    H7S11855   0.242   6.359  10.728
  114OSM    H7T11856   0.129   6.227  10.657
  114OSM    C8S11857   0.313   6.149  10.736
  114OSM    H8S11858   0.266   6.049  10.752
  114OSM    H8T11859   0.386   6.164  10.819
  114OSM    C9S11860   0.387   6.144  10.599
  114OSM    H9S11861   0.309   6.138  10.520
  114OSM    H9T11862   0.457   6.058  10.607
  114OSM   C10S11863   0.479   6.261  10.581
  114OSM   H10S11864   0.534   6.270  10.677
  114OSM   H10T11865   0.423   6.353  10.556
  114OSM   C11S11866   0.593   6.235  10.477
  114OSM   H11S11867   0.555   6.197  10.380
  114OSM   H11T11868   0.664   6.160  10.519
  114OSM   C12S11869   0.675   6.359  10.449
  114OSM   H12S11870   0.735   6.393  10.536
  114OSM   H12T11871   0.613   6.446  10.419
  114OSM   C13S11872   0.781   6.324  10.337
  114OSM   H13S11873   0.830   6.417  10.300
  114OSM   H13T11874   0.734   6.269  10.253
  114OSM   C14S11875   0.898   6.235  10.379
  114OSM   H14S11876   0.860   6.139  10.421
  114OSM   H14T11877   0.958   6.277  10.463
  114OSM   C15S11878   1.002   6.201  10.266
  114OSM   H15S11879   1.011   6.283  10.192
  114OSM   H15T11880   0.963   6.128  10.192
  114OSM   C16S11881   1.144   6.176  10.316
  114OSM   H16S11882   1.153   6.189  10.426
  114OSM   H16T11883   1.208   6.256  10.273
  114OSM   C17S11884   1.197   6.046  10.271
  114OSM   H17S11885   1.299   6.042  10.314
  114OSM   H17T11886   1.195   6.034  10.161
  114OSM   C18S11887   1.123   5.927  10.336
  114OSM   H18S11888   1.135   5.942  10.445
  114OSM   H18T11889   1.170   5.832  10.305
  114OSM   H18U11890   1.018   5.923  10.299
  114OSM    C1F11891   0.630   6.140  11.055
  114OSM     OF11892   0.648   6.027  11.109
  114OSM    C2F11893   0.723   6.211  10.965
  114OSM    H2F11894   0.796   6.264  11.030
  114OSM    H2G11895   0.664   6.283  10.905
  114OSM    C3F11896   0.794   6.117  10.875
  114OSM    H3F11897   0.717   6.064  10.814
  114OSM    H3G11898   0.838   6.030  10.929
  114OSM    C4F11899   0.899   6.177  10.781
  114OSM    H4F11900   0.862   6.252  10.709
  114OSM    H4G11901   0.931   6.090  10.719
  114OSM    C5F11902   1.020   6.226  10.862
  114OSM    H5F11903   1.045   6.137  10.924
  114OSM    H5G11904   0.984   6.310  10.925
  114OSM    C6F11905   1.136   6.262  10.773
  114OSM    H6F11906   1.103   6.334  10.695
  114OSM    H6G11907   1.167   6.174  10.713
  114OSM    C7F11908   1.260   6.320  10.848
  114OSM    H7F11909   1.292   6.254  10.931
  114OSM    H7G11910   1.234   6.414  10.900
  114OSM    C8F11911   1.372   6.341  10.748
  114OSM    H8F11912   1.460   6.390  10.795
  114OSM    H8G11913   1.329   6.412  10.675
  114OSM    C9F11914   1.424   6.214  10.694
  114OSM    H9F11915   1.440   6.138  10.771
  114OSM   C10F11916   1.464   6.187  10.564
  114OSM   H10F11917   1.502   6.085  10.552
  114OSM   C11F11918   1.439   6.279  10.445
  114OSM   H11F11919   1.340   6.329  10.446
  114OSM   H11G11920   1.442   6.221  10.350
  114OSM   C12F11921   1.556   6.381  10.439
  114OSM   H12F11922   1.658   6.337  10.437
  114OSM   H12G11923   1.555   6.447  10.529
  114OSM   C13F11924   1.545   6.470  10.318
  114OSM   H13F11925   1.621   6.551  10.319
  114OSM   H13G11926   1.447   6.523  10.321
  114OSM   C14F11927   1.582   6.404  10.185
  114OSM   H14F11928   1.511   6.321  10.169
  114OSM   H14G11929   1.683   6.358  10.183
  114OSM   C15F11930   1.573   6.495  10.070
  114OSM   H15F11931   1.614   6.595  10.094
  114OSM   H15G11932   1.470   6.515  10.034
  114OSM   C16F11933   1.669   6.445   9.949
  114OSM   H16F11934   1.647   6.336   9.939
  114OSM   H16G11935   1.772   6.446   9.991
  114OSM   C17F11936   1.664   6.525   9.821
  114OSM   H17F11937   1.692   6.630   9.844
  114OSM   H17G11938   1.560   6.530   9.784
  114OSM   C18F11939   1.750   6.469   9.711
  114OSM   H18F11940   1.740   6.359   9.709
  114OSM   H18G11941   1.857   6.495   9.727
  114OSM   H18H11942   1.715   6.513   9.615
  115OSM      N11943   2.641   3.203   5.759
  115OSM    C1511944   2.504   3.160   5.719
  115OSM   H15A11945   2.445   3.242   5.680
  115OSM   H15B11946   2.459   3.109   5.802
  115OSM   H15C11947   2.518   3.081   5.647
  115OSM    C1411948   2.728   3.086   5.765
  115OSM   H14A11949   2.690   3.015   5.837
  115OSM   H14B11950   2.828   3.119   5.792
  115OSM   H14C11951   2.733   3.029   5.674
  115OSM    C1311952   2.684   3.291   5.651
  115OSM   H13A11953   2.651   3.393   5.664
  115OSM   H13B11954   2.650   3.254   5.556
  115OSM   H13C11955   2.792   3.294   5.637
  115OSM    C1211956   2.624   3.280   5.890
  115OSM   H12A11957   2.542   3.351   5.889
  115OSM   H12B11958   2.714   3.337   5.912
  115OSM    C1111959   2.612   3.193   6.016
  115OSM   H11A11960   2.704   3.130   6.013
  115OSM   H11B11961   2.524   3.125   6.007
  115OSM      P11962   2.465   3.296   6.208
  115OSM    O1311963   2.460   3.431   6.273
  115OSM    O1411964   2.347   3.261   6.123
  115OSM    O1111965   2.473   3.178   6.312
  115OSM    O1211966   2.597   3.290   6.125
  115OSM    C1S11967   2.598   3.155   6.376
  115OSM    H1S11968   2.689   3.185   6.319
  115OSM    H1T11969   2.617   3.046   6.380
  115OSM     NF11970   2.723   3.131   6.586
  115OSM    HNF11971   2.710   3.057   6.651
  115OSM    C2S11972   2.599   3.192   6.530
  115OSM    H2S11973   2.604   3.302   6.545
  115OSM    C3S11974   2.477   3.145   6.609
  115OSM    H3S11975   2.480   3.038   6.637
  115OSM     O311976   2.355   3.149   6.536
  115OSM    HO311977   2.387   3.155   6.445
  115OSM    C4S11978   2.464   3.221   6.737
  115OSM    H4S11979   2.523   3.184   6.822
  115OSM    C5S11980   2.393   3.331   6.764
  115OSM    H5S11981   2.338   3.390   6.689
  115OSM    C6S11982   2.381   3.408   6.886
  115OSM    H6S11983   2.423   3.507   6.860
  115OSM    H6T11984   2.443   3.377   6.974
  115OSM    C7S11985   2.239   3.423   6.931
  115OSM    H7S11986   2.209   3.317   6.946
  115OSM    H7T11987   2.176   3.476   6.857
  115OSM    C8S11988   2.228   3.494   7.068
  115OSM    H8S11989   2.121   3.480   7.095
  115OSM    H8T11990   2.245   3.604   7.061
  115OSM    C9S11991   2.316   3.442   7.187
  115OSM    H9S11992   2.424   3.463   7.174
  115OSM    H9T11993   2.308   3.331   7.188
  115OSM   C10S11994   2.262   3.486   7.325
  115OSM   H10S11995   2.151   3.477   7.322
  115OSM   H10T11996   2.284   3.595   7.332
  115OSM   C11S11997   2.327   3.421   7.451
  115OSM   H11S11998   2.438   3.422   7.442
  115OSM   H11T11999   2.303   3.313   7.453
  115OSM   C12S12000   2.297   3.495   7.572
  115OSM   H12S12001   2.190   3.525   7.576
  115OSM   H12T12002   2.364   3.584   7.574
  115OSM   C13S12003   2.332   3.409   7.697
  115OSM   H13S12004   2.431   3.360   7.692
  115OSM   H13T12005   2.251   3.334   7.710
  115OSM   C14S12006   2.339   3.495   7.818
  115OSM   H14S12007   2.250   3.559   7.837
  115OSM   H14T12008   2.421   3.568   7.806
  115OSM   C15S12009   2.384   3.435   7.955
  115OSM   H15S12010   2.405   3.528   8.012
  115OSM   H15T12011   2.475   3.375   7.934
  115OSM   C16S12012   2.289   3.342   8.025
  115OSM   H16S12013   2.292   3.249   7.965
  115OSM   H16T12014   2.188   3.385   8.016
  115OSM   C17S12015   2.334   3.298   8.166
  115OSM   H17S12016   2.369   3.387   8.223
  115OSM   H17T12017   2.426   3.237   8.154
  115OSM   C18S12018   2.230   3.215   8.242
  115OSM   H18S12019   2.251   3.174   8.343
  115OSM   H18T12020   2.208   3.122   8.185
  115OSM   H18U12021   2.128   3.258   8.248
  115OSM    C1F12022   2.850   3.157   6.554
  115OSM     OF12023   2.877   3.244   6.473
  115OSM    C2F12024   2.949   3.077   6.634
  115OSM    H2F12025   3.014   3.035   6.554
  115OSM    H2G12026   2.900   2.996   6.693
  115OSM    C3F12027   3.030   3.171   6.723
  115OSM    H3F12028   3.077   3.246   6.656
  115OSM    H3G12029   3.097   3.095   6.771
  115OSM    C4F12030   2.952   3.244   6.833
  115OSM    H4F12031   2.888   3.321   6.785
  115OSM    H4G12032   3.028   3.302   6.890
  115OSM    C5F12033   2.874   3.159   6.935
  115OSM    H5F12034   2.950   3.101   6.991
  115OSM    H5G12035   2.793   3.107   6.880
  115OSM    C6F12036   2.803   3.253   7.036
  115OSM    H6F12037   2.720   3.313   6.992
  115OSM    H6G12038   2.876   3.325   7.079
  115OSM    C7F12039   2.755   3.170   7.152
  115OSM    H7F12040   2.838   3.104   7.186
  115OSM    H7G12041   2.668   3.108   7.122
  115OSM    C8F12042   2.697   3.254   7.261
  115OSM    H8F12043   2.617   3.319   7.220
  115OSM    H8G12044   2.785   3.310   7.299
  115OSM    C9F12045   2.651   3.178   7.379
  115OSM    H9F12046   2.579   3.097   7.362
  115OSM   C10F12047   2.698   3.181   7.506
  115OSM   H10F12048   2.654   3.101   7.568
  115OSM   C11F12049   2.792   3.288   7.562
  115OSM   H11F12050   2.789   3.377   7.496
  115OSM   H11G12051   2.895   3.248   7.557
  115OSM   C12F12052   2.771   3.324   7.707
  115OSM   H12F12053   2.673   3.372   7.728
  115OSM   H12G12054   2.843   3.406   7.727
  115OSM   C13F12055   2.798   3.195   7.791
  115OSM   H13F12056   2.889   3.142   7.755
  115OSM   H13G12057   2.711   3.127   7.778
  115OSM   C14F12058   2.811   3.226   7.941
  115OSM   H14F12059   2.713   3.264   7.980
  115OSM   H14G12060   2.890   3.304   7.946
  115OSM   C15F12061   2.874   3.098   8.015
  115OSM   H15F12062   2.970   3.061   7.975
  115OSM   H15G12063   2.799   3.016   8.004
  115OSM   C16F12064   2.892   3.119   8.162
  115OSM   H16F12065   2.801   3.142   8.221
  115OSM   H16G12066   2.977   3.190   8.174
  115OSM   C17F12067   2.941   2.987   8.231
  115OSM   H17F12068   3.018   2.932   8.174
  115OSM   H17G12069   2.843   2.935   8.226
  115OSM   C18F12070   2.997   3.005   8.375
  115OSM   H18F12071   2.918   3.061   8.429
  115OSM   H18G12072   3.088   3.069   8.387
  115OSM   H18H12073   3.022   2.909   8.426
  116OSM      N12074   1.884   1.063   6.025
  116OSM    C1512075   1.816   1.061   5.895
  116OSM   H15A12076   1.711   1.078   5.914
  116OSM   H15B12077   1.823   0.969   5.840
  116OSM   H15C12078   1.850   1.149   5.842
  116OSM    C1412079   2.025   1.031   6.001
  116OSM   H14A12080   2.064   1.088   5.918
  116OSM   H14B12081   2.016   0.927   5.972
  116OSM   H14C12082   2.095   1.032   6.083
  116OSM    C1312083   1.890   1.202   6.082
  116OSM   H13A12084   1.913   1.271   6.002
  116OSM   H13B12085   1.959   1.215   6.164
  116OSM   H13C12086   1.795   1.238   6.118
  116OSM    C1212087   1.823   0.963   6.125
  116OSM   H12A12088   1.722   1.000   6.142
  116OSM   H12B12089   1.875   0.966   6.220
  116OSM    C1112090   1.813   0.813   6.077
  116OSM   H11A12091   1.751   0.798   5.986
  116OSM   H11B12092   1.751   0.772   6.159
  116OSM      P12093   2.027   0.682   6.166
  116OSM    O1312094   2.015   0.533   6.154
  116OSM    O1412095   2.159   0.739   6.152
  116OSM    O1112096   1.961   0.744   6.300
  116OSM    O1212097   1.941   0.753   6.051
  116OSM    C1S12098   1.949   0.657   6.414
  116OSM    H1S12099   2.042   0.598   6.432
  116OSM    H1T12100   1.873   0.579   6.392
  116OSM     NF12101   1.947   0.648   6.661
  116OSM    HNF12102   1.873   0.607   6.714
  116OSM    C2S12103   1.904   0.727   6.544
  116OSM    H2S12104   1.950   0.828   6.549
  116OSM    C3S12105   1.750   0.762   6.538
  116OSM    H3S12106   1.696   0.665   6.539
  116OSM     O312107   1.712   0.823   6.417
  116OSM    HO312108   1.790   0.828   6.362
  116OSM    C4S12109   1.703   0.842   6.655
  116OSM    H4S12110   1.766   0.927   6.687
  116OSM    C5S12111   1.590   0.828   6.722
  116OSM    H5S12112   1.522   0.745   6.697
  116OSM    C6S12113   1.540   0.923   6.827
  116OSM    H6S12114   1.432   0.937   6.808
  116OSM    H6T12115   1.592   1.021   6.821
  116OSM    C7S12116   1.551   0.856   6.964
  116OSM    H7S12117   1.645   0.802   6.989
  116OSM    H7T12118   1.477   0.772   6.965
  116OSM    C8S12119   1.504   0.938   7.078
  116OSM    H8S12120   1.403   0.974   7.051
  116OSM    H8T12121   1.580   1.019   7.087
  116OSM    C9S12122   1.504   0.853   7.210
  116OSM    H9S12123   1.609   0.851   7.248
  116OSM    H9T12124   1.459   0.752   7.200
  116OSM   C10S12125   1.410   0.924   7.318
  116OSM   H10S12126   1.309   0.884   7.295
  116OSM   H10T12127   1.427   1.033   7.301
  116OSM   C11S12128   1.441   0.876   7.451
  116OSM   H11S12129   1.547   0.899   7.473
  116OSM   H11T12130   1.433   0.765   7.450
  116OSM   C12S12131   1.336   0.926   7.555
  116OSM   H12S12132   1.228   0.917   7.531
  116OSM   H12T12133   1.344   1.037   7.559
  116OSM   C13S12134   1.349   0.858   7.688
  116OSM   H13S12135   1.453   0.857   7.725
  116OSM   H13T12136   1.327   0.749   7.680
  116OSM   C14S12137   1.261   0.917   7.795
  116OSM   H14S12138   1.162   0.866   7.782
  116OSM   H14T12139   1.244   1.025   7.778
  116OSM   C15S12140   1.318   0.896   7.931
  116OSM   H15S12141   1.418   0.946   7.936
  116OSM   H15T12142   1.332   0.789   7.958
  116OSM   C16S12143   1.216   0.948   8.030
  116OSM   H16S12144   1.114   0.926   7.990
  116OSM   H16T12145   1.220   1.059   8.036
  116OSM   C17S12146   1.217   0.886   8.169
  116OSM   H17S12147   1.197   0.777   8.181
  116OSM   H17T12148   1.134   0.931   8.227
  116OSM   C18S12149   1.349   0.902   8.245
  116OSM   H18S12150   1.350   0.858   8.347
  116OSM   H18T12151   1.360   1.012   8.258
  116OSM   H18U12152   1.436   0.858   8.193
  116OSM    C1F12153   2.074   0.627   6.681
  116OSM     OF12154   2.154   0.680   6.609
  116OSM    C2F12155   2.110   0.538   6.795
  116OSM    H2F12156   2.186   0.465   6.757
  116OSM    H2G12157   2.015   0.493   6.831
  116OSM    C3F12158   2.187   0.619   6.900
  116OSM    H3F12159   2.125   0.703   6.940
  116OSM    H3G12160   2.284   0.660   6.867
  116OSM    C4F12161   2.233   0.534   7.025
  116OSM    H4F12162   2.329   0.487   6.995
  116OSM    H4G12163   2.165   0.449   7.045
  116OSM    C5F12164   2.234   0.616   7.153
  116OSM    H5F12165   2.180   0.713   7.148
  116OSM    H5G12166   2.337   0.646   7.179
  116OSM    C6F12167   2.195   0.531   7.284
  116OSM    H6F12168   2.258   0.440   7.295
  116OSM    H6G12169   2.087   0.509   7.268
  116OSM    C7F12170   2.205   0.624   7.405
  116OSM    H7F12171   2.142   0.599   7.493
  116OSM    H7G12172   2.164   0.722   7.371
  116OSM    C8F12173   2.347   0.634   7.461
  116OSM    H8F12174   2.416   0.650   7.376
  116OSM    H8G12175   2.372   0.533   7.500
  116OSM    C9F12176   2.372   0.733   7.562
  116OSM    H9F12177   2.413   0.827   7.522
  116OSM   C10F12178   2.363   0.721   7.700
  116OSM   H10F12179   2.390   0.806   7.765
  116OSM   C11F12180   2.333   0.594   7.773
  116OSM   H11F12181   2.428   0.559   7.819
  116OSM   H11G12182   2.286   0.514   7.711
  116OSM   C12F12183   2.236   0.627   7.887
  116OSM   H12F12184   2.129   0.636   7.858
  116OSM   H12G12185   2.262   0.721   7.940
  116OSM   C13F12186   2.228   0.517   7.994
  116OSM   H13F12187   2.327   0.506   8.042
  116OSM   H13G12188   2.212   0.426   7.932
  116OSM   C14F12189   2.128   0.537   8.116
  116OSM   H14F12190   2.026   0.544   8.074
  116OSM   H14G12191   2.141   0.632   8.173
  116OSM   C15F12192   2.138   0.433   8.230
  116OSM   H15F12193   2.239   0.451   8.271
  116OSM   H15G12194   2.131   0.326   8.200
  116OSM   C16F12195   2.037   0.470   8.340
  116OSM   H16F12196   1.943   0.433   8.295
  116OSM   H16G12197   2.030   0.581   8.339
  116OSM   C17F12198   2.065   0.425   8.485
  116OSM   H17F12199   2.162   0.474   8.510
  116OSM   H17G12200   2.065   0.314   8.489
  116OSM   C18F12201   1.959   0.482   8.578
  116OSM   H18F12202   1.976   0.441   8.680
  116OSM   H18G12203   1.862   0.460   8.530
  116OSM   H18H12204   1.972   0.593   8.583
  117OSM      N12205   0.318   2.892   6.054
  117OSM    C1512206   0.339   2.992   5.946
  117OSM   H15A12207   0.365   2.944   5.853
  117OSM   H15B12208   0.415   3.064   5.974
  117OSM   H15C12209   0.242   3.038   5.935
  117OSM    C1412210   0.294   2.969   6.184
  117OSM   H14A12211   0.370   3.043   6.206
  117OSM   H14B12212   0.275   2.902   6.266
  117OSM   H14C12213   0.203   3.027   6.177
  117OSM    C1312214   0.196   2.816   6.027
  117OSM   H13A12215   0.117   2.889   6.025
  117OSM   H13B12216   0.166   2.741   6.099
  117OSM   H13C12217   0.203   2.769   5.930
  117OSM    C1212218   0.439   2.801   6.056
  117OSM   H12A12219   0.448   2.751   5.960
  117OSM   H12B12220   0.415   2.738   6.140
  117OSM    C1112221   0.583   2.865   6.073
  117OSM   H11A12222   0.607   2.926   5.983
  117OSM   H11B12223   0.654   2.779   6.078
  117OSM      P12224   0.643   2.853   6.325
  117OSM    O1312225   0.772   2.781   6.313
  117OSM    O1412226   0.615   2.951   6.439
  117OSM    O1112227   0.530   2.747   6.339
  117OSM    O1212228   0.602   2.926   6.194
  117OSM    C1S12229   0.539   2.643   6.450
  117OSM    H1S12230   0.645   2.618   6.471
  117OSM    H1T12231   0.497   2.549   6.410
  117OSM     NF12232   0.493   2.596   6.688
  117OSM    HNF12233   0.424   2.533   6.723
  117OSM    C2S12234   0.466   2.687   6.577
  117OSM    H2S12235   0.505   2.786   6.609
  117OSM    C3S12236   0.313   2.717   6.543
  117OSM    H3S12237   0.272   2.617   6.518
  117OSM     O312238   0.299   2.814   6.434
  117OSM    HO312239   0.381   2.799   6.388
  117OSM    C4S12240   0.253   2.765   6.668
  117OSM    H4S12241   0.261   2.693   6.750
  117OSM    C5S12242   0.191   2.881   6.685
  117OSM    H5S12243   0.192   2.949   6.599
  117OSM    C6S12244   0.124   2.929   6.814
  117OSM    H6S12245   0.014   2.935   6.801
  117OSM    H6T12246   0.165   3.031   6.833
  117OSM    C7S12247   0.157   2.846   6.935
  117OSM    H7S12248   0.267   2.852   6.954
  117OSM    H7T12249   0.147   2.737   6.920
  117OSM    C8S12250   0.079   2.886   7.063
  117OSM    H8S12251  -0.022   2.842   7.048
  117OSM    H8T12252   0.077   2.996   7.071
  117OSM    C9S12253   0.138   2.829   7.200
  117OSM    H9S12254   0.231   2.872   7.241
  117OSM    H9T12255   0.140   2.717   7.202
  117OSM   C10S12256   0.035   2.880   7.302
  117OSM   H10S12257  -0.067   2.848   7.273
  117OSM   H10T12258   0.011   2.989   7.294
  117OSM   C11S12259   0.069   2.839   7.442
  117OSM   H11S12260   0.168   2.886   7.460
  117OSM   H11T12261   0.090   2.731   7.457
  117OSM   C12S12262  -0.021   2.899   7.544
  117OSM   H12S12263  -0.125   2.910   7.508
  117OSM   H12T12264   0.012   3.002   7.567
  117OSM   C13S12265  -0.017   2.822   7.682
  117OSM   H13S12266   0.086   2.800   7.717
  117OSM   H13T12267  -0.080   2.731   7.665
  117OSM   C14S12268  -0.083   2.904   7.797
  117OSM   H14S12269  -0.191   2.878   7.794
  117OSM   H14T12270  -0.072   3.009   7.765
  117OSM   C15S12271  -0.020   2.880   7.941
  117OSM   H15S12272  -0.028   2.970   8.005
  117OSM   H15T12273   0.089   2.867   7.923
  117OSM   C16S12274  -0.080   2.760   8.004
  117OSM   H16S12275  -0.060   2.669   7.944
  117OSM   H16T12276  -0.191   2.766   8.010
  117OSM   C17S12277  -0.023   2.732   8.148
  117OSM   H17S12278  -0.064   2.811   8.215
  117OSM   H17T12279   0.087   2.732   8.136
  117OSM   C18S12280  -0.067   2.589   8.199
  117OSM   H18S12281  -0.058   2.589   8.310
  117OSM   H18T12282   0.005   2.511   8.166
  117OSM   H18U12283  -0.171   2.561   8.173
  117OSM    C1F12284   0.623   2.595   6.747
  117OSM     OF12285   0.705   2.679   6.706
  117OSM    C2F12286   0.651   2.499   6.867
  117OSM    H2F12287   0.751   2.454   6.850
  117OSM    H2G12288   0.576   2.418   6.873
  117OSM    C3F12289   0.631   2.582   7.003
  117OSM    H3F12290   0.538   2.642   6.992
  117OSM    H3G12291   0.713   2.656   7.008
  117OSM    C4F12292   0.621   2.499   7.131
  117OSM    H4F12293   0.717   2.454   7.164
  117OSM    H4G12294   0.550   2.416   7.114
  117OSM    C5F12295   0.550   2.586   7.239
  117OSM    H5F12296   0.441   2.579   7.220
  117OSM    H5G12297   0.559   2.695   7.219
  117OSM    C6F12298   0.579   2.552   7.387
  117OSM    H6F12299   0.689   2.556   7.392
  117OSM    H6G12300   0.547   2.446   7.388
  117OSM    C7F12301   0.507   2.656   7.473
  117OSM    H7F12302   0.403   2.671   7.438
  117OSM    H7G12303   0.561   2.753   7.466
  117OSM    C8F12304   0.484   2.622   7.624
  117OSM    H8F12305   0.381   2.581   7.620
  117OSM    H8G12306   0.477   2.712   7.689
  117OSM    C9F12307   0.600   2.537   7.671
  117OSM    H9F12308   0.597   2.433   7.634
  117OSM   C10F12309   0.699   2.569   7.755
  117OSM   H10F12310   0.777   2.495   7.779
  117OSM   C11F12311   0.721   2.708   7.802
  117OSM   H11F12312   0.672   2.790   7.744
  117OSM   H11G12313   0.831   2.721   7.800
  117OSM   C12F12314   0.667   2.724   7.945
  117OSM   H12F12315   0.712   2.657   8.021
  117OSM   H12G12316   0.562   2.688   7.940
  117OSM   C13F12317   0.699   2.867   7.989
  117OSM   H13F12318   0.642   2.942   7.930
  117OSM   H13G12319   0.807   2.891   7.976
  117OSM   C14F12320   0.648   2.883   8.137
  117OSM   H14F12321   0.670   2.984   8.178
  117OSM   H14G12322   0.716   2.820   8.198
  117OSM   C15F12323   0.507   2.851   8.163
  117OSM   H15F12324   0.491   2.742   8.150
  117OSM   H15G12325   0.434   2.899   8.093
  117OSM   C16F12326   0.460   2.894   8.302
  117OSM   H16F12327   0.509   2.986   8.340
  117OSM   H16G12328   0.500   2.809   8.362
  117OSM   C17F12329   0.309   2.914   8.327
  117OSM   H17F12330   0.267   3.008   8.285
  117OSM   H17G12331   0.263   2.833   8.267
  117OSM   C18F12332   0.272   2.902   8.474
  117OSM   H18F12333   0.343   2.852   8.544
  117OSM   H18G12334   0.177   2.845   8.480
  117OSM   H18H12335   0.235   3.000   8.512
  118OSM      N12336   3.314   5.114   5.981
  118OSM    C1512337   3.184   5.069   5.939
  118OSM   H15A12338   3.111   5.089   6.016
  118OSM   H15B12339   3.188   4.961   5.933
  118OSM   H15C12340   3.148   5.114   5.848
  118OSM    C1412341   3.412   5.074   5.872
  118OSM   H14A12342   3.417   5.139   5.786
  118OSM   H14B12343   3.407   4.968   5.851
  118OSM   H14C12344   3.513   5.093   5.905
  118OSM    C1312345   3.314   5.265   5.981
  118OSM   H13A12346   3.269   5.304   5.891
  118OSM   H13B12347   3.418   5.295   5.981
  118OSM   H13C12348   3.261   5.305   6.066
  118OSM    C1212349   3.348   5.057   6.117
  118OSM   H12A12350   3.438   5.105   6.152
  118OSM   H12B12351   3.359   4.950   6.118
  118OSM    C1112352   3.237   5.082   6.224
  118OSM   H11A12353   3.184   5.176   6.198
  118OSM   H11B12354   3.284   5.086   6.325
  118OSM      P12355   3.162   4.838   6.302
  118OSM    O1312356   3.046   4.755   6.277
  118OSM    O1412357   3.295   4.781   6.265
  118OSM    O1112358   3.152   4.893   6.448
  118OSM    O1212359   3.148   4.974   6.210
  118OSM    C1S12360   3.180   4.787   6.548
  118OSM    H1S12361   3.290   4.774   6.540
  118OSM    H1T12362   3.119   4.695   6.548
  118OSM     NF12363   3.212   4.766   6.805
  118OSM    HNF12364   3.151   4.707   6.857
  118OSM    C2S12365   3.145   4.839   6.694
  118OSM    H2S12366   3.184   4.942   6.706
  118OSM    C3S12367   2.992   4.838   6.715
  118OSM    H3S12368   2.965   4.730   6.717
  118OSM     O312369   2.919   4.876   6.601
  118OSM    HO312370   2.977   4.851   6.529
  118OSM    C4S12371   2.951   4.905   6.835
  118OSM    H4S12372   2.941   4.836   6.921
  118OSM    C5S12373   2.925   5.031   6.861
  118OSM    H5S12374   2.932   5.099   6.775
  118OSM    C6S12375   2.885   5.093   6.989
  118OSM    H6S12376   2.776   5.082   7.008
  118OSM    H6T12377   2.909   5.202   6.990
  118OSM    C7S12378   2.952   5.026   7.110
  118OSM    H7S12379   3.058   4.996   7.100
  118OSM    H7T12380   2.905   4.929   7.136
  118OSM    C8S12381   2.951   5.124   7.230
  118OSM    H8S12382   2.848   5.162   7.247
  118OSM    H8T12383   3.015   5.209   7.200
  118OSM    C9S12384   2.997   5.067   7.367
  118OSM    H9S12385   3.094   5.022   7.338
  118OSM    H9T12386   2.933   4.985   7.405
  118OSM   C10S12387   3.012   5.173   7.473
  118OSM   H10S12388   2.920   5.236   7.474
  118OSM   H10T12389   3.095   5.242   7.447
  118OSM   C11S12390   3.050   5.108   7.604
  118OSM   H11S12391   3.100   5.009   7.598
  118OSM   H11T12392   2.954   5.089   7.657
  118OSM   C12S12393   3.158   5.185   7.684
  118OSM   H12S12394   3.120   5.280   7.727
  118OSM   H12T12395   3.233   5.215   7.608
  118OSM   C13S12396   3.215   5.095   7.798
  118OSM   H13S12397   3.291   5.152   7.855
  118OSM   H13T12398   3.267   5.008   7.752
  118OSM   C14S12399   3.099   5.060   7.896
  118OSM   H14S12400   3.046   4.974   7.849
  118OSM   H14T12401   3.030   5.147   7.901
  118OSM   C15S12402   3.161   5.006   8.027
  118OSM   H15S12403   3.205   5.091   8.083
  118OSM   H15T12404   3.246   4.941   7.997
  118OSM   C16S12405   3.054   4.931   8.105
  118OSM   H16S12406   3.027   4.840   8.047
  118OSM   H16T12407   2.956   4.983   8.111
  118OSM   C17S12408   3.103   4.892   8.238
  118OSM   H17S12409   3.127   4.984   8.296
  118OSM   H17T12410   3.203   4.846   8.223
  118OSM   C18S12411   3.008   4.801   8.316
  118OSM   H18S12412   2.903   4.834   8.300
  118OSM   H18T12413   3.027   4.817   8.424
  118OSM   H18U12414   3.016   4.695   8.282
  118OSM    C1F12415   3.344   4.774   6.829
  118OSM     OF12416   3.417   4.849   6.763
  118OSM    C2F12417   3.385   4.687   6.946
  118OSM    H2F12418   3.411   4.590   6.900
  118OSM    H2G12419   3.295   4.670   7.009
  118OSM    C3F12420   3.501   4.732   7.045
  118OSM    H3F12421   3.461   4.808   7.115
  118OSM    H3G12422   3.584   4.781   6.990
  118OSM    C4F12423   3.553   4.603   7.124
  118OSM    H4F12424   3.612   4.550   7.046
  118OSM    H4G12425   3.470   4.536   7.153
  118OSM    C5F12426   3.624   4.625   7.261
  118OSM    H5F12427   3.709   4.694   7.241
  118OSM    H5G12428   3.670   4.528   7.292
  118OSM    C6F12429   3.542   4.662   7.381
  118OSM    H6F12430   3.475   4.579   7.411
  118OSM    H6G12431   3.499   4.765   7.377
  118OSM    C7F12432   3.628   4.680   7.516
  118OSM    H7F12433   3.683   4.776   7.507
  118OSM    H7G12434   3.690   4.588   7.519
  118OSM    C8F12435   3.532   4.692   7.642
  118OSM    H8F12436   3.473   4.598   7.641
  118OSM    H8G12437   3.460   4.775   7.631
  118OSM    C9F12438   3.621   4.727   7.755
  118OSM    H9F12439   3.698   4.801   7.725
  118OSM   C10F12440   3.627   4.673   7.880
  118OSM   H10F12441   3.705   4.699   7.952
  118OSM   C11F12442   3.538   4.566   7.937
  118OSM   H11F12443   3.450   4.533   7.877
  118OSM   H11G12444   3.494   4.596   8.034
  118OSM   C12F12445   3.615   4.444   7.984
  118OSM   H12F12446   3.678   4.477   8.069
  118OSM   H12G12447   3.667   4.397   7.898
  118OSM   C13F12448   3.519   4.346   8.050
  118OSM   H13F12449   3.437   4.315   7.981
  118OSM   H13G12450   3.480   4.405   8.136
  118OSM   C14F12451   3.585   4.218   8.110
  118OSM   H14F12452   3.664   4.251   8.180
  118OSM   H14G12453   3.647   4.171   8.031
  118OSM   C15F12454   3.482   4.132   8.182
  118OSM   H15F12455   3.394   4.120   8.115
  118OSM   H15G12456   3.444   4.172   8.278
  118OSM   C16F12457   3.540   3.995   8.215
  118OSM   H16F12458   3.636   4.013   8.268
  118OSM   H16G12459   3.546   3.925   8.128
  118OSM   C17F12460   3.451   3.917   8.311
  118OSM   H17F12461   3.349   3.919   8.268
  118OSM   H17G12462   3.453   3.969   8.409
  118OSM   C18F12463   3.506   3.774   8.331
  118OSM   H18F12464   3.616   3.773   8.341
  118OSM   H18G12465   3.483   3.713   8.242
  118OSM   H18H12466   3.461   3.724   8.419
  119OSM      N12467   4.436   4.609   5.546
  119OSM    C1512468   4.544   4.611   5.437
  119OSM   H15A12469   4.607   4.523   5.442
  119OSM   H15B12470   4.613   4.694   5.439
  119OSM   H15C12471   4.499   4.612   5.339
  119OSM    C1412472   4.346   4.494   5.527
  119OSM   H14A12473   4.291   4.498   5.435
  119OSM   H14B12474   4.276   4.498   5.609
  119OSM   H14C12475   4.400   4.400   5.526
  119OSM    C1312476   4.509   4.594   5.677
  119OSM   H13A12477   4.438   4.616   5.755
  119OSM   H13B12478   4.596   4.658   5.686
  119OSM   H13C12479   4.548   4.494   5.688
  119OSM    C1212480   4.369   4.742   5.538
  119OSM   H12A12481   4.342   4.758   5.434
  119OSM   H12B12482   4.436   4.823   5.564
  119OSM    C1112483   4.242   4.762   5.623
  119OSM   H11A12484   4.168   4.685   5.593
  119OSM   H11B12485   4.202   4.861   5.592
  119OSM      P12486   4.330   4.881   5.833
  119OSM    O1312487   4.462   4.909   5.776
  119OSM    O1412488   4.231   4.984   5.838
  119OSM    O1112489   4.365   4.826   5.974
  119OSM    O1212490   4.260   4.754   5.762
  119OSM    C1S12491   4.428   4.702   5.996
  119OSM    H1S12492   4.532   4.696   5.959
  119OSM    H1T12493   4.372   4.621   5.944
  119OSM     NF12494   4.497   4.550   6.172
  119OSM    HNF12495   4.443   4.469   6.193
  119OSM    C2S12496   4.425   4.671   6.143
  119OSM    H2S12497   4.478   4.754   6.195
  119OSM    C3S12498   4.279   4.676   6.202
  119OSM    H3S12499   4.213   4.591   6.176
  119OSM     O312500   4.200   4.790   6.166
  119OSM    HO312501   4.235   4.837   6.089
  119OSM    C4S12502   4.302   4.677   6.351
  119OSM    H4S12503   4.270   4.581   6.395
  119OSM    C5S12504   4.348   4.778   6.432
  119OSM    H5S12505   4.376   4.874   6.386
  119OSM    C6S12506   4.371   4.759   6.583
  119OSM    H6S12507   4.340   4.853   6.633
  119OSM    H6T12508   4.481   4.760   6.597
  119OSM    C7S12509   4.290   4.651   6.659
  119OSM    H7S12510   4.303   4.559   6.599
  119OSM    H7T12511   4.188   4.690   6.637
  119OSM    C8S12512   4.336   4.640   6.805
  119OSM    H8S12513   4.360   4.740   6.848
  119OSM    H8T12514   4.432   4.585   6.798
  119OSM    C9S12515   4.239   4.559   6.893
  119OSM    H9S12516   4.213   4.465   6.839
  119OSM    H9T12517   4.153   4.625   6.914
  119OSM   C10S12518   4.315   4.519   7.022
  119OSM   H10S12519   4.354   4.614   7.065
  119OSM   H10T12520   4.403   4.458   6.993
  119OSM   C11S12521   4.224   4.452   7.124
  119OSM   H11S12522   4.284   4.427   7.214
  119OSM   H11T12523   4.175   4.358   7.091
  119OSM   C12S12524   4.108   4.544   7.181
  119OSM   H12S12525   4.040   4.561   7.095
  119OSM   H12T12526   4.138   4.648   7.207
  119OSM   C13S12527   4.030   4.485   7.300
  119OSM   H13S12528   4.004   4.379   7.283
  119OSM   H13T12529   3.935   4.541   7.315
  119OSM   C14S12530   4.104   4.496   7.432
  119OSM   H14S12531   4.163   4.590   7.433
  119OSM   H14T12532   4.181   4.416   7.431
  119OSM   C15S12533   4.023   4.493   7.565
  119OSM   H15S12534   3.963   4.586   7.564
  119OSM   H15T12535   4.085   4.493   7.657
  119OSM   C16S12536   3.936   4.364   7.575
  119OSM   H16S12537   4.000   4.275   7.560
  119OSM   H16T12538   3.864   4.380   7.492
  119OSM   C17S12539   3.875   4.339   7.709
  119OSM   H17S12540   3.810   4.426   7.733
  119OSM   H17T12541   3.957   4.333   7.784
  119OSM   C18S12542   3.783   4.215   7.715
  119OSM   H18S12543   3.838   4.121   7.692
  119OSM   H18T12544   3.689   4.228   7.657
  119OSM   H18U12545   3.743   4.194   7.816
  119OSM    C1F12546   4.631   4.537   6.154
  119OSM     OF12547   4.696   4.638   6.146
  119OSM    C2F12548   4.683   4.393   6.151
  119OSM    H2F12549   4.699   4.371   6.044
  119OSM    H2G12550   4.608   4.316   6.180
  119OSM    C3F12551   4.814   4.367   6.228
  119OSM    H3F12552   4.882   4.448   6.193
  119OSM    H3G12553   4.871   4.274   6.208
  119OSM    C4F12554   4.794   4.368   6.386
  119OSM    H4F12555   4.750   4.465   6.417
  119OSM    H4G12556   4.897   4.365   6.428
  119OSM    C5F12557   4.731   4.242   6.435
  119OSM    H5F12558   4.775   4.150   6.391
  119OSM    H5G12559   4.623   4.251   6.411
  119OSM    C6F12560   4.735   4.231   6.590
  119OSM    H6F12561   4.686   4.317   6.641
  119OSM    H6G12562   4.842   4.224   6.621
  119OSM    C7F12563   4.665   4.110   6.643
  119OSM    H7F12564   4.692   4.087   6.749
  119OSM    H7G12565   4.678   4.014   6.589
  119OSM    C8F12566   4.512   4.142   6.636
  119OSM    H8F12567   4.463   4.043   6.625
  119OSM    H8G12568   4.478   4.192   6.543
  119OSM    C9F12569   4.460   4.212   6.758
  119OSM    H9F12570   4.506   4.309   6.782
  119OSM   C10F12571   4.365   4.172   6.840
  119OSM   H10F12572   4.349   4.244   6.922
  119OSM   C11F12573   4.277   4.052   6.847
  119OSM   H11F12574   4.302   3.989   6.759
  119OSM   H11G12575   4.167   4.067   6.839
  119OSM   C12F12576   4.310   3.978   6.983
  119OSM   H12F12577   4.421   3.976   6.984
  119OSM   H12G12578   4.269   3.875   6.994
  119OSM   C13F12579   4.254   4.058   7.107
  119OSM   H13F12580   4.145   4.044   7.092
  119OSM   H13G12581   4.279   4.166   7.099
  119OSM   C14F12582   4.303   4.003   7.245
  119OSM   H14F12583   4.413   4.008   7.258
  119OSM   H14G12584   4.278   3.895   7.246
  119OSM   C15F12585   4.225   4.049   7.366
  119OSM   H15F12586   4.117   4.032   7.344
  119OSM   H15G12587   4.234   4.158   7.383
  119OSM   C16F12588   4.251   3.973   7.493
  119OSM   H16F12589   4.358   3.957   7.518
  119OSM   H16G12590   4.207   3.874   7.468
  119OSM   C17F12591   4.179   4.033   7.619
  119OSM   H17F12592   4.069   4.035   7.606
  119OSM   H17G12593   4.211   4.139   7.627
  119OSM   C18F12594   4.208   3.951   7.751
  119OSM   H18F12595   4.219   3.843   7.729
  119OSM   H18G12596   4.119   3.953   7.818
  119OSM   H18H12597   4.291   3.995   7.811
  120OSM      N12598   1.887   1.770   6.592
  120OSM    C1512599   1.817   1.796   6.718
  120OSM   H15A12600   1.867   1.873   6.775
  120OSM   H15B12601   1.814   1.704   6.774
  120OSM   H15C12602   1.716   1.826   6.694
  120OSM    C1412603   1.817   1.653   6.532
  120OSM   H14A12604   1.715   1.679   6.508
  120OSM   H14B12605   1.826   1.570   6.600
  120OSM   H14C12606   1.874   1.630   6.443
  120OSM    C1312607   1.871   1.887   6.497
  120OSM   H13A12608   1.767   1.912   6.479
  120OSM   H13B12609   1.930   1.885   6.407
  120OSM   H13C12610   1.904   1.968   6.559
  120OSM    C1212611   2.027   1.735   6.619
  120OSM   H12A12612   2.023   1.645   6.680
  120OSM   H12B12613   2.063   1.811   6.687
  120OSM    C1112614   2.129   1.742   6.510
  120OSM   H11A12615   2.230   1.729   6.556
  120OSM   H11B12616   2.144   1.843   6.467
  120OSM      P12617   2.130   1.498   6.403
  120OSM    O1312618   2.015   1.432   6.338
  120OSM    O1412619   2.268   1.471   6.350
  120OSM    O1112620   2.112   1.461   6.560
  120OSM    O1212621   2.103   1.655   6.403
  120OSM    C1S12622   2.221   1.440   6.648
  120OSM    H1S12623   2.269   1.529   6.694
  120OSM    H1T12624   2.312   1.395   6.603
  120OSM     NF12625   2.258   1.368   6.890
  120OSM    HNF12626   2.319   1.294   6.916
  120OSM    C2S12627   2.182   1.338   6.769
  120OSM    H2S12628   2.073   1.361   6.778
  120OSM    C3S12629   2.170   1.193   6.721
  120OSM    H3S12630   2.271   1.148   6.712
  120OSM     O312631   2.109   1.162   6.599
  120OSM    HO312632   2.097   1.251   6.564
  120OSM    C4S12633   2.102   1.111   6.825
  120OSM    H4S12634   2.164   1.060   6.900
  120OSM    C5S12635   1.973   1.073   6.830
  120OSM    H5S12636   1.901   1.096   6.751
  120OSM    C6S12637   1.921   0.975   6.935
  120OSM    H6S12638   1.933   0.871   6.899
  120OSM    H6T12639   1.813   0.998   6.949
  120OSM    C7S12640   1.993   0.992   7.065
  120OSM    H7S12641   2.009   1.099   7.088
  120OSM    H7T12642   2.093   0.944   7.060
  120OSM    C8S12643   1.909   0.932   7.180
  120OSM    H8S12644   1.897   0.823   7.163
  120OSM    H8T12645   1.810   0.984   7.182
  120OSM    C9S12646   1.979   0.953   7.311
  120OSM    H9S12647   1.960   1.057   7.344
  120OSM    H9T12648   2.085   0.924   7.295
  120OSM   C10S12649   1.920   0.864   7.426
  120OSM   H10S12650   1.934   0.757   7.398
  120OSM   H10T12651   1.813   0.894   7.433
  120OSM   C11S12652   1.975   0.878   7.568
  120OSM   H11S12653   1.981   0.989   7.576
  120OSM   H11T12654   2.079   0.838   7.567
  120OSM   C12S12655   1.877   0.820   7.671
  120OSM   H12S12656   1.877   0.710   7.658
  120OSM   H12T12657   1.775   0.848   7.639
  120OSM   C13S12658   1.907   0.879   7.815
  120OSM   H13S12659   1.894   0.989   7.827
  120OSM   H13T12660   2.015   0.866   7.840
  120OSM   C14S12661   1.816   0.802   7.919
  120OSM   H14S12662   1.815   0.693   7.898
  120OSM   H14T12663   1.712   0.838   7.901
  120OSM   C15S12664   1.847   0.813   8.065
  120OSM   H15S12665   1.831   0.920   8.091
  120OSM   H15T12666   1.953   0.787   8.084
  120OSM   C16S12667   1.766   0.715   8.153
  120OSM   H16S12668   1.803   0.612   8.136
  120OSM   H16T12669   1.660   0.716   8.122
  120OSM   C17S12670   1.756   0.752   8.302
  120OSM   H17S12671   1.707   0.851   8.316
  120OSM   H17T12672   1.853   0.772   8.353
  120OSM   C18S12673   1.682   0.653   8.390
  120OSM   H18S12674   1.747   0.562   8.390
  120OSM   H18T12675   1.582   0.631   8.349
  120OSM   H18U12676   1.676   0.705   8.488
  120OSM    C1F12677   2.256   1.479   6.962
  120OSM     OF12678   2.166   1.565   6.940
  120OSM    C2F12679   2.364   1.515   7.062
  120OSM    H2F12680   2.463   1.485   7.021
  120OSM    H2G12681   2.342   1.453   7.151
  120OSM    C3F12682   2.357   1.668   7.097
  120OSM    H3F12683   2.266   1.679   7.159
  120OSM    H3G12684   2.358   1.730   7.005
  120OSM    C4F12685   2.493   1.712   7.172
  120OSM    H4F12686   2.461   1.806   7.221
  120OSM    H4G12687   2.576   1.739   7.103
  120OSM    C5F12688   2.557   1.608   7.269
  120OSM    H5F12689   2.639   1.661   7.323
  120OSM    H5G12690   2.592   1.519   7.213
  120OSM    C6F12691   2.462   1.565   7.380
  120OSM    H6F12692   2.511   1.480   7.432
  120OSM    H6G12693   2.365   1.533   7.337
  120OSM    C7F12694   2.445   1.658   7.495
  120OSM    H7F12695   2.393   1.750   7.461
  120OSM    H7G12696   2.545   1.689   7.532
  120OSM    C8F12697   2.355   1.608   7.608
  120OSM    H8F12698   2.400   1.513   7.644
  120OSM    H8G12699   2.254   1.591   7.564
  120OSM    C9F12700   2.370   1.704   7.721
  120OSM    H9F12701   2.396   1.804   7.683
  120OSM   C10F12702   2.385   1.678   7.853
  120OSM   H10F12703   2.380   1.764   7.921
  120OSM   C11F12704   2.361   1.541   7.914
  120OSM   H11F12705   2.459   1.509   7.956
  120OSM   H11G12706   2.327   1.470   7.836
  120OSM   C12F12707   2.261   1.538   8.040
  120OSM   H12F12708   2.259   1.431   8.070
  120OSM   H12G12709   2.163   1.571   7.999
  120OSM   C13F12710   2.312   1.615   8.157
  120OSM   H13F12711   2.276   1.718   8.140
  120OSM   H13G12712   2.423   1.621   8.161
  120OSM   C14F12713   2.262   1.554   8.292
  120OSM   H14F12714   2.281   1.444   8.298
  120OSM   H14G12715   2.151   1.559   8.294
  120OSM   C15F12716   2.326   1.617   8.419
  120OSM   H15F12717   2.241   1.648   8.484
  120OSM   H15G12718   2.361   1.717   8.387
  120OSM   C16F12719   2.432   1.516   8.480
  120OSM   H16F12720   2.488   1.482   8.390
  120OSM   H16G12721   2.379   1.434   8.533
  120OSM   C17F12722   2.522   1.575   8.593
  120OSM   H17F12723   2.580   1.657   8.544
  120OSM   H17G12724   2.599   1.495   8.604
  120OSM   C18F12725   2.448   1.614   8.717
  120OSM   H18F12726   2.405   1.520   8.760
  120OSM   H18G12727   2.361   1.682   8.705
  120OSM   H18H12728   2.515   1.651   8.798
  121OSM      N12729   3.317   3.205   5.995
  121OSM    C1512730   3.418   3.252   5.896
  121OSM   H15A12731   3.498   3.181   5.886
  121OSM   H15B12732   3.461   3.343   5.933
  121OSM   H15C12733   3.381   3.282   5.798
  121OSM    C1412734   3.213   3.317   6.001
  121OSM   H14A12735   3.144   3.289   6.079
  121OSM   H14B12736   3.147   3.319   5.916
  121OSM   H14C12737   3.260   3.414   6.011
  121OSM    C1312738   3.255   3.080   5.947
  121OSM   H13A12739   3.331   3.004   5.938
  121OSM   H13B12740   3.207   3.097   5.852
  121OSM   H13C12741   3.185   3.049   6.023
  121OSM    C1212742   3.382   3.183   6.131
  121OSM   H12A12743   3.458   3.107   6.123
  121OSM   H12B12744   3.318   3.146   6.210
  121OSM    C1112745   3.459   3.296   6.198
  121OSM   H11A12746   3.489   3.277   6.303
  121OSM   H11B12747   3.397   3.389   6.201
  121OSM      P12748   3.707   3.238   6.136
  121OSM    O1312749   3.683   3.104   6.093
  121OSM    O1412750   3.814   3.312   6.072
  121OSM    O1112751   3.728   3.247   6.292
  121OSM    O1212752   3.573   3.326   6.118
  121OSM    C1S12753   3.837   3.195   6.362
  121OSM    H1S12754   3.920   3.269   6.361
  121OSM    H1T12755   3.863   3.090   6.338
  121OSM     NF12756   3.909   3.168   6.600
  121OSM    HNF12757   3.916   3.083   6.652
  121OSM    C2S12758   3.797   3.186   6.517
  121OSM    H2S12759   3.761   3.290   6.538
  121OSM    C3S12760   3.676   3.090   6.538
  121OSM    H3S12761   3.718   2.991   6.565
  121OSM     O312762   3.586   3.059   6.429
  121OSM    HO312763   3.627   3.107   6.356
  121OSM    C4S12764   3.607   3.136   6.669
  121OSM    H4S12765   3.652   3.092   6.760
  121OSM    C5S12766   3.491   3.209   6.683
  121OSM    H5S12767   3.434   3.240   6.595
  121OSM    C6S12768   3.413   3.243   6.804
  121OSM    H6S12769   3.320   3.183   6.793
  121OSM    H6T12770   3.383   3.348   6.783
  121OSM    C7S12771   3.484   3.238   6.938
  121OSM    H7S12772   3.591   3.260   6.920
  121OSM    H7T12773   3.492   3.139   6.988
  121OSM    C8S12774   3.433   3.337   7.044
  121OSM    H8S12775   3.335   3.297   7.075
  121OSM    H8T12776   3.427   3.435   6.992
  121OSM    C9S12777   3.512   3.343   7.176
  121OSM    H9S12778   3.613   3.388   7.167
  121OSM    H9T12779   3.525   3.237   7.206
  121OSM   C10S12780   3.437   3.417   7.292
  121OSM   H10S12781   3.486   3.392   7.388
  121OSM   H10T12782   3.329   3.390   7.298
  121OSM   C11S12783   3.441   3.572   7.264
  121OSM   H11S12784   3.388   3.601   7.171
  121OSM   H11T12785   3.547   3.603   7.257
  121OSM   C12S12786   3.385   3.653   7.380
  121OSM   H12S12787   3.416   3.759   7.377
  121OSM   H12T12788   3.431   3.612   7.473
  121OSM   C13S12789   3.232   3.644   7.395
  121OSM   H13S12790   3.198   3.551   7.446
  121OSM   H13T12791   3.188   3.640   7.293
  121OSM   C14S12792   3.174   3.760   7.482
  121OSM   H14S12793   3.064   3.753   7.468
  121OSM   H14T12794   3.213   3.856   7.442
  121OSM   C15S12795   3.207   3.752   7.634
  121OSM   H15S12796   3.125   3.809   7.683
  121OSM   H15T12797   3.303   3.802   7.658
  121OSM   C16S12798   3.198   3.618   7.709
  121OSM   H16S12799   3.301   3.578   7.709
  121OSM   H16T12800   3.134   3.550   7.649
  121OSM   C17S12801   3.163   3.623   7.857
  121OSM   H17S12802   3.114   3.528   7.885
  121OSM   H17T12803   3.096   3.707   7.885
  121OSM   C18S12804   3.287   3.643   7.952
  121OSM   H18S12805   3.252   3.645   8.057
  121OSM   H18T12806   3.325   3.743   7.922
  121OSM   H18U12807   3.371   3.571   7.944
  121OSM    C1F12808   4.015   3.261   6.605
  121OSM     OF12809   4.012   3.363   6.533
  121OSM    C2F12810   4.129   3.247   6.699
  121OSM    H2F12811   4.221   3.271   6.642
  121OSM    H2G12812   4.131   3.141   6.733
  121OSM    C3F12813   4.137   3.334   6.821
  121OSM    H3F12814   4.043   3.329   6.880
  121OSM    H3G12815   4.142   3.441   6.791
  121OSM    C4F12816   4.246   3.287   6.919
  121OSM    H4F12817   4.332   3.291   6.848
  121OSM    H4G12818   4.225   3.182   6.948
  121OSM    C5F12819   4.254   3.381   7.042
  121OSM    H5F12820   4.326   3.340   7.116
  121OSM    H5G12821   4.155   3.407   7.085
  121OSM    C6F12822   4.308   3.521   7.007
  121OSM    H6F12823   4.231   3.566   6.941
  121OSM    H6G12824   4.410   3.513   6.964
  121OSM    C7F12825   4.307   3.613   7.132
  121OSM    H7F12826   4.203   3.644   7.155
  121OSM    H7G12827   4.361   3.705   7.099
  121OSM    C8F12828   4.373   3.549   7.258
  121OSM    H8F12829   4.468   3.518   7.210
  121OSM    H8G12830   4.315   3.460   7.291
  121OSM    C9F12831   4.401   3.629   7.384
  121OSM    H9F12832   4.498   3.681   7.387
  121OSM   C10F12833   4.328   3.618   7.494
  121OSM   H10F12834   4.356   3.684   7.578
  121OSM   C11F12835   4.200   3.549   7.503
  121OSM   H11F12836   4.135   3.560   7.414
  121OSM   H11G12837   4.128   3.591   7.577
  121OSM   C12F12838   4.212   3.396   7.539
  121OSM   H12F12839   4.243   3.393   7.645
  121OSM   H12G12840   4.290   3.352   7.474
  121OSM   C13F12841   4.074   3.330   7.510
  121OSM   H13F12842   3.995   3.397   7.550
  121OSM   H13G12843   4.068   3.233   7.564
  121OSM   C14F12844   4.051   3.291   7.359
  121OSM   H14F12845   4.140   3.235   7.323
  121OSM   H14G12846   4.064   3.389   7.308
  121OSM   C15F12847   3.922   3.217   7.343
  121OSM   H15F12848   3.837   3.277   7.382
  121OSM   H15G12849   3.927   3.128   7.410
  121OSM   C16F12850   3.900   3.166   7.196
  121OSM   H16F12851   3.993   3.135   7.143
  121OSM   H16G12852   3.850   3.246   7.137
  121OSM   C17F12853   3.795   3.045   7.200
  121OSM   H17F12854   3.702   3.087   7.244
  121OSM   H17G12855   3.841   2.966   7.263
  121OSM   C18F12856   3.775   2.998   7.058
  121OSM   H18F12857   3.869   2.966   7.008
  121OSM   H18G12858   3.717   3.073   7.000
  121OSM   H18H12859   3.725   2.899   7.060
  122OSM      N12860   2.691   5.588   5.967
  122OSM    C1512861   2.563   5.659   5.943
  122OSM   H15A12862   2.523   5.711   6.029
  122OSM   H15B12863   2.485   5.595   5.904
  122OSM   H15C12864   2.579   5.738   5.871
  122OSM    C1412865   2.742   5.543   5.836
  122OSM   H14A12866   2.783   5.623   5.777
  122OSM   H14B12867   2.664   5.489   5.783
  122OSM   H14C12868   2.817   5.466   5.844
  122OSM    C1312869   2.792   5.687   6.019
  122OSM   H13A12870   2.763   5.721   6.117
  122OSM   H13B12871   2.795   5.773   5.954
  122OSM   H13C12872   2.888   5.645   6.043
  122OSM    C1212873   2.668   5.474   6.068
  122OSM   H12A12874   2.608   5.520   6.145
  122OSM   H12B12875   2.764   5.454   6.113
  122OSM    C1112876   2.590   5.351   6.016
  122OSM   H11A12877   2.492   5.386   5.979
  122OSM   H11B12878   2.561   5.288   6.103
  122OSM      P12879   2.795   5.195   5.963
  122OSM    O1312880   2.773   5.050   5.927
  122OSM    O1412881   2.925   5.258   5.920
  122OSM    O1112882   2.783   5.195   6.124
  122OSM    O1212883   2.666   5.276   5.918
  122OSM    C1S12884   2.882   5.141   6.207
  122OSM    H1S12885   2.977   5.195   6.187
  122OSM    H1T12886   2.899   5.037   6.172
  122OSM     NF12887   2.941   5.122   6.455
  122OSM    HNF12888   2.951   5.034   6.501
  122OSM    C2S12889   2.836   5.127   6.354
  122OSM    H2S12890   2.789   5.227   6.364
  122OSM    C3S12891   2.710   5.040   6.366
  122OSM    H3S12892   2.750   4.936   6.367
  122OSM     O312893   2.619   5.035   6.254
  122OSM    HO312894   2.646   5.109   6.200
  122OSM    C4S12895   2.642   5.054   6.499
  122OSM    H4S12896   2.686   4.983   6.571
  122OSM    C5S12897   2.544   5.134   6.521
  122OSM    H5S12898   2.505   5.188   6.434
  122OSM    C6S12899   2.484   5.148   6.652
  122OSM    H6S12900   2.502   5.060   6.718
  122OSM    H6T12901   2.375   5.134   6.636
  122OSM    C7S12902   2.525   5.272   6.721
  122OSM    H7S12903   2.505   5.364   6.661
  122OSM    H7T12904   2.633   5.269   6.744
  122OSM    C8S12905   2.444   5.279   6.856
  122OSM    H8S12906   2.462   5.189   6.918
  122OSM    H8T12907   2.336   5.294   6.831
  122OSM    C9S12908   2.490   5.402   6.931
  122OSM    H9S12909   2.397   5.455   6.963
  122OSM    H9T12910   2.544   5.477   6.870
  122OSM   C10S12911   2.565   5.383   7.059
  122OSM   H10S12912   2.605   5.483   7.086
  122OSM   H10T12913   2.649   5.313   7.041
  122OSM   C11S12914   2.478   5.353   7.177
  122OSM   H11S12915   2.428   5.259   7.145
  122OSM   H11T12916   2.400   5.426   7.206
  122OSM   C12S12917   2.572   5.318   7.296
  122OSM   H12S12918   2.658   5.252   7.273
  122OSM   H12T12919   2.515   5.250   7.362
  122OSM   C13S12920   2.620   5.436   7.379
  122OSM   H13S12921   2.540   5.512   7.390
  122OSM   H13T12922   2.689   5.496   7.315
  122OSM   C14S12923   2.691   5.397   7.518
  122OSM   H14S12924   2.758   5.484   7.538
  122OSM   H14T12925   2.752   5.306   7.497
  122OSM   C15S12926   2.592   5.382   7.633
  122OSM   H15S12927   2.502   5.328   7.596
  122OSM   H15T12928   2.556   5.481   7.670
  122OSM   C16S12929   2.652   5.302   7.748
  122OSM   H16S12930   2.748   5.347   7.783
  122OSM   H16T12931   2.674   5.197   7.720
  122OSM   C17S12932   2.549   5.297   7.861
  122OSM   H17S12933   2.447   5.274   7.822
  122OSM   H17T12934   2.533   5.397   7.908
  122OSM   C18S12935   2.573   5.201   7.983
  122OSM   H18S12936   2.481   5.201   8.045
  122OSM   H18T12937   2.661   5.227   8.046
  122OSM   H18U12938   2.587   5.095   7.954
  122OSM    C1F12939   3.034   5.219   6.469
  122OSM     OF12940   3.028   5.323   6.407
  122OSM    C2F12941   3.139   5.203   6.563
  122OSM    H2F12942   3.178   5.101   6.543
  122OSM    H2G12943   3.097   5.217   6.665
  122OSM    C3F12944   3.256   5.299   6.557
  122OSM    H3F12945   3.206   5.394   6.586
  122OSM    H3G12946   3.301   5.316   6.457
  122OSM    C4F12947   3.365   5.260   6.663
  122OSM    H4F12948   3.452   5.322   6.630
  122OSM    H4G12949   3.405   5.160   6.640
  122OSM    C5F12950   3.332   5.284   6.809
  122OSM    H5F12951   3.260   5.207   6.844
  122OSM    H5G12952   3.281   5.382   6.813
  122OSM    C6F12953   3.465   5.284   6.891
  122OSM    H6F12954   3.529   5.371   6.865
  122OSM    H6G12955   3.520   5.194   6.856
  122OSM    C7F12956   3.440   5.277   7.040
  122OSM    H7F12957   3.338   5.313   7.066
  122OSM    H7G12958   3.519   5.325   7.102
  122OSM    C8F12959   3.436   5.130   7.088
  122OSM    H8F12960   3.539   5.089   7.093
  122OSM    H8G12961   3.392   5.072   7.004
  122OSM    C9F12962   3.361   5.097   7.219
  122OSM    H9F12963   3.259   5.060   7.200
  122OSM   C10F12964   3.411   5.094   7.341
  122OSM   H10F12965   3.344   5.073   7.425
  122OSM   C11F12966   3.557   5.121   7.381
  122OSM   H11F12967   3.611   5.179   7.304
  122OSM   H11G12968   3.603   5.021   7.398
  122OSM   C12F12969   3.575   5.194   7.513
  122OSM   H12F12970   3.518   5.290   7.512
  122OSM   H12G12971   3.675   5.243   7.517
  122OSM   C13F12972   3.537   5.122   7.640
  122OSM   H13F12973   3.587   5.023   7.644
  122OSM   H13G12974   3.427   5.108   7.644
  122OSM   C14F12975   3.571   5.198   7.767
  122OSM   H14F12976   3.498   5.281   7.781
  122OSM   H14G12977   3.668   5.251   7.751
  122OSM   C15F12978   3.583   5.108   7.892
  122OSM   H15F12979   3.676   5.049   7.880
  122OSM   H15G12980   3.497   5.037   7.891
  122OSM   C16F12981   3.569   5.191   8.023
  122OSM   H16F12982   3.492   5.271   8.023
  122OSM   H16G12983   3.662   5.248   8.042
  122OSM   C17F12984   3.540   5.100   8.138
  122OSM   H17F12985   3.625   5.030   8.157
  122OSM   H17G12986   3.445   5.051   8.109
  122OSM   C18F12987   3.498   5.161   8.269
  122OSM   H18F12988   3.587   5.196   8.326
  122OSM   H18G12989   3.452   5.081   8.331
  122OSM   H18H12990   3.410   5.228   8.262
  123OSM      N12991   1.007   0.933   6.177
  123OSM    C1512992   0.971   0.992   6.044
  123OSM   H15A12993   1.049   0.979   5.971
  123OSM   H15B12994   0.953   1.097   6.059
  123OSM   H15C12995   0.895   0.932   5.997
  123OSM    C1412996   1.067   0.797   6.169
  123OSM   H14A12997   1.148   0.812   6.100
  123OSM   H14B12998   1.001   0.723   6.125
  123OSM   H14C12999   1.097   0.754   6.263
  123OSM    C1313000   1.123   1.014   6.222
  123OSM   H13A13001   1.211   0.999   6.161
  123OSM   H13B13002   1.146   1.006   6.327
  123OSM   H13C13003   1.102   1.119   6.208
  123OSM    C1213004   0.894   0.948   6.279
  123OSM   H12A13005   0.821   0.872   6.256
  123OSM   H12B13006   0.841   1.041   6.267
  123OSM    C1113007   0.927   0.918   6.430
  123OSM   H11A13008   0.840   0.955   6.489
  123OSM   H11B13009   1.016   0.979   6.457
  123OSM      P13010   0.829   0.686   6.476
  123OSM    O1313011   0.721   0.701   6.382
  123OSM    O1413012   0.881   0.551   6.494
  123OSM    O1113013   0.791   0.738   6.616
  123OSM    O1213014   0.948   0.785   6.447
  123OSM    C1S13015   0.883   0.757   6.723
  123OSM    H1S13016   0.975   0.806   6.686
  123OSM    H1T13017   0.913   0.655   6.752
  123OSM     NF13018   0.905   0.855   6.950
  123OSM    HNF13019   0.899   0.798   7.032
  123OSM    C2S13020   0.807   0.834   6.840
  123OSM    H2S13021   0.778   0.931   6.795
  123OSM    C3S13022   0.683   0.749   6.891
  123OSM    H3S13023   0.717   0.647   6.919
  123OSM     O313024   0.596   0.705   6.788
  123OSM    HO313025   0.628   0.737   6.703
  123OSM    C4S13026   0.616   0.816   7.010
  123OSM    H4S13027   0.661   0.766   7.097
  123OSM    C5S13028   0.508   0.901   7.025
  123OSM    H5S13029   0.447   0.927   6.937
  123OSM    C6S13030   0.457   0.932   7.164
  123OSM    H6S13031   0.347   0.928   7.151
  123OSM    H6T13032   0.479   1.038   7.189
  123OSM    C7S13033   0.500   0.836   7.281
  123OSM    H7S13034   0.606   0.853   7.306
  123OSM    H7T13035   0.477   0.733   7.246
  123OSM    C8S13036   0.437   0.868   7.414
  123OSM    H8S13037   0.329   0.853   7.393
  123OSM    H8T13038   0.440   0.972   7.454
  123OSM    C9S13039   0.474   0.772   7.526
  123OSM    H9S13040   0.585   0.781   7.532
  123OSM    H9T13041   0.436   0.671   7.500
  123OSM   C10S13042   0.415   0.825   7.666
  123OSM   H10S13043   0.423   0.936   7.668
  123OSM   H10T13044   0.470   0.775   7.748
  123OSM   C11S13045   0.264   0.783   7.673
  123OSM   H11S13046   0.265   0.672   7.677
  123OSM   H11T13047   0.217   0.803   7.575
  123OSM   C12S13048   0.174   0.839   7.782
  123OSM   H12S13049   0.077   0.784   7.785
  123OSM   H12T13050   0.158   0.944   7.750
  123OSM   C13S13051   0.242   0.854   7.918
  123OSM   H13S13052   0.345   0.895   7.916
  123OSM   H13T13053   0.263   0.750   7.951
  123OSM   C14S13054   0.151   0.930   8.017
  123OSM   H14S13055   0.050   0.884   8.031
  123OSM   H14T13056   0.137   1.031   7.974
  123OSM   C15S13057   0.204   0.926   8.161
  123OSM   H15S13058   0.307   0.967   8.158
  123OSM   H15T13059   0.208   0.819   8.190
  123OSM   C16S13060   0.107   0.996   8.266
  123OSM   H16S13061   0.173   0.987   8.355
  123OSM   H16T13062   0.011   0.944   8.288
  123OSM   C17S13063   0.093   1.142   8.221
  123OSM   H17S13064   0.035   1.146   8.127
  123OSM   H17T13065   0.195   1.182   8.204
  123OSM   C18S13066   0.011   1.222   8.323
  123OSM   H18S13067   0.058   1.220   8.423
  123OSM   H18T13068  -0.097   1.195   8.325
  123OSM   H18U13069   0.009   1.326   8.284
  123OSM    C1F13070   1.010   0.941   6.943
  123OSM     OF13071   1.031   1.016   6.844
  123OSM    C2F13072   1.102   0.937   7.060
  123OSM    H2F13073   1.207   0.919   7.027
  123OSM    H2G13074   1.074   0.857   7.132
  123OSM    C3F13075   1.087   1.070   7.136
  123OSM    H3F13076   1.105   1.157   7.071
  123OSM    H3G13077   1.158   1.080   7.221
  123OSM    C4F13078   0.938   1.084   7.194
  123OSM    H4F13079   0.915   0.992   7.252
  123OSM    H4G13080   0.872   1.102   7.107
  123OSM    C5F13081   0.930   1.205   7.291
  123OSM    H5F13082   0.997   1.286   7.254
  123OSM    H5G13083   0.965   1.168   7.389
  123OSM    C6F13084   0.791   1.271   7.315
  123OSM    H6F13085   0.754   1.310   7.218
  123OSM    H6G13086   0.807   1.368   7.366
  123OSM    C7F13087   0.684   1.180   7.374
  123OSM    H7F13088   0.681   1.083   7.322
  123OSM    H7G13089   0.587   1.233   7.364
  123OSM    C8F13090   0.707   1.139   7.519
  123OSM    H8F13091   0.804   1.087   7.532
  123OSM    H8G13092   0.619   1.083   7.556
  123OSM    C9F13093   0.691   1.266   7.604
  123OSM    H9F13094   0.604   1.331   7.590
  123OSM   C10F13095   0.779   1.297   7.705
  123OSM   H10F13096   0.762   1.389   7.763
  123OSM   C11F13097   0.894   1.210   7.755
  123OSM   H11F13098   0.994   1.253   7.732
  123OSM   H11G13099   0.888   1.108   7.712
  123OSM   C12F13100   0.884   1.217   7.910
  123OSM   H12F13101   0.896   1.322   7.945
  123OSM   H12G13102   0.958   1.144   7.950
  123OSM   C13F13103   0.758   1.177   7.981
  123OSM   H13F13104   0.733   1.074   7.946
  123OSM   H13G13105   0.671   1.240   7.954
  123OSM   C14F13106   0.773   1.187   8.133
  123OSM   H14F13107   0.675   1.222   8.173
  123OSM   H14G13108   0.858   1.255   8.153
  123OSM   C15F13109   0.803   1.045   8.192
  123OSM   H15F13110   0.893   0.997   8.147
  123OSM   H15G13111   0.717   0.979   8.168
  123OSM   C16F13112   0.843   1.057   8.341
  123OSM   H16F13113   0.759   1.107   8.395
  123OSM   H16G13114   0.936   1.118   8.340
  123OSM   C17F13115   0.865   0.918   8.400
  123OSM   H17F13116   0.946   0.872   8.339
  123OSM   H17G13117   0.776   0.853   8.388
  123OSM   C18F13118   0.914   0.923   8.544
  123OSM   H18F13119   1.018   0.965   8.546
  123OSM   H18G13120   0.925   0.821   8.585
  123OSM   H18H13121   0.845   0.980   8.609
  124OSM      N13122   0.876   4.147   6.140
  124OSM    C1513123   0.953   4.119   6.010
  124OSM   H15A13124   1.023   4.039   6.029
  124OSM   H15B13125   1.017   4.197   5.971
  124OSM   H15C13126   0.892   4.097   5.923
  124OSM    C1413127   0.806   4.276   6.138
  124OSM   H14A13128   0.874   4.354   6.108
  124OSM   H14B13129   0.761   4.303   6.233
  124OSM   H14C13130   0.721   4.281   6.073
  124OSM    C1313131   0.785   4.023   6.164
  124OSM   H13A13132   0.710   4.017   6.086
  124OSM   H13B13133   0.734   4.014   6.259
  124OSM   H13C13134   0.844   3.935   6.144
  124OSM    C1213135   0.979   4.156   6.251
  124OSM   H12A13136   0.921   4.185   6.338
  124OSM   H12B13137   1.055   4.229   6.227
  124OSM    C1113138   1.063   4.024   6.283
  124OSM   H11A13139   0.990   3.943   6.305
  124OSM   H11B13140   1.128   4.034   6.373
  124OSM      P13141   1.213   3.845   6.159
  124OSM    O1313142   1.108   3.745   6.179
  124OSM    O1413143   1.290   3.852   6.033
  124OSM    O1113144   1.323   3.838   6.279
  124OSM    O1213145   1.141   3.987   6.170
  124OSM    C1S13146   1.411   3.946   6.310
  124OSM    H1S13147   1.365   4.044   6.332
  124OSM    H1T13148   1.497   3.958   6.241
  124OSM     NF13149   1.580   4.015   6.479
  124OSM    HNF13150   1.679   4.003   6.473
  124OSM    C2S13151   1.494   3.903   6.432
  124OSM    H2S13152   1.423   3.871   6.512
  124OSM    C3S13153   1.577   3.775   6.405
  124OSM    H3S13154   1.663   3.807   6.343
  124OSM     O313155   1.512   3.675   6.328
  124OSM    HO313156   1.440   3.719   6.281
  124OSM    C4S13157   1.630   3.707   6.537
  124OSM    H4S13158   1.698   3.770   6.596
  124OSM    C5S13159   1.620   3.577   6.577
  124OSM    H5S13160   1.562   3.510   6.512
  124OSM    C6S13161   1.700   3.518   6.696
  124OSM    H6S13162   1.779   3.445   6.668
  124OSM    H6T13163   1.626   3.463   6.758
  124OSM    C7S13164   1.766   3.611   6.795
  124OSM    H7S13165   1.693   3.660   6.862
  124OSM    H7T13166   1.799   3.697   6.734
  124OSM    C8S13167   1.883   3.551   6.873
  124OSM    H8S13168   1.946   3.634   6.912
  124OSM    H8T13169   1.943   3.485   6.807
  124OSM    C9S13170   1.839   3.468   6.997
  124OSM    H9S13171   1.921   3.395   7.013
  124OSM    H9T13172   1.737   3.430   6.975
  124OSM   C10S13173   1.828   3.545   7.129
  124OSM   H10S13174   1.734   3.605   7.126
  124OSM   H10T13175   1.901   3.629   7.133
  124OSM   C11S13176   1.824   3.457   7.253
  124OSM   H11S13177   1.916   3.394   7.249
  124OSM   H11T13178   1.736   3.393   7.233
  124OSM   C12S13179   1.806   3.546   7.375
  124OSM   H12S13180   1.799   3.478   7.463
  124OSM   H12T13181   1.724   3.621   7.372
  124OSM   C13S13182   1.930   3.627   7.412
  124OSM   H13S13183   1.959   3.697   7.330
  124OSM   H13T13184   2.010   3.551   7.428
  124OSM   C14S13185   1.913   3.708   7.547
  124OSM   H14S13186   1.885   3.650   7.637
  124OSM   H14T13187   1.827   3.772   7.519
  124OSM   C15S13188   2.042   3.791   7.582
  124OSM   H15S13189   2.075   3.846   7.492
  124OSM   H15T13190   2.126   3.721   7.603
  124OSM   C16S13191   2.014   3.879   7.704
  124OSM   H16S13192   1.992   3.819   7.794
  124OSM   H16T13193   1.930   3.949   7.686
  124OSM   C17S13194   2.139   3.965   7.736
  124OSM   H17S13195   2.157   4.046   7.662
  124OSM   H17T13196   2.228   3.899   7.727
  124OSM   C18S13197   2.136   4.002   7.882
  124OSM   H18S13198   2.233   4.039   7.920
  124OSM   H18T13199   2.118   3.916   7.950
  124OSM   H18U13200   2.059   4.078   7.906
  124OSM    C1F13201   1.518   4.119   6.534
  124OSM     OF13202   1.408   4.110   6.581
  124OSM    C2F13203   1.587   4.255   6.525
  124OSM    H2F13204   1.586   4.290   6.420
  124OSM    H2G13205   1.696   4.236   6.538
  124OSM    C3F13206   1.550   4.361   6.632
  124OSM    H3F13207   1.442   4.386   6.623
  124OSM    H3G13208   1.586   4.463   6.608
  124OSM    C4F13209   1.546   4.321   6.784
  124OSM    H4F13210   1.651   4.334   6.819
  124OSM    H4G13211   1.511   4.217   6.800
  124OSM    C5F13212   1.455   4.411   6.879
  124OSM    H5F13213   1.357   4.416   6.827
  124OSM    H5G13214   1.506   4.509   6.883
  124OSM    C6F13215   1.431   4.367   7.027
  124OSM    H6F13216   1.394   4.263   7.023
  124OSM    H6G13217   1.345   4.434   7.048
  124OSM    C7F13218   1.547   4.396   7.125
  124OSM    H7F13219   1.612   4.476   7.083
  124OSM    H7G13220   1.607   4.303   7.135
  124OSM    C8F13221   1.487   4.427   7.270
  124OSM    H8F13222   1.421   4.516   7.261
  124OSM    H8G13223   1.577   4.451   7.330
  124OSM    C9F13224   1.413   4.315   7.333
  124OSM    H9F13225   1.401   4.226   7.271
  124OSM   C10F13226   1.336   4.323   7.444
  124OSM   H10F13227   1.277   4.236   7.478
  124OSM   C11F13228   1.333   4.431   7.541
  124OSM   H11F13229   1.230   4.471   7.554
  124OSM   H11G13230   1.389   4.521   7.508
  124OSM   C12F13231   1.377   4.396   7.693
  124OSM   H12F13232   1.425   4.492   7.722
  124OSM   H12G13233   1.461   4.323   7.691
  124OSM   C13F13234   1.273   4.347   7.788
  124OSM   H13F13235   1.220   4.254   7.756
  124OSM   H13G13236   1.198   4.428   7.793
  124OSM   C14F13237   1.318   4.311   7.935
  124OSM   H14F13238   1.383   4.222   7.942
  124OSM   H14G13239   1.228   4.279   7.991
  124OSM   C15F13240   1.381   4.435   7.997
  124OSM   H15F13241   1.331   4.525   7.955
  124OSM   H15G13242   1.489   4.450   7.975
  124OSM   C16F13243   1.371   4.426   8.150
  124OSM   H16F13244   1.422   4.333   8.184
  124OSM   H16G13245   1.267   4.436   8.190
  124OSM   C17F13246   1.458   4.531   8.222
  124OSM   H17F13247   1.429   4.629   8.179
  124OSM   H17G13248   1.565   4.512   8.196
  124OSM   C18F13249   1.430   4.525   8.371
  124OSM   H18F13250   1.418   4.420   8.407
  124OSM   H18G13251   1.345   4.590   8.405
  124OSM   H18H13252   1.516   4.563   8.431
  125OSM      N13253   4.259   2.891   6.169
  125OSM    C1513254   4.134   2.915   6.247
  125OSM   H15A13255   4.138   2.872   6.346
  125OSM   H15B13256   4.061   2.854   6.196
  125OSM   H15C13257   4.115   3.021   6.250
  125OSM    C1413258   4.270   2.971   6.048
  125OSM   H14A13259   4.184   2.962   5.983
  125OSM   H14B13260   4.360   2.945   5.995
  125OSM   H14C13261   4.269   3.074   6.080
  125OSM    C1313262   4.361   2.941   6.264
  125OSM   H13A13263   4.454   2.925   6.212
  125OSM   H13B13264   4.371   2.883   6.354
  125OSM   H13C13265   4.349   3.046   6.286
  125OSM    C1213266   4.275   2.738   6.140
  125OSM   H12A13267   4.224   2.705   6.050
  125OSM   H12B13268   4.234   2.687   6.226
  125OSM    C1113269   4.410   2.679   6.110
  125OSM   H11A13270   4.454   2.741   6.029
  125OSM   H11B13271   4.387   2.582   6.062
  125OSM      P13272   4.645   2.717   6.228
  125OSM    O1313273   4.721   2.598   6.177
  125OSM    O1413274   4.662   2.838   6.146
  125OSM    O1113275   4.678   2.757   6.381
  125OSM    O1213276   4.490   2.682   6.228
  125OSM    C1S13277   4.623   2.681   6.489
  125OSM    H1S13278   4.656   2.575   6.482
  125OSM    H1T13279   4.513   2.693   6.479
  125OSM     NF13280   4.607   2.649   6.739
  125OSM    HNF13281   4.512   2.664   6.764
  125OSM    C2S13282   4.657   2.738   6.630
  125OSM    H2S13283   4.765   2.754   6.650
  125OSM    C3S13284   4.605   2.887   6.635
  125OSM    H3S13285   4.494   2.883   6.635
  125OSM     O313286   4.639   2.964   6.512
  125OSM    HO313287   4.678   2.894   6.459
  125OSM    C4S13288   4.654   2.969   6.754
  125OSM    H4S13289   4.758   2.949   6.786
  125OSM    C5S13290   4.577   3.062   6.817
  125OSM    H5S13291   4.472   3.079   6.788
  125OSM    C6S13292   4.634   3.151   6.929
  125OSM    H6S13293   4.601   3.257   6.930
  125OSM    H6T13294   4.744   3.145   6.923
  125OSM    C7S13295   4.601   3.107   7.073
  125OSM    H7S13296   4.586   2.997   7.074
  125OSM    H7T13297   4.498   3.141   7.098
  125OSM    C8S13298   4.705   3.148   7.171
  125OSM    H8S13299   4.723   3.257   7.177
  125OSM    H8T13300   4.808   3.110   7.149
  125OSM    C9S13301   4.667   3.113   7.314
  125OSM    H9S13302   4.757   3.125   7.378
  125OSM    H9T13303   4.634   3.007   7.311
  125OSM   C10S13304   4.547   3.201   7.363
  125OSM   H10S13305   4.461   3.132   7.382
  125OSM   H10T13306   4.516   3.273   7.285
  125OSM   C11S13307   4.577   3.268   7.497
  125OSM   H11S13308   4.515   3.361   7.499
  125OSM   H11T13309   4.682   3.303   7.493
  125OSM   C12S13310   4.558   3.167   7.613
  125OSM   H12S13311   4.638   3.090   7.613
  125OSM   H12T13312   4.467   3.107   7.590
  125OSM   C13S13313   4.544   3.231   7.755
  125OSM   H13S13314   4.460   3.303   7.764
  125OSM   H13T13315   4.641   3.281   7.777
  125OSM   C14S13316   4.538   3.119   7.855
  125OSM   H14S13317   4.602   3.033   7.825
  125OSM   H14T13318   4.434   3.082   7.842
  125OSM   C15S13319   4.570   3.160   8.004
  125OSM   H15S13320   4.483   3.217   8.043
  125OSM   H15T13321   4.654   3.233   7.995
  125OSM   C16S13322   4.616   3.043   8.093
  125OSM   H16S13323   4.726   3.031   8.096
  125OSM   H16T13324   4.570   2.950   8.054
  125OSM   C17S13325   4.562   3.064   8.235
  125OSM   H17S13326   4.451   3.055   8.230
  125OSM   H17T13327   4.600   3.163   8.264
  125OSM   C18S13328   4.616   2.954   8.331
  125OSM   H18S13329   4.576   2.856   8.298
  125OSM   H18T13330   4.587   2.966   8.438
  125OSM   H18U13331   4.727   2.951   8.334
  125OSM    C1F13332   4.660   2.529   6.772
  125OSM     OF13333   4.762   2.492   6.714
  125OSM    C2F13334   4.592   2.444   6.882
  125OSM    H2F13335   4.525   2.373   6.829
  125OSM    H2G13336   4.526   2.497   6.953
  125OSM    C3F13337   4.692   2.362   6.964
  125OSM    H3F13338   4.755   2.429   7.025
  125OSM    H3G13339   4.763   2.307   6.899
  125OSM    C4F13340   4.624   2.264   7.054
  125OSM    H4F13341   4.682   2.170   7.070
  125OSM    H4G13342   4.526   2.237   7.008
  125OSM    C5F13343   4.611   2.337   7.196
  125OSM    H5F13344   4.575   2.441   7.185
  125OSM    H5G13345   4.715   2.336   7.235
  125OSM    C6F13346   4.519   2.271   7.291
  125OSM    H6F13347   4.530   2.161   7.297
  125OSM    H6G13348   4.418   2.284   7.247
  125OSM    C7F13349   4.527   2.336   7.427
  125OSM    H7F13350   4.532   2.446   7.416
  125OSM    H7G13351   4.630   2.317   7.462
  125OSM    C8F13352   4.433   2.293   7.537
  125OSM    H8F13353   4.438   2.183   7.545
  125OSM    H8G13354   4.330   2.321   7.506
  125OSM    C9F13355   4.446   2.380   7.656
  125OSM    H9F13356   4.461   2.488   7.641
  125OSM   C10F13357   4.430   2.344   7.782
  125OSM   H10F13358   4.421   2.424   7.857
  125OSM   C11F13359   4.417   2.205   7.842
  125OSM   H11F13360   4.404   2.129   7.762
  125OSM   H11G13361   4.324   2.208   7.903
  125OSM   C12F13362   4.532   2.186   7.934
  125OSM   H12F13363   4.631   2.224   7.902
  125OSM   H12G13364   4.550   2.077   7.946
  125OSM   C13F13365   4.508   2.253   8.072
  125OSM   H13F13366   4.506   2.363   8.062
  125OSM   H13G13367   4.597   2.242   8.138
  125OSM   C14F13368   4.391   2.205   8.145
  125OSM   H14F13369   4.380   2.095   8.129
  125OSM   H14G13370   4.295   2.243   8.104
  125OSM   C15F13371   4.385   2.232   8.298
  125OSM   H15F13372   4.418   2.334   8.329
  125OSM   H15G13373   4.457   2.166   8.351
  125OSM   C16F13374   4.245   2.209   8.344
  125OSM   H16F13375   4.210   2.107   8.319
  125OSM   H16G13376   4.176   2.281   8.293
  125OSM   C17F13377   4.223   2.231   8.495
  125OSM   H17F13378   4.289   2.307   8.542
  125OSM   H17G13379   4.252   2.130   8.532
  125OSM   C18F13380   4.081   2.255   8.539
  125OSM   H18F13381   4.068   2.221   8.644
  125OSM   H18G13382   4.021   2.190   8.472
  125OSM   H18H13383   4.052   2.361   8.519
  126OSM      N13384   2.050   6.647   6.356
  126OSM    C1513385   2.143   6.612   6.478
  126OSM   H15A13386   2.091   6.617   6.573
  126OSM   H15B13387   2.232   6.673   6.479
  126OSM   H15C13388   2.188   6.515   6.463
  126OSM    C1413389   2.132   6.659   6.231
  126OSM   H14A13390   2.075   6.710   6.155
  126OSM   H14B13391   2.157   6.559   6.200
  126OSM   H14C13392   2.228   6.706   6.245
  126OSM    C1313393   1.943   6.544   6.336
  126OSM   H13A13394   1.965   6.460   6.271
  126OSM   H13B13395   1.850   6.572   6.290
  126OSM   H13C13396   1.915   6.499   6.430
  126OSM    C1213397   1.984   6.786   6.377
  126OSM   H12A13398   1.918   6.807   6.293
  126OSM   H12B13399   2.060   6.862   6.380
  126OSM    C1113400   1.897   6.801   6.506
  126OSM   H11A13401   1.860   6.704   6.545
  126OSM   H11B13402   1.804   6.861   6.494
  126OSM      P13403   2.004   7.007   6.622
  126OSM    O1313404   2.103   7.032   6.725
  126OSM    O1413405   2.030   7.070   6.489
  126OSM    O1113406   1.865   7.065   6.672
  126OSM    O1213407   1.976   6.851   6.614
  126OSM    C1S13408   1.778   6.993   6.761
  126OSM    H1S13409   1.826   6.895   6.783
  126OSM    H1T13410   1.675   6.985   6.720
  126OSM     NF13411   1.698   6.960   7.000
  126OSM    HNF13412   1.605   6.977   7.029
  126OSM    C2S13413   1.761   7.054   6.908
  126OSM    H2S13414   1.867   7.062   6.939
  126OSM    C3S13415   1.686   7.186   6.906
  126OSM    H3S13416   1.579   7.164   6.886
  126OSM     O313417   1.729   7.282   6.802
  126OSM    HO313418   1.774   7.228   6.736
  126OSM    C4S13419   1.688   7.258   7.043
  126OSM    H4S13420   1.616   7.214   7.113
  126OSM    C5S13421   1.773   7.354   7.084
  126OSM    H5S13422   1.838   7.392   7.004
  126OSM    C6S13423   1.769   7.417   7.222
  126OSM    H6S13424   1.727   7.519   7.206
  126OSM    H6T13425   1.869   7.414   7.269
  126OSM    C7S13426   1.662   7.348   7.318
  126OSM    H7S13427   1.679   7.239   7.327
  126OSM    H7T13428   1.556   7.366   7.291
  126OSM    C8S13429   1.684   7.394   7.461
  126OSM    H8S13430   1.672   7.504   7.456
  126OSM    H8T13431   1.788   7.375   7.494
  126OSM    C9S13432   1.584   7.332   7.556
  126OSM    H9S13433   1.591   7.221   7.550
  126OSM    H9T13434   1.486   7.357   7.509
  126OSM   C10S13435   1.591   7.365   7.703
  126OSM   H10S13436   1.592   7.475   7.719
  126OSM   H10T13437   1.694   7.349   7.740
  126OSM   C11S13438   1.477   7.301   7.783
  126OSM   H11S13439   1.487   7.193   7.762
  126OSM   H11T13440   1.373   7.328   7.757
  126OSM   C12S13441   1.502   7.329   7.939
  126OSM   H12S13442   1.488   7.435   7.968
  126OSM   H12T13443   1.600   7.298   7.980
  126OSM   C13S13444   1.408   7.250   8.034
  126OSM   H13S13445   1.410   7.143   8.005
  126OSM   H13T13446   1.305   7.283   8.008
  126OSM   C14S13447   1.438   7.270   8.178
  126OSM   H14S13448   1.404   7.374   8.199
  126OSM   H14T13449   1.546   7.253   8.200
  126OSM   C15S13450   1.352   7.180   8.269
  126OSM   H15S13451   1.395   7.078   8.257
  126OSM   H15T13452   1.251   7.171   8.223
  126OSM   C16S13453   1.339   7.231   8.412
  126OSM   H16S13454   1.257   7.171   8.457
  126OSM   H16T13455   1.307   7.337   8.419
  126OSM   C17S13456   1.468   7.199   8.488
  126OSM   H17S13457   1.561   7.230   8.436
  126OSM   H17T13458   1.477   7.088   8.479
  126OSM   C18S13459   1.478   7.245   8.633
  126OSM   H18S13460   1.577   7.233   8.682
  126OSM   H18T13461   1.405   7.193   8.698
  126OSM   H18U13462   1.475   7.356   8.642
  126OSM    C1F13463   1.746   6.839   7.029
  126OSM     OF13464   1.863   6.809   7.015
  126OSM    C2F13465   1.655   6.743   7.093
  126OSM    H2F13466   1.566   6.722   7.030
  126OSM    H2G13467   1.631   6.784   7.193
  126OSM    C3F13468   1.714   6.600   7.112
  126OSM    H3F13469   1.741   6.554   7.014
  126OSM    H3G13470   1.632   6.539   7.155
  126OSM    C4F13471   1.809   6.571   7.230
  126OSM    H4F13472   1.901   6.633   7.219
  126OSM    H4G13473   1.840   6.465   7.215
  126OSM    C5F13474   1.762   6.589   7.368
  126OSM    H5F13475   1.667   6.535   7.387
  126OSM    H5G13476   1.737   6.697   7.377
  126OSM    C6F13477   1.856   6.551   7.483
  126OSM    H6F13478   1.949   6.612   7.489
  126OSM    H6G13479   1.890   6.445   7.477
  126OSM    C7F13480   1.787   6.567   7.615
  126OSM    H7F13481   1.691   6.513   7.612
  126OSM    H7G13482   1.766   6.676   7.623
  126OSM    C8F13483   1.869   6.530   7.736
  126OSM    H8F13484   1.963   6.589   7.737
  126OSM    H8G13485   1.898   6.423   7.726
  126OSM    C9F13486   1.789   6.540   7.859
  126OSM    H9F13487   1.704   6.609   7.860
  126OSM   C10F13488   1.821   6.478   7.974
  126OSM   H10F13489   1.759   6.500   8.062
  126OSM   C11F13490   1.934   6.383   8.009
  126OSM   H11F13491   1.977   6.355   7.910
  126OSM   H11G13492   1.905   6.287   8.056
  126OSM   C12F13493   2.043   6.447   8.099
  126OSM   H12F13494   2.087   6.534   8.045
  126OSM   H12G13495   2.125   6.375   8.120
  126OSM   C13F13496   2.010   6.507   8.238
  126OSM   H13F13497   1.928   6.580   8.226
  126OSM   H13G13498   2.109   6.543   8.274
  126OSM   C14F13499   1.967   6.409   8.335
  126OSM   H14F13500   2.019   6.311   8.325
  126OSM   H14G13501   1.860   6.386   8.317
  126OSM   C15F13502   1.990   6.460   8.481
  126OSM   H15F13503   1.957   6.566   8.482
  126OSM   H15G13504   2.098   6.471   8.504
  126OSM   C16F13505   1.915   6.383   8.585
  126OSM   H16F13506   1.940   6.275   8.581
  126OSM   H16G13507   1.807   6.385   8.559
  126OSM   C17F13508   1.940   6.436   8.727
  126OSM   H17F13509   1.929   6.546   8.740
  126OSM   H17G13510   2.049   6.423   8.749
  126OSM   C18F13511   1.850   6.366   8.826
  126OSM   H18F13512   1.873   6.258   8.821
  126OSM   H18G13513   1.743   6.384   8.804
  126OSM   H18H13514   1.864   6.411   8.927
  127OSM      N13515   0.405   1.079   6.405
  127OSM    C1513516   0.368   1.174   6.521
  127OSM   H15A13517   0.261   1.189   6.517
  127OSM   H15B13518   0.423   1.267   6.520
  127OSM   H15C13519   0.390   1.121   6.612
  127OSM    C1413520   0.476   1.154   6.296
  127OSM   H14A13521   0.573   1.184   6.333
  127OSM   H14B13522   0.422   1.242   6.264
  127OSM   H14C13523   0.486   1.090   6.209
  127OSM    C1313524   0.492   0.967   6.463
  127OSM   H13A13525   0.514   0.892   6.389
  127OSM   H13B13526   0.432   0.920   6.540
  127OSM   H13C13527   0.589   1.003   6.496
  127OSM    C1213528   0.277   1.027   6.349
  127OSM   H12A13529   0.218   0.994   6.433
  127OSM   H12B13530   0.306   0.948   6.282
  127OSM    C1113531   0.178   1.124   6.287
  127OSM   H11A13532   0.101   1.063   6.234
  127OSM   H11B13533   0.233   1.177   6.206
  127OSM      P13534   0.048   1.337   6.337
  127OSM    O1313535   0.121   1.390   6.218
  127OSM    O1413536  -0.094   1.289   6.315
  127OSM    O1113537   0.060   1.440   6.454
  127OSM    O1213538   0.121   1.211   6.384
  127OSM    C1S13539   0.048   1.405   6.591
  127OSM    H1S13540   0.135   1.347   6.631
  127OSM    H1T13541  -0.035   1.335   6.612
  127OSM     NF13542   0.018   1.476   6.831
  127OSM    HNF13543  -0.076   1.477   6.863
  127OSM    C2S13544   0.030   1.527   6.694
  127OSM    H2S13545   0.120   1.593   6.695
  127OSM    C3S13546  -0.082   1.630   6.652
  127OSM    H3S13547  -0.182   1.584   6.667
  127OSM     O313548  -0.071   1.663   6.511
  127OSM    HO313549  -0.012   1.592   6.486
  127OSM    C4S13550  -0.076   1.751   6.740
  127OSM    H4S13551   0.025   1.788   6.765
  127OSM    C5S13552  -0.179   1.810   6.796
  127OSM    H5S13553  -0.281   1.769   6.791
  127OSM    C6S13554  -0.170   1.921   6.896
  127OSM    H6S13555  -0.250   1.899   6.969
  127OSM    H6T13556  -0.187   2.022   6.853
  127OSM    C7S13557  -0.045   1.931   6.986
  127OSM    H7S13558   0.033   1.949   6.909
  127OSM    H7T13559  -0.022   1.838   7.043
  127OSM    C8S13560  -0.057   2.041   7.096
  127OSM    H8S13561  -0.121   2.009   7.181
  127OSM    H8T13562  -0.103   2.124   7.037
  127OSM    C9S13563   0.085   2.090   7.136
  127OSM    H9S13564   0.128   2.173   7.075
  127OSM    H9T13565   0.165   2.014   7.125
  127OSM   C10S13566   0.093   2.141   7.280
  127OSM   H10S13567   0.187   2.101   7.324
  127OSM   H10T13568   0.005   2.128   7.347
  127OSM   C11S13569   0.112   2.293   7.274
  127OSM   H11S13570   0.028   2.338   7.217
  127OSM   H11T13571   0.207   2.301   7.217
  127OSM   C12S13572   0.128   2.364   7.412
  127OSM   H12S13573   0.126   2.474   7.397
  127OSM   H12T13574   0.227   2.337   7.456
  127OSM   C13S13575   0.012   2.339   7.507
  127OSM   H13S13576  -0.011   2.231   7.515
  127OSM   H13T13577  -0.073   2.392   7.457
  127OSM   C14S13578   0.023   2.385   7.649
  127OSM   H14S13579  -0.063   2.335   7.698
  127OSM   H14T13580   0.013   2.495   7.662
  127OSM   C15S13581   0.150   2.340   7.718
  127OSM   H15S13582   0.222   2.400   7.659
  127OSM   H15T13583   0.167   2.230   7.720
  127OSM   C16S13584   0.158   2.383   7.867
  127OSM   H16S13585   0.117   2.301   7.930
  127OSM   H16T13586   0.088   2.468   7.883
  127OSM   C17S13587   0.300   2.416   7.924
  127OSM   H17S13588   0.335   2.518   7.899
  127OSM   H17T13589   0.371   2.353   7.867
  127OSM   C18S13590   0.309   2.406   8.074
  127OSM   H18S13591   0.415   2.431   8.100
  127OSM   H18T13592   0.278   2.309   8.117
  127OSM   H18U13593   0.242   2.480   8.123
  127OSM    C1F13594   0.114   1.419   6.898
  127OSM     OF13595   0.226   1.407   6.850
  127OSM    C2F13596   0.080   1.363   7.029
  127OSM    H2F13597   0.040   1.261   7.012
  127OSM    H2G13598   0.005   1.433   7.071
  127OSM    C3F13599   0.199   1.347   7.131
  127OSM    H3F13600   0.241   1.450   7.140
  127OSM    H3G13601   0.275   1.274   7.095
  127OSM    C4F13602   0.160   1.295   7.269
  127OSM    H4F13603   0.110   1.196   7.268
  127OSM    H4G13604   0.085   1.362   7.315
  127OSM    C5F13605   0.279   1.288   7.365
  127OSM    H5F13606   0.341   1.379   7.355
  127OSM    H5G13607   0.327   1.192   7.337
  127OSM    C6F13608   0.230   1.287   7.509
  127OSM    H6F13609   0.179   1.189   7.515
  127OSM    H6G13610   0.173   1.378   7.536
  127OSM    C7F13611   0.356   1.291   7.611
  127OSM    H7F13612   0.412   1.382   7.581
  127OSM    H7G13613   0.425   1.206   7.597
  127OSM    C8F13614   0.317   1.296   7.765
  127OSM    H8F13615   0.388   1.230   7.820
  127OSM    H8G13616   0.223   1.237   7.760
  127OSM    C9F13617   0.287   1.421   7.836
  127OSM    H9F13618   0.369   1.493   7.847
  127OSM   C10F13619   0.171   1.461   7.891
  127OSM   H10F13620   0.174   1.540   7.968
  127OSM   C11F13621   0.033   1.394   7.879
  127OSM   H11F13622  -0.021   1.400   7.976
  127OSM   H11G13623   0.047   1.285   7.866
  127OSM   C12F13624  -0.056   1.457   7.767
  127OSM   H12F13625   0.000   1.544   7.728
  127OSM   H12G13626  -0.141   1.506   7.818
  127OSM   C13F13627  -0.094   1.367   7.652
  127OSM   H13F13628  -0.174   1.294   7.674
  127OSM   H13G13629  -0.005   1.305   7.627
  127OSM   C14F13630  -0.135   1.446   7.522
  127OSM   H14F13631  -0.135   1.380   7.432
  127OSM   H14G13632  -0.051   1.517   7.507
  127OSM   C15F13633  -0.262   1.525   7.532
  127OSM   H15F13634  -0.272   1.572   7.633
  127OSM   H15G13635  -0.346   1.454   7.524
  127OSM   C16F13636  -0.279   1.642   7.432
  127OSM   H16F13637  -0.212   1.729   7.448
  127OSM   H16G13638  -0.377   1.687   7.457
  127OSM   C17F13639  -0.271   1.591   7.290
  127OSM   H17F13640  -0.329   1.496   7.289
  127OSM   H17G13641  -0.167   1.568   7.259
  127OSM   C18F13642  -0.322   1.700   7.195
  127OSM   H18F13643  -0.336   1.680   7.086
  127OSM   H18G13644  -0.258   1.791   7.193
  127OSM   H18H13645  -0.424   1.733   7.226
  128OSM      N13646   6.770   5.332   5.789
  128OSM    C1513647   6.688   5.211   5.750
  128OSM   H15A13648   6.701   5.123   5.810
  128OSM   H15B13649   6.707   5.181   5.648
  128OSM   H15C13650   6.582   5.223   5.765
  128OSM    C1413651   6.912   5.295   5.782
  128OSM   H14A13652   6.939   5.249   5.688
  128OSM   H14B13653   6.935   5.226   5.862
  128OSM   H14C13654   6.975   5.379   5.806
  128OSM    C1313655   6.731   5.443   5.695
  128OSM   H13A13656   6.763   5.427   5.593
  128OSM   H13B13657   6.779   5.531   5.734
  128OSM   H13C13658   6.625   5.457   5.689
  128OSM    C1213659   6.741   5.372   5.938
  128OSM   H12A13660   6.640   5.412   5.942
  128OSM   H12B13661   6.797   5.463   5.951
  128OSM    C1113662   6.755   5.259   6.049
  128OSM   H11A13663   6.699   5.168   6.020
  128OSM   H11B13664   6.711   5.296   6.144
  128OSM      P13665   6.990   5.301   6.157
  128OSM    O1313666   7.119   5.231   6.154
  128OSM    O1413667   6.997   5.440   6.109
  128OSM    O1113668   6.925   5.302   6.300
  128OSM    O1213669   6.888   5.220   6.072
  128OSM    C1S13670   6.892   5.176   6.361
  128OSM    H1S13671   6.980   5.111   6.380
  128OSM    H1T13672   6.822   5.121   6.294
  128OSM     NF13673   6.765   5.057   6.542
  128OSM    HNF13674   6.668   5.035   6.541
  128OSM    C2S13675   6.806   5.189   6.492
  128OSM    H2S13676   6.874   5.239   6.564
  128OSM    C3S13677   6.687   5.284   6.474
  128OSM    H3S13678   6.618   5.228   6.407
  128OSM     O313679   6.718   5.405   6.399
  128OSM    HO313680   6.812   5.402   6.378
  128OSM    C4S13681   6.623   5.315   6.609
  128OSM    H4S13682   6.543   5.243   6.629
  128OSM    C5S13683   6.665   5.394   6.703
  128OSM    H5S13684   6.766   5.438   6.705
  128OSM    C6S13685   6.593   5.399   6.836
  128OSM    H6S13686   6.486   5.370   6.830
  128OSM    H6T13687   6.590   5.507   6.859
  128OSM    C7S13688   6.648   5.317   6.953
  128OSM    H7S13689   6.753   5.347   6.974
  128OSM    H7T13690   6.656   5.208   6.934
  128OSM    C8S13691   6.560   5.333   7.073
  128OSM    H8S13692   6.474   5.263   7.063
  128OSM    H8T13693   6.523   5.437   7.069
  128OSM    C9S13694   6.635   5.315   7.204
  128OSM    H9S13695   6.724   5.380   7.214
  128OSM    H9T13696   6.663   5.209   7.220
  128OSM   C10S13697   6.533   5.350   7.325
  128OSM   H10S13698   6.453   5.273   7.321
  128OSM   H10T13699   6.479   5.440   7.290
  128OSM   C11S13700   6.598   5.346   7.473
  128OSM   H11S13701   6.672   5.428   7.485
  128OSM   H11T13702   6.654   5.251   7.484
  128OSM   C12S13703   6.492   5.356   7.585
  128OSM   H12S13704   6.413   5.278   7.583
  128OSM   H12T13705   6.445   5.454   7.560
  128OSM   C13S13706   6.551   5.363   7.716
  128OSM   H13S13707   6.644   5.423   7.706
  128OSM   H13T13708   6.576   5.256   7.734
  128OSM   C14S13709   6.468   5.400   7.840
  128OSM   H14S13710   6.399   5.313   7.847
  128OSM   H14T13711   6.407   5.491   7.823
  128OSM   C15S13712   6.555   5.406   7.966
  128OSM   H15S13713   6.636   5.476   7.938
  128OSM   H15T13714   6.602   5.312   7.999
  128OSM   C16S13715   6.465   5.433   8.085
  128OSM   H16S13716   6.368   5.382   8.070
  128OSM   H16T13717   6.439   5.541   8.092
  128OSM   C17S13718   6.524   5.384   8.218
  128OSM   H17S13719   6.542   5.277   8.195
  128OSM   H17T13720   6.451   5.388   8.301
  128OSM   C18S13721   6.644   5.454   8.259
  128OSM   H18S13722   6.610   5.559   8.276
  128OSM   H18T13723   6.737   5.442   8.198
  128OSM   H18U13724   6.677   5.431   8.362
  128OSM    C1F13725   6.858   4.982   6.596
  128OSM     OF13726   6.966   5.026   6.632
  128OSM    C2F13727   6.809   4.844   6.644
  128OSM    H2F13728   6.821   4.768   6.563
  128OSM    H2G13729   6.700   4.846   6.666
  128OSM    C3F13730   6.885   4.801   6.775
  128OSM    H3F13731   6.993   4.788   6.751
  128OSM    H3G13732   6.853   4.698   6.800
  128OSM    C4F13733   6.863   4.884   6.899
  128OSM    H4F13734   6.761   4.883   6.943
  128OSM    H4G13735   6.902   4.986   6.880
  128OSM    C5F13736   6.963   4.832   7.012
  128OSM    H5F13737   7.062   4.836   6.962
  128OSM    H5G13738   6.935   4.725   7.024
  128OSM    C6F13739   6.950   4.915   7.142
  128OSM    H6F13740   6.917   5.017   7.111
  128OSM    H6G13741   7.047   4.913   7.196
  128OSM    C7F13742   6.850   4.853   7.235
  128OSM    H7F13743   6.878   4.750   7.265
  128OSM    H7G13744   6.756   4.851   7.177
  128OSM    C8F13745   6.836   4.937   7.364
  128OSM    H8F13746   6.737   4.925   7.414
  128OSM    H8G13747   6.834   5.047   7.348
  128OSM    C9F13748   6.945   4.920   7.463
  128OSM    H9F13749   7.033   4.880   7.410
  128OSM   C10F13750   6.946   4.935   7.592
  128OSM   H10F13751   7.037   4.919   7.652
  128OSM   C11F13752   6.828   4.991   7.669
  128OSM   H11F13753   6.732   4.946   7.637
  128OSM   H11G13754   6.810   5.100   7.651
  128OSM   C12F13755   6.854   4.962   7.820
  128OSM   H12F13756   6.959   4.992   7.840
  128OSM   H12G13757   6.836   4.853   7.833
  128OSM   C13F13758   6.758   5.029   7.914
  128OSM   H13F13759   6.654   4.998   7.889
  128OSM   H13G13760   6.772   5.139   7.902
  128OSM   C14F13761   6.794   4.980   8.054
  128OSM   H14F13762   6.902   5.002   8.065
  128OSM   H14G13763   6.786   4.870   8.040
  128OSM   C15F13764   6.702   5.039   8.165
  128OSM   H15F13765   6.597   5.009   8.145
  128OSM   H15G13766   6.716   5.149   8.154
  128OSM   C16F13767   6.729   4.996   8.302
  128OSM   H16F13768   6.829   5.022   8.342
  128OSM   H16G13769   6.714   4.887   8.316
  128OSM   C17F13770   6.638   5.063   8.412
  128OSM   H17F13771   6.531   5.038   8.401
  128OSM   H17G13772   6.654   5.171   8.392
  128OSM   C18F13773   6.684   5.035   8.551
  128OSM   H18F13774   6.609   5.074   8.624
  128OSM   H18G13775   6.785   5.079   8.566
  128OSM   H18H13776   6.695   4.927   8.573
  129OSM      N13777   4.908   6.479   6.162
  129OSM    C1513778   4.961   6.361   6.249
  129OSM   H15A13779   5.039   6.400   6.313
  129OSM   H15B13780   5.002   6.283   6.186
  129OSM   H15C13781   4.875   6.337   6.308
  129OSM    C1413782   4.796   6.420   6.082
  129OSM   H14A13783   4.833   6.332   6.033
  129OSM   H14B13784   4.766   6.488   6.004
  129OSM   H14C13785   4.707   6.389   6.135
  129OSM    C1313786   4.849   6.583   6.255
  129OSM   H13A13787   4.811   6.657   6.186
  129OSM   H13B13788   4.930   6.615   6.318
  129OSM   H13C13789   4.770   6.544   6.318
  129OSM    C1213790   5.029   6.530   6.087
  129OSM   H12A13791   5.001   6.615   6.027
  129OSM   H12B13792   5.075   6.455   6.024
  129OSM    C1113793   5.144   6.590   6.180
  129OSM   H11A13794   5.227   6.617   6.111
  129OSM   H11B13795   5.193   6.517   6.248
  129OSM      P13796   5.089   6.857   6.196
  129OSM    O1313797   5.216   6.873   6.132
  129OSM    O1413798   4.968   6.875   6.113
  129OSM    O1113799   5.081   6.952   6.330
  129OSM    O1213800   5.094   6.703   6.254
  129OSM    C1S13801   5.056   6.905   6.461
  129OSM    H1S13802   5.155   6.893   6.512
  129OSM    H1T13803   5.011   6.803   6.458
  129OSM     NF13804   4.902   6.927   6.662
  129OSM    HNF13805   4.806   6.900   6.657
  129OSM    C2S13806   4.954   6.993   6.540
  129OSM    H2S13807   5.001   7.085   6.580
  129OSM    C3S13808   4.837   7.042   6.449
  129OSM    H3S13809   4.775   6.957   6.413
  129OSM     O313810   4.877   7.107   6.327
  129OSM    HO313811   4.959   7.062   6.306
  129OSM    C4S13812   4.733   7.117   6.524
  129OSM    H4S13813   4.653   7.061   6.574
  129OSM    C5S13814   4.726   7.250   6.538
  129OSM    H5S13815   4.807   7.315   6.503
  129OSM    C6S13816   4.630   7.307   6.642
  129OSM    H6S13817   4.563   7.225   6.674
  129OSM    H6T13818   4.576   7.387   6.587
  129OSM    C7S13819   4.705   7.381   6.755
  129OSM    H7S13820   4.632   7.448   6.806
  129OSM    H7T13821   4.786   7.441   6.710
  129OSM    C8S13822   4.763   7.288   6.865
  129OSM    H8S13823   4.847   7.232   6.818
  129OSM    H8T13824   4.690   7.217   6.909
  129OSM    C9S13825   4.810   7.372   6.990
  129OSM    H9S13826   4.713   7.416   7.024
  129OSM    H9T13827   4.885   7.447   6.958
  129OSM   C10S13828   4.858   7.281   7.103
  129OSM   H10S13829   4.966   7.266   7.082
  129OSM   H10T13830   4.792   7.192   7.107
  129OSM   C11S13831   4.846   7.339   7.246
  129OSM   H11S13832   4.745   7.383   7.262
  129OSM   H11T13833   4.919   7.421   7.236
  129OSM   C12S13834   4.889   7.250   7.364
  129OSM   H12S13835   4.999   7.268   7.366
  129OSM   H12T13836   4.890   7.140   7.357
  129OSM   C13S13837   4.834   7.290   7.494
  129OSM   H13S13838   4.724   7.278   7.504
  129OSM   H13T13839   4.848   7.400   7.490
  129OSM   C14S13840   4.917   7.241   7.616
  129OSM   H14S13841   5.021   7.280   7.620
  129OSM   H14T13842   4.928   7.130   7.606
  129OSM   C15S13843   4.853   7.258   7.754
  129OSM   H15S13844   4.750   7.220   7.736
  129OSM   H15T13845   4.852   7.364   7.789
  129OSM   C16S13846   4.925   7.188   7.874
  129OSM   H16S13847   5.031   7.222   7.878
  129OSM   H16T13848   4.922   7.079   7.853
  129OSM   C17S13849   4.863   7.228   8.002
  129OSM   H17S13850   4.910   7.318   8.048
  129OSM   H17T13851   4.872   7.143   8.072
  129OSM   C18S13852   4.714   7.263   7.999
  129OSM   H18S13853   4.679   7.295   8.099
  129OSM   H18T13854   4.648   7.182   7.960
  129OSM   H18U13855   4.688   7.357   7.946
  129OSM    C1F13856   4.974   6.918   6.774
  129OSM     OF13857   5.088   6.964   6.779
  129OSM    C2F13858   4.907   6.855   6.892
  129OSM    H2F13859   4.875   6.759   6.847
  129OSM    H2G13860   4.825   6.924   6.923
  129OSM    C3F13861   4.994   6.830   7.014
  129OSM    H3F13862   5.046   6.925   7.038
  129OSM    H3G13863   5.074   6.758   6.987
  129OSM    C4F13864   4.903   6.804   7.138
  129OSM    H4F13865   4.867   6.699   7.126
  129OSM    H4G13866   4.820   6.876   7.127
  129OSM    C5F13867   4.977   6.830   7.268
  129OSM    H5F13868   4.995   6.940   7.273
  129OSM    H5G13869   5.077   6.781   7.270
  129OSM    C6F13870   4.906   6.784   7.395
  129OSM    H6F13871   4.876   6.677   7.401
  129OSM    H6G13872   4.809   6.837   7.408
  129OSM    C7F13873   4.997   6.793   7.520
  129OSM    H7F13874   5.014   6.899   7.548
  129OSM    H7G13875   5.092   6.740   7.498
  129OSM    C8F13876   4.929   6.718   7.640
  129OSM    H8F13877   4.822   6.745   7.651
  129OSM    H8G13878   4.987   6.754   7.728
  129OSM    C9F13879   4.945   6.567   7.641
  129OSM    H9F13880   4.921   6.519   7.545
  129OSM   C10F13881   5.013   6.488   7.729
  129OSM   H10F13882   5.014   6.382   7.701
  129OSM   C11F13883   5.086   6.543   7.851
  129OSM   H11F13884   5.049   6.486   7.938
  129OSM   H11G13885   5.051   6.648   7.867
  129OSM   C12F13886   5.239   6.535   7.836
  129OSM   H12F13887   5.276   6.610   7.763
  129OSM   H12G13888   5.271   6.432   7.808
  129OSM   C13F13889   5.307   6.550   7.974
  129OSM   H13F13890   5.271   6.480   8.052
  129OSM   H13G13891   5.286   6.654   8.007
  129OSM   C14F13892   5.463   6.538   7.969
  129OSM   H14F13893   5.514   6.579   7.879
  129OSM   H14G13894   5.485   6.430   7.968
  129OSM   C15F13895   5.533   6.593   8.095
  129OSM   H15F13896   5.535   6.704   8.099
  129OSM   H15G13897   5.640   6.563   8.082
  129OSM   C16F13898   5.484   6.536   8.230
  129OSM   H16F13899   5.474   6.427   8.208
  129OSM   H16G13900   5.386   6.578   8.261
  129OSM   C17F13901   5.587   6.568   8.332
  129OSM   H17F13902   5.606   6.676   8.352
  129OSM   H17G13903   5.675   6.517   8.289
  129OSM   C18F13904   5.540   6.527   8.474
  129OSM   H18F13905   5.630   6.545   8.535
  129OSM   H18G13906   5.522   6.417   8.483
  129OSM   H18H13907   5.454   6.590   8.505
  130OSM      N13908   5.525   3.994   5.877
  130OSM    C1513909   5.446   3.962   5.751
  130OSM   H15A13910   5.362   3.906   5.789
  130OSM   H15B13911   5.510   3.911   5.681
  130OSM   H15C13912   5.408   4.050   5.701
  130OSM    C1413913   5.578   3.861   5.915
  130OSM   H14A13914   5.498   3.788   5.910
  130OSM   H14B13915   5.602   3.861   6.020
  130OSM   H14C13916   5.668   3.828   5.865
  130OSM    C1313917   5.637   4.099   5.838
  130OSM   H13A13918   5.698   4.074   5.752
  130OSM   H13B13919   5.711   4.110   5.916
  130OSM   H13C13920   5.591   4.194   5.815
  130OSM    C1213921   5.437   4.048   5.980
  130OSM   H12A13922   5.344   3.995   5.993
  130OSM   H12B13923   5.417   4.145   5.936
  130OSM    C1113924   5.487   4.073   6.129
  130OSM   H11A13925   5.408   4.126   6.185
  130OSM   H11B13926   5.587   4.121   6.136
  130OSM      P13927   5.598   3.922   6.313
  130OSM    O1313928   5.559   3.793   6.384
  130OSM    O1413929   5.734   3.931   6.259
  130OSM    O1113930   5.584   4.045   6.415
  130OSM    O1213931   5.502   3.945   6.190
  130OSM    C1S13932   5.447   4.092   6.453
  130OSM    H1S13933   5.363   4.025   6.422
  130OSM    H1T13934   5.413   4.185   6.403
  130OSM     NF13935   5.298   4.136   6.649
  130OSM    HNF13936   5.270   4.228   6.675
  130OSM    C2S13937   5.436   4.123   6.605
  130OSM    H2S13938   5.461   4.028   6.657
  130OSM    C3S13939   5.538   4.225   6.660
  130OSM    H3S13940   5.521   4.319   6.603
  130OSM     O313941   5.669   4.186   6.626
  130OSM    HO313942   5.660   4.107   6.572
  130OSM    C4S13943   5.519   4.271   6.799
  130OSM    H4S13944   5.426   4.328   6.813
  130OSM    C5S13945   5.608   4.262   6.907
  130OSM    H5S13946   5.709   4.222   6.893
  130OSM    C6S13947   5.591   4.341   7.030
  130OSM    H6S13948   5.499   4.402   7.031
  130OSM    H6T13949   5.679   4.404   7.055
  130OSM    C7S13950   5.583   4.264   7.165
  130OSM    H7S13951   5.666   4.190   7.171
  130OSM    H7T13952   5.496   4.197   7.148
  130OSM    C8S13953   5.567   4.359   7.287
  130OSM    H8S13954   5.461   4.387   7.273
  130OSM    H8T13955   5.629   4.450   7.271
  130OSM    C9S13956   5.604   4.299   7.423
  130OSM    H9S13957   5.587   4.374   7.503
  130OSM    H9T13958   5.708   4.260   7.423
  130OSM   C10S13959   5.509   4.181   7.457
  130OSM   H10S13960   5.503   4.120   7.365
  130OSM   H10T13961   5.411   4.228   7.478
  130OSM   C11S13962   5.562   4.108   7.578
  130OSM   H11S13963   5.673   4.116   7.574
  130OSM   H11T13964   5.534   4.001   7.571
  130OSM   C12S13965   5.522   4.165   7.712
  130OSM   H12S13966   5.417   4.185   7.742
  130OSM   H12T13967   5.564   4.267   7.696
  130OSM   C13S13968   5.597   4.109   7.832
  130OSM   H13S13969   5.611   4.186   7.912
  130OSM   H13T13970   5.701   4.079   7.808
  130OSM   C14S13971   5.514   3.993   7.886
  130OSM   H14S13972   5.506   3.907   7.817
  130OSM   H14T13973   5.414   4.040   7.895
  130OSM   C15S13974   5.558   3.917   8.017
  130OSM   H15S13975   5.570   3.992   8.098
  130OSM   H15T13976   5.660   3.881   7.991
  130OSM   C16S13977   5.475   3.804   8.056
  130OSM   H16S13978   5.487   3.719   7.986
  130OSM   H16T13979   5.367   3.830   8.055
  130OSM   C17S13980   5.515   3.754   8.199
  130OSM   H17S13981   5.625   3.754   8.208
  130OSM   H17T13982   5.487   3.647   8.208
  130OSM   C18S13983   5.456   3.837   8.305
  130OSM   H18S13984   5.473   3.946   8.293
  130OSM   H18T13985   5.502   3.803   8.401
  130OSM   H18U13986   5.346   3.826   8.304
  130OSM    C1F13987   5.212   4.037   6.641
  130OSM     OF13988   5.253   3.926   6.615
  130OSM    C2F13989   5.070   4.064   6.689
  130OSM    H2F13990   5.043   3.981   6.759
  130OSM    H2G13991   5.010   4.051   6.597
  130OSM    C3F13992   5.052   4.188   6.787
  130OSM    H3F13993   4.943   4.192   6.810
  130OSM    H3G13994   5.082   4.280   6.734
  130OSM    C4F13995   5.132   4.188   6.920
  130OSM    H4F13996   5.238   4.196   6.890
  130OSM    H4G13997   5.119   4.089   6.968
  130OSM    C5F13998   5.103   4.296   7.019
  130OSM    H5F13999   4.997   4.300   7.052
  130OSM    H5G14000   5.116   4.384   6.952
  130OSM    C6F14001   5.187   4.322   7.140
  130OSM    H6F14002   5.180   4.425   7.181
  130OSM    H6G14003   5.297   4.319   7.122
  130OSM    C7F14004   5.159   4.217   7.251
  130OSM    H7F14005   5.258   4.197   7.296
  130OSM    H7G14006   5.128   4.123   7.201
  130OSM    C8F14007   5.055   4.265   7.356
  130OSM    H8F14008   4.960   4.271   7.299
  130OSM    H8G14009   5.082   4.368   7.386
  130OSM    C9F14010   5.035   4.161   7.459
  130OSM    H9F14011   5.061   4.062   7.419
  130OSM   C10F14012   5.009   4.179   7.586
  130OSM   H10F14013   4.994   4.092   7.651
  130OSM   C11F14014   4.980   4.311   7.654
  130OSM   H11F14015   4.901   4.305   7.732
  130OSM   H11G14016   4.933   4.372   7.574
  130OSM   C12F14017   5.113   4.382   7.703
  130OSM   H12F14018   5.084   4.487   7.722
  130OSM   H12G14019   5.184   4.383   7.617
  130OSM   C13F14020   5.190   4.319   7.817
  130OSM   H13F14021   5.281   4.379   7.839
  130OSM   H13G14022   5.217   4.217   7.784
  130OSM   C14F14023   5.105   4.302   7.938
  130OSM   H14F14024   5.015   4.243   7.908
  130OSM   H14G14025   5.073   4.398   7.985
  130OSM   C15F14026   5.164   4.201   8.033
  130OSM   H15F14027   5.192   4.113   7.971
  130OSM   H15G14028   5.086   4.165   8.103
  130OSM   C16F14029   5.283   4.257   8.113
  130OSM   H16F14030   5.261   4.365   8.124
  130OSM   H16G14031   5.383   4.254   8.065
  130OSM   C17F14032   5.304   4.190   8.252
  130OSM   H17F14033   5.408   4.219   8.280
  130OSM   H17G14034   5.302   4.083   8.223
  130OSM   C18F14035   5.198   4.218   8.365
  130OSM   H18F14036   5.094   4.200   8.328
  130OSM   H18G14037   5.202   4.314   8.421
  130OSM   H18H14038   5.226   4.152   8.450
  131OSM      N14039   5.883   2.750   6.328
  131OSM    C1514040   5.852   2.878   6.252
  131OSM   H15A14041   5.752   2.876   6.211
  131OSM   H15B14042   5.917   2.901   6.168
  131OSM   H15C14043   5.853   2.963   6.318
  131OSM    C1414044   6.009   2.767   6.409
  131OSM   H14A14045   6.095   2.775   6.345
  131OSM   H14B14046   6.028   2.684   6.476
  131OSM   H14C14047   6.006   2.863   6.460
  131OSM    C1314048   5.763   2.727   6.418
  131OSM   H13A14049   5.665   2.717   6.373
  131OSM   H13B14050   5.752   2.806   6.490
  131OSM   H13C14051   5.777   2.639   6.479
  131OSM    C1214052   5.886   2.629   6.232
  131OSM   H12A14053   5.951   2.649   6.147
  131OSM   H12B14054   5.789   2.622   6.186
  131OSM    C1114055   5.951   2.495   6.282
  131OSM   H11A14056   5.889   2.452   6.363
  131OSM   H11B14057   6.050   2.514   6.329
  131OSM      P14058   5.864   2.291   6.146
  131OSM    O1314059   5.727   2.341   6.121
  131OSM    O1414060   5.917   2.201   6.040
  131OSM    O1114061   5.865   2.201   6.272
  131OSM    O1214062   5.962   2.409   6.172
  131OSM    C1S14063   5.997   2.176   6.327
  131OSM    H1S14064   6.058   2.269   6.333
  131OSM    H1T14065   6.055   2.096   6.276
  131OSM     NF14066   6.126   2.109   6.532
  131OSM    HNF14067   6.157   2.014   6.536
  131OSM    C2S14068   5.991   2.120   6.479
  131OSM    H2S14069   5.938   2.198   6.538
  131OSM    C3S14070   5.924   1.987   6.484
  131OSM    H3S14071   5.986   1.897   6.466
  131OSM     O314072   5.809   1.982   6.410
  131OSM    HO314073   5.807   2.065   6.363
  131OSM    C4S14074   5.881   1.966   6.627
  131OSM    H4S14075   5.784   2.016   6.642
  131OSM    C5S14076   5.950   1.907   6.727
  131OSM    H5S14077   6.046   1.856   6.710
  131OSM    C6S14078   5.915   1.906   6.873
  131OSM    H6S14079   5.994   1.948   6.939
  131OSM    H6T14080   5.901   1.799   6.900
  131OSM    C7S14081   5.779   1.969   6.903
  131OSM    H7S14082   5.687   1.928   6.858
  131OSM    H7T14083   5.776   2.074   6.867
  131OSM    C8S14084   5.765   1.970   7.059
  131OSM    H8S14085   5.847   2.020   7.115
  131OSM    H8T14086   5.760   1.866   7.098
  131OSM    C9S14087   5.642   2.042   7.120
  131OSM    H9S14088   5.558   1.990   7.068
  131OSM    H9T14089   5.647   2.153   7.109
  131OSM   C10S14090   5.637   2.030   7.268
  131OSM   H10S14091   5.709   2.103   7.311
  131OSM   H10T14092   5.664   1.928   7.302
  131OSM   C11S14093   5.495   2.065   7.322
  131OSM   H11S14094   5.418   2.012   7.262
  131OSM   H11T14095   5.487   2.176   7.314
  131OSM   C12S14096   5.490   2.029   7.465
  131OSM   H12S14097   5.558   2.098   7.518
  131OSM   H12T14098   5.512   1.920   7.468
  131OSM   C13S14099   5.354   2.029   7.534
  131OSM   H13S14100   5.278   1.976   7.473
  131OSM   H13T14101   5.319   2.134   7.545
  131OSM   C14S14102   5.367   1.947   7.663
  131OSM   H14S14103   5.444   1.998   7.726
  131OSM   H14T14104   5.403   1.846   7.636
  131OSM   C15S14105   5.232   1.931   7.726
  131OSM   H15S14106   5.166   1.904   7.640
  131OSM   H15T14107   5.195   2.027   7.769
  131OSM   C16S14108   5.227   1.813   7.829
  131OSM   H16S14109   5.255   1.726   7.765
  131OSM   H16T14110   5.120   1.799   7.854
  131OSM   C17S14111   5.323   1.832   7.951
  131OSM   H17S14112   5.299   1.936   7.982
  131OSM   H17T14113   5.429   1.828   7.919
  131OSM   C18S14114   5.299   1.739   8.062
  131OSM   H18S14115   5.193   1.731   8.095
  131OSM   H18T14116   5.367   1.758   8.149
  131OSM   H18U14117   5.326   1.638   8.026
  131OSM    C1F14118   6.203   2.217   6.561
  131OSM     OF14119   6.156   2.327   6.572
  131OSM    C2F14120   6.345   2.175   6.592
  131OSM    H2F14121   6.402   2.222   6.509
  131OSM    H2G14122   6.368   2.067   6.587
  131OSM    C3F14123   6.397   2.226   6.726
  131OSM    H3F14124   6.366   2.331   6.745
  131OSM    H3G14125   6.508   2.220   6.729
  131OSM    C4F14126   6.332   2.139   6.837
  131OSM    H4F14127   6.372   2.035   6.836
  131OSM    H4G14128   6.222   2.131   6.831
  131OSM    C5F14129   6.351   2.192   6.978
  131OSM    H5F14130   6.291   2.285   6.982
  131OSM    H5G14131   6.461   2.206   6.988
  131OSM    C6F14132   6.301   2.095   7.083
  131OSM    H6F14133   6.349   1.996   7.064
  131OSM    H6G14134   6.191   2.096   7.091
  131OSM    C7F14135   6.382   2.131   7.215
  131OSM    H7F14136   6.354   2.237   7.230
  131OSM    H7G14137   6.492   2.121   7.203
  131OSM    C8F14138   6.341   2.054   7.347
  131OSM    H8F14139   6.341   1.943   7.338
  131OSM    H8G14140   6.237   2.088   7.366
  131OSM    C9F14141   6.420   2.089   7.471
  131OSM    H9F14142   6.497   2.166   7.454
  131OSM   C10F14143   6.401   2.049   7.597
  131OSM   H10F14144   6.476   2.076   7.672
  131OSM   C11F14145   6.295   1.959   7.660
  131OSM   H11F14146   6.227   1.915   7.583
  131OSM   H11G14147   6.237   2.026   7.727
  131OSM   C12F14148   6.361   1.843   7.753
  131OSM   H12F14149   6.416   1.883   7.841
  131OSM   H12G14150   6.434   1.791   7.689
  131OSM   C13F14151   6.256   1.738   7.795
  131OSM   H13F14152   6.208   1.684   7.711
  131OSM   H13G14153   6.183   1.801   7.851
  131OSM   C14F14154   6.304   1.634   7.896
  131OSM   H14F14155   6.402   1.597   7.859
  131OSM   H14G14156   6.233   1.549   7.900
  131OSM   C15F14157   6.331   1.689   8.038
  131OSM   H15F14158   6.238   1.689   8.098
  131OSM   H15G14159   6.377   1.790   8.032
  131OSM   C16F14160   6.437   1.594   8.098
  131OSM   H16F14161   6.524   1.585   8.029
  131OSM   H16G14162   6.393   1.491   8.095
  131OSM   C17F14163   6.479   1.645   8.234
  131OSM   H17F14164   6.518   1.566   8.302
  131OSM   H17G14165   6.385   1.683   8.280
  131OSM   C18F14166   6.571   1.762   8.221
  131OSM   H18F14167   6.671   1.725   8.188
  131OSM   H18G14168   6.577   1.811   8.320
  131OSM   H18H14169   6.540   1.840   8.148
  132OSM      N14170   1.014   5.891   6.070
  132OSM    C1514171   1.074   5.977   6.173
  132OSM   H15A14172   1.020   5.979   6.266
  132OSM   H15B14173   1.094   6.081   6.150
  132OSM   H15C14174   1.173   5.937   6.189
  132OSM    C1414175   0.875   5.931   6.041
  132OSM   H14A14176   0.811   5.927   6.128
  132OSM   H14B14177   0.824   5.875   5.964
  132OSM   H14C14178   0.869   6.034   6.010
  132OSM    C1314179   1.083   5.917   5.941
  132OSM   H13A14180   1.040   6.007   5.899
  132OSM   H13B14181   1.069   5.850   5.858
  132OSM   H13C14182   1.190   5.933   5.954
  132OSM    C1214183   1.015   5.751   6.117
  132OSM   H12A14184   0.921   5.703   6.094
  132OSM   H12B14185   1.021   5.758   6.224
  132OSM    C1114186   1.125   5.652   6.071
  132OSM   H11A14187   1.127   5.659   5.960
  132OSM   H11B14188   1.092   5.550   6.098
  132OSM      P14189   1.285   5.649   6.284
  132OSM    O1314190   1.299   5.503   6.306
  132OSM    O1414191   1.403   5.727   6.323
  132OSM    O1114192   1.149   5.711   6.352
  132OSM    O1214193   1.253   5.681   6.128
  132OSM    C1S14194   1.061   5.628   6.427
  132OSM    H1S14195   1.092   5.522   6.412
  132OSM    H1T14196   0.957   5.638   6.392
  132OSM     NF14197   1.003   5.549   6.657
  132OSM    HNF14198   0.909   5.565   6.684
  132OSM    C2S14199   1.070   5.655   6.580
  132OSM    H2S14200   1.177   5.653   6.611
  132OSM    C3S14201   1.023   5.799   6.602
  132OSM    H3S14202   0.920   5.799   6.562
  132OSM     O314203   1.100   5.895   6.530
  132OSM    HO314204   1.152   5.850   6.463
  132OSM    C4S14205   1.005   5.838   6.747
  132OSM    H4S14206   0.906   5.833   6.795
  132OSM    C5S14207   1.107   5.898   6.814
  132OSM    H5S14208   1.201   5.926   6.764
  132OSM    C6S14209   1.104   5.943   6.957
  132OSM    H6S14210   1.143   6.047   6.964
  132OSM    H6T14211   1.162   5.879   7.027
  132OSM    C7S14212   0.961   5.971   7.010
  132OSM    H7S14213   0.906   5.874   7.005
  132OSM    H7T14214   0.915   6.043   6.939
  132OSM    C8S14215   0.961   6.011   7.159
  132OSM    H8S14216   0.862   6.050   7.189
  132OSM    H8T14217   1.029   6.098   7.174
  132OSM    C9S14218   0.990   5.899   7.256
  132OSM    H9S14219   1.086   5.849   7.226
  132OSM    H9T14220   0.914   5.821   7.233
  132OSM   C10S14221   1.004   5.928   7.412
  132OSM   H10S14222   0.932   6.011   7.426
  132OSM   H10T14223   1.105   5.966   7.436
  132OSM   C11S14224   0.972   5.808   7.499
  132OSM   H11S14225   1.030   5.718   7.469
  132OSM   H11T14226   0.868   5.772   7.484
  132OSM   C12S14227   1.004   5.843   7.642
  132OSM   H12S14228   0.920   5.908   7.675
  132OSM   H12T14229   1.097   5.903   7.647
  132OSM   C13S14230   1.016   5.726   7.737
  132OSM   H13S14231   1.095   5.658   7.698
  132OSM   H13T14232   0.920   5.671   7.742
  132OSM   C14S14233   1.059   5.759   7.879
  132OSM   H14S14234   1.047   5.668   7.943
  132OSM   H14T14235   0.979   5.828   7.913
  132OSM   C15S14236   1.201   5.820   7.883
  132OSM   H15S14237   1.190   5.928   7.860
  132OSM   H15T14238   1.261   5.776   7.800
  132OSM   C16S14239   1.275   5.801   8.016
  132OSM   H16S14240   1.383   5.827   8.009
  132OSM   H16T14241   1.270   5.692   8.038
  132OSM   C17S14242   1.208   5.873   8.137
  132OSM   H17S14243   1.101   5.861   8.110
  132OSM   H17T14244   1.246   5.976   8.121
  132OSM   C18S14245   1.235   5.812   8.271
  132OSM   H18S14246   1.342   5.787   8.286
  132OSM   H18T14247   1.167   5.728   8.299
  132OSM   H18U14248   1.219   5.889   8.350
  132OSM    C1F14249   1.045   5.420   6.647
  132OSM     OF14250   1.159   5.389   6.616
  132OSM    C2F14251   0.941   5.319   6.675
  132OSM    H2F14252   0.920   5.262   6.582
  132OSM    H2G14253   0.848   5.375   6.701
  132OSM    C3F14254   0.980   5.230   6.794
  132OSM    H3F14255   1.083   5.190   6.785
  132OSM    H3G14256   0.920   5.137   6.803
  132OSM    C4F14257   0.975   5.302   6.925
  132OSM    H4F14258   0.868   5.315   6.951
  132OSM    H4G14259   1.033   5.396   6.914
  132OSM    C5F14260   1.039   5.215   7.034
  132OSM    H5F14261   1.149   5.208   7.016
  132OSM    H5G14262   0.992   5.115   7.024
  132OSM    C6F14263   1.020   5.275   7.172
  132OSM    H6F14264   0.915   5.278   7.207
  132OSM    H6G14265   1.057   5.380   7.176
  132OSM    C7F14266   1.097   5.193   7.279
  132OSM    H7F14267   1.204   5.197   7.252
  132OSM    H7G14268   1.081   5.083   7.290
  132OSM    C8F14269   1.073   5.247   7.421
  132OSM    H8F14270   1.095   5.356   7.423
  132OSM    H8G14271   1.145   5.192   7.486
  132OSM    C9F14272   0.929   5.231   7.471
  132OSM    H9F14273   0.863   5.205   7.387
  132OSM   C10F14274   0.868   5.268   7.587
  132OSM   H10F14275   0.764   5.235   7.597
  132OSM   C11F14276   0.926   5.326   7.712
  132OSM   H11F14277   0.855   5.371   7.785
  132OSM   H11G14278   0.999   5.407   7.691
  132OSM   C12F14279   1.010   5.230   7.797
  132OSM   H12F14280   1.095   5.196   7.735
  132OSM   H12G14281   0.956   5.137   7.826
  132OSM   C13F14282   1.047   5.303   7.927
  132OSM   H13F14283   0.960   5.346   7.980
  132OSM   H13G14284   1.101   5.396   7.899
  132OSM   C14F14285   1.136   5.219   8.020
  132OSM   H14F14286   1.232   5.193   7.971
  132OSM   H14G14287   1.086   5.120   8.021
  132OSM   C15F14288   1.141   5.286   8.152
  132OSM   H15F14289   1.035   5.310   8.178
  132OSM   H15G14290   1.193   5.384   8.149
  132OSM   C16F14291   1.195   5.190   8.264
  132OSM   H16F14292   1.305   5.179   8.259
  132OSM   H16G14293   1.157   5.087   8.249
  132OSM   C17F14294   1.150   5.243   8.397
  132OSM   H17F14295   1.051   5.293   8.404
  132OSM   H17G14296   1.225   5.319   8.426
  132OSM   C18F14297   1.170   5.129   8.501
  132OSM   H18F14298   1.273   5.087   8.508
  132OSM   H18G14299   1.105   5.043   8.480
  132OSM   H18H14300   1.162   5.169   8.605
  133SAPE     N14301   2.459   2.840  10.879
  133SAPE   HN114302   2.418   2.903  10.807
  133SAPE   HN214303   2.378   2.790  10.920
  133SAPE   HN314304   2.513   2.893  10.951
  133SAPE   C1214305   2.548   2.742  10.814
  133SAPE  H12A14306   2.485   2.664  10.764
  133SAPE  H12B14307   2.597   2.697  10.903
  133SAPE   C1114308   2.657   2.811  10.728
  133SAPE  H11A14309   2.614   2.867  10.643
  133SAPE  H11B14310   2.723   2.733  10.685
  133SAPE     P14311   2.857   2.971  10.758
  133SAPE   O1314312   2.849   3.119  10.779
  133SAPE   O1414313   2.976   2.905  10.820
  133SAPE   O1214314   2.720   2.902  10.814
  133SAPE   O1114315   2.866   2.951  10.601
  133SAPE    C114316   2.864   3.044  10.496
  133SAPE    HA14317   2.766   3.089  10.468
  133SAPE    HB14318   2.929   3.131  10.520
  133SAPE    C214319   2.925   2.987  10.353
  133SAPE    HS14320   3.030   3.025  10.353
  133SAPE   O2114321   2.861   3.028  10.234
  133SAPE   C2114322   2.863   3.159  10.204
  133SAPE   O2214323   2.897   3.248  10.280
  133SAPE   C2214324   2.851   3.173  10.054
  133SAPE   H2R14325   2.950   3.149  10.011
  133SAPE   H2S14326   2.774   3.097  10.026
  133SAPE    C314327   2.931   2.834  10.350
  133SAPE    HX14328   2.834   2.792  10.384
  133SAPE    HY14329   3.004   2.802  10.427
  133SAPE   O3114330   2.968   2.777  10.226
  133SAPE   C3114331   3.093   2.803  10.183
  133SAPE   O3214332   3.179   2.851  10.251
  133SAPE   C3214333   3.105   2.793  10.038
  133SAPE   H2X14334   3.008   2.831   9.998
  133SAPE   H2Y14335   3.118   2.685  10.014
  133SAPE   C2314336   2.798   3.314  10.013
  133SAPE   H3R14337   2.874   3.385  10.052
  133SAPE   H3S14338   2.699   3.330  10.060
  133SAPE   C2414339   2.788   3.335   9.857
  133SAPE   H4R14340   2.881   3.293   9.813
  133SAPE   H4S14341   2.784   3.442   9.829
  133SAPE   C2514342   2.661   3.266   9.809
  133SAPE   H5R14343   2.654   3.168   9.858
  133SAPE   C2614344   2.558   3.330   9.743
  133SAPE   H6R14345   2.467   3.270   9.726
  133SAPE   C2714346   2.558   3.472   9.687
  133SAPE   H7R14347   2.492   3.482   9.598
  133SAPE   H7S14348   2.661   3.496   9.654
  133SAPE   C2814349   2.513   3.569   9.789
  133SAPE   H8R14350   2.576   3.562   9.878
  133SAPE   C2914351   2.417   3.663   9.783
  133SAPE   H9R14352   2.388   3.708   9.879
  133SAPE  C21014353   2.349   3.717   9.655
  133SAPE  H10R14354   2.252   3.671   9.625
  133SAPE  H10S14355   2.420   3.700   9.572
  133SAPE  C21114356   2.329   3.859   9.691
  133SAPE  H11R14357   2.240   3.879   9.752
  133SAPE  C21214358   2.394   3.968   9.660
  133SAPE  H12R14359   2.374   4.068   9.701
  133SAPE  C21314360   2.527   3.968   9.585
  133SAPE  H13R14361   2.542   3.865   9.546
  133SAPE  H13S14362   2.606   3.991   9.660
  133SAPE  C21414363   2.539   4.068   9.475
  133SAPE  H14R14364   2.574   4.169   9.501
  133SAPE  C21514365   2.493   4.050   9.351
  133SAPE  H15R14366   2.517   4.130   9.280
  133SAPE  C21614367   2.413   3.929   9.311
  133SAPE  H16R14368   2.402   3.862   9.399
  133SAPE  H16S14369   2.460   3.870   9.229
  133SAPE  C21714370   2.279   3.965   9.252
  133SAPE  H17R14371   2.292   4.025   9.160
  133SAPE  H17S14372   2.229   4.024   9.332
  133SAPE  C21814373   2.187   3.841   9.227
  133SAPE  H18R14374   2.242   3.762   9.172
  133SAPE  H18S14375   2.105   3.880   9.163
  133SAPE  C21914376   2.118   3.797   9.353
  133SAPE  H19R14377   2.056   3.874   9.403
  133SAPE  H19S14378   2.204   3.780   9.421
  133SAPE  C22014379   2.044   3.671   9.334
  133SAPE  H20R14380   1.942   3.685   9.291
  133SAPE  H20S14381   2.046   3.613   9.428
  133SAPE  H20T14382   2.101   3.608   9.263
  133SAPE   C3314383   3.220   2.870   9.977
  133SAPE   H3X14384   3.314   2.836  10.024
  133SAPE   H3Y14385   3.201   2.979   9.979
  133SAPE   C3414386   3.247   2.848   9.828
  133SAPE   H4X14387   3.272   2.742   9.807
  133SAPE   H4Y14388   3.335   2.910   9.800
  133SAPE   C3514389   3.143   2.896   9.733
  133SAPE   H5X14390   3.054   2.830   9.728
  133SAPE   H5Y14391   3.197   2.882   9.638
  133SAPE   C3614392   3.106   3.046   9.741
  133SAPE   H6X14393   3.199   3.099   9.770
  133SAPE   H6Y14394   3.027   3.065   9.817
  133SAPE   C3714395   3.057   3.101   9.609
  133SAPE   H7X14396   3.129   3.057   9.537
  133SAPE   H7Y14397   3.057   3.211   9.597
  133SAPE   C3814398   2.917   3.053   9.572
  133SAPE   H8X14399   2.853   3.059   9.662
  133SAPE   H8Y14400   2.915   2.945   9.547
  133SAPE   C3914401   2.841   3.142   9.465
  133SAPE   H9X14402   2.831   3.240   9.517
  133SAPE   H9Y14403   2.738   3.106   9.445
  133SAPE  C31014404   2.912   3.156   9.327
  133SAPE  H10X14405   2.898   3.066   9.262
  133SAPE  H10Y14406   3.020   3.176   9.344
  133SAPE  C31114407   2.850   3.261   9.231
  133SAPE  H11X14408   2.872   3.355   9.287
  133SAPE  H11Y14409   2.740   3.257   9.241
  133SAPE  C31214410   2.885   3.237   9.084
  133SAPE  H12X14411   2.879   3.127   9.063
  133SAPE  H12Y14412   2.993   3.258   9.066
  133SAPE  C31314413   2.787   3.301   8.986
  133SAPE  H13X14414   2.759   3.406   9.005
  133SAPE  H13Y14415   2.698   3.235   8.997
  133SAPE  C31414416   2.834   3.283   8.838
  133SAPE  H14X14417   2.838   3.174   8.815
  133SAPE  H14Y14418   2.938   3.314   8.813
  133SAPE  C31514419   2.735   3.325   8.733
  133SAPE  H15X14420   2.708   3.432   8.732
  133SAPE  H15Y14421   2.647   3.258   8.737
  133SAPE  C31614422   2.804   3.303   8.591
  133SAPE  H16X14423   2.863   3.209   8.601
  133SAPE  H16Y14424   2.874   3.385   8.568
  133SAPE  C31714425   2.704   3.297   8.474
  133SAPE  H17X14426   2.769   3.306   8.384
  133SAPE  H17Y14427   2.636   3.385   8.468
  133SAPE  C31814428   2.623   3.168   8.453
  133SAPE  H18X14429   2.522   3.178   8.500
  133SAPE  H18Y14430   2.667   3.080   8.503
  133SAPE  H18Z14431   2.608   3.155   8.343
  134SAPE     N14432   6.194   4.127  10.786
  134SAPE   HN114433   6.157   4.047  10.841
  134SAPE   HN214434   6.259   4.168  10.856
  134SAPE   HN314435   6.117   4.190  10.756
  134SAPE   C1214436   6.259   4.065  10.668
  134SAPE  H12A14437   6.365   4.045  10.695
  134SAPE  H12B14438   6.262   4.148  10.594
  134SAPE   C1114439   6.190   3.949  10.601
  134SAPE  H11A14440   6.269   3.916  10.529
  134SAPE  H11B14441   6.098   3.978  10.545
  134SAPE     P14442   6.229   3.725  10.750
  134SAPE   O1314443   6.371   3.750  10.773
  134SAPE   O1414444   6.151   3.648  10.848
  134SAPE   O1214445   6.152   3.861  10.709
  134SAPE   O1114446   6.219   3.649  10.615
  134SAPE    C114447   6.095   3.647  10.537
  134SAPE    HA14448   6.010   3.690  10.594
  134SAPE    HB14449   6.104   3.714  10.449
  134SAPE    C214450   6.049   3.507  10.491
  134SAPE    HS14451   6.130   3.447  10.444
  134SAPE   O2114452   5.936   3.522  10.401
  134SAPE   C2114453   5.969   3.574  10.280
  134SAPE   O2214454   6.085   3.582  10.243
  134SAPE   C2214455   5.842   3.603  10.200
  134SAPE   H2R14456   5.842   3.551  10.102
  134SAPE   H2S14457   5.756   3.560  10.256
  134SAPE    C314458   6.004   3.418  10.609
  134SAPE    HX14459   5.931   3.477  10.669
  134SAPE    HY14460   6.097   3.399  10.665
  134SAPE   O3114461   5.939   3.300  10.559
  134SAPE   C3114462   6.017   3.209  10.516
  134SAPE   O3214463   6.139   3.211  10.521
  134SAPE   C3214464   5.941   3.106  10.425
  134SAPE   H2X14465   5.854   3.064  10.479
  134SAPE   H2Y14466   6.014   3.026  10.402
  134SAPE   C2314467   5.835   3.755  10.176
  134SAPE   H3R14468   5.885   3.772  10.078
  134SAPE   H3S14469   5.899   3.809  10.248
  134SAPE   C2414470   5.693   3.821  10.174
  134SAPE   H4R14471   5.707   3.922  10.129
  134SAPE   H4S14472   5.659   3.852  10.275
  134SAPE   C2514473   5.587   3.738  10.104
  134SAPE   H5R14474   5.529   3.675  10.173
  134SAPE   C2614475   5.572   3.733   9.966
  134SAPE   H6R14476   5.498   3.663   9.926
  134SAPE   C2714477   5.634   3.832   9.866
  134SAPE   H7R14478   5.684   3.917   9.916
  134SAPE   H7S14479   5.550   3.868   9.802
  134SAPE   C2814480   5.749   3.767   9.799
  134SAPE   H8R14481   5.837   3.763   9.866
  134SAPE   C2914482   5.759   3.724   9.675
  134SAPE   H9R14483   5.859   3.691   9.641
  134SAPE  C21014484   5.647   3.730   9.566
  134SAPE  H10R14485   5.552   3.700   9.614
  134SAPE  H10S14486   5.669   3.645   9.497
  134SAPE  C21114487   5.644   3.861   9.494
  134SAPE  H11R14488   5.600   3.949   9.543
  134SAPE  C21214489   5.668   3.886   9.368
  134SAPE  H12R14490   5.639   3.983   9.325
  134SAPE  C21314491   5.693   3.775   9.269
  134SAPE  H13R14492   5.641   3.801   9.174
  134SAPE  H13S14493   5.638   3.683   9.299
  134SAPE  C21414494   5.841   3.748   9.249
  134SAPE  H14R14495   5.901   3.835   9.221
  134SAPE  C21514496   5.896   3.625   9.257
  134SAPE  H15R14497   6.005   3.619   9.243
  134SAPE  C21614498   5.818   3.507   9.296
  134SAPE  H16R14499   5.730   3.486   9.231
  134SAPE  H16S14500   5.787   3.518   9.402
  134SAPE  C21714501   5.914   3.392   9.278
  134SAPE  H17R14502   5.868   3.310   9.336
  134SAPE  H17S14503   6.016   3.390   9.322
  134SAPE  C21814504   5.941   3.344   9.136
  134SAPE  H18R14505   6.050   3.322   9.127
  134SAPE  H18S14506   5.919   3.428   9.067
  134SAPE  C21914507   5.854   3.228   9.094
  134SAPE  H19R14508   5.747   3.257   9.095
  134SAPE  H19S14509   5.873   3.144   9.164
  134SAPE  C22014510   5.886   3.176   8.958
  134SAPE  H20R14511   5.868   3.253   8.881
  134SAPE  H20S14512   5.820   3.092   8.929
  134SAPE  H20T14513   5.996   3.160   8.960
  134SAPE   C3314514   5.889   3.164  10.287
  134SAPE   H3X14515   5.811   3.240  10.309
  134SAPE   H3Y14516   5.837   3.077  10.241
  134SAPE   C3414517   5.998   3.209  10.190
  134SAPE   H4X14518   6.077   3.130  10.195
  134SAPE   H4Y14519   6.046   3.304  10.220
  134SAPE   C3514520   5.943   3.230  10.055
  134SAPE   H5X14521   5.867   3.310  10.038
  134SAPE   H5Y14522   5.883   3.142  10.023
  134SAPE   C3614523   6.048   3.251   9.948
  134SAPE   H6X14524   6.002   3.239   9.848
  134SAPE   H6Y14525   6.125   3.173   9.964
  134SAPE   C3714526   6.112   3.393   9.959
  134SAPE   H7X14527   6.147   3.419  10.061
  134SAPE   H7Y14528   6.028   3.461   9.934
  134SAPE   C3814529   6.239   3.406   9.873
  134SAPE   H8X14530   6.304   3.317   9.889
  134SAPE   H8Y14531   6.301   3.496   9.889
  134SAPE   C3914532   6.201   3.395   9.729
  134SAPE   H9X14533   6.131   3.480   9.714
  134SAPE   H9Y14534   6.153   3.300   9.696
  134SAPE  C31014535   6.313   3.422   9.626
  134SAPE  H10X14536   6.380   3.333   9.631
  134SAPE  H10Y14537   6.374   3.509   9.659
  134SAPE  C31114538   6.254   3.442   9.481
  134SAPE  H11X14539   6.180   3.524   9.492
  134SAPE  H11Y14540   6.188   3.354   9.462
  134SAPE  C31214541   6.369   3.464   9.383
  134SAPE  H12X14542   6.439   3.379   9.398
  134SAPE  H12Y14543   6.422   3.561   9.385
  134SAPE  C31314544   6.307   3.455   9.236
  134SAPE  H13X14545   6.219   3.522   9.228
  134SAPE  H13Y14546   6.278   3.349   9.222
  134SAPE  C31414547   6.418   3.485   9.136
  134SAPE  H14X14548   6.505   3.426   9.173
  134SAPE  H14Y14549   6.448   3.590   9.154
  134SAPE  C31514550   6.387   3.458   8.987
  134SAPE  H15X14551   6.409   3.350   8.973
  134SAPE  H15Y14552   6.461   3.511   8.922
  134SAPE  C31614553   6.240   3.503   8.952
  134SAPE  H16X14554   6.236   3.607   8.989
  134SAPE  H16Y14555   6.167   3.443   9.012
  134SAPE  C31714556   6.207   3.482   8.807
  134SAPE  H17X14557   6.221   3.375   8.782
  134SAPE  H17Y14558   6.285   3.532   8.746
  134SAPE  C31814559   6.068   3.533   8.759
  134SAPE  H18X14560   6.054   3.505   8.652
  134SAPE  H18Y14561   6.065   3.644   8.765
  134SAPE  H18Z14562   5.987   3.489   8.821
  135SAPE     N14563   5.668   2.099  10.658
  135SAPE   HN114564   5.655   2.038  10.740
  135SAPE   HN214565   5.757   2.076  10.608
  135SAPE   HN314566   5.692   2.197  10.686
  135SAPE   C1214567   5.536   2.104  10.578
  135SAPE  H12A14568   5.523   2.202  10.527
  135SAPE  H12B14569   5.456   2.102  10.654
  135SAPE   C1114570   5.542   1.981  10.491
  135SAPE  H11A14571   5.564   1.888  10.547
  135SAPE  H11B14572   5.625   1.991  10.418
  135SAPE     P14573   5.303   1.883  10.503
  135SAPE   O1314574   5.323   1.902  10.651
  135SAPE   O1414575   5.169   1.924  10.453
  135SAPE   O1214576   5.417   1.955  10.423
  135SAPE   O1114577   5.322   1.732  10.464
  135SAPE    C114578   5.358   1.708  10.326
  135SAPE    HA14579   5.282   1.760  10.264
  135SAPE    HB14580   5.464   1.737  10.304
  135SAPE    C214581   5.340   1.557  10.299
  135SAPE    HS14582   5.236   1.529  10.328
  135SAPE   O2114583   5.443   1.483  10.365
  135SAPE   C2114584   5.395   1.378  10.449
  135SAPE   O2214585   5.278   1.360  10.460
  135SAPE   C2214586   5.505   1.288  10.501
  135SAPE   H2R14587   5.588   1.268  10.430
  135SAPE   H2S14588   5.555   1.338  10.586
  135SAPE    C314589   5.342   1.526  10.151
  135SAPE    HX14590   5.328   1.418  10.129
  135SAPE    HY14591   5.443   1.549  10.111
  135SAPE   O3114592   5.248   1.608  10.072
  135SAPE   C3114593   5.270   1.601   9.941
  135SAPE   O3214594   5.359   1.536   9.894
  135SAPE   C3214595   5.182   1.701   9.866
  135SAPE   H2X14596   5.216   1.802   9.900
  135SAPE   H2Y14597   5.077   1.684   9.897
  135SAPE   C2314598   5.440   1.153  10.546
  135SAPE   H3R14599   5.354   1.172  10.613
  135SAPE   H3S14600   5.516   1.112  10.616
  135SAPE   C2414601   5.409   1.049  10.433
  135SAPE   H4R14602   5.323   1.081  10.371
  135SAPE   H4S14603   5.375   0.950  10.471
  135SAPE   C2514604   5.531   1.027  10.348
  135SAPE   H5R14605   5.605   0.958  10.392
  135SAPE   C2614606   5.552   1.073  10.223
  135SAPE   H6R14607   5.645   1.042  10.173
  135SAPE   C2714608   5.463   1.151  10.133
  135SAPE   H7R14609   5.518   1.244  10.106
  135SAPE   H7S14610   5.372   1.180  10.190
  135SAPE   C2814611   5.417   1.067  10.010
  135SAPE   H8R14612   5.320   1.015  10.014
  135SAPE   C2914613   5.492   1.037   9.900
  135SAPE   H9R14614   5.450   0.976   9.819
  135SAPE  C21014615   5.623   1.106   9.870
  135SAPE  H10R14616   5.684   1.039   9.805
  135SAPE  H10S14617   5.686   1.121   9.960
  135SAPE  C21114618   5.593   1.226   9.784
  135SAPE  H11R14619   5.580   1.319   9.841
  135SAPE  C21214620   5.578   1.225   9.643
  135SAPE  H12R14621   5.555   1.317   9.587
  135SAPE  C21314622   5.585   1.106   9.553
  135SAPE  H13R14623   5.484   1.061   9.536
  135SAPE  H13S14624   5.641   1.024   9.604
  135SAPE  C21414625   5.665   1.136   9.428
  135SAPE  H14R14626   5.773   1.147   9.447
  135SAPE  C21514627   5.626   1.182   9.308
  135SAPE  H15R14628   5.696   1.179   9.223
  135SAPE  C21614629   5.486   1.225   9.282
  135SAPE  H16R14630   5.481   1.335   9.265
  135SAPE  H16S14631   5.413   1.200   9.362
  135SAPE  C21714632   5.420   1.175   9.147
  135SAPE  H17R14633   5.312   1.199   9.140
  135SAPE  H17S14634   5.427   1.065   9.154
  135SAPE  C21814635   5.494   1.221   9.017
  135SAPE  H18R14636   5.534   1.322   9.038
  135SAPE  H18S14637   5.408   1.224   8.947
  135SAPE  C21914638   5.583   1.112   8.970
  135SAPE  H19R14639   5.553   1.005   8.972
  135SAPE  H19S14640   5.663   1.110   9.047
  135SAPE  C22014641   5.645   1.138   8.841
  135SAPE  H20R14642   5.577   1.090   8.768
  135SAPE  H20S14643   5.745   1.088   8.843
  135SAPE  H20T14644   5.673   1.244   8.825
  135SAPE   C3314645   5.201   1.692   9.710
  135SAPE   H3X14646   5.310   1.701   9.690
  135SAPE   H3Y14647   5.154   1.775   9.652
  135SAPE   C3414648   5.146   1.558   9.653
  135SAPE   H4X14649   5.036   1.553   9.661
  135SAPE   H4Y14650   5.183   1.469   9.709
  135SAPE   C3514651   5.176   1.522   9.507
  135SAPE   H5X14652   5.145   1.416   9.494
  135SAPE   H5Y14653   5.287   1.516   9.502
  135SAPE   C3614654   5.118   1.620   9.407
  135SAPE   H6X14655   5.181   1.711   9.414
  135SAPE   H6Y14656   5.013   1.649   9.429
  135SAPE   C3714657   5.130   1.575   9.261
  135SAPE   H7X14658   5.070   1.483   9.246
  135SAPE   H7Y14659   5.234   1.534   9.262
  135SAPE   C3814660   5.097   1.678   9.153
  135SAPE   H8X14661   5.186   1.742   9.131
  135SAPE   H8Y14662   5.009   1.744   9.166
  135SAPE   C3914663   5.079   1.597   9.020
  135SAPE   H9X14664   5.072   1.668   8.934
  135SAPE   H9Y14665   4.981   1.546   9.028
  135SAPE  C31014666   5.181   1.484   8.994
  135SAPE  H10X14667   5.191   1.402   9.069
  135SAPE  H10Y14668   5.285   1.522   8.996
  135SAPE  C31114669   5.141   1.401   8.872
  135SAPE  H11X14670   5.043   1.352   8.890
  135SAPE  H11Y14671   5.222   1.325   8.867
  135SAPE  C31214672   5.142   1.478   8.737
  135SAPE  H12X14673   5.245   1.512   8.713
  135SAPE  H12Y14674   5.069   1.560   8.725
  135SAPE  C31314675   5.107   1.381   8.618
  135SAPE  H13X14676   5.005   1.341   8.636
  135SAPE  H13Y14677   5.179   1.296   8.615
  135SAPE  C31414678   5.114   1.442   8.478
  135SAPE  H14X14679   5.206   1.501   8.454
  135SAPE  H14Y14680   5.026   1.509   8.466
  135SAPE  C31514681   5.118   1.333   8.375
  135SAPE  H15X14682   5.031   1.265   8.373
  135SAPE  H15Y14683   5.208   1.270   8.391
  135SAPE  C31614684   5.123   1.380   8.225
  135SAPE  H16X14685   5.228   1.408   8.203
  135SAPE  H16Y14686   5.051   1.465   8.223
  135SAPE  C31714687   5.081   1.260   8.138
  135SAPE  H17X14688   4.981   1.234   8.178
  135SAPE  H17Y14689   5.152   1.188   8.184
  135SAPE  C31814690   5.088   1.270   7.988
  135SAPE  H18X14691   5.193   1.274   7.951
  135SAPE  H18Y14692   5.038   1.357   7.940
  135SAPE  H18Z14693   5.045   1.180   7.940
  136SAPE     N14694   1.209   2.341  10.953
  136SAPE   HN114695   1.229   2.255  11.009
  136SAPE   HN214696   1.293   2.403  10.951
  136SAPE   HN314697   1.132   2.401  10.989
  136SAPE   C1214698   1.181   2.293  10.816
  136SAPE  H12A14699   1.272   2.238  10.782
  136SAPE  H12B14700   1.159   2.377  10.747
  136SAPE   C1114701   1.055   2.201  10.816
  136SAPE  H11A14702   1.060   2.136  10.726
  136SAPE  H11B14703   0.972   2.274  10.806
  136SAPE     P14704   1.093   1.973  10.961
  136SAPE   O1314705   1.147   1.961  11.100
  136SAPE   O1414706   0.984   1.888  10.909
  136SAPE   O1214707   1.041   2.126  10.941
  136SAPE   O1114708   1.221   1.966  10.863
  136SAPE    C114709   1.225   1.882  10.744
  136SAPE    HA14710   1.210   1.777  10.780
  136SAPE    HB14711   1.152   1.922  10.670
  136SAPE    C214712   1.374   1.880  10.685
  136SAPE    HS14713   1.451   1.841  10.755
  136SAPE   O2114714   1.413   2.013  10.653
  136SAPE   C2114715   1.543   2.036  10.628
  136SAPE   O2214716   1.634   1.959  10.653
  136SAPE   C2214717   1.559   2.167  10.557
  136SAPE   H2R14718   1.460   2.208  10.529
  136SAPE   H2S14719   1.600   2.226  10.642
  136SAPE    C314720   1.371   1.796  10.552
  136SAPE    HX14721   1.332   1.695  10.578
  136SAPE    HY14722   1.478   1.779  10.530
  136SAPE   O3114723   1.291   1.848  10.439
  136SAPE   C3114724   1.330   1.787  10.325
  136SAPE   O3214725   1.418   1.701  10.312
  136SAPE   C3214726   1.249   1.846  10.214
  136SAPE   H2X14727   1.282   1.951  10.198
  136SAPE   H2Y14728   1.142   1.851  10.242
  136SAPE   C2314729   1.653   2.152  10.435
  136SAPE   H3R14730   1.753   2.110  10.458
  136SAPE   H3S14731   1.665   2.254  10.393
  136SAPE   C2414732   1.598   2.065  10.314
  136SAPE   H4R14733   1.564   1.965  10.349
  136SAPE   H4S14734   1.686   2.048  10.248
  136SAPE   C2514735   1.495   2.136  10.241
  136SAPE   H5R14736   1.408   2.173  10.297
  136SAPE   C2614737   1.499   2.187  10.119
  136SAPE   H6R14738   1.409   2.243  10.089
  136SAPE   C2714739   1.600   2.164  10.011
  136SAPE   H7R14740   1.687   2.106  10.048
  136SAPE   H7S14741   1.632   2.266   9.980
  136SAPE   C2814742   1.538   2.077   9.903
  136SAPE   H8R14743   1.490   1.981   9.929
  136SAPE   C2914744   1.552   2.111   9.772
  136SAPE   H9R14745   1.519   2.032   9.702
  136SAPE  C21014746   1.620   2.230   9.713
  136SAPE  H10R14747   1.708   2.233   9.780
  136SAPE  H10S14748   1.563   2.321   9.743
  136SAPE  C21114749   1.659   2.222   9.570
  136SAPE  H11R14750   1.760   2.189   9.540
  136SAPE  C21214751   1.571   2.226   9.464
  136SAPE  H12R14752   1.611   2.218   9.362
  136SAPE  C21314753   1.424   2.259   9.471
  136SAPE  H13R14754   1.385   2.255   9.575
  136SAPE  H13S14755   1.370   2.179   9.417
  136SAPE  C21414756   1.385   2.392   9.413
  136SAPE  H14R14757   1.370   2.471   9.488
  136SAPE  C21514758   1.387   2.435   9.284
  136SAPE  H15R14759   1.333   2.524   9.250
  136SAPE  C21614760   1.427   2.340   9.169
  136SAPE  H16R14761   1.345   2.339   9.094
  136SAPE  H16S14762   1.438   2.232   9.192
  136SAPE  C21714763   1.566   2.384   9.107
  136SAPE  H17R14764   1.604   2.296   9.051
  136SAPE  H17S14765   1.638   2.383   9.192
  136SAPE  C21814766   1.556   2.504   9.011
  136SAPE  H18R14767   1.523   2.590   9.073
  136SAPE  H18S14768   1.482   2.480   8.932
  136SAPE  C21914769   1.691   2.526   8.935
  136SAPE  H19R14770   1.773   2.539   9.010
  136SAPE  H19S14771   1.682   2.630   8.897
  136SAPE  C22014772   1.732   2.418   8.831
  136SAPE  H20R14773   1.817   2.449   8.766
  136SAPE  H20S14774   1.643   2.407   8.766
  136SAPE  H20T14775   1.755   2.318   8.873
  136SAPE   C3314776   1.258   1.774  10.078
  136SAPE   H3X14777   1.256   1.664  10.093
  136SAPE   H3Y14778   1.358   1.804  10.040
  136SAPE   C3414779   1.134   1.820   9.995
  136SAPE   H4X14780   1.110   1.929  10.004
  136SAPE   H4Y14781   1.053   1.766  10.048
  136SAPE   C3514782   1.143   1.781   9.845
  136SAPE   H5X14783   1.042   1.805   9.804
  136SAPE   H5Y14784   1.168   1.673   9.848
  136SAPE   C3614785   1.256   1.858   9.765
  136SAPE   H6X14786   1.357   1.834   9.804
  136SAPE   H6Y14787   1.234   1.964   9.792
  136SAPE   C3714788   1.265   1.827   9.614
  136SAPE   H7X14789   1.300   1.723   9.601
  136SAPE   H7Y14790   1.340   1.890   9.561
  136SAPE   C3814791   1.132   1.832   9.539
  136SAPE   H8X14792   1.077   1.921   9.576
  136SAPE   H8Y14793   1.058   1.755   9.568
  136SAPE   C3914794   1.145   1.844   9.394
  136SAPE   H9X14795   1.223   1.922   9.379
  136SAPE   H9Y14796   1.046   1.882   9.361
  136SAPE  C31014797   1.191   1.720   9.321
  136SAPE  H10X14798   1.127   1.637   9.359
  136SAPE  H10Y14799   1.300   1.703   9.336
  136SAPE  C31114800   1.178   1.710   9.166
  136SAPE  H11X14801   1.247   1.786   9.125
  136SAPE  H11Y14802   1.073   1.741   9.143
  136SAPE  C31214803   1.198   1.563   9.108
  136SAPE  H12X14804   1.127   1.492   9.155
  136SAPE  H12Y14805   1.299   1.526   9.137
  136SAPE  C31314806   1.209   1.556   8.955
  136SAPE  H13X14807   1.112   1.590   8.912
  136SAPE  H13Y14808   1.214   1.449   8.925
  136SAPE  C31414809   1.331   1.621   8.897
  136SAPE  H14X14810   1.418   1.572   8.946
  136SAPE  H14Y14811   1.330   1.726   8.932
  136SAPE  C31514812   1.345   1.614   8.740
  136SAPE  H15X14813   1.255   1.657   8.691
  136SAPE  H15Y14814   1.344   1.506   8.712
  136SAPE  C31614815   1.470   1.681   8.676
  136SAPE  H16X14816   1.554   1.638   8.735
  136SAPE  H16Y14817   1.475   1.792   8.684
  136SAPE  C31714818   1.483   1.640   8.531
  136SAPE  H17X14819   1.389   1.651   8.472
  136SAPE  H17Y14820   1.516   1.534   8.529
  136SAPE  C31814821   1.593   1.730   8.462
  136SAPE  H18X14822   1.597   1.697   8.356
  136SAPE  H18Y14823   1.692   1.716   8.510
  136SAPE  H18Z14824   1.556   1.834   8.476
  137SAPE     N14825   6.330   4.760  10.980
  137SAPE   HN114826   6.316   4.856  10.942
  137SAPE   HN214827   6.430   4.734  10.987
  137SAPE   HN314828   6.277   4.694  10.919
  137SAPE   C1214829   6.265   4.736  11.111
  137SAPE  H12A14830   6.328   4.779  11.191
  137SAPE  H12B14831   6.256   4.626  11.127
  137SAPE   C1114832   6.126   4.795  11.112
  137SAPE  H11A14833   6.143   4.901  11.086
  137SAPE  H11B14834   6.091   4.785  11.217
  137SAPE     P14835   5.917   4.795  10.948
  137SAPE   O1314836   5.848   4.699  10.859
  137SAPE   O1414837   5.835   4.858  11.055
  137SAPE   O1214838   6.038   4.725  11.017
  137SAPE   O1114839   5.982   4.912  10.865
  137SAPE    C114840   6.080   4.882  10.765
  137SAPE    HA14841   6.173   4.938  10.788
  137SAPE    HB14842   6.114   4.777  10.754
  137SAPE    C214843   6.040   4.923  10.619
  137SAPE    HS14844   6.018   5.031  10.605
  137SAPE   O2114845   5.930   4.850  10.581
  137SAPE   C2114846   5.809   4.894  10.609
  137SAPE   O2214847   5.788   5.004  10.658
  137SAPE   C2214848   5.711   4.778  10.575
  137SAPE   H2R14849   5.758   4.686  10.534
  137SAPE   H2S14850   5.670   4.744  10.673
  137SAPE    C314851   6.159   4.877  10.532
  137SAPE    HX14852   6.179   4.768  10.545
  137SAPE    HY14853   6.242   4.944  10.561
  137SAPE   O3114854   6.134   4.899  10.394
  137SAPE   C3114855   6.098   4.803  10.315
  137SAPE   O3214856   6.082   4.688  10.346
  137SAPE   C3214857   6.100   4.857  10.171
  137SAPE   H2X14858   6.105   4.968  10.172
  137SAPE   H2Y14859   5.996   4.829  10.145
  137SAPE   C2314860   5.607   4.835  10.471
  137SAPE   H3R14861   5.644   4.866  10.371
  137SAPE   H3S14862   5.564   4.929  10.512
  137SAPE   C2414863   5.502   4.730  10.444
  137SAPE   H4R14864   5.425   4.773  10.377
  137SAPE   H4S14865   5.458   4.713  10.544
  137SAPE   C2514866   5.537   4.597  10.386
  137SAPE   H5R14867   5.534   4.510  10.454
  137SAPE   C2614868   5.560   4.568  10.262
  137SAPE   H6R14869   5.602   4.468  10.247
  137SAPE   C2714870   5.573   4.668  10.145
  137SAPE   H7R14871   5.679   4.702  10.134
  137SAPE   H7S14872   5.507   4.757  10.151
  137SAPE   C2814873   5.527   4.589  10.018
  137SAPE   H8R14874   5.437   4.531  10.040
  137SAPE   C2914875   5.587   4.589   9.896
  137SAPE   H9R14876   5.539   4.526   9.819
  137SAPE  C21014877   5.712   4.664   9.861
  137SAPE  H10R14878   5.779   4.618   9.785
  137SAPE  H10S14879   5.765   4.672   9.958
  137SAPE  C21114880   5.689   4.816   9.837
  137SAPE  H11R14881   5.638   4.864   9.921
  137SAPE  C21214882   5.736   4.897   9.734
  137SAPE  H12R14883   5.710   5.002   9.720
  137SAPE  C21314884   5.813   4.849   9.613
  137SAPE  H13R14885   5.864   4.751   9.624
  137SAPE  H13S14886   5.904   4.906   9.585
  137SAPE  C21414887   5.716   4.819   9.505
  137SAPE  H14R14888   5.633   4.751   9.533
  137SAPE  C21514889   5.719   4.887   9.387
  137SAPE  H15R14890   5.638   4.862   9.317
  137SAPE  C21614891   5.816   4.992   9.329
  137SAPE  H16R14892   5.883   5.033   9.409
  137SAPE  H16S14893   5.759   5.079   9.289
  137SAPE  C21714894   5.910   4.945   9.216
  137SAPE  H17R14895   5.943   4.839   9.220
  137SAPE  H17S14896   5.999   5.011   9.207
  137SAPE  C21814897   5.840   4.955   9.082
  137SAPE  H18R14898   5.803   5.060   9.080
  137SAPE  H18S14899   5.755   4.884   9.073
  137SAPE  C21914900   5.931   4.938   8.961
  137SAPE  H19R14901   5.973   4.838   8.985
  137SAPE  H19S14902   6.013   5.013   8.969
  137SAPE  C22014903   5.874   4.942   8.823
  137SAPE  H20R14904   5.788   4.873   8.809
  137SAPE  H20S14905   5.948   4.923   8.742
  137SAPE  H20T14906   5.839   5.045   8.799
  137SAPE   C3314907   6.205   4.783  10.086
  137SAPE   H3X14908   6.205   4.672  10.095
  137SAPE   H3Y14909   6.300   4.819  10.130
  137SAPE   C3414910   6.210   4.824   9.940
  137SAPE   H4X14911   6.229   4.933   9.926
  137SAPE   H4Y14912   6.113   4.800   9.891
  137SAPE   C3514913   6.313   4.745   9.867
  137SAPE   H5X14914   6.303   4.637   9.890
  137SAPE   H5Y14915   6.411   4.768   9.913
  137SAPE   C3614916   6.327   4.760   9.715
  137SAPE   H6X14917   6.244   4.702   9.668
  137SAPE   H6Y14918   6.412   4.700   9.677
  137SAPE   C3714919   6.343   4.900   9.660
  137SAPE   H7X14920   6.434   4.947   9.703
  137SAPE   H7Y14921   6.251   4.956   9.690
  137SAPE   C3814922   6.347   4.896   9.507
  137SAPE   H8X14923   6.260   4.838   9.469
  137SAPE   H8Y14924   6.436   4.845   9.465
  137SAPE   C3914925   6.319   5.032   9.446
  137SAPE   H9X14926   6.403   5.097   9.479
  137SAPE   H9Y14927   6.225   5.076   9.485
  137SAPE  C31014928   6.317   5.038   9.296
  137SAPE  H10X14929   6.228   4.987   9.254
  137SAPE  H10Y14930   6.402   4.978   9.256
  137SAPE  C31114931   6.323   5.174   9.237
  137SAPE  H11X14932   6.430   5.202   9.242
  137SAPE  H11Y14933   6.273   5.247   9.304
  137SAPE  C31214934   6.266   5.204   9.093
  137SAPE  H12X14935   6.173   5.144   9.086
  137SAPE  H12Y14936   6.341   5.158   9.026
  137SAPE  C31314937   6.257   5.353   9.060
  137SAPE  H13X14938   6.365   5.378   9.056
  137SAPE  H13Y14939   6.215   5.404   9.149
  137SAPE  C31414940   6.174   5.379   8.931
  137SAPE  H14X14941   6.091   5.305   8.933
  137SAPE  H14Y14942   6.234   5.353   8.842
  137SAPE  C31514943   6.136   5.532   8.928
  137SAPE  H15X14944   6.213   5.603   8.964
  137SAPE  H15Y14945   6.055   5.536   9.004
  137SAPE  C31614946   6.077   5.565   8.793
  137SAPE  H16X14947   5.979   5.514   8.786
  137SAPE  H16Y14948   6.139   5.530   8.708
  137SAPE  C31714949   6.062   5.718   8.788
  137SAPE  H17X14950   6.164   5.762   8.797
  137SAPE  H17Y14951   6.004   5.757   8.875
  137SAPE  C31814952   6.002   5.763   8.652
  137SAPE  H18X14953   6.016   5.873   8.637
  137SAPE  H18Y14954   5.898   5.724   8.642
  137SAPE  H18Z14955   6.061   5.719   8.570
  138SAPE     N14956   3.069   5.819  10.915
  138SAPE   HN114957   3.146   5.758  10.948
  138SAPE   HN214958   2.982   5.802  10.969
  138SAPE   HN314959   3.051   5.797  10.815
  138SAPE   C1214960   3.130   5.962  10.939
  138SAPE  H12A14961   3.239   5.949  10.924
  138SAPE  H12B14962   3.104   5.994  11.042
  138SAPE   C1114963   3.088   6.074  10.838
  138SAPE  H11A14964   3.125   6.044  10.738
  138SAPE  H11B14965   3.134   6.169  10.872
  138SAPE     P14966   2.886   6.169  10.717
  138SAPE   O1314967   2.748   6.121  10.699
  138SAPE   O1414968   2.916   6.312  10.737
  138SAPE   O1214969   2.943   6.084  10.842
  138SAPE   O1114970   2.972   6.118  10.594
  138SAPE    C114971   2.954   5.998  10.527
  138SAPE    HA14972   3.048   5.939  10.525
  138SAPE    HB14973   2.875   5.937  10.575
  138SAPE    C214974   2.910   6.017  10.381
  138SAPE    HS14975   2.916   5.917  10.335
  138SAPE   O2114976   2.998   6.110  10.314
  138SAPE   C2114977   3.106   6.053  10.259
  138SAPE   O2214978   3.138   5.940  10.270
  138SAPE   C2214979   3.199   6.165  10.201
  138SAPE   H2R14980   3.140   6.242  10.146
  138SAPE   H2S14981   3.250   6.215  10.286
  138SAPE    C314982   2.758   6.064  10.369
  138SAPE    HX14983   2.741   6.174  10.377
  138SAPE    HY14984   2.702   6.010  10.448
  138SAPE   O3114985   2.711   6.028  10.233
  138SAPE   C3114986   2.602   5.951  10.219
  138SAPE   O3214987   2.521   5.937  10.306
  138SAPE   C3214988   2.592   5.886  10.090
  138SAPE   H2X14989   2.483   5.886  10.073
  138SAPE   H2Y14990   2.619   5.778  10.096
  138SAPE   C2314991   3.298   6.110  10.094
  138SAPE   H3R14992   3.258   6.011  10.061
  138SAPE   H3S14993   3.398   6.090  10.139
  138SAPE   C2414994   3.322   6.185   9.961
  138SAPE   H4R14995   3.386   6.272   9.986
  138SAPE   H4S14996   3.230   6.220   9.911
  138SAPE   C2514997   3.402   6.096   9.867
  138SAPE   H5R14998   3.503   6.076   9.905
  138SAPE   C2614999   3.359   6.020   9.759
  138SAPE   H6R15000   3.425   5.966   9.690
  138SAPE   C2715001   3.215   6.013   9.719
  138SAPE   H7R15002   3.141   6.041   9.798
  138SAPE   H7S15003   3.190   5.908   9.696
  138SAPE   C2815004   3.194   6.119   9.608
  138SAPE   H8R15005   3.201   6.219   9.654
  138SAPE   C2915006   3.166   6.112   9.475
  138SAPE   H9R15007   3.159   6.202   9.412
  138SAPE  C21015008   3.138   5.976   9.403
  138SAPE  H10R15009   3.121   5.895   9.476
  138SAPE  H10S15010   3.241   5.954   9.369
  138SAPE  C21115011   3.039   5.974   9.283
  138SAPE  H11R15012   3.083   6.013   9.190
  138SAPE  C21215013   2.910   5.939   9.291
  138SAPE  H12R15014   2.859   5.926   9.195
  138SAPE  C21315015   2.833   5.911   9.423
  138SAPE  H13R15016   2.894   5.935   9.513
  138SAPE  H13S15017   2.822   5.801   9.414
  138SAPE  C21415018   2.700   5.973   9.413
  138SAPE  H14R15019   2.691   6.058   9.482
  138SAPE  C21515020   2.590   5.932   9.350
  138SAPE  H15R15021   2.501   5.998   9.348
  138SAPE  C21615022   2.568   5.813   9.259
  138SAPE  H16R15023   2.666   5.764   9.243
  138SAPE  H16S15024   2.527   5.845   9.161
  138SAPE  C21715025   2.478   5.704   9.320
  138SAPE  H17R15026   2.476   5.623   9.244
  138SAPE  H17S15027   2.377   5.750   9.329
  138SAPE  C21815028   2.524   5.644   9.457
  138SAPE  H18R15029   2.634   5.656   9.468
  138SAPE  H18S15030   2.504   5.535   9.454
  138SAPE  C21915031   2.441   5.704   9.571
  138SAPE  H19R15032   2.334   5.697   9.541
  138SAPE  H19S15033   2.468   5.812   9.572
  138SAPE  C22015034   2.452   5.648   9.713
  138SAPE  H20R15035   2.366   5.683   9.773
  138SAPE  H20S15036   2.546   5.688   9.756
  138SAPE  H20T15037   2.448   5.537   9.708
  138SAPE   C3315038   2.658   5.956   9.967
  138SAPE   H3X15039   2.612   6.057   9.962
  138SAPE   H3Y15040   2.624   5.906   9.874
  138SAPE   C3415041   2.810   5.956   9.959
  138SAPE   H4X15042   2.841   6.048  10.012
  138SAPE   H4Y15043   2.851   5.968   9.856
  138SAPE   C3515044   2.886   5.842  10.022
  138SAPE   H5X15045   2.842   5.831  10.123
  138SAPE   H5Y15046   2.990   5.877  10.040
  138SAPE   C3615047   2.899   5.707   9.941
  138SAPE   H6X15048   2.794   5.673   9.928
  138SAPE   H6Y15049   2.947   5.624   9.996
  138SAPE   C3715050   2.950   5.721   9.801
  138SAPE   H7X15051   3.051   5.765   9.819
  138SAPE   H7Y15052   2.895   5.782   9.726
  138SAPE   C3815053   2.945   5.582   9.738
  138SAPE   H8X15054   2.841   5.544   9.749
  138SAPE   H8Y15055   3.027   5.524   9.786
  138SAPE   C3915056   2.950   5.569   9.583
  138SAPE   H9X15057   3.041   5.611   9.533
  138SAPE   H9Y15058   2.864   5.622   9.536
  138SAPE  C31015059   2.952   5.421   9.547
  138SAPE  H10X15060   2.862   5.376   9.596
  138SAPE  H10Y15061   3.053   5.384   9.575
  138SAPE  C31115062   2.952   5.393   9.395
  138SAPE  H11X15063   2.934   5.284   9.378
  138SAPE  H11Y15064   3.047   5.418   9.342
  138SAPE  C31215065   2.839   5.468   9.322
  138SAPE  H12X15066   2.865   5.575   9.314
  138SAPE  H12Y15067   2.742   5.447   9.372
  138SAPE  C31315068   2.824   5.420   9.178
  138SAPE  H13X15069   2.860   5.315   9.177
  138SAPE  H13Y15070   2.888   5.488   9.118
  138SAPE  C31415071   2.678   5.419   9.135
  138SAPE  H14X15072   2.603   5.477   9.193
  138SAPE  H14Y15073   2.639   5.316   9.150
  138SAPE  C31515074   2.657   5.458   8.990
  138SAPE  H15X15075   2.680   5.566   8.976
  138SAPE  H15Y15076   2.556   5.435   8.948
  138SAPE  C31615077   2.750   5.379   8.896
  138SAPE  H16X15078   2.741   5.270   8.915
  138SAPE  H16Y15079   2.857   5.405   8.915
  138SAPE  C31715080   2.733   5.401   8.744
  138SAPE  H17X15081   2.743   5.508   8.716
  138SAPE  H17Y15082   2.629   5.364   8.732
  138SAPE  C31815083   2.838   5.315   8.662
  138SAPE  H18X15084   2.941   5.352   8.682
  138SAPE  H18Y15085   2.827   5.303   8.552
  138SAPE  H18Z15086   2.842   5.215   8.712
  139SAPE     N15087   1.816   4.340  11.005
  139SAPE   HN115088   1.723   4.299  10.985
  139SAPE   HN215089   1.827   4.357  11.108
  139SAPE   HN315090   1.809   4.438  10.971
  139SAPE   C1215091   1.925   4.277  10.934
  139SAPE  H12A15092   1.936   4.178  10.982
  139SAPE  H12B15093   2.020   4.330  10.957
  139SAPE   C1115094   1.918   4.264  10.781
  139SAPE  H11A15095   1.830   4.199  10.761
  139SAPE  H11B15096   2.013   4.214  10.754
  139SAPE     P15097   1.916   4.408  10.575
  139SAPE   O1315098   1.814   4.325  10.510
  139SAPE   O1415099   1.920   4.554  10.551
  139SAPE   O1215100   1.896   4.395  10.728
  139SAPE   O1115101   2.064   4.354  10.547
  139SAPE    C115102   2.070   4.238  10.466
  139SAPE    HA15103   2.144   4.171  10.514
  139SAPE    HB15104   1.977   4.177  10.458
  139SAPE    C215105   2.113   4.264  10.315
  139SAPE    HS15106   2.218   4.301  10.316
  139SAPE   O2115107   2.033   4.364  10.246
  139SAPE   C2115108   2.078   4.419  10.131
  139SAPE   O2215109   2.195   4.412  10.097
  139SAPE   C2215110   1.974   4.492  10.049
  139SAPE   H2R15111   1.916   4.416   9.993
  139SAPE   H2S15112   1.920   4.538  10.134
  139SAPE    C315113   2.134   4.132  10.226
  139SAPE    HX15114   2.196   4.156  10.138
  139SAPE    HY15115   2.033   4.100  10.193
  139SAPE   O3115116   2.193   4.022  10.298
  139SAPE   C3115117   2.243   3.924  10.221
  139SAPE   O3215118   2.248   3.925  10.099
  139SAPE   C3215119   2.286   3.813  10.312
  139SAPE   H2X15120   2.194   3.757  10.341
  139SAPE   H2Y15121   2.317   3.865  10.406
  139SAPE   C2315122   2.034   4.597   9.958
  139SAPE   H3R15123   2.108   4.648  10.024
  139SAPE   H3S15124   1.954   4.668   9.929
  139SAPE   C2415125   2.109   4.550   9.827
  139SAPE   H4R15126   2.193   4.480   9.849
  139SAPE   H4S15127   2.174   4.632   9.790
  139SAPE   C2515128   2.019   4.491   9.728
  139SAPE   H5R15129   1.969   4.397   9.756
  139SAPE   C2615130   1.996   4.547   9.605
  139SAPE   H6R15131   1.916   4.497   9.549
  139SAPE   C2715132   2.036   4.676   9.545
  139SAPE   H7R15133   2.144   4.686   9.565
  139SAPE   H7S15134   1.981   4.765   9.583
  139SAPE   C2815135   2.024   4.679   9.389
  139SAPE   H8R15136   2.102   4.618   9.341
  139SAPE   C2915137   1.940   4.746   9.309
  139SAPE   H9R15138   1.933   4.723   9.202
  139SAPE  C21015139   1.838   4.838   9.359
  139SAPE  H10R15140   1.878   4.914   9.430
  139SAPE  H10S15141   1.769   4.777   9.422
  139SAPE  C21115142   1.751   4.901   9.253
  139SAPE  H11R15143   1.644   4.877   9.252
  139SAPE  C21215144   1.783   4.993   9.155
  139SAPE  H12R15145   1.701   5.033   9.092
  139SAPE  C21315146   1.921   5.050   9.126
  139SAPE  H13R15147   2.003   4.997   9.179
  139SAPE  H13S15148   1.931   5.153   9.168
  139SAPE  C21415149   1.937   5.047   8.976
  139SAPE  H14R15150   1.967   4.946   8.943
  139SAPE  C21515151   1.874   5.125   8.888
  139SAPE  H15R15152   1.905   5.112   8.783
  139SAPE  C21615153   1.796   5.248   8.914
  139SAPE  H16R15154   1.852   5.339   8.885
  139SAPE  H16S15155   1.771   5.259   9.022
  139SAPE  C21715156   1.652   5.254   8.853
  139SAPE  H17R15157   1.597   5.170   8.901
  139SAPE  H17S15158   1.650   5.230   8.744
  139SAPE  C21815159   1.586   5.389   8.879
  139SAPE  H18R15160   1.625   5.460   8.802
  139SAPE  H18S15161   1.610   5.433   8.978
  139SAPE  C21915162   1.436   5.381   8.865
  139SAPE  H19R15163   1.391   5.476   8.898
  139SAPE  H19S15164   1.404   5.297   8.930
  139SAPE  C22015165   1.390   5.333   8.724
  139SAPE  H20R15166   1.287   5.292   8.736
  139SAPE  H20S15167   1.455   5.245   8.701
  139SAPE  H20T15168   1.396   5.419   8.655
  139SAPE   C3315169   2.402   3.727  10.269
  139SAPE   H3X15170   2.454   3.669  10.349
  139SAPE   H3Y15171   2.472   3.796  10.218
  139SAPE   C3415172   2.375   3.623  10.157
  139SAPE   H4X15173   2.470   3.580  10.119
  139SAPE   H4Y15174   2.323   3.668  10.069
  139SAPE   C3515175   2.281   3.511  10.212
  139SAPE   H5X15176   2.180   3.550  10.233
  139SAPE   H5Y15177   2.319   3.467  10.307
  139SAPE   C3615178   2.267   3.393  10.113
  139SAPE   H6X15179   2.217   3.428  10.020
  139SAPE   H6Y15180   2.207   3.322  10.174
  139SAPE   C3715181   2.401   3.323  10.083
  139SAPE   H7X15182   2.453   3.320  10.182
  139SAPE   H7Y15183   2.455   3.384  10.008
  139SAPE   C3815184   2.377   3.174  10.041
  139SAPE   H8X15185   2.348   3.120  10.134
  139SAPE   H8Y15186   2.476   3.131  10.012
  139SAPE   C3915187   2.264   3.156   9.938
  139SAPE   H9X15188   2.293   3.221   9.852
  139SAPE   H9Y15189   2.160   3.179   9.968
  139SAPE  C31015190   2.261   3.014   9.883
  139SAPE  H10X15191   2.241   2.937   9.961
  139SAPE  H10Y15192   2.363   2.991   9.846
  139SAPE  C31115193   2.151   2.996   9.782
  139SAPE  H11X15194   2.048   3.014   9.819
  139SAPE  H11Y15195   2.149   2.885   9.771
  139SAPE  C31215196   2.186   3.060   9.643
  139SAPE  H12X15197   2.188   3.169   9.668
  139SAPE  H12Y15198   2.097   3.055   9.576
  139SAPE  C31315199   2.305   2.998   9.569
  139SAPE  H13X15200   2.292   2.888   9.570
  139SAPE  H13Y15201   2.399   3.035   9.616
  139SAPE  C31415202   2.304   3.048   9.422
  139SAPE  H14X15203   2.198   3.069   9.395
  139SAPE  H14Y15204   2.335   2.965   9.356
  139SAPE  C31515205   2.384   3.174   9.403
  139SAPE  H15X15206   2.495   3.174   9.407
  139SAPE  H15Y15207   2.350   3.235   9.489
  139SAPE  C31615208   2.348   3.241   9.273
  139SAPE  H16X15209   2.386   3.185   9.185
  139SAPE  H16Y15210   2.238   3.245   9.258
  139SAPE  C31715211   2.397   3.379   9.253
  139SAPE  H17X15212   2.506   3.370   9.269
  139SAPE  H17Y15213   2.356   3.448   9.330
  139SAPE  C31815214   2.383   3.450   9.116
  139SAPE  H18X15215   2.414   3.557   9.122
  139SAPE  H18Y15216   2.275   3.451   9.088
  139SAPE  H18Z15217   2.441   3.403   9.034
  140SAPE     N15218   5.478   0.910  11.165
  140SAPE   HN115219   5.569   0.913  11.116
  140SAPE   HN215220   5.418   0.988  11.131
  140SAPE   HN315221   5.489   0.906  11.268
  140SAPE   C1215222   5.386   0.798  11.133
  140SAPE  H12A15223   5.406   0.773  11.027
  140SAPE  H12B15224   5.280   0.828  11.142
  140SAPE   C1115225   5.398   0.664  11.215
  140SAPE  H11A15226   5.329   0.584  11.181
  140SAPE  H11B15227   5.366   0.683  11.320
  140SAPE     P15228   5.582   0.520  11.086
  140SAPE   O1315229   5.711   0.565  11.032
  140SAPE   O1415230   5.582   0.387  11.146
  140SAPE   O1215231   5.530   0.616  11.203
  140SAPE   O1115232   5.477   0.524  10.978
  140SAPE    C115233   5.434   0.414  10.898
  140SAPE    HA15234   5.520   0.348  10.873
  140SAPE    HB15235   5.360   0.346  10.946
  140SAPE    C215236   5.368   0.481  10.769
  140SAPE    HS15237   5.347   0.404  10.692
  140SAPE   O2115238   5.461   0.584  10.720
  140SAPE   C2115239   5.573   0.539  10.665
  140SAPE   O2215240   5.604   0.419  10.651
  140SAPE   C2215241   5.670   0.646  10.611
  140SAPE   H2R15242   5.624   0.745  10.589
  140SAPE   H2S15243   5.751   0.659  10.685
  140SAPE    C315244   5.229   0.547  10.800
  140SAPE    HX15245   5.254   0.637  10.860
  140SAPE    HY15246   5.165   0.488  10.869
  140SAPE   O3115247   5.166   0.577  10.669
  140SAPE   C3115248   5.178   0.703  10.636
  140SAPE   O3215249   5.231   0.793  10.700
  140SAPE   C3215250   5.104   0.732  10.506
  140SAPE   H2X15251   5.084   0.842  10.504
  140SAPE   H2Y15252   5.008   0.676  10.505
  140SAPE   C2315253   5.742   0.603  10.474
  140SAPE   H3R15254   5.789   0.507  10.503
  140SAPE   H3S15255   5.820   0.671  10.435
  140SAPE   C2415256   5.646   0.569  10.360
  140SAPE   H4R15257   5.573   0.494  10.398
  140SAPE   H4S15258   5.707   0.527  10.277
  140SAPE   C2515259   5.567   0.691  10.305
  140SAPE   H5R15260   5.525   0.762  10.377
  140SAPE   C2615261   5.544   0.704  10.172
  140SAPE   H6R15262   5.490   0.798  10.150
  140SAPE   C2715263   5.584   0.597  10.065
  140SAPE   H7R15264   5.603   0.497  10.111
  140SAPE   H7S15265   5.682   0.626  10.022
  140SAPE   C2815266   5.481   0.579   9.956
  140SAPE   H8R15267   5.382   0.542   9.987
  140SAPE   C2915268   5.502   0.598   9.823
  140SAPE   H9R15269   5.424   0.578   9.749
  140SAPE  C21015270   5.624   0.660   9.756
  140SAPE  H10R15271   5.714   0.656   9.820
  140SAPE  H10S15272   5.600   0.768   9.745
  140SAPE  C21115273   5.644   0.597   9.619
  140SAPE  H11R15274   5.732   0.532   9.607
  140SAPE  C21215275   5.575   0.626   9.507
  140SAPE  H12R15276   5.592   0.564   9.418
  140SAPE  C21315277   5.456   0.722   9.484
  140SAPE  H13R15278   5.458   0.795   9.568
  140SAPE  H13S15279   5.359   0.670   9.494
  140SAPE  C21415280   5.441   0.800   9.359
  140SAPE  H14R15281   5.451   0.909   9.361
  140SAPE  C21515282   5.412   0.748   9.239
  140SAPE  H15R15283   5.395   0.812   9.152
  140SAPE  C21615284   5.379   0.606   9.211
  140SAPE  H16R15285   5.275   0.612   9.172
  140SAPE  H16S15286   5.373   0.548   9.305
  140SAPE  C21715287   5.477   0.535   9.115
  140SAPE  H17R15288   5.448   0.429   9.095
  140SAPE  H17S15289   5.577   0.525   9.163
  140SAPE  C21815290   5.502   0.599   8.972
  140SAPE  H18R15291   5.593   0.551   8.932
  140SAPE  H18S15292   5.525   0.705   8.993
  140SAPE  C21915293   5.385   0.593   8.859
  140SAPE  H19R15294   5.411   0.654   8.769
  140SAPE  H19S15295   5.302   0.653   8.902
  140SAPE  C22015296   5.332   0.457   8.814
  140SAPE  H20R15297   5.230   0.465   8.771
  140SAPE  H20S15298   5.324   0.383   8.896
  140SAPE  H20T15299   5.397   0.411   8.736
  140SAPE   C3315300   5.170   0.716  10.369
  140SAPE   H3X15301   5.205   0.612  10.349
  140SAPE   H3Y15302   5.256   0.786  10.358
  140SAPE   C3415303   5.074   0.742  10.253
  140SAPE   H4X15304   5.023   0.838  10.275
  140SAPE   H4Y15305   4.990   0.669  10.256
  140SAPE   C3515306   5.139   0.752  10.120
  140SAPE   H5X15307   5.208   0.668  10.098
  140SAPE   H5Y15308   5.195   0.846  10.101
  140SAPE   C3615309   5.038   0.745  10.001
  140SAPE   H6X15310   4.959   0.821  10.020
  140SAPE   H6Y15311   4.978   0.652  10.000
  140SAPE   C3715312   5.111   0.761   9.867
  140SAPE   H7X15313   5.180   0.674   9.863
  140SAPE   H7Y15314   5.173   0.852   9.859
  140SAPE   C3815315   5.002   0.757   9.762
  140SAPE   H8X15316   4.951   0.854   9.746
  140SAPE   H8Y15317   4.918   0.687   9.785
  140SAPE   C3915318   5.059   0.710   9.628
  140SAPE   H9X15319   5.102   0.611   9.653
  140SAPE   H9Y15320   5.145   0.770   9.591
  140SAPE  C31015321   4.964   0.685   9.515
  140SAPE  H10X15322   4.908   0.778   9.489
  140SAPE  H10Y15323   4.891   0.604   9.535
  140SAPE  C31115324   5.037   0.629   9.386
  140SAPE  H11X15325   5.117   0.560   9.420
  140SAPE  H11Y15326   5.100   0.710   9.344
  140SAPE  C31215327   4.936   0.571   9.282
  140SAPE  H12X15328   4.865   0.649   9.246
  140SAPE  H12Y15329   4.879   0.484   9.321
  140SAPE  C31315330   5.011   0.506   9.165
  140SAPE  H13X15331   5.077   0.427   9.207
  140SAPE  H13Y15332   5.076   0.582   9.116
  140SAPE  C31415333   4.910   0.468   9.057
  140SAPE  H14X15334   4.879   0.560   9.003
  140SAPE  H14Y15335   4.819   0.419   9.096
  140SAPE  C31515336   4.973   0.386   8.942
  140SAPE  H15X15337   4.983   0.282   8.979
  140SAPE  H15Y15338   5.071   0.421   8.903
  140SAPE  C31615339   4.891   0.371   8.814
  140SAPE  H16X15340   4.961   0.320   8.744
  140SAPE  H16Y15341   4.870   0.467   8.763
  140SAPE  C31715342   4.751   0.301   8.831
  140SAPE  H17X15343   4.691   0.365   8.899
  140SAPE  H17Y15344   4.758   0.200   8.876
  140SAPE  C31815345   4.672   0.284   8.700
  140SAPE  H18X15346   4.575   0.239   8.730
  140SAPE  H18Y15347   4.732   0.228   8.624
  140SAPE  H18Z15348   4.649   0.380   8.649
  141SAPE     N15349   5.208   1.893  10.894
  141SAPE   HN115350   5.216   1.994  10.918
  141SAPE   HN215351   5.263   1.872  10.809
  141SAPE   HN315352   5.108   1.877  10.868
  141SAPE   C1215353   5.254   1.806  11.013
  141SAPE  H12A15354   5.274   1.706  10.971
  141SAPE  H12B15355   5.169   1.802  11.084
  141SAPE   C1115356   5.379   1.876  11.066
  141SAPE  H11A15357   5.392   1.842  11.171
  141SAPE  H11B15358   5.374   1.987  11.070
  141SAPE     P15359   5.625   1.898  10.996
  141SAPE   O1315360   5.688   1.953  10.874
  141SAPE   O1415361   5.634   1.986  11.115
  141SAPE   O1215362   5.487   1.843  10.980
  141SAPE   O1115363   5.704   1.762  11.039
  141SAPE    C115364   5.640   1.637  11.071
  141SAPE    HA15365   5.626   1.625  11.180
  141SAPE    HB15366   5.542   1.628  11.018
  141SAPE    C215367   5.739   1.523  11.025
  141SAPE    HS15368   5.830   1.544  11.084
  141SAPE   O2115369   5.766   1.537  10.883
  141SAPE   C2115370   5.889   1.537  10.845
  141SAPE   O2215371   5.990   1.509  10.907
  141SAPE   C2215372   5.898   1.565  10.694
  141SAPE   H2R15373   5.998   1.599  10.660
  141SAPE   H2S15374   5.880   1.468  10.641
  141SAPE    C315375   5.683   1.386  11.059
  141SAPE    HX15376   5.573   1.398  11.046
  141SAPE    HY15377   5.703   1.368  11.167
  141SAPE   O3115378   5.760   1.290  10.975
  141SAPE   C3115379   5.680   1.230  10.882
  141SAPE   O3215380   5.567   1.264  10.857
  141SAPE   C3215381   5.758   1.126  10.809
  141SAPE   H2X15382   5.682   1.047  10.790
  141SAPE   H2Y15383   5.831   1.076  10.877
  141SAPE   C2315384   5.791   1.673  10.650
  141SAPE   H3R15385   5.814   1.770  10.698
  141SAPE   H3S15386   5.692   1.632  10.679
  141SAPE   C2415387   5.811   1.689  10.495
  141SAPE   H4R15388   5.915   1.719  10.470
  141SAPE   H4S15389   5.753   1.777  10.458
  141SAPE   C2515390   5.775   1.565  10.420
  141SAPE   H5R15391   5.720   1.491  10.481
  141SAPE   C2615392   5.771   1.545  10.283
  141SAPE   H6R15393   5.712   1.458  10.250
  141SAPE   C2715394   5.804   1.640  10.170
  141SAPE   H7R15395   5.792   1.582  10.076
  141SAPE   H7S15396   5.911   1.672  10.175
  141SAPE   C2815397   5.722   1.769  10.174
  141SAPE   H8R15398   5.672   1.791  10.270
  141SAPE   C2915399   5.719   1.854  10.074
  141SAPE   H9R15400   5.677   1.954  10.095
  141SAPE  C21015401   5.784   1.823   9.941
  141SAPE  H10R15402   5.857   1.739   9.944
  141SAPE  H10S15403   5.849   1.909   9.914
  141SAPE  C21115404   5.666   1.792   9.846
  141SAPE  H11R15405   5.602   1.709   9.879
  141SAPE  C21215406   5.614   1.869   9.752
  141SAPE  H12R15407   5.528   1.829   9.696
  141SAPE  C21315408   5.701   1.980   9.682
  141SAPE  H13R15409   5.793   1.922   9.661
  141SAPE  H13S15410   5.736   2.061   9.750
  141SAPE  C21415411   5.627   2.047   9.568
  141SAPE  H14R15412   5.564   2.131   9.602
  141SAPE  C21515413   5.633   2.022   9.437
  141SAPE  H15R15414   5.589   2.090   9.363
  141SAPE  C21615415   5.713   1.902   9.385
  141SAPE  H16R15416   5.755   1.834   9.462
  141SAPE  H16S15417   5.810   1.938   9.344
  141SAPE  C21715418   5.647   1.819   9.277
  141SAPE  H17R15419   5.651   1.872   9.180
  141SAPE  H17S15420   5.541   1.788   9.292
  141SAPE  C21815421   5.727   1.689   9.268
  141SAPE  H18R15422   5.720   1.636   9.365
  141SAPE  H18S15423   5.831   1.726   9.258
  141SAPE  C21915424   5.675   1.591   9.162
  141SAPE  H19R15425   5.690   1.630   9.060
  141SAPE  H19S15426   5.567   1.568   9.176
  141SAPE  C22015427   5.761   1.473   9.172
  141SAPE  H20R15428   5.737   1.402   9.090
  141SAPE  H20S15429   5.749   1.419   9.269
  141SAPE  H20T15430   5.865   1.508   9.160
  141SAPE   C3315431   5.820   1.172  10.678
  141SAPE   H3X15432   5.910   1.237  10.682
  141SAPE   H3Y15433   5.745   1.238  10.631
  141SAPE   C3415434   5.866   1.053  10.594
  141SAPE   H4X15435   5.788   0.984  10.556
  141SAPE   H4Y15436   5.931   0.985  10.653
  141SAPE   C3515437   5.933   1.108  10.471
  141SAPE   H5X15438   6.015   1.177  10.501
  141SAPE   H5Y15439   5.861   1.163  10.405
  141SAPE   C3615440   6.003   0.999  10.384
  141SAPE   H6X15441   6.024   0.922  10.461
  141SAPE   H6Y15442   6.101   1.035  10.347
  141SAPE   C3715443   5.926   0.937  10.272
  141SAPE   H7X15444   5.914   1.011  10.189
  141SAPE   H7Y15445   5.829   0.897  10.308
  141SAPE   C3815446   6.007   0.819  10.210
  141SAPE   H8X15447   5.936   0.766  10.144
  141SAPE   H8Y15448   6.045   0.754  10.292
  141SAPE   C3915449   6.122   0.865  10.125
  141SAPE   H9X15450   6.176   0.770  10.106
  141SAPE   H9Y15451   6.204   0.917  10.178
  141SAPE  C31015452   6.099   0.929   9.990
  141SAPE  H10X15453   6.191   0.974   9.950
  141SAPE  H10Y15454   6.022   1.009   9.995
  141SAPE  C31115455   6.049   0.819   9.892
  141SAPE  H11X15456   5.993   0.737   9.944
  141SAPE  H11Y15457   6.146   0.779   9.855
  141SAPE  C31215458   5.970   0.878   9.776
  141SAPE  H12X15459   5.999   0.984   9.764
  141SAPE  H12Y15460   5.861   0.875   9.799
  141SAPE  C31315461   5.995   0.822   9.637
  141SAPE  H13X15462   5.965   0.715   9.635
  141SAPE  H13Y15463   6.101   0.822   9.604
  141SAPE  C31415464   5.910   0.887   9.532
  141SAPE  H14X15465   5.913   0.998   9.544
  141SAPE  H14Y15466   5.806   0.859   9.560
  141SAPE  C31515467   5.937   0.844   9.383
  141SAPE  H15X15468   6.037   0.863   9.339
  141SAPE  H15Y15469   5.872   0.902   9.314
  141SAPE  C31615470   5.904   0.694   9.355
  141SAPE  H16X15471   5.799   0.675   9.386
  141SAPE  H16Y15472   5.974   0.645   9.425
  141SAPE  C31715473   5.939   0.636   9.217
  141SAPE  H17X15474   6.043   0.655   9.181
  141SAPE  H17Y15475   5.874   0.679   9.137
  141SAPE  C31815476   5.921   0.478   9.221
  141SAPE  H18X15477   5.819   0.456   9.258
  141SAPE  H18Y15478   6.001   0.442   9.289
  141SAPE  H18Z15479   5.936   0.431   9.122
  142SAPE     N15480   6.328   0.841  11.512
  142SAPE   HN115481   6.398   0.865  11.586
  142SAPE   HN215482   6.350   0.901  11.430
  142SAPE   HN315483   6.230   0.860  11.542
  142SAPE   C1215484   6.345   0.698  11.467
  142SAPE  H12A15485   6.339   0.630  11.555
  142SAPE  H12B15486   6.443   0.691  11.413
  142SAPE   C1115487   6.239   0.660  11.361
  142SAPE  H11A15488   6.138   0.654  11.409
  142SAPE  H11B15489   6.272   0.563  11.318
  142SAPE     P15490   6.134   0.742  11.145
  142SAPE   O1315491   6.003   0.719  11.213
  142SAPE   O1415492   6.147   0.850  11.044
  142SAPE   O1215493   6.235   0.763  11.260
  142SAPE   O1115494   6.174   0.614  11.072
  142SAPE    C115495   6.302   0.563  11.025
  142SAPE    HA15496   6.385   0.608  11.084
  142SAPE    HB15497   6.302   0.452  11.022
  142SAPE    C215498   6.331   0.602  10.876
  142SAPE    HS15499   6.326   0.713  10.870
  142SAPE   O2115500   6.235   0.538  10.793
  142SAPE   C2115501   6.211   0.586  10.674
  142SAPE   O2215502   6.243   0.697  10.634
  142SAPE   C2215503   6.143   0.480  10.597
  142SAPE   H2R15504   6.214   0.394  10.602
  142SAPE   H2S15505   6.045   0.459  10.645
  142SAPE    C315506   6.477   0.564  10.842
  142SAPE    HX15507   6.483   0.454  10.853
  142SAPE    HY15508   6.547   0.606  10.918
  142SAPE   O3115509   6.517   0.583  10.704
  142SAPE   C3115510   6.554   0.705  10.669
  142SAPE   O3215511   6.550   0.802  10.740
  142SAPE   C3215512   6.602   0.702  10.526
  142SAPE   H2X15513   6.534   0.642  10.461
  142SAPE   H2Y15514   6.701   0.653  10.528
  142SAPE   C2315515   6.107   0.533  10.455
  142SAPE   H3R15516   6.195   0.582  10.407
  142SAPE   H3S15517   6.035   0.617  10.460
  142SAPE   C2415518   6.066   0.415  10.365
  142SAPE   H4R15519   5.987   0.351  10.411
  142SAPE   H4S15520   6.156   0.351  10.355
  142SAPE   C2515521   6.022   0.465  10.221
  142SAPE   H5R15522   5.919   0.502  10.225
  142SAPE   C2615523   6.094   0.478  10.109
  142SAPE   H6R15524   6.041   0.516  10.020
  142SAPE   C2715525   6.240   0.426  10.097
  142SAPE   H7R15526   6.243   0.327  10.148
  142SAPE   H7S15527   6.306   0.496  10.151
  142SAPE   C2815528   6.311   0.420   9.963
  142SAPE   H8R15529   6.412   0.463   9.956
  142SAPE   C2915530   6.271   0.350   9.854
  142SAPE   H9R15531   6.320   0.356   9.756
  142SAPE  C21015532   6.145   0.268   9.845
  142SAPE  H10R15533   6.089   0.273   9.941
  142SAPE  H10S15534   6.177   0.162   9.836
  142SAPE  C21115535   6.057   0.294   9.727
  142SAPE  H11R15536   6.003   0.389   9.743
  142SAPE  C21215537   6.051   0.224   9.610
  142SAPE  H12R15538   5.981   0.252   9.530
  142SAPE  C21315539   6.143   0.111   9.572
  142SAPE  H13R15540   6.086   0.016   9.572
  142SAPE  H13S15541   6.230   0.095   9.640
  142SAPE  C21415542   6.199   0.148   9.437
  142SAPE  H14R15543   6.290   0.210   9.437
  142SAPE  C21515544   6.145   0.120   9.314
  142SAPE  H15R15545   6.195   0.166   9.228
  142SAPE  C21615546   6.025   0.036   9.275
  142SAPE  H16R15547   5.961   0.096   9.208
  142SAPE  H16S15548   5.973   0.008   9.369
  142SAPE  C21715549   6.049  -0.102   9.215
  142SAPE  H17R15550   5.952  -0.153   9.234
  142SAPE  H17S15551   6.115  -0.165   9.280
  142SAPE  C21815552   6.083  -0.118   9.071
  142SAPE  H18R15553   6.095  -0.223   9.036
  142SAPE  H18S15554   6.183  -0.071   9.061
  142SAPE  C21915555   5.983  -0.054   8.971
  142SAPE  H19R15556   6.000   0.055   8.988
  142SAPE  H19S15557   5.884  -0.068   9.019
  142SAPE  C22015558   6.005  -0.106   8.831
  142SAPE  H20R15559   5.920  -0.077   8.764
  142SAPE  H20S15560   6.001  -0.217   8.842
  142SAPE  H20T15561   6.105  -0.074   8.794
  142SAPE   C3315562   6.633   0.834  10.459
  142SAPE   H3X15563   6.706   0.894  10.518
  142SAPE   H3Y15564   6.545   0.900  10.470
  142SAPE   C3415565   6.666   0.805  10.312
  142SAPE   H4X15566   6.719   0.709  10.296
  142SAPE   H4Y15567   6.730   0.885  10.269
  142SAPE   C3515568   6.533   0.811  10.230
  142SAPE   H5X15569   6.499   0.914  10.204
  142SAPE   H5Y15570   6.453   0.761  10.288
  142SAPE   C3615571   6.567   0.746  10.094
  142SAPE   H6X15572   6.588   0.639  10.115
  142SAPE   H6Y15573   6.659   0.786  10.047
  142SAPE   C3715574   6.459   0.768   9.983
  142SAPE   H7X15575   6.444   0.877   9.968
  142SAPE   H7Y15576   6.357   0.730  10.003
  142SAPE   C3815577   6.504   0.714   9.847
  142SAPE   H8X15578   6.531   0.606   9.849
  142SAPE   H8Y15579   6.591   0.770   9.809
  142SAPE   C3915580   6.398   0.716   9.738
  142SAPE   H9X15581   6.357   0.818   9.720
  142SAPE   H9Y15582   6.311   0.652   9.765
  142SAPE  C31015583   6.441   0.676   9.598
  142SAPE  H10X15584   6.481   0.573   9.609
  142SAPE  H10Y15585   6.520   0.741   9.553
  142SAPE  C31115586   6.325   0.657   9.499
  142SAPE  H11X15587   6.291   0.760   9.471
  142SAPE  H11Y15588   6.242   0.595   9.540
  142SAPE  C31215589   6.386   0.588   9.380
  142SAPE  H12X15590   6.411   0.483   9.403
  142SAPE  H12Y15591   6.474   0.647   9.346
  142SAPE  C31315592   6.289   0.564   9.263
  142SAPE  H13X15593   6.266   0.659   9.210
  142SAPE  H13Y15594   6.192   0.518   9.289
  142SAPE  C31415595   6.358   0.455   9.168
  142SAPE  H14X15596   6.382   0.364   9.228
  142SAPE  H14Y15597   6.448   0.507   9.128
  142SAPE  C31515598   6.252   0.416   9.057
  142SAPE  H15X15599   6.226   0.506   8.998
  142SAPE  H15Y15600   6.157   0.389   9.107
  142SAPE  C31615601   6.309   0.303   8.965
  142SAPE  H16X15602   6.327   0.220   9.037
  142SAPE  H16Y15603   6.401   0.339   8.915
  142SAPE  C31715604   6.228   0.258   8.847
  142SAPE  H17X15605   6.220   0.354   8.792
  142SAPE  H17Y15606   6.124   0.230   8.875
  142SAPE  C31815607   6.288   0.161   8.739
  142SAPE  H18X15608   6.301   0.063   8.792
  142SAPE  H18Y15609   6.387   0.195   8.702
  142SAPE  H18Z15610   6.222   0.144   8.652
  143SAPE     N15611   1.575   1.163  10.872
  143SAPE   HN115612   1.472   1.168  10.886
  143SAPE   HN215613   1.626   1.194  10.956
  143SAPE   HN315614   1.602   1.228  10.795
  143SAPE   C1215615   1.616   1.016  10.835
  143SAPE  H12A15616   1.726   1.015  10.846
  143SAPE  H12B15617   1.589   1.003  10.728
  143SAPE   C1115618   1.541   0.913  10.921
  143SAPE  H11A15619   1.586   0.925  11.022
  143SAPE  H11B15620   1.574   0.811  10.892
  143SAPE     P15621   1.309   0.884  11.025
  143SAPE   O1315622   1.332   0.744  11.057
  143SAPE   O1415623   1.336   0.979  11.138
  143SAPE   O1215624   1.394   0.929  10.906
  143SAPE   O1115625   1.160   0.902  10.980
  143SAPE    C115626   1.096   0.799  10.907
  143SAPE    HA15627   1.100   0.698  10.952
  143SAPE    HB15628   0.991   0.832  10.892
  143SAPE    C215629   1.148   0.796  10.754
  143SAPE    HS15630   1.252   0.757  10.761
  143SAPE   O2115631   1.131   0.932  10.704
  143SAPE   C2115632   1.228   0.974  10.615
  143SAPE   O2215633   1.336   0.916  10.601
  143SAPE   C2215634   1.184   1.110  10.554
  143SAPE   H2R15635   1.097   1.078  10.493
  143SAPE   H2S15636   1.146   1.172  10.638
  143SAPE    C315637   1.070   0.694  10.671
  143SAPE    HX15638   0.972   0.742  10.649
  143SAPE    HY15639   1.056   0.596  10.723
  143SAPE   O3115640   1.134   0.678  10.541
  143SAPE   C3115641   1.250   0.616  10.534
  143SAPE   O3215642   1.319   0.571  10.625
  143SAPE   C3215643   1.270   0.571  10.389
  143SAPE   H2X15644   1.204   0.626  10.318
  143SAPE   H2Y15645   1.241   0.464  10.389
  143SAPE   C2315646   1.301   1.175  10.474
  143SAPE   H3R15647   1.331   1.114  10.386
  143SAPE   H3S15648   1.389   1.176  10.542
  143SAPE   C2415649   1.272   1.319  10.441
  143SAPE   H4R15650   1.349   1.362  10.373
  143SAPE   H4S15651   1.277   1.380  10.533
  143SAPE   C2515652   1.129   1.343  10.391
  143SAPE   H5R15653   1.060   1.380  10.468
  143SAPE   C2615654   1.081   1.327  10.272
  143SAPE   H6R15655   0.976   1.343  10.245
  143SAPE   C2715656   1.153   1.267  10.150
  143SAPE   H7R15657   1.093   1.182  10.111
  143SAPE   H7S15658   1.257   1.236  10.174
  143SAPE   C2815659   1.145   1.378  10.044
  143SAPE   H8R15660   1.153   1.483  10.078
  143SAPE   C2915661   1.120   1.353   9.911
  143SAPE   H9R15662   1.089   1.438   9.849
  143SAPE  C21015663   1.107   1.213   9.847
  143SAPE  H10R15664   1.004   1.196   9.809
  143SAPE  H10S15665   1.128   1.137   9.924
  143SAPE  C21115666   1.210   1.185   9.733
  143SAPE  H11R15667   1.306   1.238   9.744
  143SAPE  C21215668   1.198   1.112   9.622
  143SAPE  H12R15669   1.277   1.119   9.546
  143SAPE  C21315670   1.086   1.026   9.572
  143SAPE  H13R15671   1.042   0.985   9.665
  143SAPE  H13S15672   1.123   0.935   9.520
  143SAPE  C21415673   0.971   1.089   9.494
  143SAPE  H14R15674   0.889   1.132   9.553
  143SAPE  C21515675   0.965   1.104   9.360
  143SAPE  H15R15676   0.892   1.172   9.314
  143SAPE  C21615677   1.067   1.056   9.261
  143SAPE  H16R15678   1.166   1.035   9.306
  143SAPE  H16S15679   1.078   1.138   9.188
  143SAPE  C21715680   1.019   0.934   9.178
  143SAPE  H17R15681   1.089   0.910   9.095
  143SAPE  H17S15682   0.924   0.959   9.126
  143SAPE  C21815683   0.988   0.815   9.270
  143SAPE  H18R15684   0.913   0.846   9.345
  143SAPE  H18S15685   1.077   0.771   9.320
  143SAPE  C21915686   0.919   0.703   9.198
  143SAPE  H19R15687   0.984   0.670   9.115
  143SAPE  H19S15688   0.825   0.742   9.153
  143SAPE  C22015689   0.873   0.584   9.291
  143SAPE  H20R15690   0.954   0.565   9.365
  143SAPE  H20S15691   0.850   0.491   9.235
  143SAPE  H20T15692   0.781   0.611   9.348
  143SAPE   C3315693   1.416   0.581  10.341
  143SAPE   H3X15694   1.418   0.520  10.248
  143SAPE   H3Y15695   1.491   0.546  10.415
  143SAPE   C3415696   1.465   0.723  10.300
  143SAPE   H4X15697   1.570   0.703  10.269
  143SAPE   H4Y15698   1.480   0.789  10.389
  143SAPE   C3515699   1.383   0.791  10.187
  143SAPE   H5X15700   1.435   0.883  10.153
  143SAPE   H5Y15701   1.295   0.829  10.244
  143SAPE   C3615702   1.334   0.699  10.075
  143SAPE   H6X15703   1.268   0.624  10.124
  143SAPE   H6Y15704   1.421   0.647  10.031
  143SAPE   C3715705   1.275   0.783   9.959
  143SAPE   H7X15706   1.357   0.844   9.917
  143SAPE   H7Y15707   1.202   0.843  10.018
  143SAPE   C3815708   1.202   0.705   9.856
  143SAPE   H8X15709   1.137   0.770   9.794
  143SAPE   H8Y15710   1.141   0.630   9.913
  143SAPE   C3915711   1.297   0.625   9.759
  143SAPE   H9X15712   1.300   0.515   9.768
  143SAPE   H9Y15713   1.400   0.649   9.795
  143SAPE  C31015714   1.281   0.656   9.608
  143SAPE  H10X15715   1.263   0.765   9.599
  143SAPE  H10Y15716   1.182   0.620   9.574
  143SAPE  C31115717   1.399   0.616   9.523
  143SAPE  H11X15718   1.424   0.508   9.518
  143SAPE  H11Y15719   1.485   0.655   9.582
  143SAPE  C31215720   1.387   0.668   9.378
  143SAPE  H12X15721   1.489   0.696   9.344
  143SAPE  H12Y15722   1.323   0.759   9.378
  143SAPE  C31315723   1.326   0.557   9.283
  143SAPE  H13X15724   1.221   0.543   9.317
  143SAPE  H13Y15725   1.369   0.455   9.287
  143SAPE  C31415726   1.320   0.618   9.145
  143SAPE  H14X15727   1.422   0.610   9.100
  143SAPE  H14Y15728   1.284   0.723   9.150
  143SAPE  C31515729   1.226   0.539   9.053
  143SAPE  H15X15730   1.127   0.543   9.103
  143SAPE  H15Y15731   1.259   0.434   9.041
  143SAPE  C31615732   1.227   0.604   8.912
  143SAPE  H16X15733   1.326   0.588   8.866
  143SAPE  H16Y15734   1.220   0.714   8.927
  143SAPE  C31715735   1.109   0.549   8.831
  143SAPE  H17X15736   1.020   0.587   8.885
  143SAPE  H17Y15737   1.095   0.441   8.851
  143SAPE  C31815738   1.098   0.595   8.683
  143SAPE  H18X15739   1.134   0.700   8.680
  143SAPE  H18Y15740   0.992   0.585   8.651
  143SAPE  H18Z15741   1.170   0.537   8.621
  144SAPE     N15742   4.487   5.811  11.372
  144SAPE   HN115743   4.462   5.860  11.460
  144SAPE   HN215744   4.485   5.708  11.380
  144SAPE   HN315745   4.583   5.846  11.354
  144SAPE   C1215746   4.407   5.857  11.257
  144SAPE  H12A15747   4.390   5.966  11.274
  144SAPE  H12B15748   4.319   5.789  11.264
  144SAPE   C1115749   4.486   5.830  11.127
  144SAPE  H11A15750   4.583   5.881  11.136
  144SAPE  H11B15751   4.429   5.882  11.047
  144SAPE     P15752   4.434   5.623  10.965
  144SAPE   O1315753   4.477   5.483  10.971
  144SAPE   O1415754   4.288   5.647  10.960
  144SAPE   O1215755   4.500   5.692  11.094
  144SAPE   O1115756   4.511   5.696  10.851
  144SAPE    C115757   4.457   5.802  10.767
  144SAPE    HA15758   4.402   5.874  10.832
  144SAPE    HB15759   4.540   5.856  10.716
  144SAPE    C215760   4.365   5.756  10.648
  144SAPE    HS15761   4.270   5.727  10.700
  144SAPE   O2115762   4.407   5.640  10.589
  144SAPE   C2115763   4.500   5.650  10.489
  144SAPE   O2215764   4.570   5.743  10.462
  144SAPE   C2215765   4.492   5.519  10.405
  144SAPE   H2R15766   4.591   5.507  10.357
  144SAPE   H2S15767   4.475   5.428  10.466
  144SAPE    C315768   4.339   5.880  10.554
  144SAPE    HX15769   4.441   5.911  10.523
  144SAPE    HY15770   4.291   5.968  10.602
  144SAPE   O3115771   4.282   5.828  10.427
  144SAPE   C3115772   4.155   5.798  10.428
  144SAPE   O3215773   4.078   5.809  10.522
  144SAPE   C3215774   4.109   5.746  10.284
  144SAPE   H2X15775   4.203   5.721  10.230
  144SAPE   H2Y15776   4.058   5.835  10.241
  144SAPE   C2315777   4.385   5.522  10.296
  144SAPE   H3R15778   4.382   5.626  10.258
  144SAPE   H3S15779   4.280   5.508  10.332
  144SAPE   C2415780   4.416   5.414  10.187
  144SAPE   H4R15781   4.438   5.321  10.244
  144SAPE   H4S15782   4.517   5.438  10.149
  144SAPE   C2515783   4.321   5.386  10.074
  144SAPE   H5R15784   4.267   5.290  10.079
  144SAPE   C2615785   4.307   5.454   9.960
  144SAPE   H6R15786   4.247   5.410   9.880
  144SAPE   C2715787   4.371   5.592   9.923
  144SAPE   H7R15788   4.454   5.559   9.857
  144SAPE   H7S15789   4.408   5.640  10.016
  144SAPE   C2815790   4.275   5.678   9.854
  144SAPE   H8R15791   4.236   5.759   9.917
  144SAPE   C2915792   4.234   5.674   9.724
  144SAPE   H9R15793   4.155   5.747   9.700
  144SAPE  C21015794   4.263   5.557   9.635
  144SAPE  H10R15795   4.264   5.458   9.686
  144SAPE  H10S15796   4.366   5.565   9.595
  144SAPE  C21115797   4.161   5.534   9.521
  144SAPE  H11R15798   4.072   5.476   9.548
  144SAPE  C21215799   4.158   5.592   9.397
  144SAPE  H12R15800   4.065   5.580   9.339
  144SAPE  C21315801   4.262   5.677   9.332
  144SAPE  H13R15802   4.338   5.714   9.404
  144SAPE  H13S15803   4.214   5.767   9.288
  144SAPE  C21415804   4.344   5.604   9.228
  144SAPE  H14R15805   4.442   5.565   9.260
  144SAPE  C21515806   4.303   5.573   9.098
  144SAPE  H15R15807   4.366   5.506   9.038
  144SAPE  C21615808   4.177   5.637   9.048
  144SAPE  H16R15809   4.200   5.732   8.996
  144SAPE  H16S15810   4.097   5.651   9.124
  144SAPE  C21715811   4.103   5.537   8.948
  144SAPE  H17R15812   4.170   5.508   8.865
  144SAPE  H17S15813   4.018   5.597   8.907
  144SAPE  C21815814   4.052   5.407   9.013
  144SAPE  H18R15815   3.956   5.424   9.066
  144SAPE  H18S15816   4.135   5.371   9.078
  144SAPE  C21915817   4.038   5.294   8.911
  144SAPE  H19R15818   4.009   5.199   8.960
  144SAPE  H19S15819   4.134   5.269   8.860
  144SAPE  C22015820   3.952   5.327   8.794
  144SAPE  H20R15821   3.953   5.235   8.732
  144SAPE  H20S15822   3.984   5.418   8.737
  144SAPE  H20T15823   3.846   5.346   8.822
  144SAPE   C3315824   3.997   5.637  10.287
  144SAPE   H3X15825   3.904   5.676  10.333
  144SAPE   H3Y15826   4.021   5.552  10.354
  144SAPE   C3415827   3.968   5.575  10.146
  144SAPE   H4X15828   3.901   5.489  10.170
  144SAPE   H4Y15829   4.064   5.533  10.109
  144SAPE   C3515830   3.925   5.684  10.047
  144SAPE   H5X15831   4.003   5.763  10.044
  144SAPE   H5Y15832   3.834   5.732  10.089
  144SAPE   C3615833   3.899   5.622   9.905
  144SAPE   H6X15834   3.815   5.550   9.915
  144SAPE   H6Y15835   3.991   5.567   9.878
  144SAPE   C3715836   3.860   5.718   9.802
  144SAPE   H7X15837   3.944   5.789   9.794
  144SAPE   H7Y15838   3.771   5.775   9.837
  144SAPE   C3815839   3.824   5.656   9.664
  144SAPE   H8X15840   3.755   5.572   9.686
  144SAPE   H8Y15841   3.918   5.631   9.611
  144SAPE   C3915842   3.744   5.756   9.581
  144SAPE   H9X15843   3.795   5.853   9.561
  144SAPE   H9Y15844   3.656   5.776   9.645
  144SAPE  C31015845   3.704   5.702   9.445
  144SAPE  H10X15846   3.594   5.695   9.427
  144SAPE  H10Y15847   3.743   5.598   9.440
  144SAPE  C31115848   3.753   5.790   9.328
  144SAPE  H11X15849   3.861   5.810   9.342
  144SAPE  H11Y15850   3.709   5.891   9.335
  144SAPE  C31215851   3.724   5.731   9.189
  144SAPE  H12X15852   3.613   5.737   9.182
  144SAPE  H12Y15853   3.764   5.628   9.196
  144SAPE  C31315854   3.793   5.816   9.082
  144SAPE  H13X15855   3.899   5.828   9.115
  144SAPE  H13Y15856   3.753   5.919   9.090
  144SAPE  C31415857   3.770   5.763   8.938
  144SAPE  H14X15858   3.841   5.682   8.912
  144SAPE  H14Y15859   3.806   5.843   8.870
  144SAPE  C31515860   3.626   5.734   8.909
  144SAPE  H15X15861   3.563   5.813   8.956
  144SAPE  H15Y15862   3.593   5.640   8.959
  144SAPE  C31615863   3.595   5.729   8.763
  144SAPE  H16X15864   3.674   5.679   8.703
  144SAPE  H16Y15865   3.581   5.830   8.720
  144SAPE  C31715866   3.453   5.659   8.745
  144SAPE  H17X15867   3.383   5.721   8.805
  144SAPE  H17Y15868   3.465   5.554   8.779
  144SAPE  C31815869   3.407   5.664   8.602
  144SAPE  H18X15870   3.315   5.605   8.581
  144SAPE  H18Y15871   3.490   5.628   8.536
  144SAPE  H18Z15872   3.385   5.766   8.563
  145SAPE     N15873   1.534   0.294  11.434
  145SAPE   HN115874   1.579   0.314  11.342
  145SAPE   HN215875   1.576   0.368  11.494
  145SAPE   HN315876   1.564   0.205  11.478
  145SAPE   C1215877   1.378   0.333  11.427
  145SAPE  H12A15878   1.376   0.444  11.422
  145SAPE  H12B15879   1.346   0.284  11.522
  145SAPE   C1115880   1.309   0.256  11.310
  145SAPE  H11A15881   1.359   0.284  11.214
  145SAPE  H11B15882   1.204   0.290  11.304
  145SAPE     P15883   1.202   0.021  11.338
  145SAPE   O1315884   1.255  -0.114  11.367
  145SAPE   O1415885   1.089   0.064  11.423
  145SAPE   O1215886   1.320   0.122  11.350
  145SAPE   O1115887   1.160   0.033  11.187
  145SAPE    C115888   1.236  -0.059  11.101
  145SAPE    HA15889   1.341  -0.073  11.134
  145SAPE    HB15890   1.185  -0.157  11.095
  145SAPE    C215891   1.269   0.004  10.958
  145SAPE    HS15892   1.342   0.088  10.966
  145SAPE   O2115893   1.137   0.051  10.903
  145SAPE   C2115894   1.136   0.160  10.824
  145SAPE   O2215895   1.234   0.225  10.792
  145SAPE   C2215896   0.998   0.176  10.767
  145SAPE   H2R15897   0.950   0.084  10.728
  145SAPE   H2S15898   0.939   0.223  10.848
  145SAPE    C315899   1.334  -0.103  10.873
  145SAPE    HX15900   1.265  -0.190  10.874
  145SAPE    HY15901   1.432  -0.127  10.919
  145SAPE   O3115902   1.351  -0.053  10.739
  145SAPE   C3115903   1.473  -0.008  10.699
  145SAPE   O3215904   1.574  -0.016  10.765
  145SAPE   C3215905   1.470   0.040  10.552
  145SAPE   H2X15906   1.368   0.075  10.524
  145SAPE   H2Y15907   1.496  -0.044  10.485
  145SAPE   C2315908   0.993   0.291  10.665
  145SAPE   H3R15909   1.088   0.287  10.608
  145SAPE   H3S15910   0.981   0.391  10.713
  145SAPE   C2415911   0.873   0.287  10.564
  145SAPE   H4R15912   0.781   0.276  10.626
  145SAPE   H4S15913   0.881   0.189  10.512
  145SAPE   C2515914   0.846   0.397  10.463
  145SAPE   H5R15915   0.805   0.490  10.507
  145SAPE   C2615916   0.877   0.396  10.328
  145SAPE   H6R15917   0.860   0.485  10.265
  145SAPE   C2715918   0.932   0.277  10.248
  145SAPE   H7R15919   0.844   0.237  10.193
  145SAPE   H7S15920   0.967   0.201  10.321
  145SAPE   C2815921   1.050   0.301  10.164
  145SAPE   H8R15922   1.143   0.303  10.222
  145SAPE   C2915923   1.055   0.309  10.032
  145SAPE   H9R15924   1.151   0.334   9.985
  145SAPE  C21015925   0.946   0.300   9.929
  145SAPE  H10R15926   0.852   0.267   9.979
  145SAPE  H10S15927   0.975   0.224   9.853
  145SAPE  C21115928   0.947   0.438   9.870
  145SAPE  H11R15929   0.982   0.515   9.942
  145SAPE  C21215930   0.926   0.479   9.741
  145SAPE  H12R15931   0.940   0.586   9.717
  145SAPE  C21315932   0.876   0.396   9.616
  145SAPE  H13R15933   0.837   0.467   9.540
  145SAPE  H13S15934   0.781   0.345   9.641
  145SAPE  C21415935   0.964   0.296   9.553
  145SAPE  H14R15936   1.063   0.290   9.602
  145SAPE  C21515937   0.925   0.217   9.458
  145SAPE  H15R15938   0.990   0.136   9.422
  145SAPE  C21615939   0.788   0.221   9.405
  145SAPE  H16R15940   0.727   0.311   9.425
  145SAPE  H16S15941   0.735   0.135   9.453
  145SAPE  C21715942   0.780   0.198   9.253
  145SAPE  H17R15943   0.802   0.288   9.191
  145SAPE  H17S15944   0.672   0.180   9.233
  145SAPE  C21815945   0.849   0.072   9.200
  145SAPE  H18R15946   0.823  -0.023   9.252
  145SAPE  H18S15947   0.955   0.067   9.233
  145SAPE  C21915948   0.850   0.053   9.048
  145SAPE  H19R15949   0.910  -0.035   9.014
  145SAPE  H19S15950   0.873   0.146   8.993
  145SAPE  C22015951   0.710   0.003   8.999
  145SAPE  H20R15952   0.720  -0.025   8.892
  145SAPE  H20S15953   0.640   0.089   9.000
  145SAPE  H20T15954   0.666  -0.083   9.054
  145SAPE   C3315955   1.559   0.162  10.539
  145SAPE   H3X15956   1.670   0.150  10.543
  145SAPE   H3Y15957   1.544   0.233  10.623
  145SAPE   C3415958   1.518   0.245  10.411
  145SAPE   H4X15959   1.596   0.323  10.398
  145SAPE   H4Y15960   1.422   0.302  10.416
  145SAPE   C3515961   1.513   0.162  10.277
  145SAPE   H5X15962   1.434   0.084  10.282
  145SAPE   H5Y15963   1.613   0.115  10.273
  145SAPE   C3615964   1.493   0.252  10.149
  145SAPE   H6X15965   1.568   0.333  10.156
  145SAPE   H6Y15966   1.394   0.300  10.163
  145SAPE   C3715967   1.482   0.183  10.013
  145SAPE   H7X15968   1.393   0.116  10.019
  145SAPE   H7Y15969   1.580   0.136   9.992
  145SAPE   C3815970   1.453   0.282   9.897
  145SAPE   H8X15971   1.512   0.375   9.915
  145SAPE   H8Y15972   1.349   0.317   9.914
  145SAPE   C3915973   1.486   0.220   9.763
  145SAPE   H9X15974   1.562   0.140   9.757
  145SAPE   H9Y15975   1.534   0.307   9.712
  145SAPE  C31015976   1.357   0.186   9.692
  145SAPE  H10X15977   1.281   0.261   9.723
  145SAPE  H10Y15978   1.321   0.092   9.739
  145SAPE  C31115979   1.374   0.185   9.544
  145SAPE  H11X15980   1.406   0.284   9.505
  145SAPE  H11Y15981   1.271   0.163   9.506
  145SAPE  C31215982   1.471   0.092   9.469
  145SAPE  H12X15983   1.432  -0.010   9.488
  145SAPE  H12Y15984   1.571   0.099   9.519
  145SAPE  C31315985   1.470   0.109   9.312
  145SAPE  H13X15986   1.526   0.030   9.257
  145SAPE  H13Y15987   1.510   0.210   9.288
  145SAPE  C31415988   1.328   0.107   9.247
  145SAPE  H14X15989   1.267   0.195   9.275
  145SAPE  H14Y15990   1.265   0.019   9.275
  145SAPE  C31515991   1.336   0.113   9.090
  145SAPE  H15X15992   1.383   0.019   9.054
  145SAPE  H15Y15993   1.409   0.195   9.074
  145SAPE  C31615994   1.200   0.129   9.020
  145SAPE  H16X15995   1.136   0.208   9.067
  145SAPE  H16Y15996   1.145   0.033   9.031
  145SAPE  C31715997   1.208   0.144   8.867
  145SAPE  H17X15998   1.268   0.057   8.829
  145SAPE  H17Y15999   1.273   0.227   8.833
  145SAPE  C31816000   1.072   0.147   8.797
  145SAPE  H18X16001   1.089   0.152   8.688
  145SAPE  H18Y16002   1.014   0.233   8.837
  145SAPE  H18Z16003   1.013   0.054   8.810
  146SAPE     N16004   5.256   6.076  10.957
  146SAPE   HN116005   5.310   6.162  10.932
  146SAPE   HN216006   5.263   6.014  10.875
  146SAPE   HN316007   5.157   6.100  10.975
  146SAPE   C1216008   5.308   6.020  11.084
  146SAPE  H12A16009   5.234   5.943  11.114
  146SAPE  H12B16010   5.299   6.103  11.157
  146SAPE   C1116011   5.453   5.971  11.063
  146SAPE  H11A16012   5.491   5.938  11.162
  146SAPE  H11B16013   5.512   6.059  11.028
  146SAPE     P16014   5.553   5.856  10.846
  146SAPE   O1316015   5.676   5.807  10.908
  146SAPE   O1416016   5.494   5.769  10.742
  146SAPE   O1216017   5.455   5.861  10.971
  146SAPE   O1116018   5.572   6.001  10.796
  146SAPE    C116019   5.514   6.060  10.689
  146SAPE    HA16020   5.412   6.023  10.662
  146SAPE    HB16021   5.503   6.168  10.712
  146SAPE    C216022   5.590   6.040  10.561
  146SAPE    HS16023   5.609   5.930  10.556
  146SAPE   O2116024   5.715   6.112  10.553
  146SAPE   C2116025   5.811   6.052  10.486
  146SAPE   O2216026   5.816   5.928  10.463
  146SAPE   C2216027   5.911   6.155  10.447
  146SAPE   H2R16028   5.845   6.230  10.399
  146SAPE   H2S16029   5.956   6.196  10.540
  146SAPE    C316030   5.506   6.075  10.437
  146SAPE    HX16031   5.517   6.185  10.430
  146SAPE    HY16032   5.396   6.071  10.455
  146SAPE   O3116033   5.551   6.009  10.316
  146SAPE   C3116034   5.476   5.916  10.261
  146SAPE   O3216035   5.374   5.875  10.306
  146SAPE   C3216036   5.524   5.870  10.128
  146SAPE   H2X16037   5.602   5.791  10.135
  146SAPE   H2Y16038   5.558   5.960  10.071
  146SAPE   C2316039   6.027   6.114  10.350
  146SAPE   H3R16040   5.996   6.082  10.248
  146SAPE   H3S16041   6.082   6.032  10.400
  146SAPE   C2416042   6.128   6.225  10.334
  146SAPE   H4R16043   6.220   6.177  10.293
  146SAPE   H4S16044   6.158   6.258  10.436
  146SAPE   C2516045   6.088   6.346  10.246
  146SAPE   H5R16046   6.007   6.411  10.283
  146SAPE   C2616047   6.153   6.387  10.132
  146SAPE   H6R16048   6.109   6.473  10.079
  146SAPE   C2716049   6.278   6.323  10.072
  146SAPE   H7R16050   6.335   6.250  10.134
  146SAPE   H7S16051   6.346   6.404  10.038
  146SAPE   C2816052   6.228   6.255   9.943
  146SAPE   H8R16053   6.143   6.187   9.953
  146SAPE   C2916054   6.258   6.283   9.813
  146SAPE   H9R16055   6.214   6.220   9.735
  146SAPE  C21016056   6.349   6.400   9.764
  146SAPE  H10R16057   6.443   6.362   9.718
  146SAPE  H10S16058   6.382   6.462   9.850
  146SAPE  C21116059   6.286   6.495   9.666
  146SAPE  H11R16060   6.179   6.480   9.643
  146SAPE  C21216061   6.345   6.599   9.605
  146SAPE  H12R16062   6.289   6.648   9.523
  146SAPE  C21316063   6.496   6.642   9.622
  146SAPE  H13R16064   6.547   6.649   9.524
  146SAPE  H13S16065   6.557   6.574   9.686
  146SAPE  C21416066   6.505   6.773   9.707
  146SAPE  H14R16067   6.447   6.768   9.800
  146SAPE  C21516068   6.575   6.888   9.673
  146SAPE  H15R16069   6.593   6.970   9.744
  146SAPE  C21616070   6.661   6.917   9.551
  146SAPE  H16R16071   6.664   6.827   9.486
  146SAPE  H16S16072   6.763   6.950   9.580
  146SAPE  C21716073   6.601   7.021   9.450
  146SAPE  H17R16074   6.573   7.118   9.498
  146SAPE  H17S16075   6.504   6.977   9.419
  146SAPE  C21816076   6.679   7.039   9.314
  146SAPE  H18R16077   6.786   7.065   9.325
  146SAPE  H18S16078   6.637   7.122   9.252
  146SAPE  C21916079   6.686   6.911   9.223
  146SAPE  H19R16080   6.745   6.836   9.280
  146SAPE  H19S16081   6.734   6.947   9.130
  146SAPE  C22016082   6.562   6.841   9.179
  146SAPE  H20R16083   6.501   6.803   9.263
  146SAPE  H20S16084   6.583   6.761   9.104
  146SAPE  H20T16085   6.505   6.916   9.120
  146SAPE   C3316086   5.395   5.827  10.036
  146SAPE   H3X16087   5.321   5.908  10.049
  146SAPE   H3Y16088   5.355   5.731  10.076
  146SAPE   C3416089   5.445   5.810   9.899
  146SAPE   H4X16090   5.518   5.728   9.884
  146SAPE   H4Y16091   5.495   5.903   9.863
  146SAPE   C3516092   5.334   5.796   9.795
  146SAPE   H5X16093   5.275   5.889   9.792
  146SAPE   H5Y16094   5.268   5.711   9.823
  146SAPE   C3616095   5.363   5.775   9.652
  146SAPE   H6X16096   5.427   5.684   9.654
  146SAPE   H6Y16097   5.429   5.853   9.609
  146SAPE   C3716098   5.246   5.768   9.551
  146SAPE   H7X16099   5.178   5.851   9.579
  146SAPE   H7Y16100   5.189   5.674   9.565
  146SAPE   C3816101   5.301   5.783   9.410
  146SAPE   H8X16102   5.364   5.700   9.372
  146SAPE   H8Y16103   5.352   5.881   9.396
  146SAPE   C3916104   5.186   5.787   9.295
  146SAPE   H9X16105   5.129   5.880   9.316
  146SAPE   H9Y16106   5.119   5.700   9.308
  146SAPE  C31016107   5.240   5.799   9.158
  146SAPE  H10X16108   5.316   5.718   9.152
  146SAPE  H10Y16109   5.299   5.893   9.151
  146SAPE  C31116110   5.131   5.778   9.056
  146SAPE  H11X16111   5.052   5.852   9.083
  146SAPE  H11Y16112   5.085   5.677   9.060
  146SAPE  C31216113   5.170   5.817   8.909
  146SAPE  H12X16114   5.276   5.786   8.897
  146SAPE  H12Y16115   5.172   5.928   8.912
  146SAPE  C31316116   5.098   5.750   8.791
  146SAPE  H13X16117   5.010   5.814   8.772
  146SAPE  H13Y16118   5.078   5.644   8.817
  146SAPE  C31416119   5.186   5.741   8.668
  146SAPE  H14X16120   5.281   5.691   8.699
  146SAPE  H14Y16121   5.215   5.842   8.631
  146SAPE  C31516122   5.118   5.662   8.547
  146SAPE  H15X16123   5.036   5.729   8.511
  146SAPE  H15Y16124   5.071   5.566   8.578
  146SAPE  C31616125   5.210   5.629   8.431
  146SAPE  H16X16126   5.310   5.600   8.471
  146SAPE  H16Y16127   5.232   5.729   8.387
  146SAPE  C31716128   5.168   5.531   8.324
  146SAPE  H17X16129   5.079   5.575   8.275
  146SAPE  H17Y16130   5.127   5.437   8.367
  146SAPE  C31816131   5.284   5.488   8.223
  146SAPE  H18X16132   5.376   5.449   8.271
  146SAPE  H18Y16133   5.320   5.584   8.180
  146SAPE  H18Z16134   5.248   5.423   8.141
  147SAPE     N16135   3.569   4.354   6.438
  147SAPE   HN116136   3.620   4.433   6.483
  147SAPE   HN216137   3.643   4.290   6.401
  147SAPE   HN316138   3.521   4.407   6.363
  147SAPE   C1216139   3.468   4.273   6.509
  147SAPE  H12A16140   3.522   4.224   6.592
  147SAPE  H12B16141   3.429   4.193   6.443
  147SAPE   C1116142   3.345   4.352   6.558
  147SAPE  H11A16143   3.376   4.437   6.623
  147SAPE  H11B16144   3.290   4.281   6.623
  147SAPE     P16145   3.162   4.320   6.373
  147SAPE   O1316146   3.070   4.408   6.297
  147SAPE   O1416147   3.226   4.204   6.309
  147SAPE   O1216148   3.271   4.412   6.451
  147SAPE   O1116149   3.077   4.262   6.496
  147SAPE    C116150   2.980   4.322   6.583
  147SAPE    HA16151   2.971   4.432   6.568
  147SAPE    HB16152   2.876   4.289   6.567
  147SAPE    C216153   3.023   4.313   6.736
  147SAPE    HS16154   3.102   4.390   6.749
  147SAPE   O2116155   3.076   4.179   6.775
  147SAPE   C2116156   3.184   4.172   6.847
  147SAPE   O2216157   3.243   4.266   6.890
  147SAPE   C2216158   3.234   4.030   6.855
  147SAPE   H2R16159   3.153   3.962   6.889
  147SAPE   H2S16160   3.254   4.006   6.748
  147SAPE    C316161   2.913   4.353   6.838
  147SAPE    HX16162   2.834   4.275   6.828
  147SAPE    HY16163   2.857   4.446   6.813
  147SAPE   O3116164   2.961   4.355   6.975
  147SAPE   C3116165   3.006   4.470   7.011
  147SAPE   O3216166   3.025   4.568   6.939
  147SAPE   C3216167   3.050   4.464   7.155
  147SAPE   H2X16168   3.151   4.418   7.158
  147SAPE   H2Y16169   2.985   4.393   7.210
  147SAPE   C2316170   3.362   4.011   6.939
  147SAPE   H3R16171   3.436   4.091   6.918
  147SAPE   H3S16172   3.405   3.915   6.903
  147SAPE   C2416173   3.338   3.988   7.087
  147SAPE   H4R16174   3.325   4.085   7.139
  147SAPE   H4S16175   3.436   3.949   7.123
  147SAPE   C2516176   3.243   3.881   7.124
  147SAPE   H5R16177   3.280   3.779   7.107
  147SAPE   C2616178   3.127   3.900   7.183
  147SAPE   H6R16179   3.057   3.817   7.199
  147SAPE   C2716180   3.065   4.035   7.201
  147SAPE   H7R16181   3.091   4.094   7.111
  147SAPE   H7S16182   3.117   4.095   7.278
  147SAPE   C2816183   2.911   4.036   7.226
  147SAPE   H8R16184   2.851   3.961   7.172
  147SAPE   C2916185   2.848   4.088   7.334
  147SAPE   H9R16186   2.739   4.092   7.323
  147SAPE  C21016187   2.906   4.159   7.449
  147SAPE  H10R16188   3.005   4.205   7.429
  147SAPE  H10S16189   2.928   4.091   7.534
  147SAPE  C21116190   2.818   4.270   7.499
  147SAPE  H11R16191   2.813   4.359   7.434
  147SAPE  C21216192   2.738   4.274   7.605
  147SAPE  H12R16193   2.694   4.372   7.627
  147SAPE  C21316194   2.706   4.153   7.695
  147SAPE  H13R16195   2.773   4.154   7.784
  147SAPE  H13S16196   2.721   4.053   7.649
  147SAPE  C21416197   2.562   4.159   7.746
  147SAPE  H14R16198   2.555   4.169   7.855
  147SAPE  C21516199   2.451   4.122   7.673
  147SAPE  H15R16200   2.353   4.132   7.723
  147SAPE  C21616201   2.459   4.088   7.525
  147SAPE  H16R16202   2.405   3.992   7.510
  147SAPE  H16S16203   2.566   4.073   7.499
  147SAPE  C21716204   2.405   4.205   7.442
  147SAPE  H17R16205   2.449   4.299   7.481
  147SAPE  H17S16206   2.295   4.202   7.457
  147SAPE  C21816207   2.428   4.187   7.291
  147SAPE  H18R16208   2.534   4.197   7.261
  147SAPE  H18S16209   2.365   4.266   7.245
  147SAPE  C21916210   2.382   4.048   7.244
  147SAPE  H19R16211   2.274   4.035   7.266
  147SAPE  H19S16212   2.440   3.975   7.305
  147SAPE  C22016213   2.390   4.029   7.086
  147SAPE  H20R16214   2.410   3.923   7.059
  147SAPE  H20S16215   2.481   4.081   7.051
  147SAPE  H20T16216   2.298   4.061   7.033
  147SAPE   C3316217   3.051   4.605   7.219
  147SAPE   H3X16218   2.956   4.663   7.220
  147SAPE   H3Y16219   3.131   4.659   7.163
  147SAPE   C3416220   3.095   4.601   7.369
  147SAPE   H4X16221   3.178   4.530   7.387
  147SAPE   H4Y16222   2.999   4.575   7.420
  147SAPE   C3516223   3.147   4.736   7.409
  147SAPE   H5X16224   3.062   4.805   7.392
  147SAPE   H5Y16225   3.246   4.744   7.358
  147SAPE   C3616226   3.184   4.742   7.560
  147SAPE   H6X16227   3.229   4.840   7.588
  147SAPE   H6Y16228   3.266   4.669   7.579
  147SAPE   C3716229   3.084   4.687   7.664
  147SAPE   H7X16230   3.058   4.582   7.640
  147SAPE   H7Y16231   2.994   4.751   7.675
  147SAPE   C3816232   3.154   4.660   7.798
  147SAPE   H8X16233   3.218   4.748   7.822
  147SAPE   H8Y16234   3.221   4.575   7.771
  147SAPE   C3916235   3.052   4.616   7.907
  147SAPE   H9X16236   2.969   4.690   7.910
  147SAPE   H9Y16237   3.102   4.630   8.005
  147SAPE  C31016238   3.001   4.468   7.891
  147SAPE  H10X16239   3.068   4.403   7.830
  147SAPE  H10Y16240   2.901   4.461   7.843
  147SAPE  C31116241   2.983   4.392   8.021
  147SAPE  H11X16242   3.072   4.391   8.087
  147SAPE  H11Y16243   2.971   4.285   7.992
  147SAPE  C31216244   2.863   4.417   8.116
  147SAPE  H12X16245   2.827   4.522   8.108
  147SAPE  H12Y16246   2.891   4.400   8.223
  147SAPE  C31316247   2.752   4.320   8.078
  147SAPE  H13X16248   2.792   4.217   8.065
  147SAPE  H13Y16249   2.714   4.359   7.981
  147SAPE  C31416250   2.639   4.312   8.180
  147SAPE  H14X16251   2.624   4.412   8.226
  147SAPE  H14Y16252   2.670   4.242   8.260
  147SAPE  C31516253   2.503   4.276   8.125
  147SAPE  H15X16254   2.512   4.166   8.113
  147SAPE  H15Y16255   2.490   4.325   8.026
  147SAPE  C31616256   2.386   4.302   8.217
  147SAPE  H16X16257   2.376   4.406   8.257
  147SAPE  H16Y16258   2.395   4.247   8.312
  147SAPE  C31716259   2.252   4.269   8.154
  147SAPE  H17X16260   2.177   4.268   8.236
  147SAPE  H17Y16261   2.253   4.165   8.117
  147SAPE  C31816262   2.226   4.372   8.036
  147SAPE  H18X16263   2.286   4.350   7.946
  147SAPE  H18Y16264   2.243   4.475   8.075
  147SAPE  H18Z16265   2.116   4.370   8.016
  148SAPE     N16266   2.626   1.927   6.703
  148SAPE   HN116267   2.595   1.975   6.617
  148SAPE   HN216268   2.701   1.977   6.754
  148SAPE   HN316269   2.659   1.837   6.661
  148SAPE   C1216270   2.503   1.904   6.793
  148SAPE  H12A16271   2.531   1.853   6.888
  148SAPE  H12B16272   2.433   1.833   6.745
  148SAPE   C1116273   2.438   2.039   6.833
  148SAPE  H11A16274   2.506   2.103   6.893
  148SAPE  H11B16275   2.356   2.015   6.904
  148SAPE     P16276   2.229   2.103   6.683
  148SAPE   O1316277   2.214   2.152   6.547
  148SAPE   O1416278   2.178   1.970   6.719
  148SAPE   O1216279   2.385   2.105   6.721
  148SAPE   O1116280   2.155   2.206   6.769
  148SAPE    C116281   2.198   2.342   6.762
  148SAPE    HA16282   2.308   2.347   6.751
  148SAPE    HB16283   2.156   2.402   6.678
  148SAPE    C216284   2.161   2.426   6.898
  148SAPE    HS16285   2.225   2.517   6.896
  148SAPE   O2116286   2.179   2.336   7.012
  148SAPE   C2116287   2.307   2.320   7.043
  148SAPE   O2216288   2.400   2.381   6.987
  148SAPE   C2216289   2.323   2.228   7.165
  148SAPE   H2R16290   2.231   2.233   7.229
  148SAPE   H2S16291   2.328   2.122   7.134
  148SAPE    C316292   2.015   2.467   6.897
  148SAPE    HX16293   1.949   2.378   6.894
  148SAPE    HY16294   2.003   2.526   6.804
  148SAPE   O3116295   1.991   2.552   7.011
  148SAPE   C3116296   1.920   2.519   7.110
  148SAPE   O3216297   1.861   2.411   7.119
  148SAPE   C3216298   1.921   2.624   7.217
  148SAPE   H2X16299   1.826   2.681   7.217
  148SAPE   H2Y16300   2.006   2.694   7.202
  148SAPE   C2316301   2.444   2.266   7.252
  148SAPE   H3R16302   2.407   2.343   7.322
  148SAPE   H3S16303   2.526   2.318   7.199
  148SAPE   C2416304   2.500   2.152   7.335
  148SAPE   H4R16305   2.575   2.209   7.394
  148SAPE   H4S16306   2.561   2.092   7.264
  148SAPE   C2516307   2.417   2.074   7.431
  148SAPE   H5R16308   2.356   2.002   7.374
  148SAPE   C2616309   2.411   2.082   7.562
  148SAPE   H6R16310   2.352   2.010   7.620
  148SAPE   C2716311   2.488   2.177   7.650
  148SAPE   H7R16312   2.595   2.159   7.627
  148SAPE   H7S16313   2.468   2.147   7.756
  148SAPE   C2816314   2.448   2.321   7.628
  148SAPE   H8R16315   2.417   2.350   7.527
  148SAPE   C2916316   2.468   2.424   7.716
  148SAPE   H9R16317   2.424   2.521   7.686
  148SAPE  C21016318   2.521   2.409   7.858
  148SAPE  H10R16319   2.594   2.492   7.870
  148SAPE  H10S16320   2.580   2.316   7.876
  148SAPE  C21116321   2.403   2.414   7.959
  148SAPE  H11R16322   2.304   2.448   7.927
  148SAPE  C21216323   2.408   2.359   8.083
  148SAPE  H12R16324   2.317   2.343   8.143
  148SAPE  C21316325   2.535   2.318   8.154
  148SAPE  H13R16326   2.544   2.361   8.256
  148SAPE  H13S16327   2.630   2.357   8.112
  148SAPE  C21416328   2.554   2.165   8.153
  148SAPE  H14R16329   2.508   2.117   8.066
  148SAPE  C21516330   2.632   2.095   8.232
  148SAPE  H15R16331   2.633   1.986   8.218
  148SAPE  C21616332   2.713   2.151   8.344
  148SAPE  H16R16333   2.746   2.251   8.309
  148SAPE  H16S16334   2.809   2.093   8.344
  148SAPE  C21716335   2.635   2.149   8.480
  148SAPE  H17R16336   2.551   2.220   8.469
  148SAPE  H17S16337   2.694   2.188   8.566
  148SAPE  C21816338   2.579   2.010   8.517
  148SAPE  H18R16339   2.660   1.934   8.511
  148SAPE  H18S16340   2.503   1.971   8.446
  148SAPE  C21916341   2.532   2.011   8.657
  148SAPE  H19R16342   2.435   1.956   8.665
  148SAPE  H19S16343   2.510   2.115   8.690
  148SAPE  C22016344   2.645   1.966   8.755
  148SAPE  H20R16345   2.593   1.967   8.854
  148SAPE  H20S16346   2.732   2.034   8.754
  148SAPE  H20T16347   2.690   1.867   8.732
  148SAPE   C3316348   1.950   2.571   7.358
  148SAPE   H3X16349   2.058   2.548   7.367
  148SAPE   H3Y16350   1.883   2.484   7.378
  148SAPE   C3416351   1.912   2.665   7.473
  148SAPE   H4X16352   1.801   2.674   7.470
  148SAPE   H4Y16353   1.963   2.762   7.453
  148SAPE   C3516354   1.945   2.608   7.609
  148SAPE   H5X16355   2.051   2.576   7.612
  148SAPE   H5Y16356   1.882   2.519   7.628
  148SAPE   C3616357   1.924   2.714   7.717
  148SAPE   H6X16358   1.819   2.750   7.718
  148SAPE   H6Y16359   1.993   2.794   7.684
  148SAPE   C3716360   1.969   2.655   7.858
  148SAPE   H7X16361   2.073   2.616   7.852
  148SAPE   H7Y16362   1.904   2.568   7.882
  148SAPE   C3816363   1.959   2.758   7.973
  148SAPE   H8X16364   1.856   2.789   8.001
  148SAPE   H8Y16365   2.009   2.845   7.926
  148SAPE   C3916366   2.037   2.717   8.103
  148SAPE   H9X16367   2.142   2.682   8.086
  148SAPE   H9Y16368   1.977   2.632   8.141
  148SAPE  C31016369   2.043   2.824   8.209
  148SAPE  H10X16370   1.944   2.874   8.220
  148SAPE  H10Y16371   2.111   2.905   8.177
  148SAPE  C31116372   2.095   2.761   8.335
  148SAPE  H11X16373   2.185   2.701   8.312
  148SAPE  H11Y16374   2.017   2.689   8.370
  148SAPE  C31216375   2.118   2.875   8.436
  148SAPE  H12X16376   2.028   2.938   8.452
  148SAPE  H12Y16377   2.202   2.930   8.389
  148SAPE  C31316378   2.171   2.826   8.578
  148SAPE  H13X16379   2.221   2.727   8.567
  148SAPE  H13Y16380   2.086   2.807   8.647
  148SAPE  C31416381   2.269   2.924   8.640
  148SAPE  H14X16382   2.210   3.018   8.650
  148SAPE  H14Y16383   2.365   2.935   8.585
  148SAPE  C31516384   2.311   2.875   8.776
  148SAPE  H15X16385   2.395   2.804   8.756
  148SAPE  H15Y16386   2.218   2.835   8.820
  148SAPE  C31616387   2.368   2.981   8.869
  148SAPE  H16X16388   2.369   2.951   8.976
  148SAPE  H16Y16389   2.301   3.070   8.870
  148SAPE  C31716390   2.509   3.034   8.829
  148SAPE  H17X16391   2.532   3.137   8.865
  148SAPE  H17Y16392   2.517   3.034   8.718
  148SAPE  C31816393   2.631   2.946   8.869
  148SAPE  H18X16394   2.618   2.842   8.833
  148SAPE  H18Y16395   2.650   2.941   8.978
  148SAPE  H18Z16396   2.720   2.979   8.811
  149SAPE     N16397   1.759   3.250   6.247
  149SAPE   HN116398   1.842   3.275   6.189
  149SAPE   HN216399   1.708   3.169   6.206
  149SAPE   HN316400   1.691   3.328   6.239
  149SAPE   C1216401   1.795   3.239   6.391
  149SAPE  H12A16402   1.848   3.331   6.425
  149SAPE  H12B16403   1.860   3.150   6.403
  149SAPE   C1116404   1.662   3.213   6.475
  149SAPE  H11A16405   1.612   3.312   6.469
  149SAPE  H11B16406   1.683   3.186   6.581
  149SAPE     P16407   1.596   2.960   6.437
  149SAPE   O1316408   1.513   2.883   6.341
  149SAPE   O1416409   1.742   2.951   6.424
  149SAPE   O1216410   1.576   3.115   6.411
  149SAPE   O1116411   1.558   2.932   6.583
  149SAPE    C116412   1.615   2.831   6.666
  149SAPE    HA16413   1.542   2.748   6.678
  149SAPE    HB16414   1.707   2.781   6.628
  149SAPE    C216415   1.649   2.888   6.810
  149SAPE    HS16416   1.571   2.951   6.857
  149SAPE   O2116417   1.764   2.963   6.790
  149SAPE   C2116418   1.784   3.079   6.845
  149SAPE   O2216419   1.704   3.142   6.915
  149SAPE   C2216420   1.917   3.129   6.803
  149SAPE   H2R16421   1.912   3.117   6.692
  149SAPE   H2S16422   1.927   3.239   6.817
  149SAPE    C316423   1.690   2.777   6.918
  149SAPE    HX16424   1.778   2.724   6.874
  149SAPE    HY16425   1.605   2.705   6.915
  149SAPE   O3116426   1.710   2.825   7.051
  149SAPE   C3116427   1.597   2.839   7.123
  149SAPE   O3216428   1.484   2.821   7.087
  149SAPE   C3216429   1.632   2.891   7.259
  149SAPE   H2X16430   1.593   2.993   7.281
  149SAPE   H2Y16431   1.743   2.903   7.264
  149SAPE   C2316432   2.031   3.045   6.876
  149SAPE   H3R16433   2.124   3.093   6.837
  149SAPE   H3S16434   2.035   2.937   6.850
  149SAPE   C2416435   2.020   3.059   7.029
  149SAPE   H4R16436   1.955   2.969   7.039
  149SAPE   H4S16437   1.961   3.149   7.055
  149SAPE   C2516438   2.143   3.050   7.112
  149SAPE   H5R16439   2.238   3.055   7.058
  149SAPE   C2616440   2.149   3.052   7.250
  149SAPE   H6R16441   2.242   3.054   7.308
  149SAPE   C2716442   2.019   3.073   7.334
  149SAPE   H7R16443   2.022   2.993   7.411
  149SAPE   H7S16444   1.926   3.069   7.273
  149SAPE   C2816445   2.028   3.202   7.406
  149SAPE   H8R16446   2.059   3.287   7.343
  149SAPE   C2916447   2.005   3.232   7.536
  149SAPE   H9R16448   2.008   3.335   7.573
  149SAPE  C21016449   1.958   3.130   7.635
  149SAPE  H10R16450   2.001   3.030   7.613
  149SAPE  H10S16451   1.848   3.138   7.630
  149SAPE  C21116452   1.995   3.160   7.781
  149SAPE  H11R16453   2.078   3.103   7.826
  149SAPE  C21216454   1.930   3.253   7.864
  149SAPE  H12R16455   1.970   3.271   7.965
  149SAPE  C21316456   1.816   3.336   7.838
  149SAPE  H13R16457   1.742   3.264   7.798
  149SAPE  H13S16458   1.846   3.402   7.753
  149SAPE  C21416459   1.738   3.403   7.946
  149SAPE  H14R16460   1.640   3.362   7.976
  149SAPE  C21516461   1.772   3.524   8.000
  149SAPE  H15R16462   1.700   3.558   8.076
  149SAPE  C21616463   1.891   3.609   7.973
  149SAPE  H16R16464   1.864   3.708   7.931
  149SAPE  H16S16465   1.956   3.567   7.893
  149SAPE  C21716466   1.974   3.635   8.100
  149SAPE  H17R16467   2.081   3.649   8.074
  149SAPE  H17S16468   1.965   3.543   8.162
  149SAPE  C21816469   1.921   3.760   8.169
  149SAPE  H18R16470   1.815   3.755   8.204
  149SAPE  H18S16471   1.917   3.843   8.096
  149SAPE  C21916472   2.003   3.793   8.288
  149SAPE  H19R16473   2.103   3.761   8.251
  149SAPE  H19S16474   1.973   3.726   8.372
  149SAPE  C22016475   2.013   3.938   8.330
  149SAPE  H20R16476   2.056   4.009   8.257
  149SAPE  H20S16477   2.077   3.942   8.422
  149SAPE  H20T16478   1.910   3.963   8.362
  149SAPE   C3316479   1.581   2.815   7.381
  149SAPE   H3X16480   1.608   2.707   7.387
  149SAPE   H3Y16481   1.470   2.823   7.376
  149SAPE   C3416482   1.601   2.889   7.512
  149SAPE   H4X16483   1.546   2.986   7.508
  149SAPE   H4Y16484   1.709   2.914   7.510
  149SAPE   C3516485   1.554   2.803   7.631
  149SAPE   H5X16486   1.595   2.700   7.623
  149SAPE   H5Y16487   1.445   2.784   7.615
  149SAPE   C3616488   1.579   2.874   7.762
  149SAPE   H6X16489   1.499   2.949   7.780
  149SAPE   H6Y16490   1.682   2.916   7.767
  149SAPE   C3716491   1.564   2.770   7.875
  149SAPE   H7X16492   1.659   2.715   7.891
  149SAPE   H7Y16493   1.490   2.690   7.851
  149SAPE   C3816494   1.511   2.831   8.006
  149SAPE   H8X16495   1.498   2.750   8.082
  149SAPE   H8Y16496   1.408   2.866   7.983
  149SAPE   C3916497   1.590   2.954   8.059
  149SAPE   H9X16498   1.616   3.020   7.974
  149SAPE   H9Y16499   1.689   2.911   8.087
  149SAPE  C31016500   1.527   3.013   8.190
  149SAPE  H10X16501   1.513   2.928   8.260
  149SAPE  H10Y16502   1.432   3.068   8.172
  149SAPE  C31116503   1.616   3.126   8.255
  149SAPE  H11X16504   1.575   3.160   8.352
  149SAPE  H11Y16505   1.613   3.212   8.184
  149SAPE  C31216506   1.765   3.100   8.278
  149SAPE  H12X16507   1.830   3.099   8.187
  149SAPE  H12Y16508   1.767   2.994   8.312
  149SAPE  C31316509   1.818   3.190   8.386
  149SAPE  H13X16510   1.926   3.170   8.405
  149SAPE  H13Y16511   1.769   3.171   8.484
  149SAPE  C31416512   1.812   3.340   8.343
  149SAPE  H14X16513   1.802   3.338   8.232
  149SAPE  H14Y16514   1.905   3.387   8.383
  149SAPE  C31516515   1.701   3.414   8.415
  149SAPE  H15X16516   1.692   3.393   8.524
  149SAPE  H15Y16517   1.603   3.396   8.366
  149SAPE  C31616518   1.710   3.569   8.390
  149SAPE  H16X16519   1.709   3.590   8.281
  149SAPE  H16Y16520   1.808   3.601   8.431
  149SAPE  C31716521   1.601   3.638   8.475
  149SAPE  H17X16522   1.621   3.615   8.582
  149SAPE  H17Y16523   1.501   3.600   8.446
  149SAPE  C31816524   1.610   3.796   8.455
  149SAPE  H18X16525   1.541   3.851   8.523
  149SAPE  H18Y16526   1.593   3.829   8.351
  149SAPE  H18Z16527   1.712   3.828   8.484
  150SAPE     N16528   0.538   4.620   6.167
  150SAPE   HN116529   0.477   4.632   6.083
  150SAPE   HN216530   0.629   4.586   6.131
  150SAPE   HN316531   0.498   4.535   6.212
  150SAPE   C1216532   0.566   4.732   6.254
  150SAPE  H12A16533   0.494   4.728   6.338
  150SAPE  H12B16534   0.554   4.823   6.192
  150SAPE   C1116535   0.707   4.728   6.320
  150SAPE  H11A16536   0.698   4.791   6.411
  150SAPE  H11B16537   0.789   4.779   6.265
  150SAPE     P16538   0.876   4.548   6.431
  150SAPE   O1316539   0.876   4.399   6.432
  150SAPE   O1416540   0.976   4.618   6.353
  150SAPE   O1216541   0.738   4.591   6.360
  150SAPE   O1116542   0.855   4.609   6.576
  150SAPE    C116543   0.730   4.591   6.647
  150SAPE    HA16544   0.674   4.686   6.635
  150SAPE    HB16545   0.674   4.502   6.611
  150SAPE    C216546   0.750   4.561   6.792
  150SAPE    HS16547   0.652   4.531   6.837
  150SAPE   O2116548   0.797   4.683   6.860
  150SAPE   C2116549   0.693   4.756   6.907
  150SAPE   O2216550   0.578   4.729   6.894
  150SAPE   C2216551   0.740   4.882   6.972
  150SAPE   H2R16552   0.830   4.863   7.035
  150SAPE   H2S16553   0.772   4.951   6.891
  150SAPE    C316554   0.861   4.449   6.812
  150SAPE    HX16555   0.945   4.492   6.754
  150SAPE    HY16556   0.831   4.350   6.772
  150SAPE   O3116557   0.888   4.431   6.952
  150SAPE   C3116558   1.001   4.365   6.975
  150SAPE   O3216559   1.076   4.313   6.896
  150SAPE   C3216560   1.044   4.380   7.121
  150SAPE   H2X16561   1.042   4.490   7.133
  150SAPE   H2Y16562   1.140   4.329   7.147
  150SAPE   C2316563   0.639   4.954   7.067
  150SAPE   H3R16564   0.595   4.875   7.132
  150SAPE   H3S16565   0.551   4.980   7.004
  150SAPE   C2416566   0.699   5.061   7.157
  150SAPE   H4R16567   0.754   5.136   7.096
  150SAPE   H4S16568   0.770   5.011   7.226
  150SAPE   C2516569   0.587   5.135   7.236
  150SAPE   H5R16570   0.554   5.230   7.191
  150SAPE   C2616571   0.517   5.082   7.336
  150SAPE   H6R16572   0.452   5.157   7.385
  150SAPE   C2716573   0.534   4.953   7.408
  150SAPE   H7R16574   0.552   4.874   7.332
  150SAPE   H7S16575   0.431   4.929   7.444
  150SAPE   C2816576   0.646   4.950   7.509
  150SAPE   H8R16577   0.730   4.887   7.478
  150SAPE   C2916578   0.657   5.010   7.630
  150SAPE   H9R16579   0.756   5.003   7.677
  150SAPE  C21016580   0.556   5.091   7.697
  150SAPE  H10R16581   0.471   5.101   7.627
  150SAPE  H10S16582   0.589   5.195   7.716
  150SAPE  C21116583   0.494   5.019   7.815
  150SAPE  H11R16584   0.431   4.932   7.791
  150SAPE  C21216585   0.536   5.019   7.943
  150SAPE  H12R16586   0.497   4.947   8.016
  150SAPE  C21316587   0.630   5.116   8.004
  150SAPE  H13R16588   0.587   5.173   8.089
  150SAPE  H13S16589   0.668   5.197   7.938
  150SAPE  C21416590   0.749   5.044   8.062
  150SAPE  H14R16591   0.839   5.040   7.999
  150SAPE  C21516592   0.772   5.005   8.188
  150SAPE  H15R16593   0.869   4.959   8.211
  150SAPE  C21616594   0.676   5.026   8.299
  150SAPE  H16R16595   0.571   5.003   8.268
  150SAPE  H16S16596   0.680   5.135   8.319
  150SAPE  C21716597   0.692   4.932   8.424
  150SAPE  H17R16598   0.798   4.922   8.456
  150SAPE  H17S16599   0.659   4.834   8.384
  150SAPE  C21816600   0.605   4.974   8.547
  150SAPE  H18R16601   0.635   5.072   8.590
  150SAPE  H18S16602   0.624   4.906   8.633
  150SAPE  C21916603   0.452   4.966   8.523
  150SAPE  H19R16604   0.410   4.870   8.486
  150SAPE  H19S16605   0.446   5.043   8.443
  150SAPE  C22016606   0.369   5.010   8.642
  150SAPE  H20R16607   0.404   5.103   8.693
  150SAPE  H20S16608   0.369   4.931   8.720
  150SAPE  H20T16609   0.261   5.022   8.620
  150SAPE   C3316610   0.933   4.322   7.206
  150SAPE   H3X16611   0.913   4.215   7.181
  150SAPE   H3Y16612   0.834   4.364   7.177
  150SAPE   C3416613   0.965   4.357   7.353
  150SAPE   H4X16614   0.921   4.459   7.360
  150SAPE   H4Y16615   1.074   4.348   7.368
  150SAPE   C3516616   0.904   4.259   7.455
  150SAPE   H5X16617   0.925   4.162   7.406
  150SAPE   H5Y16618   0.794   4.275   7.462
  150SAPE   C3616619   0.961   4.257   7.602
  150SAPE   H6X16620   0.946   4.362   7.633
  150SAPE   H6Y16621   1.068   4.229   7.596
  150SAPE   C3716622   0.881   4.168   7.696
  150SAPE   H7X16623   0.909   4.061   7.689
  150SAPE   H7Y16624   0.773   4.175   7.671
  150SAPE   C3816625   0.920   4.207   7.843
  150SAPE   H8X16626   0.907   4.315   7.865
  150SAPE   H8Y16627   1.030   4.190   7.842
  150SAPE   C3916628   0.866   4.128   7.959
  150SAPE   H9X16629   0.884   4.019   7.948
  150SAPE   H9Y16630   0.755   4.138   7.961
  150SAPE  C31016631   0.913   4.181   8.094
  150SAPE  H10X16632   0.898   4.291   8.107
  150SAPE  H10Y16633   1.022   4.161   8.104
  150SAPE  C31116634   0.852   4.102   8.214
  150SAPE  H11X16635   0.754   4.151   8.230
  150SAPE  H11Y16636   0.898   4.121   8.314
  150SAPE  C31216637   0.837   3.955   8.192
  150SAPE  H12X16638   0.933   3.903   8.174
  150SAPE  H12Y16639   0.769   3.944   8.104
  150SAPE  C31316640   0.780   3.873   8.312
  150SAPE  H13X16641   0.687   3.922   8.348
  150SAPE  H13Y16642   0.848   3.903   8.394
  150SAPE  C31416643   0.746   3.726   8.296
  150SAPE  H14X16644   0.674   3.702   8.377
  150SAPE  H14Y16645   0.835   3.663   8.319
  150SAPE  C31516646   0.678   3.691   8.162
  150SAPE  H15X16647   0.733   3.732   8.075
  150SAPE  H15Y16648   0.581   3.746   8.164
  150SAPE  C31616649   0.646   3.541   8.143
  150SAPE  H16X16650   0.575   3.535   8.058
  150SAPE  H16Y16651   0.601   3.502   8.238
  150SAPE  C31716652   0.760   3.455   8.119
  150SAPE  H17X16653   0.819   3.450   8.213
  150SAPE  H17Y16654   0.826   3.482   8.033
  150SAPE  C31816655   0.716   3.312   8.093
  150SAPE  H18X16656   0.655   3.320   8.001
  150SAPE  H18Y16657   0.648   3.289   8.178
  150SAPE  H18Z16658   0.797   3.239   8.071
  151SAPE     N16659   3.060   1.340   6.510
  151SAPE   HN116660   3.024   1.438   6.511
  151SAPE   HN216661   3.114   1.329   6.422
  151SAPE   HN316662   2.982   1.273   6.526
  151SAPE   C1216663   3.165   1.329   6.612
  151SAPE  H12A16664   3.207   1.226   6.606
  151SAPE  H12B16665   3.115   1.345   6.709
  151SAPE   C1116666   3.276   1.442   6.599
  151SAPE  H11A16667   3.337   1.436   6.692
  151SAPE  H11B16668   3.223   1.539   6.592
  151SAPE     P16669   3.321   1.482   6.347
  151SAPE   O1316670   3.450   1.458   6.271
  151SAPE   O1416671   3.200   1.422   6.290
  151SAPE   O1216672   3.346   1.411   6.484
  151SAPE   O1116673   3.298   1.633   6.374
  151SAPE    C116674   3.397   1.739   6.360
  151SAPE    HA16675   3.426   1.759   6.255
  151SAPE    HB16676   3.349   1.835   6.388
  151SAPE    C216677   3.522   1.724   6.444
  151SAPE    HS16678   3.574   1.629   6.417
  151SAPE   O2116679   3.478   1.720   6.581
  151SAPE   C2116680   3.570   1.690   6.668
  151SAPE   O2216681   3.680   1.643   6.637
  151SAPE   C2216682   3.509   1.703   6.815
  151SAPE   H2R16683   3.485   1.810   6.831
  151SAPE   H2S16684   3.411   1.650   6.819
  151SAPE    C316685   3.628   1.836   6.411
  151SAPE    HX16686   3.637   1.828   6.301
  151SAPE    HY16687   3.731   1.825   6.452
  151SAPE   O3116688   3.582   1.972   6.448
  151SAPE   C3116689   3.602   2.005   6.577
  151SAPE   O3216690   3.679   1.947   6.654
  151SAPE   C3216691   3.519   2.132   6.609
  151SAPE   H2X16692   3.480   2.179   6.516
  151SAPE   H2Y16693   3.590   2.204   6.657
  151SAPE   C2316694   3.604   1.654   6.925
  151SAPE   H3R16695   3.709   1.690   6.921
  151SAPE   H3S16696   3.614   1.544   6.929
  151SAPE   C2416697   3.565   1.707   7.068
  151SAPE   H4R16698   3.547   1.817   7.068
  151SAPE   H4S16699   3.652   1.675   7.128
  151SAPE   C2516700   3.440   1.642   7.123
  151SAPE   H5R16701   3.345   1.680   7.082
  151SAPE   C2616702   3.431   1.555   7.221
  151SAPE   H6R16703   3.331   1.517   7.247
  151SAPE   C2716704   3.545   1.517   7.309
  151SAPE   H7R16705   3.604   1.605   7.342
  151SAPE   H7S16706   3.617   1.461   7.247
  151SAPE   C2816707   3.509   1.436   7.434
  151SAPE   H8R16708   3.539   1.331   7.425
  151SAPE   C2916709   3.456   1.475   7.554
  151SAPE   H9R16710   3.439   1.397   7.630
  151SAPE  C21016711   3.419   1.622   7.591
  151SAPE  H10R16712   3.309   1.631   7.601
  151SAPE  H10S16713   3.452   1.691   7.511
  151SAPE  C21116714   3.481   1.656   7.722
  151SAPE  H11R16715   3.591   1.658   7.726
  151SAPE  C21216716   3.438   1.704   7.839
  151SAPE  H12R16717   3.508   1.740   7.916
  151SAPE  C21316718   3.295   1.722   7.876
  151SAPE  H13R16719   3.225   1.672   7.805
  151SAPE  H13S16720   3.261   1.828   7.881
  151SAPE  C21416721   3.257   1.661   8.009
  151SAPE  H14R16722   3.239   1.553   8.003
  151SAPE  C21516723   3.226   1.729   8.114
  151SAPE  H15R16724   3.200   1.673   8.205
  151SAPE  C21616725   3.223   1.880   8.136
  151SAPE  H16R16726   3.120   1.905   8.170
  151SAPE  H16S16727   3.248   1.929   8.040
  151SAPE  C21716728   3.315   1.914   8.257
  151SAPE  H17R16729   3.421   1.915   8.224
  151SAPE  H17S16730   3.312   1.832   8.333
  151SAPE  C21816731   3.280   2.042   8.328
  151SAPE  H18R16732   3.248   2.132   8.271
  151SAPE  H18S16733   3.369   2.072   8.388
  151SAPE  C21916734   3.149   2.040   8.422
  151SAPE  H19R16735   3.074   1.970   8.381
  151SAPE  H19S16736   3.111   2.144   8.427
  151SAPE  C22016737   3.197   1.990   8.557
  151SAPE  H20R16738   3.298   2.029   8.583
  151SAPE  H20S16739   3.128   2.014   8.642
  151SAPE  H20T16740   3.218   1.881   8.553
  151SAPE   C3316741   3.398   2.102   6.706
  151SAPE   H3X16742   3.339   2.015   6.671
  151SAPE   H3Y16743   3.319   2.179   6.700
  151SAPE   C3416744   3.439   2.096   6.859
  151SAPE   H4X16745   3.474   2.197   6.890
  151SAPE   H4Y16746   3.518   2.019   6.864
  151SAPE   C3516747   3.316   2.059   6.941
  151SAPE   H5X16748   3.283   1.957   6.911
  151SAPE   H5Y16749   3.233   2.127   6.913
  151SAPE   C3616750   3.345   2.067   7.093
  151SAPE   H6X16751   3.374   2.169   7.127
  151SAPE   H6Y16752   3.420   1.988   7.119
  151SAPE   C3716753   3.225   2.016   7.174
  151SAPE   H7X16754   3.201   1.915   7.136
  151SAPE   H7Y16755   3.149   2.094   7.152
  151SAPE   C3816756   3.255   1.979   7.321
  151SAPE   H8X16757   3.342   1.911   7.313
  151SAPE   H8Y16758   3.165   1.929   7.363
  151SAPE   C3916759   3.299   2.094   7.410
  151SAPE   H9X16760   3.216   2.167   7.405
  151SAPE   H9Y16761   3.386   2.151   7.371
  151SAPE  C31016762   3.323   2.046   7.553
  151SAPE  H10X16763   3.400   1.966   7.561
  151SAPE  H10Y16764   3.229   1.995   7.583
  151SAPE  C31116765   3.353   2.153   7.659
  151SAPE  H11X16766   3.269   2.225   7.672
  151SAPE  H11Y16767   3.447   2.203   7.626
  151SAPE  C31216768   3.388   2.115   7.805
  151SAPE  H12X16769   3.458   2.028   7.804
  151SAPE  H12Y16770   3.301   2.070   7.856
  151SAPE  C31316771   3.446   2.219   7.894
  151SAPE  H13X16772   3.376   2.305   7.905
  151SAPE  H13Y16773   3.541   2.250   7.844
  151SAPE  C31416774   3.472   2.158   8.031
  151SAPE  H14X16775   3.548   2.078   8.018
  151SAPE  H14Y16776   3.377   2.110   8.062
  151SAPE  C31516777   3.525   2.252   8.139
  151SAPE  H15X16778   3.490   2.218   8.239
  151SAPE  H15Y16779   3.486   2.355   8.126
  151SAPE  C31616780   3.679   2.257   8.160
  151SAPE  H16X16781   3.711   2.152   8.147
  151SAPE  H16Y16782   3.703   2.304   8.258
  151SAPE  C31716783   3.761   2.333   8.056
  151SAPE  H17X16784   3.714   2.433   8.040
  151SAPE  H17Y16785   3.779   2.266   7.969
  151SAPE  C31816786   3.905   2.364   8.116
  151SAPE  H18X16787   3.969   2.397   8.032
  151SAPE  H18Y16788   3.961   2.276   8.155
  151SAPE  H18Z16789   3.895   2.454   8.180
  152SAPE     N16790   0.598   5.499   5.909
  152SAPE   HN116791   0.637   5.533   5.819
  152SAPE   HN216792   0.508   5.550   5.924
  152SAPE   HN316793   0.663   5.516   5.988
  152SAPE   C1216794   0.583   5.351   5.918
  152SAPE  H12A16795   0.570   5.314   5.814
  152SAPE  H12B16796   0.496   5.329   5.984
  152SAPE   C1116797   0.716   5.301   5.983
  152SAPE  H11A16798   0.806   5.349   5.942
  152SAPE  H11B16799   0.717   5.190   5.971
  152SAPE     P16800   0.788   5.434   6.205
  152SAPE   O1316801   0.915   5.379   6.249
  152SAPE   O1416802   0.792   5.562   6.127
  152SAPE   O1216803   0.716   5.315   6.122
  152SAPE   O1116804   0.688   5.456   6.324
  152SAPE    C116805   0.600   5.350   6.375
  152SAPE    HA16806   0.533   5.309   6.296
  152SAPE    HB16807   0.675   5.280   6.418
  152SAPE    C216808   0.507   5.395   6.493
  152SAPE    HS16809   0.434   5.472   6.458
  152SAPE   O2116810   0.585   5.427   6.613
  152SAPE   C2116811   0.533   5.512   6.697
  152SAPE   O2216812   0.430   5.577   6.679
  152SAPE   C2216813   0.621   5.534   6.816
  152SAPE   H2R16814   0.670   5.438   6.843
  152SAPE   H2S16815   0.700   5.603   6.780
  152SAPE    C316816   0.411   5.276   6.524
  152SAPE    HX16817   0.484   5.193   6.539
  152SAPE    HY16818   0.357   5.253   6.430
  152SAPE   O3116819   0.322   5.297   6.635
  152SAPE   C3116820   0.362   5.243   6.745
  152SAPE   O3216821   0.459   5.174   6.766
  152SAPE   C3216822   0.265   5.290   6.854
  152SAPE   H2X16823   0.179   5.221   6.868
  152SAPE   H2Y16824   0.227   5.392   6.833
  152SAPE   C2316825   0.549   5.611   6.929
  152SAPE   H3R16826   0.452   5.564   6.958
  152SAPE   H3S16827   0.529   5.713   6.890
  152SAPE   C2416828   0.645   5.631   7.049
  152SAPE   H4R16829   0.593   5.698   7.120
  152SAPE   H4S16830   0.732   5.683   7.005
  152SAPE   C2516831   0.678   5.503   7.110
  152SAPE   H5R16832   0.712   5.429   7.037
  152SAPE   C2616833   0.676   5.482   7.247
  152SAPE   H6R16834   0.719   5.383   7.270
  152SAPE   C2716835   0.656   5.591   7.358
  152SAPE   H7R16836   0.701   5.683   7.316
  152SAPE   H7S16837   0.718   5.567   7.447
  152SAPE   C2816838   0.517   5.602   7.406
  152SAPE   H8R16839   0.444   5.571   7.330
  152SAPE   C2916840   0.470   5.636   7.528
  152SAPE   H9R16841   0.369   5.600   7.551
  152SAPE  C21016842   0.559   5.670   7.645
  152SAPE  H10R16843   0.527   5.759   7.702
  152SAPE  H10S16844   0.658   5.706   7.608
  152SAPE  C21116845   0.594   5.553   7.736
  152SAPE  H11R16846   0.640   5.461   7.696
  152SAPE  C21216847   0.567   5.560   7.872
  152SAPE  H12R16848   0.573   5.466   7.927
  152SAPE  C21316849   0.495   5.669   7.938
  152SAPE  H13R16850   0.443   5.622   8.024
  152SAPE  H13S16851   0.405   5.694   7.878
  152SAPE  C21416852   0.583   5.788   7.977
  152SAPE  H14R16853   0.632   5.841   7.894
  152SAPE  C21516854   0.609   5.832   8.098
  152SAPE  H15R16855   0.665   5.925   8.114
  152SAPE  C21616856   0.541   5.784   8.223
  152SAPE  H16R16857   0.596   5.697   8.265
  152SAPE  H16S16858   0.437   5.752   8.198
  152SAPE  C21716859   0.529   5.893   8.327
  152SAPE  H17R16860   0.628   5.934   8.360
  152SAPE  H17S16861   0.485   5.844   8.417
  152SAPE  C21816862   0.444   6.021   8.282
  152SAPE  H18R16863   0.342   5.990   8.250
  152SAPE  H18S16864   0.494   6.068   8.195
  152SAPE  C21916865   0.430   6.114   8.397
  152SAPE  H19R16866   0.436   6.060   8.494
  152SAPE  H19S16867   0.329   6.161   8.396
  152SAPE  C22016868   0.538   6.220   8.404
  152SAPE  H20R16869   0.548   6.258   8.300
  152SAPE  H20S16870   0.632   6.176   8.444
  152SAPE  H20T16871   0.507   6.303   8.470
  152SAPE   C3316872   0.322   5.294   7.003
  152SAPE   H3X16873   0.393   5.379   7.006
  152SAPE   H3Y16874   0.373   5.197   7.022
  152SAPE   C3416875   0.213   5.323   7.111
  152SAPE   H4X16876   0.124   5.260   7.091
  152SAPE   H4Y16877   0.191   5.431   7.097
  152SAPE   C3516878   0.271   5.300   7.250
  152SAPE   H5X16879   0.366   5.357   7.249
  152SAPE   H5Y16880   0.277   5.190   7.257
  152SAPE   C3616881   0.177   5.353   7.361
  152SAPE   H6X16882   0.078   5.302   7.349
  152SAPE   H6Y16883   0.170   5.461   7.340
  152SAPE   C3716884   0.244   5.323   7.494
  152SAPE   H7X16885   0.351   5.343   7.514
  152SAPE   H7Y16886   0.239   5.212   7.501
  152SAPE   C3816887   0.171   5.376   7.619
  152SAPE   H8X16888   0.063   5.355   7.626
  152SAPE   H8Y16889   0.200   5.483   7.624
  152SAPE   C3916890   0.244   5.322   7.749
  152SAPE   H9X16891   0.352   5.344   7.739
  152SAPE   H9Y16892   0.226   5.213   7.754
  152SAPE  C31016893   0.191   5.392   7.875
  152SAPE  H10X16894   0.082   5.371   7.875
  152SAPE  H10Y16895   0.197   5.502   7.857
  152SAPE  C31116896   0.257   5.353   8.005
  152SAPE  H11X16897   0.259   5.447   8.065
  152SAPE  H11Y16898   0.358   5.312   7.983
  152SAPE  C31216899   0.184   5.243   8.073
  152SAPE  H12X16900   0.174   5.157   8.003
  152SAPE  H12Y16901   0.082   5.253   8.115
  152SAPE  C31316902   0.274   5.190   8.190
  152SAPE  H13X16903   0.364   5.154   8.135
  152SAPE  H13Y16904   0.230   5.098   8.234
  152SAPE  C31416905   0.324   5.292   8.295
  152SAPE  H14X16906   0.366   5.383   8.245
  152SAPE  H14Y16907   0.406   5.252   8.358
  152SAPE  C31516908   0.224   5.332   8.410
  152SAPE  H15X16909   0.220   5.245   8.480
  152SAPE  H15Y16910   0.121   5.353   8.373
  152SAPE  C31616911   0.250   5.444   8.501
  152SAPE  H16X16912   0.212   5.536   8.453
  152SAPE  H16Y16913   0.360   5.456   8.509
  152SAPE  C31716914   0.176   5.439   8.638
  152SAPE  H17X16915   0.185   5.338   8.683
  152SAPE  H17Y16916   0.071   5.461   8.612
  152SAPE  C31816917   0.234   5.550   8.732
  152SAPE  H18X16918   0.297   5.622   8.674
  152SAPE  H18Y16919   0.313   5.519   8.803
  152SAPE  H18Z16920   0.157   5.602   8.793
  153SAPE     N16921   4.110   5.344   6.289
  153SAPE   HN116922   4.140   5.378   6.196
  153SAPE   HN216923   4.162   5.403   6.357
  153SAPE   HN316924   4.154   5.250   6.298
  153SAPE   C1216925   3.962   5.350   6.314
  153SAPE  H12A16926   3.946   5.357   6.424
  153SAPE  H12B16927   3.917   5.257   6.273
  153SAPE   C1116928   3.911   5.466   6.228
  153SAPE  H11A16929   3.805   5.474   6.261
  153SAPE  H11B16930   3.915   5.452   6.118
  153SAPE     P16931   3.959   5.663   6.392
  153SAPE   O1316932   4.047   5.590   6.493
  153SAPE   O1416933   3.985   5.812   6.374
  153SAPE   O1216934   3.975   5.590   6.253
  153SAPE   O1116935   3.802   5.646   6.415
  153SAPE    C116936   3.722   5.759   6.461
  153SAPE    HA16937   3.763   5.857   6.430
  153SAPE    HB16938   3.618   5.754   6.420
  153SAPE    C216939   3.704   5.769   6.620
  153SAPE    HS16940   3.633   5.855   6.622
  153SAPE   O2116941   3.829   5.799   6.682
  153SAPE   C2116942   3.864   5.925   6.680
  153SAPE   O2216943   3.808   6.016   6.626
  153SAPE   C2216944   4.003   5.940   6.747
  153SAPE   H2R16945   3.995   5.900   6.851
  153SAPE   H2S16946   4.066   5.869   6.690
  153SAPE    C316947   3.631   5.638   6.684
  153SAPE    HX16948   3.715   5.565   6.685
  153SAPE    HY16949   3.547   5.604   6.620
  153SAPE   O3116950   3.591   5.661   6.823
  153SAPE   C3116951   3.484   5.745   6.827
  153SAPE   O3216952   3.434   5.790   6.727
  153SAPE   C3216953   3.446   5.787   6.965
  153SAPE   H2X16954   3.447   5.699   7.031
  153SAPE   H2Y16955   3.343   5.828   6.970
  153SAPE   C2316956   4.048   6.088   6.740
  153SAPE   H3R16957   3.979   6.165   6.783
  153SAPE   H3S16958   4.086   6.122   6.642
  153SAPE   C2416959   4.172   6.103   6.829
  153SAPE   H4R16960   4.135   6.064   6.927
  153SAPE   H4S16961   4.195   6.209   6.849
  153SAPE   C2516962   4.290   6.029   6.779
  153SAPE   H5R16963   4.301   6.032   6.669
  153SAPE   C2616964   4.375   5.959   6.859
  153SAPE   H6R16965   4.453   5.898   6.811
  153SAPE   C2716966   4.359   5.958   7.008
  153SAPE   H7R16967   4.421   5.871   7.038
  153SAPE   H7S16968   4.260   5.915   7.036
  153SAPE   C2816969   4.378   6.086   7.087
  153SAPE   H8R16970   4.436   6.165   7.037
  153SAPE   C2916971   4.344   6.096   7.215
  153SAPE   H9R16972   4.358   6.190   7.270
  153SAPE  C21016973   4.278   5.993   7.300
  153SAPE  H10R16974   4.350   5.958   7.378
  153SAPE  H10S16975   4.258   5.897   7.248
  153SAPE  C21116976   4.142   6.027   7.362
  153SAPE  H11R16977   4.055   6.027   7.296
  153SAPE  C21216978   4.118   6.051   7.495
  153SAPE  H12R16979   4.021   6.098   7.512
  153SAPE  C21316980   4.216   6.053   7.610
  153SAPE  H13R16981   4.173   6.105   7.698
  153SAPE  H13S16982   4.295   6.115   7.563
  153SAPE  C21416983   4.273   5.926   7.659
  153SAPE  H14R16984   4.279   5.847   7.583
  153SAPE  C21516985   4.295   5.888   7.788
  153SAPE  H15R16986   4.321   5.786   7.820
  153SAPE  C21616987   4.287   5.986   7.904
  153SAPE  H16R16988   4.243   6.085   7.876
  153SAPE  H16S16989   4.388   6.012   7.942
  153SAPE  C21716990   4.204   5.935   8.025
  153SAPE  H17R16991   4.107   5.890   7.993
  153SAPE  H17S16992   4.190   6.020   8.096
  153SAPE  C21816993   4.282   5.826   8.107
  153SAPE  H18R16994   4.391   5.849   8.098
  153SAPE  H18S16995   4.257   5.725   8.067
  153SAPE  C21916996   4.249   5.818   8.257
  153SAPE  H19R16997   4.167   5.743   8.265
  153SAPE  H19S16998   4.210   5.910   8.305
  153SAPE  C22016999   4.365   5.761   8.341
  153SAPE  H20R17000   4.323   5.755   8.443
  153SAPE  H20S17001   4.457   5.823   8.342
  153SAPE  H20T17002   4.393   5.660   8.304
  153SAPE   C3317003   3.550   5.888   7.027
  153SAPE   H3X17004   3.503   5.942   7.112
  153SAPE   H3Y17005   3.568   5.961   6.945
  153SAPE   C3417006   3.694   5.833   7.047
  153SAPE   H4X17007   3.725   5.790   6.949
  153SAPE   H4Y17008   3.697   5.774   7.141
  153SAPE   C3517009   3.810   5.937   7.058
  153SAPE   H5X17010   3.817   5.994   6.963
  153SAPE   H5Y17011   3.903   5.878   7.070
  153SAPE   C3617012   3.787   6.046   7.162
  153SAPE   H6X17013   3.705   6.115   7.133
  153SAPE   H6Y17014   3.879   6.109   7.169
  153SAPE   C3717015   3.761   5.989   7.306
  153SAPE   H7X17016   3.848   5.929   7.340
  153SAPE   H7Y17017   3.670   5.926   7.300
  153SAPE   C3817018   3.747   6.096   7.419
  153SAPE   H8X17019   3.654   6.152   7.393
  153SAPE   H8Y17020   3.837   6.160   7.408
  153SAPE   C3917021   3.734   6.048   7.567
  153SAPE   H9X17022   3.783   5.949   7.574
  153SAPE   H9Y17023   3.626   6.035   7.586
  153SAPE  C31017024   3.782   6.148   7.676
  153SAPE  H10X17025   3.749   6.251   7.648
  153SAPE  H10Y17026   3.892   6.142   7.663
  153SAPE  C31117027   3.743   6.110   7.820
  153SAPE  H11X17028   3.636   6.132   7.842
  153SAPE  H11Y17029   3.805   6.175   7.886
  153SAPE  C31217030   3.750   5.968   7.863
  153SAPE  H12X17031   3.851   5.924   7.849
  153SAPE  H12Y17032   3.669   5.912   7.813
  153SAPE  C31317033   3.716   5.951   8.016
  153SAPE  H13X17034   3.612   5.987   8.030
  153SAPE  H13Y17035   3.778   6.026   8.070
  153SAPE  C31417036   3.722   5.804   8.073
  153SAPE  H14X17037   3.826   5.766   8.077
  153SAPE  H14Y17038   3.660   5.737   8.010
  153SAPE  C31517039   3.648   5.801   8.211
  153SAPE  H15X17040   3.540   5.821   8.195
  153SAPE  H15Y17041   3.689   5.887   8.268
  153SAPE  C31617042   3.669   5.670   8.286
  153SAPE  H16X17043   3.697   5.591   8.212
  153SAPE  H16Y17044   3.575   5.632   8.332
  153SAPE  C31717045   3.772   5.675   8.399
  153SAPE  H17X17046   3.755   5.759   8.469
  153SAPE  H17Y17047   3.858   5.704   8.335
  153SAPE  C31817048   3.780   5.550   8.488
  153SAPE  H18X17049   3.689   5.525   8.545
  153SAPE  H18Y17050   3.849   5.569   8.573
  153SAPE  H18Z17051   3.811   5.463   8.426
  154SAPE     N17052   2.374   4.667   6.296
  154SAPE   HN117053   2.356   4.760   6.253
  154SAPE   HN217054   2.320   4.642   6.381
  154SAPE   HN317055   2.471   4.674   6.333
  154SAPE   C1217056   2.363   4.553   6.201
  154SAPE  H12A17057   2.384   4.463   6.263
  154SAPE  H12B17058   2.426   4.583   6.115
  154SAPE   C1117059   2.215   4.542   6.176
  154SAPE  H11A17060   2.156   4.521   6.268
  154SAPE  H11B17061   2.202   4.455   6.108
  154SAPE     P17062   2.024   4.719   6.132
  154SAPE   O1317063   2.012   4.840   6.054
  154SAPE   O1417064   1.919   4.623   6.106
  154SAPE   O1217065   2.159   4.650   6.105
  154SAPE   O1117066   2.041   4.755   6.288
  154SAPE    C117067   1.974   4.879   6.329
  154SAPE    HA17068   2.048   4.961   6.331
  154SAPE    HB17069   1.882   4.899   6.270
  154SAPE    C217070   1.919   4.863   6.470
  154SAPE    HS17071   1.859   4.953   6.493
  154SAPE   O2117072   2.016   4.845   6.578
  154SAPE   C2117073   2.080   4.947   6.616
  154SAPE   O2217074   2.052   5.061   6.580
  154SAPE   C2217075   2.197   4.910   6.704
  154SAPE   H2R17076   2.180   4.807   6.744
  154SAPE   H2S17077   2.290   4.917   6.645
  154SAPE    C317078   1.813   4.746   6.461
  154SAPE    HX17079   1.869   4.650   6.459
  154SAPE    HY17080   1.763   4.755   6.362
  154SAPE   O3117081   1.722   4.756   6.576
  154SAPE   C3117082   1.588   4.751   6.554
  154SAPE   O3217083   1.533   4.720   6.451
  154SAPE   C3217084   1.530   4.774   6.696
  154SAPE   H2X17085   1.549   4.881   6.717
  154SAPE   H2Y17086   1.597   4.731   6.773
  154SAPE   C2317087   2.210   5.015   6.826
  154SAPE   H3R17088   2.188   5.118   6.790
  154SAPE   H3S17089   2.316   5.002   6.860
  154SAPE   C2417090   2.119   4.983   6.941
  154SAPE   H4R17091   2.142   4.884   6.985
  154SAPE   H4S17092   2.014   4.979   6.904
  154SAPE   C2517093   2.147   5.091   7.041
  154SAPE   H5R17094   2.125   5.193   7.005
  154SAPE   C2617095   2.185   5.082   7.169
  154SAPE   H6R17096   2.214   5.172   7.225
  154SAPE   C2717097   2.216   4.955   7.251
  154SAPE   H7R17098   2.293   4.977   7.328
  154SAPE   H7S17099   2.259   4.877   7.184
  154SAPE   C2817100   2.094   4.891   7.315
  154SAPE   H8R17101   2.026   4.836   7.248
  154SAPE   C2917102   2.063   4.887   7.448
  154SAPE   H9R17103   1.972   4.832   7.477
  154SAPE  C21017104   2.144   4.946   7.565
  154SAPE  H10R17105   2.250   4.935   7.533
  154SAPE  H10S17106   2.120   4.883   7.653
  154SAPE  C21117107   2.114   5.089   7.597
  154SAPE  H11R17108   2.080   5.150   7.512
  154SAPE  C21217109   2.129   5.154   7.708
  154SAPE  H12R17110   2.086   5.255   7.714
  154SAPE  C21317111   2.174   5.095   7.839
  154SAPE  H13R17112   2.228   5.176   7.892
  154SAPE  H13S17113   2.237   5.005   7.823
  154SAPE  C21417114   2.052   5.052   7.913
  154SAPE  H14R17115   1.963   5.014   7.860
  154SAPE  C21517116   2.039   5.061   8.046
  154SAPE  H15R17117   1.947   5.040   8.102
  154SAPE  C21617118   2.141   5.112   8.143
  154SAPE  H16R17119   2.242   5.131   8.101
  154SAPE  H16S17120   2.149   5.039   8.226
  154SAPE  C21717121   2.088   5.240   8.224
  154SAPE  H17R17122   2.148   5.256   8.316
  154SAPE  H17S17123   1.980   5.228   8.251
  154SAPE  C21817124   2.092   5.373   8.146
  154SAPE  H18R17125   2.008   5.357   8.076
  154SAPE  H18S17126   2.189   5.376   8.092
  154SAPE  C21917127   2.049   5.488   8.237
  154SAPE  H19R17128   2.108   5.493   8.331
  154SAPE  H19S17129   1.948   5.471   8.279
  154SAPE  C22017130   2.075   5.628   8.186
  154SAPE  H20R17131   2.029   5.657   8.089
  154SAPE  H20S17132   2.183   5.642   8.165
  154SAPE  H20T17133   2.035   5.698   8.262
  154SAPE   C3317134   1.381   4.732   6.716
  154SAPE   H3X17135   1.372   4.623   6.699
  154SAPE   H3Y17136   1.317   4.776   6.637
  154SAPE   C3417137   1.336   4.775   6.856
  154SAPE   H4X17138   1.320   4.884   6.868
  154SAPE   H4Y17139   1.406   4.743   6.936
  154SAPE   C3517140   1.205   4.707   6.883
  154SAPE   H5X17141   1.216   4.600   6.911
  154SAPE   H5Y17142   1.141   4.705   6.792
  154SAPE   C3617143   1.121   4.761   7.004
  154SAPE   H6X17144   1.028   4.701   7.016
  154SAPE   H6Y17145   1.084   4.861   6.973
  154SAPE   C3717146   1.203   4.758   7.133
  154SAPE   H7X17147   1.281   4.837   7.124
  154SAPE   H7Y17148   1.254   4.661   7.148
  154SAPE   C3817149   1.112   4.789   7.256
  154SAPE   H8X17150   1.039   4.706   7.267
  154SAPE   H8Y17151   1.054   4.880   7.230
  154SAPE   C3917152   1.187   4.802   7.386
  154SAPE   H9X17153   1.254   4.890   7.380
  154SAPE   H9Y17154   1.247   4.709   7.397
  154SAPE  C31017155   1.087   4.807   7.501
  154SAPE  H10X17156   1.055   4.701   7.512
  154SAPE  H10Y17157   0.997   4.865   7.471
  154SAPE  C31117158   1.151   4.853   7.631
  154SAPE  H11X17159   1.158   4.964   7.637
  154SAPE  H11Y17160   1.243   4.796   7.655
  154SAPE  C31217161   1.066   4.820   7.748
  154SAPE  H12X17162   1.009   4.726   7.733
  154SAPE  H12Y17163   0.986   4.895   7.767
  154SAPE  C31317164   1.142   4.801   7.878
  154SAPE  H13X17165   1.217   4.881   7.895
  154SAPE  H13Y17166   1.208   4.713   7.862
  154SAPE  C31417167   1.057   4.775   8.003
  154SAPE  H14X17168   0.969   4.709   7.983
  154SAPE  H14Y17169   1.001   4.868   8.026
  154SAPE  C31517170   1.146   4.725   8.114
  154SAPE  H15X17171   1.214   4.808   8.141
  154SAPE  H15Y17172   1.202   4.632   8.088
  154SAPE  C31617173   1.074   4.672   8.239
  154SAPE  H16X17174   0.993   4.741   8.274
  154SAPE  H16Y17175   1.150   4.659   8.319
  154SAPE  C31717176   0.994   4.543   8.217
  154SAPE  H17X17177   1.056   4.452   8.204
  154SAPE  H17Y17178   0.919   4.547   8.135
  154SAPE  C31817179   0.909   4.505   8.336
  154SAPE  H18X17180   0.848   4.592   8.368
  154SAPE  H18Y17181   0.971   4.476   8.423
  154SAPE  H18Z17182   0.847   4.415   8.317
  155SAPE     N17183   1.674   5.652   6.347
  155SAPE   HN117184   1.692   5.551   6.334
  155SAPE   HN217185   1.573   5.672   6.330
  155SAPE   HN317186   1.726   5.703   6.273
  155SAPE   C1217187   1.709   5.711   6.475
  155SAPE  H12A17188   1.652   5.663   6.557
  155SAPE  H12B17189   1.685   5.819   6.469
  155SAPE   C1117190   1.860   5.700   6.512
  155SAPE  H11A17191   1.872   5.590   6.501
  155SAPE  H11B17192   1.872   5.719   6.621
  155SAPE     P17193   1.951   5.936   6.463
  155SAPE   O1317194   2.063   5.997   6.390
  155SAPE   O1417195   1.821   6.009   6.445
  155SAPE   O1217196   1.939   5.782   6.422
  155SAPE   O1117197   1.986   5.926   6.616
  155SAPE    C117198   2.111   5.959   6.663
  155SAPE    HA17199   2.187   5.881   6.641
  155SAPE    HB17200   2.151   6.057   6.630
  155SAPE    C217201   2.112   5.962   6.820
  155SAPE    HS17202   2.220   5.946   6.841
  155SAPE   O2117203   2.040   5.855   6.866
  155SAPE   C2117204   2.085   5.733   6.845
  155SAPE   O2217205   2.195   5.696   6.807
  155SAPE   C2217206   1.970   5.635   6.898
  155SAPE   H2R17207   1.937   5.679   6.995
  155SAPE   H2S17208   1.888   5.636   6.824
  155SAPE    C317209   2.052   6.095   6.880
  155SAPE    HX17210   1.953   6.114   6.833
  155SAPE    HY17211   2.118   6.175   6.839
  155SAPE   O3117212   2.055   6.094   7.018
  155SAPE   C3117213   1.943   6.059   7.084
  155SAPE   O3217214   1.833   6.040   7.037
  155SAPE   C3217215   1.981   6.049   7.233
  155SAPE   H2X17216   2.038   6.142   7.255
  155SAPE   H2Y17217   2.050   5.962   7.227
  155SAPE   C2317218   2.019   5.486   6.920
  155SAPE   H3R17219   2.072   5.460   6.826
  155SAPE   H3S17220   1.941   5.408   6.933
  155SAPE   C2417221   2.116   5.470   7.041
  155SAPE   H4R17222   2.170   5.564   7.066
  155SAPE   H4S17223   2.192   5.402   6.998
  155SAPE   C2517224   2.039   5.421   7.165
  155SAPE   H5R17225   2.006   5.316   7.162
  155SAPE   C2617226   2.015   5.493   7.273
  155SAPE   H6R17227   1.946   5.452   7.348
  155SAPE   C2717228   2.035   5.641   7.294
  155SAPE   H7R17229   1.959   5.685   7.362
  155SAPE   H7S17230   2.020   5.689   7.195
  155SAPE   C2817231   2.174   5.671   7.357
  155SAPE   H8R17232   2.249   5.682   7.277
  155SAPE   C2917233   2.217   5.682   7.484
  155SAPE   H9R17234   2.325   5.694   7.500
  155SAPE  C21017235   2.129   5.680   7.606
  155SAPE  H10R17236   2.022   5.657   7.589
  155SAPE  H10S17237   2.131   5.785   7.643
  155SAPE  C21117238   2.176   5.568   7.702
  155SAPE  H11R17239   2.156   5.463   7.675
  155SAPE  C21217240   2.240   5.588   7.819
  155SAPE  H12R17241   2.275   5.496   7.869
  155SAPE  C21317242   2.290   5.728   7.851
  155SAPE  H13R17243   2.212   5.762   7.923
  155SAPE  H13S17244   2.291   5.803   7.769
  155SAPE  C21417245   2.426   5.731   7.908
  155SAPE  H14R17246   2.505   5.661   7.879
  155SAPE  C21517247   2.472   5.829   7.990
  155SAPE  H15R17248   2.581   5.827   8.005
  155SAPE  C21617249   2.407   5.951   8.053
  155SAPE  H16R17250   2.321   5.976   7.986
  155SAPE  H16S17251   2.472   6.040   8.036
  155SAPE  C21717252   2.375   5.943   8.202
  155SAPE  H17R17253   2.461   5.899   8.256
  155SAPE  H17S17254   2.300   5.863   8.223
  155SAPE  C21817255   2.338   6.081   8.256
  155SAPE  H18R17256   2.258   6.120   8.190
  155SAPE  H18S17257   2.422   6.153   8.254
  155SAPE  C21917258   2.268   6.090   8.393
  155SAPE  H19R17259   2.171   6.041   8.371
  155SAPE  H19S17260   2.239   6.192   8.427
  155SAPE  C22017261   2.326   6.016   8.506
  155SAPE  H20R17262   2.429   6.050   8.532
  155SAPE  H20S17263   2.350   5.912   8.474
  155SAPE  H20T17264   2.261   6.015   8.595
  155SAPE   C3317265   1.862   6.023   7.335
  155SAPE   H3X17266   1.808   5.928   7.313
  155SAPE   H3Y17267   1.803   6.116   7.320
  155SAPE   C3417268   1.897   6.022   7.480
  155SAPE   H4X17269   1.970   5.939   7.496
  155SAPE   H4Y17270   1.809   5.995   7.542
  155SAPE   C3517271   1.945   6.155   7.533
  155SAPE   H5X17272   1.876   6.235   7.500
  155SAPE   H5Y17273   2.045   6.178   7.491
  155SAPE   C3617274   1.949   6.155   7.684
  155SAPE   H6X17275   1.854   6.151   7.742
  155SAPE   H6Y17276   2.005   6.245   7.718
  155SAPE   C3717277   2.036   6.043   7.750
  155SAPE   H7X17278   2.135   6.034   7.701
  155SAPE   H7Y17279   1.980   5.950   7.725
  155SAPE   C3817280   2.045   6.046   7.903
  155SAPE   H8X17281   2.103   6.135   7.938
  155SAPE   H8Y17282   2.105   5.956   7.928
  155SAPE   C3917283   1.921   6.028   7.985
  155SAPE   H9X17284   1.866   5.938   7.950
  155SAPE   H9Y17285   1.862   6.122   7.981
  155SAPE  C31017286   1.949   6.012   8.127
  155SAPE  H10X17287   2.013   6.100   8.153
  155SAPE  H10Y17288   2.007   5.917   8.138
  155SAPE  C31117289   1.822   6.011   8.211
  155SAPE  H11X17290   1.765   5.916   8.199
  155SAPE  H11Y17291   1.764   6.101   8.183
  155SAPE  C31217292   1.848   6.030   8.362
  155SAPE  H12X17293   1.752   6.041   8.418
  155SAPE  H12Y17294   1.903   6.125   8.376
  155SAPE  C31317295   1.924   5.903   8.419
  155SAPE  H13X17296   2.022   5.881   8.370
  155SAPE  H13Y17297   1.855   5.817   8.408
  155SAPE  C31417298   1.942   5.917   8.567
  155SAPE  H14X17299   1.862   5.974   8.617
  155SAPE  H14Y17300   2.034   5.976   8.584
  155SAPE  C31517301   1.971   5.787   8.641
  155SAPE  H15X17302   1.879   5.725   8.642
  155SAPE  H15Y17303   2.000   5.801   8.747
  155SAPE  C31617304   2.087   5.712   8.577
  155SAPE  H16X17305   2.179   5.769   8.553
  155SAPE  H16Y17306   2.051   5.689   8.475
  155SAPE  C31717307   2.134   5.586   8.649
  155SAPE  H17X17308   2.189   5.607   8.743
  155SAPE  H17Y17309   2.206   5.554   8.571
  155SAPE  C31817310   2.037   5.476   8.688
  155SAPE  H18X17311   2.082   5.376   8.706
  155SAPE  H18Y17312   1.963   5.458   8.607
  155SAPE  H18Z17313   1.981   5.500   8.781
  156SAPE     N17314   6.644   0.181   6.118
  156SAPE   HN117315   6.622   0.274   6.159
  156SAPE   HN217316   6.743   0.152   6.132
  156SAPE   HN317317   6.615   0.183   6.018
  156SAPE   C1217318   6.552   0.076   6.179
  156SAPE  H12A17319   6.583  -0.026   6.147
  156SAPE  H12B17320   6.450   0.099   6.142
  156SAPE   C1117321   6.553   0.088   6.336
  156SAPE  H11A17322   6.481   0.020   6.387
  156SAPE  H11B17323   6.518   0.188   6.369
  156SAPE     P17324   6.745  -0.064   6.420
  156SAPE   O1317325   6.786  -0.123   6.294
  156SAPE   O1417326   6.845  -0.040   6.523
  156SAPE   O1217327   6.684   0.077   6.394
  156SAPE   O1117328   6.628  -0.153   6.477
  156SAPE    C117329   6.563  -0.113   6.604
  156SAPE    HA17330   6.552  -0.004   6.623
  156SAPE    HB17331   6.459  -0.143   6.580
  156SAPE    C217332   6.606  -0.199   6.726
  156SAPE    HS17333   6.525  -0.209   6.802
  156SAPE   O2117334   6.720  -0.147   6.795
  156SAPE   C2117335   6.699  -0.038   6.868
  156SAPE   O2217336   6.597   0.016   6.892
  156SAPE   C2217337   6.836   0.006   6.923
  156SAPE   H2R17338   6.912   0.016   6.842
  156SAPE   H2S17339   6.805   0.109   6.951
  156SAPE    C317340   6.645  -0.341   6.680
  156SAPE    HX17341   6.734  -0.327   6.615
  156SAPE    HY17342   6.558  -0.373   6.620
  156SAPE   O3117343   6.655  -0.421   6.796
  156SAPE   C3117344   6.751  -0.511   6.797
  156SAPE   O3217345   6.850  -0.515   6.728
  156SAPE   C3217346   6.710  -0.616   6.902
  156SAPE   H2X17347   6.785  -0.697   6.910
  156SAPE   H2Y17348   6.619  -0.671   6.870
  156SAPE   C2317349   6.883  -0.075   7.050
  156SAPE   H3R17350   6.982  -0.043   7.089
  156SAPE   H3S17351   6.889  -0.182   7.021
  156SAPE   C2417352   6.787  -0.079   7.171
  156SAPE   H4R17353   6.836  -0.148   7.244
  156SAPE   H4S17354   6.695  -0.133   7.140
  156SAPE   C2517355   6.741   0.065   7.223
  156SAPE   H5R17356   6.691   0.138   7.157
  156SAPE   C2617357   6.759   0.108   7.347
  156SAPE   H6R17358   6.730   0.212   7.368
  156SAPE   C2717359   6.826   0.033   7.463
  156SAPE   H7R17360   6.889  -0.044   7.413
  156SAPE   H7S17361   6.749  -0.036   7.502
  156SAPE   C2817362   6.907   0.105   7.566
  156SAPE   H8R17363   6.978   0.183   7.536
  156SAPE   C2917364   6.918   0.070   7.697
  156SAPE   H9R17365   6.984   0.134   7.758
  156SAPE  C21017366   6.843  -0.039   7.769
  156SAPE  H10R17367   6.793  -0.112   7.702
  156SAPE  H10S17368   6.759   0.017   7.815
  156SAPE  C21117369   6.932  -0.110   7.873
  156SAPE  H11R17370   7.020  -0.163   7.834
  156SAPE  C21217371   6.917  -0.108   8.007
  156SAPE  H12R17372   6.980  -0.185   8.054
  156SAPE  C21317373   6.812  -0.030   8.082
  156SAPE  H13R17374   6.810   0.078   8.056
  156SAPE  H13S17375   6.839  -0.034   8.189
  156SAPE  C21417376   6.669  -0.068   8.060
  156SAPE  H14R17377   6.653  -0.125   7.967
  156SAPE  C21517378   6.553  -0.026   8.127
  156SAPE  H15R17379   6.455  -0.050   8.084
  156SAPE  C21617380   6.545   0.068   8.240
  156SAPE  H16R17381   6.449   0.125   8.234
  156SAPE  H16S17382   6.634   0.133   8.254
  156SAPE  C21717383   6.549  -0.008   8.371
  156SAPE  H17R17384   6.538   0.070   8.449
  156SAPE  H17S17385   6.645  -0.055   8.402
  156SAPE  C21817386   6.446  -0.115   8.389
  156SAPE  H18R17387   6.448  -0.164   8.489
  156SAPE  H18S17388   6.487  -0.193   8.322
  156SAPE  C21917389   6.298  -0.085   8.355
  156SAPE  H19R17390   6.287  -0.135   8.257
  156SAPE  H19S17391   6.298   0.025   8.339
  156SAPE  C22017392   6.191  -0.140   8.447
  156SAPE  H20R17393   6.091  -0.111   8.407
  156SAPE  H20S17394   6.194  -0.104   8.552
  156SAPE  H20T17395   6.200  -0.250   8.460
  156SAPE   C3317396   6.672  -0.562   7.042
  156SAPE   H3X17397   6.622  -0.647   7.093
  156SAPE   H3Y17398   6.608  -0.472   7.031
  156SAPE   C3417399   6.788  -0.525   7.139
  156SAPE   H4X17400   6.842  -0.432   7.109
  156SAPE   H4Y17401   6.866  -0.604   7.146
  156SAPE   C3517402   6.737  -0.506   7.286
  156SAPE   H5X17403   6.695  -0.606   7.310
  156SAPE   H5Y17404   6.657  -0.428   7.283
  156SAPE   C3617405   6.845  -0.451   7.384
  156SAPE   H6X17406   6.902  -0.377   7.324
  156SAPE   H6Y17407   6.910  -0.540   7.401
  156SAPE   C3717408   6.786  -0.389   7.514
  156SAPE   H7X17409   6.685  -0.433   7.524
  156SAPE   H7Y17410   6.768  -0.283   7.487
  156SAPE   C3817411   6.863  -0.414   7.643
  156SAPE   H8X17412   6.955  -0.353   7.655
  156SAPE   H8Y17413   6.902  -0.518   7.652
  156SAPE   C3917414   6.787  -0.388   7.768
  156SAPE   H9X17415   6.729  -0.293   7.773
  156SAPE   H9Y17416   6.856  -0.389   7.854
  156SAPE  C31017417   6.691  -0.495   7.822
  156SAPE  H10X17418   6.743  -0.592   7.835
  156SAPE  H10Y17419   6.613  -0.519   7.746
  156SAPE  C31117420   6.619  -0.461   7.955
  156SAPE  H11X17421   6.553  -0.381   7.917
  156SAPE  H11Y17422   6.689  -0.427   8.034
  156SAPE  C31217423   6.538  -0.579   8.000
  156SAPE  H12X17424   6.593  -0.637   8.077
  156SAPE  H12Y17425   6.495  -0.645   7.922
  156SAPE  C31317426   6.421  -0.539   8.094
  156SAPE  H13X17427   6.359  -0.456   8.056
  156SAPE  H13Y17428   6.474  -0.499   8.184
  156SAPE  C31417429   6.323  -0.645   8.135
  156SAPE  H14X17430   6.264  -0.676   8.046
  156SAPE  H14Y17431   6.246  -0.604   8.204
  156SAPE  C31517432   6.384  -0.779   8.185
  156SAPE  H15X17433   6.456  -0.774   8.269
  156SAPE  H15Y17434   6.443  -0.825   8.103
  156SAPE  C31617435   6.274  -0.883   8.208
  156SAPE  H16X17436   6.204  -0.896   8.122
  156SAPE  H16Y17437   6.218  -0.847   8.296
  156SAPE  C31717438   6.321  -1.020   8.252
  156SAPE  H17X17439   6.411  -1.023   8.317
  156SAPE  H17Y17440   6.340  -1.088   8.166
  156SAPE  C31817441   6.208  -1.088   8.323
  156SAPE  H18X17442   6.183  -1.039   8.419
  156SAPE  H18Y17443   6.235  -1.194   8.345
  156SAPE  H18Z17444   6.117  -1.085   8.259
  157SAPE     N17445   3.640   1.247   6.247
  157SAPE   HN117446   3.708   1.214   6.175
  157SAPE   HN217447   3.566   1.174   6.259
  157SAPE   HN317448   3.592   1.330   6.206
  157SAPE   C1217449   3.719   1.296   6.368
  157SAPE  H12A17450   3.793   1.217   6.392
  157SAPE  H12B17451   3.645   1.299   6.451
  157SAPE   C1117452   3.794   1.423   6.338
  157SAPE  H11A17453   3.846   1.475   6.421
  157SAPE  H11B17454   3.724   1.500   6.298
  157SAPE     P17455   4.041   1.366   6.256
  157SAPE   O1317456   4.058   1.221   6.253
  157SAPE   O1417457   4.114   1.450   6.161
  157SAPE   O1217458   3.894   1.393   6.238
  157SAPE   O1117459   4.073   1.407   6.409
  157SAPE    C117460   4.184   1.478   6.447
  157SAPE    HA17461   4.274   1.415   6.432
  157SAPE    HB17462   4.181   1.574   6.393
  157SAPE    C217463   4.179   1.513   6.607
  157SAPE    HS17464   4.270   1.573   6.629
  157SAPE   O2117465   4.184   1.390   6.688
  157SAPE   C2117466   4.294   1.320   6.696
  157SAPE   O2217467   4.398   1.342   6.631
  157SAPE   C2217468   4.284   1.226   6.815
  157SAPE   H2R17469   4.177   1.204   6.836
  157SAPE   H2S17470   4.344   1.138   6.782
  157SAPE    C317471   4.050   1.596   6.650
  157SAPE    HX17472   3.973   1.523   6.614
  157SAPE    HY17473   4.044   1.685   6.584
  157SAPE   O3117474   4.045   1.622   6.790
  157SAPE   C3117475   4.122   1.722   6.834
  157SAPE   O3217476   4.196   1.793   6.773
  157SAPE   C3217477   4.097   1.744   6.988
  157SAPE   H2X17478   4.015   1.819   6.977
  157SAPE   H2Y17479   4.187   1.799   7.024
  157SAPE   C2317480   4.377   1.277   6.936
  157SAPE   H3R17481   4.336   1.376   6.966
  157SAPE   H3S17482   4.480   1.288   6.896
  157SAPE   C2417483   4.380   1.178   7.054
  157SAPE   H4R17484   4.476   1.184   7.110
  157SAPE   H4S17485   4.382   1.079   7.004
  157SAPE   C2517486   4.260   1.192   7.139
  157SAPE   H5R17487   4.179   1.253   7.095
  157SAPE   C2617488   4.251   1.158   7.271
  157SAPE   H6R17489   4.153   1.156   7.322
  157SAPE   C2717490   4.357   1.095   7.359
  157SAPE   H7R17491   4.437   1.167   7.388
  157SAPE   H7S17492   4.404   1.016   7.295
  157SAPE   C2817493   4.309   1.024   7.485
  157SAPE   H8R17494   4.280   0.919   7.473
  157SAPE   C2917495   4.281   1.085   7.602
  157SAPE   H9R17496   4.246   1.016   7.680
  157SAPE  C21017497   4.290   1.231   7.636
  157SAPE  H10R17498   4.183   1.260   7.647
  157SAPE  H10S17499   4.334   1.292   7.554
  157SAPE  C21117500   4.368   1.256   7.761
  157SAPE  H11R17501   4.450   1.328   7.747
  157SAPE  C21217502   4.344   1.230   7.890
  157SAPE  H12R17503   4.408   1.276   7.966
  157SAPE  C21317504   4.226   1.145   7.940
  157SAPE  H13R17505   4.206   1.062   7.868
  157SAPE  H13S17506   4.134   1.207   7.936
  157SAPE  C21417507   4.243   1.082   8.079
  157SAPE  H14R17508   4.312   0.998   8.093
  157SAPE  C21517509   4.172   1.113   8.183
  157SAPE  H15R17510   4.201   1.056   8.272
  157SAPE  C21617511   4.069   1.223   8.198
  157SAPE  H16R17512   4.030   1.264   8.102
  157SAPE  H16S17513   4.101   1.315   8.252
  157SAPE  C21717514   3.949   1.169   8.282
  157SAPE  H17R17515   3.922   1.069   8.242
  157SAPE  H17S17516   3.861   1.235   8.263
  157SAPE  C21817517   3.986   1.163   8.429
  157SAPE  H18R17518   4.025   1.263   8.456
  157SAPE  H18S17519   4.060   1.082   8.446
  157SAPE  C21917520   3.858   1.136   8.517
  157SAPE  H19R17521   3.829   1.029   8.516
  157SAPE  H19S17522   3.772   1.181   8.461
  157SAPE  C22017523   3.870   1.193   8.657
  157SAPE  H20R17524   3.966   1.163   8.705
  157SAPE  H20S17525   3.788   1.155   8.721
  157SAPE  H20T17526   3.863   1.303   8.650
  157SAPE   C3317527   4.071   1.630   7.079
  157SAPE   H3X17528   4.160   1.563   7.082
  157SAPE   H3Y17529   3.988   1.568   7.038
  157SAPE   C3417530   4.034   1.687   7.218
  157SAPE   H4X17531   3.947   1.755   7.208
  157SAPE   H4Y17532   4.114   1.756   7.253
  157SAPE   C3517533   4.006   1.562   7.308
  157SAPE   H5X17534   4.096   1.499   7.327
  157SAPE   H5Y17535   3.932   1.498   7.255
  157SAPE   C3617536   3.953   1.602   7.446
  157SAPE   H6X17537   3.856   1.656   7.439
  157SAPE   H6Y17538   4.034   1.662   7.492
  157SAPE   C3717539   3.937   1.475   7.536
  157SAPE   H7X17540   4.026   1.409   7.544
  157SAPE   H7Y17541   3.850   1.416   7.499
  157SAPE   C3817542   3.906   1.523   7.677
  157SAPE   H8X17543   3.820   1.593   7.673
  157SAPE   H8Y17544   3.992   1.574   7.725
  157SAPE   C3917545   3.875   1.413   7.778
  157SAPE   H9X17546   3.961   1.349   7.808
  157SAPE   H9Y17547   3.811   1.334   7.734
  157SAPE  C31017548   3.799   1.468   7.897
  157SAPE  H10X17549   3.744   1.560   7.868
  157SAPE  H10Y17550   3.879   1.508   7.963
  157SAPE  C31117551   3.707   1.370   7.972
  157SAPE  H11X17552   3.774   1.286   8.001
  157SAPE  H11Y17553   3.614   1.340   7.919
  157SAPE  C31217554   3.655   1.432   8.100
  157SAPE  H12X17555   3.579   1.508   8.070
  157SAPE  H12Y17556   3.743   1.480   8.147
  157SAPE  C31317557   3.588   1.334   8.196
  157SAPE  H13X17558   3.629   1.231   8.190
  157SAPE  H13Y17559   3.484   1.327   8.157
  157SAPE  C31417560   3.583   1.388   8.343
  157SAPE  H14X17561   3.689   1.406   8.372
  157SAPE  H14Y17562   3.541   1.320   8.419
  157SAPE  C31517563   3.506   1.517   8.366
  157SAPE  H15X17564   3.401   1.498   8.334
  157SAPE  H15Y17565   3.532   1.606   8.305
  157SAPE  C31617566   3.510   1.552   8.516
  157SAPE  H16X17567   3.617   1.551   8.546
  157SAPE  H16Y17568   3.467   1.465   8.569
  157SAPE  C31717569   3.440   1.680   8.549
  157SAPE  H17X17570   3.342   1.687   8.497
  157SAPE  H17Y17571   3.500   1.765   8.509
  157SAPE  C31817572   3.423   1.698   8.698
  157SAPE  H18X17573   3.368   1.614   8.744
  157SAPE  H18Y17574   3.354   1.782   8.720
  157SAPE  H18Z17575   3.515   1.713   8.758
  158SAPE     N17576   6.578   5.587   6.271
  158SAPE   HN117577   6.635   5.512   6.314
  158SAPE   HN217578   6.526   5.552   6.188
  158SAPE   HN317579   6.648   5.659   6.242
  158SAPE   C1217580   6.471   5.625   6.367
  158SAPE  H12A17581   6.525   5.682   6.446
  158SAPE  H12B17582   6.448   5.526   6.412
  158SAPE   C1117583   6.359   5.712   6.304
  158SAPE  H11A17584   6.282   5.734   6.380
  158SAPE  H11B17585   6.311   5.632   6.245
  158SAPE     P17586   6.461   5.959   6.296
  158SAPE   O1317587   6.595   5.948   6.355
  158SAPE   O1417588   6.435   6.075   6.208
  158SAPE   O1217589   6.407   5.826   6.221
  158SAPE   O1117590   6.361   5.967   6.415
  158SAPE    C117591   6.235   6.024   6.403
  158SAPE    HA17592   6.219   6.077   6.306
  158SAPE    HB17593   6.150   5.954   6.420
  158SAPE    C217594   6.223   6.150   6.497
  158SAPE    HS17595   6.314   6.212   6.481
  158SAPE   O2117596   6.203   6.107   6.634
  158SAPE   C2117597   6.303   6.127   6.714
  158SAPE   O2217598   6.413   6.169   6.689
  158SAPE   C2217599   6.249   6.098   6.854
  158SAPE   H2R17600   6.170   6.173   6.874
  158SAPE   H2S17601   6.201   5.998   6.848
  158SAPE    C317602   6.098   6.235   6.449
  158SAPE    HX17603   6.003   6.180   6.462
  158SAPE    HY17604   6.103   6.261   6.341
  158SAPE   O3117605   6.076   6.348   6.536
  158SAPE   C3117606   6.136   6.460   6.499
  158SAPE   O3217607   6.216   6.468   6.408
  158SAPE   C3217608   6.091   6.577   6.592
  158SAPE   H2X17609   5.991   6.615   6.563
  158SAPE   H2Y17610   6.161   6.660   6.568
  158SAPE   C2317611   6.351   6.096   6.971
  158SAPE   H3R17612   6.400   6.196   6.981
  158SAPE   H3S17613   6.430   6.021   6.951
  158SAPE   C2417614   6.294   6.060   7.105
  158SAPE   H4R17615   6.236   5.966   7.091
  158SAPE   H4S17616   6.224   6.139   7.142
  158SAPE   C2517617   6.404   6.028   7.203
  158SAPE   H5R17618   6.485   5.966   7.161
  158SAPE   C2617619   6.411   6.067   7.332
  158SAPE   H6R17620   6.486   6.023   7.399
  158SAPE   C2717621   6.312   6.157   7.396
  158SAPE   H7R17622   6.231   6.087   7.427
  158SAPE   H7S17623   6.269   6.225   7.319
  158SAPE   C2817624   6.380   6.247   7.504
  158SAPE   H8R17625   6.449   6.323   7.464
  158SAPE   C2917626   6.345   6.242   7.640
  158SAPE   H9R17627   6.414   6.297   7.706
  158SAPE  C21017628   6.246   6.167   7.726
  158SAPE  H10R17629   6.239   6.227   7.819
  158SAPE  H10S17630   6.286   6.064   7.737
  158SAPE  C21117631   6.111   6.149   7.664
  158SAPE  H11R17632   6.096   6.205   7.571
  158SAPE  C21217633   6.012   6.086   7.718
  158SAPE  H12R17634   5.915   6.092   7.666
  158SAPE  C21317635   6.006   6.030   7.854
  158SAPE  H13R17636   6.047   6.106   7.924
  158SAPE  H13S17637   6.074   5.943   7.871
  158SAPE  C21417638   5.860   5.988   7.885
  158SAPE  H14R17639   5.798   5.953   7.800
  158SAPE  C21517640   5.807   5.982   8.012
  158SAPE  H15R17641   5.705   5.941   8.023
  158SAPE  C21617642   5.876   6.003   8.148
  158SAPE  H16R17643   5.979   6.042   8.137
  158SAPE  H16S17644   5.879   5.905   8.202
  158SAPE  C21717645   5.805   6.101   8.242
  158SAPE  H17R17646   5.698   6.074   8.252
  158SAPE  H17S17647   5.813   6.208   8.214
  158SAPE  C21817648   5.899   6.093   8.372
  158SAPE  H18R17649   5.997   6.139   8.346
  158SAPE  H18S17650   5.920   5.999   8.427
  158SAPE  C21917651   5.847   6.184   8.487
  158SAPE  H19R17652   5.898   6.169   8.584
  158SAPE  H19S17653   5.741   6.154   8.503
  158SAPE  C22017654   5.838   6.332   8.446
  158SAPE  H20R17655   5.937   6.377   8.420
  158SAPE  H20S17656   5.796   6.384   8.535
  158SAPE  H20T17657   5.770   6.340   8.358
  158SAPE   C3317658   6.100   6.538   6.744
  158SAPE   H3X17659   6.062   6.436   6.768
  158SAPE   H3Y17660   6.033   6.606   6.801
  158SAPE   C3417661   6.241   6.563   6.804
  158SAPE   H4X17662   6.280   6.664   6.779
  158SAPE   H4Y17663   6.307   6.485   6.761
  158SAPE   C3517664   6.239   6.546   6.956
  158SAPE   H5X17665   6.236   6.437   6.974
  158SAPE   H5Y17666   6.148   6.601   6.990
  158SAPE   C3617667   6.359   6.605   7.032
  158SAPE   H6X17668   6.383   6.706   6.992
  158SAPE   H6Y17669   6.448   6.542   7.013
  158SAPE   C3717670   6.336   6.601   7.179
  158SAPE   H7X17671   6.231   6.628   7.205
  158SAPE   H7Y17672   6.340   6.502   7.228
  158SAPE   C3817673   6.437   6.681   7.269
  158SAPE   H8X17674   6.426   6.787   7.239
  158SAPE   H8Y17675   6.545   6.660   7.252
  158SAPE   C3917676   6.411   6.665   7.420
  158SAPE   H9X17677   6.489   6.718   7.478
  158SAPE   H9Y17678   6.432   6.557   7.440
  158SAPE  C31017679   6.271   6.704   7.464
  158SAPE  H10X17680   6.204   6.618   7.442
  158SAPE  H10Y17681   6.234   6.793   7.409
  158SAPE  C31117682   6.273   6.731   7.616
  158SAPE  H11X17683   6.179   6.774   7.655
  158SAPE  H11Y17684   6.358   6.795   7.648
  158SAPE  C31217685   6.295   6.589   7.684
  158SAPE  H12X17686   6.398   6.555   7.660
  158SAPE  H12Y17687   6.217   6.514   7.660
  158SAPE  C31317688   6.305   6.597   7.833
  158SAPE  H13X17689   6.375   6.679   7.861
  158SAPE  H13Y17690   6.356   6.508   7.876
  158SAPE  C31417691   6.167   6.615   7.909
  158SAPE  H14X17692   6.114   6.710   7.885
  158SAPE  H14Y17693   6.181   6.616   8.019
  158SAPE  C31517694   6.072   6.499   7.884
  158SAPE  H15X17695   6.107   6.396   7.905
  158SAPE  H15Y17696   6.025   6.500   7.783
  158SAPE  C31617697   5.955   6.498   7.986
  158SAPE  H16X17698   5.883   6.580   7.966
  158SAPE  H16Y17699   5.994   6.520   8.088
  158SAPE  C31717700   5.873   6.365   7.974
  158SAPE  H17X17701   5.776   6.381   8.026
  158SAPE  H17Y17702   5.929   6.284   8.026
  158SAPE  C31817703   5.827   6.338   7.834
  158SAPE  H18X17704   5.911   6.311   7.767
  158SAPE  H18Y17705   5.748   6.405   7.794
  158SAPE  H18Z17706   5.780   6.237   7.835
  159SAPE     N17707   5.647   1.778   6.024
  159SAPE   HN117708   5.743   1.818   6.028
  159SAPE   HN217709   5.646   1.682   5.985
  159SAPE   HN317710   5.605   1.851   5.962
  159SAPE   C1217711   5.585   1.780   6.153
  159SAPE  H12A17712   5.649   1.731   6.229
  159SAPE  H12B17713   5.487   1.728   6.160
  159SAPE   C1117714   5.567   1.922   6.204
  159SAPE  H11A17715   5.667   1.970   6.196
  159SAPE  H11B17716   5.537   1.923   6.311
  159SAPE     P17717   5.344   2.077   6.199
  159SAPE   O1317718   5.313   2.195   6.116
  159SAPE   O1417719   5.229   1.987   6.217
  159SAPE   O1217720   5.471   2.002   6.132
  159SAPE   O1117721   5.388   2.126   6.342
  159SAPE    C117722   5.481   2.234   6.362
  159SAPE    HA17723   5.556   2.238   6.280
  159SAPE    HB17724   5.428   2.332   6.355
  159SAPE    C217725   5.552   2.219   6.498
  159SAPE    HS17726   5.609   2.124   6.496
  159SAPE   O2117727   5.472   2.212   6.615
  159SAPE   C2117728   5.361   2.290   6.617
  159SAPE   O2217729   5.357   2.398   6.561
  159SAPE   C2217730   5.259   2.214   6.697
  159SAPE   H2R17731   5.193   2.163   6.624
  159SAPE   H2S17732   5.303   2.134   6.761
  159SAPE    C317733   5.662   2.329   6.511
  159SAPE    HX17734   5.600   2.421   6.497
  159SAPE    HY17735   5.730   2.318   6.424
  159SAPE   O3117736   5.735   2.311   6.633
  159SAPE   C3117737   5.787   2.416   6.685
  159SAPE   O3217738   5.786   2.527   6.638
  159SAPE   C3217739   5.867   2.376   6.814
  159SAPE   H2X17740   5.940   2.297   6.785
  159SAPE   H2Y17741   5.796   2.333   6.888
  159SAPE   C2317742   5.159   2.305   6.770
  159SAPE   H3R17743   5.072   2.245   6.805
  159SAPE   H3S17744   5.118   2.380   6.698
  159SAPE   C2417745   5.220   2.383   6.888
  159SAPE   H4R17746   5.136   2.440   6.933
  159SAPE   H4S17747   5.288   2.458   6.843
  159SAPE   C2517748   5.295   2.302   6.991
  159SAPE   H5R17749   5.399   2.277   6.965
  159SAPE   C2617750   5.234   2.248   7.095
  159SAPE   H6R17751   5.281   2.166   7.151
  159SAPE   C2717752   5.088   2.254   7.128
  159SAPE   H7R17753   5.036   2.313   7.048
  159SAPE   H7S17754   5.088   2.325   7.213
  159SAPE   C2817755   5.010   2.132   7.162
  159SAPE   H8R17756   4.966   2.086   7.073
  159SAPE   C2917757   4.991   2.085   7.290
  159SAPE   H9R17758   4.915   2.008   7.311
  159SAPE  C21017759   5.039   2.147   7.414
  159SAPE  H10R17760   5.147   2.172   7.404
  159SAPE  H10S17761   5.029   2.062   7.485
  159SAPE  C21117762   4.963   2.263   7.463
  159SAPE  H11R17763   4.945   2.346   7.394
  159SAPE  C21217764   4.915   2.281   7.590
  159SAPE  H12R17765   4.881   2.380   7.624
  159SAPE  C21317766   4.917   2.177   7.701
  159SAPE  H13R17767   4.932   2.228   7.799
  159SAPE  H13S17768   5.012   2.120   7.703
  159SAPE  C21417769   4.797   2.087   7.699
  159SAPE  H14R17770   4.730   2.092   7.612
  159SAPE  C21517771   4.789   1.976   7.785
  159SAPE  H15R17772   4.695   1.919   7.794
  159SAPE  C21617773   4.874   1.936   7.898
  159SAPE  H16R17774   4.972   1.987   7.889
  159SAPE  H16S17775   4.907   1.830   7.890
  159SAPE  C21717776   4.808   1.952   8.039
  159SAPE  H17R17777   4.733   1.870   8.040
  159SAPE  H17S17778   4.773   2.056   8.054
  159SAPE  C21817779   4.915   1.912   8.147
  159SAPE  H18R17780   5.005   1.971   8.117
  159SAPE  H18S17781   4.927   1.802   8.138
  159SAPE  C21917782   4.863   1.944   8.287
  159SAPE  H19R17783   4.771   1.885   8.306
  159SAPE  H19S17784   4.845   2.053   8.297
  159SAPE  C22017785   4.957   1.901   8.401
  159SAPE  H20R17786   5.048   1.965   8.396
  159SAPE  H20S17787   4.981   1.793   8.389
  159SAPE  H20T17788   4.901   1.931   8.492
  159SAPE   C3317789   5.942   2.506   6.858
  159SAPE   H3X17790   5.868   2.564   6.917
  159SAPE   H3Y17791   5.982   2.571   6.777
  159SAPE   C3417792   6.046   2.459   6.956
  159SAPE   H4X17793   6.113   2.544   6.977
  159SAPE   H4Y17794   6.109   2.375   6.920
  159SAPE   C3517795   5.989   2.404   7.094
  159SAPE   H5X17796   5.980   2.296   7.066
  159SAPE   H5Y17797   5.887   2.439   7.124
  159SAPE   C3617798   6.088   2.420   7.216
  159SAPE   H6X17799   6.079   2.530   7.235
  159SAPE   H6Y17800   6.194   2.412   7.184
  159SAPE   C3717801   6.047   2.338   7.337
  159SAPE   H7X17802   6.063   2.233   7.302
  159SAPE   H7Y17803   5.938   2.357   7.336
  159SAPE   C3817804   6.120   2.352   7.469
  159SAPE   H8X17805   6.153   2.458   7.474
  159SAPE   H8Y17806   6.219   2.302   7.469
  159SAPE   C3917807   6.033   2.321   7.597
  159SAPE   H9X17808   6.006   2.214   7.590
  159SAPE   H9Y17809   5.939   2.380   7.589
  159SAPE  C31017810   6.089   2.370   7.735
  159SAPE  H10X17811   6.088   2.481   7.728
  159SAPE  H10Y17812   6.192   2.330   7.752
  159SAPE  C31117813   6.005   2.329   7.857
  159SAPE  H11X17814   5.990   2.219   7.867
  159SAPE  H11Y17815   5.908   2.381   7.843
  159SAPE  C31217816   6.070   2.367   7.998
  159SAPE  H12X17817   6.091   2.476   7.991
  159SAPE  H12Y17818   6.166   2.311   8.008
  159SAPE  C31317819   5.985   2.327   8.121
  159SAPE  H13X17820   5.993   2.216   8.113
  159SAPE  H13Y17821   5.877   2.350   8.112
  159SAPE  C31417822   6.049   2.348   8.263
  159SAPE  H14X17823   6.063   2.456   8.285
  159SAPE  H14Y17824   6.151   2.308   8.252
  159SAPE  C31517825   5.965   2.304   8.380
  159SAPE  H15X17826   5.946   2.194   8.384
  159SAPE  H15Y17827   5.867   2.356   8.377
  159SAPE  C31617828   6.024   2.332   8.515
  159SAPE  H16X17829   6.135   2.336   8.515
  159SAPE  H16Y17830   5.991   2.254   8.587
  159SAPE  C31717831   5.967   2.466   8.569
  159SAPE  H17X17832   5.859   2.475   8.545
  159SAPE  H17Y17833   6.028   2.541   8.515
  159SAPE  C31817834   5.968   2.488   8.723
  159SAPE  H18X17835   6.070   2.487   8.767
  159SAPE  H18Y17836   5.919   2.398   8.766
  159SAPE  H18Z17837   5.913   2.580   8.755
  160SAPE     N17838   5.916   0.697   6.684
  160SAPE   HN117839   5.946   0.785   6.730
  160SAPE   HN217840   5.813   0.692   6.671
  160SAPE   HN317841   5.939   0.610   6.735
  160SAPE   C1217842   5.957   0.685   6.543
  160SAPE  H12A17843   5.987   0.786   6.509
  160SAPE  H12B17844   5.870   0.656   6.480
  160SAPE   C1117845   6.082   0.595   6.516
  160SAPE  H11A17846   6.087   0.585   6.406
  160SAPE  H11B17847   6.052   0.500   6.565
  160SAPE     P17848   6.302   0.754   6.513
  160SAPE   O1317849   6.394   0.656   6.460
  160SAPE   O1417850   6.237   0.848   6.423
  160SAPE   O1217851   6.199   0.658   6.578
  160SAPE   O1117852   6.364   0.834   6.634
  160SAPE    C117853   6.397   0.768   6.756
  160SAPE    HA17854   6.427   0.664   6.733
  160SAPE    HB17855   6.486   0.811   6.806
  160SAPE    C217856   6.266   0.782   6.854
  160SAPE    HS17857   6.181   0.726   6.810
  160SAPE   O2117858   6.240   0.920   6.885
  160SAPE   C2117859   6.120   0.960   6.864
  160SAPE   O2217860   6.024   0.891   6.826
  160SAPE   C2217861   6.115   1.110   6.903
  160SAPE   H2R17862   6.218   1.146   6.925
  160SAPE   H2S17863   6.080   1.152   6.806
  160SAPE    C317864   6.296   0.721   6.994
  160SAPE    HX17865   6.373   0.773   7.054
  160SAPE    HY17866   6.332   0.621   6.962
  160SAPE   O3117867   6.172   0.713   7.072
  160SAPE   C3117868   6.189   0.675   7.195
  160SAPE   O3217869   6.295   0.657   7.252
  160SAPE   C3217870   6.062   0.661   7.275
  160SAPE   H2X17871   6.012   0.570   7.236
  160SAPE   H2Y17872   6.004   0.749   7.240
  160SAPE   C2317873   6.017   1.134   7.020
  160SAPE   H3R17874   5.914   1.103   6.993
  160SAPE   H3S17875   6.020   1.244   7.037
  160SAPE   C2417876   6.058   1.048   7.138
  160SAPE   H4R17877   6.035   0.940   7.120
  160SAPE   H4S17878   5.983   1.068   7.218
  160SAPE   C2517879   6.199   1.067   7.188
  160SAPE   H5R17880   6.272   1.011   7.128
  160SAPE   C2617881   6.249   1.130   7.295
  160SAPE   H6R17882   6.359   1.134   7.305
  160SAPE   C2717883   6.177   1.210   7.398
  160SAPE   H7R17884   6.067   1.203   7.388
  160SAPE   H7S17885   6.200   1.318   7.387
  160SAPE   C2817886   6.225   1.181   7.536
  160SAPE   H8R17887   6.311   1.112   7.548
  160SAPE   C2917888   6.167   1.242   7.644
  160SAPE   H9R17889   6.217   1.230   7.741
  160SAPE  C21017890   6.045   1.331   7.645
  160SAPE  H10R17891   6.022   1.371   7.544
  160SAPE  H10S17892   6.084   1.416   7.705
  160SAPE  C21117893   5.927   1.266   7.705
  160SAPE  H11R17894   5.890   1.174   7.657
  160SAPE  C21217895   5.884   1.283   7.833
  160SAPE  H12R17896   5.787   1.240   7.860
  160SAPE  C21317897   5.946   1.370   7.934
  160SAPE  H13R17898   5.932   1.478   7.909
  160SAPE  H13S17899   6.056   1.360   7.924
  160SAPE  C21417900   5.902   1.343   8.080
  160SAPE  H14R17901   5.933   1.256   8.139
  160SAPE  C21517902   5.812   1.413   8.147
  160SAPE  H15R17903   5.771   1.370   8.239
  160SAPE  C21617904   5.743   1.540   8.104
  160SAPE  H16R17905   5.633   1.540   8.093
  160SAPE  H16S17906   5.776   1.561   8.000
  160SAPE  C21717907   5.779   1.659   8.198
  160SAPE  H17R17908   5.753   1.622   8.300
  160SAPE  H17S17909   5.708   1.739   8.165
  160SAPE  C21817910   5.926   1.706   8.187
  160SAPE  H18R17911   5.933   1.755   8.088
  160SAPE  H18S17912   5.994   1.618   8.186
  160SAPE  C21917913   5.962   1.814   8.293
  160SAPE  H19R17914   6.027   1.767   8.370
  160SAPE  H19S17915   5.873   1.844   8.351
  160SAPE  C22017916   6.048   1.924   8.222
  160SAPE  H20R17917   6.137   1.886   8.168
  160SAPE  H20S17918   6.083   2.000   8.295
  160SAPE  H20T17919   5.979   1.979   8.154
  160SAPE   C3317920   6.088   0.648   7.422
  160SAPE   H3X17921   6.163   0.572   7.451
  160SAPE   H3Y17922   6.003   0.600   7.476
  160SAPE   C3417923   6.116   0.790   7.478
  160SAPE   H4X17924   6.020   0.842   7.496
  160SAPE   H4Y17925   6.177   0.850   7.407
  160SAPE   C3517926   6.193   0.793   7.616
  160SAPE   H5X17927   6.219   0.900   7.633
  160SAPE   H5Y17928   6.286   0.737   7.593
  160SAPE   C3617929   6.113   0.738   7.738
  160SAPE   H6X17930   6.088   0.635   7.707
  160SAPE   H6Y17931   6.013   0.784   7.755
  160SAPE   C3717932   6.194   0.736   7.864
  160SAPE   H7X17933   6.221   0.844   7.871
  160SAPE   H7Y17934   6.279   0.665   7.857
  160SAPE   C3817935   6.113   0.683   7.982
  160SAPE   H8X17936   6.113   0.575   8.008
  160SAPE   H8Y17937   6.007   0.705   7.954
  160SAPE   C3917938   6.138   0.779   8.099
  160SAPE   H9X17939   6.129   0.887   8.075
  160SAPE   H9Y17940   6.241   0.758   8.135
  160SAPE  C31017941   6.036   0.750   8.209
  160SAPE  H10X17942   6.061   0.661   8.271
  160SAPE  H10Y17943   5.936   0.736   8.163
  160SAPE  C31117944   6.026   0.870   8.308
  160SAPE  H11X17945   6.003   0.959   8.245
  160SAPE  H11Y17946   6.127   0.885   8.351
  160SAPE  C31217947   5.929   0.858   8.428
  160SAPE  H12X17948   5.954   0.763   8.481
  160SAPE  H12Y17949   5.830   0.849   8.378
  160SAPE  C31317950   5.948   0.964   8.529
  160SAPE  H13X17951   6.054   0.975   8.562
  160SAPE  H13Y17952   5.892   0.939   8.621
  160SAPE  C31417953   5.896   1.104   8.483
  160SAPE  H14X17954   5.786   1.096   8.470
  160SAPE  H14Y17955   5.944   1.143   8.390
  160SAPE  C31517956   5.923   1.218   8.578
  160SAPE  H15X17957   6.030   1.247   8.587
  160SAPE  H15Y17958   5.890   1.192   8.681
  160SAPE  C31617959   5.840   1.342   8.545
  160SAPE  H16X17960   5.735   1.313   8.567
  160SAPE  H16Y17961   5.851   1.358   8.436
  160SAPE  C31717962   5.887   1.465   8.623
  160SAPE  H17X17963   5.858   1.562   8.579
  160SAPE  H17Y17964   5.998   1.466   8.611
  160SAPE  C31817965   5.858   1.478   8.770
  160SAPE  H18X17966   5.919   1.558   8.816
  160SAPE  H18Y17967   5.863   1.380   8.824
  160SAPE  H18Z17968   5.750   1.499   8.786
  161SOPE     N17969   4.982   2.153  10.531
  161SOPE   HN117970   4.979   2.078  10.460
  161SOPE   HN217971   4.902   2.220  10.527
  161SOPE   HN317972   5.070   2.209  10.538
  161SOPE   C1217973   4.972   2.082  10.666
  161SOPE  H12A17974   5.073   2.051  10.701
  161SOPE  H12B17975   4.894   2.004  10.652
  161SOPE   C1117976   4.920   2.189  10.772
  161SOPE  H11A17977   4.987   2.275  10.790
  161SOPE  H11B17978   4.910   2.131  10.866
  161SOPE     P17979   4.763   2.378  10.676
  161SOPE   O1317980   4.883   2.458  10.658
  161SOPE   O1417981   4.639   2.433  10.736
  161SOPE   O1217982   4.789   2.241  10.750
  161SOPE   O1117983   4.742   2.316  10.531
  161SOPE    C117984   4.752   2.392  10.408
  161SOPE    HA17985   4.787   2.327  10.324
  161SOPE    HB17986   4.833   2.468  10.414
  161SOPE    C217987   4.610   2.430  10.352
  161SOPE    HS17988   4.566   2.490  10.435
  161SOPE   O2117989   4.527   2.314  10.324
  161SOPE   C2117990   4.424   2.324  10.246
  161SOPE   O2217991   4.358   2.427  10.222
  161SOPE   C2217992   4.384   2.184  10.198
  161SOPE   H2R17993   4.311   2.138  10.268
  161SOPE   H2S17994   4.478   2.125  10.204
  161SOPE    C317995   4.617   2.527  10.233
  161SOPE    HX17996   4.698   2.596  10.264
  161SOPE    HY17997   4.522   2.584  10.230
  161SOPE   O3117998   4.651   2.461  10.112
  161SOPE   C3117999   4.772   2.427  10.075
  161SOPE   O3218000   4.877   2.466  10.128
  161SOPE   C3218001   4.763   2.344   9.949
  161SOPE   H2X18002   4.746   2.410   9.861
  161SOPE   H2Y18003   4.688   2.263   9.957
  161SOPE   C2318004   4.304   2.182  10.067
  161SOPE   H3R18005   4.249   2.278  10.065
  161SOPE   H3S18006   4.225   2.104  10.066
  161SOPE   C2418007   4.385   2.172   9.941
  161SOPE   H4R18008   4.461   2.253   9.944
  161SOPE   H4S18009   4.445   2.081   9.962
  161SOPE   C2518010   4.298   2.190   9.816
  161SOPE   H5R18011   4.204   2.135   9.839
  161SOPE   H5S18012   4.275   2.294   9.783
  161SOPE   C2618013   4.355   2.126   9.689
  161SOPE   H6R18014   4.292   2.141   9.599
  161SOPE   H6S18015   4.458   2.163   9.670
  161SOPE   C2718016   4.364   1.974   9.714
  161SOPE   H7R18017   4.443   1.963   9.791
  161SOPE   H7S18018   4.272   1.942   9.767
  161SOPE   C2818019   4.388   1.887   9.593
  161SOPE   H8R18020   4.308   1.902   9.518
  161SOPE   H8S18021   4.479   1.937   9.553
  161SOPE   C2918022   4.420   1.746   9.599
  161SOPE   H9118023   4.504   1.727   9.667
  161SOPE  C21018024   4.369   1.644   9.525
  161SOPE  H10118025   4.424   1.550   9.541
  161SOPE  C21118026   4.264   1.647   9.418
  161SOPE  H11R18027   4.199   1.737   9.421
  161SOPE  H11S18028   4.205   1.556   9.446
  161SOPE  C21218029   4.323   1.637   9.277
  161SOPE  H12R18030   4.420   1.583   9.274
  161SOPE  H12S18031   4.342   1.743   9.248
  161SOPE  C21318032   4.235   1.560   9.171
  161SOPE  H13R18033   4.132   1.601   9.166
  161SOPE  H13S18034   4.216   1.460   9.215
  161SOPE  C21418035   4.285   1.537   9.026
  161SOPE  H14R18036   4.376   1.472   9.026
  161SOPE  H14S18037   4.321   1.636   8.992
  161SOPE  C21518038   4.178   1.490   8.924
  161SOPE  H15R18039   4.091   1.557   8.944
  161SOPE  H15S18040   4.157   1.382   8.943
  161SOPE  C21618041   4.228   1.509   8.778
  161SOPE  H16R18042   4.312   1.437   8.773
  161SOPE  H16S18043   4.278   1.606   8.762
  161SOPE  C21718044   4.127   1.473   8.670
  161SOPE  H17R18045   4.028   1.519   8.691
  161SOPE  H17S18046   4.113   1.363   8.670
  161SOPE  C21818047   4.169   1.509   8.534
  161SOPE  H18R18048   4.257   1.449   8.505
  161SOPE  H18S18049   4.211   1.611   8.548
  161SOPE  H18T18050   4.095   1.498   8.452
  161SOPE   C3318051   4.902   2.272   9.921
  161SOPE   H3X18052   4.917   2.216  10.016
  161SOPE   H3Y18053   4.975   2.354   9.903
  161SOPE   C3418054   4.906   2.174   9.807
  161SOPE   H4X18055   5.011   2.144   9.789
  161SOPE   H4Y18056   4.867   2.217   9.712
  161SOPE   C3518057   4.831   2.043   9.845
  161SOPE   H5X18058   4.731   2.069   9.885
  161SOPE   H5Y18059   4.879   2.011   9.940
  161SOPE   C3618060   4.836   1.937   9.734
  161SOPE   H6X18061   4.786   1.850   9.782
  161SOPE   H6Y18062   4.940   1.897   9.725
  161SOPE   C3718063   4.783   1.974   9.594
  161SOPE   H7X18064   4.830   2.062   9.545
  161SOPE   H7Y18065   4.680   2.013   9.605
  161SOPE   C3818066   4.790   1.859   9.494
  161SOPE   H8X18067   4.735   1.779   9.547
  161SOPE   H8Y18068   4.895   1.822   9.490
  161SOPE   C3918069   4.724   1.888   9.361
  161SOPE   H9X18070   4.795   1.952   9.306
  161SOPE   H9Y18071   4.637   1.951   9.392
  161SOPE  C31018072   4.694   1.770   9.268
  161SOPE  H10X18073   4.602   1.722   9.306
  161SOPE  H10Y18074   4.779   1.700   9.280
  161SOPE  C31118075   4.668   1.798   9.116
  161SOPE  H11X18076   4.689   1.904   9.092
  161SOPE  H11Y18077   4.566   1.787   9.074
  161SOPE  C31218078   4.749   1.702   9.024
  161SOPE  H12X18079   4.726   1.596   9.047
  161SOPE  H12Y18080   4.858   1.715   9.042
  161SOPE  C31318081   4.723   1.729   8.871
  161SOPE  H13X18082   4.787   1.818   8.851
  161SOPE  H13Y18083   4.614   1.733   8.849
  161SOPE  C31418084   4.763   1.610   8.790
  161SOPE  H14X18085   4.863   1.578   8.825
  161SOPE  H14Y18086   4.769   1.651   8.687
  161SOPE  C31518087   4.659   1.493   8.792
  161SOPE  H15X18088   4.570   1.520   8.731
  161SOPE  H15Y18089   4.632   1.459   8.894
  161SOPE  C31618090   4.723   1.366   8.731
  161SOPE  H16X18091   4.813   1.327   8.783
  161SOPE  H16Y18092   4.746   1.382   8.624
  161SOPE  C31718093   4.620   1.259   8.719
  161SOPE  H17X18094   4.530   1.293   8.664
  161SOPE  H17Y18095   4.573   1.244   8.819
  161SOPE  C31818096   4.671   1.129   8.647
  161SOPE  H18X18097   4.739   1.061   8.703
  161SOPE  H18Y18098   4.718   1.150   8.549
  161SOPE  H18Z18099   4.582   1.068   8.620
  162SOPE     N18100   3.587   2.327  11.076
  162SOPE   HN118101   3.525   2.390  11.132
  162SOPE   HN218102   3.642   2.268  11.142
  162SOPE   HN318103   3.651   2.377  11.012
  162SOPE   C1218104   3.493   2.241  10.994
  162SOPE  H12A18105   3.544   2.155  10.946
  162SOPE  H12B18106   3.446   2.307  10.918
  162SOPE   C1118107   3.384   2.172  11.093
  162SOPE  H11A18108   3.323   2.250  11.143
  162SOPE  H11B18109   3.432   2.117  11.177
  162SOPE     P18110   3.315   1.944  10.984
  162SOPE   O1318111   3.238   1.864  11.083
  162SOPE   O1418112   3.460   1.920  10.983
  162SOPE   O1218113   3.297   2.096  11.014
  162SOPE   O1118114   3.261   1.923  10.841
  162SOPE    C118115   3.173   2.023  10.789
  162SOPE    HA18116   3.215   2.126  10.795
  162SOPE    HB18117   3.085   2.028  10.856
  162SOPE    C218118   3.105   1.993  10.654
  162SOPE    HS18119   3.071   1.888  10.647
  162SOPE   O2118120   3.202   2.027  10.546
  162SOPE   C2118121   3.189   1.953  10.437
  162SOPE   O2218122   3.098   1.876  10.414
  162SOPE   C2218123   3.307   1.985  10.345
  162SOPE   H2R18124   3.376   1.899  10.360
  162SOPE   H2S18125   3.349   2.086  10.363
  162SOPE    C318126   2.975   2.080  10.643
  162SOPE    HX18127   3.016   2.181  10.665
  162SOPE    HY18128   2.904   2.060  10.726
  162SOPE   O3118129   2.918   2.080  10.513
  162SOPE   C3118130   2.800   2.009  10.499
  162SOPE   O3218131   2.754   1.933  10.583
  162SOPE   C3218132   2.748   2.028  10.353
  162SOPE   H2X18133   2.752   2.136  10.327
  162SOPE   H2Y18134   2.640   2.003  10.357
  162SOPE   C2318135   3.267   1.980  10.194
  162SOPE   H3R18136   3.206   2.071  10.177
  162SOPE   H3S18137   3.211   1.887  10.172
  162SOPE   C2418138   3.395   1.980  10.111
  162SOPE   H4R18139   3.449   2.065  10.157
  162SOPE   H4S18140   3.447   1.883  10.123
  162SOPE   C2518141   3.365   2.002   9.958
  162SOPE   H5R18142   3.293   1.920   9.938
  162SOPE   H5S18143   3.324   2.105   9.953
  162SOPE   C2618144   3.486   2.000   9.860
  162SOPE   H6R18145   3.558   2.078   9.891
  162SOPE   H6S18146   3.539   1.905   9.885
  162SOPE   C2718147   3.442   2.020   9.713
  162SOPE   H7R18148   3.378   1.933   9.685
  162SOPE   H7S18149   3.387   2.116   9.715
  162SOPE   C2818150   3.563   2.009   9.620
  162SOPE   H8R18151   3.595   1.904   9.636
  162SOPE   H8S18152   3.521   2.017   9.517
  162SOPE   C2918153   3.673   2.117   9.646
  162SOPE   H9118154   3.718   2.118   9.747
  162SOPE  C21018155   3.730   2.204   9.558
  162SOPE  H10118156   3.788   2.291   9.592
  162SOPE  C21118157   3.695   2.206   9.411
  162SOPE  H11R18158   3.688   2.103   9.372
  162SOPE  H11S18159   3.785   2.248   9.360
  162SOPE  C21218160   3.579   2.299   9.359
  162SOPE  H12R18161   3.485   2.246   9.383
  162SOPE  H12S18162   3.587   2.318   9.250
  162SOPE  C21318163   3.572   2.434   9.436
  162SOPE  H13R18164   3.674   2.477   9.430
  162SOPE  H13S18165   3.543   2.412   9.541
  162SOPE  C21418166   3.477   2.538   9.380
  162SOPE  H14R18167   3.486   2.629   9.442
  162SOPE  H14S18168   3.376   2.492   9.385
  162SOPE  C21518169   3.500   2.562   9.232
  162SOPE  H15R18170   3.443   2.491   9.169
  162SOPE  H15S18171   3.606   2.535   9.211
  162SOPE  C21618172   3.479   2.708   9.184
  162SOPE  H16R18173   3.536   2.786   9.239
  162SOPE  H16S18174   3.372   2.737   9.192
  162SOPE  C21718175   3.526   2.731   9.039
  162SOPE  H17R18176   3.635   2.732   9.015
  162SOPE  H17S18177   3.496   2.837   9.020
  162SOPE  C21818178   3.452   2.654   8.925
  162SOPE  H18R18179   3.343   2.669   8.939
  162SOPE  H18S18180   3.463   2.543   8.923
  162SOPE  H18T18181   3.476   2.698   8.826
  162SOPE   C3318182   2.817   1.946  10.247
  162SOPE   H3X18183   2.824   1.839  10.276
  162SOPE   H3Y18184   2.912   2.003  10.232
  162SOPE   C3418185   2.732   1.940  10.114
  162SOPE   H4X18186   2.701   2.044  10.089
  162SOPE   H4Y18187   2.638   1.889  10.144
  162SOPE   C3518188   2.786   1.859   9.999
  162SOPE   H5X18189   2.703   1.857   9.925
  162SOPE   H5Y18190   2.808   1.753  10.022
  162SOPE   C3618191   2.909   1.919   9.923
  162SOPE   H6X18192   2.986   1.910  10.003
  162SOPE   H6Y18193   2.895   2.027   9.902
  162SOPE   C3718194   2.928   1.842   9.792
  162SOPE   H7X18195   2.834   1.831   9.735
  162SOPE   H7Y18196   2.971   1.742   9.813
  162SOPE   C3818197   3.033   1.905   9.699
  162SOPE   H8X18198   3.130   1.900   9.753
  162SOPE   H8Y18199   3.003   2.008   9.673
  162SOPE   C3918200   3.047   1.827   9.568
  162SOPE   H9X18201   2.944   1.805   9.532
  162SOPE   H9Y18202   3.092   1.732   9.602
  162SOPE  C31018203   3.133   1.900   9.467
  162SOPE  H10X18204   3.145   1.826   9.386
  162SOPE  H10Y18205   3.222   1.934   9.524
  162SOPE  C31118206   3.064   2.028   9.412
  162SOPE  H11X18207   3.072   2.107   9.490
  162SOPE  H11Y18208   2.958   1.999   9.394
  162SOPE  C31218209   3.127   2.075   9.280
  162SOPE  H12X18210   3.153   1.989   9.216
  162SOPE  H12Y18211   3.226   2.125   9.290
  162SOPE  C31318212   3.032   2.178   9.215
  162SOPE  H13X18213   3.029   2.262   9.288
  162SOPE  H13Y18214   2.934   2.126   9.210
  162SOPE  C31418215   3.073   2.222   9.072
  162SOPE  H14X18216   3.104   2.132   9.015
  162SOPE  H14Y18217   3.160   2.288   9.090
  162SOPE  C31518218   2.963   2.297   8.999
  162SOPE  H15X18219   2.973   2.401   9.037
  162SOPE  H15Y18220   2.870   2.256   9.042
  162SOPE  C31618221   2.964   2.290   8.844
  162SOPE  H16X18222   2.887   2.360   8.803
  162SOPE  H16Y18223   2.948   2.183   8.816
  162SOPE  C31718224   3.100   2.321   8.769
  162SOPE  H17X18225   3.075   2.288   8.666
  162SOPE  H17Y18226   3.177   2.249   8.803
  162SOPE  C31818227   3.152   2.461   8.778
  162SOPE  H18X18228   3.193   2.496   8.681
  162SOPE  H18Y18229   3.227   2.460   8.859
  162SOPE  H18Z18230   3.071   2.529   8.813
  163SOPE     N18231   3.605   6.346  11.129
  163SOPE   HN118232   3.671   6.292  11.190
  163SOPE   HN218233   3.638   6.443  11.111
  163SOPE   HN318234   3.527   6.366  11.194
  163SOPE   C1218235   3.560   6.289  10.995
  163SOPE  H12A18236   3.598   6.185  11.003
  163SOPE  H12B18237   3.609   6.341  10.910
  163SOPE   C1118238   3.408   6.306  10.964
  163SOPE  H11A18239   3.343   6.253  11.037
  163SOPE  H11B18240   3.369   6.261  10.870
  163SOPE     P18241   3.358   6.542  10.853
  163SOPE   O1318242   3.498   6.586  10.824
  163SOPE   O1418243   3.258   6.641  10.888
  163SOPE   O1218244   3.362   6.446  10.978
  163SOPE   O1118245   3.301   6.453  10.740
  163SOPE    C118246   3.320   6.472  10.605
  163SOPE    HA18247   3.360   6.570  10.573
  163SOPE    HB18248   3.221   6.466  10.555
  163SOPE    C218249   3.411   6.357  10.540
  163SOPE    HS18250   3.514   6.364  10.580
  163SOPE   O2118251   3.412   6.369  10.398
  163SOPE   C2118252   3.502   6.447  10.348
  163SOPE   O2218253   3.560   6.538  10.407
  163SOPE   C2218254   3.522   6.405  10.201
  163SOPE   H2R18255   3.435   6.434  10.138
  163SOPE   H2S18256   3.539   6.297  10.184
  163SOPE    C318257   3.366   6.214  10.573
  163SOPE    HX18258   3.269   6.199  10.522
  163SOPE    HY18259   3.334   6.209  10.680
  163SOPE   O3118260   3.462   6.119  10.529
  163SOPE   C3118261   3.555   6.091  10.613
  163SOPE   O3218262   3.580   6.156  10.715
  163SOPE   C3218263   3.648   5.972  10.574
  163SOPE   H2X18264   3.586   5.881  10.579
  163SOPE   H2Y18265   3.735   5.965  10.643
  163SOPE   C2318266   3.644   6.471  10.143
  163SOPE   H3R18267   3.734   6.447  10.203
  163SOPE   H3S18268   3.638   6.582  10.153
  163SOPE   C2418269   3.686   6.419   9.996
  163SOPE   H4R18270   3.793   6.444   9.981
  163SOPE   H4S18271   3.675   6.309   9.996
  163SOPE   C2518272   3.605   6.468   9.879
  163SOPE   H5R18273   3.506   6.416   9.879
  163SOPE   H5S18274   3.592   6.577   9.888
  163SOPE   C2618275   3.671   6.420   9.748
  163SOPE   H6R18276   3.774   6.459   9.734
  163SOPE   H6S18277   3.667   6.309   9.740
  163SOPE   C2718278   3.599   6.473   9.629
  163SOPE   H7R18279   3.489   6.479   9.645
  163SOPE   H7S18280   3.627   6.578   9.607
  163SOPE   C2818281   3.615   6.401   9.494
  163SOPE   H8R18282   3.585   6.470   9.412
  163SOPE   H8S18283   3.723   6.376   9.494
  163SOPE   C2918284   3.531   6.275   9.488
  163SOPE   H9118285   3.466   6.250   9.573
  163SOPE  C21018286   3.547   6.187   9.392
  163SOPE  H10118287   3.470   6.109   9.377
  163SOPE  C21118288   3.647   6.207   9.278
  163SOPE  H11R18289   3.742   6.153   9.300
  163SOPE  H11S18290   3.677   6.313   9.263
  163SOPE  C21218291   3.599   6.149   9.147
  163SOPE  H12R18292   3.494   6.184   9.141
  163SOPE  H12S18293   3.599   6.039   9.133
  163SOPE  C21318294   3.668   6.208   9.023
  163SOPE  H13R18295   3.774   6.184   9.043
  163SOPE  H13S18296   3.648   6.317   9.025
  163SOPE  C21418297   3.619   6.157   8.891
  163SOPE  H14R18298   3.520   6.194   8.858
  163SOPE  H14S18299   3.629   6.047   8.891
  163SOPE  C21518300   3.712   6.213   8.781
  163SOPE  H15R18301   3.816   6.177   8.768
  163SOPE  H15S18302   3.725   6.322   8.802
  163SOPE  C21618303   3.645   6.216   8.644
  163SOPE  H16R18304   3.709   6.263   8.566
  163SOPE  H16S18305   3.553   6.278   8.647
  163SOPE  C21718306   3.611   6.070   8.598
  163SOPE  H17R18307   3.534   6.030   8.668
  163SOPE  H17S18308   3.695   5.998   8.602
  163SOPE  C21818309   3.549   6.054   8.460
  163SOPE  H18R18310   3.517   5.949   8.440
  163SOPE  H18S18311   3.621   6.089   8.382
  163SOPE  H18T18312   3.465   6.126   8.456
  163SOPE   C3318313   3.691   5.984  10.425
  163SOPE   H3X18314   3.601   5.994  10.360
  163SOPE   H3Y18315   3.744   5.895  10.387
  163SOPE   C3418316   3.798   6.092  10.385
  163SOPE   H4X18317   3.885   6.080  10.454
  163SOPE   H4Y18318   3.762   6.197  10.383
  163SOPE   C3518319   3.850   6.053  10.249
  163SOPE   H5X18320   3.767   6.062  10.177
  163SOPE   H5Y18321   3.884   5.948  10.245
  163SOPE   C3618322   3.963   6.138  10.204
  163SOPE   H6X18323   4.043   6.129  10.281
  163SOPE   H6Y18324   3.943   6.245  10.183
  163SOPE   C3718325   4.030   6.097  10.068
  163SOPE   H7X18326   4.065   5.992  10.072
  163SOPE   H7Y18327   4.119   6.156  10.037
  163SOPE   C3818328   3.938   6.100   9.948
  163SOPE   H8X18329   3.870   6.188   9.953
  163SOPE   H8Y18330   3.877   6.007   9.946
  163SOPE   C3918331   4.023   6.111   9.824
  163SOPE   H9X18332   4.102   6.034   9.837
  163SOPE   H9Y18333   4.068   6.211   9.811
  163SOPE  C31018334   3.949   6.085   9.695
  163SOPE  H10X18335   3.872   6.163   9.681
  163SOPE  H10Y18336   3.898   5.986   9.706
  163SOPE  C31118337   4.044   6.071   9.574
  163SOPE  H11X18338   4.106   5.978   9.576
  163SOPE  H11Y18339   4.116   6.155   9.583
  163SOPE  C31218340   3.981   6.090   9.439
  163SOPE  H12X18341   3.927   6.187   9.438
  163SOPE  H12Y18342   3.907   6.007   9.434
  163SOPE  C31318343   4.077   6.054   9.327
  163SOPE  H13X18344   4.103   5.946   9.325
  163SOPE  H13Y18345   4.170   6.112   9.343
  163SOPE  C31418346   4.016   6.099   9.193
  163SOPE  H14X18347   4.015   6.210   9.190
  163SOPE  H14Y18348   3.915   6.057   9.173
  163SOPE  C31518349   4.105   6.050   9.076
  163SOPE  H15X18350   4.119   5.941   9.092
  163SOPE  H15Y18351   4.210   6.086   9.069
  163SOPE  C31618352   4.049   6.080   8.931
  163SOPE  H16X18353   4.073   6.183   8.896
  163SOPE  H16Y18354   3.939   6.071   8.946
  163SOPE  C31718355   4.102   5.976   8.832
  163SOPE  H17X18356   4.030   5.986   8.748
  163SOPE  H17Y18357   4.086   5.872   8.867
  163SOPE  C31818358   4.243   5.987   8.782
  163SOPE  H18X18359   4.319   5.978   8.862
  163SOPE  H18Y18360   4.244   6.090   8.740
  163SOPE  H18Z18361   4.257   5.910   8.704
  164SOPE     N18362   5.914   4.460  10.755
  164SOPE   HN118363   5.991   4.429  10.817
  164SOPE   HN218364   5.868   4.544  10.797
  164SOPE   HN318365   5.836   4.391  10.761
  164SOPE   C1218366   5.970   4.492  10.618
  164SOPE  H12A18367   6.008   4.596  10.621
  164SOPE  H12B18368   5.891   4.480  10.541
  164SOPE   C1118369   6.077   4.391  10.576
  164SOPE  H11A18370   6.130   4.417  10.482
  164SOPE  H11B18371   6.016   4.299  10.568
  164SOPE     P18372   6.290   4.468  10.713
  164SOPE   O1318373   6.390   4.367  10.757
  164SOPE   O1418374   6.252   4.567  10.809
  164SOPE   O1218375   6.165   4.381  10.686
  164SOPE   O1118376   6.318   4.535  10.568
  164SOPE    C118377   6.450   4.564  10.524
  164SOPE    HA18378   6.530   4.530  10.593
  164SOPE    HB18379   6.471   4.671  10.503
  164SOPE    C218380   6.484   4.495  10.390
  164SOPE    HS18381   6.491   4.386  10.412
  164SOPE   O2118382   6.608   4.554  10.353
  164SOPE   C2118383   6.720   4.485  10.391
  164SOPE   O2218384   6.721   4.387  10.462
  164SOPE   C2218385   6.845   4.544  10.324
  164SOPE   H2R18386   6.926   4.530  10.398
  164SOPE   H2S18387   6.826   4.653  10.312
  164SOPE    C318388   6.378   4.511  10.276
  164SOPE    HX18389   6.352   4.618  10.268
  164SOPE    HY18390   6.286   4.465  10.317
  164SOPE   O3118391   6.415   4.446  10.151
  164SOPE   C3118392   6.509   4.505  10.077
  164SOPE   O3218393   6.546   4.619  10.086
  164SOPE   C3218394   6.554   4.401   9.973
  164SOPE   H2X18395   6.477   4.323   9.957
  164SOPE   H2Y18396   6.643   4.350  10.017
  164SOPE   C2318397   6.876   4.473  10.189
  164SOPE   H3R18398   6.781   4.483  10.132
  164SOPE   H3S18399   6.890   4.366  10.214
  164SOPE   C2418400   7.009   4.509  10.127
  164SOPE   H4R18401   7.004   4.613  10.089
  164SOPE   H4S18402   7.086   4.514  10.208
  164SOPE   C2518403   7.063   4.408  10.023
  164SOPE   H5R18404   7.172   4.393  10.034
  164SOPE   H5S18405   7.028   4.304  10.043
  164SOPE   C2618406   7.041   4.441   9.870
  164SOPE   H6R18407   7.083   4.351   9.820
  164SOPE   H6S18408   6.933   4.453   9.847
  164SOPE   C2718409   7.123   4.558   9.820
  164SOPE   H7R18410   7.051   4.639   9.798
  164SOPE   H7S18411   7.195   4.599   9.894
  164SOPE   C2818412   7.200   4.537   9.686
  164SOPE   H8R18413   7.244   4.637   9.668
  164SOPE   H8S18414   7.287   4.472   9.710
  164SOPE   C2918415   7.111   4.493   9.574
  164SOPE   H9118416   7.040   4.415   9.604
  164SOPE  C21018417   7.111   4.522   9.440
  164SOPE  H10118418   7.033   4.487   9.370
  164SOPE  C21118419   7.212   4.607   9.367
  164SOPE  H11R18420   7.263   4.535   9.300
  164SOPE  H11S18421   7.282   4.662   9.434
  164SOPE  C21218422   7.148   4.707   9.269
  164SOPE  H12R18423   7.078   4.777   9.322
  164SOPE  H12S18424   7.084   4.646   9.202
  164SOPE  C21318425   7.241   4.793   9.181
  164SOPE  H13R18426   7.324   4.724   9.151
  164SOPE  H13S18427   7.281   4.877   9.241
  164SOPE  C21418428   7.188   4.830   9.041
  164SOPE  H14R18429   7.259   4.898   8.990
  164SOPE  H14S18430   7.097   4.890   9.062
  164SOPE  C21518431   7.142   4.723   8.938
  164SOPE  H15R18432   7.110   4.782   8.850
  164SOPE  H15S18433   7.049   4.671   8.968
  164SOPE  C21618434   7.253   4.630   8.890
  164SOPE  H16R18435   7.279   4.558   8.971
  164SOPE  H16S18436   7.338   4.699   8.869
  164SOPE  C21718437   7.218   4.541   8.771
  164SOPE  H17R18438   7.211   4.601   8.678
  164SOPE  H17S18439   7.112   4.512   8.792
  164SOPE  C21818440   7.302   4.416   8.762
  164SOPE  H18R18441   7.281   4.349   8.849
  164SOPE  H18S18442   7.410   4.440   8.756
  164SOPE  H18T18443   7.286   4.360   8.667
  164SOPE   C3318444   6.573   4.459   9.833
  164SOPE   H3X18445   6.649   4.540   9.828
  164SOPE   H3Y18446   6.477   4.497   9.794
  164SOPE   C3418447   6.624   4.357   9.735
  164SOPE   H4X18448   6.536   4.289   9.727
  164SOPE   H4Y18449   6.708   4.296   9.775
  164SOPE   C3518450   6.661   4.416   9.599
  164SOPE   H5X18451   6.728   4.342   9.548
  164SOPE   H5Y18452   6.717   4.510   9.619
  164SOPE   C3618453   6.538   4.443   9.508
  164SOPE   H6X18454   6.456   4.486   9.569
  164SOPE   H6Y18455   6.499   4.345   9.472
  164SOPE   C3718456   6.597   4.521   9.389
  164SOPE   H7X18457   6.680   4.458   9.347
  164SOPE   H7Y18458   6.644   4.617   9.419
  164SOPE   C3818459   6.493   4.540   9.275
  164SOPE   H8X18460   6.400   4.581   9.319
  164SOPE   H8Y18461   6.460   4.448   9.222
  164SOPE   C3918462   6.539   4.643   9.175
  164SOPE   H9X18463   6.648   4.625   9.161
  164SOPE   H9Y18464   6.538   4.743   9.223
  164SOPE  C31018465   6.484   4.646   9.037
  164SOPE  H10X18466   6.376   4.618   9.037
  164SOPE  H10Y18467   6.529   4.566   8.974
  164SOPE  C31118468   6.511   4.779   8.957
  164SOPE  H11X18469   6.623   4.782   8.957
  164SOPE  H11Y18470   6.477   4.863   9.021
  164SOPE  C31218471   6.451   4.767   8.812
  164SOPE  H12X18472   6.379   4.684   8.800
  164SOPE  H12Y18473   6.538   4.772   8.742
  164SOPE  C31318474   6.369   4.898   8.787
  164SOPE  H13X18475   6.430   4.985   8.820
  164SOPE  H13Y18476   6.279   4.896   8.852
  164SOPE  C31418477   6.329   4.932   8.648
  164SOPE  H14X18478   6.274   4.845   8.606
  164SOPE  H14Y18479   6.419   4.950   8.585
  164SOPE  C31518480   6.250   5.060   8.643
  164SOPE  H15X18481   6.293   5.141   8.706
  164SOPE  H15Y18482   6.147   5.035   8.675
  164SOPE  C31618483   6.241   5.113   8.502
  164SOPE  H16X18484   6.218   5.031   8.430
  164SOPE  H16Y18485   6.337   5.160   8.474
  164SOPE  C31718486   6.128   5.211   8.474
  164SOPE  H17X18487   6.128   5.274   8.566
  164SOPE  H17Y18488   6.026   5.168   8.472
  164SOPE  C31818489   6.146   5.314   8.367
  164SOPE  H18X18490   6.062   5.386   8.377
  164SOPE  H18Y18491   6.134   5.266   8.268
  164SOPE  H18Z18492   6.249   5.355   8.369
  165SOPE     N18493   5.309   4.752  11.049
  165SOPE   HN118494   5.277   4.660  11.086
  165SOPE   HN218495   5.283   4.760  10.948
  165SOPE   HN318496   5.413   4.748  11.040
  165SOPE   C1218497   5.257   4.869  11.124
  165SOPE  H12A18498   5.324   4.873  11.213
  165SOPE  H12B18499   5.156   4.832  11.150
  165SOPE   C1118500   5.269   5.000  11.043
  165SOPE  H11A18501   5.378   5.017  11.031
  165SOPE  H11B18502   5.222   5.081  11.102
  165SOPE     P18503   5.077   4.997  10.860
  165SOPE   O1318504   4.987   4.984  10.974
  165SOPE   O1418505   5.065   4.892  10.760
  165SOPE   O1218506   5.226   4.980  10.908
  165SOPE   O1118507   5.064   5.143  10.794
  165SOPE    C118508   5.171   5.194  10.715
  165SOPE    HA18509   5.272   5.163  10.748
  165SOPE    HB18510   5.165   5.305  10.718
  165SOPE    C218511   5.154   5.161  10.562
  165SOPE    HS18512   5.191   5.250  10.508
  165SOPE   O2118513   5.017   5.130  10.531
  165SOPE   C2118514   4.939   5.226  10.550
  165SOPE   O2218515   4.966   5.341  10.581
  165SOPE   C2218516   4.798   5.184  10.512
  165SOPE   H2R18517   4.743   5.278  10.491
  165SOPE   H2S18518   4.747   5.133  10.597
  165SOPE    C318519   5.232   5.041  10.511
  165SOPE    HX18520   5.180   4.950  10.545
  165SOPE    HY18521   5.337   5.033  10.546
  165SOPE   O3118522   5.232   5.051  10.367
  165SOPE   C3118523   5.146   4.981  10.305
  165SOPE   O3218524   5.067   4.900  10.350
  165SOPE   C3218525   5.170   4.982  10.156
  165SOPE   H2X18526   5.105   5.062  10.113
  165SOPE   H2Y18527   5.137   4.885  10.114
  165SOPE   C2318528   4.785   5.093  10.390
  165SOPE   H3R18529   4.680   5.059  10.390
  165SOPE   H3S18530   4.848   5.003  10.409
  165SOPE   C2418531   4.817   5.163  10.258
  165SOPE   H4R18532   4.740   5.241  10.234
  165SOPE   H4S18533   4.917   5.210  10.248
  165SOPE   C2518534   4.809   5.063  10.134
  165SOPE   H5R18535   4.896   4.994  10.132
  165SOPE   H5S18536   4.710   5.015  10.152
  165SOPE   C2618537   4.798   5.141  10.000
  165SOPE   H6R18538   4.714   5.214  10.001
  165SOPE   H6S18539   4.893   5.195   9.980
  165SOPE   C2718540   4.759   5.040   9.887
  165SOPE   H7R18541   4.817   4.947   9.905
  165SOPE   H7S18542   4.655   5.003   9.902
  165SOPE   C2818543   4.777   5.100   9.747
  165SOPE   H8R18544   4.724   5.038   9.672
  165SOPE   H8S18545   4.716   5.193   9.739
  165SOPE   C2918546   4.918   5.132   9.701
  165SOPE   H9118547   4.957   5.227   9.741
  165SOPE  C21018548   4.991   5.070   9.609
  165SOPE  H10118549   5.095   5.106   9.602
  165SOPE  C21118550   4.948   4.950   9.523
  165SOPE  H11R18551   4.914   4.865   9.587
  165SOPE  H11S18552   5.031   4.895   9.474
  165SOPE  C21218553   4.862   4.984   9.396
  165SOPE  H12R18554   4.757   5.008   9.425
  165SOPE  H12S18555   4.873   4.895   9.330
  165SOPE  C21318556   4.925   5.103   9.308
  165SOPE  H13R18557   5.033   5.099   9.335
  165SOPE  H13S18558   4.882   5.198   9.346
  165SOPE  C21418559   4.924   5.091   9.155
  165SOPE  H14R18560   4.819   5.066   9.129
  165SOPE  H14S18561   4.987   5.010   9.113
  165SOPE  C21518562   4.959   5.223   9.084
  165SOPE  H15R18563   5.068   5.240   9.095
  165SOPE  H15S18564   4.910   5.307   9.137
  165SOPE  C21618565   4.934   5.224   8.937
  165SOPE  H16R18566   4.823   5.232   8.926
  165SOPE  H16S18567   4.967   5.129   8.889
  165SOPE  C21718568   4.998   5.347   8.876
  165SOPE  H17R18569   5.105   5.350   8.907
  165SOPE  H17S18570   4.954   5.444   8.909
  165SOPE  C21818571   4.993   5.338   8.726
  165SOPE  H18R18572   5.011   5.233   8.696
  165SOPE  H18S18573   5.070   5.392   8.665
  165SOPE  H18T18574   4.894   5.384   8.706
  165SOPE   C3318575   5.315   5.004  10.119
  165SOPE   H3X18576   5.383   4.943  10.182
  165SOPE   H3Y18577   5.347   5.109  10.135
  165SOPE   C3418578   5.353   4.973   9.972
  165SOPE   H4X18579   5.333   4.863   9.965
  165SOPE   H4Y18580   5.462   4.995   9.974
  165SOPE   C3518581   5.279   5.061   9.870
  165SOPE   H5X18582   5.173   5.032   9.882
  165SOPE   H5Y18583   5.308   5.018   9.772
  165SOPE   C3618584   5.313   5.213   9.890
  165SOPE   H6X18585   5.416   5.204   9.931
  165SOPE   H6Y18586   5.261   5.262   9.975
  165SOPE   C3718587   5.300   5.294   9.759
  165SOPE   H7X18588   5.296   5.404   9.774
  165SOPE   H7Y18589   5.198   5.269   9.724
  165SOPE   C3818590   5.409   5.257   9.659
  165SOPE   H8X18591   5.403   5.154   9.619
  165SOPE   H8Y18592   5.508   5.252   9.708
  165SOPE   C3918593   5.416   5.364   9.551
  165SOPE   H9X18594   5.475   5.443   9.602
  165SOPE   H9Y18595   5.318   5.412   9.531
  165SOPE  C31018596   5.481   5.326   9.424
  165SOPE  H10X18597   5.584   5.287   9.436
  165SOPE  H10Y18598   5.483   5.415   9.357
  165SOPE  C31118599   5.401   5.217   9.359
  165SOPE  H11X18600   5.296   5.250   9.365
  165SOPE  H11Y18601   5.411   5.116   9.406
  165SOPE  C31218602   5.447   5.186   9.216
  165SOPE  H12X18603   5.386   5.095   9.198
  165SOPE  H12Y18604   5.557   5.173   9.210
  165SOPE  C31318605   5.418   5.296   9.115
  165SOPE  H13X18606   5.436   5.395   9.163
  165SOPE  H13Y18607   5.312   5.297   9.081
  165SOPE  C31418608   5.511   5.287   8.992
  165SOPE  H14X18609   5.611   5.280   9.039
  165SOPE  H14Y18610   5.506   5.381   8.932
  165SOPE  C31518611   5.502   5.164   8.908
  165SOPE  H15X18612   5.516   5.069   8.963
  165SOPE  H15Y18613   5.593   5.167   8.845
  165SOPE  C31618614   5.375   5.176   8.828
  165SOPE  H16X18615   5.379   5.259   8.755
  165SOPE  H16Y18616   5.287   5.190   8.894
  165SOPE  C31718617   5.343   5.046   8.754
  165SOPE  H17X18618   5.265   5.063   8.677
  165SOPE  H17Y18619   5.306   4.965   8.821
  165SOPE  C31818620   5.461   4.992   8.670
  165SOPE  H18X18621   5.423   4.913   8.601
  165SOPE  H18Y18622   5.547   4.957   8.729
  165SOPE  H18Z18623   5.491   5.068   8.595
  166SOPE     N18624   1.604   5.412  11.053
  166SOPE   HN118625   1.695   5.405  11.104
  166SOPE   HN218626   1.557   5.497  11.090
  166SOPE   HN318627   1.548   5.327  11.072
  166SOPE   C1218628   1.629   5.438  10.906
  166SOPE  H12A18629   1.674   5.347  10.860
  166SOPE  H12B18630   1.696   5.526  10.903
  166SOPE   C1118631   1.492   5.475  10.839
  166SOPE  H11A18632   1.503   5.513  10.735
  166SOPE  H11B18633   1.440   5.553  10.898
  166SOPE     P18634   1.271   5.339  10.804
  166SOPE   O1318635   1.197   5.442  10.888
  166SOPE   O1418636   1.239   5.198  10.826
  166SOPE   O1218637   1.417   5.356  10.828
  166SOPE   O1118638   1.260   5.380  10.658
  166SOPE    C118639   1.291   5.310  10.540
  166SOPE    HA18640   1.211   5.321  10.463
  166SOPE    HB18641   1.293   5.201  10.560
  166SOPE    C218642   1.424   5.361  10.481
  166SOPE    HS18643   1.495   5.353  10.566
  166SOPE   O2118644   1.415   5.500  10.454
  166SOPE   C2118645   1.529   5.561  10.418
  166SOPE   O2218646   1.642   5.510  10.421
  166SOPE   C2218647   1.507   5.710  10.401
  166SOPE   H2R18648   1.507   5.759  10.501
  166SOPE   H2S18649   1.405   5.720  10.359
  166SOPE    C318650   1.467   5.286  10.354
  166SOPE    HX18651   1.480   5.178  10.375
  166SOPE    HY18652   1.566   5.318  10.316
  166SOPE   O3118653   1.358   5.306  10.259
  166SOPE   C3118654   1.360   5.418  10.174
  166SOPE   O3218655   1.461   5.483  10.166
  166SOPE   C3218656   1.227   5.453  10.117
  166SOPE   H2X18657   1.204   5.558  10.145
  166SOPE   H2Y18658   1.138   5.402  10.158
  166SOPE   C2318659   1.626   5.764  10.318
  166SOPE   H3R18660   1.662   5.691  10.242
  166SOPE   H3S18661   1.704   5.777  10.396
  166SOPE   C2418662   1.595   5.892  10.246
  166SOPE   H4R18663   1.565   5.971  10.318
  166SOPE   H4S18664   1.688   5.933  10.201
  166SOPE   C2518665   1.486   5.876  10.133
  166SOPE   H5R18666   1.529   5.793  10.072
  166SOPE   H5S18667   1.395   5.843  10.188
  166SOPE   C2618668   1.452   6.002  10.055
  166SOPE   H6R18669   1.361   5.963  10.004
  166SOPE   H6S18670   1.446   6.090  10.122
  166SOPE   C2718671   1.550   6.013   9.947
  166SOPE   H7R18672   1.555   6.116   9.904
  166SOPE   H7S18673   1.646   5.985   9.995
  166SOPE   C2818674   1.532   5.907   9.827
  166SOPE   H8R18675   1.607   5.947   9.755
  166SOPE   H8S18676   1.573   5.807   9.853
  166SOPE   C2918677   1.392   5.894   9.771
  166SOPE   H9118678   1.334   5.824   9.833
  166SOPE  C21018679   1.333   5.944   9.659
  166SOPE  H10118680   1.225   5.926   9.656
  166SOPE  C21118681   1.402   6.015   9.546
  166SOPE  H11R18682   1.509   6.027   9.574
  166SOPE  H11S18683   1.357   6.116   9.538
  166SOPE  C21218684   1.384   5.942   9.405
  166SOPE  H12R18685   1.409   6.011   9.322
  166SOPE  H12S18686   1.278   5.913   9.387
  166SOPE  C21318687   1.476   5.824   9.394
  166SOPE  H13R18688   1.476   5.764   9.487
  166SOPE  H13S18689   1.582   5.853   9.375
  166SOPE  C21418690   1.449   5.745   9.267
  166SOPE  H14R18691   1.338   5.742   9.261
  166SOPE  H14S18692   1.480   5.638   9.259
  166SOPE  C21518693   1.521   5.816   9.146
  166SOPE  H15R18694   1.630   5.808   9.162
  166SOPE  H15S18695   1.500   5.924   9.162
  166SOPE  C21618696   1.476   5.762   9.010
  166SOPE  H16R18697   1.366   5.755   9.013
  166SOPE  H16S18698   1.513   5.658   9.000
  166SOPE  C21718699   1.531   5.838   8.888
  166SOPE  H17R18700   1.637   5.873   8.887
  166SOPE  H17S18701   1.476   5.934   8.889
  166SOPE  C21818702   1.515   5.767   8.753
  166SOPE  H18R18703   1.584   5.681   8.741
  166SOPE  H18S18704   1.525   5.844   8.674
  166SOPE  H18T18705   1.414   5.724   8.740
  166SOPE   C3318706   1.226   5.450   9.961
  166SOPE   H3X18707   1.124   5.487   9.937
  166SOPE   H3Y18708   1.236   5.348   9.919
  166SOPE   C3418709   1.323   5.547   9.890
  166SOPE   H4X18710   1.424   5.516   9.922
  166SOPE   H4Y18711   1.292   5.651   9.913
  166SOPE   C3518712   1.315   5.535   9.738
  166SOPE   H5X18713   1.337   5.426   9.728
  166SOPE   H5Y18714   1.398   5.591   9.689
  166SOPE   C3618715   1.187   5.576   9.669
  166SOPE   H6X18716   1.194   5.687   9.664
  166SOPE   H6Y18717   1.100   5.538   9.725
  166SOPE   C3718718   1.187   5.536   9.522
  166SOPE   H7X18719   1.142   5.434   9.515
  166SOPE   H7Y18720   1.285   5.534   9.472
  166SOPE   C3818721   1.101   5.622   9.427
  166SOPE   H8X18722   1.158   5.717   9.416
  166SOPE   H8Y18723   1.002   5.628   9.476
  166SOPE   C3918724   1.073   5.543   9.299
  166SOPE   H9X18725   0.979   5.485   9.314
  166SOPE   H9Y18726   1.152   5.468   9.278
  166SOPE  C31018727   1.068   5.625   9.172
  166SOPE  H10X18728   1.159   5.688   9.168
  166SOPE  H10Y18729   0.976   5.688   9.172
  166SOPE  C31118730   1.052   5.547   9.036
  166SOPE  H11X18731   0.960   5.486   9.046
  166SOPE  H11Y18732   1.135   5.473   9.026
  166SOPE  C31218733   1.040   5.646   8.911
  166SOPE  H12X18734   1.124   5.719   8.900
  166SOPE  H12Y18735   0.952   5.711   8.928
  166SOPE  C31318736   1.011   5.570   8.783
  166SOPE  H13X18737   0.925   5.501   8.797
  166SOPE  H13Y18738   1.100   5.503   8.775
  166SOPE  C31418739   0.987   5.663   8.659
  166SOPE  H14X18740   1.074   5.732   8.658
  166SOPE  H14Y18741   0.889   5.714   8.672
  166SOPE  C31518742   1.001   5.597   8.522
  166SOPE  H15X18743   1.100   5.549   8.509
  166SOPE  H15Y18744   1.005   5.681   8.449
  166SOPE  C31618745   0.891   5.498   8.473
  166SOPE  H16X18746   0.888   5.408   8.538
  166SOPE  H16Y18747   0.927   5.465   8.373
  166SOPE  C31718748   0.752   5.559   8.450
  166SOPE  H17X18749   0.757   5.653   8.391
  166SOPE  H17Y18750   0.729   5.594   8.553
  166SOPE  C31818751   0.646   5.460   8.396
  166SOPE  H18X18752   0.544   5.504   8.392
  166SOPE  H18Y18753   0.643   5.376   8.468
  166SOPE  H18Z18754   0.678   5.424   8.296
  167SOPE     N18755   3.993   3.513   6.067
  167SOPE   HN118756   3.900   3.470   6.046
  167SOPE   HN218757   4.003   3.597   6.007
  167SOPE   HN318758   4.067   3.441   6.050
  167SOPE   C1218759   4.015   3.548   6.208
  167SOPE  H12A18760   4.125   3.563   6.219
  167SOPE  H12B18761   3.990   3.455   6.264
  167SOPE   C1118762   3.930   3.679   6.247
  167SOPE  H11A18763   3.987   3.770   6.220
  167SOPE  H11B18764   3.901   3.674   6.354
  167SOPE     P18765   3.679   3.770   6.219
  167SOPE   O1318766   3.575   3.735   6.118
  167SOPE   O1418767   3.713   3.910   6.219
  167SOPE   O1218768   3.810   3.685   6.174
  167SOPE   O1118769   3.644   3.711   6.362
  167SOPE    C118770   3.613   3.573   6.366
  167SOPE    HA18771   3.697   3.507   6.332
  167SOPE    HB18772   3.526   3.551   6.301
  167SOPE    C218773   3.590   3.535   6.510
  167SOPE    HS18774   3.572   3.425   6.511
  167SOPE   O2118775   3.482   3.603   6.576
  167SOPE   C2118776   3.361   3.577   6.531
  167SOPE   O2218777   3.336   3.477   6.457
  167SOPE   C2218778   3.260   3.666   6.612
  167SOPE   H2R18779   3.262   3.774   6.586
  167SOPE   H2S18780   3.285   3.664   6.720
  167SOPE    C318781   3.730   3.558   6.585
  167SOPE    HX18782   3.745   3.668   6.578
  167SOPE    HY18783   3.814   3.504   6.537
  167SOPE   O3118784   3.715   3.511   6.724
  167SOPE   C3118785   3.814   3.552   6.805
  167SOPE   O3218786   3.913   3.611   6.764
  167SOPE   C3218787   3.784   3.512   6.951
  167SOPE   H2X18788   3.806   3.403   6.955
  167SOPE   H2Y18789   3.678   3.533   6.980
  167SOPE   C2318790   3.117   3.626   6.593
  167SOPE   H3R18791   3.110   3.554   6.509
  167SOPE   H3S18792   3.037   3.700   6.571
  167SOPE   C2418793   3.052   3.546   6.706
  167SOPE   H4R18794   2.957   3.503   6.667
  167SOPE   H4S18795   3.115   3.460   6.740
  167SOPE   C2518796   3.026   3.645   6.825
  167SOPE   H5R18797   3.119   3.683   6.873
  167SOPE   H5S18798   2.972   3.738   6.796
  167SOPE   C2618799   2.942   3.581   6.939
  167SOPE   H6R18800   2.877   3.501   6.898
  167SOPE   H6S18801   3.013   3.537   7.012
  167SOPE   C2718802   2.847   3.677   7.008
  167SOPE   H7R18803   2.907   3.769   7.019
  167SOPE   H7S18804   2.763   3.702   6.940
  167SOPE   C2818805   2.789   3.615   7.144
  167SOPE   H8R18806   2.741   3.518   7.117
  167SOPE   H8S18807   2.880   3.594   7.204
  167SOPE   C2918808   2.695   3.713   7.210
  167SOPE   H9118809   2.619   3.751   7.141
  167SOPE  C21018810   2.698   3.765   7.331
  167SOPE  H10118811   2.616   3.828   7.368
  167SOPE  C21118812   2.791   3.728   7.440
  167SOPE  H11R18813   2.864   3.811   7.453
  167SOPE  H11S18814   2.867   3.650   7.421
  167SOPE  C21218815   2.714   3.705   7.572
  167SOPE  H12R18816   2.662   3.608   7.564
  167SOPE  H12S18817   2.643   3.790   7.577
  167SOPE  C21318818   2.807   3.718   7.700
  167SOPE  H13R18819   2.856   3.817   7.694
  167SOPE  H13S18820   2.889   3.643   7.693
  167SOPE  C21418821   2.733   3.685   7.837
  167SOPE  H14R18822   2.809   3.695   7.918
  167SOPE  H14S18823   2.695   3.581   7.834
  167SOPE  C21518824   2.621   3.794   7.869
  167SOPE  H15R18825   2.532   3.789   7.803
  167SOPE  H15S18826   2.684   3.884   7.853
  167SOPE  C21618827   2.582   3.790   8.018
  167SOPE  H16R18828   2.669   3.806   8.086
  167SOPE  H16S18829   2.534   3.691   8.031
  167SOPE  C21718830   2.469   3.884   8.067
  167SOPE  H17R18831   2.390   3.867   7.992
  167SOPE  H17S18832   2.502   3.988   8.047
  167SOPE  C21818833   2.426   3.856   8.214
  167SOPE  H18R18834   2.504   3.878   8.291
  167SOPE  H18S18835   2.405   3.748   8.230
  167SOPE  H18T18836   2.341   3.918   8.249
  167SOPE   C3318837   3.874   3.567   7.059
  167SOPE   H3X18838   3.979   3.542   7.032
  167SOPE   H3Y18839   3.847   3.509   7.150
  167SOPE   C3418840   3.855   3.716   7.086
  167SOPE   H4X18841   3.749   3.746   7.096
  167SOPE   H4Y18842   3.901   3.766   6.998
  167SOPE   C3518843   3.925   3.770   7.214
  167SOPE   H5X18844   3.956   3.876   7.230
  167SOPE   H5Y18845   4.020   3.717   7.235
  167SOPE   C3618846   3.828   3.754   7.332
  167SOPE   H6X18847   3.792   3.649   7.337
  167SOPE   H6Y18848   3.734   3.813   7.321
  167SOPE   C3718849   3.886   3.799   7.465
  167SOPE   H7X18850   3.881   3.907   7.488
  167SOPE   H7Y18851   3.996   3.782   7.454
  167SOPE   C3818852   3.845   3.709   7.584
  167SOPE   H8X18853   3.907   3.744   7.669
  167SOPE   H8Y18854   3.859   3.599   7.577
  167SOPE   C3918855   3.702   3.732   7.625
  167SOPE   H9X18856   3.633   3.711   7.540
  167SOPE   H9Y18857   3.702   3.842   7.639
  167SOPE  C31018858   3.640   3.664   7.747
  167SOPE  H10X18859   3.627   3.559   7.712
  167SOPE  H10Y18860   3.540   3.707   7.767
  167SOPE  C31118861   3.737   3.683   7.866
  167SOPE  H11X18862   3.763   3.791   7.870
  167SOPE  H11Y18863   3.824   3.616   7.848
  167SOPE  C31218864   3.686   3.647   8.003
  167SOPE  H12X18865   3.644   3.544   7.997
  167SOPE  H12Y18866   3.607   3.713   8.046
  167SOPE  C31318867   3.802   3.656   8.107
  167SOPE  H13X18868   3.875   3.574   8.087
  167SOPE  H13Y18869   3.761   3.626   8.205
  167SOPE  C31418870   3.870   3.790   8.140
  167SOPE  H14X18871   3.793   3.869   8.155
  167SOPE  H14Y18872   3.928   3.815   8.049
  167SOPE  C31518873   3.972   3.781   8.254
  167SOPE  H15X18874   4.024   3.683   8.249
  167SOPE  H15Y18875   3.918   3.789   8.351
  167SOPE  C31618876   4.088   3.881   8.257
  167SOPE  H16X18877   4.131   3.849   8.354
  167SOPE  H16Y18878   4.052   3.986   8.255
  167SOPE  C31718879   4.183   3.855   8.134
  167SOPE  H17X18880   4.137   3.831   8.036
  167SOPE  H17Y18881   4.234   3.759   8.157
  167SOPE  C31818882   4.283   3.965   8.113
  167SOPE  H18X18883   4.329   3.998   8.209
  167SOPE  H18Y18884   4.235   4.052   8.064
  167SOPE  H18Z18885   4.370   3.923   8.059
  168SOPE     N18886   3.094   0.813   6.361
  168SOPE   HN118887   3.047   0.897   6.400
  168SOPE   HN218888   3.166   0.839   6.290
  168SOPE   HN318889   3.014   0.762   6.317
  168SOPE   C1218890   3.147   0.727   6.475
  168SOPE  H12A18891   3.168   0.632   6.422
  168SOPE  H12B18892   3.078   0.717   6.561
  168SOPE   C1118893   3.285   0.792   6.523
  168SOPE  H11A18894   3.352   0.706   6.545
  168SOPE  H11B18895   3.265   0.860   6.608
  168SOPE     P18896   3.370   1.021   6.407
  168SOPE   O1318897   3.235   1.065   6.364
  168SOPE   O1418898   3.479   1.056   6.316
  168SOPE   O1218899   3.363   0.861   6.425
  168SOPE   O1118900   3.403   1.071   6.555
  168SOPE    C118901   3.528   1.056   6.614
  168SOPE    HA18902   3.586   1.149   6.595
  168SOPE    HB18903   3.589   0.970   6.578
  168SOPE    C218904   3.512   1.049   6.770
  168SOPE    HS18905   3.616   1.055   6.809
  168SOPE   O2118906   3.441   0.931   6.817
  168SOPE   C2118907   3.495   0.816   6.790
  168SOPE   O2218908   3.602   0.794   6.736
  168SOPE   C2218909   3.414   0.711   6.859
  168SOPE   H2R18910   3.406   0.623   6.791
  168SOPE   H2S18911   3.313   0.754   6.873
  168SOPE    C318912   3.430   1.174   6.814
  168SOPE    HX18913   3.327   1.162   6.777
  168SOPE    HY18914   3.466   1.265   6.761
  168SOPE   O3118915   3.434   1.190   6.957
  168SOPE   C3118916   3.334   1.146   7.041
  168SOPE   O3218917   3.240   1.077   7.010
  168SOPE   C3218918   3.363   1.220   7.169
  168SOPE   H2X18919   3.386   1.326   7.146
  168SOPE   H2Y18920   3.457   1.178   7.211
  168SOPE   C2318921   3.480   0.668   6.990
  168SOPE   H3R18922   3.525   0.747   7.053
  168SOPE   H3S18923   3.566   0.598   6.976
  168SOPE   C2418924   3.384   0.588   7.072
  168SOPE   H4R18925   3.291   0.648   7.068
  168SOPE   H4S18926   3.342   0.499   7.020
  168SOPE   C2518927   3.438   0.545   7.210
  168SOPE   H5R18928   3.363   0.481   7.261
  168SOPE   H5S18929   3.525   0.480   7.185
  168SOPE   C2618930   3.473   0.659   7.310
  168SOPE   H6R18931   3.514   0.607   7.399
  168SOPE   H6S18932   3.542   0.733   7.262
  168SOPE   C2718933   3.345   0.732   7.360
  168SOPE   H7R18934   3.309   0.797   7.278
  168SOPE   H7S18935   3.269   0.656   7.387
  168SOPE   C2818936   3.376   0.808   7.489
  168SOPE   H8R18937   3.391   0.727   7.563
  168SOPE   H8S18938   3.468   0.870   7.493
  168SOPE   C2918939   3.261   0.879   7.551
  168SOPE   H9118940   3.170   0.849   7.497
  168SOPE  C21018941   3.255   0.987   7.626
  168SOPE  H10118942   3.161   1.037   7.653
  168SOPE  C21118943   3.381   1.055   7.680
  168SOPE  H11R18944   3.446   1.085   7.595
  168SOPE  H11S18945   3.451   0.989   7.737
  168SOPE  C21218946   3.356   1.181   7.772
  168SOPE  H12R18947   3.293   1.251   7.712
  168SOPE  H12S18948   3.457   1.226   7.781
  168SOPE  C21318949   3.293   1.149   7.912
  168SOPE  H13R18950   3.183   1.138   7.900
  168SOPE  H13S18951   3.311   1.242   7.970
  168SOPE  C21418952   3.354   1.021   7.988
  168SOPE  H14R18953   3.465   1.023   7.985
  168SOPE  H14S18954   3.311   0.937   7.930
  168SOPE  C21518955   3.304   1.006   8.133
  168SOPE  H15R18956   3.194   1.004   8.125
  168SOPE  H15S18957   3.325   1.102   8.184
  168SOPE  C21618958   3.364   0.889   8.216
  168SOPE  H16R18959   3.319   0.889   8.317
  168SOPE  H16S18960   3.473   0.904   8.227
  168SOPE  C21718961   3.327   0.742   8.162
  168SOPE  H17R18962   3.383   0.661   8.211
  168SOPE  H17S18963   3.350   0.733   8.054
  168SOPE  C21818964   3.183   0.710   8.188
  168SOPE  H18R18965   3.152   0.605   8.171
  168SOPE  H18S18966   3.122   0.770   8.117
  168SOPE  H18T18967   3.151   0.729   8.293
  168SOPE   C3318968   3.238   1.222   7.264
  168SOPE   H3X18969   3.267   1.284   7.352
  168SOPE   H3Y18970   3.219   1.114   7.283
  168SOPE   C3418971   3.113   1.292   7.206
  168SOPE   H4X18972   3.080   1.262   7.104
  168SOPE   H4Y18973   3.133   1.401   7.211
  168SOPE   C3518974   2.990   1.265   7.299
  168SOPE   H5X18975   2.914   1.338   7.264
  168SOPE   H5Y18976   3.014   1.305   7.400
  168SOPE   C3618977   2.922   1.128   7.297
  168SOPE   H6X18978   2.985   1.037   7.299
  168SOPE   H6Y18979   2.863   1.121   7.203
  168SOPE   C3718980   2.813   1.112   7.409
  168SOPE   H7X18981   2.749   1.027   7.375
  168SOPE   H7Y18982   2.750   1.203   7.416
  168SOPE   C3818983   2.878   1.064   7.538
  168SOPE   H8X18984   2.951   1.135   7.582
  168SOPE   H8Y18985   2.944   0.985   7.498
  168SOPE   C3918986   2.777   1.010   7.635
  168SOPE   H9X18987   2.711   0.942   7.576
  168SOPE   H9Y18988   2.712   1.088   7.678
  168SOPE  C31018989   2.845   0.929   7.753
  168SOPE  H10X18990   2.941   0.967   7.795
  168SOPE  H10Y18991   2.888   0.842   7.700
  168SOPE  C31118992   2.753   0.906   7.871
  168SOPE  H11X18993   2.649   0.904   7.830
  168SOPE  H11Y18994   2.773   0.994   7.935
  168SOPE  C31218995   2.772   0.779   7.954
  168SOPE  H12X18996   2.855   0.796   8.025
  168SOPE  H12Y18997   2.801   0.695   7.887
  168SOPE  C31318998   2.651   0.755   8.038
  168SOPE  H13X18999   2.555   0.765   7.983
  168SOPE  H13Y19000   2.647   0.820   8.129
  168SOPE  C31419001   2.643   0.611   8.090
  168SOPE  H14X19002   2.740   0.583   8.136
  168SOPE  H14Y19003   2.631   0.540   8.005
  168SOPE  C31519004   2.527   0.576   8.186
  168SOPE  H15X19005   2.516   0.466   8.172
  168SOPE  H15Y19006   2.423   0.616   8.177
  168SOPE  C31619007   2.571   0.604   8.329
  168SOPE  H16X19008   2.589   0.714   8.335
  168SOPE  H16Y19009   2.670   0.558   8.347
  168SOPE  C31719010   2.467   0.548   8.429
  168SOPE  H17X19011   2.469   0.437   8.431
  168SOPE  H17Y19012   2.363   0.583   8.417
  168SOPE  C31819013   2.503   0.606   8.564
  168SOPE  H18X19014   2.608   0.584   8.593
  168SOPE  H18Y19015   2.433   0.576   8.645
  168SOPE  H18Z19016   2.485   0.715   8.563
  169SOPE     N19017   5.341   3.511   6.389
  169SOPE   HN119018   5.253   3.525   6.335
  169SOPE   HN219019   5.375   3.604   6.417
  169SOPE   HN319020   5.411   3.458   6.334
  169SOPE   C1219021   5.318   3.423   6.512
  169SOPE  H12A19022   5.222   3.456   6.556
  169SOPE  H12B19023   5.405   3.444   6.577
  169SOPE   C1119024   5.312   3.280   6.474
  169SOPE  H11A19025   5.223   3.253   6.413
  169SOPE  H11B19026   5.303   3.233   6.574
  169SOPE     P19027   5.534   3.140   6.470
  169SOPE   O1319028   5.659   3.160   6.395
  169SOPE   O1419029   5.478   3.001   6.485
  169SOPE   O1219030   5.432   3.236   6.408
  169SOPE   O1119031   5.557   3.200   6.615
  169SOPE    C119032   5.671   3.174   6.704
  169SOPE    HA19033   5.703   3.275   6.737
  169SOPE    HB19034   5.760   3.128   6.655
  169SOPE    C219035   5.633   3.094   6.828
  169SOPE    HS19036   5.725   3.075   6.887
  169SOPE   O2119037   5.567   2.969   6.801
  169SOPE   C2119038   5.630   2.868   6.738
  169SOPE   O2219039   5.744   2.867   6.699
  169SOPE   C2219040   5.537   2.750   6.733
  169SOPE   H2R19041   5.559   2.696   6.638
  169SOPE   H2S19042   5.433   2.787   6.725
  169SOPE    C319043   5.546   3.177   6.924
  169SOPE    HX19044   5.443   3.190   6.883
  169SOPE    HY19045   5.600   3.273   6.932
  169SOPE   O3119046   5.529   3.117   7.055
  169SOPE   C3119047   5.408   3.054   7.080
  169SOPE   O3219048   5.308   3.055   7.014
  169SOPE   C3219049   5.420   2.973   7.210
  169SOPE   H2X19050   5.523   2.931   7.213
  169SOPE   H2Y19051   5.349   2.888   7.209
  169SOPE   C2319052   5.567   2.647   6.846
  169SOPE   H3R19053   5.671   2.610   6.857
  169SOPE   H3S19054   5.512   2.554   6.819
  169SOPE   C2419055   5.516   2.689   6.983
  169SOPE   H4R19056   5.574   2.780   7.009
  169SOPE   H4S19057   5.410   2.721   6.976
  169SOPE   C2519058   5.549   2.587   7.090
  169SOPE   H5R19059   5.519   2.482   7.066
  169SOPE   H5S19060   5.659   2.579   7.078
  169SOPE   C2619061   5.512   2.633   7.238
  169SOPE   H6R19062   5.567   2.728   7.257
  169SOPE   H6S19063   5.406   2.665   7.244
  169SOPE   C2719064   5.540   2.522   7.339
  169SOPE   H7R19065   5.515   2.417   7.313
  169SOPE   H7S19066   5.649   2.530   7.360
  169SOPE   C2819067   5.463   2.534   7.468
  169SOPE   H8R19068   5.531   2.516   7.554
  169SOPE   H8S19069   5.443   2.644   7.472
  169SOPE   C2919070   5.337   2.441   7.474
  169SOPE   H9119071   5.307   2.416   7.372
  169SOPE  C21019072   5.278   2.385   7.585
  169SOPE  H10119073   5.183   2.330   7.574
  169SOPE  C21119074   5.322   2.411   7.728
  169SOPE  H11R19075   5.307   2.519   7.748
  169SOPE  H11S19076   5.429   2.384   7.739
  169SOPE  C21219077   5.249   2.317   7.824
  169SOPE  H12R19078   5.274   2.210   7.806
  169SOPE  H12S19079   5.138   2.326   7.823
  169SOPE  C21319080   5.275   2.350   7.969
  169SOPE  H13R19081   5.272   2.460   7.982
  169SOPE  H13S19082   5.374   2.306   7.994
  169SOPE  C21419083   5.181   2.289   8.074
  169SOPE  H14R19084   5.159   2.182   8.053
  169SOPE  H14S19085   5.080   2.333   8.065
  169SOPE  C21519086   5.234   2.305   8.215
  169SOPE  H15R19087   5.282   2.404   8.221
  169SOPE  H15S19088   5.315   2.230   8.227
  169SOPE  C21619089   5.134   2.289   8.324
  169SOPE  H16R19090   5.082   2.192   8.306
  169SOPE  H16S19091   5.060   2.371   8.314
  169SOPE  C21719092   5.197   2.291   8.466
  169SOPE  H17R19093   5.237   2.394   8.479
  169SOPE  H17S19094   5.290   2.234   8.490
  169SOPE  C21819095   5.090   2.263   8.574
  169SOPE  H18R19096   5.009   2.338   8.586
  169SOPE  H18S19097   5.128   2.246   8.677
  169SOPE  H18T19098   5.039   2.169   8.547
  169SOPE   C3319099   5.397   3.049   7.345
  169SOPE   H3X19100   5.304   3.109   7.335
  169SOPE   H3Y19101   5.485   3.110   7.373
  169SOPE   C3419102   5.377   2.945   7.461
  169SOPE   H4X19103   5.441   2.855   7.448
  169SOPE   H4Y19104   5.270   2.917   7.449
  169SOPE   C3519105   5.402   3.004   7.602
  169SOPE   H5X19106   5.337   3.092   7.623
  169SOPE   H5Y19107   5.512   3.021   7.603
  169SOPE   C3619108   5.360   2.893   7.711
  169SOPE   H6X19109   5.404   2.795   7.683
  169SOPE   H6Y19110   5.252   2.870   7.703
  169SOPE   C3719111   5.384   2.938   7.857
  169SOPE   H7X19112   5.381   3.048   7.870
  169SOPE   H7Y19113   5.480   2.910   7.907
  169SOPE   C3819114   5.277   2.869   7.944
  169SOPE   H8X19115   5.183   2.877   7.885
  169SOPE   H8Y19116   5.305   2.761   7.942
  169SOPE   C3919117   5.258   2.930   8.082
  169SOPE   H9X19118   5.247   3.040   8.073
  169SOPE   H9Y19119   5.358   2.906   8.124
  169SOPE  C31019120   5.146   2.870   8.174
  169SOPE  H10X19121   5.173   2.766   8.201
  169SOPE  H10Y19122   5.050   2.881   8.119
  169SOPE  C31119123   5.146   2.940   8.314
  169SOPE  H11X19124   5.048   2.918   8.363
  169SOPE  H11Y19125   5.163   3.046   8.287
  169SOPE  C31219126   5.268   2.909   8.406
  169SOPE  H12X19127   5.356   2.881   8.344
  169SOPE  H12Y19128   5.242   2.827   8.476
  169SOPE  C31319129   5.287   3.025   8.492
  169SOPE  H13X19130   5.195   3.071   8.532
  169SOPE  H13Y19131   5.338   3.107   8.437
  169SOPE  C31419132   5.389   2.985   8.606
  169SOPE  H14X19133   5.472   2.928   8.560
  169SOPE  H14Y19134   5.347   2.914   8.681
  169SOPE  C31519135   5.438   3.101   8.688
  169SOPE  H15X19136   5.359   3.163   8.734
  169SOPE  H15Y19137   5.484   3.184   8.630
  169SOPE  C31619138   5.548   3.051   8.783
  169SOPE  H16X19139   5.505   2.997   8.870
  169SOPE  H16Y19140   5.586   3.150   8.816
  169SOPE  C31719141   5.667   2.977   8.727
  169SOPE  H17X19142   5.623   2.889   8.675
  169SOPE  H17Y19143   5.731   2.939   8.809
  169SOPE  C31819144   5.746   3.043   8.616
  169SOPE  H18X19145   5.731   3.153   8.629
  169SOPE  H18Y19146   5.723   3.001   8.516
  169SOPE  H18Z19147   5.854   3.023   8.633
  170SOPE     N19148   6.678   1.061   6.428
  170SOPE   HN119149   6.768   1.012   6.446
  170SOPE   HN219150   6.611   1.015   6.363
  170SOPE   HN319151   6.691   1.156   6.389
  170SOPE   C1219152   6.603   1.079   6.555
  170SOPE  H12A19153   6.663   1.140   6.626
  170SOPE  H12B19154   6.599   0.978   6.602
  170SOPE   C1119155   6.465   1.134   6.529
  170SOPE  H11A19156   6.414   1.136   6.627
  170SOPE  H11B19157   6.408   1.068   6.460
  170SOPE     P19158   6.349   1.341   6.423
  170SOPE   O1319159   6.253   1.228   6.398
  170SOPE   O1419160   6.376   1.430   6.307
  170SOPE   O1219161   6.480   1.271   6.480
  170SOPE   O1119162   6.300   1.424   6.546
  170SOPE    C119163   6.390   1.497   6.629
  170SOPE    HA19164   6.403   1.602   6.596
  170SOPE    HB19165   6.491   1.451   6.633
  170SOPE    C219166   6.339   1.496   6.781
  170SOPE    HS19167   6.401   1.574   6.831
  170SOPE   O2119168   6.363   1.366   6.841
  170SOPE   C2119169   6.484   1.343   6.888
  170SOPE   O2219170   6.577   1.424   6.895
  170SOPE   C2219171   6.477   1.198   6.945
  170SOPE   H2R19172   6.437   1.126   6.871
  170SOPE   H2S19173   6.396   1.215   7.020
  170SOPE    C319174   6.193   1.537   6.788
  170SOPE    HX19175   6.133   1.473   6.721
  170SOPE    HY19176   6.200   1.642   6.752
  170SOPE   O3119177   6.136   1.519   6.923
  170SOPE   C3119178   6.185   1.611   7.002
  170SOPE   O3219179   6.263   1.701   6.978
  170SOPE   C3219180   6.138   1.577   7.144
  170SOPE   H2X19181   6.229   1.555   7.204
  170SOPE   H2Y19182   6.081   1.482   7.148
  170SOPE   C2319183   6.608   1.156   7.008
  170SOPE   H3R19184   6.637   1.241   7.073
  170SOPE   H3S19185   6.696   1.140   6.942
  170SOPE   C2419186   6.596   1.029   7.089
  170SOPE   H4R19187   6.504   1.040   7.150
  170SOPE   H4S19188   6.575   0.945   7.020
  170SOPE   C2519189   6.717   1.008   7.180
  170SOPE   H5R19190   6.807   0.998   7.116
  170SOPE   H5S19191   6.726   1.097   7.246
  170SOPE   C2619192   6.702   0.879   7.258
  170SOPE   H6R19193   6.693   0.796   7.185
  170SOPE   H6S19194   6.791   0.867   7.324
  170SOPE   C2719195   6.585   0.864   7.365
  170SOPE   H7R19196   6.486   0.848   7.318
  170SOPE   H7S19197   6.593   0.774   7.430
  170SOPE   C2819198   6.574   0.990   7.458
  170SOPE   H8R19199   6.562   1.071   7.383
  170SOPE   H8S19200   6.477   0.971   7.509
  170SOPE   C2919201   6.689   1.009   7.553
  170SOPE   H9119202   6.786   1.006   7.501
  170SOPE  C21019203   6.701   1.013   7.688
  170SOPE  H10119204   6.802   1.024   7.731
  170SOPE  C21119205   6.582   1.021   7.774
  170SOPE  H11R19206   6.506   0.947   7.742
  170SOPE  H11S19207   6.547   1.127   7.772
  170SOPE  C21219208   6.611   0.993   7.921
  170SOPE  H12R19209   6.696   1.057   7.951
  170SOPE  H12S19210   6.633   0.887   7.945
  170SOPE  C21319211   6.490   1.053   8.002
  170SOPE  H13R19212   6.408   0.990   7.959
  170SOPE  H13S19213   6.460   1.154   7.965
  170SOPE  C21419214   6.498   1.040   8.156
  170SOPE  H14R19215   6.580   1.104   8.194
  170SOPE  H14S19216   6.521   0.935   8.183
  170SOPE  C21519217   6.366   1.081   8.233
  170SOPE  H15R19218   6.291   0.999   8.243
  170SOPE  H15S19219   6.315   1.165   8.181
  170SOPE  C21619220   6.402   1.111   8.377
  170SOPE  H16R19221   6.472   1.197   8.372
  170SOPE  H16S19222   6.455   1.030   8.432
  170SOPE  C21719223   6.281   1.160   8.461
  170SOPE  H17R19224   6.211   1.076   8.441
  170SOPE  H17S19225   6.227   1.248   8.422
  170SOPE  C21819226   6.310   1.178   8.609
  170SOPE  H18R19227   6.357   1.084   8.647
  170SOPE  H18S19228   6.214   1.188   8.663
  170SOPE  H18T19229   6.362   1.274   8.628
  170SOPE   C3319230   6.059   1.692   7.209
  170SOPE   H3X19231   5.969   1.714   7.147
  170SOPE   H3Y19232   6.118   1.786   7.200
  170SOPE   C3419233   6.022   1.678   7.354
  170SOPE   H4X19234   6.114   1.671   7.415
  170SOPE   H4Y19235   5.963   1.585   7.369
  170SOPE   C3519236   5.941   1.797   7.403
  170SOPE   H5X19237   5.839   1.795   7.360
  170SOPE   H5Y19238   5.987   1.891   7.364
  170SOPE   C3619239   5.920   1.804   7.560
  170SOPE   H6X19240   6.016   1.805   7.615
  170SOPE   H6Y19241   5.862   1.713   7.586
  170SOPE   C3719242   5.836   1.927   7.595
  170SOPE   H7X19243   5.732   1.918   7.558
  170SOPE   H7Y19244   5.873   2.018   7.542
  170SOPE   C3819245   5.835   1.947   7.743
  170SOPE   H8X19246   5.941   1.965   7.772
  170SOPE   H8Y19247   5.800   1.859   7.801
  170SOPE   C3919248   5.759   2.070   7.802
  170SOPE   H9X19249   5.654   2.068   7.766
  170SOPE   H9Y19250   5.810   2.161   7.762
  170SOPE  C31019251   5.745   2.059   7.954
  170SOPE  H10X19252   5.839   2.080   8.008
  170SOPE  H10Y19253   5.720   1.953   7.976
  170SOPE  C31119254   5.639   2.155   8.018
  170SOPE  H11X19255   5.538   2.115   7.997
  170SOPE  H11Y19256   5.655   2.254   7.971
  170SOPE  C31219257   5.642   2.152   8.175
  170SOPE  H12X19258   5.573   2.225   8.221
  170SOPE  H12Y19259   5.750   2.151   8.203
  170SOPE  C31319260   5.575   2.025   8.243
  170SOPE  H13X19261   5.616   1.929   8.204
  170SOPE  H13Y19262   5.466   2.030   8.221
  170SOPE  C31419263   5.604   2.032   8.395
  170SOPE  H14X19264   5.531   2.108   8.431
  170SOPE  H14Y19265   5.700   2.077   8.429
  170SOPE  C31519266   5.592   1.903   8.473
  170SOPE  H15X19267   5.613   1.922   8.581
  170SOPE  H15Y19268   5.673   1.847   8.421
  170SOPE  C31619269   5.461   1.834   8.457
  170SOPE  H16X19270   5.432   1.811   8.352
  170SOPE  H16Y19271   5.377   1.903   8.481
  170SOPE  C31719272   5.435   1.710   8.548
  170SOPE  H17X19273   5.504   1.635   8.504
  170SOPE  H17Y19274   5.329   1.684   8.531
  170SOPE  C31819275   5.477   1.723   8.692
  170SOPE  H18X19276   5.587   1.738   8.701
  170SOPE  H18Y19277   5.464   1.621   8.736
  170SOPE  H18Z19278   5.415   1.790   8.755
  171SOPE     N19279   6.637   4.346   6.089
  171SOPE   HN119280   6.729   4.348   6.137
  171SOPE   HN219281   6.599   4.251   6.108
  171SOPE   HN319282   6.654   4.358   5.988
  171SOPE   C1219283   6.533   4.434   6.153
  171SOPE  H12A19284   6.444   4.435   6.087
  171SOPE  H12B19285   6.579   4.535   6.146
  171SOPE   C1119286   6.503   4.385   6.298
  171SOPE  H11A19287   6.456   4.284   6.291
  171SOPE  H11B19288   6.429   4.453   6.345
  171SOPE     P19289   6.687   4.490   6.457
  171SOPE   O1319290   6.725   4.582   6.351
  171SOPE   O1419291   6.785   4.438   6.551
  171SOPE   O1219292   6.617   4.374   6.385
  171SOPE   O1119293   6.573   4.565   6.529
  171SOPE    C119294   6.465   4.492   6.600
  171SOPE    HA19295   6.464   4.384   6.578
  171SOPE    HB19296   6.369   4.526   6.555
  171SOPE    C219297   6.468   4.514   6.756
  171SOPE    HS19298   6.388   4.454   6.804
  171SOPE   O2119299   6.439   4.652   6.784
  171SOPE   C2119300   6.309   4.695   6.770
  171SOPE   O2219301   6.219   4.613   6.767
  171SOPE   C2219302   6.311   4.855   6.784
  171SOPE   H2R19303   6.208   4.866   6.825
  171SOPE   H2S19304   6.323   4.903   6.685
  171SOPE    C319305   6.606   4.470   6.823
  171SOPE    HX19306   6.680   4.529   6.765
  171SOPE    HY19307   6.618   4.362   6.802
  171SOPE   O3119308   6.602   4.495   6.963
  171SOPE   C3119309   6.549   4.398   7.041
  171SOPE   O3219310   6.506   4.294   7.006
  171SOPE   C3219311   6.528   4.431   7.191
  171SOPE   H2X19312   6.504   4.332   7.236
  171SOPE   H2Y19313   6.444   4.502   7.209
  171SOPE   C2319314   6.419   4.910   6.886
  171SOPE   H3R19315   6.423   5.019   6.868
  171SOPE   H3S19316   6.525   4.882   6.866
  171SOPE   C2419317   6.374   4.867   7.022
  171SOPE   H4R19318   6.266   4.890   7.035
  171SOPE   H4S19319   6.397   4.759   7.031
  171SOPE   C2519320   6.435   4.943   7.139
  171SOPE   H5R19321   6.545   4.954   7.127
  171SOPE   H5S19322   6.391   5.045   7.138
  171SOPE   C2619323   6.419   4.866   7.274
  171SOPE   H6R19324   6.326   4.805   7.265
  171SOPE   H6S19325   6.505   4.802   7.303
  171SOPE   C2719326   6.417   4.955   7.395
  171SOPE   H7R19327   6.517   4.999   7.418
  171SOPE   H7S19328   6.349   5.039   7.368
  171SOPE   C2819329   6.374   4.890   7.528
  171SOPE   H8R19330   6.265   4.874   7.516
  171SOPE   H8S19331   6.426   4.792   7.539
  171SOPE   C2919332   6.420   4.977   7.646
  171SOPE   H9119333   6.515   5.030   7.628
  171SOPE  C21019334   6.345   5.014   7.749
  171SOPE  H10119335   6.383   5.097   7.811
  171SOPE  C21119336   6.204   4.980   7.768
  171SOPE  H11R19337   6.177   4.880   7.727
  171SOPE  H11S19338   6.141   5.054   7.715
  171SOPE  C21219339   6.155   4.985   7.913
  171SOPE  H12R19340   6.166   5.085   7.959
  171SOPE  H12S19341   6.214   4.911   7.972
  171SOPE  C21319342   6.005   4.947   7.914
  171SOPE  H13R19343   5.985   4.847   7.872
  171SOPE  H13S19344   5.953   5.021   7.850
  171SOPE  C21419345   5.950   4.948   8.062
  171SOPE  H14R19346   5.951   5.050   8.106
  171SOPE  H14S19347   6.009   4.874   8.120
  171SOPE  C21519348   5.807   4.892   8.074
  171SOPE  H15R19349   5.775   4.806   8.011
  171SOPE  H15S19350   5.746   4.977   8.036
  171SOPE  C21619351   5.771   4.866   8.221
  171SOPE  H16R19352   5.854   4.807   8.264
  171SOPE  H16S19353   5.673   4.814   8.229
  171SOPE  C21719354   5.768   4.988   8.319
  171SOPE  H17R19355   5.687   5.057   8.288
  171SOPE  H17S19356   5.868   5.038   8.314
  171SOPE  C21819357   5.747   4.935   8.461
  171SOPE  H18R19358   5.836   4.874   8.487
  171SOPE  H18S19359   5.659   4.868   8.454
  171SOPE  H18T19360   5.733   5.007   8.545
  171SOPE   C3319361   6.649   4.500   7.257
  171SOPE   H3X19362   6.668   4.602   7.217
  171SOPE   H3Y19363   6.741   4.439   7.242
  171SOPE   C3419364   6.635   4.493   7.414
  171SOPE   H4X19365   6.631   4.392   7.460
  171SOPE   H4Y19366   6.528   4.517   7.436
  171SOPE   C3519367   6.734   4.586   7.485
  171SOPE   H5X19368   6.727   4.691   7.448
  171SOPE   H5Y19369   6.835   4.549   7.456
  171SOPE   C3619370   6.709   4.588   7.637
  171SOPE   H6X19371   6.615   4.644   7.660
  171SOPE   H6Y19372   6.794   4.638   7.688
  171SOPE   C3719373   6.696   4.449   7.709
  171SOPE   H7X19374   6.780   4.379   7.692
  171SOPE   H7Y19375   6.600   4.401   7.682
  171SOPE   C3819376   6.699   4.448   7.861
  171SOPE   H8X19377   6.605   4.496   7.895
  171SOPE   H8Y19378   6.782   4.514   7.891
  171SOPE   C3919379   6.708   4.316   7.941
  171SOPE   H9X19380   6.757   4.242   7.874
  171SOPE   H9Y19381   6.611   4.267   7.963
  171SOPE  C31019382   6.772   4.334   8.078
  171SOPE  H10X19383   6.694   4.376   8.145
  171SOPE  H10Y19384   6.847   4.415   8.074
  171SOPE  C31119385   6.824   4.202   8.139
  171SOPE  H11X19386   6.872   4.224   8.237
  171SOPE  H11Y19387   6.899   4.146   8.079
  171SOPE  C31219388   6.713   4.105   8.201
  171SOPE  H12X19389   6.766   4.028   8.260
  171SOPE  H12Y19390   6.655   4.060   8.118
  171SOPE  C31319391   6.625   4.184   8.297
  171SOPE  H13X19392   6.564   4.267   8.255
  171SOPE  H13Y19393   6.699   4.228   8.367
  171SOPE  C31419394   6.527   4.096   8.377
  171SOPE  H14X19395   6.594   4.022   8.426
  171SOPE  H14Y19396   6.468   4.038   8.302
  171SOPE  C31519397   6.447   4.159   8.491
  171SOPE  H15X19398   6.383   4.237   8.443
  171SOPE  H15Y19399   6.519   4.209   8.560
  171SOPE  C31619400   6.361   4.054   8.551
  171SOPE  H16X19401   6.440   3.998   8.604
  171SOPE  H16Y19402   6.314   3.984   8.478
  171SOPE  C31719403   6.264   4.104   8.659
  171SOPE  H17X19404   6.178   4.160   8.618
  171SOPE  H17Y19405   6.333   4.169   8.717
  171SOPE  C31819406   6.206   3.986   8.747
  171SOPE  H18X19407   6.135   4.033   8.818
  171SOPE  H18Y19408   6.278   3.930   8.811
  171SOPE  H18Z19409   6.145   3.923   8.679
  172SOPE     N19410   0.062   6.097   6.526
  172SOPE   HN119411   0.077   6.200   6.527
  172SOPE   HN219412  -0.038   6.070   6.515
  172SOPE   HN319413   0.109   6.056   6.609
  172SOPE   C1219414   0.132   6.041   6.404
  172SOPE  H12A19415   0.072   6.081   6.320
  172SOPE  H12B19416   0.128   5.930   6.398
  172SOPE   C1119417   0.273   6.095   6.394
  172SOPE  H11A19418   0.266   6.202   6.364
  172SOPE  H11B19419   0.325   6.044   6.311
  172SOPE     P19420   0.491   6.138   6.527
  172SOPE   O1319421   0.508   6.232   6.408
  172SOPE   O1419422   0.590   6.025   6.539
  172SOPE   O1219423   0.345   6.071   6.517
  172SOPE   O1119424   0.496   6.226   6.662
  172SOPE    C119425   0.390   6.306   6.716
  172SOPE    HA19426   0.290   6.259   6.701
  172SOPE    HB19427   0.383   6.403   6.663
  172SOPE    C219428   0.417   6.330   6.870
  172SOPE    HS19429   0.498   6.406   6.867
  172SOPE   O2119430   0.463   6.208   6.939
  172SOPE   C2119431   0.382   6.104   6.946
  172SOPE   O2219432   0.266   6.091   6.905
  172SOPE   C2219433   0.446   5.992   7.017
  172SOPE   H2R19434   0.497   5.937   6.936
  172SOPE   H2S19435   0.366   5.926   7.057
  172SOPE    C319436   0.298   6.396   6.936
  172SOPE    HX19437   0.207   6.333   6.926
  172SOPE    HY19438   0.267   6.491   6.888
  172SOPE   O3119439   0.325   6.423   7.074
  172SOPE   C3119440   0.393   6.534   7.106
  172SOPE   O3219441   0.420   6.626   7.026
  172SOPE   C3219442   0.432   6.535   7.252
  172SOPE   H2X19443   0.539   6.561   7.270
  172SOPE   H2Y19444   0.409   6.432   7.287
  172SOPE   C2319445   0.546   6.017   7.126
  172SOPE   H3R19446   0.605   6.107   7.098
  172SOPE   H3S19447   0.615   5.930   7.128
  172SOPE   C2419448   0.490   6.027   7.261
  172SOPE   H4R19449   0.393   6.081   7.254
  172SOPE   H4S19450   0.457   5.924   7.287
  172SOPE   C2519451   0.570   6.096   7.366
  172SOPE   H5R19452   0.657   6.031   7.387
  172SOPE   H5S19453   0.598   6.196   7.326
  172SOPE   C2619454   0.478   6.113   7.489
  172SOPE   H6R19455   0.380   6.158   7.462
  172SOPE   H6S19456   0.471   6.012   7.536
  172SOPE   C2719457   0.524   6.204   7.608
  172SOPE   H7R19458   0.629   6.233   7.587
  172SOPE   H7S19459   0.455   6.289   7.625
  172SOPE   C2819460   0.524   6.110   7.735
  172SOPE   H8R19461   0.434   6.045   7.737
  172SOPE   H8S19462   0.618   6.051   7.727
  172SOPE   C2919463   0.533   6.199   7.862
  172SOPE   H9119464   0.633   6.238   7.887
  172SOPE  C21019465   0.426   6.257   7.912
  172SOPE  H10119466   0.449   6.307   8.007
  172SOPE  C21119467   0.280   6.233   7.891
  172SOPE  H11R19468   0.269   6.140   7.831
  172SOPE  H11S19469   0.231   6.316   7.836
  172SOPE  C21219470   0.181   6.216   8.021
  172SOPE  H12R19471   0.227   6.134   8.080
  172SOPE  H12S19472   0.086   6.173   7.982
  172SOPE  C21319473   0.168   6.343   8.108
  172SOPE  H13R19474   0.109   6.424   8.061
  172SOPE  H13S19475   0.272   6.376   8.129
  172SOPE  C21419476   0.099   6.328   8.248
  172SOPE  H14R19477   0.108   6.227   8.292
  172SOPE  H14S19478  -0.011   6.335   8.237
  172SOPE  C21519479   0.150   6.418   8.360
  172SOPE  H15R19480   0.134   6.522   8.326
  172SOPE  H15S19481   0.260   6.411   8.374
  172SOPE  C21619482   0.070   6.404   8.498
  172SOPE  H16R19483   0.129   6.468   8.568
  172SOPE  H16S19484   0.063   6.296   8.521
  172SOPE  C21719485  -0.068   6.464   8.496
  172SOPE  H17R19486  -0.135   6.434   8.413
  172SOPE  H17S19487  -0.049   6.574   8.497
  172SOPE  C21819488  -0.153   6.444   8.622
  172SOPE  H18R19489  -0.144   6.344   8.669
  172SOPE  H18S19490  -0.258   6.475   8.601
  172SOPE  H18T19491  -0.119   6.517   8.698
  172SOPE   C3319492   0.339   6.636   7.323
  172SOPE   H3X19493   0.239   6.645   7.276
  172SOPE   H3Y19494   0.388   6.735   7.313
  172SOPE   C3419495   0.325   6.610   7.473
  172SOPE   H4X19496   0.263   6.519   7.487
  172SOPE   H4Y19497   0.261   6.693   7.511
  172SOPE   C3519498   0.457   6.597   7.556
  172SOPE   H5X19499   0.512   6.692   7.537
  172SOPE   H5Y19500   0.510   6.513   7.506
  172SOPE   C3619501   0.451   6.577   7.703
  172SOPE   H6X19502   0.390   6.489   7.733
  172SOPE   H6Y19503   0.395   6.658   7.754
  172SOPE   C3719504   0.582   6.588   7.777
  172SOPE   H7X19505   0.640   6.675   7.741
  172SOPE   H7Y19506   0.638   6.495   7.754
  172SOPE   C3819507   0.567   6.603   7.930
  172SOPE   H8X19508   0.512   6.525   7.987
  172SOPE   H8Y19509   0.510   6.696   7.951
  172SOPE   C3919510   0.699   6.624   8.002
  172SOPE   H9X19511   0.774   6.680   7.942
  172SOPE   H9Y19512   0.739   6.525   8.034
  172SOPE  C31019513   0.693   6.698   8.144
  172SOPE  H10X19514   0.650   6.792   8.104
  172SOPE  H10Y19515   0.794   6.715   8.187
  172SOPE  C31119516   0.599   6.652   8.255
  172SOPE  H11X19517   0.656   6.570   8.304
  172SOPE  H11Y19518   0.511   6.606   8.206
  172SOPE  C31219519   0.564   6.760   8.362
  172SOPE  H12X19520   0.482   6.828   8.329
  172SOPE  H12Y19521   0.657   6.818   8.380
  172SOPE  C31319522   0.499   6.701   8.486
  172SOPE  H13X19523   0.579   6.630   8.517
  172SOPE  H13Y19524   0.410   6.642   8.456
  172SOPE  C31419525   0.464   6.793   8.610
  172SOPE  H14X19526   0.398   6.869   8.564
  172SOPE  H14Y19527   0.554   6.844   8.651
  172SOPE  C31519528   0.388   6.701   8.706
  172SOPE  H15X19529   0.294   6.675   8.654
  172SOPE  H15Y19530   0.346   6.753   8.795
  172SOPE  C31619531   0.445   6.565   8.756
  172SOPE  H16X19532   0.544   6.579   8.805
  172SOPE  H16Y19533   0.463   6.488   8.678
  172SOPE  C31719534   0.370   6.495   8.875
  172SOPE  H17X19535   0.375   6.573   8.953
  172SOPE  H17Y19536   0.436   6.406   8.886
  172SOPE  C31819537   0.231   6.463   8.851
  172SOPE  H18X19538   0.220   6.372   8.788
  172SOPE  H18Y19539   0.178   6.553   8.813
  172SOPE  H18Z19540   0.181   6.448   8.949
  173SAPI   C1219541   2.239   3.356  11.052
  173SAPI    H219542   2.302   3.277  11.007
  173SAPI    O219543   2.222   3.319  11.194
  173SAPI   HO219544   2.171   3.238  11.191
  173SAPI   C1319545   2.316   3.485  11.047
  173SAPI    H319546   2.326   3.523  10.943
  173SAPI    O319547   2.449   3.472  11.095
  173SAPI   HO319548   2.447   3.470  11.191
  173SAPI   C1419549   2.250   3.592  11.123
  173SAPI    H419550   2.236   3.555  11.227
  173SAPI    O419551   2.326   3.716  11.103
  173SAPI   HO419552   2.373   3.709  11.020
  173SAPI   C1519553   2.105   3.605  11.068
  173SAPI    H519554   2.112   3.649  10.966
  173SAPI    O519555   2.036   3.697  11.153
  173SAPI   HO519556   1.953   3.723  11.113
  173SAPI   C1619557   2.027   3.473  11.043
  173SAPI    H619558   2.000   3.428  11.140
  173SAPI    O619559   1.909   3.496  10.975
  173SAPI   HO619560   1.899   3.437  10.900
  173SAPI   C1119561   2.118   3.372  10.970
  173SAPI    H119562   2.143   3.422  10.874
  173SAPI     P19563   2.018   3.187  10.810
  173SAPI   O1319564   1.927   3.075  10.829
  173SAPI   O1419565   2.136   3.174  10.721
  173SAPI   O1219566   2.052   3.246  10.964
  173SAPI   O1119567   1.924   3.301  10.765
  173SAPI    C119568   1.805   3.268  10.696
  173SAPI    HA19569   1.794   3.160  10.670
  173SAPI    HB19570   1.720   3.289  10.765
  173SAPI    C219571   1.807   3.331  10.553
  173SAPI    HS19572   1.904   3.311  10.502
  173SAPI   O2119573   1.782   3.475  10.564
  173SAPI   C2119574   1.890   3.559  10.572
  173SAPI   O2219575   2.007   3.512  10.568
  173SAPI   C2219576   1.849   3.702  10.579
  173SAPI   H2R19577   1.777   3.700  10.664
  173SAPI   H2S19578   1.931   3.765  10.619
  173SAPI    C319579   1.691   3.276  10.475
  173SAPI    HX19580   1.611   3.336  10.523
  173SAPI    HY19581   1.673   3.167  10.487
  173SAPI   O3119582   1.687   3.318  10.336
  173SAPI   C3119583   1.760   3.239  10.261
  173SAPI   O3219584   1.824   3.147  10.301
  173SAPI   C3219585   1.742   3.289  10.111
  173SAPI   H2X19586   1.701   3.393  10.113
  173SAPI   H2Y19587   1.666   3.233  10.053
  173SAPI   C2319588   1.780   3.757  10.454
  173SAPI   H3R19589   1.714   3.842  10.482
  173SAPI   H3S19590   1.723   3.674  10.407
  173SAPI   C2419591   1.866   3.816  10.343
  173SAPI   H4R19592   1.942   3.881  10.390
  173SAPI   H4S19593   1.805   3.877  10.274
  173SAPI   C2519594   1.935   3.700  10.275
  173SAPI   H5R19595   1.997   3.628  10.330
  173SAPI   C2619596   1.936   3.669  10.141
  173SAPI   H6R19597   1.972   3.568  10.117
  173SAPI   C2719598   1.871   3.752  10.026
  173SAPI   H7R19599   1.862   3.862  10.041
  173SAPI   H7S19600   1.763   3.727  10.016
  173SAPI   C2819601   1.948   3.720   9.898
  173SAPI   H8R19602   2.003   3.625   9.888
  173SAPI   C2919603   1.960   3.801   9.792
  173SAPI   H9R19604   2.017   3.764   9.706
  173SAPI  C21019605   1.902   3.937   9.776
  173SAPI  H10R19606   1.832   3.951   9.861
  173SAPI  H10S19607   1.837   3.938   9.685
  173SAPI  C21119608   2.014   4.038   9.778
  173SAPI  H11R19609   2.087   4.026   9.860
  173SAPI  C21219610   2.043   4.117   9.678
  173SAPI  H12R19611   2.108   4.201   9.704
  173SAPI  C21319612   1.958   4.127   9.555
  173SAPI  H13R19613   1.872   4.189   9.586
  173SAPI  H13S19614   1.926   4.030   9.511
  173SAPI  C21419615   2.027   4.207   9.444
  173SAPI  H14R19616   2.134   4.188   9.427
  173SAPI  C21519617   1.970   4.292   9.356
  173SAPI  H15R19618   2.033   4.329   9.274
  173SAPI  C21619619   1.822   4.320   9.352
  173SAPI  H16R19620   1.798   4.421   9.390
  173SAPI  H16S19621   1.760   4.256   9.419
  173SAPI  C21719622   1.762   4.332   9.211
  173SAPI  H17R19623   1.651   4.330   9.202
  173SAPI  H17S19624   1.794   4.241   9.158
  173SAPI  C21819625   1.804   4.455   9.137
  173SAPI  H18R19626   1.909   4.489   9.146
  173SAPI  H18S19627   1.739   4.536   9.176
  173SAPI  C21919628   1.785   4.445   8.983
  173SAPI  H19R19629   1.856   4.369   8.943
  173SAPI  H19S19630   1.807   4.545   8.939
  173SAPI  C22019631   1.654   4.402   8.922
  173SAPI  H20R19632   1.644   4.438   8.817
  173SAPI  H20S19633   1.569   4.445   8.979
  173SAPI  H20T19634   1.650   4.291   8.916
  173SAPI   C3319635   1.870   3.291  10.030
  173SAPI   H3X19636   1.917   3.190  10.025
  173SAPI   H3Y19637   1.948   3.345  10.088
  173SAPI   C3419638   1.850   3.336   9.881
  173SAPI   H4X19639   1.796   3.432   9.889
  173SAPI   H4Y19640   1.790   3.258   9.829
  173SAPI   C3519641   1.982   3.342   9.808
  173SAPI   H5X19642   2.018   3.237   9.811
  173SAPI   H5Y19643   2.059   3.404   9.859
  173SAPI   C3619644   1.982   3.384   9.656
  173SAPI   H6X19645   2.087   3.372   9.624
  173SAPI   H6Y19646   1.965   3.494   9.645
  173SAPI   C3719647   1.881   3.304   9.567
  173SAPI   H7X19648   1.781   3.297   9.614
  173SAPI   H7Y19649   1.920   3.200   9.564
  173SAPI   C3819650   1.861   3.365   9.429
  173SAPI   H8X19651   1.910   3.464   9.423
  173SAPI   H8Y19652   1.754   3.378   9.402
  173SAPI   C3919653   1.934   3.271   9.328
  173SAPI   H9X19654   1.883   3.173   9.314
  173SAPI   H9Y19655   2.039   3.256   9.364
  173SAPI  C31019656   1.957   3.329   9.185
  173SAPI  H10X19657   2.010   3.258   9.119
  173SAPI  H10Y19658   2.022   3.418   9.200
  173SAPI  C31119659   1.825   3.372   9.122
  173SAPI  H11X19660   1.787   3.457   9.183
  173SAPI  H11Y19661   1.756   3.285   9.121
  173SAPI  C31219662   1.849   3.425   8.980
  173SAPI  H12X19663   1.749   3.435   8.933
  173SAPI  H12Y19664   1.911   3.352   8.923
  173SAPI  C31319665   1.907   3.567   8.974
  173SAPI  H13X19666   2.002   3.574   9.031
  173SAPI  H13Y19667   1.825   3.632   9.013
  173SAPI  C31419668   1.932   3.608   8.825
  173SAPI  H14X19669   1.832   3.616   8.778
  173SAPI  H14Y19670   1.992   3.532   8.770
  173SAPI  C31519671   2.015   3.739   8.813
  173SAPI  H15X19672   2.048   3.748   8.707
  173SAPI  H15Y19673   2.106   3.716   8.873
  173SAPI  C31619674   1.943   3.863   8.867
  173SAPI  H16X19675   1.912   3.824   8.967
  173SAPI  H16Y19676   1.848   3.869   8.809
  173SAPI  C31719677   2.019   3.992   8.863
  173SAPI  H17X19678   2.056   4.016   8.762
  173SAPI  H17Y19679   2.101   3.983   8.938
  173SAPI  C31819680   1.936   4.108   8.918
  173SAPI  H18X19681   1.999   4.194   8.949
  173SAPI  H18Y19682   1.885   4.067   9.008
  173SAPI  H18Z19683   1.862   4.146   8.845
  174SAPI   C1219684   5.484   4.352  11.215
  174SAPI    H219685   5.467   4.253  11.262
  174SAPI    O219686   5.356   4.420  11.211
  174SAPI   HO219687   5.294   4.362  11.167
  174SAPI   C1319688   5.588   4.435  11.291
  174SAPI    H319689   5.684   4.380  11.302
  174SAPI    O319690   5.553   4.449  11.428
  174SAPI   HO319691   5.630   4.442  11.484
  174SAPI   C1419692   5.619   4.568  11.228
  174SAPI    H419693   5.530   4.631  11.249
  174SAPI    O419694   5.734   4.644  11.284
  174SAPI   HO419695   5.702   4.735  11.279
  174SAPI   C1519696   5.623   4.571  11.076
  174SAPI    H519697   5.732   4.555  11.057
  174SAPI    O519698   5.579   4.690  11.019
  174SAPI   HO519699   5.658   4.729  10.982
  174SAPI   C1619700   5.561   4.452  10.994
  174SAPI    H619701   5.463   4.490  10.958
  174SAPI    O619702   5.645   4.430  10.879
  174SAPI   HO619703   5.586   4.384  10.819
  174SAPI   C1119704   5.542   4.327  11.071
  174SAPI    H119705   5.641   4.281  11.092
  174SAPI     P19706   5.511   4.116  10.906
  174SAPI   O1319707   5.411   3.999  10.902
  174SAPI   O1419708   5.653   4.082  10.936
  174SAPI   O1219709   5.461   4.234  11.007
  174SAPI   O1119710   5.504   4.198  10.768
  174SAPI    C119711   5.384   4.243  10.715
  174SAPI    HA19712   5.304   4.241  10.793
  174SAPI    HB19713   5.393   4.347  10.675
  174SAPI    C219714   5.328   4.155  10.601
  174SAPI    HS19715   5.355   4.055  10.641
  174SAPI   O2119716   5.411   4.183  10.485
  174SAPI   C2119717   5.420   4.096  10.391
  174SAPI   O2219718   5.401   3.979  10.401
  174SAPI   C2219719   5.469   4.173  10.259
  174SAPI   H2R19720   5.441   4.281  10.265
  174SAPI   H2S19721   5.579   4.169  10.251
  174SAPI    C319722   5.183   4.171  10.583
  174SAPI    HX19723   5.137   4.131  10.676
  174SAPI    HY19724   5.149   4.117  10.493
  174SAPI   O3119725   5.160   4.309  10.567
  174SAPI   C3119726   5.157   4.354  10.438
  174SAPI   O3219727   5.181   4.285  10.342
  174SAPI   C3219728   5.116   4.504  10.434
  174SAPI   H2X19729   5.188   4.576  10.479
  174SAPI   H2Y19730   5.020   4.512  10.490
  174SAPI   C2319731   5.402   4.116  10.130
  174SAPI   H3R19732   5.294   4.099  10.151
  174SAPI   H3S19733   5.454   4.024  10.096
  174SAPI   C2419734   5.420   4.218  10.024
  174SAPI   H4R19735   5.382   4.314  10.064
  174SAPI   H4S19736   5.352   4.205   9.937
  174SAPI   C2519737   5.560   4.238   9.978
  174SAPI   H5R19738   5.631   4.270  10.055
  174SAPI   C2619739   5.614   4.222   9.854
  174SAPI   H6R19740   5.718   4.253   9.832
  174SAPI   C2719741   5.529   4.195   9.727
  174SAPI   H7R19742   5.468   4.104   9.745
  174SAPI   H7S19743   5.596   4.166   9.644
  174SAPI   C2819744   5.437   4.307   9.678
  174SAPI   H8R19745   5.335   4.305   9.719
  174SAPI   C2919746   5.460   4.403   9.585
  174SAPI   H9R19747   5.386   4.479   9.556
  174SAPI  C21019748   5.584   4.444   9.520
  174SAPI  H10R19749   5.652   4.358   9.538
  174SAPI  H10S19750   5.625   4.535   9.569
  174SAPI  C21119751   5.574   4.482   9.375
  174SAPI  H11R19752   5.605   4.586   9.353
  174SAPI  C21219753   5.565   4.398   9.275
  174SAPI  H12R19754   5.567   4.436   9.172
  174SAPI  C21319755   5.546   4.246   9.290
  174SAPI  H13R19756   5.534   4.206   9.393
  174SAPI  H13S19757   5.644   4.197   9.271
  174SAPI  C21419758   5.441   4.196   9.195
  174SAPI  H14R19759   5.339   4.207   9.234
  174SAPI  C21519760   5.460   4.147   9.072
  174SAPI  H15R19761   5.373   4.135   9.007
  174SAPI  C21619762   5.584   4.120   8.999
  174SAPI  H16R19763   5.589   4.010   8.995
  174SAPI  H16S19764   5.677   4.159   9.047
  174SAPI  C21719765   5.608   4.190   8.862
  174SAPI  H17R19766   5.690   4.138   8.809
  174SAPI  H17S19767   5.638   4.297   8.873
  174SAPI  C21819768   5.485   4.171   8.772
  174SAPI  H18R19769   5.403   4.220   8.829
  174SAPI  H18S19770   5.444   4.068   8.764
  174SAPI  C21919771   5.494   4.233   8.638
  174SAPI  H19R19772   5.562   4.319   8.655
  174SAPI  H19S19773   5.387   4.254   8.615
  174SAPI  C22019774   5.556   4.139   8.528
  174SAPI  H20R19775   5.568   4.189   8.430
  174SAPI  H20S19776   5.501   4.043   8.523
  174SAPI  H20T19777   5.659   4.108   8.557
  174SAPI   C3319778   5.107   4.557  10.289
  174SAPI   H3X19779   5.206   4.540  10.241
  174SAPI   H3Y19780   5.082   4.662  10.316
  174SAPI   C3419781   4.999   4.492  10.210
  174SAPI   H4X19782   4.906   4.480  10.269
  174SAPI   H4Y19783   5.022   4.386  10.184
  174SAPI   C3519784   4.981   4.566  10.081
  174SAPI   H5X19785   4.917   4.652  10.111
  174SAPI   H5Y19786   4.913   4.510  10.014
  174SAPI   C3619787   5.104   4.598   9.993
  174SAPI   H6X19788   5.159   4.503   9.980
  174SAPI   H6Y19789   5.178   4.667  10.037
  174SAPI   C3719790   5.086   4.669   9.853
  174SAPI   H7X19791   5.068   4.777   9.873
  174SAPI   H7Y19792   4.999   4.621   9.803
  174SAPI   C3819793   5.207   4.655   9.760
  174SAPI   H8X19794   5.217   4.547   9.735
  174SAPI   H8Y19795   5.299   4.692   9.811
  174SAPI   C3919796   5.187   4.727   9.623
  174SAPI   H9X19797   5.127   4.818   9.642
  174SAPI   H9Y19798   5.132   4.660   9.553
  174SAPI  C31019799   5.323   4.769   9.570
  174SAPI  H10X19800   5.379   4.677   9.539
  174SAPI  H10Y19801   5.376   4.836   9.640
  174SAPI  C31119802   5.315   4.832   9.430
  174SAPI  H11X19803   5.417   4.866   9.402
  174SAPI  H11Y19804   5.265   4.931   9.433
  174SAPI  C31219805   5.251   4.748   9.327
  174SAPI  H12X19806   5.151   4.710   9.357
  174SAPI  H12Y19807   5.308   4.657   9.301
  174SAPI  C31319808   5.217   4.826   9.197
  174SAPI  H13X19809   5.179   4.926   9.227
  174SAPI  H13Y19810   5.135   4.775   9.142
  174SAPI  C31419811   5.338   4.839   9.105
  174SAPI  H14X19812   5.434   4.848   9.160
  174SAPI  H14Y19813   5.341   4.933   9.045
  174SAPI  C31519814   5.345   4.716   9.004
  174SAPI  H15X19815   5.267   4.710   8.926
  174SAPI  H15Y19816   5.325   4.629   9.072
  174SAPI  C31619817   5.484   4.706   8.929
  174SAPI  H16X19818   5.561   4.742   9.001
  174SAPI  H16Y19819   5.469   4.774   8.843
  174SAPI  C31719820   5.520   4.568   8.872
  174SAPI  H17X19821   5.431   4.519   8.828
  174SAPI  H17Y19822   5.549   4.501   8.956
  174SAPI  C31819823   5.630   4.579   8.767
  174SAPI  H18X19824   5.608   4.669   8.706
  174SAPI  H18Y19825   5.643   4.489   8.703
  174SAPI  H18Z19826   5.728   4.597   8.817
  175SAPI   C1219827   0.975   2.917   6.092
  175SAPI    H219828   0.884   2.972   6.123
  175SAPI    O219829   0.972   2.780   6.138
  175SAPI   HO219830   0.896   2.777   6.197
  175SAPI   C1319831   0.982   2.920   5.941
  175SAPI    H319832   0.996   3.027   5.915
  175SAPI    O319833   0.855   2.884   5.893
  175SAPI   HO319834   0.842   2.789   5.889
  175SAPI   C1419835   1.094   2.835   5.889
  175SAPI    H419836   1.081   2.728   5.915
  175SAPI    O419837   1.101   2.848   5.743
  175SAPI   HO419838   1.112   2.942   5.725
  175SAPI   C1519839   1.231   2.879   5.961
  175SAPI    H519840   1.245   2.981   5.918
  175SAPI    O519841   1.331   2.792   5.911
  175SAPI   HO519842   1.379   2.819   5.833
  175SAPI   C1619843   1.230   2.909   6.109
  175SAPI    H619844   1.240   2.811   6.160
  175SAPI    O619845   1.353   2.981   6.145
  175SAPI   HO619846   1.394   2.938   6.220
  175SAPI   C1119847   1.102   2.983   6.153
  175SAPI    H119848   1.108   3.087   6.112
  175SAPI     P19849   1.009   3.099   6.377
  175SAPI   O1319850   0.960   3.035   6.503
  175SAPI   O1419851   0.909   3.172   6.292
  175SAPI   O1219852   1.094   2.983   6.292
  175SAPI   O1119853   1.127   3.198   6.415
  175SAPI    C119854   1.240   3.163   6.500
  175SAPI    HA19855   1.259   3.053   6.496
  175SAPI    HB19856   1.331   3.213   6.463
  175SAPI    C219857   1.238   3.229   6.646
  175SAPI    HS19858   1.232   3.148   6.721
  175SAPI   O2119859   1.133   3.331   6.660
  175SAPI   C2119860   1.016   3.290   6.704
  175SAPI   O2219861   0.989   3.175   6.733
  175SAPI   C2219862   0.933   3.418   6.737
  175SAPI   H2R19863   0.906   3.461   6.638
  175SAPI   H2S19864   0.841   3.381   6.788
  175SAPI    C319865   1.381   3.292   6.684
  175SAPI    HX19866   1.394   3.371   6.607
  175SAPI    HY19867   1.462   3.219   6.662
  175SAPI   O3119868   1.394   3.357   6.813
  175SAPI   C3119869   1.394   3.276   6.920
  175SAPI   O3219870   1.370   3.159   6.917
  175SAPI   C3219871   1.430   3.353   7.048
  175SAPI   H2X19872   1.340   3.410   7.081
  175SAPI   H2Y19873   1.519   3.417   7.029
  175SAPI   C2319874   0.999   3.529   6.819
  175SAPI   H3R19875   0.926   3.612   6.822
  175SAPI   H3S19876   1.085   3.575   6.767
  175SAPI   C2419877   1.041   3.482   6.955
  175SAPI   H4R19878   1.118   3.402   6.946
  175SAPI   H4S19879   0.958   3.419   6.993
  175SAPI   C2519880   1.079   3.593   7.048
  175SAPI   H5R19881   1.126   3.678   6.998
  175SAPI   C2619882   1.049   3.595   7.178
  175SAPI   H6R19883   1.092   3.684   7.227
  175SAPI   C2719884   0.978   3.495   7.257
  175SAPI   H7R19885   0.959   3.407   7.191
  175SAPI   H7S19886   0.879   3.535   7.288
  175SAPI   C2819887   1.055   3.435   7.370
  175SAPI   H8R19888   1.158   3.402   7.351
  175SAPI   C2919889   1.004   3.412   7.494
  175SAPI   H9R19890   1.075   3.371   7.567
  175SAPI  C21019891   0.870   3.450   7.543
  175SAPI  H10R19892   0.790   3.443   7.467
  175SAPI  H10S19893   0.868   3.561   7.546
  175SAPI  C21119894   0.817   3.393   7.675
  175SAPI  H11R19895   0.826   3.460   7.761
  175SAPI  C21219896   0.770   3.272   7.691
  175SAPI  H12R19897   0.719   3.253   7.786
  175SAPI  C21319898   0.728   3.178   7.581
  175SAPI  H13R19899   0.816   3.149   7.520
  175SAPI  H13S19900   0.675   3.230   7.498
  175SAPI  C21419901   0.653   3.056   7.622
  175SAPI  H14R19902   0.720   2.969   7.635
  175SAPI  C21519903   0.516   3.038   7.644
  175SAPI  H15R19904   0.475   2.940   7.672
  175SAPI  C21619905   0.423   3.147   7.641
  175SAPI  H16R19906   0.350   3.126   7.560
  175SAPI  H16S19907   0.462   3.246   7.610
  175SAPI  C21719908   0.343   3.167   7.772
  175SAPI  H17R19909   0.300   3.066   7.790
  175SAPI  H17S19910   0.261   3.239   7.750
  175SAPI  C21819911   0.421   3.219   7.891
  175SAPI  H18R19912   0.467   3.319   7.877
  175SAPI  H18S19913   0.512   3.158   7.911
  175SAPI  C21919914   0.339   3.208   8.022
  175SAPI  H19R19915   0.408   3.246   8.100
  175SAPI  H19S19916   0.329   3.103   8.056
  175SAPI  C22019917   0.210   3.286   8.032
  175SAPI  H20R19918   0.136   3.253   7.956
  175SAPI  H20S19919   0.234   3.394   8.032
  175SAPI  H20T19920   0.149   3.268   8.123
  175SAPI   C3319921   1.464   3.271   7.182
  175SAPI   H3X19922   1.568   3.235   7.169
  175SAPI   H3Y19923   1.388   3.192   7.199
  175SAPI   C3419924   1.465   3.359   7.305
  175SAPI   H4X19925   1.367   3.409   7.313
  175SAPI   H4Y19926   1.538   3.442   7.291
  175SAPI   C3519927   1.499   3.283   7.426
  175SAPI   H5X19928   1.594   3.226   7.413
  175SAPI   H5Y19929   1.413   3.216   7.448
  175SAPI   C3619930   1.518   3.370   7.549
  175SAPI   H6X19931   1.441   3.451   7.554
  175SAPI   H6Y19932   1.616   3.421   7.558
  175SAPI   C3719933   1.484   3.289   7.682
  175SAPI   H7X19934   1.499   3.361   7.765
  175SAPI   H7Y19935   1.549   3.200   7.698
  175SAPI   C3819936   1.335   3.247   7.691
  175SAPI   H8X19937   1.319   3.168   7.614
  175SAPI   H8Y19938   1.280   3.335   7.653
  175SAPI   C3919939   1.290   3.228   7.830
  175SAPI   H9X19940   1.342   3.301   7.897
  175SAPI   H9Y19941   1.326   3.127   7.856
  175SAPI  C31019942   1.140   3.243   7.841
  175SAPI  H10X19943   1.094   3.198   7.750
  175SAPI  H10Y19944   1.121   3.352   7.830
  175SAPI  C31119945   1.079   3.188   7.963
  175SAPI  H11X19946   0.969   3.180   7.953
  175SAPI  H11Y19947   1.110   3.246   8.053
  175SAPI  C31219948   1.125   3.042   8.008
  175SAPI  H12X19949   1.234   3.041   8.028
  175SAPI  H12Y19950   1.105   2.972   7.924
  175SAPI  C31319951   1.045   2.984   8.122
  175SAPI  H13X19952   0.935   2.994   8.107
  175SAPI  H13Y19953   1.071   3.053   8.205
  175SAPI  C31419954   1.082   2.834   8.154
  175SAPI  H14X19955   1.042   2.799   8.252
  175SAPI  H14Y19956   1.193   2.833   8.159
  175SAPI  C31519957   1.027   2.723   8.064
  175SAPI  H15X19958   0.989   2.764   7.968
  175SAPI  H15Y19959   0.945   2.663   8.110
  175SAPI  C31619960   1.143   2.632   8.024
  175SAPI  H16X19961   1.203   2.609   8.115
  175SAPI  H16Y19962   1.207   2.694   7.959
  175SAPI  C31719963   1.110   2.496   7.952
  175SAPI  H17X19964   1.041   2.498   7.865
  175SAPI  H17Y19965   1.061   2.440   8.034
  175SAPI  C31819966   1.228   2.409   7.910
  175SAPI  H18X19967   1.295   2.410   7.999
  175SAPI  H18Y19968   1.272   2.462   7.823
  175SAPI  H18Z19969   1.196   2.305   7.892
  176SAPI   C1219970   0.583   1.555   6.578
  176SAPI    H219971   0.633   1.591   6.671
  176SAPI    O219972   0.552   1.415   6.594
  176SAPI   HO219973   0.632   1.371   6.626
  176SAPI   C1319974   0.446   1.627   6.556
  176SAPI    H319975   0.467   1.732   6.526
  176SAPI    O319976   0.380   1.641   6.683
  176SAPI   HO319977   0.362   1.554   6.720
  176SAPI   C1419978   0.363   1.557   6.452
  176SAPI    H419979   0.338   1.452   6.477
  176SAPI    O419980   0.244   1.623   6.429
  176SAPI   HO419981   0.179   1.553   6.442
  176SAPI   C1519982   0.445   1.562   6.317
  176SAPI    H519983   0.422   1.661   6.271
  176SAPI    O519984   0.399   1.474   6.222
  176SAPI   HO519985   0.308   1.452   6.244
  176SAPI   C1619986   0.606   1.564   6.327
  176SAPI    H619987   0.621   1.459   6.294
  176SAPI    O619988   0.673   1.640   6.227
  176SAPI   HO619989   0.659   1.733   6.247
  176SAPI   C1119990   0.680   1.576   6.456
  176SAPI    H119991   0.698   1.684   6.468
  176SAPI     P19992   0.896   1.473   6.599
  176SAPI   O1319993   0.932   1.599   6.665
  176SAPI   O1419994   1.008   1.404   6.540
  176SAPI   O1219995   0.796   1.501   6.471
  176SAPI   O1119996   0.815   1.383   6.694
  176SAPI    C119997   0.865   1.295   6.795
  176SAPI    HA19998   0.781   1.223   6.795
  176SAPI    HB19999   0.959   1.250   6.755
  176SAPI    C220000   0.877   1.365   6.940
  176SAPI    HS20001   0.889   1.282   7.012
  176SAPI   O2120002   0.766   1.453   6.968
  176SAPI   C2120003   0.647   1.396   6.972
  176SAPI   O2220004   0.630   1.277   6.972
  176SAPI   C2220005   0.542   1.500   7.002
  176SAPI   H2R20006   0.551   1.564   6.911
  176SAPI   H2S20007   0.445   1.447   7.014
  176SAPI    C320008   1.006   1.447   6.953
  176SAPI    HX20009   0.993   1.535   6.887
  176SAPI    HY20010   1.094   1.399   6.905
  176SAPI   O3120011   1.018   1.497   7.089
  176SAPI   C3120012   0.975   1.621   7.112
  176SAPI   O3220013   0.939   1.705   7.029
  176SAPI   C3220014   0.970   1.649   7.255
  176SAPI   H2X20015   1.074   1.642   7.293
  176SAPI   H2Y20016   0.897   1.578   7.298
  176SAPI   C2320017   0.576   1.564   7.134
  176SAPI   H3R20018   0.683   1.594   7.131
  176SAPI   H3S20019   0.580   1.491   7.218
  176SAPI   C2420020   0.504   1.700   7.164
  176SAPI   H4R20021   0.566   1.778   7.114
  176SAPI   H4S20022   0.518   1.708   7.274
  176SAPI   C2520023   0.366   1.704   7.105
  176SAPI   H5R20024   0.367   1.680   6.997
  176SAPI   C2620025   0.257   1.724   7.179
  176SAPI   H6R20026   0.156   1.712   7.136
  176SAPI   C2720027   0.256   1.766   7.328
  176SAPI   H7R20028   0.197   1.859   7.341
  176SAPI   H7S20029   0.359   1.804   7.347
  176SAPI   C2820030   0.235   1.651   7.421
  176SAPI   H8R20031   0.228   1.549   7.380
  176SAPI   C2920032   0.186   1.670   7.546
  176SAPI   H9R20033   0.166   1.579   7.606
  176SAPI  C21020034   0.183   1.795   7.634
  176SAPI  H10R20035   0.211   1.891   7.584
  176SAPI  H10S20036   0.259   1.777   7.714
  176SAPI  C21120037   0.043   1.823   7.687
  176SAPI  H11R20038  -0.029   1.866   7.616
  176SAPI  C21220039   0.013   1.816   7.817
  176SAPI  H12R20040  -0.085   1.857   7.846
  176SAPI  C21320041   0.093   1.773   7.938
  176SAPI  H13R20042   0.195   1.743   7.908
  176SAPI  H13S20043   0.047   1.685   7.990
  176SAPI  C21420044   0.096   1.895   8.029
  176SAPI  H14R20045   0.025   1.978   8.014
  176SAPI  C21520046   0.182   1.908   8.129
  176SAPI  H15R20047   0.190   2.003   8.184
  176SAPI  C21620048   0.284   1.818   8.176
  176SAPI  H16R20049   0.373   1.883   8.189
  176SAPI  H16S20050   0.297   1.735   8.103
  176SAPI  C21720051   0.241   1.766   8.317
  176SAPI  H17R20052   0.161   1.694   8.291
  176SAPI  H17S20053   0.198   1.840   8.388
  176SAPI  C21820054   0.351   1.687   8.386
  176SAPI  H18R20055   0.424   1.657   8.309
  176SAPI  H18S20056   0.314   1.590   8.426
  176SAPI  C21920057   0.419   1.771   8.496
  176SAPI  H19R20058   0.496   1.718   8.556
  176SAPI  H19S20059   0.345   1.791   8.577
  176SAPI  C22020060   0.489   1.896   8.450
  176SAPI  H20R20061   0.421   1.959   8.389
  176SAPI  H20S20062   0.573   1.880   8.380
  176SAPI  H20T20063   0.531   1.956   8.533
  176SAPI   C3320064   0.916   1.794   7.293
  176SAPI   H3X20065   0.826   1.817   7.233
  176SAPI   H3Y20066   0.979   1.880   7.262
  176SAPI   C3420067   0.886   1.806   7.446
  176SAPI   H4X20068   0.860   1.913   7.462
  176SAPI   H4Y20069   0.978   1.781   7.501
  176SAPI   C3520070   0.768   1.730   7.495
  176SAPI   H5X20071   0.777   1.622   7.470
  176SAPI   H5Y20072   0.677   1.768   7.446
  176SAPI   C3620073   0.738   1.745   7.645
  176SAPI   H6X20074   0.704   1.848   7.668
  176SAPI   H6Y20075   0.835   1.727   7.696
  176SAPI   C3720076   0.615   1.667   7.700
  176SAPI   H7X20077   0.625   1.559   7.676
  176SAPI   H7Y20078   0.534   1.704   7.634
  176SAPI   C3820079   0.588   1.682   7.856
  176SAPI   H8X20080   0.479   1.662   7.863
  176SAPI   H8Y20081   0.604   1.789   7.881
  176SAPI   C3920082   0.681   1.603   7.947
  176SAPI   H9X20083   0.788   1.609   7.917
  176SAPI   H9Y20084   0.651   1.498   7.926
  176SAPI  C31020085   0.662   1.637   8.096
  176SAPI  H10X20086   0.559   1.617   8.132
  176SAPI  H10Y20087   0.684   1.746   8.093
  176SAPI  C31120088   0.768   1.567   8.184
  176SAPI  H11X20089   0.872   1.602   8.165
  176SAPI  H11Y20090   0.760   1.459   8.159
  176SAPI  C31220091   0.744   1.565   8.336
  176SAPI  H12X20092   0.640   1.531   8.353
  176SAPI  H12Y20093   0.774   1.664   8.375
  176SAPI  C31320094   0.840   1.472   8.420
  176SAPI  H13X20095   0.943   1.512   8.403
  176SAPI  H13Y20096   0.818   1.370   8.382
  176SAPI  C31420097   0.801   1.475   8.558
  176SAPI  H14X20098   0.693   1.461   8.577
  176SAPI  H14Y20099   0.837   1.572   8.599
  176SAPI  C31520100   0.863   1.370   8.651
  176SAPI  H15X20101   0.969   1.390   8.675
  176SAPI  H15Y20102   0.867   1.271   8.599
  176SAPI  C31620103   0.778   1.380   8.781
  176SAPI  H16X20104   0.687   1.317   8.786
  176SAPI  H16Y20105   0.740   1.484   8.772
  176SAPI  C31720106   0.868   1.357   8.906
  176SAPI  H17X20107   0.818   1.395   8.998
  176SAPI  H17Y20108   0.961   1.419   8.905
  176SAPI  C31820109   0.907   1.213   8.929
  176SAPI  H18X20110   0.821   1.153   8.962
  176SAPI  H18Y20111   0.974   1.211   9.018
  176SAPI  H18Z20112   0.959   1.172   8.840
  177SLPC     N20113   6.804   5.189  11.086
  177SLPC   C1320114   6.802   5.325  11.043
  177SLPC  H13A20115   6.743   5.390  11.107
  177SLPC  H13B20116   6.903   5.361  11.054
  177SLPC  H13C20117   6.764   5.341  10.943
  177SLPC   C1420118   6.814   5.185  11.238
  177SLPC  H14A20119   6.833   5.092  11.291
  177SLPC  H14B20120   6.887   5.258  11.270
  177SLPC  H14C20121   6.716   5.209  11.277
  177SLPC   C1520122   6.918   5.116  11.022
  177SLPC  H15A20123   6.915   5.009  11.037
  177SLPC  H15B20124   6.915   5.127  10.915
  177SLPC  H15C20125   7.016   5.145  11.055
  177SLPC   C1220126   6.680   5.112  11.051
  177SLPC  H12A20127   6.668   5.122  10.944
  177SLPC  H12B20128   6.597   5.168  11.091
  177SLPC   C1120129   6.658   4.969  11.093
  177SLPC  H11A20130   6.552   4.939  11.078
  177SLPC  H11B20131   6.672   4.952  11.202
  177SLPC     P20132   6.699   4.800  10.901
  177SLPC   O1320133   6.815   4.726  10.840
  177SLPC   O1420134   6.582   4.721  10.951
  177SLPC   O1220135   6.751   4.886  11.017
  177SLPC   O1120136   6.647   4.909  10.801
  177SLPC    C120137   6.746   4.994  10.743
  177SLPC    HA20138   6.707   5.098  10.739
  177SLPC    HB20139   6.838   5.011  10.805
  177SLPC    C220140   6.782   4.954  10.594
  177SLPC    HS20141   6.860   4.875  10.594
  177SLPC   O2120142   6.824   5.075  10.526
  177SLPC   C2120143   6.946   5.123  10.561
  177SLPC   O2220144   7.015   5.077  10.643
  177SLPC   C2220145   6.980   5.231  10.465
  177SLPC   H2R20146   6.933   5.328  10.491
  177SLPC   H2S20147   7.091   5.243  10.469
  177SLPC    C320148   6.659   4.900  10.519
  177SLPC    HX20149   6.576   4.970  10.543
  177SLPC    HY20150   6.627   4.798  10.549
  177SLPC   O3120151   6.697   4.892  10.385
  177SLPC   C3120152   6.623   4.958  10.290
  177SLPC   O3220153   6.537   5.037  10.325
  177SLPC   C3220154   6.679   4.917  10.154
  177SLPC   H2X20155   6.690   4.807  10.157
  177SLPC   H2Y20156   6.779   4.964  10.150
  177SLPC   C2320157   6.945   5.208  10.317
  177SLPC   H3R20158   6.839   5.182  10.298
  177SLPC   H3S20159   6.998   5.114  10.289
  177SLPC   C2420160   6.992   5.328  10.230
  177SLPC   H4R20161   7.093   5.357  10.264
  177SLPC   H4S20162   6.939   5.424  10.250
  177SLPC   C2520163   7.005   5.296  10.081
  177SLPC   H5R20164   6.913   5.246  10.042
  177SLPC   H5S20165   7.085   5.219  10.077
  177SLPC   C2620166   7.060   5.403   9.992
  177SLPC   H6R20167   7.138   5.460  10.047
  177SLPC   H6S20168   6.979   5.472   9.961
  177SLPC   C2720169   7.110   5.359   9.854
  177SLPC   H7R20170   7.048   5.278   9.811
  177SLPC   H7S20171   7.214   5.319   9.859
  177SLPC   C2820172   7.115   5.473   9.746
  177SLPC   H8R20173   7.022   5.533   9.749
  177SLPC   H8S20174   7.123   5.424   9.646
  177SLPC   C2920175   7.231   5.555   9.781
  177SLPC   H9R20176   7.239   5.579   9.888
  177SLPC  C21020177   7.322   5.605   9.699
  177SLPC  H10R20178   7.405   5.656   9.750
  177SLPC  C21120179   7.330   5.576   9.544
  177SLPC  H11R20180   7.244   5.519   9.503
  177SLPC  H11S20181   7.320   5.673   9.490
  177SLPC  C21220182   7.450   5.499   9.497
  177SLPC  H12R20183   7.484   5.420   9.566
  177SLPC  C21320184   7.520   5.529   9.384
  177SLPC  H13R20185   7.603   5.460   9.362
  177SLPC  C21420186   7.504   5.640   9.282
  177SLPC  H14R20187   7.586   5.712   9.304
  177SLPC  H14S20188   7.414   5.700   9.303
  177SLPC  C21520189   7.497   5.595   9.135
  177SLPC  H15R20190   7.444   5.497   9.130
  177SLPC  H15S20191   7.602   5.590   9.098
  177SLPC  C21620192   7.442   5.696   9.044
  177SLPC  H16R20193   7.479   5.799   9.063
  177SLPC  H16S20194   7.335   5.713   9.070
  177SLPC  C21720195   7.451   5.658   8.894
  177SLPC  H17R20196   7.388   5.574   8.860
  177SLPC  H17S20197   7.560   5.643   8.875
  177SLPC  C21820198   7.405   5.769   8.805
  177SLPC  H18R20199   7.463   5.863   8.817
  177SLPC  H18S20200   7.298   5.794   8.822
  177SLPC  H18T20201   7.418   5.741   8.699
  177SLPC   C3320202   6.603   4.976  10.035
  177SLPC   H3X20203   6.574   5.083  10.049
  177SLPC   H3Y20204   6.506   4.927  10.011
  177SLPC   C3420205   6.679   4.976   9.903
  177SLPC   H4X20206   6.774   5.031   9.920
  177SLPC   H4Y20207   6.616   5.025   9.825
  177SLPC   C3520208   6.718   4.837   9.852
  177SLPC   H5X20209   6.624   4.779   9.842
  177SLPC   H5Y20210   6.773   4.782   9.931
  177SLPC   C3620211   6.810   4.857   9.728
  177SLPC   H6X20212   6.867   4.764   9.710
  177SLPC   H6Y20213   6.892   4.927   9.755
  177SLPC   C3720214   6.724   4.894   9.602
  177SLPC   H7X20215   6.661   4.980   9.633
  177SLPC   H7Y20216   6.648   4.820   9.570
  177SLPC   C3820217   6.813   4.938   9.480
  177SLPC   H8X20218   6.883   4.858   9.450
  177SLPC   H8Y20219   6.864   5.030   9.516
  177SLPC   C3920220   6.724   4.961   9.353
  177SLPC   H9X20221   6.635   5.026   9.371
  177SLPC   H9Y20222   6.693   4.863   9.310
  177SLPC  C31020223   6.801   5.027   9.234
  177SLPC  H10X20224   6.868   4.952   9.186
  177SLPC  H10Y20225   6.881   5.097   9.267
  177SLPC  C31120226   6.704   5.102   9.144
  177SLPC  H11X20227   6.651   5.176   9.208
  177SLPC  H11Y20228   6.630   5.026   9.110
  177SLPC  C31220229   6.763   5.177   9.024
  177SLPC  H12X20230   6.816   5.108   8.954
  177SLPC  H12Y20231   6.832   5.258   9.055
  177SLPC  C31320232   6.642   5.234   8.941
  177SLPC  H13X20233   6.566   5.284   9.005
  177SLPC  H13Y20234   6.588   5.154   8.885
  177SLPC  C31420235   6.682   5.334   8.828
  177SLPC  H14X20236   6.749   5.278   8.760
  177SLPC  H14Y20237   6.740   5.417   8.872
  177SLPC  C31520238   6.552   5.387   8.757
  177SLPC  H15X20239   6.493   5.448   8.828
  177SLPC  H15Y20240   6.483   5.308   8.721
  177SLPC  C31620241   6.589   5.470   8.633
  177SLPC  H16X20242   6.624   5.393   8.562
  177SLPC  H16Y20243   6.673   5.540   8.652
  177SLPC  C31720244   6.467   5.543   8.581
  177SLPC  H17X20245   6.391   5.480   8.531
  177SLPC  H17Y20246   6.511   5.597   8.495
  177SLPC  C31820247   6.407   5.638   8.680
  177SLPC  H18X20248   6.477   5.716   8.717
  177SLPC  H18Y20249   6.352   5.587   8.761
  177SLPC  H18Z20250   6.325   5.691   8.627
  178SLPC     N20251   2.808   0.506  11.031
  178SLPC   C1320252   2.778   0.364  11.071
  178SLPC  H13A20253   2.797   0.288  10.997
  178SLPC  H13B20254   2.833   0.340  11.160
  178SLPC  H13C20255   2.674   0.346  11.097
  178SLPC   C1420256   2.955   0.528  11.022
  178SLPC  H14A20257   3.009   0.493  11.109
  178SLPC  H14B20258   2.994   0.465  10.943
  178SLPC  H14C20259   2.977   0.630  10.994
  178SLPC   C1520260   2.752   0.592  11.143
  178SLPC  H15A20261   2.805   0.683  11.168
  178SLPC  H15B20262   2.648   0.615  11.127
  178SLPC  H15C20263   2.756   0.541  11.239
  178SLPC   C1220264   2.736   0.550  10.901
  178SLPC  H12A20265   2.775   0.498  10.815
  178SLPC  H12B20266   2.751   0.655  10.883
  178SLPC   C1120267   2.591   0.530  10.899
  178SLPC  H11A20268   2.568   0.428  10.937
  178SLPC  H11B20269   2.551   0.507  10.798
  178SLPC     P20270   2.514   0.779  10.928
  178SLPC   O1320271   2.488   0.851  11.050
  178SLPC   O1420272   2.637   0.817  10.853
  178SLPC   O1220273   2.513   0.624  10.966
  178SLPC   O1120274   2.392   0.804  10.832
  178SLPC    C120275   2.263   0.749  10.860
  178SLPC    HA20276   2.255   0.702  10.960
  178SLPC    HB20277   2.182   0.825  10.869
  178SLPC    C220278   2.212   0.651  10.753
  178SLPC    HS20279   2.297   0.584  10.726
  178SLPC   O2120280   2.158   0.728  10.644
  178SLPC   C2120281   2.184   0.689  10.517
  178SLPC   O2220282   2.228   0.586  10.486
  178SLPC   C2220283   2.161   0.807  10.421
  178SLPC   H2R20284   2.059   0.844  10.440
  178SLPC   H2S20285   2.229   0.883  10.464
  178SLPC    C320286   2.101   0.558  10.815
  178SLPC    HX20287   2.016   0.604  10.869
  178SLPC    HY20288   2.147   0.505  10.902
  178SLPC   O3120289   2.047   0.459  10.729
  178SLPC   C3120290   1.970   0.476  10.628
  178SLPC   O3220291   1.915   0.582  10.597
  178SLPC   C3220292   1.973   0.345  10.550
  178SLPC   H2X20293   1.909   0.282  10.616
  178SLPC   H2Y20294   2.075   0.306  10.531
  178SLPC   C2320295   2.183   0.776  10.272
  178SLPC   H3R20296   2.105   0.711  10.226
  178SLPC   H3S20297   2.281   0.724  10.264
  178SLPC   C2420298   2.185   0.903  10.181
  178SLPC   H4R20299   2.288   0.944  10.195
  178SLPC   H4S20300   2.106   0.969  10.222
  178SLPC   C2520301   2.138   0.877  10.034
  178SLPC   H5R20302   2.135   0.969   9.971
  178SLPC   H5S20303   2.036   0.834  10.035
  178SLPC   C2620304   2.236   0.790   9.951
  178SLPC   H6R20305   2.243   0.692  10.003
  178SLPC   H6S20306   2.339   0.831   9.937
  178SLPC   C2720307   2.190   0.768   9.807
  178SLPC   H7R20308   2.165   0.864   9.756
  178SLPC   H7S20309   2.093   0.714   9.803
  178SLPC   C2820310   2.285   0.681   9.716
  178SLPC   H8R20311   2.308   0.591   9.777
  178SLPC   H8S20312   2.380   0.738   9.707
  178SLPC   C2920313   2.223   0.632   9.584
  178SLPC   H9R20314   2.202   0.525   9.573
  178SLPC  C21020315   2.181   0.713   9.488
  178SLPC  H10R20316   2.133   0.660   9.405
  178SLPC  C21120317   2.202   0.865   9.460
  178SLPC  H11R20318   2.304   0.877   9.416
  178SLPC  H11S20319   2.206   0.919   9.557
  178SLPC  C21220320   2.093   0.922   9.378
  178SLPC  H12R20321   1.992   0.940   9.420
  178SLPC  C21320322   2.105   0.944   9.245
  178SLPC  H13R20323   2.013   0.987   9.202
  178SLPC  C21420324   2.219   0.899   9.154
  178SLPC  H14R20325   2.176   0.830   9.079
  178SLPC  H14S20326   2.298   0.851   9.216
  178SLPC  C21520327   2.277   1.020   9.079
  178SLPC  H15R20328   2.353   0.970   9.015
  178SLPC  H15S20329   2.337   1.078   9.152
  178SLPC  C21620330   2.185   1.117   9.003
  178SLPC  H16R20331   2.124   1.169   9.080
  178SLPC  H16S20332   2.110   1.056   8.947
  178SLPC  C21720333   2.279   1.207   8.926
  178SLPC  H17R20334   2.349   1.160   8.853
  178SLPC  H17S20335   2.352   1.251   8.998
  178SLPC  C21820336   2.203   1.328   8.869
  178SLPC  H18R20337   2.097   1.303   8.846
  178SLPC  H18S20338   2.252   1.379   8.784
  178SLPC  H18T20339   2.207   1.399   8.955
  178SLPC   C3320340   1.896   0.358  10.420
  178SLPC   H3X20341   1.794   0.400  10.420
  178SLPC   H3Y20342   1.886   0.254  10.383
  178SLPC   C3420343   1.979   0.436  10.318
  178SLPC   H4X20344   2.078   0.386  10.311
  178SLPC   H4Y20345   2.001   0.540  10.351
  178SLPC   C3520346   1.921   0.419  10.180
  178SLPC   H5X20347   1.894   0.312  10.167
  178SLPC   H5Y20348   1.994   0.433  10.098
  178SLPC   C3620349   1.804   0.516  10.161
  178SLPC   H6X20350   1.839   0.620  10.178
  178SLPC   H6Y20351   1.727   0.498  10.240
  178SLPC   C3720352   1.746   0.520  10.019
  178SLPC   H7X20353   1.706   0.624  10.014
  178SLPC   H7Y20354   1.668   0.444   9.994
  178SLPC   C3820355   1.837   0.513   9.895
  178SLPC   H8X20356   1.898   0.419   9.893
  178SLPC   H8Y20357   1.913   0.594   9.893
  178SLPC   C3920358   1.759   0.528   9.772
  178SLPC   H9X20359   1.693   0.617   9.772
  178SLPC   H9Y20360   1.685   0.448   9.749
  178SLPC  C31020361   1.848   0.545   9.643
  178SLPC  H10X20362   1.936   0.477   9.649
  178SLPC  H10Y20363   1.896   0.645   9.645
  178SLPC  C31120364   1.777   0.537   9.504
  178SLPC  H11X20365   1.692   0.609   9.495
  178SLPC  H11Y20366   1.730   0.437   9.494
  178SLPC  C31220367   1.876   0.567   9.394
  178SLPC  H12X20368   1.977   0.523   9.411
  178SLPC  H12Y20369   1.902   0.675   9.387
  178SLPC  C31320370   1.849   0.512   9.255
  178SLPC  H13X20371   1.848   0.402   9.265
  178SLPC  H13Y20372   1.928   0.525   9.178
  178SLPC  C31420373   1.707   0.562   9.207
  178SLPC  H14X20374   1.695   0.672   9.213
  178SLPC  H14Y20375   1.638   0.502   9.269
  178SLPC  C31520376   1.696   0.531   9.053
  178SLPC  H15X20377   1.755   0.444   9.019
  178SLPC  H15Y20378   1.592   0.509   9.021
  178SLPC  C31620379   1.748   0.652   8.964
  178SLPC  H16X20380   1.784   0.613   8.867
  178SLPC  H16Y20381   1.837   0.694   9.017
  178SLPC  C31720382   1.639   0.762   8.936
  178SLPC  H17X20383   1.610   0.809   9.033
  178SLPC  H17Y20384   1.549   0.712   8.894
  178SLPC  C31820385   1.680   0.873   8.838
  178SLPC  H18X20386   1.597   0.926   8.786
  178SLPC  H18Y20387   1.750   0.836   8.760
  178SLPC  H18Z20388   1.739   0.952   8.890
  179SLPC     N20389   3.036   4.232  10.384
  179SLPC   C1320390   2.970   4.312  10.489
  179SLPC  H13A20391   2.876   4.273  10.525
  179SLPC  H13B20392   3.039   4.316  10.573
  179SLPC  H13C20393   2.951   4.415  10.465
  179SLPC   C1420394   3.175   4.301  10.366
  179SLPC  H14A20395   3.226   4.246  10.288
  179SLPC  H14B20396   3.161   4.399  10.323
  179SLPC  H14C20397   3.226   4.299  10.461
  179SLPC   C1520398   2.959   4.238  10.269
  179SLPC  H15A20399   2.939   4.338  10.234
  179SLPC  H15B20400   3.004   4.183  10.187
  179SLPC  H15C20401   2.869   4.185  10.296
  179SLPC   C1220402   3.049   4.086  10.434
  179SLPC  H12A20403   2.948   4.052  10.447
  179SLPC  H12B20404   3.103   4.105  10.526
  179SLPC   C1120405   3.134   3.983  10.350
  179SLPC  H11A20406   3.109   3.999  10.242
  179SLPC  H11B20407   3.105   3.881  10.384
  179SLPC     P20408   3.385   3.909  10.312
  179SLPC   O1320409   3.515   3.960  10.359
  179SLPC   O1420410   3.351   3.768  10.333
  179SLPC   O1220411   3.271   4.001  10.373
  179SLPC   O1120412   3.367   3.943  10.155
  179SLPC    C120413   3.406   4.075  10.114
  179SLPC    HA20414   3.369   4.150  10.187
  179SLPC    HB20415   3.515   4.096  10.102
  179SLPC    C220416   3.329   4.109   9.980
  179SLPC    HS20417   3.230   4.064  10.002
  179SLPC   O2120418   3.399   4.058   9.860
  179SLPC   C2120419   3.304   4.000   9.779
  179SLPC   O2220420   3.181   3.995   9.799
  179SLPC   C2220421   3.378   3.931   9.663
  179SLPC   H2R20422   3.480   3.975   9.659
  179SLPC   H2S20423   3.381   3.822   9.684
  179SLPC    C320424   3.308   4.264   9.968
  179SLPC    HX20425   3.403   4.312   9.936
  179SLPC    HY20426   3.270   4.306  10.064
  179SLPC   O3120427   3.208   4.286   9.861
  179SLPC   C3120428   3.080   4.268   9.885
  179SLPC   O3220429   3.043   4.218   9.991
  179SLPC   C3220430   2.997   4.307   9.756
  179SLPC   H2X20431   3.027   4.412   9.734
  179SLPC   H2Y20432   2.892   4.316   9.792
  179SLPC   C2320433   3.299   3.949   9.531
  179SLPC   H3R20434   3.286   4.058   9.511
  179SLPC   H3S20435   3.191   3.925   9.541
  179SLPC   C2420436   3.372   3.885   9.408
  179SLPC   H4R20437   3.362   3.777   9.432
  179SLPC   H4S20438   3.481   3.908   9.411
  179SLPC   C2520439   3.311   3.912   9.271
  179SLPC   H5R20440   3.280   4.018   9.266
  179SLPC   H5S20441   3.209   3.868   9.278
  179SLPC   C2620442   3.386   3.871   9.143
  179SLPC   H6R20443   3.422   3.767   9.160
  179SLPC   H6S20444   3.479   3.923   9.114
  179SLPC   C2720445   3.284   3.884   9.029
  179SLPC   H7R20446   3.184   3.870   9.075
  179SLPC   H7S20447   3.319   3.808   8.955
  179SLPC   C2820448   3.301   4.025   8.975
  179SLPC   H8R20449   3.411   4.045   8.978
  179SLPC   H8S20450   3.256   4.103   9.040
  179SLPC   C2920451   3.247   4.052   8.841
  179SLPC   H9R20452   3.139   4.070   8.839
  179SLPC  C21020453   3.318   4.098   8.735
  179SLPC  H10R20454   3.260   4.121   8.644
  179SLPC  C21120455   3.466   4.087   8.719
  179SLPC  H11R20456   3.490   4.046   8.619
  179SLPC  H11S20457   3.503   4.009   8.789
  179SLPC  C21220458   3.537   4.217   8.740
  179SLPC  H12R20459   3.504   4.274   8.827
  179SLPC  C21320460   3.630   4.285   8.670
  179SLPC  H13R20461   3.649   4.388   8.702
  179SLPC  C21420462   3.688   4.249   8.535
  179SLPC  H14R20463   3.660   4.331   8.465
  179SLPC  H14S20464   3.641   4.156   8.498
  179SLPC  C21520465   3.842   4.241   8.540
  179SLPC  H15R20466   3.888   4.322   8.600
  179SLPC  H15S20467   3.877   4.272   8.439
  179SLPC  C21620468   3.898   4.109   8.587
  179SLPC  H16R20469   3.891   4.036   8.504
  179SLPC  H16S20470   3.830   4.083   8.671
  179SLPC  C21720471   4.033   4.124   8.652
  179SLPC  H17R20472   4.048   4.023   8.695
  179SLPC  H17S20473   4.037   4.201   8.732
  179SLPC  C21820474   4.149   4.169   8.552
  179SLPC  H18R20475   4.143   4.274   8.515
  179SLPC  H18S20476   4.143   4.105   8.461
  179SLPC  H18T20477   4.245   4.170   8.608
  179SLPC   C3320478   3.016   4.215   9.635
  179SLPC   H3X20479   2.985   4.115   9.671
  179SLPC   H3Y20480   3.126   4.213   9.621
  179SLPC   C3420481   2.939   4.247   9.515
  179SLPC   H4X20482   2.950   4.356   9.498
  179SLPC   H4Y20483   2.834   4.211   9.523
  179SLPC   C3520484   2.990   4.174   9.388
  179SLPC   H5X20485   2.998   4.068   9.421
  179SLPC   H5Y20486   3.092   4.211   9.364
  179SLPC   C3620487   2.901   4.188   9.272
  179SLPC   H6X20488   2.908   4.294   9.239
  179SLPC   H6Y20489   2.796   4.173   9.305
  179SLPC   C3720490   2.940   4.104   9.157
  179SLPC   H7X20491   2.945   3.994   9.173
  179SLPC   H7Y20492   3.049   4.120   9.138
  179SLPC   C3820493   2.872   4.141   9.032
  179SLPC   H8X20494   2.910   4.086   8.943
  179SLPC   H8Y20495   2.867   4.251   9.013
  179SLPC   C3920496   2.720   4.108   9.039
  179SLPC   H9X20497   2.655   4.158   9.114
  179SLPC   H9Y20498   2.719   3.998   9.058
  179SLPC  C31020499   2.653   4.142   8.906
  179SLPC  H10X20500   2.733   4.135   8.830
  179SLPC  H10Y20501   2.613   4.244   8.918
  179SLPC  C31120502   2.545   4.049   8.861
  179SLPC  H11X20503   2.505   4.087   8.765
  179SLPC  H11Y20504   2.458   4.057   8.931
  179SLPC  C31220505   2.581   3.907   8.832
  179SLPC  H12X20506   2.598   3.859   8.931
  179SLPC  H12Y20507   2.674   3.913   8.772
  179SLPC  C31320508   2.485   3.816   8.753
  179SLPC  H13X20509   2.466   3.861   8.654
  179SLPC  H13Y20510   2.385   3.810   8.802
  179SLPC  C31420511   2.541   3.674   8.726
  179SLPC  H14X20512   2.550   3.629   8.827
  179SLPC  H14Y20513   2.637   3.698   8.677
  179SLPC  C31520514   2.463   3.588   8.623
  179SLPC  H15X20515   2.519   3.496   8.597
  179SLPC  H15Y20516   2.457   3.648   8.530
  179SLPC  C31620517   2.328   3.540   8.675
  179SLPC  H16X20518   2.254   3.623   8.673
  179SLPC  H16Y20519   2.342   3.503   8.779
  179SLPC  C31720520   2.282   3.417   8.594
  179SLPC  H17X20521   2.354   3.332   8.598
  179SLPC  H17Y20522   2.291   3.453   8.489
  179SLPC  C31820523   2.135   3.368   8.624
  179SLPC  H18X20524   2.124   3.332   8.729
  179SLPC  H18Y20525   2.133   3.279   8.558
  179SLPC  H18Z20526   2.065   3.447   8.589
  180SLPC     N20527   4.448   2.076  10.695
  180SLPC   C1320528   4.428   2.192  10.786
  180SLPC  H13A20529   4.326   2.226  10.793
  180SLPC  H13B20530   4.466   2.160  10.882
  180SLPC  H13C20531   4.492   2.276  10.762
  180SLPC   C1420532   4.416   2.106  10.555
  180SLPC  H14A20533   4.478   2.186  10.517
  180SLPC  H14B20534   4.419   2.015  10.496
  180SLPC  H14C20535   4.316   2.145  10.544
  180SLPC   C1520536   4.349   1.979  10.746
  180SLPC  H15A20537   4.250   2.020  10.735
  180SLPC  H15B20538   4.358   1.890  10.686
  180SLPC  H15C20539   4.367   1.955  10.850
  180SLPC   C1220540   4.593   2.029  10.711
  180SLPC  H12A20541   4.659   2.109  10.681
  180SLPC  H12B20542   4.606   1.948  10.641
  180SLPC   C1120543   4.644   1.966  10.843
  180SLPC  H11A20544   4.613   2.044  10.917
  180SLPC  H11B20545   4.755   1.965  10.836
  180SLPC     P20546   4.616   1.715  10.801
  180SLPC   O1320547   4.663   1.609  10.890
  180SLPC   O1420548   4.491   1.689  10.729
  180SLPC   O1220549   4.581   1.848  10.879
  180SLPC   O1120550   4.731   1.755  10.698
  180SLPC    C120551   4.789   1.654  10.621
  180SLPC    HA20552   4.859   1.597  10.686
  180SLPC    HB20553   4.712   1.581  10.586
  180SLPC    C220554   4.871   1.715  10.505
  180SLPC    HS20555   4.913   1.810  10.545
  180SLPC   O2120556   4.786   1.732  10.390
  180SLPC   C2120557   4.755   1.862  10.365
  180SLPC   O2220558   4.804   1.956  10.422
  180SLPC   C2220559   4.693   1.870  10.229
  180SLPC   H2R20560   4.676   1.974  10.196
  180SLPC   H2S20561   4.764   1.822  10.159
  180SLPC    C320562   4.987   1.614  10.473
  180SLPC    HX20563   5.057   1.611  10.560
  180SLPC    HY20564   5.052   1.657  10.394
  180SLPC   O3120565   4.941   1.481  10.437
  180SLPC   C3120566   4.919   1.469  10.308
  180SLPC   O3220567   4.951   1.546  10.220
  180SLPC   C3220568   4.853   1.333  10.285
  180SLPC   H2X20569   4.796   1.350  10.191
  180SLPC   H2Y20570   4.788   1.301  10.369
  180SLPC   C2320571   4.557   1.795  10.225
  180SLPC   H3R20572   4.474   1.866  10.245
  180SLPC   H3S20573   4.546   1.713  10.299
  180SLPC   C2420574   4.536   1.733  10.082
  180SLPC   H4R20575   4.620   1.661  10.075
  180SLPC   H4S20576   4.526   1.812  10.004
  180SLPC   C2520577   4.402   1.665  10.060
  180SLPC   H5R20578   4.399   1.622   9.957
  180SLPC   H5S20579   4.317   1.736  10.065
  180SLPC   C2620580   4.388   1.553  10.167
  180SLPC   H6R20581   4.365   1.608  10.261
  180SLPC   H6S20582   4.484   1.501  10.183
  180SLPC   C2720583   4.274   1.454  10.148
  180SLPC   H7R20584   4.186   1.514  10.118
  180SLPC   H7S20585   4.251   1.423  10.252
  180SLPC   C2820586   4.302   1.354  10.041
  180SLPC   H8R20587   4.320   1.401   9.943
  180SLPC   H8S20588   4.210   1.291  10.038
  180SLPC   C2920589   4.420   1.274  10.088
  180SLPC   H9R20590   4.417   1.237  10.191
  180SLPC  C21020591   4.519   1.224  10.014
  180SLPC  H10R20592   4.610   1.186  10.064
  180SLPC  C21120593   4.545   1.242   9.866
  180SLPC  H11R20594   4.453   1.248   9.804
  180SLPC  H11S20595   4.593   1.145   9.838
  180SLPC  C21220596   4.627   1.362   9.833
  180SLPC  H12R20597   4.666   1.431   9.909
  180SLPC  C21320598   4.672   1.389   9.709
  180SLPC  H13R20599   4.760   1.454   9.700
  180SLPC  C21420600   4.653   1.315   9.582
  180SLPC  H14R20601   4.547   1.309   9.551
  180SLPC  H14S20602   4.676   1.206   9.590
  180SLPC  C21520603   4.730   1.381   9.465
  180SLPC  H15R20604   4.839   1.383   9.487
  180SLPC  H15S20605   4.690   1.484   9.455
  180SLPC  C21620606   4.708   1.286   9.344
  180SLPC  H16R20607   4.602   1.264   9.318
  180SLPC  H16S20608   4.765   1.192   9.360
  180SLPC  C21720609   4.767   1.343   9.221
  180SLPC  H17R20610   4.873   1.366   9.248
  180SLPC  H17S20611   4.711   1.436   9.201
  180SLPC  C21820612   4.766   1.258   9.096
  180SLPC  H18R20613   4.808   1.155   9.102
  180SLPC  H18S20614   4.822   1.314   9.018
  180SLPC  H18T20615   4.662   1.243   9.061
  180SLPC   C3320616   4.959   1.218  10.268
  180SLPC   H3X20617   4.909   1.119  10.255
  180SLPC   H3Y20618   5.013   1.215  10.366
  180SLPC   C3420619   5.052   1.219  10.147
  180SLPC   H4X20620   5.129   1.139  10.152
  180SLPC   H4Y20621   5.100   1.319  10.138
  180SLPC   C3520622   4.980   1.201  10.010
  180SLPC   H5X20623   4.925   1.295   9.991
  180SLPC   H5Y20624   4.889   1.138  10.012
  180SLPC   C3620625   5.077   1.178   9.892
  180SLPC   H6X20626   5.121   1.078   9.913
  180SLPC   H6Y20627   5.157   1.255   9.884
  180SLPC   C3720628   5.017   1.170   9.750
  180SLPC   H7X20629   4.988   1.271   9.713
  180SLPC   H7Y20630   4.928   1.107   9.768
  180SLPC   C3820631   5.104   1.120   9.633
  180SLPC   H8X20632   5.135   1.019   9.668
  180SLPC   H8Y20633   5.199   1.178   9.638
  180SLPC   C3920634   5.034   1.128   9.502
  180SLPC   H9X20635   5.032   1.233   9.467
  180SLPC   H9Y20636   4.927   1.101   9.513
  180SLPC  C31020637   5.102   1.028   9.404
  180SLPC  H10X20638   5.068   0.930   9.443
  180SLPC  H10Y20639   5.213   1.031   9.418
  180SLPC  C31120640   5.056   1.058   9.260
  180SLPC  H11X20641   5.083   1.164   9.245
  180SLPC  H11Y20642   4.945   1.061   9.257
  180SLPC  C31220643   5.099   0.964   9.152
  180SLPC  H12X20644   5.072   0.858   9.171
  180SLPC  H12Y20645   5.206   0.990   9.136
  180SLPC  C31320646   5.053   0.992   8.998
  180SLPC  H13X20647   5.093   1.091   8.968
  180SLPC  H13Y20648   4.944   0.978   8.985
  180SLPC  C31420649   5.126   0.891   8.902
  180SLPC  H14X20650   5.093   0.791   8.937
  180SLPC  H14Y20651   5.233   0.914   8.922
  180SLPC  C31520652   5.091   0.918   8.751
  180SLPC  H15X20653   5.099   1.029   8.741
  180SLPC  H15Y20654   4.987   0.879   8.747
  180SLPC  C31620655   5.170   0.830   8.653
  180SLPC  H16X20656   5.145   0.726   8.680
  180SLPC  H16Y20657   5.277   0.860   8.653
  180SLPC  C31720658   5.117   0.852   8.513
  180SLPC  H17X20659   5.009   0.826   8.511
  180SLPC  H17Y20660   5.158   0.781   8.438
  180SLPC  C31820661   5.127   0.988   8.445
  180SLPC  H18X20662   5.230   1.031   8.447
  180SLPC  H18Y20663   5.061   1.069   8.482
  180SLPC  H18Z20664   5.112   0.986   8.335
  181SLPC     N20665   0.579   5.289  11.398
  181SLPC   C1320666   0.435   5.340  11.416
  181SLPC  H13A20667   0.407   5.428  11.361
  181SLPC  H13B20668   0.370   5.264  11.374
  181SLPC  H13C20669   0.426   5.362  11.522
  181SLPC   C1420670   0.592   5.180  11.497
  181SLPC  H14A20671   0.603   5.229  11.593
  181SLPC  H14B20672   0.508   5.113  11.492
  181SLPC  H14C20673   0.686   5.129  11.487
  181SLPC   C1520674   0.678   5.397  11.432
  181SLPC  H15A20675   0.681   5.462  11.345
  181SLPC  H15B20676   0.640   5.454  11.515
  181SLPC  H15C20677   0.774   5.351  11.445
  181SLPC   C1220678   0.613   5.232  11.262
  181SLPC  H12A20679   0.531   5.165  11.242
  181SLPC  H12B20680   0.697   5.164  11.260
  181SLPC   C1120681   0.622   5.334  11.145
  181SLPC  H11A20682   0.630   5.275  11.051
  181SLPC  H11B20683   0.723   5.381  11.155
  181SLPC     P20684   0.403   5.403  11.034
  181SLPC   O1320685   0.391   5.255  11.024
  181SLPC   O1420686   0.283   5.482  11.050
  181SLPC   O1220687   0.516   5.432  11.142
  181SLPC   O1120688   0.472   5.450  10.901
  181SLPC    C120689   0.570   5.548  10.885
  181SLPC    HA20690   0.620   5.569  10.982
  181SLPC    HB20691   0.652   5.514  10.819
  181SLPC    C220692   0.498   5.677  10.821
  181SLPC    HS20693   0.408   5.684  10.885
  181SLPC   O2120694   0.465   5.645  10.684
  181SLPC   C2120695   0.373   5.722  10.622
  181SLPC   O2220696   0.317   5.815  10.683
  181SLPC   C2220697   0.364   5.692  10.480
  181SLPC   H2R20698   0.451   5.636  10.438
  181SLPC   H2S20699   0.286   5.614  10.471
  181SLPC    C320700   0.581   5.803  10.839
  181SLPC    HX20701   0.629   5.797  10.939
  181SLPC    HY20702   0.506   5.884  10.834
  181SLPC   O3120703   0.680   5.814  10.726
  181SLPC   C3120704   0.803   5.776  10.752
  181SLPC   O3220705   0.854   5.760  10.860
  181SLPC   C3220706   0.874   5.764  10.612
  181SLPC   H2X20707   0.983   5.785  10.617
  181SLPC   H2Y20708   0.826   5.837  10.542
  181SLPC   C2320709   0.339   5.818  10.395
  181SLPC   H3R20710   0.432   5.878  10.406
  181SLPC   H3S20711   0.252   5.873  10.439
  181SLPC   C2420712   0.310   5.787  10.244
  181SLPC   H4R20713   0.219   5.724  10.240
  181SLPC   H4S20714   0.399   5.731  10.209
  181SLPC   C2520715   0.320   5.911  10.159
  181SLPC   H5R20716   0.418   5.961  10.175
  181SLPC   H5S20717   0.246   5.990  10.185
  181SLPC   C2620718   0.284   5.888  10.005
  181SLPC   H6R20719   0.348   5.810   9.959
  181SLPC   H6S20720   0.300   5.987   9.956
  181SLPC   C2720721   0.137   5.852   9.977
  181SLPC   H7R20722   0.073   5.938  10.008
  181SLPC   H7S20723   0.108   5.759  10.029
  181SLPC   C2820724   0.120   5.834   9.817
  181SLPC   H8R20725   0.018   5.789   9.815
  181SLPC   H8S20726   0.203   5.768   9.782
  181SLPC   C2920727   0.115   5.963   9.748
  181SLPC   H9R20728   0.102   6.053   9.809
  181SLPC  C21020729   0.121   5.972   9.616
  181SLPC  H10R20730   0.122   6.070   9.567
  181SLPC  C21120731   0.134   5.858   9.515
  181SLPC  H11R20732   0.054   5.876   9.440
  181SLPC  H11S20733   0.113   5.759   9.561
  181SLPC  C21220734   0.272   5.853   9.463
  181SLPC  H12R20735   0.345   5.843   9.545
  181SLPC  C21320736   0.312   5.857   9.334
  181SLPC  H13R20737   0.415   5.852   9.298
  181SLPC  C21420738   0.217   5.866   9.215
  181SLPC  H14R20739   0.109   5.882   9.234
  181SLPC  H14S20740   0.218   5.764   9.169
  181SLPC  C21520741   0.279   5.968   9.111
  181SLPC  H15R20742   0.386   5.950   9.090
  181SLPC  H15S20743   0.280   6.068   9.158
  181SLPC  C21620744   0.197   5.958   8.978
  181SLPC  H16R20745   0.087   5.961   8.995
  181SLPC  H16S20746   0.217   5.859   8.930
  181SLPC  C21720747   0.233   6.064   8.873
  181SLPC  H17R20748   0.342   6.053   8.860
  181SLPC  H17S20749   0.216   6.165   8.914
  181SLPC  C21820750   0.178   6.042   8.730
  181SLPC  H18R20751   0.067   6.033   8.718
  181SLPC  H18S20752   0.246   5.963   8.693
  181SLPC  H18T20753   0.211   6.125   8.664
  181SLPC   C3320754   0.847   5.621  10.548
  181SLPC   H3X20755   0.743   5.580  10.546
  181SLPC   H3Y20756   0.902   5.547  10.610
  181SLPC   C3420757   0.901   5.609  10.410
  181SLPC   H4X20758   0.901   5.501  10.380
  181SLPC   H4Y20759   1.005   5.646  10.410
  181SLPC   C3520760   0.818   5.683  10.293
  181SLPC   H5X20761   0.820   5.791  10.317
  181SLPC   H5Y20762   0.716   5.642  10.307
  181SLPC   C3620763   0.870   5.651  10.156
  181SLPC   H6X20764   0.866   5.541  10.149
  181SLPC   H6Y20765   0.976   5.679  10.139
  181SLPC   C3720766   0.789   5.700  10.033
  181SLPC   H7X20767   0.685   5.671  10.059
  181SLPC   H7Y20768   0.827   5.654   9.940
  181SLPC   C3820769   0.792   5.852  10.010
  181SLPC   H8X20770   0.890   5.870   9.961
  181SLPC   H8Y20771   0.781   5.899  10.110
  181SLPC   C3920772   0.670   5.895   9.921
  181SLPC   H9X20773   0.640   5.999   9.944
  181SLPC   H9Y20774   0.584   5.827   9.937
  181SLPC  C31020775   0.724   5.912   9.773
  181SLPC  H10X20776   0.749   5.808   9.741
  181SLPC  H10Y20777   0.819   5.970   9.770
  181SLPC  C31120778   0.633   5.963   9.672
  181SLPC  H11X20779   0.597   6.067   9.686
  181SLPC  H11Y20780   0.539   5.903   9.672
  181SLPC  C31220781   0.690   5.941   9.528
  181SLPC  H12X20782   0.611   5.948   9.450
  181SLPC  H12Y20783   0.731   5.838   9.534
  181SLPC  C31320784   0.807   6.042   9.495
  181SLPC  H13X20785   0.883   6.039   9.576
  181SLPC  H13Y20786   0.770   6.147   9.496
  181SLPC  C31420787   0.870   6.018   9.364
  181SLPC  H14X20788   0.805   6.046   9.278
  181SLPC  H14Y20789   0.909   5.915   9.351
  181SLPC  C31520790   0.990   6.114   9.354
  181SLPC  H15X20791   1.060   6.078   9.432
  181SLPC  H15Y20792   0.955   6.211   9.394
  181SLPC  C31620793   1.052   6.143   9.211
  181SLPC  H16X20794   1.137   6.215   9.218
  181SLPC  H16Y20795   0.971   6.192   9.153
  181SLPC  C31720796   1.105   6.016   9.145
  181SLPC  H17X20797   1.015   5.951   9.132
  181SLPC  H17Y20798   1.165   5.978   9.230
  181SLPC  C31820799   1.179   6.036   9.013
  181SLPC  H18X20800   1.281   6.070   9.037
  181SLPC  H18Y20801   1.127   6.105   8.943
  181SLPC  H18Z20802   1.191   5.937   8.963
  182SLPC     N20803   5.929   6.072  10.887
  182SLPC   C1320804   5.969   5.958  10.799
  182SLPC  H13A20805   5.994   5.988  10.699
  182SLPC  H13B20806   6.055   5.909  10.842
  182SLPC  H13C20807   5.896   5.880  10.788
  182SLPC   C1420808   5.866   6.011  11.016
  182SLPC  H14A20809   5.822   6.087  11.079
  182SLPC  H14B20810   5.787   5.941  10.992
  182SLPC  H14C20811   5.941   5.960  11.075
  182SLPC   C1520812   5.826   6.156  10.818
  182SLPC  H15A20813   5.785   6.238  10.875
  182SLPC  H15B20814   5.872   6.187  10.726
  182SLPC  H15C20815   5.739   6.100  10.786
  182SLPC   C1220816   6.050   6.155  10.931
  182SLPC  H12A20817   6.110   6.092  10.994
  182SLPC  H12B20818   6.010   6.236  10.991
  182SLPC   C1120819   6.125   6.216  10.810
  182SLPC  H11A20820   6.149   6.134  10.740
  182SLPC  H11B20821   6.220   6.257  10.849
  182SLPC     P20822   6.045   6.471  10.791
  182SLPC   O1320823   5.930   6.493  10.874
  182SLPC   O1420824   6.174   6.502  10.860
  182SLPC   O1220825   6.050   6.319  10.742
  182SLPC   O1120826   6.038   6.566  10.659
  182SLPC    C120827   5.996   6.518  10.533
  182SLPC    HA20828   6.041   6.583  10.455
  182SLPC    HB20829   6.028   6.415  10.506
  182SLPC    C220830   5.839   6.530  10.523
  182SLPC    HS20831   5.793   6.460  10.595
  182SLPC   O2120832   5.792   6.508  10.389
  182SLPC   C2120833   5.648   6.512  10.377
  182SLPC   O2220834   5.570   6.500  10.472
  182SLPC   C2220835   5.612   6.527  10.226
  182SLPC   H2R20836   5.501   6.515  10.230
  182SLPC   H2S20837   5.622   6.632  10.192
  182SLPC    C320838   5.809   6.669  10.584
  182SLPC    HX20839   5.821   6.664  10.695
  182SLPC    HY20840   5.699   6.682  10.572
  182SLPC   O3120841   5.894   6.770  10.524
  182SLPC   C3120842   5.850   6.797  10.402
  182SLPC   O3220843   5.731   6.782  10.363
  182SLPC   C3220844   5.967   6.846  10.319
  182SLPC   H2X20845   6.055   6.787  10.355
  182SLPC   H2Y20846   6.005   6.942  10.360
  182SLPC   C2320847   5.677   6.430  10.121
  182SLPC   H3R20848   5.787   6.447  10.123
  182SLPC   H3S20849   5.641   6.460  10.021
  182SLPC   C2420850   5.649   6.282  10.133
  182SLPC   H4R20851   5.548   6.263  10.091
  182SLPC   H4S20852   5.658   6.259  10.241
  182SLPC   C2520853   5.757   6.192  10.060
  182SLPC   H5R20854   5.751   6.086  10.094
  182SLPC   H5S20855   5.857   6.224  10.095
  182SLPC   C2620856   5.752   6.186   9.909
  182SLPC   H6R20857   5.752   6.281   9.851
  182SLPC   H6S20858   5.658   6.137   9.876
  182SLPC   C2720859   5.874   6.122   9.845
  182SLPC   H7R20860   5.966   6.178   9.874
  182SLPC   H7S20861   5.873   6.146   9.737
  182SLPC   C2820862   5.901   5.973   9.871
  182SLPC   H8R20863   5.915   5.953   9.980
  182SLPC   H8S20864   5.997   5.938   9.827
  182SLPC   C2920865   5.796   5.875   9.831
  182SLPC   H9R20866   5.725   5.836   9.906
  182SLPC  C21020867   5.777   5.825   9.707
  182SLPC  H10R20868   5.699   5.749   9.689
  182SLPC  C21120869   5.851   5.868   9.585
  182SLPC  H11R20870   5.860   5.774   9.525
  182SLPC  H11S20871   5.955   5.904   9.597
  182SLPC  C21220872   5.765   5.970   9.516
  182SLPC  H12R20873   5.729   6.053   9.577
  182SLPC  C21320874   5.728   5.969   9.382
  182SLPC  H13R20875   5.687   6.063   9.342
  182SLPC  C21420876   5.762   5.864   9.281
  182SLPC  H14R20877   5.851   5.803   9.305
  182SLPC  H14S20878   5.776   5.925   9.189
  182SLPC  C21520879   5.647   5.765   9.262
  182SLPC  H15R20880   5.552   5.808   9.224
  182SLPC  H15S20881   5.619   5.710   9.354
  182SLPC  C21620882   5.675   5.668   9.153
  182SLPC  H16R20883   5.590   5.596   9.153
  182SLPC  H16S20884   5.767   5.618   9.192
  182SLPC  C21720885   5.699   5.743   9.028
  182SLPC  H17R20886   5.800   5.791   9.020
  182SLPC  H17S20887   5.627   5.827   9.016
  182SLPC  C21820888   5.683   5.647   8.914
  182SLPC  H18R20889   5.695   5.705   8.820
  182SLPC  H18S20890   5.591   5.586   8.903
  182SLPC  H18T20891   5.769   5.577   8.921
  182SLPC   C3320892   5.961   6.849  10.163
  182SLPC   H3X20893   6.061   6.883  10.131
  182SLPC   H3Y20894   5.888   6.922  10.123
  182SLPC   C3420895   5.947   6.707  10.096
  182SLPC   H4X20896   5.846   6.670  10.125
  182SLPC   H4Y20897   6.020   6.638  10.144
  182SLPC   C3520898   5.937   6.716   9.945
  182SLPC   H5X20899   6.037   6.750   9.910
  182SLPC   H5Y20900   5.864   6.797   9.927
  182SLPC   C3620901   5.894   6.583   9.882
  182SLPC   H6X20902   5.794   6.543   9.912
  182SLPC   H6Y20903   5.957   6.502   9.924
  182SLPC   C3720904   5.927   6.582   9.737
  182SLPC   H7X20905   6.037   6.597   9.724
  182SLPC   H7Y20906   5.879   6.667   9.685
  182SLPC   C3820907   5.903   6.448   9.661
  182SLPC   H8X20908   5.797   6.415   9.668
  182SLPC   H8Y20909   5.961   6.362   9.701
  182SLPC   C3920910   5.930   6.465   9.509
  182SLPC   H9X20911   6.036   6.497   9.502
  182SLPC   H9Y20912   5.864   6.541   9.462
  182SLPC  C31020913   5.895   6.335   9.444
  182SLPC  H10X20914   5.784   6.336   9.451
  182SLPC  H10Y20915   5.938   6.253   9.505
  182SLPC  C31120916   5.952   6.329   9.304
  182SLPC  H11X20917   6.059   6.358   9.315
  182SLPC  H11Y20918   5.905   6.409   9.243
  182SLPC  C31220919   5.937   6.196   9.236
  182SLPC  H12X20920   5.832   6.163   9.219
  182SLPC  H12Y20921   5.999   6.122   9.289
  182SLPC  C31320922   5.991   6.216   9.089
  182SLPC  H13X20923   6.096   6.250   9.086
  182SLPC  H13Y20924   5.925   6.292   9.042
  182SLPC  C31420925   5.995   6.086   9.005
  182SLPC  H14X20926   5.894   6.040   8.998
  182SLPC  H14Y20927   6.059   6.013   9.060
  182SLPC  C31520928   6.042   6.101   8.857
  182SLPC  H15X20929   5.972   6.166   8.799
  182SLPC  H15Y20930   6.037   6.002   8.808
  182SLPC  C31620931   6.187   6.147   8.841
  182SLPC  H16X20932   6.253   6.066   8.878
  182SLPC  H16Y20933   6.194   6.234   8.909
  182SLPC  C31720934   6.226   6.182   8.701
  182SLPC  H17X20935   6.305   6.260   8.700
  182SLPC  H17Y20936   6.141   6.220   8.640
  182SLPC  C31820937   6.297   6.073   8.618
  182SLPC  H18X20938   6.257   5.976   8.655
  182SLPC  H18Y20939   6.405   6.080   8.642
  182SLPC  H18Z20940   6.279   6.090   8.509
  183SLPC     N20941   1.043   1.278  11.057
  183SLPC   C1320942   1.143   1.264  11.163
  183SLPC  H13A20943   1.125   1.328  11.248
  183SLPC  H13B20944   1.137   1.167  11.210
  183SLPC  H13C20945   1.245   1.267  11.127
  183SLPC   C1420946   0.921   1.213  11.109
  183SLPC  H14A20947   0.930   1.112  11.146
  183SLPC  H14B20948   0.871   1.266  11.189
  183SLPC  H14C20949   0.851   1.217  11.026
  183SLPC   C1520950   1.087   1.208  10.937
  183SLPC  H15A20951   1.080   1.102  10.953
  183SLPC  H15B20952   1.028   1.240  10.852
  183SLPC  H15C20953   1.188   1.240  10.916
  183SLPC   C1220954   1.015   1.426  11.027
  183SLPC  H12A20955   1.106   1.458  10.978
  183SLPC  H12B20956   1.008   1.486  11.116
  183SLPC   C1120957   0.888   1.457  10.942
  183SLPC  H11A20958   0.894   1.565  10.917
  183SLPC  H11B20959   0.802   1.455  11.013
  183SLPC     P20960   0.753   1.299  10.792
  183SLPC   O1320961   0.763   1.168  10.860
  183SLPC   O1420962   0.638   1.385  10.813
  183SLPC   O1220963   0.882   1.376  10.825
  183SLPC   O1120964   0.759   1.283  10.636
  183SLPC    C120965   0.651   1.213  10.579
  183SLPC    HA20966   0.637   1.116  10.632
  183SLPC    HB20967   0.553   1.265  10.585
  183SLPC    C220968   0.676   1.179  10.426
  183SLPC    HS20969   0.584   1.140  10.379
  183SLPC   O2120970   0.784   1.088  10.425
  183SLPC   C2120971   0.743   0.963  10.406
  183SLPC   O2220972   0.627   0.928  10.406
  183SLPC   C2220973   0.862   0.881  10.357
  183SLPC   H2R20974   0.924   0.868  10.448
  183SLPC   H2S20975   0.835   0.777  10.328
  183SLPC    C320976   0.709   1.302  10.344
  183SLPC    HX20977   0.799   1.337  10.399
  183SLPC    HY20978   0.623   1.370  10.356
  183SLPC   O3120979   0.735   1.276  10.209
  183SLPC   C3120980   0.646   1.311  10.115
  183SLPC   O3220981   0.540   1.366  10.144
  183SLPC   C3220982   0.697   1.260   9.977
  183SLPC   H2X20983   0.690   1.151   9.992
  183SLPC   H2Y20984   0.804   1.290   9.966
  183SLPC   C2320985   0.956   0.932  10.241
  183SLPC   H3R20986   1.043   0.863  10.231
  183SLPC   H3S20987   0.984   1.035  10.273
  183SLPC   C2420988   0.895   0.932  10.100
  183SLPC   H4R20989   0.978   0.962  10.032
  183SLPC   H4S20990   0.832   1.023  10.094
  183SLPC   C2520991   0.830   0.797  10.061
  183SLPC   H5R20992   0.731   0.805  10.111
  183SLPC   H5S20993   0.878   0.707  10.104
  183SLPC   C2620994   0.810   0.776   9.903
  183SLPC   H6R20995   0.790   0.671   9.873
  183SLPC   H6S20996   0.910   0.786   9.854
  183SLPC   C2720997   0.728   0.878   9.831
  183SLPC   H7R20998   0.788   0.971   9.819
  183SLPC   H7S20999   0.637   0.908   9.887
  183SLPC   C2821000   0.669   0.859   9.684
  183SLPC   H8R21001   0.753   0.864   9.611
  183SLPC   H8S21002   0.593   0.938   9.664
  183SLPC   C2921003   0.610   0.721   9.675
  183SLPC   H9R21004   0.644   0.654   9.755
  183SLPC  C21021005   0.529   0.677   9.578
  183SLPC  H10R21006   0.501   0.570   9.574
  183SLPC  C21121007   0.473   0.755   9.453
  183SLPC  H11R21008   0.540   0.764   9.365
  183SLPC  H11S21009   0.472   0.864   9.473
  183SLPC  C21221010   0.343   0.698   9.400
  183SLPC  H12R21011   0.253   0.726   9.457
  183SLPC  C21321012   0.330   0.605   9.305
  183SLPC  H13R21013   0.230   0.560   9.294
  183SLPC  C21421014   0.444   0.548   9.224
  183SLPC  H14R21015   0.525   0.523   9.296
  183SLPC  H14S21016   0.487   0.625   9.155
  183SLPC  C21521017   0.418   0.417   9.137
  183SLPC  H15R21018   0.519   0.380   9.108
  183SLPC  H15S21019   0.358   0.445   9.048
  183SLPC  C21621020   0.345   0.310   9.220
  183SLPC  H16R21021   0.242   0.337   9.253
  183SLPC  H16S21022   0.396   0.289   9.316
  183SLPC  C21721023   0.340   0.173   9.150
  183SLPC  H17R21024   0.286   0.104   9.218
  183SLPC  H17S21025   0.431   0.111   9.133
  183SLPC  C21821026   0.257   0.178   9.018
  183SLPC  H18R21027   0.254   0.077   8.971
  183SLPC  H18S21028   0.301   0.241   8.938
  183SLPC  H18T21029   0.155   0.212   9.042
  183SLPC   C3321030   0.614   1.308   9.859
  183SLPC   H3X21031   0.626   1.417   9.843
  183SLPC   H3Y21032   0.508   1.287   9.882
  183SLPC   C3421033   0.650   1.244   9.723
  183SLPC   H4X21034   0.654   1.136   9.750
  183SLPC   H4Y21035   0.748   1.288   9.697
  183SLPC   C3521036   0.536   1.285   9.633
  183SLPC   H5X21037   0.533   1.396   9.627
  183SLPC   H5Y21038   0.440   1.246   9.673
  183SLPC   C3621039   0.566   1.234   9.491
  183SLPC   H6X21040   0.575   1.123   9.489
  183SLPC   H6Y21041   0.665   1.279   9.468
  183SLPC   C3721042   0.454   1.268   9.398
  183SLPC   H7X21043   0.428   1.375   9.413
  183SLPC   H7Y21044   0.363   1.215   9.434
  183SLPC   C3821045   0.473   1.226   9.255
  183SLPC   H8X21046   0.547   1.297   9.212
  183SLPC   H8Y21047   0.381   1.236   9.193
  183SLPC   C3921048   0.521   1.082   9.238
  183SLPC   H9X21049   0.454   1.033   9.313
  183SLPC   H9Y21050   0.625   1.083   9.279
  183SLPC  C31021051   0.500   1.031   9.100
  183SLPC  H10X21052   0.560   1.103   9.041
  183SLPC  H10Y21053   0.395   1.053   9.069
  183SLPC  C31121054   0.539   0.883   9.092
  183SLPC  H11X21055   0.463   0.830   9.152
  183SLPC  H11Y21056   0.642   0.875   9.135
  183SLPC  C31221057   0.541   0.825   8.948
  183SLPC  H12X21058   0.547   0.714   8.949
  183SLPC  H12Y21059   0.631   0.865   8.898
  183SLPC  C31321060   0.426   0.871   8.853
  183SLPC  H13X21061   0.436   0.833   8.749
  183SLPC  H13Y21062   0.430   0.982   8.848
  183SLPC  C31421063   0.282   0.821   8.907
  183SLPC  H14X21064   0.203   0.893   8.879
  183SLPC  H14Y21065   0.282   0.830   9.018
  183SLPC  C31521066   0.244   0.675   8.857
  183SLPC  H15X21067   0.327   0.609   8.891
  183SLPC  H15Y21068   0.231   0.670   8.747
  183SLPC  C31621069   0.120   0.628   8.937
  183SLPC  H16X21070   0.044   0.708   8.924
  183SLPC  H16Y21071   0.145   0.622   9.045
  183SLPC  C31721072   0.055   0.497   8.886
  183SLPC  H17X21073   0.135   0.420   8.878
  183SLPC  H17Y21074   0.021   0.518   8.783
  183SLPC  C31821075  -0.068   0.466   8.980
  183SLPC  H18X21076  -0.038   0.470   9.087
  183SLPC  H18Y21077  -0.118   0.371   8.954
  183SLPC  H18Z21078  -0.148   0.543   8.976
  184SLPC     N21079   2.484   5.830  10.775
  184SLPC   C1321080   2.550   5.951  10.847
  184SLPC  H13A21081   2.536   5.943  10.954
  184SLPC  H13B21082   2.649   5.982  10.818
  184SLPC  H13C21083   2.503   6.046  10.830
  184SLPC   C1421084   2.447   5.873  10.640
  184SLPC  H14A21085   2.530   5.931  10.602
  184SLPC  H14B21086   2.419   5.787  10.581
  184SLPC  H14C21087   2.365   5.942  10.650
  184SLPC   C1521088   2.363   5.778  10.856
  184SLPC  H15A21089   2.280   5.842  10.830
  184SLPC  H15B21090   2.331   5.685  10.812
  184SLPC  H15C21091   2.388   5.765  10.960
  184SLPC   C1221092   2.590   5.723  10.775
  184SLPC  H12A21093   2.543   5.638  10.728
  184SLPC  H12B21094   2.611   5.679  10.872
  184SLPC   C1121095   2.724   5.745  10.707
  184SLPC  H11A21096   2.793   5.812  10.762
  184SLPC  H11B21097   2.702   5.789  10.607
  184SLPC     P21098   2.905   5.595  10.590
  184SLPC   O1321099   3.015   5.683  10.648
  184SLPC   O1421100   2.933   5.452  10.561
  184SLPC   O1221101   2.783   5.615  10.690
  184SLPC   O1121102   2.853   5.656  10.452
  184SLPC    C121103   2.737   5.619  10.374
  184SLPC    HA21104   2.656   5.615  10.449
  184SLPC    HB21105   2.707   5.698  10.302
  184SLPC    C221106   2.736   5.481  10.306
  184SLPC    HS21107   2.727   5.406  10.387
  184SLPC   O2121108   2.855   5.477  10.227
  184SLPC   C2121109   2.906   5.354  10.216
  184SLPC   O2221110   2.886   5.259  10.284
  184SLPC   C2221111   2.995   5.353  10.090
  184SLPC   H2R21112   2.930   5.377  10.004
  184SLPC   H2S21113   3.076   5.428  10.101
  184SLPC    C321114   2.609   5.462  10.220
  184SLPC    HX21115   2.620   5.507  10.119
  184SLPC    HY21116   2.535   5.526  10.272
  184SLPC   O3121117   2.569   5.327  10.209
  184SLPC   C3121118   2.457   5.304  10.134
  184SLPC   O3221119   2.389   5.395  10.097
  184SLPC   C3221120   2.439   5.154  10.107
  184SLPC   H2X21121   2.341   5.122  10.148
  184SLPC   H2Y21122   2.515   5.104  10.171
  184SLPC   C2321123   3.050   5.212  10.078
  184SLPC   H3R21124   2.963   5.143  10.080
  184SLPC   H3S21125   3.105   5.190  10.173
  184SLPC   C2421126   3.136   5.187   9.951
  184SLPC   H4R21127   3.198   5.098   9.970
  184SLPC   H4S21128   3.207   5.272   9.946
  184SLPC   C2521129   3.054   5.154   9.819
  184SLPC   H5R21130   3.004   5.245   9.779
  184SLPC   H5S21131   2.966   5.096   9.853
  184SLPC   C2621132   3.135   5.076   9.720
  184SLPC   H6R21133   3.133   4.968   9.747
  184SLPC   H6S21134   3.239   5.113   9.735
  184SLPC   C2721135   3.074   5.086   9.584
  184SLPC   H7R21136   3.084   5.185   9.534
  184SLPC   H7S21137   2.966   5.058   9.576
  184SLPC   C2821138   3.125   4.976   9.488
  184SLPC   H8R21139   3.068   4.973   9.392
  184SLPC   H8S21140   3.109   4.873   9.524
  184SLPC   C2921141   3.273   5.003   9.444
  184SLPC   H9R21142   3.345   5.005   9.527
  184SLPC  C21021143   3.316   5.029   9.316
  184SLPC  H10R21144   3.425   5.043   9.305
  184SLPC  C21121145   3.232   5.024   9.191
  184SLPC  H11R21146   3.153   4.946   9.201
  184SLPC  H11S21147   3.296   4.984   9.109
  184SLPC  C21221148   3.169   5.144   9.141
  184SLPC  H12R21149   3.079   5.167   9.199
  184SLPC  C21321150   3.207   5.225   9.038
  184SLPC  H13R21151   3.159   5.321   9.014
  184SLPC  C21421152   3.335   5.219   8.965
  184SLPC  H14R21153   3.397   5.131   8.992
  184SLPC  H14S21154   3.401   5.304   8.996
  184SLPC  C21521155   3.314   5.224   8.813
  184SLPC  H15R21156   3.254   5.315   8.792
  184SLPC  H15S21157   3.265   5.132   8.774
  184SLPC  C21621158   3.447   5.242   8.735
  184SLPC  H16R21159   3.473   5.349   8.749
  184SLPC  H16S21160   3.418   5.225   8.629
  184SLPC  C21721161   3.554   5.143   8.772
  184SLPC  H17R21162   3.513   5.040   8.778
  184SLPC  H17S21163   3.588   5.167   8.875
  184SLPC  C21821164   3.673   5.154   8.668
  184SLPC  H18R21165   3.624   5.136   8.569
  184SLPC  H18S21166   3.754   5.080   8.684
  184SLPC  H18T21167   3.725   5.252   8.658
  184SLPC   C3321168   2.448   5.114   9.960
  184SLPC   H3X21169   2.358   5.159   9.913
  184SLPC   H3Y21170   2.433   5.004   9.958
  184SLPC   C3421171   2.581   5.162   9.899
  184SLPC   H4X21172   2.672   5.124   9.951
  184SLPC   H4Y21173   2.596   5.272   9.894
  184SLPC   C3521174   2.610   5.111   9.758
  184SLPC   H5X21175   2.596   5.001   9.762
  184SLPC   H5Y21176   2.713   5.123   9.719
  184SLPC   C3621177   2.518   5.170   9.649
  184SLPC   H6X21178   2.525   5.279   9.669
  184SLPC   H6Y21179   2.413   5.135   9.658
  184SLPC   C3721180   2.563   5.126   9.504
  184SLPC   H7X21181   2.548   5.016   9.492
  184SLPC   H7Y21182   2.670   5.146   9.481
  184SLPC   C3821183   2.484   5.204   9.400
  184SLPC   H8X21184   2.538   5.300   9.385
  184SLPC   H8Y21185   2.381   5.228   9.434
  184SLPC   C3921186   2.485   5.127   9.265
  184SLPC   H9X21187   2.432   5.032   9.287
  184SLPC   H9Y21188   2.589   5.111   9.231
  184SLPC  C31021189   2.405   5.195   9.153
  184SLPC  H10X21190   2.422   5.305   9.161
  184SLPC  H10Y21191   2.297   5.191   9.180
  184SLPC  C31121192   2.439   5.132   9.014
  184SLPC  H11X21193   2.433   5.022   9.026
  184SLPC  H11Y21194   2.546   5.151   8.991
  184SLPC  C31221195   2.339   5.172   8.909
  184SLPC  H12X21196   2.332   5.280   8.934
  184SLPC  H12Y21197   2.240   5.127   8.929
  184SLPC  C31321198   2.403   5.151   8.769
  184SLPC  H13X21199   2.380   5.051   8.727
  184SLPC  H13Y21200   2.512   5.173   8.771
  184SLPC  C31421201   2.353   5.249   8.663
  184SLPC  H14X21202   2.352   5.348   8.715
  184SLPC  H14Y21203   2.244   5.229   8.647
  184SLPC  C31521204   2.428   5.268   8.525
  184SLPC  H15X21205   2.387   5.192   8.454
  184SLPC  H15Y21206   2.536   5.246   8.542
  184SLPC  C31621207   2.422   5.408   8.472
  184SLPC  H16X21208   2.434   5.486   8.551
  184SLPC  H16Y21209   2.327   5.428   8.419
  184SLPC  C31721210   2.530   5.426   8.365
  184SLPC  H17X21211   2.511   5.355   8.282
  184SLPC  H17Y21212   2.631   5.400   8.402
  184SLPC  C31821213   2.533   5.567   8.304
  184SLPC  H18X21214   2.554   5.644   8.381
  184SLPC  H18Y21215   2.439   5.600   8.256
  184SLPC  H18Z21216   2.619   5.575   8.234
  185SLPC     N21217   1.083   1.730   6.318
  185SLPC   C1321218   1.004   1.628   6.241
  185SLPC  H13A21219   1.066   1.556   6.190
  185SLPC  H13B21220   0.952   1.571   6.316
  185SLPC  H13C21221   0.935   1.682   6.177
  185SLPC   C1421222   0.983   1.814   6.390
  185SLPC  H14A21223   0.912   1.753   6.444
  185SLPC  H14B21224   1.039   1.873   6.461
  185SLPC  H14C21225   0.933   1.882   6.323
  185SLPC   C1521226   1.159   1.824   6.229
  185SLPC  H15A21227   1.238   1.789   6.164
  185SLPC  H15B21228   1.078   1.872   6.177
  185SLPC  H15C21229   1.203   1.893   6.299
  185SLPC   C1221230   1.172   1.656   6.405
  185SLPC  H12A21231   1.253   1.618   6.345
  185SLPC  H12B21232   1.130   1.566   6.448
  185SLPC   C1121233   1.230   1.742   6.519
  185SLPC  H11A21234   1.292   1.670   6.578
  185SLPC  H11B21235   1.145   1.788   6.573
  185SLPC     P21236   1.467   1.862   6.477
  185SLPC   O1321237   1.520   1.744   6.406
  185SLPC   O1421238   1.504   1.998   6.432
  185SLPC   O1221239   1.310   1.853   6.468
  185SLPC   O1121240   1.505   1.845   6.627
  185SLPC    C121241   1.454   1.946   6.722
  185SLPC    HA21242   1.512   2.040   6.710
  185SLPC    HB21243   1.343   1.959   6.726
  185SLPC    C221244   1.469   1.902   6.870
  185SLPC    HS21245   1.577   1.887   6.893
  185SLPC   O2121246   1.396   1.787   6.895
  185SLPC   C2121247   1.457   1.671   6.907
  185SLPC   O2221248   1.575   1.656   6.910
  185SLPC   C2221249   1.346   1.562   6.906
  185SLPC   H2R21250   1.252   1.618   6.926
  185SLPC   H2S21251   1.345   1.525   6.801
  185SLPC    C321252   1.418   2.014   6.964
  185SLPC    HX21253   1.312   2.035   6.941
  185SLPC    HY21254   1.473   2.109   6.944
  185SLPC   O3121255   1.454   1.988   7.101
  185SLPC   C3121256   1.357   1.949   7.176
  185SLPC   O3221257   1.240   1.928   7.138
  185SLPC   C3221258   1.420   1.913   7.312
  185SLPC   H2X21259   1.397   2.001   7.376
  185SLPC   H2Y21260   1.531   1.905   7.312
  185SLPC   C2321261   1.365   1.445   7.005
  185SLPC   H3R21262   1.467   1.401   6.999
  185SLPC   H3S21263   1.292   1.364   6.982
  185SLPC   C2421264   1.353   1.489   7.152
  185SLPC   H4R21265   1.267   1.555   7.174
  185SLPC   H4S21266   1.435   1.560   7.179
  185SLPC   C2521267   1.341   1.369   7.245
  185SLPC   H5R21268   1.439   1.346   7.291
  185SLPC   H5S21269   1.290   1.281   7.200
  185SLPC   C2621270   1.247   1.404   7.364
  185SLPC   H6R21271   1.148   1.428   7.319
  185SLPC   H6S21272   1.271   1.505   7.405
  185SLPC   C2721273   1.222   1.304   7.477
  185SLPC   H7R21274   1.267   1.205   7.451
  185SLPC   H7S21275   1.114   1.283   7.493
  185SLPC   C2821276   1.285   1.356   7.611
  185SLPC   H8R21277   1.393   1.376   7.593
  185SLPC   H8S21278   1.286   1.272   7.684
  185SLPC   C2921279   1.208   1.471   7.668
  185SLPC   H9R21280   1.165   1.544   7.598
  185SLPC  C21021281   1.185   1.496   7.803
  185SLPC  H10R21282   1.128   1.587   7.827
  185SLPC  C21121283   1.242   1.422   7.917
  185SLPC  H11R21284   1.333   1.363   7.897
  185SLPC  H11S21285   1.169   1.348   7.957
  185SLPC  C21221286   1.278   1.523   8.023
  185SLPC  H12R21287   1.353   1.599   7.993
  185SLPC  C21321288   1.242   1.513   8.149
  185SLPC  H13R21289   1.257   1.586   8.230
  185SLPC  C21421290   1.157   1.399   8.206
  185SLPC  H14R21291   1.102   1.337   8.131
  185SLPC  H14S21292   1.083   1.445   8.275
  185SLPC  C21521293   1.231   1.297   8.298
  185SLPC  H15R21294   1.328   1.283   8.246
  185SLPC  H15S21295   1.167   1.206   8.301
  185SLPC  C21621296   1.266   1.355   8.439
  185SLPC  H16R21297   1.172   1.402   8.477
  185SLPC  H16S21298   1.351   1.426   8.440
  185SLPC  C21721299   1.317   1.236   8.526
  185SLPC  H17R21300   1.363   1.281   8.617
  185SLPC  H17S21301   1.401   1.190   8.471
  185SLPC  C21821302   1.212   1.144   8.582
  185SLPC  H18R21303   1.141   1.211   8.635
  185SLPC  H18S21304   1.262   1.073   8.652
  185SLPC  H18T21305   1.156   1.096   8.499
  185SLPC   C3321306   1.355   1.795   7.387
  185SLPC   H3X21307   1.362   1.705   7.323
  185SLPC   H3Y21308   1.249   1.812   7.414
  185SLPC   C3421309   1.426   1.767   7.514
  185SLPC   H4X21310   1.536   1.762   7.501
  185SLPC   H4Y21311   1.388   1.666   7.541
  185SLPC   C3521312   1.407   1.878   7.624
  185SLPC   H5X21313   1.300   1.902   7.637
  185SLPC   H5Y21314   1.441   1.971   7.573
  185SLPC   C3621315   1.465   1.851   7.763
  185SLPC   H6X21316   1.571   1.816   7.755
  185SLPC   H6Y21317   1.400   1.781   7.819
  185SLPC   C3721318   1.482   1.985   7.841
  185SLPC   H7X21319   1.380   2.027   7.852
  185SLPC   H7Y21320   1.551   2.061   7.799
  185SLPC   C3821321   1.555   1.969   7.974
  185SLPC   H8X21322   1.575   2.070   8.015
  185SLPC   H8Y21323   1.650   1.914   7.957
  185SLPC   C3921324   1.472   1.890   8.077
  185SLPC   H9X21325   1.528   1.800   8.110
  185SLPC   H9Y21326   1.374   1.859   8.036
  185SLPC  C31021327   1.441   1.976   8.206
  185SLPC  H10X21328   1.408   2.080   8.185
  185SLPC  H10Y21329   1.538   1.994   8.258
  185SLPC  C31121330   1.335   1.902   8.303
  185SLPC  H11X21331   1.345   1.938   8.407
  185SLPC  H11Y21332   1.354   1.793   8.305
  185SLPC  C31221333   1.186   1.931   8.270
  185SLPC  H12X21334   1.152   1.887   8.174
  185SLPC  H12Y21335   1.176   2.040   8.251
  185SLPC  C31321336   1.093   1.909   8.385
  185SLPC  H13X21337   0.985   1.913   8.360
  185SLPC  H13Y21338   1.112   1.984   8.465
  185SLPC  C31421339   1.120   1.773   8.456
  185SLPC  H14X21340   1.221   1.783   8.503
  185SLPC  H14Y21341   1.117   1.692   8.380
  185SLPC  C31521342   1.018   1.742   8.564
  185SLPC  H15X21343   1.039   1.649   8.621
  185SLPC  H15Y21344   0.918   1.725   8.519
  185SLPC  C31621345   0.998   1.854   8.672
  185SLPC  H16X21346   0.960   1.945   8.621
  185SLPC  H16Y21347   1.090   1.871   8.732
  185SLPC  C31721348   0.887   1.813   8.776
  185SLPC  H17X21349   0.898   1.876   8.867
  185SLPC  H17Y21350   0.910   1.706   8.798
  185SLPC  C31821351   0.740   1.819   8.723
  185SLPC  H18X21352   0.741   1.754   8.633
  185SLPC  H18Y21353   0.697   1.920   8.703
  185SLPC  H18Z21354   0.671   1.775   8.799
  186SLPC     N21355   2.430   4.118   6.010
  186SLPC   C1321356   2.539   4.115   5.916
  186SLPC  H13A21357   2.602   4.030   5.938
  186SLPC  H13B21358   2.504   4.104   5.814
  186SLPC  H13C21359   2.609   4.198   5.927
  186SLPC   C1421360   2.358   3.988   5.997
  186SLPC  H14A21361   2.411   3.902   6.037
  186SLPC  H14B21362   2.258   3.996   6.038
  186SLPC  H14C21363   2.340   3.954   5.897
  186SLPC   C1521364   2.339   4.227   5.977
  186SLPC  H15A21365   2.390   4.322   5.964
  186SLPC  H15B21366   2.291   4.218   5.881
  186SLPC  H15C21367   2.258   4.234   6.049
  186SLPC   C1221368   2.478   4.138   6.152
  186SLPC  H12A21369   2.517   4.236   6.171
  186SLPC  H12B21370   2.565   4.078   6.174
  186SLPC   C1121371   2.383   4.136   6.271
  186SLPC  H11A21372   2.439   4.160   6.364
  186SLPC  H11B21373   2.346   4.032   6.271
  186SLPC     P21374   2.120   4.192   6.258
  186SLPC   O1321375   2.035   4.312   6.226
  186SLPC   O1421376   2.105   4.066   6.180
  186SLPC   O1221377   2.278   4.232   6.262
  186SLPC   O1121378   2.092   4.154   6.415
  186SLPC    C121379   2.176   4.208   6.515
  186SLPC    HA21380   2.234   4.123   6.559
  186SLPC    HB21381   2.244   4.287   6.478
  186SLPC    C221382   2.088   4.277   6.631
  186SLPC    HS21383   2.159   4.326   6.700
  186SLPC   O2121384   2.012   4.176   6.707
  186SLPC   C2121385   2.097   4.102   6.784
  186SLPC   O2221386   2.211   4.126   6.800
  186SLPC   C2221387   2.022   3.979   6.833
  186SLPC   H2R21388   2.005   3.913   6.745
  186SLPC   H2S21389   2.092   3.923   6.899
  186SLPC    C321390   1.986   4.372   6.565
  186SLPC    HX21391   1.923   4.315   6.493
  186SLPC    HY21392   2.050   4.439   6.503
  186SLPC   O3121393   1.894   4.431   6.665
  186SLPC   C3121394   1.937   4.536   6.723
  186SLPC   O3221395   2.037   4.600   6.699
  186SLPC   C3221396   1.838   4.586   6.835
  186SLPC   H2X21397   1.753   4.515   6.850
  186SLPC   H2Y21398   1.802   4.679   6.787
  186SLPC   C2321399   1.891   4.021   6.898
  186SLPC   H3R21400   1.828   3.930   6.916
  186SLPC   H3S21401   1.828   4.084   6.832
  186SLPC   C2421402   1.903   4.082   7.044
  186SLPC   H4R21403   1.831   4.164   7.061
  186SLPC   H4S21404   2.004   4.127   7.051
  186SLPC   C2521405   1.903   3.985   7.161
  186SLPC   H5R21406   1.991   3.921   7.144
  186SLPC   H5S21407   1.813   3.920   7.151
  186SLPC   C2621408   1.911   4.032   7.308
  186SLPC   H6R21409   2.016   4.064   7.327
  186SLPC   H6S21410   1.893   3.937   7.363
  186SLPC   C2721411   1.809   4.134   7.354
  186SLPC   H7R21412   1.710   4.101   7.315
  186SLPC   H7S21413   1.831   4.230   7.302
  186SLPC   C2821414   1.816   4.168   7.509
  186SLPC   H8R21415   1.923   4.157   7.536
  186SLPC   H8S21416   1.773   4.077   7.555
  186SLPC   C2921417   1.749   4.286   7.557
  186SLPC   H9R21418   1.673   4.331   7.492
  186SLPC  C21021419   1.744   4.320   7.689
  186SLPC  H10R21420   1.703   4.422   7.700
  186SLPC  C21121421   1.797   4.267   7.818
  186SLPC  H11R21422   1.794   4.354   7.887
  186SLPC  H11S21423   1.904   4.240   7.807
  186SLPC  C21221424   1.727   4.141   7.866
  186SLPC  H12R21425   1.730   4.059   7.793
  186SLPC  C21321426   1.670   4.116   7.985
  186SLPC  H13R21427   1.646   4.010   8.001
  186SLPC  C21421428   1.664   4.213   8.101
  186SLPC  H14R21429   1.572   4.182   8.154
  186SLPC  H14S21430   1.661   4.320   8.070
  186SLPC  C21521431   1.778   4.187   8.194
  186SLPC  H15R21432   1.871   4.224   8.146
  186SLPC  H15S21433   1.800   4.079   8.207
  186SLPC  C21621434   1.773   4.273   8.325
  186SLPC  H16R21435   1.694   4.349   8.308
  186SLPC  H16S21436   1.867   4.330   8.342
  186SLPC  C21721437   1.739   4.196   8.456
  186SLPC  H17R21438   1.832   4.138   8.477
  186SLPC  H17S21439   1.653   4.129   8.432
  186SLPC  C21821440   1.714   4.296   8.573
  186SLPC  H18R21441   1.658   4.241   8.652
  186SLPC  H18S21442   1.633   4.365   8.542
  186SLPC  H18T21443   1.799   4.350   8.620
  186SLPC   C3321444   1.909   4.618   6.964
  186SLPC   H3X21445   1.834   4.650   7.039
  186SLPC   H3Y21446   1.979   4.703   6.950
  186SLPC   C3421447   1.987   4.502   7.031
  186SLPC   H4X21448   2.079   4.502   6.970
  186SLPC   H4Y21449   1.954   4.397   7.018
  186SLPC   C3521450   2.012   4.529   7.174
  186SLPC   H5X21451   1.920   4.513   7.236
  186SLPC   H5Y21452   2.049   4.633   7.186
  186SLPC   C3621453   2.118   4.435   7.229
  186SLPC   H6X21454   2.204   4.438   7.158
  186SLPC   H6Y21455   2.083   4.330   7.223
  186SLPC   C3721456   2.164   4.479   7.365
  186SLPC   H7X21457   2.160   4.588   7.383
  186SLPC   H7Y21458   2.268   4.443   7.379
  186SLPC   C3821459   2.079   4.404   7.469
  186SLPC   H8X21460   2.095   4.294   7.461
  186SLPC   H8Y21461   1.973   4.431   7.450
  186SLPC   C3921462   2.116   4.439   7.614
  186SLPC   H9X21463   2.222   4.419   7.640
  186SLPC   H9Y21464   2.059   4.377   7.686
  186SLPC  C31021465   2.080   4.591   7.645
  186SLPC  H10X21466   1.984   4.621   7.596
  186SLPC  H10Y21467   2.160   4.648   7.593
  186SLPC  C31121468   2.078   4.636   7.794
  186SLPC  H11X21469   2.078   4.746   7.814
  186SLPC  H11Y21470   2.176   4.603   7.835
  186SLPC  C31221471   1.973   4.588   7.893
  186SLPC  H12X21472   2.002   4.484   7.916
  186SLPC  H12Y21473   1.874   4.589   7.841
  186SLPC  C31321474   1.979   4.653   8.036
  186SLPC  H13X21475   1.940   4.757   8.036
  186SLPC  H13Y21476   2.087   4.655   8.062
  186SLPC  C31421477   1.907   4.580   8.140
  186SLPC  H14X21478   1.935   4.473   8.155
  186SLPC  H14Y21479   1.800   4.562   8.115
  186SLPC  C31521480   1.931   4.660   8.263
  186SLPC  H15X21481   1.871   4.620   8.348
  186SLPC  H15Y21482   1.900   4.766   8.256
  186SLPC  C31621483   2.077   4.657   8.313
  186SLPC  H16X21484   2.139   4.730   8.256
  186SLPC  H16Y21485   2.119   4.559   8.285
  186SLPC  C31721486   2.086   4.662   8.468
  186SLPC  H17X21487   2.193   4.654   8.494
  186SLPC  H17Y21488   2.034   4.583   8.526
  186SLPC  C31821489   2.045   4.806   8.524
  186SLPC  H18X21490   1.941   4.831   8.494
  186SLPC  H18Y21491   2.103   4.894   8.490
  186SLPC  H18Z21492   2.047   4.805   8.635
  187SLPC     N21493   2.484   1.068   6.200
  187SLPC   C1321494   2.430   1.014   6.072
  187SLPC  H13A21495   2.508   1.020   5.998
  187SLPC  H13B21496   2.377   0.920   6.076
  187SLPC  H13C21497   2.362   1.083   6.023
  187SLPC   C1421498   2.368   1.123   6.277
  187SLPC  H14A21499   2.319   1.199   6.218
  187SLPC  H14B21500   2.309   1.034   6.297
  187SLPC  H14C21501   2.399   1.156   6.375
  187SLPC   C1521502   2.570   1.189   6.165
  187SLPC  H15A21503   2.506   1.254   6.107
  187SLPC  H15B21504   2.604   1.233   6.258
  187SLPC  H15C21505   2.650   1.161   6.098
  187SLPC   C1221506   2.556   0.963   6.285
  187SLPC  H12A21507   2.614   0.899   6.221
  187SLPC  H12B21508   2.479   0.904   6.332
  187SLPC   C1121509   2.656   1.009   6.401
  187SLPC  H11A21510   2.753   1.034   6.353
  187SLPC  H11B21511   2.682   0.927   6.472
  187SLPC     P21512   2.684   1.211   6.564
  187SLPC   O1321513   2.825   1.201   6.523
  187SLPC   O1421514   2.621   1.344   6.567
  187SLPC   O1221515   2.609   1.127   6.468
  187SLPC   O1121516   2.664   1.144   6.702
  187SLPC    C121517   2.551   1.075   6.742
  187SLPC    HA21518   2.477   1.154   6.768
  187SLPC    HB21519   2.508   1.007   6.666
  187SLPC    C221520   2.578   0.982   6.867
  187SLPC    HS21521   2.489   0.915   6.878
  187SLPC   O2121522   2.603   1.054   6.994
  187SLPC   C2121523   2.493   1.113   7.039
  187SLPC   O2221524   2.383   1.121   6.982
  187SLPC   C2221525   2.528   1.156   7.185
  187SLPC   H2R21526   2.638   1.156   7.199
  187SLPC   H2S21527   2.481   1.257   7.185
  187SLPC    C321528   2.701   0.887   6.844
  187SLPC    HX21529   2.789   0.953   6.827
  187SLPC    HY21530   2.679   0.845   6.744
  187SLPC   O3121531   2.703   0.786   6.942
  187SLPC   C3121532   2.816   0.765   7.004
  187SLPC   O3221533   2.923   0.814   6.986
  187SLPC   C3221534   2.768   0.656   7.102
  187SLPC   H2X21535   2.772   0.557   7.051
  187SLPC   H2Y21536   2.665   0.677   7.138
  187SLPC   C2321537   2.472   1.051   7.289
  187SLPC   H3R21538   2.511   1.077   7.390
  187SLPC   H3S21539   2.511   0.955   7.248
  187SLPC   C2421540   2.314   1.056   7.297
  187SLPC   H4R21541   2.275   0.983   7.372
  187SLPC   H4S21542   2.286   1.017   7.197
  187SLPC   C2521543   2.247   1.192   7.320
  187SLPC   H5R21544   2.138   1.176   7.308
  187SLPC   H5S21545   2.273   1.274   7.249
  187SLPC   C2621546   2.273   1.255   7.462
  187SLPC   H6R21547   2.243   1.361   7.475
  187SLPC   H6S21548   2.383   1.246   7.480
  187SLPC   C2721549   2.204   1.177   7.573
  187SLPC   H7R21550   2.256   1.079   7.576
  187SLPC   H7S21551   2.101   1.165   7.533
  187SLPC   C2821552   2.209   1.253   7.710
  187SLPC   H8R21553   2.149   1.346   7.715
  187SLPC   H8S21554   2.314   1.286   7.729
  187SLPC   C2921555   2.153   1.157   7.815
  187SLPC   H9R21556   2.043   1.156   7.813
  187SLPC  C21021557   2.210   1.087   7.914
  187SLPC  H10R21558   2.148   1.037   7.990
  187SLPC  C21121559   2.359   1.058   7.938
  187SLPC  H11R21560   2.404   1.036   7.838
  187SLPC  H11S21561   2.360   0.965   7.998
  187SLPC  C21221562   2.452   1.157   7.999
  187SLPC  H12R21563   2.490   1.229   7.925
  187SLPC  C21321564   2.499   1.151   8.127
  187SLPC  H13R21565   2.562   1.230   8.171
  187SLPC  C21421566   2.450   1.046   8.224
  187SLPC  H14R21567   2.506   0.952   8.204
  187SLPC  H14S21568   2.346   1.017   8.196
  187SLPC  C21521569   2.460   1.088   8.373
  187SLPC  H15R21570   2.410   1.185   8.391
  187SLPC  H15S21571   2.566   1.110   8.396
  187SLPC  C21621572   2.405   0.977   8.469
  187SLPC  H16R21573   2.444   0.975   8.573
  187SLPC  H16S21574   2.458   0.887   8.434
  187SLPC  C21721575   2.251   0.961   8.471
  187SLPC  H17R21576   2.214   0.942   8.368
  187SLPC  H17S21577   2.204   1.051   8.516
  187SLPC  C21821578   2.197   0.844   8.556
  187SLPC  H18R21579   2.092   0.829   8.523
  187SLPC  H18S21580   2.212   0.874   8.662
  187SLPC  H18T21581   2.250   0.750   8.531
  187SLPC   C3321582   2.849   0.655   7.230
  187SLPC   H3X21583   2.841   0.749   7.289
  187SLPC   H3Y21584   2.957   0.634   7.220
  187SLPC   C3421585   2.797   0.550   7.332
  187SLPC   H4X21586   2.827   0.448   7.301
  187SLPC   H4Y21587   2.687   0.566   7.335
  187SLPC   C3521588   2.872   0.575   7.465
  187SLPC   H5X21589   2.872   0.682   7.495
  187SLPC   H5Y21590   2.976   0.546   7.438
  187SLPC   C3621591   2.820   0.487   7.580
  187SLPC   H6X21592   2.791   0.391   7.534
  187SLPC   H6Y21593   2.730   0.537   7.622
  187SLPC   C3721594   2.920   0.469   7.694
  187SLPC   H7X21595   3.007   0.408   7.662
  187SLPC   H7Y21596   2.942   0.569   7.738
  187SLPC   C3821597   2.853   0.393   7.806
  187SLPC   H8X21598   2.801   0.298   7.781
  187SLPC   H8Y21599   2.776   0.454   7.858
  187SLPC   C3921600   2.962   0.363   7.914
  187SLPC   H9X21601   2.992   0.461   7.956
  187SLPC   H9Y21602   3.041   0.304   7.863
  187SLPC  C31021603   2.912   0.284   8.040
  187SLPC  H10X21604   2.861   0.199   7.989
  187SLPC  H10Y21605   2.831   0.339   8.093
  187SLPC  C31121606   3.024   0.234   8.128
  187SLPC  H11X21607   3.093   0.317   8.155
  187SLPC  H11Y21608   3.086   0.161   8.072
  187SLPC  C31221609   2.968   0.157   8.246
  187SLPC  H12X21610   3.051   0.105   8.298
  187SLPC  H12Y21611   2.906   0.081   8.195
  187SLPC  C31321612   2.898   0.247   8.346
  187SLPC  H13X21613   2.805   0.279   8.294
  187SLPC  H13Y21614   2.951   0.343   8.369
  187SLPC  C31421615   2.864   0.173   8.475
  187SLPC  H14X21616   2.969   0.147   8.501
  187SLPC  H14Y21617   2.800   0.084   8.456
  187SLPC  C31521618   2.780   0.259   8.572
  187SLPC  H15X21619   2.679   0.261   8.526
  187SLPC  H15Y21620   2.827   0.360   8.572
  187SLPC  C31621621   2.759   0.200   8.715
  187SLPC  H16X21622   2.740   0.091   8.708
  187SLPC  H16Y21623   2.664   0.249   8.745
  187SLPC  C31721624   2.878   0.235   8.805
  187SLPC  H17X21625   2.869   0.344   8.825
  187SLPC  H17Y21626   2.975   0.214   8.756
  187SLPC  C31821627   2.878   0.162   8.939
  187SLPC  H18X21628   2.911   0.059   8.914
  187SLPC  H18Y21629   2.782   0.152   8.994
  187SLPC  H18Z21630   2.953   0.206   9.008
  188SLPC     N21631   4.333   2.313   6.334
  188SLPC   C1321632   4.226   2.224   6.388
  188SLPC  H13A21633   4.256   2.121   6.399
  188SLPC  H13B21634   4.208   2.252   6.491
  188SLPC  H13C21635   4.135   2.228   6.330
  188SLPC   C1421636   4.355   2.271   6.190
  188SLPC  H14A21637   4.448   2.313   6.154
  188SLPC  H14B21638   4.383   2.167   6.185
  188SLPC  H14C21639   4.274   2.288   6.120
  188SLPC   C1521640   4.467   2.298   6.400
  188SLPC  H15A21641   4.532   2.378   6.369
  188SLPC  H15B21642   4.463   2.307   6.508
  188SLPC  H15C21643   4.511   2.200   6.386
  188SLPC   C1221644   4.291   2.459   6.355
  188SLPC  H12A21645   4.364   2.519   6.302
  188SLPC  H12B21646   4.287   2.486   6.460
  188SLPC   C1121647   4.156   2.493   6.298
  188SLPC  H11A21648   4.084   2.410   6.317
  188SLPC  H11B21649   4.160   2.508   6.188
  188SLPC     P21650   4.081   2.640   6.502
  188SLPC   O1321651   4.183   2.581   6.586
  188SLPC   O1421652   4.048   2.787   6.520
  188SLPC   O1221653   4.124   2.623   6.352
  188SLPC   O1121654   3.942   2.561   6.500
  188SLPC    C121655   3.836   2.595   6.420
  188SLPC    HA21656   3.862   2.668   6.341
  188SLPC    HB21657   3.802   2.499   6.375
  188SLPC    C221658   3.717   2.637   6.505
  188SLPC    HS21659   3.742   2.736   6.547
  188SLPC   O2121660   3.687   2.533   6.603
  188SLPC   C2121661   3.730   2.551   6.725
  188SLPC   O2221662   3.795   2.647   6.758
  188SLPC   C2221663   3.649   2.451   6.814
  188SLPC   H2R21664   3.543   2.472   6.786
  188SLPC   H2S21665   3.688   2.350   6.790
  188SLPC    C321666   3.593   2.673   6.423
  188SLPC    HX21667   3.571   2.575   6.375
  188SLPC    HY21668   3.611   2.755   6.350
  188SLPC   O3121669   3.488   2.719   6.510
  188SLPC   C3121670   3.391   2.638   6.531
  188SLPC   O3221671   3.378   2.521   6.495
  188SLPC   C3221672   3.300   2.717   6.629
  188SLPC   H2X21673   3.225   2.644   6.667
  188SLPC   H2Y21674   3.246   2.790   6.565
  188SLPC   C2321675   3.680   2.484   6.967
  188SLPC   H3R21676   3.653   2.590   6.989
  188SLPC   H3S21677   3.782   2.451   6.994
  188SLPC   C2421678   3.589   2.408   7.067
  188SLPC   H4R21679   3.599   2.298   7.051
  188SLPC   H4S21680   3.483   2.436   7.049
  188SLPC   C2521681   3.632   2.429   7.214
  188SLPC   H5R21682   3.709   2.504   7.242
  188SLPC   H5S21683   3.683   2.335   7.243
  188SLPC   C2621684   3.513   2.439   7.318
  188SLPC   H6R21685   3.450   2.347   7.324
  188SLPC   H6S21686   3.457   2.527   7.281
  188SLPC   C2721687   3.563   2.486   7.458
  188SLPC   H7R21688   3.612   2.585   7.443
  188SLPC   H7S21689   3.630   2.407   7.498
  188SLPC   C2821690   3.453   2.494   7.564
  188SLPC   H8R21691   3.500   2.500   7.665
  188SLPC   H8S21692   3.399   2.398   7.578
  188SLPC   C2921693   3.354   2.607   7.540
  188SLPC   H9R21694   3.265   2.570   7.489
  188SLPC  C21021695   3.360   2.736   7.569
  188SLPC  H10R21696   3.281   2.799   7.526
  188SLPC  C21121697   3.465   2.805   7.654
  188SLPC  H11R21698   3.498   2.732   7.731
  188SLPC  H11S21699   3.418   2.888   7.712
  188SLPC  C21221700   3.582   2.856   7.574
  188SLPC  H12R21701   3.603   2.780   7.498
  188SLPC  C21321702   3.633   2.982   7.579
  188SLPC  H13R21703   3.720   2.999   7.514
  188SLPC  C21421704   3.604   3.089   7.680
  188SLPC  H14R21705   3.598   3.030   7.774
  188SLPC  H14S21706   3.511   3.142   7.647
  188SLPC  C21521707   3.714   3.196   7.704
  188SLPC  H15R21708   3.706   3.271   7.622
  188SLPC  H15S21709   3.817   3.155   7.701
  188SLPC  C21621710   3.692   3.263   7.843
  188SLPC  H16R21711   3.583   3.274   7.859
  188SLPC  H16S21712   3.733   3.366   7.840
  188SLPC  C21721713   3.752   3.202   7.974
  188SLPC  H17R21714   3.714   3.098   7.990
  188SLPC  H17S21715   3.722   3.265   8.061
  188SLPC  C21821716   3.901   3.199   7.980
  188SLPC  H18R21717   3.943   3.239   7.886
  188SLPC  H18S21718   3.940   3.095   7.987
  188SLPC  H18T21719   3.925   3.257   8.072
  188SLPC   C3321720   3.375   2.774   6.744
  188SLPC   H3X21721   3.460   2.841   6.717
  188SLPC   H3Y21722   3.442   2.699   6.792
  188SLPC   C3421723   3.296   2.840   6.854
  188SLPC   H4X21724   3.205   2.778   6.869
  188SLPC   H4Y21725   3.263   2.938   6.814
  188SLPC   C3521726   3.348   2.839   6.998
  188SLPC   H5X21727   3.454   2.871   7.007
  188SLPC   H5Y21728   3.342   2.735   7.038
  188SLPC   C3621729   3.260   2.936   7.089
  188SLPC   H6X21730   3.151   2.915   7.084
  188SLPC   H6Y21731   3.266   3.034   7.036
  188SLPC   C3721732   3.304   2.951   7.230
  188SLPC   H7X21733   3.411   2.981   7.232
  188SLPC   H7Y21734   3.299   2.856   7.288
  188SLPC   C3821735   3.226   3.062   7.304
  188SLPC   H8X21736   3.126   3.014   7.313
  188SLPC   H8Y21737   3.208   3.155   7.247
  188SLPC   C3921738   3.282   3.091   7.446
  188SLPC   H9X21739   3.371   3.157   7.439
  188SLPC   H9Y21740   3.316   2.994   7.487
  188SLPC  C31021741   3.189   3.141   7.555
  188SLPC  H10X21742   3.105   3.070   7.545
  188SLPC  H10Y21743   3.148   3.240   7.525
  188SLPC  C31121744   3.259   3.154   7.688
  188SLPC  H11X21745   3.335   3.234   7.679
  188SLPC  H11Y21746   3.318   3.062   7.708
  188SLPC  C31221747   3.170   3.192   7.812
  188SLPC  H12X21748   3.092   3.118   7.841
  188SLPC  H12Y21749   3.109   3.279   7.778
  188SLPC  C31321750   3.232   3.224   7.944
  188SLPC  H13X21751   3.152   3.232   8.021
  188SLPC  H13Y21752   3.283   3.322   7.930
  188SLPC  C31421753   3.342   3.124   7.981
  188SLPC  H14X21754   3.387   3.155   8.077
  188SLPC  H14Y21755   3.421   3.114   7.904
  188SLPC  C31521756   3.281   2.983   8.005
  188SLPC  H15X21757   3.210   2.962   7.921
  188SLPC  H15Y21758   3.220   2.982   8.098
  188SLPC  C31621759   3.379   2.867   8.016
  188SLPC  H16X21760   3.436   2.855   8.111
  188SLPC  H16Y21761   3.455   2.878   7.936
  188SLPC  C31721762   3.316   2.727   7.993
  188SLPC  H17X21763   3.256   2.731   7.899
  188SLPC  H17Y21764   3.247   2.713   8.078
  188SLPC  C31821765   3.412   2.611   7.992
  188SLPC  H18X21766   3.370   2.516   7.955
  188SLPC  H18Y21767   3.445   2.588   8.096
  188SLPC  H18Z21768   3.508   2.630   7.939
  189SLPC     N21769   5.835   4.958   6.070
  189SLPC   C1321770   5.820   4.971   6.220
  189SLPC  H13A21771   5.735   5.034   6.243
  189SLPC  H13B21772   5.815   4.875   6.269
  189SLPC  H13C21773   5.904   5.018   6.268
  189SLPC   C1421774   5.823   5.090   6.013
  189SLPC  H14A21775   5.736   5.146   6.045
  189SLPC  H14B21776   5.907   5.149   6.044
  189SLPC  H14C21777   5.821   5.080   5.905
  189SLPC   C1521778   5.734   4.872   6.012
  189SLPC  H15A21779   5.701   4.796   6.082
  189SLPC  H15B21780   5.647   4.926   5.976
  189SLPC  H15C21781   5.777   4.821   5.927
  189SLPC   C1221782   5.969   4.894   6.047
  189SLPC  H12A21783   6.003   4.883   5.945
  189SLPC  H12B21784   5.961   4.791   6.079
  189SLPC   C1121785   6.093   4.955   6.118
  189SLPC  H11A21786   6.116   5.056   6.078
  189SLPC  H11B21787   6.173   4.887   6.084
  189SLPC     P21788   6.193   5.035   6.350
  189SLPC   O1321789   6.327   4.971   6.334
  189SLPC   O1421790   6.182   5.181   6.311
  189SLPC   O1221791   6.087   4.955   6.265
  189SLPC   O1121792   6.145   5.015   6.500
  189SLPC    C121793   6.001   5.025   6.512
  189SLPC    HA21794   5.962   5.128   6.495
  189SLPC    HB21795   5.948   4.948   6.451
  189SLPC    C221796   5.939   4.986   6.650
  189SLPC    HS21797   5.836   5.027   6.640
  189SLPC   O2121798   6.010   5.050   6.761
  189SLPC   C2121799   5.941   5.077   6.869
  189SLPC   O2221800   5.814   5.065   6.874
  189SLPC   C2221801   6.030   5.127   6.983
  189SLPC   H2R21802   6.129   5.160   6.943
  189SLPC   H2S21803   5.987   5.223   7.019
  189SLPC    C321804   5.920   4.832   6.669
  189SLPC    HX21805   6.022   4.790   6.655
  189SLPC    HY21806   5.855   4.795   6.587
  189SLPC   O3121807   5.873   4.799   6.801
  189SLPC   C3121808   5.738   4.799   6.805
  189SLPC   O3221809   5.662   4.834   6.715
  189SLPC   C3221810   5.678   4.745   6.940
  189SLPC   H2X21811   5.762   4.724   7.009
  189SLPC   H2Y21812   5.625   4.651   6.916
  189SLPC   C2321813   6.042   5.020   7.091
  189SLPC   H3R21814   6.125   5.045   7.161
  189SLPC   H3S21815   6.043   4.917   7.049
  189SLPC   C2421816   5.924   5.025   7.186
  189SLPC   H4R21817   5.829   4.994   7.137
  189SLPC   H4S21818   5.920   5.133   7.212
  189SLPC   C2521819   5.951   4.945   7.318
  189SLPC   H5R21820   6.037   4.996   7.367
  189SLPC   H5S21821   5.973   4.840   7.291
  189SLPC   C2621822   5.824   4.954   7.402
  189SLPC   H6R21823   5.750   4.895   7.344
  189SLPC   H6S21824   5.779   5.055   7.408
  189SLPC   C2721825   5.849   4.903   7.541
  189SLPC   H7R21826   5.915   4.976   7.591
  189SLPC   H7S21827   5.910   4.810   7.545
  189SLPC   C2821828   5.715   4.863   7.613
  189SLPC   H8R21829   5.655   4.956   7.615
  189SLPC   H8S21830   5.732   4.842   7.721
  189SLPC   C2921831   5.645   4.742   7.555
  189SLPC   H9R21832   5.618   4.731   7.449
  189SLPC  C21021833   5.590   4.642   7.630
  189SLPC  H10R21834   5.533   4.562   7.581
  189SLPC  C21121835   5.590   4.632   7.782
  189SLPC  H11R21836   5.694   4.620   7.820
  189SLPC  H11S21837   5.537   4.537   7.805
  189SLPC  C21221838   5.522   4.739   7.862
  189SLPC  H12R21839   5.539   4.842   7.828
  189SLPC  C21321840   5.436   4.730   7.970
  189SLPC  H13R21841   5.385   4.824   7.997
  189SLPC  C21421842   5.393   4.600   8.042
  189SLPC  H14R21843   5.418   4.513   7.977
  189SLPC  H14S21844   5.283   4.596   8.052
  189SLPC  C21521845   5.456   4.571   8.182
  189SLPC  H15R21846   5.560   4.608   8.189
  189SLPC  H15S21847   5.453   4.461   8.194
  189SLPC  C21621848   5.367   4.626   8.295
  189SLPC  H16R21849   5.259   4.603   8.281
  189SLPC  H16S21850   5.382   4.735   8.308
  189SLPC  C21721851   5.400   4.555   8.426
  189SLPC  H17R21852   5.502   4.582   8.460
  189SLPC  H17S21853   5.386   4.446   8.405
  189SLPC  C21821854   5.306   4.606   8.533
  189SLPC  H18R21855   5.297   4.528   8.612
  189SLPC  H18S21856   5.210   4.634   8.486
  189SLPC  H18T21857   5.348   4.697   8.580
  189SLPC   C3321858   5.591   4.852   7.010
  189SLPC   H3X21859   5.512   4.871   6.933
  189SLPC   H3Y21860   5.645   4.946   7.033
  189SLPC   C3421861   5.519   4.815   7.146
  189SLPC   H4X21862   5.480   4.911   7.185
  189SLPC   H4Y21863   5.593   4.772   7.217
  189SLPC   C3521864   5.395   4.728   7.136
  189SLPC   H5X21865   5.437   4.641   7.082
  189SLPC   H5Y21866   5.315   4.773   7.073
  189SLPC   C3621867   5.328   4.688   7.267
  189SLPC   H6X21868   5.405   4.669   7.345
  189SLPC   H6Y21869   5.271   4.593   7.260
  189SLPC   C3721870   5.236   4.801   7.331
  189SLPC   H7X21871   5.166   4.823   7.248
  189SLPC   H7Y21872   5.297   4.890   7.356
  189SLPC   C3821873   5.165   4.746   7.452
  189SLPC   H8X21874   5.235   4.708   7.529
  189SLPC   H8Y21875   5.097   4.662   7.425
  189SLPC   C3921876   5.071   4.853   7.519
  189SLPC   H9X21877   4.998   4.886   7.442
  189SLPC   H9Y21878   5.127   4.946   7.540
  189SLPC  C31021879   4.998   4.803   7.642
  189SLPC  H10X21880   4.953   4.703   7.626
  189SLPC  H10Y21881   4.918   4.876   7.666
  189SLPC  C31121882   5.091   4.785   7.771
  189SLPC  H11X21883   5.169   4.860   7.746
  189SLPC  H11Y21884   5.139   4.689   7.799
  189SLPC  C31221885   5.016   4.834   7.904
  189SLPC  H12X21886   4.983   4.940   7.896
  189SLPC  H12Y21887   5.092   4.826   7.985
  189SLPC  C31321888   4.905   4.741   7.952
  189SLPC  H13X21889   4.925   4.635   7.928
  189SLPC  H13Y21890   4.811   4.770   7.899
  189SLPC  C31421891   4.888   4.744   8.104
  189SLPC  H14X21892   4.863   4.848   8.136
  189SLPC  H14Y21893   4.989   4.729   8.147
  189SLPC  C31521894   4.794   4.631   8.154
  189SLPC  H15X21895   4.810   4.531   8.106
  189SLPC  H15Y21896   4.686   4.648   8.136
  189SLPC  C31621897   4.803   4.598   8.300
  189SLPC  H16X21898   4.746   4.503   8.316
  189SLPC  H16Y21899   4.758   4.674   8.367
  189SLPC  C31721900   4.940   4.569   8.356
  189SLPC  H17X21901   5.003   4.660   8.367
  189SLPC  H17Y21902   4.992   4.494   8.293
  189SLPC  C31821903   4.923   4.495   8.487
  189SLPC  H18X21904   4.917   4.566   8.573
  189SLPC  H18Y21905   5.013   4.430   8.500
  189SLPC  H18Z21906   4.838   4.425   8.482
  190SLPC     N21907   6.062   4.180   6.571
  190SLPC   C1321908   6.054   4.325   6.543
  190SLPC  H13A21909   6.116   4.337   6.455
  190SLPC  H13B21910   5.953   4.355   6.519
  190SLPC  H13C21911   6.098   4.385   6.621
  190SLPC   C1421912   5.996   4.096   6.461
  190SLPC  H14A21913   6.062   4.081   6.376
  190SLPC  H14B21914   5.973   3.997   6.495
  190SLPC  H14C21915   5.905   4.144   6.429
  190SLPC   C1521916   5.974   4.150   6.693
  190SLPC  H15A21917   5.997   4.047   6.716
  190SLPC  H15B21918   6.000   4.218   6.773
  190SLPC  H15C21919   5.869   4.162   6.672
  190SLPC   C1221920   6.208   4.136   6.596
  190SLPC  H12A21921   6.197   4.039   6.641
  190SLPC  H12B21922   6.252   4.186   6.681
  190SLPC   C1121923   6.308   4.143   6.481
  190SLPC  H11A21924   6.409   4.151   6.526
  190SLPC  H11B21925   6.293   4.236   6.421
  190SLPC     P21926   6.385   3.924   6.361
  190SLPC   O1321927   6.388   3.905   6.210
  190SLPC   O1421928   6.518   3.959   6.421
  190SLPC   O1221929   6.270   4.028   6.397
  190SLPC   O1121930   6.329   3.796   6.428
  190SLPC    C121931   6.201   3.748   6.405
  190SLPC    HA21932   6.150   3.802   6.323
  190SLPC    HB21933   6.207   3.640   6.380
  190SLPC    C221934   6.117   3.761   6.529
  190SLPC    HS21935   6.111   3.872   6.541
  190SLPC   O2121936   6.198   3.703   6.636
  190SLPC   C2121937   6.194   3.771   6.747
  190SLPC   O2221938   6.133   3.876   6.769
  190SLPC   C2221939   6.265   3.694   6.858
  190SLPC   H2R21940   6.206   3.601   6.869
  190SLPC   H2S21941   6.361   3.659   6.816
  190SLPC    C321942   5.970   3.697   6.518
  190SLPC    HX21943   5.991   3.593   6.485
  190SLPC    HY21944   5.915   3.757   6.441
  190SLPC   O3121945   5.901   3.702   6.646
  190SLPC   C3121946   5.813   3.793   6.660
  190SLPC   O3221947   5.789   3.890   6.589
  190SLPC   C3221948   5.739   3.753   6.785
  190SLPC   H2X21949   5.789   3.679   6.852
  190SLPC   H2Y21950   5.650   3.704   6.740
  190SLPC   C2321951   6.280   3.777   6.993
  190SLPC   H3R21952   6.311   3.879   6.961
  190SLPC   H3S21953   6.358   3.727   7.055
  190SLPC   C2421954   6.154   3.787   7.078
  190SLPC   H4R21955   6.127   3.688   7.120
  190SLPC   H4S21956   6.068   3.814   7.011
  190SLPC   C2521957   6.167   3.886   7.196
  190SLPC   H5R21958   6.172   3.985   7.146
  190SLPC   H5S21959   6.262   3.857   7.245
  190SLPC   C2621960   6.050   3.890   7.293
  190SLPC   H6R21961   6.057   3.973   7.366
  190SLPC   H6S21962   6.054   3.802   7.361
  190SLPC   C2721963   5.909   3.899   7.232
  190SLPC   H7R21964   5.888   3.806   7.173
  190SLPC   H7S21965   5.906   3.980   7.155
  190SLPC   C2821966   5.795   3.922   7.334
  190SLPC   H8R21967   5.706   3.929   7.268
  190SLPC   H8S21968   5.812   4.020   7.384
  190SLPC   C2921969   5.793   3.801   7.428
  190SLPC   H9R21970   5.735   3.717   7.387
  190SLPC  C21021971   5.842   3.795   7.555
  190SLPC  H10R21972   5.822   3.699   7.606
  190SLPC  C21121973   5.917   3.900   7.632
  190SLPC  H11R21974   5.856   3.958   7.705
  190SLPC  H11S21975   5.965   3.977   7.569
  190SLPC  C21221976   6.022   3.835   7.710
  190SLPC  H12R21977   6.070   3.753   7.655
  190SLPC  C21321978   6.039   3.844   7.845
  190SLPC  H13R21979   6.141   3.817   7.876
  190SLPC  C21421980   5.951   3.925   7.953
  190SLPC  H14R21981   5.869   3.874   8.008
  190SLPC  H14S21982   5.906   4.014   7.904
  190SLPC  C21521983   6.031   3.977   8.076
  190SLPC  H15R21984   6.118   4.041   8.049
  190SLPC  H15S21985   6.077   3.888   8.123
  190SLPC  C21621986   5.951   4.054   8.182
  190SLPC  H16R21987   5.880   3.993   8.241
  190SLPC  H16S21988   5.886   4.134   8.138
  190SLPC  C21721989   6.030   4.125   8.290
  190SLPC  H17R21990   6.102   4.193   8.238
  190SLPC  H17S21991   6.076   4.044   8.350
  190SLPC  C21821992   5.934   4.198   8.383
  190SLPC  H18R21993   5.859   4.122   8.414
  190SLPC  H18S21994   5.883   4.281   8.330
  190SLPC  H18T21995   5.989   4.227   8.475
  190SLPC   C3321996   5.687   3.883   6.858
  190SLPC   H3X21997   5.622   3.941   6.788
  190SLPC   H3Y21998   5.779   3.940   6.880
  190SLPC   C3421999   5.602   3.846   6.977
  190SLPC   H4X22000   5.604   3.938   7.040
  190SLPC   H4Y22001   5.646   3.760   7.032
  190SLPC   C3522002   5.459   3.829   6.947
  190SLPC   H5X22003   5.451   3.718   6.938
  190SLPC   H5Y22004   5.415   3.876   6.856
  190SLPC   C3622005   5.364   3.874   7.066
  190SLPC   H6X22006   5.258   3.853   7.040
  190SLPC   H6Y22007   5.370   3.984   7.080
  190SLPC   C3722008   5.399   3.809   7.200
  190SLPC   H7X22009   5.490   3.854   7.244
  190SLPC   H7Y22010   5.424   3.701   7.186
  190SLPC   C3822011   5.282   3.806   7.301
  190SLPC   H8X22012   5.190   3.757   7.260
  190SLPC   H8Y22013   5.241   3.908   7.318
  190SLPC   C3922014   5.315   3.757   7.446
  190SLPC   H9X22015   5.419   3.788   7.470
  190SLPC   H9Y22016   5.312   3.646   7.445
  190SLPC  C31022017   5.214   3.803   7.551
  190SLPC  H10X22018   5.113   3.770   7.520
  190SLPC  H10Y22019   5.226   3.913   7.558
  190SLPC  C31122020   5.225   3.746   7.695
  190SLPC  H11X22021   5.320   3.780   7.741
  190SLPC  H11Y22022   5.246   3.637   7.698
  190SLPC  C31222023   5.101   3.795   7.773
  190SLPC  H12X22024   5.023   3.736   7.719
  190SLPC  H12Y22025   5.084   3.902   7.749
  190SLPC  C31322026   5.103   3.763   7.923
  190SLPC  H13X22027   5.174   3.836   7.967
  190SLPC  H13Y22028   5.137   3.659   7.945
  190SLPC  C31422029   4.960   3.774   7.984
  190SLPC  H14X22030   4.883   3.705   7.944
  190SLPC  H14Y22031   4.923   3.877   7.969
  190SLPC  C31522032   4.967   3.738   8.135
  190SLPC  H15X22033   5.016   3.638   8.141
  190SLPC  H15Y22034   4.859   3.734   8.161
  190SLPC  C31622035   5.041   3.837   8.228
  190SLPC  H16X22036   5.005   3.938   8.199
  190SLPC  H16Y22037   5.146   3.833   8.194
  190SLPC  C31722038   5.041   3.791   8.381
  190SLPC  H17X22039   5.078   3.689   8.403
  190SLPC  H17Y22040   4.941   3.787   8.430
  190SLPC  C31822041   5.116   3.891   8.478
  190SLPC  H18X22042   5.224   3.877   8.456
  190SLPC  H18Y22043   5.104   3.879   8.587
  190SLPC  H18Z22044   5.091   3.994   8.445
  191SLPC     N22045   6.149   5.926   5.849
  191SLPC   C1322046   6.195   5.964   5.986
  191SLPC  H13A22047   6.114   5.939   6.053
  191SLPC  H13B22048   6.292   5.925   6.013
  191SLPC  H13C22049   6.209   6.071   5.981
  191SLPC   C1422050   6.102   5.784   5.841
  191SLPC  H14A22051   6.154   5.725   5.915
  191SLPC  H14B22052   5.998   5.791   5.867
  191SLPC  H14C22053   6.111   5.742   5.742
  191SLPC   C1522054   6.270   5.937   5.763
  191SLPC  H15A22055   6.350   5.872   5.794
  191SLPC  H15B22056   6.245   5.891   5.668
  191SLPC  H15C22057   6.304   6.039   5.750
  191SLPC   C1222058   6.040   6.014   5.798
  191SLPC  H12A22059   5.999   5.952   5.719
  191SLPC  H12B22060   6.091   6.101   5.761
  191SLPC   C1122061   5.924   6.035   5.893
  191SLPC  H11A22062   5.859   6.108   5.840
  191SLPC  H11B22063   5.955   6.104   5.973
  191SLPC     P22064   5.735   5.855   5.860
  191SLPC   O1322065   5.771   5.835   5.720
  191SLPC   O1422066   5.691   5.727   5.929
  191SLPC   O1222067   5.856   5.919   5.941
  191SLPC   O1122068   5.624   5.959   5.868
  191SLPC    C122069   5.514   5.945   5.965
  191SLPC    HA22070   5.425   6.002   5.930
  191SLPC    HB22071   5.463   5.847   5.961
  191SLPC    C222072   5.524   5.976   6.114
  191SLPC    HS22073   5.422   6.013   6.137
  191SLPC   O2122074   5.623   6.075   6.136
  191SLPC   C2122075   5.602   6.195   6.087
  191SLPC   O2222076   5.497   6.234   6.034
  191SLPC   C2222077   5.718   6.294   6.122
  191SLPC   H2R22078   5.814   6.248   6.155
  191SLPC   H2S22079   5.740   6.357   6.033
  191SLPC    C322080   5.544   5.857   6.207
  191SLPC    HX22081   5.635   5.799   6.181
  191SLPC    HY22082   5.459   5.792   6.178
  191SLPC   O3122083   5.545   5.896   6.348
  191SLPC   C3122084   5.652   5.928   6.413
  191SLPC   O3222085   5.760   5.939   6.361
  191SLPC   C3222086   5.628   5.925   6.566
  191SLPC   H2X22087   5.588   5.825   6.591
  191SLPC   H2Y22088   5.566   6.011   6.600
  191SLPC   C2322089   5.668   6.385   6.235
  191SLPC   H3R22090   5.559   6.402   6.225
  191SLPC   H3S22091   5.716   6.484   6.229
  191SLPC   C2422092   5.683   6.324   6.374
  191SLPC   H4R22093   5.785   6.279   6.379
  191SLPC   H4S22094   5.621   6.233   6.390
  191SLPC   C2522095   5.648   6.430   6.481
  191SLPC   H5R22096   5.538   6.443   6.483
  191SLPC   H5S22097   5.675   6.531   6.443
  191SLPC   C2622098   5.687   6.384   6.624
  191SLPC   H6R22099   5.794   6.400   6.650
  191SLPC   H6S22100   5.659   6.278   6.642
  191SLPC   C2722101   5.595   6.462   6.712
  191SLPC   H7R22102   5.489   6.435   6.694
  191SLPC   H7S22103   5.597   6.571   6.689
  191SLPC   C2822104   5.630   6.443   6.859
  191SLPC   H8R22105   5.615   6.337   6.888
  191SLPC   H8S22106   5.542   6.489   6.910
  191SLPC   C2922107   5.758   6.502   6.918
  191SLPC   H9R22108   5.849   6.441   6.912
  191SLPC  C21022109   5.765   6.626   6.981
  191SLPC  H10R22110   5.866   6.659   7.009
  191SLPC  C21122111   5.659   6.736   7.007
  191SLPC  H11R22112   5.574   6.722   6.936
  191SLPC  H11S22113   5.693   6.836   6.975
  191SLPC  C21222114   5.610   6.737   7.149
  191SLPC  H12R22115   5.693   6.741   7.221
  191SLPC  C21322116   5.484   6.735   7.193
  191SLPC  H13R22117   5.470   6.736   7.302
  191SLPC  C21422118   5.358   6.747   7.106
  191SLPC  H14R22119   5.264   6.726   7.160
  191SLPC  H14S22120   5.354   6.667   7.030
  191SLPC  C21522121   5.347   6.883   7.037
  191SLPC  H15R22122   5.275   6.893   6.953
  191SLPC  H15S22123   5.442   6.901   6.982
  191SLPC  C21622124   5.317   7.004   7.132
  191SLPC  H16R22125   5.389   7.010   7.217
  191SLPC  H16S22126   5.216   6.996   7.177
  191SLPC  C21722127   5.315   7.145   7.067
  191SLPC  H17R22128   5.265   7.222   7.130
  191SLPC  H17S22129   5.248   7.152   6.979
  191SLPC  C21822130   5.457   7.183   7.012
  191SLPC  H18R22131   5.470   7.136   6.912
  191SLPC  H18S22132   5.540   7.133   7.066
  191SLPC  H18T22133   5.470   7.293   7.003
  191SLPC   C3322134   5.761   5.952   6.633
  191SLPC   H3X22135   5.792   6.058   6.622
  191SLPC   H3Y22136   5.842   5.888   6.590
  191SLPC   C3422137   5.733   5.923   6.780
  191SLPC   H4X22138   5.737   5.817   6.812
  191SLPC   H4Y22139   5.630   5.955   6.809
  191SLPC   C3522140   5.840   5.990   6.868
  191SLPC   H5X22141   5.851   6.098   6.846
  191SLPC   H5Y22142   5.936   5.938   6.846
  191SLPC   C3622143   5.803   5.987   7.013
  191SLPC   H6X22144   5.752   5.890   7.030
  191SLPC   H6Y22145   5.720   6.058   7.034
  191SLPC   C3722146   5.931   5.992   7.099
  191SLPC   H7X22147   5.988   6.084   7.073
  191SLPC   H7Y22148   5.994   5.906   7.065
  191SLPC   C3822149   5.921   5.982   7.255
  191SLPC   H8X22150   6.022   5.958   7.293
  191SLPC   H8Y22151   5.857   5.897   7.285
  191SLPC   C3922152   5.856   6.105   7.323
  191SLPC   H9X22153   5.831   6.076   7.427
  191SLPC   H9Y22154   5.757   6.110   7.271
  191SLPC  C31022155   5.927   6.237   7.319
  191SLPC  H10X22156   5.927   6.266   7.212
  191SLPC  H10Y22157   6.033   6.224   7.350
  191SLPC  C31122158   5.856   6.357   7.396
  191SLPC  H11X22159   5.855   6.350   7.507
  191SLPC  H11Y22160   5.748   6.348   7.371
  191SLPC  C31222161   5.924   6.488   7.365
  191SLPC  H12X22162   5.899   6.511   7.259
  191SLPC  H12Y22163   6.033   6.466   7.356
  191SLPC  C31322164   5.893   6.601   7.463
  191SLPC  H13X22165   5.920   6.699   7.417
  191SLPC  H13Y22166   5.947   6.582   7.558
  191SLPC  C31422167   5.740   6.604   7.490
  191SLPC  H14X22168   5.708   6.513   7.545
  191SLPC  H14Y22169   5.691   6.589   7.391
  191SLPC  C31522170   5.684   6.724   7.566
  191SLPC  H15X22171   5.573   6.722   7.568
  191SLPC  H15Y22172   5.722   6.818   7.520
  191SLPC  C31622173   5.737   6.745   7.707
  191SLPC  H16X22174   5.845   6.721   7.711
  191SLPC  H16Y22175   5.696   6.660   7.765
  191SLPC  C31722176   5.704   6.880   7.770
  191SLPC  H17X22177   5.598   6.899   7.744
  191SLPC  H17Y22178   5.758   6.951   7.704
  191SLPC  C31822179   5.736   6.896   7.917
  191SLPC  H18X22180   5.681   6.817   7.972
  191SLPC  H18Y22181   5.687   6.991   7.949
  191SLPC  H18Z22182   5.843   6.898   7.948
  192SLPC     N22183   5.530   0.076   6.341
  192SLPC   C1322184   5.430  -0.034   6.359
  192SLPC  H13A22185   5.475  -0.131   6.378
  192SLPC  H13B22186   5.361  -0.013   6.439
  192SLPC  H13C22187   5.368  -0.038   6.270
  192SLPC   C1422188   5.450   0.190   6.281
  192SLPC  H14A22189   5.509   0.258   6.222
  192SLPC  H14B22190   5.368   0.166   6.215
  192SLPC  H14C22191   5.394   0.233   6.362
  192SLPC   C1522192   5.634   0.045   6.244
  192SLPC  H15A22193   5.694   0.136   6.249
  192SLPC  H15B22194   5.706  -0.031   6.269
  192SLPC  H15C22195   5.587   0.023   6.149
  192SLPC   C1222196   5.578   0.122   6.480
  192SLPC  H12A22197   5.494   0.154   6.541
  192SLPC  H12B22198   5.637   0.209   6.456
  192SLPC   C1122199   5.679   0.035   6.561
  192SLPC  H11A22200   5.649  -0.071   6.549
  192SLPC  H11B22201   5.663   0.072   6.665
  192SLPC     P22202   5.911   0.172   6.528
  192SLPC   O1322203   6.050   0.132   6.503
  192SLPC   O1422204   5.861   0.285   6.447
  192SLPC   O1222205   5.810   0.052   6.513
  192SLPC   O1122206   5.894   0.202   6.686
  192SLPC    C122207   5.911   0.099   6.783
  192SLPC    HA22208   5.814   0.079   6.835
  192SLPC    HB22209   5.935   0.008   6.724
  192SLPC    C222210   6.013   0.120   6.910
  192SLPC    HS22211   6.011   0.032   6.977
  192SLPC   O2122212   5.957   0.230   6.991
  192SLPC   C2122213   5.893   0.200   7.104
  192SLPC   O2222214   5.872   0.092   7.154
  192SLPC   C2222215   5.853   0.332   7.167
  192SLPC   H2R22216   5.947   0.374   7.209
  192SLPC   H2S22217   5.816   0.397   7.085
  192SLPC    C322218   6.161   0.149   6.864
  192SLPC    HX22219   6.155   0.232   6.791
  192SLPC    HY22220   6.199   0.069   6.797
  192SLPC   O3122221   6.252   0.153   6.981
  192SLPC   C3122222   6.258   0.280   7.032
  192SLPC   O3222223   6.198   0.373   6.992
  192SLPC   C3222224   6.356   0.287   7.150
  192SLPC   H2X22225   6.424   0.374   7.137
  192SLPC   H2Y22226   6.413   0.192   7.156
  192SLPC   C2322227   5.753   0.306   7.282
  192SLPC   H3R22228   5.794   0.228   7.350
  192SLPC   H3S22229   5.663   0.269   7.229
  192SLPC   C2422230   5.726   0.436   7.356
  192SLPC   H4R22231   5.652   0.498   7.302
  192SLPC   H4S22232   5.820   0.495   7.364
  192SLPC   C2522233   5.657   0.414   7.491
  192SLPC   H5R22234   5.648   0.512   7.541
  192SLPC   H5S22235   5.730   0.357   7.553
  192SLPC   C2622236   5.522   0.345   7.481
  192SLPC   H6R22237   5.526   0.234   7.469
  192SLPC   H6S22238   5.466   0.371   7.389
  192SLPC   C2722239   5.439   0.386   7.600
  192SLPC   H7R22240   5.429   0.496   7.589
  192SLPC   H7S22241   5.500   0.355   7.687
  192SLPC   C2822242   5.300   0.322   7.601
  192SLPC   H8R22243   5.254   0.365   7.509
  192SLPC   H8S22244   5.249   0.371   7.686
  192SLPC   C2922245   5.296   0.168   7.609
  192SLPC   H9R22246   5.313   0.105   7.520
  192SLPC  C21022247   5.267   0.086   7.713
  192SLPC  H10R22248   5.294  -0.020   7.718
  192SLPC  C21122249   5.221   0.128   7.846
  192SLPC  H11R22250   5.138   0.058   7.868
  192SLPC  H11S22251   5.173   0.228   7.841
  192SLPC  C21222252   5.328   0.118   7.953
  192SLPC  H12R22253   5.434   0.108   7.925
  192SLPC  C21322254   5.300   0.133   8.084
  192SLPC  H13R22255   5.389   0.138   8.148
  192SLPC  C21422256   5.164   0.144   8.145
  192SLPC  H14R22257   5.146   0.076   8.230
  192SLPC  H14S22258   5.081   0.119   8.075
  192SLPC  C21522259   5.124   0.285   8.198
  192SLPC  H15R22260   5.018   0.280   8.232
  192SLPC  H15S22261   5.131   0.363   8.119
  192SLPC  C21622262   5.205   0.333   8.315
  192SLPC  H16R22263   5.307   0.349   8.274
  192SLPC  H16S22264   5.209   0.246   8.384
  192SLPC  C21722265   5.140   0.449   8.389
  192SLPC  H17R22266   5.203   0.473   8.478
  192SLPC  H17S22267   5.133   0.539   8.324
  192SLPC  C21822268   5.003   0.429   8.458
  192SLPC  H18R22269   4.926   0.458   8.383
  192SLPC  H18S22270   4.986   0.467   8.561
  192SLPC  H18T22271   4.996   0.323   8.489
  192SLPC   C3322272   6.268   0.306   7.272
  192SLPC   H3X22273   6.203   0.217   7.287
  192SLPC   H3Y22274   6.197   0.391   7.266
  192SLPC   C3422275   6.352   0.335   7.400
  192SLPC   H4X22276   6.393   0.438   7.393
  192SLPC   H4Y22277   6.439   0.265   7.407
  192SLPC   C3522278   6.268   0.292   7.527
  192SLPC   H5X22279   6.223   0.193   7.505
  192SLPC   H5Y22280   6.180   0.360   7.533
  192SLPC   C3622281   6.360   0.286   7.652
  192SLPC   H6X22282   6.417   0.381   7.657
  192SLPC   H6Y22283   6.435   0.204   7.644
  192SLPC   C3722284   6.269   0.271   7.777
  192SLPC   H7X22285   6.231   0.166   7.772
  192SLPC   H7Y22286   6.189   0.347   7.768
  192SLPC   C3822287   6.336   0.298   7.912
  192SLPC   H8X22288   6.373   0.402   7.907
  192SLPC   H8Y22289   6.420   0.226   7.921
  192SLPC   C3922290   6.231   0.298   8.027
  192SLPC   H9X22291   6.158   0.381   8.015
  192SLPC   H9Y22292   6.288   0.319   8.119
  192SLPC  C31022293   6.161   0.164   8.040
  192SLPC  H10X22294   6.243   0.094   8.067
  192SLPC  H10Y22295   6.110   0.129   7.949
  192SLPC  C31122296   6.065   0.154   8.151
  192SLPC  H11X22297   6.042   0.050   8.183
  192SLPC  H11Y22298   5.962   0.191   8.134
  192SLPC  C31222299   6.098   0.242   8.275
  192SLPC  H12X22300   6.091   0.349   8.247
  192SLPC  H12Y22301   6.205   0.223   8.298
  192SLPC  C31322302   6.013   0.222   8.405
  192SLPC  H13X22303   6.040   0.123   8.448
  192SLPC  H13Y22304   5.912   0.197   8.366
  192SLPC  C31422305   6.016   0.350   8.493
  192SLPC  H14X22306   6.011   0.441   8.430
  192SLPC  H14Y22307   6.119   0.354   8.536
  192SLPC  C31522308   5.919   0.366   8.602
  192SLPC  H15X22309   5.927   0.274   8.663
  192SLPC  H15Y22310   5.815   0.364   8.565
  192SLPC  C31622311   5.953   0.491   8.688
  192SLPC  H16X22312   5.987   0.580   8.632
  192SLPC  H16Y22313   6.030   0.461   8.762
  192SLPC  C31722314   5.823   0.546   8.765
  192SLPC  H17X22315   5.782   0.475   8.840
  192SLPC  H17Y22316   5.744   0.577   8.694
  192SLPC  C31822317   5.856   0.675   8.848
  192SLPC  H18X22318   5.768   0.707   8.908
  192SLPC  H18Y22319   5.852   0.759   8.775
  192SLPC  H18Z22320   5.951   0.666   8.904
  193SOD    SOD22321   4.019   5.869   6.021
  194SOD    SOD22322   3.664   1.195   0.848
  195SOD    SOD22323   2.445   3.212  12.707
  196SOD    SOD22324   4.530   6.487   5.787
  197SOD    SOD22325   5.321   4.201  12.309
  198SOD    SOD22326   4.300   3.903  11.361
  199SOD    SOD22327   5.016   5.771   4.376
  200SOD    SOD22328   4.525   4.367  14.716
  201SOD    SOD22329   3.644   2.968  13.149
  202SOD    SOD22330   0.602   1.036  11.005
  203SOD    SOD22331   2.922   4.841   4.797
  204SOD    SOD22332   5.390   4.748  13.918
  205SOD    SOD22333   1.687   0.252   2.497
  206SOD    SOD22334   1.923   2.160   0.603
  207SOD    SOD22335   0.855   1.842   1.034
  208SOD    SOD22336   1.766   2.421   3.430
  209SOD    SOD22337   3.664   5.965  15.635
  210SOD    SOD22338   5.759   3.150   4.895
  211SOD    SOD22339   0.788   1.835  11.553
  212SOD    SOD22340   3.835   1.055  12.897
  213SOD    SOD22341   0.916   4.739  11.728
  214SOD    SOD22342   0.927   2.964   6.694
  215SOD    SOD22343   5.115   5.513  13.286
  216SOD    SOD22344   5.288   3.014  11.495
  217SOD    SOD22345   5.099   1.870   5.277
  218SOD    SOD22346   0.032   4.928   1.517
  219SOD    SOD22347   0.798   2.939   5.245
  220SOD    SOD22348   1.983   5.696  10.680
  221SOD    SOD22349   6.664   4.931  16.752
  222SOD    SOD22350   4.997   4.512  12.953
  223SOD    SOD22351   1.800   0.845   2.989
  224SOD    SOD22352   6.304   2.226   3.385
  225SOD    SOD22353   5.750   1.262   2.853
  226SOD    SOD22354   0.614   5.437  12.417
  227SOD    SOD22355   3.819   0.232  12.757
  228SOD    SOD22356   0.406   2.156   2.731
  229SOD    SOD22357   4.388   3.356  10.643
  230SOD    SOD22358   0.360   6.599  15.295
  231SOD    SOD22359   6.602   1.797   2.072
  232SOD    SOD22360   1.370   4.635   6.300
  233SOD    SOD22361   2.443   0.080   1.086
  234SOD    SOD22362   3.926   1.526  11.847
  235SOD    SOD22363   3.617   0.183  16.191
  236SOD    SOD22364   2.583   6.425   3.258
  237SOD    SOD22365   6.812   4.265  10.630
  238SOD    SOD22366   2.138   5.691  13.497
  239SOD    SOD22367   5.344   1.371  14.731
  240SOD    SOD22368   4.583   3.176  16.860
  241SOD    SOD22369   4.266   2.045   4.315
  242SOD    SOD22370   4.514   4.820  16.837
  243SOD    SOD22371   0.780   2.201   6.568
  244SOD    SOD22372   4.593   6.283  15.140
  245SOD    SOD22373   5.763   5.289  14.613
  246SOD    SOD22374   1.957   1.591   5.861
  247SOD    SOD22375   2.913   1.273   3.491
  248SOD    SOD22376   6.303   0.172  15.687
  249SOD    SOD22377   4.657   5.059   5.399
  250SOD    SOD22378   2.765   3.606   4.461
  251SOD    SOD22379   3.641   3.642   3.403
  252SOD    SOD22380   5.731   5.234  10.750
  253SOD    SOD22381   4.964   1.379   4.944
  254SOD    SOD22382   1.656   6.109   6.343
  255SOD    SOD22383   6.403   5.593   2.160
  256SOD    SOD22384   1.268   2.118  13.552
  257SOD    SOD22385   4.003   4.977   3.757
  258SOD    SOD22386   4.704   3.930  12.191
  259SOD    SOD22387   0.431   3.927  15.279
  260SOD    SOD22388   2.485   0.225   5.848
  261SOD    SOD22389   4.457   1.987  13.612
  262SOD    SOD22390   2.059   0.729   2.558
  263SOD    SOD22391   0.376   6.523   6.155
  264SOD    SOD22392   6.456   4.536   3.631
  265SOD    SOD22393   6.114   0.464   4.002
  266CLA    CLA22394   2.817   0.405   3.030
  267CLA    CLA22395   0.308   5.576  16.930
  268CLA    CLA22396   2.575   2.947  16.125
  269CLA    CLA22397   5.991   5.054  15.880
  270CLA    CLA22398   3.065   1.470   3.975
  271CLA    CLA22399   2.401   3.446  13.176
  272CLA    CLA22400   3.019   0.466   2.462
  273CLA    CLA22401   4.491   5.124   4.319
  274CLA    CLA22402   4.890   0.643  16.994
  275CLA    CLA22403   5.330   4.080  14.132
  276CLA    CLA22404   2.677   4.493   4.643
  277CLA    CLA22405   1.980   0.835   1.110
  278CLA    CLA22406   0.858   4.393  12.421
  279CLA    CLA22407   2.422   1.848   1.765
  280CLA    CLA22408   1.788   5.466   4.293
  281CLA    CLA22409   4.805   4.688   2.836
  282CLA    CLA22410   0.842   4.596  15.999
  283CLA    CLA22411   4.631   0.982  12.797
  284CLA    CLA22412   0.221   0.771  14.819
  285CLA    CLA22413   0.193   6.156  15.456
  286CLA    CLA22414   6.373   0.240   3.707
  287CLA    CLA22415   2.059   2.807   0.921
  288CLA    CLA22416   3.221   0.924   4.885
  289CLA    CLA22417   1.270   5.491   5.759
  290CLA    CLA22418   4.809   1.375   4.448
  291CLA    CLA22419   4.039   3.213  12.548
  292CLA    CLA22420   1.557   3.376   3.955
  293CLA    CLA22421   1.951   6.332   5.277
  294CLA    CLA22422   3.775   6.680  15.828
  295CLA    CLA22423   2.073   0.339  11.454
  296CLA    CLA22424   3.908   1.295  12.212
  297CLA    CLA22425   3.934   3.901  13.386
  298CLA    CLA22426   3.274   0.305  13.485
  299CLA    CLA22427   1.294   5.119  14.621
  300CLA    CLA22428   4.126   0.116  12.336
  301CLA    CLA22429   0.533   3.523  14.773
  302CLA    CLA22430   1.104   2.118   4.397
  303CLA    CLA22431   1.184   3.698  13.979
  304CLA    CLA22432   2.723   2.425   3.689
  305CLA    CLA22433   5.202   1.619   0.441
  306CLA    CLA22434   2.096   1.313   0.824
  307CLA    CLA22435   5.201   0.474   0.895
  308CLA    CLA22436   1.236   5.359  13.150
  309CLA    CLA22437   0.967   1.870  15.629
  310CLA    CLA22438   6.147   4.722   5.416
  311CLA    CLA22439   4.032   2.854   3.660
  312CLA    CLA22440   5.384   2.717  11.980
  313CLA    CLA22441   2.159   0.097   3.546
  314CLA    CLA22442   5.362   0.380  11.855
  315CLA    CLA22443   0.363   2.143   2.464
  316CLA    CLA22444   1.616   1.861  15.555
  317CLA    CLA22445   0.104   3.746   1.434
  318CLA    CLA22446   0.811   5.876  17.192
  319TIP3   OH222447   1.948   6.149  11.685
  319TIP3    H122448   1.947   6.060  11.650
  319TIP3    H222449   2.027   6.153  11.738
  320TIP3   OH222450   5.179   5.545   3.839
  320TIP3    H122451   5.103   5.601   3.827
  320TIP3    H222452   5.244   5.601   3.881
  321TIP3   OH222453   1.378   0.059   5.216
  321TIP3    H122454   1.388   0.012   5.298
  321TIP3    H222455   1.426   0.141   5.228
  322TIP3   OH222456   0.706   6.063   3.778
  322TIP3    H122457   0.665   6.147   3.797
  322TIP3    H222458   0.709   6.018   3.862
  323TIP3   OH222459   2.659   5.931   3.358
  323TIP3    H122460   2.670   5.854   3.302
  323TIP3    H222461   2.718   5.997   3.322
  324TIP3   OH222462   6.283   4.236  10.245
  324TIP3    H122463   6.361   4.206  10.292
  324TIP3    H222464   6.310   4.317  10.201
  325TIP3   OH222465   4.049   2.302   2.406
  325TIP3    H122466   4.075   2.228   2.462
  325TIP3    H222467   4.020   2.369   2.468
  326TIP3   OH222468   3.514   6.307   0.966
  326TIP3    H122469   3.533   6.401   0.958
  326TIP3    H222470   3.506   6.276   0.876
  327TIP3   OH222471   6.526   0.793   0.427
  327TIP3    H122472   6.518   0.888   0.436
  327TIP3    H222473   6.435   0.761   0.425
  328TIP3   OH222474   6.047   6.350   3.126
  328TIP3    H122475   5.984   6.282   3.150
  328TIP3    H222476   6.028   6.423   3.186
  329TIP3   OH222477   0.407   3.321   6.211
  329TIP3    H122478   0.448   3.272   6.283
  329TIP3    H222479   0.359   3.392   6.254
  330TIP3   OH222480   4.202   6.181  10.903
  330TIP3    H122481   4.262   6.197  10.829
  330TIP3    H222482   4.164   6.095  10.883
  331TIP3   OH222483   2.678   0.930   3.820
  331TIP3    H122484   2.674   0.906   3.913
  331TIP3    H222485   2.593   0.969   3.802
  332TIP3   OH222486   1.523   0.977  15.071
  332TIP3    H122487   1.478   0.900  15.107
  332TIP3    H222488   1.583   0.941  15.005
  333TIP3   OH222489   5.472   1.774   5.210
  333TIP3    H122490   5.503   1.796   5.123
  333TIP3    H222491   5.550   1.742   5.256
  334TIP3   OH222492   0.928   6.299   1.429
  334TIP3    H122493   0.972   6.241   1.491
  334TIP3    H222494   0.977   6.289   1.347
  335TIP3   OH222495   5.484   3.068  11.642
  335TIP3    H122496   5.490   3.034  11.731
  335TIP3    H222497   5.575   3.076  11.613
  336TIP3   OH222498   4.885   0.727  15.437
  336TIP3    H122499   4.832   0.805  15.455
  336TIP3    H222500   4.933   0.749  15.357
  337TIP3   OH222501   0.408   3.422   1.248
  337TIP3    H122502   0.367   3.492   1.196
  337TIP3    H222503   0.490   3.461   1.278
  338TIP3   OH222504   1.361   2.247  14.020
  338TIP3    H122505   1.311   2.169  14.042
  338TIP3    H222506   1.412   2.267  14.098
  339TIP3   OH222507   2.111   6.265  16.915
  339TIP3    H122508   2.027   6.270  16.960
  339TIP3    H222509   2.088   6.246  16.824
  340TIP3   OH222510   0.883   3.375  12.348
  340TIP3    H122511   0.831   3.440  12.394
  340TIP3    H222512   0.836   3.292  12.361
  341TIP3   OH222513   6.362   6.358  12.550
  341TIP3    H122514   6.335   6.392  12.466
  341TIP3    H222515   6.294   6.386  12.611
  342TIP3   OH222516   3.984   2.563  13.579
  342TIP3    H122517   3.999   2.470  13.595
  342TIP3    H222518   3.921   2.589  13.646
  343TIP3   OH222519   5.928   1.457  11.768
  343TIP3    H122520   5.938   1.524  11.700
  343TIP3    H222521   6.006   1.468  11.823
  344TIP3   OH222522   6.592   1.760  16.556
  344TIP3    H122523   6.650   1.829  16.587
  344TIP3    H222524   6.635   1.679  16.583
  345TIP3   OH222525   1.223   2.189  11.562
  345TIP3    H122526   1.143   2.163  11.518
  345TIP3    H222527   1.276   2.109  11.564
  346TIP3   OH222528   2.113   0.397  12.501
  346TIP3    H122529   2.133   0.453  12.576
  346TIP3    H222530   2.171   0.321  12.512
  347TIP3   OH222531   0.277   6.119   3.318
  347TIP3    H122532   0.285   6.210   3.290
  347TIP3    H222533   0.184   6.107   3.336
  348TIP3   OH222534   5.553   6.617  14.213
  348TIP3    H122535   5.507   6.534  14.225
  348TIP3    H222536   5.484   6.679  14.188
  349TIP3   OH222537   0.239   0.078   4.636
  349TIP3    H122538   0.299   0.099   4.564
  349TIP3    H222539   0.296   0.044   4.705
  350TIP3   OH222540   1.694   4.102  12.026
  350TIP3    H122541   1.648   4.184  12.009
  350TIP3    H222542   1.635   4.052  12.082
  351TIP3   OH222543   3.737   5.868  14.209
  351TIP3    H122544   3.816   5.887  14.158
  351TIP3    H222545   3.697   5.954  14.223
  352TIP3   OH222546   0.655   0.677  15.744
  352TIP3    H122547   0.642   0.591  15.782
  352TIP3    H222548   0.748   0.680  15.721
  353TIP3   OH222549   5.651   2.895   1.569
  353TIP3    H122550   5.584   2.832   1.545
  353TIP3    H222551   5.692   2.920   1.485
  354TIP3   OH222552   1.894   5.014  16.451
  354TIP3    H122553   1.842   5.042  16.375
  354TIP3    H222554   1.933   5.095  16.485
  355TIP3   OH222555   4.855   2.505  15.230
  355TIP3    H122556   4.824   2.437  15.291
  355TIP3    H222557   4.794   2.577  15.242
  356TIP3   OH222558   6.363   2.110   4.143
  356TIP3    H122559   6.411   2.173   4.197
  356TIP3    H222560   6.323   2.050   4.206
  357TIP3   OH222561   0.838   3.869  12.647
  357TIP3    H122562   0.755   3.903  12.681
  357TIP3    H222563   0.850   3.912  12.563
  358TIP3   OH222564   0.750   3.703  16.887
  358TIP3    H122565   0.804   3.669  16.815
  358TIP3    H222566   0.716   3.786  16.853
  359TIP3   OH222567   5.808   5.035  16.979
  359TIP3    H122568   5.886   5.035  16.923
  359TIP3    H222569   5.747   5.093  16.934
  360TIP3   OH222570   2.890   3.823   1.345
  360TIP3    H122571   2.797   3.832   1.325
  360TIP3    H222572   2.935   3.862   1.270
  361TIP3   OH222573   0.287   3.255   0.144
  361TIP3    H122574   0.314   3.234   0.233
  361TIP3    H222575   0.194   3.277   0.152
  362TIP3   OH222576   4.181   0.038  10.250
  362TIP3    H122577   4.185   0.092  10.171
  362TIP3    H222578   4.236   0.084  10.314
  363TIP3   OH222579   0.693   0.544  13.689
  363TIP3    H122580   0.708   0.591  13.771
  363TIP3    H222581   0.706   0.610  13.621
  364TIP3   OH222582   0.457   2.509   3.919
  364TIP3    H122583   0.406   2.469   3.848
  364TIP3    H222584   0.537   2.539   3.877
  365TIP3   OH222585   2.045   6.415   5.707
  365TIP3    H122586   2.104   6.445   5.638
  365TIP3    H222587   1.959   6.411   5.665
  366TIP3   OH222588   4.956   5.546  15.631
  366TIP3    H122589   4.911   5.618  15.675
  366TIP3    H222590   4.935   5.469  15.684
  367TIP3   OH222591   1.068   0.315  11.073
  367TIP3    H122592   1.138   0.372  11.105
  367TIP3    H222593   1.099   0.227  11.092
  368TIP3   OH222594   0.222   2.304   6.068
  368TIP3    H122595   0.145   2.275   6.019
  368TIP3    H222596   0.293   2.249   6.037
  369TIP3   OH222597   3.249   0.922   4.446
  369TIP3    H122598   3.244   0.833   4.479
  369TIP3    H222599   3.185   0.971   4.497
  370TIP3   OH222600   2.198   4.774  14.198
  370TIP3    H122601   2.165   4.846  14.251
  370TIP3    H222602   2.218   4.705  14.262
  371TIP3   OH222603   6.296   2.496   1.640
  371TIP3    H122604   6.317   2.419   1.693
  371TIP3    H222605   6.328   2.475   1.552
  372TIP3   OH222606   1.367   4.720  12.188
  372TIP3    H122607   1.330   4.807  12.204
  372TIP3    H222608   1.389   4.687  12.275
  373TIP3   OH222609   0.074   4.422  11.912
  373TIP3    H122610  -0.007   4.459  11.945
  373TIP3    H222611   0.096   4.352  11.973
  374TIP3   OH222612   6.215   3.046   4.765
  374TIP3    H122613   6.186   3.123   4.717
  374TIP3    H222614   6.190   2.972   4.710
  375TIP3   OH222615   1.803   5.710  16.480
  375TIP3    H122616   1.887   5.747  16.508
  375TIP3    H222617   1.775   5.656  16.554
  376TIP3   OH222618   2.616   3.847   5.709
  376TIP3    H122619   2.552   3.885   5.648
  376TIP3    H222620   2.568   3.777   5.753
  377TIP3   OH222621   1.778   0.916  17.116
  377TIP3    H122622   1.694   0.871  17.109
  377TIP3    H222623   1.775   0.983  17.047
  378TIP3   OH222624   0.128   0.660   3.612
  378TIP3    H122625   0.154   0.570   3.632
  378TIP3    H222626   0.189   0.715   3.661
  379TIP3   OH222627   2.695   6.069   6.480
  379TIP3    H122628   2.621   6.009   6.485
  379TIP3    H222629   2.688   6.109   6.394
  380TIP3   OH222630   2.870   1.422  15.715
  380TIP3    H122631   2.853   1.370  15.636
  380TIP3    H222632   2.934   1.371  15.764
  381TIP3   OH222633   3.853   5.115  16.748
  381TIP3    H122634   3.886   5.112  16.658
  381TIP3    H222635   3.867   5.206  16.776
  382TIP3   OH222636   0.670   0.599  11.434
  382TIP3    H122637   0.740   0.535  11.447
  382TIP3    H222638   0.633   0.576  11.349
  383TIP3   OH222639   4.718   6.317   5.769
  383TIP3    H122640   4.808   6.285   5.774
  383TIP3    H222641   4.664   6.240   5.783
  384TIP3   OH222642   0.130   5.580   1.563
  384TIP3    H122643   0.133   5.638   1.487
  384TIP3    H222644   0.055   5.522   1.546
  385TIP3   OH222645   5.329   0.718   3.027
  385TIP3    H122646   5.383   0.794   3.003
  385TIP3    H222647   5.381   0.643   2.998
  386TIP3   OH222648   2.251   5.122  12.611
  386TIP3    H122649   2.306   5.200  12.610
  386TIP3    H222650   2.276   5.075  12.690
  387TIP3   OH222651   3.424   4.528  12.692
  387TIP3    H122652   3.420   4.504  12.599
  387TIP3    H222653   3.446   4.621  12.692
  388TIP3   OH222654   4.583   1.583  14.942
  388TIP3    H122655   4.649   1.652  14.930
  388TIP3    H222656   4.612   1.536  15.020
  389TIP3   OH222657   5.827   2.180   1.449
  389TIP3    H122658   5.797   2.263   1.414
  389TIP3    H222659   5.920   2.176   1.425
  390TIP3   OH222660   4.402   0.455  11.186
  390TIP3    H122661   4.387   0.509  11.109
  390TIP3    H222662   4.387   0.365  11.156
  391TIP3   OH222663   1.721   3.353  11.226
  391TIP3    H122664   1.700   3.292  11.156
  391TIP3    H222665   1.686   3.312  11.305
  392TIP3   OH222666   1.619   1.049   6.308
  392TIP3    H122667   1.687   1.006   6.361
  392TIP3    H222668   1.537   1.027   6.352
  393TIP3   OH222669   2.708   1.400  16.420
  393TIP3    H122670   2.664   1.345  16.355
  393TIP3    H222671   2.787   1.352  16.443
  394TIP3   OH222672   2.181   2.475   0.692
  394TIP3    H122673   2.228   2.428   0.623
  394TIP3    H222674   2.181   2.567   0.664
  395TIP3   OH222675   6.042   1.664  12.148
  395TIP3    H122676   5.952   1.685  12.124
  395TIP3    H222677   6.087   1.748  12.152
  396TIP3   OH222678   6.376   3.896   4.076
  396TIP3    H122679   6.369   3.877   3.982
  396TIP3    H222680   6.466   3.926   4.088
  397TIP3   OH222681   2.608   1.372  11.853
  397TIP3    H122682   2.623   1.278  11.844
  397TIP3    H222683   2.637   1.393  11.941
  398TIP3   OH222684   6.816   6.394  11.940
  398TIP3    H122685   6.753   6.418  11.873
  398TIP3    H222686   6.902   6.407  11.900
  399TIP3   OH222687   6.311   3.765   3.529
  399TIP3    H122688   6.270   3.726   3.452
  399TIP3    H222689   6.243   3.822   3.566
  400TIP3   OH222690   2.777   4.006   6.512
  400TIP3    H122691   2.746   4.004   6.422
  400TIP3    H222692   2.872   4.000   6.505
  401TIP3   OH222693   3.557   0.225   4.288
  401TIP3    H122694   3.565   0.302   4.232
  401TIP3    H222695   3.548   0.261   4.377
  402TIP3   OH222696   3.312   4.656   2.154
  402TIP3    H122697   3.288   4.618   2.239
  402TIP3    H222698   3.250   4.617   2.092
  403TIP3   OH222699   2.118   1.532  12.502
  403TIP3    H122700   2.194   1.481  12.475
  403TIP3    H222701   2.045   1.472  12.496
  404TIP3   OH222702   2.168   4.610  17.000
  404TIP3    H122703   2.115   4.562  17.063
  404TIP3    H222704   2.110   4.625  16.925
  405TIP3   OH222705   5.651   2.240  15.728
  405TIP3    H122706   5.665   2.334  15.741
  405TIP3    H222707   5.738   2.201  15.738
  406TIP3   OH222708   3.923   3.427  17.148
  406TIP3    H122709   3.892   3.425  17.239
  406TIP3    H222710   3.843   3.437  17.097
  407TIP3   OH222711   3.327   0.083   1.871
  407TIP3    H122712   3.384   0.110   1.943
  407TIP3    H222713   3.239   0.085   1.907
  408TIP3   OH222714   4.418   2.861   5.091
  408TIP3    H122715   4.353   2.930   5.077
  408TIP3    H222716   4.488   2.881   5.029
  409TIP3   OH222717   1.473   2.293  14.306
  409TIP3    H122718   1.392   2.319  14.349
  409TIP3    H222719   1.531   2.265  14.377
  410TIP3   OH222720   4.821   2.804  10.394
  410TIP3    H122721   4.894   2.796  10.334
  410TIP3    H222722   4.849   2.759  10.474
  411TIP3   OH222723   2.250   2.861   1.778
  411TIP3    H122724   2.316   2.914   1.733
  411TIP3    H222725   2.264   2.773   1.744
  412TIP3   OH222726   3.770   4.188  16.221
  412TIP3    H122727   3.771   4.095  16.244
  412TIP3    H222728   3.858   4.206  16.191
  413TIP3   OH222729   5.775   1.693  13.174
  413TIP3    H122730   5.774   1.729  13.085
  413TIP3    H222731   5.859   1.648  13.181
  414TIP3   OH222732   0.838   1.534  17.212
  414TIP3    H122733   0.868   1.461  17.267
  414TIP3    H222734   0.851   1.612  17.266
  415TIP3   OH222735   3.504   6.588   6.240
  415TIP3    H122736   3.590   6.553   6.213
  415TIP3    H222737   3.523   6.642   6.316
  416TIP3   OH222738   1.642   2.992   3.026
  416TIP3    H122739   1.708   2.924   3.038
  416TIP3    H222740   1.558   2.946   3.029
  417TIP3   OH222741   4.344   4.228   4.437
  417TIP3    H122742   4.332   4.149   4.491
  417TIP3    H222743   4.258   4.270   4.437
  418TIP3   OH222744   0.652   6.133   0.353
  418TIP3    H122745   0.645   6.106   0.261
  418TIP3    H222746   0.563   6.124   0.387
  419TIP3   OH222747   0.735   1.856  16.914
  419TIP3    H122748   0.811   1.895  16.958
  419TIP3    H222749   0.733   1.766  16.946
  420TIP3   OH222750   4.144   3.640   2.225
  420TIP3    H122751   4.235   3.668   2.223
  420TIP3    H222752   4.138   3.571   2.159
  421TIP3   OH222753   1.132   0.207   4.409
  421TIP3    H122754   1.218   0.185   4.443
  421TIP3    H222755   1.111   0.292   4.448
  422TIP3   OH222756   5.799   2.616  14.067
  422TIP3    H122757   5.806   2.544  14.004
  422TIP3    H222758   5.733   2.587  14.129
  423TIP3   OH222759   0.982   5.433   5.380
  423TIP3    H122760   1.030   5.492   5.438
  423TIP3    H222761   1.035   5.430   5.300
  424TIP3   OH222762   4.076   3.633   5.642
  424TIP3    H122763   4.029   3.703   5.687
  424TIP3    H222764   4.009   3.567   5.623
  425TIP3   OH222765   2.411   1.395  13.563
  425TIP3    H122766   2.323   1.433  13.575
  425TIP3    H222767   2.462   1.465  13.522
  426TIP3   OH222768   6.045   5.187  16.573
  426TIP3    H122769   5.991   5.121  16.615
  426TIP3    H222770   6.056   5.255  16.640
  427TIP3   OH222771   3.660   2.407   3.028
  427TIP3    H122772   3.611   2.434   3.106
  427TIP3    H222773   3.675   2.489   2.981
  428TIP3   OH222774   6.801   5.195  12.179
  428TIP3    H122775   6.830   5.155  12.097
  428TIP3    H222776   6.799   5.123  12.242
  429TIP3   OH222777   5.299   3.328  16.185
  429TIP3    H122778   5.356   3.400  16.159
  429TIP3    H222779   5.354   3.273  16.241
  430TIP3   OH222780   6.774   4.043  14.669
  430TIP3    H122781   6.780   3.960  14.716
  430TIP3    H222782   6.780   4.019  14.577
  431TIP3   OH222783   0.397   0.930  13.968
  431TIP3    H122784   0.305   0.955  13.965
  431TIP3    H222785   0.412   0.901  14.058
  432TIP3   OH222786   5.538   2.704  16.534
  432TIP3    H122787   5.469   2.756  16.576
  432TIP3    H222788   5.494   2.623  16.507
  433TIP3   OH222789   5.667   6.269  14.118
  433TIP3    H122790   5.762   6.277  14.125
  433TIP3    H222791   5.648   6.279  14.025
  434TIP3   OH222792   6.635   0.192  16.078
  434TIP3    H122793   6.664   0.262  16.020
  434TIP3    H222794   6.701   0.123  16.068
  435TIP3   OH222795   3.961   3.381  14.168
  435TIP3    H122796   4.041   3.433  14.163
  435TIP3    H222797   3.992   3.291  14.170
  436TIP3   OH222798   6.561   2.484  16.500
  436TIP3    H122799   6.654   2.480  16.520
  436TIP3    H222800   6.527   2.399  16.529
  437TIP3   OH222801   2.861   1.921   3.877
  437TIP3    H122802   2.924   1.992   3.874
  437TIP3    H222803   2.896   1.861   3.944
  438TIP3   OH222804   0.811   5.234  12.695
  438TIP3    H122805   0.898   5.268  12.672
  438TIP3    H222806   0.806   5.243  12.790
  439TIP3   OH222807   2.628   3.157  12.093
  439TIP3    H122808   2.619   3.085  12.032
  439TIP3    H222809   2.701   3.209  12.059
  440TIP3   OH222810   0.485   4.591  12.367
  440TIP3    H122811   0.501   4.582  12.273
  440TIP3    H222812   0.493   4.684  12.385
  441TIP3   OH222813   0.671   0.002   3.590
  441TIP3    H122814   0.742  -0.063   3.592
  441TIP3    H222815   0.709   0.080   3.629
  442TIP3   OH222816   2.202   6.687   5.476
  442TIP3    H122817   2.224   6.705   5.567
  442TIP3    H222818   2.286   6.667   5.434
  443TIP3   OH222819   6.322   4.127   1.354
  443TIP3    H122820   6.243   4.160   1.312
  443TIP3    H222821   6.318   4.032   1.340
  444TIP3   OH222822   2.042   5.694   1.484
  444TIP3    H122823   2.040   5.689   1.580
  444TIP3    H222824   2.028   5.787   1.465
  445TIP3   OH222825   1.516   6.632  13.202
  445TIP3    H122826   1.560   6.562  13.250
  445TIP3    H222827   1.514   6.601  13.111
  446TIP3   OH222828   2.816   2.181  13.782
  446TIP3    H122829   2.750   2.234  13.827
  446TIP3    H222830   2.813   2.213  13.692
  447TIP3   OH222831   4.182   3.024   5.086
  447TIP3    H122832   4.146   2.966   5.153
  447TIP3    H222833   4.112   3.087   5.068
  448TIP3   OH222834   4.723   2.305  17.008
  448TIP3    H122835   4.734   2.396  17.034
  448TIP3    H222836   4.799   2.260  17.045
  449TIP3   OH222837   2.206   3.557   4.290
  449TIP3    H122838   2.275   3.517   4.343
  449TIP3    H222839   2.144   3.592   4.353
  450TIP3   OH222840   2.412   6.143   1.511
  450TIP3    H122841   2.495   6.102   1.535
  450TIP3    H222842   2.407   6.133   1.416
  451TIP3   OH222843   0.093   4.189   2.123
  451TIP3    H122844   0.159   4.210   2.057
  451TIP3    H222845   0.046   4.114   2.087
  452TIP3   OH222846   6.555   2.751  15.188
  452TIP3    H122847   6.632   2.805  15.205
  452TIP3    H222848   6.583   2.662  15.211
  453TIP3   OH222849   3.436   2.726  15.863
  453TIP3    H122850   3.410   2.701  15.951
  453TIP3    H222851   3.382   2.803  15.843
  454TIP3   OH222852   0.488   1.540  10.986
  454TIP3    H122853   0.412   1.483  10.977
  454TIP3    H222854   0.559   1.495  10.940
  455TIP3   OH222855   2.089   6.129  12.088
  455TIP3    H122856   2.102   6.043  12.129
  455TIP3    H222857   1.995   6.147  12.099
  456TIP3   OH222858   1.498   4.803   5.568
  456TIP3    H122859   1.514   4.874   5.630
  456TIP3    H222860   1.520   4.839   5.483
  457TIP3   OH222861   5.707   4.922  14.109
  457TIP3    H122862   5.772   4.859  14.140
  457TIP3    H222863   5.745   4.959  14.029
  458TIP3   OH222864   3.200   3.138   2.817
  458TIP3    H122865   3.136   3.183   2.871
  458TIP3    H222866   3.164   3.049   2.807
  459TIP3   OH222867   6.310   6.819   0.295
  459TIP3    H122868   6.240   6.828   0.230
  459TIP3    H222869   6.357   6.902   0.292
  460TIP3   OH222870   4.399   0.935  13.483
  460TIP3    H122871   4.367   0.846  13.471
  460TIP3    H222872   4.386   0.954  13.576
  461TIP3   OH222873   2.431   2.065  15.840
  461TIP3    H122874   2.462   2.092  15.753
  461TIP3    H222875   2.461   1.974  15.849
  462TIP3   OH222876   4.054   5.053  15.953
  462TIP3    H122877   4.061   5.005  16.036
  462TIP3    H222878   4.087   4.992  15.887
  463TIP3   OH222879   4.983   5.105   4.741
  463TIP3    H122880   4.913   5.133   4.800
  463TIP3    H222881   4.962   5.013   4.722
  464TIP3   OH222882   5.165   2.316  12.543
  464TIP3    H122883   5.111   2.360  12.609
  464TIP3    H222884   5.144   2.359  12.461
  465TIP3   OH222885   3.100   6.456   1.461
  465TIP3    H122886   3.014   6.449   1.501
  465TIP3    H222887   3.156   6.399   1.513
  466TIP3   OH222888   4.780   3.190   3.653
  466TIP3    H122889   4.734   3.117   3.612
  466TIP3    H222890   4.873   3.171   3.641
  467TIP3   OH222891   0.440   5.839  13.007
  467TIP3    H122892   0.364   5.823  12.952
  467TIP3    H222893   0.515   5.818  12.951
  468TIP3   OH222894   5.816   2.906  11.855
  468TIP3    H122895   5.840   2.976  11.795
  468TIP3    H222896   5.886   2.841  11.847
  469TIP3   OH222897   3.872   2.951  10.044
  469TIP3    H122898   3.930   2.956  10.121
  469TIP3    H222899   3.901   3.022   9.988
  470TIP3   OH222900   3.575   0.714  10.920
  470TIP3    H122901   3.480   0.726  10.930
  470TIP3    H222902   3.592   0.736  10.828
  471TIP3   OH222903   5.192   0.551  13.834
  471TIP3    H122904   5.173   0.634  13.876
  471TIP3    H222905   5.287   0.542  13.839
  472TIP3   OH222906   1.055   3.578   3.057
  472TIP3    H122907   1.070   3.510   3.123
  472TIP3    H222908   1.136   3.629   3.056
  473TIP3   OH222909   0.616   0.542  11.168
  473TIP3    H122910   0.612   0.507  11.079
  473TIP3    H222911   0.709   0.535  11.192
  474TIP3   OH222912   0.866   6.763   6.393
  474TIP3    H122913   0.892   6.685   6.441
  474TIP3    H222914   0.932   6.772   6.324
  475TIP3   OH222915   4.840   0.910   1.862
  475TIP3    H122916   4.880   0.832   1.825
  475TIP3    H222917   4.912   0.974   1.868
  476TIP3   OH222918   3.198   4.336   1.563
  476TIP3    H122919   3.143   4.286   1.623
  476TIP3    H222920   3.167   4.311   1.476
  477TIP3   OH222921   0.829   4.043  17.273
  477TIP3    H122922   0.761   3.999  17.220
  477TIP3    H222923   0.824   4.000  17.358
  478TIP3   OH222924   3.521   2.826   3.340
  478TIP3    H122925   3.440   2.852   3.385
  478TIP3    H222926   3.582   2.805   3.410
  479TIP3   OH222927   1.304   1.755   3.874
  479TIP3    H122928   1.335   1.822   3.813
  479TIP3    H222929   1.314   1.795   3.960
  480TIP3   OH222930   3.024   2.516  14.769
  480TIP3    H122931   3.071   2.519  14.853
  480TIP3    H222932   3.071   2.450  14.718
  481TIP3   OH222933   5.659   6.622   6.027
  481TIP3    H122934   5.709   6.603   6.106
  481TIP3    H222935   5.725   6.655   5.965
  482TIP3   OH222936   0.272   2.359  12.791
  482TIP3    H122937   0.284   2.445  12.751
  482TIP3    H222938   0.276   2.298  12.717
  483TIP3   OH222939   5.328   1.359   2.688
  483TIP3    H122940   5.326   1.344   2.783
  483TIP3    H222941   5.299   1.450   2.678
  484TIP3   OH222942   5.032   0.667   3.050
  484TIP3    H122943   5.127   0.678   3.051
  484TIP3    H222944   4.999   0.740   2.999
  485TIP3   OH222945   3.535   2.465  13.657
  485TIP3    H122946   3.557   2.537  13.715
  485TIP3    H222947   3.455   2.428  13.694
  486TIP3   OH222948   1.088   0.239  16.342
  486TIP3    H122949   1.090   0.216  16.435
  486TIP3    H222950   1.162   0.191  16.304
  487TIP3   OH222951   3.764   2.239   5.371
  487TIP3    H122952   3.825   2.165   5.369
  487TIP3    H222953   3.810   2.309   5.324
  488TIP3   OH222954   6.462   6.687   5.862
  488TIP3    H122955   6.543   6.684   5.912
  488TIP3    H222956   6.395   6.713   5.926
  489TIP3   OH222957   0.373   4.096  11.189
  489TIP3    H122958   0.342   4.009  11.217
  489TIP3    H222959   0.327   4.112  11.106
  490TIP3   OH222960   0.318   5.737   0.645
  490TIP3    H122961   0.296   5.688   0.566
  490TIP3    H222962   0.292   5.679   0.717
  491TIP3   OH222963   6.612   1.408   5.015
  491TIP3    H122964   6.577   1.338   4.958
  491TIP3    H222965   6.589   1.489   4.970
  492TIP3   OH222966   0.513   2.866  17.261
  492TIP3    H122967   0.463   2.865  17.342
  492TIP3    H222968   0.501   2.954  17.226
  493TIP3   OH222969   0.230   2.144   0.999
  493TIP3    H122970   0.198   2.163   0.911
  493TIP3    H222971   0.273   2.059   0.992
  494TIP3   OH222972   1.521   1.796  16.689
  494TIP3    H122973   1.517   1.869  16.627
  494TIP3    H222974   1.614   1.785  16.708
  495TIP3   OH222975   4.942   2.693  13.799
  495TIP3    H122976   5.032   2.659  13.802
  495TIP3    H222977   4.951   2.786  13.818
  496TIP3   OH222978   0.482   6.661   0.818
  496TIP3    H122979   0.411   6.605   0.789
  496TIP3    H222980   0.518   6.699   0.738
  497TIP3   OH222981   5.131   1.228  13.573
  497TIP3    H122982   5.208   1.174  13.590
  497TIP3    H222983   5.148   1.267  13.488
  498TIP3   OH222984   2.405   2.856   0.135
  498TIP3    H122985   2.377   2.938   0.175
  498TIP3    H222986   2.453   2.882   0.056
  499TIP3   OH222987   5.205   0.125  15.093
  499TIP3    H122988   5.184   0.072  15.170
  499TIP3    H222989   5.129   0.182  15.082
  500TIP3   OH222990   5.212   6.385   4.589
  500TIP3    H122991   5.300   6.421   4.597
  500TIP3    H222992   5.222   6.292   4.611
  501TIP3   OH222993   0.135   0.022   2.622
  501TIP3    H122994   0.184   0.060   2.549
  501TIP3    H222995   0.173   0.063   2.700
  502TIP3   OH222996   3.456   3.762   0.818
  502TIP3    H122997   3.363   3.737   0.818
  502TIP3    H222998   3.479   3.767   0.725
  503TIP3   OH222999   4.837   5.822  15.351
  503TIP3    H123000   4.774   5.778  15.408
  503TIP3    H223001   4.849   5.763  15.277
  504TIP3   OH223002   5.171   1.007   5.171
  504TIP3    H123003   5.121   1.020   5.251
  504TIP3    H223004   5.232   0.936   5.192
  505TIP3   OH223005   4.026   0.468   2.336
  505TIP3    H123006   4.079   0.424   2.402
  505TIP3    H223007   4.088   0.487   2.265
  506TIP3   OH223008   6.364   0.415  16.829
  506TIP3    H123009   6.297   0.400  16.763
  506TIP3    H223010   6.431   0.350  16.812
  507TIP3   OH223011   5.406   3.379  10.265
  507TIP3    H123012   5.362   3.334  10.336
  507TIP3    H223013   5.343   3.444  10.234
  508TIP3   OH223014   0.876   2.786  14.113
  508TIP3    H123015   0.862   2.860  14.172
  508TIP3    H223016   0.797   2.783  14.060
  509TIP3   OH223017   5.987   6.380   4.440
  509TIP3    H123018   5.958   6.426   4.519
  509TIP3    H223019   5.972   6.288   4.458
  510TIP3   OH223020   4.740   0.363   5.556
  510TIP3    H123021   4.773   0.369   5.466
  510TIP3    H223022   4.666   0.302   5.550
  511TIP3   OH223023   6.284   2.661   0.906
  511TIP3    H123024   6.347   2.690   0.841
  511TIP3    H223025   6.334   2.658   0.988
  512TIP3   OH223026   2.471   6.522   0.982
  512TIP3    H123027   2.416   6.444   0.977
  512TIP3    H223028   2.552   6.498   0.938
  513TIP3   OH223029   2.734   0.548  14.863
  513TIP3    H123030   2.778   0.511  14.787
  513TIP3    H223031   2.643   0.558  14.835
  514TIP3   OH223032   3.884   0.382   3.486
  514TIP3    H123033   3.932   0.306   3.452
  514TIP3    H223034   3.945   0.423   3.547
  515TIP3   OH223035   6.077   6.473   3.845
  515TIP3    H123036   6.078   6.380   3.821
  515TIP3    H223037   6.138   6.480   3.918
  516TIP3   OH223038   6.414   2.398   0.477
  516TIP3    H123039   6.439   2.484   0.510
  516TIP3    H223040   6.369   2.418   0.394
  517TIP3   OH223041   5.904   1.348  15.806
  517TIP3    H123042   5.907   1.411  15.733
  517TIP3    H223043   5.947   1.269  15.771
  518TIP3   OH223044   0.910   4.917   1.951
  518TIP3    H123045   0.920   4.833   1.996
  518TIP3    H223046   0.817   4.922   1.929
  519TIP3   OH223047   4.161   4.895  15.765
  519TIP3    H123048   4.145   4.801  15.773
  519TIP3    H223049   4.168   4.910  15.671
  520TIP3   OH223050   3.276   4.573  12.252
  520TIP3    H123051   3.318   4.492  12.279
  520TIP3    H223052   3.195   4.577  12.303
  521TIP3   OH223053   0.592   1.863  12.656
  521TIP3    H123054   0.646   1.916  12.597
  521TIP3    H223055   0.656   1.817  12.711
  522TIP3   OH223056   5.234   2.958   3.124
  522TIP3    H123057   5.148   2.999   3.113
  522TIP3    H223058   5.228   2.913   3.209
  523TIP3   OH223059   5.606   2.307  14.632
  523TIP3    H123060   5.700   2.293  14.625
  523TIP3    H223061   5.567   2.227  14.595
  524TIP3   OH223062   2.833   3.397  14.665
  524TIP3    H123063   2.862   3.482  14.700
  524TIP3    H223064   2.818   3.343  14.743
  525TIP3   OH223065   3.722   5.388   0.011
  525TIP3    H123066   3.634   5.391   0.050
  525TIP3    H223067   3.779   5.360   0.083
  526TIP3   OH223068   5.194   4.698  15.166
  526TIP3    H123069   5.286   4.699  15.143
  526TIP3    H223070   5.160   4.782  15.134
  527TIP3   OH223071   5.890   4.167  11.905
  527TIP3    H123072   5.980   4.139  11.921
  527TIP3    H223073   5.874   4.146  11.813
  528TIP3   OH223074   0.486   0.178  11.560
  528TIP3    H123075   0.395   0.169  11.589
  528TIP3    H223076   0.537   0.143  11.633
  529TIP3   OH223077   4.011   1.459  15.256
  529TIP3    H123078   4.018   1.515  15.179
  529TIP3    H223079   4.097   1.466  15.299
  530TIP3   OH223080   3.912   2.894   6.725
  530TIP3    H123081   3.963   2.871   6.647
  530TIP3    H223082   3.875   2.810   6.753
  531TIP3   OH223083   0.466   5.041   1.890
  531TIP3    H123084   0.520   5.115   1.863
  531TIP3    H223085   0.529   4.971   1.910
  532TIP3   OH223086   4.037   2.709  17.109
  532TIP3    H123087   3.995   2.664  17.036
  532TIP3    H223088   4.101   2.767  17.068
  533TIP3   OH223089   3.279   6.431  16.073
  533TIP3    H123090   3.185   6.419  16.060
  533TIP3    H223091   3.306   6.359  16.130
  534TIP3   OH223092   4.774   4.056  16.303
  534TIP3    H123093   4.841   4.124  16.298
  534TIP3    H223094   4.818   3.976  16.275
  535TIP3   OH223095   6.447   2.140   3.737
  535TIP3    H123096   6.403   2.057   3.753
  535TIP3    H223097   6.503   2.124   3.661
  536TIP3   OH223098   6.478   3.393  10.732
  536TIP3    H123099   6.504   3.473  10.778
  536TIP3    H223100   6.469   3.419  10.641
  537TIP3   OH223101   2.642   1.967   3.718
  537TIP3    H123102   2.577   2.002   3.779
  537TIP3    H223103   2.713   1.936   3.775
  538TIP3   OH223104   2.657   2.483  13.030
  538TIP3    H123105   2.666   2.525  12.944
  538TIP3    H223106   2.568   2.506  13.058
  539TIP3   OH223107   3.556   5.932   2.856
  539TIP3    H123108   3.577   5.853   2.807
  539TIP3    H223109   3.609   5.926   2.935
  540TIP3   OH223110   2.673   4.514  10.716
  540TIP3    H123111   2.739   4.449  10.739
  540TIP3    H223112   2.626   4.531  10.797
  541TIP3   OH223113   5.160   2.933  11.962
  541TIP3    H123114   5.106   2.904  12.036
  541TIP3    H223115   5.235   2.873  11.962
  542TIP3   OH223116   5.829   0.116   5.124
  542TIP3    H123117   5.805   0.198   5.167
  542TIP3    H223118   5.840   0.053   5.196
  543TIP3   OH223119   1.496   0.385  15.909
  543TIP3    H123120   1.512   0.291  15.915
  543TIP3    H223121   1.430   0.402  15.977
  544TIP3   OH223122   0.604   2.206   1.056
  544TIP3    H123123   0.549   2.272   1.097
  544TIP3    H223124   0.566   2.122   1.083
  545TIP3   OH223125   5.159   4.950  16.352
  545TIP3    H123126   5.159   5.033  16.304
  545TIP3    H223127   5.099   4.964  16.425
  546TIP3   OH223128   1.601   2.593   3.712
  546TIP3    H123129   1.556   2.513   3.683
  546TIP3    H223130   1.661   2.563   3.781
  547TIP3   OH223131   0.591   0.129   6.142
  547TIP3    H123132   0.630   0.095   6.222
  547TIP3    H223133   0.575   0.052   6.088
  548TIP3   OH223134   0.025   3.438   6.124
  548TIP3    H123135  -0.043   3.373   6.138
  548TIP3    H223136   0.044   3.472   6.212
  549TIP3   OH223137   3.243   0.308  11.534
  549TIP3    H123138   3.187   0.231  11.519
  549TIP3    H223139   3.332   0.274  11.525
  550TIP3   OH223140   6.030   2.239   5.666
  550TIP3    H123141   6.029   2.333   5.647
  550TIP3    H223142   6.056   2.198   5.583
  551TIP3   OH223143   5.533   6.205  12.152
  551TIP3    H123144   5.554   6.156  12.072
  551TIP3    H223145   5.601   6.178  12.215
  552TIP3   OH223146   6.180   6.699   4.200
  552TIP3    H123147   6.270   6.714   4.227
  552TIP3    H223148   6.128   6.759   4.254
  553TIP3   OH223149   2.544   1.282  13.788
  553TIP3    H123150   2.499   1.322  13.713
  553TIP3    H223151   2.605   1.349  13.818
  554TIP3   OH223152   4.385   0.636  13.434
  554TIP3    H123153   4.335   0.598  13.506
  554TIP3    H223154   4.332   0.619  13.356
  555TIP3   OH223155   1.829   1.036  16.865
  555TIP3    H123156   1.779   1.074  16.793
  555TIP3    H223157   1.920   1.041  16.836
  556TIP3   OH223158   4.390   3.113   3.684
  556TIP3    H123159   4.344   3.055   3.745
  556TIP3    H223160   4.321   3.150   3.629
  557TIP3   OH223161   5.834   6.636   0.978
  557TIP3    H123162   5.855   6.614   0.888
  557TIP3    H223163   5.754   6.588   0.997
  558TIP3   OH223164   1.877   3.558  16.832
  558TIP3    H123165   1.801   3.508  16.804
  558TIP3    H223166   1.909   3.600  16.751
  559TIP3   OH223167   4.021   4.595  16.913
  559TIP3    H123168   4.087   4.533  16.881
  559TIP3    H223169   3.970   4.618  16.835
  560TIP3   OH223170   1.234   2.997  14.464
  560TIP3    H123171   1.321   2.963  14.444
  560TIP3    H223172   1.179   2.963  14.393
  561TIP3   OH223173   4.256   4.557   1.594
  561TIP3    H123174   4.239   4.630   1.654
  561TIP3    H223175   4.190   4.566   1.526
  562TIP3   OH223176   4.433   3.442   4.528
  562TIP3    H123177   4.376   3.411   4.599
  562TIP3    H223178   4.428   3.373   4.462
  563TIP3   OH223179   1.521   5.675   4.845
  563TIP3    H123180   1.549   5.652   4.756
  563TIP3    H223181   1.484   5.594   4.881
  564TIP3   OH223182   6.431   0.362  15.728
  564TIP3    H123183   6.493   0.393  15.661
  564TIP3    H223184   6.415   0.440  15.782
  565TIP3   OH223185   1.341   0.521   2.322
  565TIP3    H123186   1.298   0.506   2.238
  565TIP3    H223187   1.358   0.433   2.356
  566TIP3   OH223188   0.677   3.099   3.909
  566TIP3    H123189   0.598   3.137   3.871
  566TIP3    H223190   0.649   3.065   3.994
  567TIP3   OH223191   5.095   0.370   2.464
  567TIP3    H123192   5.188   0.351   2.478
  567TIP3    H223193   5.053   0.284   2.462
  568TIP3   OH223194   1.137   4.965   6.493
  568TIP3    H123195   1.054   4.928   6.524
  568TIP3    H223196   1.163   4.908   6.420
  569TIP3   OH223197   2.068   4.684   1.055
  569TIP3    H123198   2.043   4.771   1.023
  569TIP3    H223199   2.163   4.687   1.060
  570TIP3   OH223200   4.292   2.381  15.124
  570TIP3    H123201   4.244   2.404  15.044
  570TIP3    H223202   4.237   2.412  15.195
  571TIP3   OH223203   1.963   0.215   4.362
  571TIP3    H123204   2.038   0.218   4.302
  571TIP3    H223205   1.925   0.128   4.349
  572TIP3   OH223206   4.248   0.956  12.616
  572TIP3    H123207   4.197   0.987  12.542
  572TIP3    H223208   4.282   1.036  12.657
  573TIP3   OH223209   0.089   2.561  12.387
  573TIP3    H123210   0.085   2.468  12.364
  573TIP3    H223211   0.169   2.568  12.440
  574TIP3   OH223212   1.521   4.222   0.817
  574TIP3    H123213   1.601   4.211   0.868
  574TIP3    H223214   1.464   4.152   0.848
  575TIP3   OH223215   4.989   0.146   2.552
  575TIP3    H123216   4.952   0.139   2.640
  575TIP3    H223217   5.081   0.124   2.562
  576TIP3   OH223218   3.628   2.341  16.717
  576TIP3    H123219   3.582   2.418  16.748
  576TIP3    H223220   3.721   2.364  16.722
  577TIP3   OH223221   5.040   0.441   5.147
  577TIP3    H123222   5.056   0.409   5.058
  577TIP3    H223223   5.023   0.535   5.136
  578TIP3   OH223224   6.269   0.182   5.379
  578TIP3    H123225   6.198   0.173   5.443
  578TIP3    H223226   6.280   0.276   5.368
  579TIP3   OH223227   1.755   5.991  16.216
  579TIP3    H123228   1.696   6.054  16.176
  579TIP3    H223229   1.820   6.045  16.260
  580TIP3   OH223230   2.553   6.140  13.200
  580TIP3    H123231   2.481   6.140  13.263
  580TIP3    H223232   2.519   6.093  13.124
  581TIP3   OH223233   1.296   5.201  11.906
  581TIP3    H123234   1.203   5.189  11.887
  581TIP3    H223235   1.336   5.116  11.888
  582TIP3   OH223236   6.418   2.598   2.490
  582TIP3    H123237   6.390   2.683   2.457
  582TIP3    H223238   6.422   2.542   2.412
  583TIP3   OH223239   2.153   4.144   5.598
  583TIP3    H123240   2.082   4.199   5.630
  583TIP3    H223241   2.181   4.186   5.516
  584TIP3   OH223242   2.100   0.453   0.308
  584TIP3    H123243   2.073   0.505   0.383
  584TIP3    H223244   2.189   0.483   0.289
  585TIP3   OH223245   1.579   2.295   3.389
  585TIP3    H123246   1.628   2.213   3.385
  585TIP3    H223247   1.500   2.279   3.337
  586TIP3   OH223248   4.561   3.027  12.242
  586TIP3    H123249   4.493   3.045  12.177
  586TIP3    H223250   4.515   2.982  12.313
  587TIP3   OH223251   5.105   3.614   1.585
  587TIP3    H123252   5.102   3.573   1.498
  587TIP3    H223253   5.053   3.694   1.576
  588TIP3   OH223254   1.257   0.639   5.469
  588TIP3    H123255   1.204   0.568   5.505
  588TIP3    H223256   1.307   0.599   5.399
  589TIP3   OH223257   5.180   3.896  13.267
  589TIP3    H123258   5.086   3.885  13.283
  589TIP3    H223259   5.185   3.935  13.179
  590TIP3   OH223260   1.437   2.747   4.441
  590TIP3    H123261   1.361   2.711   4.487
  590TIP3    H223262   1.496   2.672   4.429
  591TIP3   OH223263   4.896   2.171   5.774
  591TIP3    H123264   4.927   2.213   5.854
  591TIP3    H223265   4.975   2.145   5.728
  592TIP3   OH223266   6.205   5.294  14.882
  592TIP3    H123267   6.181   5.241  14.958
  592TIP3    H223268   6.124   5.300  14.831
  593TIP3   OH223269   5.626   4.527  12.913
  593TIP3    H123270   5.710   4.573  12.913
  593TIP3    H223271   5.650   4.434  12.916
  594TIP3   OH223272   4.483   3.276  10.452
  594TIP3    H123273   4.455   3.280  10.360
  594TIP3    H223274   4.546   3.204  10.455
  595TIP3   OH223275   3.197   5.161  14.602
  595TIP3    H123276   3.273   5.175  14.658
  595TIP3    H223277   3.201   5.068  14.578
  596TIP3   OH223278   4.934   0.234  14.295
  596TIP3    H123279   4.885   0.153  14.282
  596TIP3    H223280   4.983   0.221  14.376
  597TIP3   OH223281   2.455   4.775   4.929
  597TIP3    H123282   2.484   4.847   4.985
  597TIP3    H223283   2.360   4.783   4.928
  598TIP3   OH223284   4.193   3.021  12.945
  598TIP3    H123285   4.191   2.956  13.015
  598TIP3    H223286   4.283   3.021  12.914
  599TIP3   OH223287   4.795   5.348   3.555
  599TIP3    H123288   4.781   5.361   3.649
  599TIP3    H223289   4.874   5.296   3.550
  600TIP3   OH223290   0.323   3.948   3.659
  600TIP3    H123291   0.359   3.910   3.579
  600TIP3    H223292   0.395   3.997   3.697
  601TIP3   OH223293   5.344   4.955  12.791
  601TIP3    H123294   5.414   4.899  12.824
  601TIP3    H223295   5.281   4.960  12.863
  602TIP3   OH223296   3.006   3.951  16.946
  602TIP3    H123297   3.003   4.010  16.871
  602TIP3    H223298   3.084   3.977  16.995
  603TIP3   OH223299   2.447   3.203   1.710
  603TIP3    H123300   2.505   3.131   1.689
  603TIP3    H223301   2.498   3.282   1.690
  604TIP3   OH223302   2.477   2.943  17.135
  604TIP3    H123303   2.415   3.011  17.162
  604TIP3    H223304   2.453   2.922  17.045
  605TIP3   OH223305   1.643   2.647  15.689
  605TIP3    H123306   1.589   2.576  15.653
  605TIP3    H223307   1.596   2.674  15.768
  606TIP3   OH223308   0.022   4.815   4.727
  606TIP3    H123309   0.116   4.795   4.722
  606TIP3    H223310   0.002   4.856   4.643
  607TIP3   OH223311   6.045   1.356  12.917
  607TIP3    H123312   6.032   1.273  12.964
  607TIP3    H223313   6.114   1.336  12.853
  608TIP3   OH223314   5.013   5.999  15.213
  608TIP3    H123315   4.981   5.986  15.124
  608TIP3    H223316   4.973   5.928  15.263
  609TIP3   OH223317   6.392   0.009   0.570
  609TIP3    H123318   6.445  -0.071   0.572
  609TIP3    H223319   6.374   0.024   0.477
  610TIP3   OH223320   1.931   3.983   0.814
  610TIP3    H123321   1.964   4.064   0.776
  610TIP3    H223322   1.856   3.959   0.759
  611TIP3   OH223323   6.606   1.176   4.423
  611TIP3    H123324   6.623   1.237   4.495
  611TIP3    H223325   6.594   1.091   4.466
  612TIP3   OH223326   1.168   3.624  17.113
  612TIP3    H123327   1.125   3.571  17.046
  612TIP3    H223328   1.106   3.695  17.130
  613TIP3   OH223329   2.168   6.494  14.702
  613TIP3    H123330   2.164   6.483  14.797
  613TIP3    H223331   2.255   6.528  14.686
  614TIP3   OH223332   0.229   1.031  13.487
  614TIP3    H123333   0.209   1.105  13.545
  614TIP3    H223334   0.324   1.034  13.478
  615TIP3   OH223335   6.223   1.955   0.169
  615TIP3    H123336   6.258   2.041   0.193
  615TIP3    H223337   6.150   1.975   0.110
  616TIP3   OH223338   6.817   6.557   0.935
  616TIP3    H123339   6.814   6.556   1.031
  616TIP3    H223340   6.761   6.631   0.911
  617TIP3   OH223341   4.654   4.204  14.561
  617TIP3    H123342   4.615   4.247  14.485
  617TIP3    H223343   4.727   4.153  14.526
  618TIP3   OH223344   6.512   2.807   0.064
  618TIP3    H123345   6.482   2.781   0.151
  618TIP3    H223346   6.432   2.836   0.019
  619TIP3   OH223347   6.108   3.486  12.812
  619TIP3    H123348   6.081   3.518  12.898
  619TIP3    H223349   6.036   3.429  12.784
  620TIP3   OH223350   4.002   4.187   5.495
  620TIP3    H123351   3.941   4.261   5.485
  620TIP3    H223352   3.947   4.109   5.486
  621TIP3   OH223353   2.974   4.563  14.678
  621TIP3    H123354   2.887   4.579  14.716
  621TIP3    H223355   3.034   4.585  14.749
  622TIP3   OH223356   4.517   2.083   0.386
  622TIP3    H123357   4.590   2.042   0.433
  622TIP3    H223358   4.439   2.048   0.428
  623TIP3   OH223359   2.720   5.132  13.113
  623TIP3    H123360   2.766   5.135  13.029
  623TIP3    H223361   2.790   5.130  13.179
  624TIP3   OH223362   4.705   5.753  16.651
  624TIP3    H123363   4.708   5.761  16.747
  624TIP3    H223364   4.741   5.836  16.619
  625TIP3   OH223365   0.568   0.184   2.185
  625TIP3    H123366   0.486   0.178   2.136
  625TIP3    H223367   0.628   0.230   2.127
  626TIP3   OH223368   0.837   2.932  16.653
  626TIP3    H123369   0.835   2.893  16.740
  626TIP3    H223370   0.891   2.873  16.601
  627TIP3   OH223371   4.669   5.660  15.477
  627TIP3    H123372   4.665   5.589  15.412
  627TIP3    H223373   4.685   5.616  15.560
  628TIP3   OH223374   3.853   1.275  12.807
  628TIP3    H123375   3.835   1.346  12.869
  628TIP3    H223376   3.840   1.315  12.721
  629TIP3   OH223377   5.492   1.772  16.552
  629TIP3    H123378   5.488   1.723  16.634
  629TIP3    H223379   5.569   1.738  16.506
  630TIP3   OH223380   5.205   3.230   1.668
  630TIP3    H123381   5.131   3.253   1.724
  630TIP3    H223382   5.166   3.213   1.582
  631TIP3   OH223383   3.261   1.740  16.723
  631TIP3    H123384   3.245   1.651  16.752
  631TIP3    H223385   3.243   1.794  16.800
  632TIP3   OH223386   2.873   2.738   1.554
  632TIP3    H123387   2.780   2.755   1.539
  632TIP3    H223388   2.914   2.753   1.469
  633TIP3   OH223389   3.372   1.209   2.706
  633TIP3    H123390   3.308   1.157   2.756
  633TIP3    H223391   3.365   1.297   2.742
  634TIP3   OH223392   5.538   2.249   3.276
  634TIP3    H123393   5.492   2.276   3.196
  634TIP3    H223394   5.474   2.196   3.324
  635TIP3   OH223395   5.505   5.855  16.139
  635TIP3    H123396   5.431   5.845  16.079
  635TIP3    H223397   5.516   5.769  16.179
  636TIP3   OH223398   0.868   1.706   0.103
  636TIP3    H123399   0.947   1.753   0.130
  636TIP3    H223400   0.801   1.732   0.166
  637TIP3   OH223401   4.651   1.569   5.108
  637TIP3    H123402   4.653   1.629   5.182
  637TIP3    H223403   4.714   1.605   5.045
  638TIP3   OH223404   6.611   1.883  10.938
  638TIP3    H123405   6.631   1.790  10.937
  638TIP3    H223406   6.657   1.918  10.861
  639TIP3   OH223407   0.950   2.822  11.963
  639TIP3    H123408   1.000   2.748  11.997
  639TIP3    H223409   0.946   2.807  11.869
  640TIP3   OH223410   1.403   6.045  11.049
  640TIP3    H123411   1.458   5.978  11.088
  640TIP3    H223412   1.379   6.011  10.963
  641TIP3   OH223413   2.307   5.463   3.070
  641TIP3    H123414   2.216   5.491   3.082
  641TIP3    H223415   2.306   5.369   3.083
  642TIP3   OH223416   2.172   2.605   4.150
  642TIP3    H123417   2.112   2.539   4.186
  642TIP3    H223418   2.257   2.561   4.147
  643TIP3   OH223419   2.113   0.005  14.553
  643TIP3    H123420   2.197  -0.036  14.532
  643TIP3    H223421   2.057  -0.016  14.479
  644TIP3   OH223422   2.688   4.290  12.538
  644TIP3    H123423   2.649   4.324  12.458
  644TIP3    H223424   2.718   4.202  12.515
  645TIP3   OH223425   5.647   5.437   5.140
  645TIP3    H123426   5.590   5.403   5.071
  645TIP3    H223427   5.587   5.471   5.206
  646TIP3   OH223428   5.078   6.656  13.651
  646TIP3    H123429   5.027   6.653  13.570
  646TIP3    H223430   5.086   6.750  13.670
  647TIP3   OH223431   0.324   1.017  15.227
  647TIP3    H123432   0.328   0.933  15.183
  647TIP3    H223433   0.302   0.995  15.318
  648TIP3   OH223434   4.611   4.146   5.457
  648TIP3    H123435   4.632   4.075   5.517
  648TIP3    H223436   4.646   4.117   5.373
  649TIP3   OH223437   1.427   1.484  17.270
  649TIP3    H123438   1.425   1.483  17.365
  649TIP3    H223439   1.389   1.399  17.244
  650TIP3   OH223440   5.028   2.074  11.093
  650TIP3    H123441   4.950   2.023  11.116
  650TIP3    H223442   5.002   2.165  11.105
  651TIP3   OH223443   1.617   3.517   2.049
  651TIP3    H123444   1.591   3.596   2.097
  651TIP3    H223445   1.643   3.455   2.117
  652TIP3   OH223446   5.664   0.192  13.698
  652TIP3    H123447   5.754   0.163  13.714
  652TIP3    H223448   5.620   0.115  13.662
  653TIP3   OH223449   5.137   0.616  13.355
  653TIP3    H123450   5.052   0.575  13.340
  653TIP3    H223451   5.182   0.610  13.271
  654TIP3   OH223452   0.195   2.300  15.711
  654TIP3    H123453   0.202   2.378  15.655
  654TIP3    H223454   0.285   2.275  15.729
  655TIP3   OH223455   1.638   3.647  14.958
  655TIP3    H123456   1.553   3.676  14.990
  655TIP3    H223457   1.658   3.706  14.886
  656TIP3   OH223458   0.995   6.664   4.478
  656TIP3    H123459   1.085   6.696   4.478
  656TIP3    H223460   0.995   6.592   4.542
  657TIP3   OH223461   2.854   1.531   4.345
  657TIP3    H123462   2.830   1.617   4.378
  657TIP3    H223463   2.950   1.531   4.345
  658TIP3   OH223464   5.123   5.177  11.875
  658TIP3    H123465   5.160   5.109  11.932
  658TIP3    H223466   5.029   5.173  11.891
  659TIP3   OH223467   3.474   5.051  11.394
  659TIP3    H123468   3.392   5.100  11.401
  659TIP3    H223469   3.448   4.959  11.398
  660TIP3   OH223470   6.438   2.926  13.396
  660TIP3    H123471   6.419   2.926  13.490
  660TIP3    H223472   6.361   2.884  13.357
  661TIP3   OH223473   0.101   2.201   0.024
  661TIP3    H123474   0.058   2.257   0.089
  661TIP3    H223475   0.089   2.247  -0.059
  662TIP3   OH223476   1.296   6.395   2.700
  662TIP3    H123477   1.368   6.399   2.636
  662TIP3    H223478   1.218   6.376   2.647
  663TIP3   OH223479   3.753   2.342  13.924
  663TIP3    H123480   3.684   2.407  13.941
  663TIP3    H223481   3.832   2.381  13.962
  664TIP3   OH223482   3.172   0.199  12.500
  664TIP3    H123483   3.239   0.137  12.472
  664TIP3    H223484   3.089   0.157  12.479
  665TIP3   OH223485   6.567   6.597  11.031
  665TIP3    H123486   6.514   6.618  10.954
  665TIP3    H223487   6.654   6.631  11.009
  666TIP3   OH223488   2.966   0.780   3.520
  666TIP3    H123489   2.999   0.778   3.430
  666TIP3    H223490   3.000   0.699   3.560
  667TIP3   OH223491   5.548   5.675  16.368
  667TIP3    H123492   5.618   5.628  16.323
  667TIP3    H223493   5.591   5.753  16.403
  668TIP3   OH223494   5.999   2.018  14.678
  668TIP3    H123495   5.988   2.109  14.650
  668TIP3    H223496   6.088   1.995  14.650
  669TIP3   OH223497   6.382   4.144  11.316
  669TIP3    H123498   6.471   4.168  11.340
  669TIP3    H223499   6.328   4.174  11.389
  670TIP3   OH223500   5.573   0.508   5.829
  670TIP3    H123501   5.542   0.483   5.916
  670TIP3    H223502   5.661   0.543   5.843
  671TIP3   OH223503   4.306   5.796   3.193
  671TIP3    H123504   4.362   5.737   3.141
  671TIP3    H223505   4.221   5.752   3.197
  672TIP3   OH223506   2.593   5.869   2.671
  672TIP3    H123507   2.576   5.912   2.587
  672TIP3    H223508   2.523   5.900   2.728
  673TIP3   OH223509   3.938   6.583  16.107
  673TIP3    H123510   3.913   6.623  16.023
  673TIP3    H223511   3.980   6.654  16.156
  674TIP3   OH223512   1.890   6.704  15.982
  674TIP3    H123513   1.807   6.747  15.963
  674TIP3    H223514   1.919   6.742  16.064
  675TIP3   OH223515   2.962   4.581   0.300
  675TIP3    H123516   2.967   4.513   0.367
  675TIP3    H223517   2.902   4.646   0.337
  676TIP3   OH223518   5.564   6.146   5.682
  676TIP3    H123519   5.609   6.112   5.759
  676TIP3    H223520   5.508   6.074   5.654
  677TIP3   OH223521   0.908   5.226  15.882
  677TIP3    H123522   0.980   5.227  15.819
  677TIP3    H223523   0.936   5.285  15.953
  678TIP3   OH223524   4.044   5.307  15.457
  678TIP3    H123525   3.960   5.304  15.504
  678TIP3    H223526   4.028   5.369  15.385
  679TIP3   OH223527   0.920   3.365  17.100
  679TIP3    H123528   0.831   3.374  17.068
  679TIP3    H223529   0.972   3.423  17.044
  680TIP3   OH223530   0.927   2.667   2.085
  680TIP3    H123531   0.898   2.576   2.082
  680TIP3    H223532   1.018   2.664   2.057
  681TIP3   OH223533   5.265   6.171  14.626
  681TIP3    H123534   5.345   6.195  14.578
  681TIP3    H223535   5.289   6.182  14.718
  682TIP3   OH223536   1.252   3.457  12.249
  682TIP3    H123537   1.212   3.371  12.235
  682TIP3    H223538   1.192   3.502  12.307
  683TIP3   OH223539   4.136   3.756  11.301
  683TIP3    H123540   4.133   3.661  11.296
  683TIP3    H223541   4.049   3.785  11.273
  684TIP3   OH223542   6.137   4.988  13.108
  684TIP3    H123543   6.213   4.933  13.094
  684TIP3    H223544   6.173   5.074  13.130
  685TIP3   OH223545   2.999   2.815   4.747
  685TIP3    H123546   2.987   2.795   4.654
  685TIP3    H223547   2.909   2.826   4.780
  686TIP3   OH223548   6.800   4.686   3.894
  686TIP3    H123549   6.839   4.771   3.917
  686TIP3    H223550   6.719   4.682   3.944
  687TIP3   OH223551   1.069   0.109  15.379
  687TIP3    H123552   1.029   0.080  15.298
  687TIP3    H223553   1.037   0.199  15.391
  688TIP3   OH223554   4.929   5.238  13.295
  688TIP3    H123555   4.900   5.247  13.386
  688TIP3    H223556   4.853   5.265  13.243
  689TIP3   OH223557   4.294   5.704  15.403
  689TIP3    H123558   4.341   5.786  15.423
  689TIP3    H223559   4.284   5.662  15.488
  690TIP3   OH223560   2.447   2.615  16.850
  690TIP3    H123561   2.428   2.707  16.870
  690TIP3    H223562   2.365   2.580  16.814
  691TIP3   OH223563   1.272   2.024   3.990
  691TIP3    H123564   1.302   2.113   3.973
  691TIP3    H223565   1.352   1.973   3.998
  692TIP3   OH223566   2.584   5.302  16.305
  692TIP3    H123567   2.660   5.322  16.251
  692TIP3    H223568   2.511   5.346  16.262
  693TIP3   OH223569   5.547   5.880   4.028
  693TIP3    H123570   5.534   5.975   4.032
  693TIP3    H223571   5.612   5.867   3.960
  694TIP3   OH223572   4.086   5.297   1.671
  694TIP3    H123573   4.006   5.265   1.630
  694TIP3    H223574   4.132   5.218   1.698
  695TIP3   OH223575   0.421   3.772  15.467
  695TIP3    H123576   0.351   3.708  15.451
  695TIP3    H223577   0.485   3.724  15.519
  696TIP3   OH223578   4.626   5.419  14.937
  696TIP3    H123579   4.680   5.497  14.932
  696TIP3    H223580   4.621   5.399  15.030
  697TIP3   OH223581   3.574   0.322  14.146
  697TIP3    H123582   3.618   0.237  14.147
  697TIP3    H223583   3.539   0.330  14.057
  698TIP3   OH223584   0.216   6.647   2.222
  698TIP3    H123585   0.123   6.624   2.218
  698TIP3    H223586   0.224   6.723   2.164
  699TIP3   OH223587   6.180   2.883  12.708
  699TIP3    H123588   6.250   2.940  12.740
  699TIP3    H223589   6.221   2.832  12.638
  700TIP3   OH223590   2.613   5.517  16.857
  700TIP3    H123591   2.616   5.501  16.951
  700TIP3    H223592   2.580   5.435  16.820
  701TIP3   OH223593   4.757   2.392  11.785
  701TIP3    H123594   4.697   2.376  11.857
  701TIP3    H223595   4.794   2.306  11.765
  702TIP3   OH223596   6.244   3.243   2.905
  702TIP3    H123597   6.203   3.315   2.857
  702TIP3    H223598   6.261   3.279   2.992
  703TIP3   OH223599   4.989   5.979  14.948
  703TIP3    H123600   4.895   5.977  14.929
  703TIP3    H223601   5.030   5.936  14.873
  704TIP3   OH223602   4.713   0.657  14.114
  704TIP3    H123603   4.757   0.741  14.106
  704TIP3    H223604   4.656   0.652  14.037
  705TIP3   OH223605   2.949   6.179   2.280
  705TIP3    H123606   2.967   6.168   2.187
  705TIP3    H223607   3.033   6.204   2.319
  706TIP3   OH223608   1.208   5.825  11.927
  706TIP3    H123609   1.261   5.850  11.852
  706TIP3    H223610   1.269   5.825  12.001
  707TIP3   OH223611   2.902   6.719   4.208
  707TIP3    H123612   2.892   6.778   4.134
  707TIP3    H223613   2.813   6.691   4.229
  708TIP3   OH223614   3.351   4.940   2.151
  708TIP3    H123615   3.274   4.915   2.102
  708TIP3    H223616   3.425   4.910   2.098
  709TIP3   OH223617   2.106   4.025  15.296
  709TIP3    H123618   2.179   4.081  15.324
  709TIP3    H223619   2.028   4.079  15.310
  710TIP3   OH223620   0.155   6.110   6.047
  710TIP3    H123621   0.106   6.139   5.970
  710TIP3    H223622   0.152   6.014   6.043
  711TIP3   OH223623   4.015   2.574  11.797
  711TIP3    H123624   3.967   2.512  11.852
  711TIP3    H223625   4.055   2.635  11.859
  712TIP3   OH223626   5.803   3.980  14.727
  712TIP3    H123627   5.778   3.903  14.676
  712TIP3    H223628   5.889   4.005  14.693
  713TIP3   OH223629   3.038   2.292   6.294
  713TIP3    H123630   2.983   2.217   6.318
  713TIP3    H223631   2.977   2.357   6.260
  714TIP3   OH223632   3.582   5.373  15.836
  714TIP3    H123633   3.549   5.283  15.834
  714TIP3    H223634   3.630   5.380  15.919
  715TIP3   OH223635   4.990   0.807   5.500
  715TIP3    H123636   4.905   0.812   5.456
  715TIP3    H223637   5.028   0.725   5.470
  716TIP3   OH223638   3.482   1.763   4.079
  716TIP3    H123639   3.467   1.772   3.986
  716TIP3    H223640   3.542   1.834   4.101
  717TIP3   OH223641   1.324   5.466  15.151
  717TIP3    H123642   1.229   5.476  15.141
  717TIP3    H223643   1.361   5.512  15.076
  718TIP3   OH223644   1.342   2.534  16.751
  718TIP3    H123645   1.403   2.570  16.686
  718TIP3    H223646   1.392   2.532  16.833
  719TIP3   OH223647   6.071   2.737   5.592
  719TIP3    H123648   6.018   2.680   5.648
  719TIP3    H223649   6.061   2.700   5.504
  720TIP3   OH223650   5.099   6.207  12.182
  720TIP3    H123651   5.081   6.178  12.092
  720TIP3    H223652   5.150   6.136  12.221
  721TIP3   OH223653   3.403   1.747   2.400
  721TIP3    H123654   3.432   1.792   2.321
  721TIP3    H223655   3.330   1.692   2.371
  722TIP3   OH223656   5.419   2.085   2.848
  722TIP3    H123657   5.325   2.102   2.854
  722TIP3    H223658   5.448   2.081   2.939
  723TIP3   OH223659   5.131   1.474  12.009
  723TIP3    H123660   5.075   1.551  12.013
  723TIP3    H223661   5.071   1.400  12.004
  724TIP3   OH223662   6.319   2.950   4.166
  724TIP3    H123663   6.410   2.969   4.143
  724TIP3    H223664   6.267   3.006   4.108
  725TIP3   OH223665   2.164   2.739   0.599
  725TIP3    H123666   2.122   2.782   0.673
  725TIP3    H223667   2.227   2.804   0.566
  726TIP3   OH223668   6.116   6.378  11.203
  726TIP3    H123669   6.174   6.417  11.137
  726TIP3    H223670   6.170   6.310  11.244
  727TIP3   OH223671   4.079   1.300  11.083
  727TIP3    H123672   4.042   1.268  11.166
  727TIP3    H223673   4.149   1.238  11.063
  728TIP3   OH223674   2.807   2.020   2.443
  728TIP3    H123675   2.894   1.989   2.416
  728TIP3    H223676   2.768   2.056   2.364
  729TIP3   OH223677   4.658   5.384  16.348
  729TIP3    H123678   4.612   5.328  16.411
  729TIP3    H223679   4.657   5.471  16.388
  730TIP3   OH223680   4.700   0.708   4.317
  730TIP3    H123681   4.759   0.730   4.245
  730TIP3    H223682   4.613   0.729   4.283
  731TIP3   OH223683   4.235   6.559   2.605
  731TIP3    H123684   4.223   6.464   2.604
  731TIP3    H223685   4.199   6.590   2.522
  732TIP3   OH223686   2.930   0.014  16.770
  732TIP3    H123687   2.901   0.008  16.861
  732TIP3    H223688   2.975  -0.069  16.755
  733TIP3   OH223689   4.724   4.026  11.641
  733TIP3    H123690   4.775   4.070  11.573
  733TIP3    H223691   4.777   3.951  11.667
  734TIP3   OH223692   6.189   6.644   2.249
  734TIP3    H123693   6.145   6.610   2.326
  734TIP3    H223694   6.276   6.668   2.279
  735TIP3   OH223695   1.057   0.609   2.096
  735TIP3    H123696   1.023   0.685   2.048
  735TIP3    H223697   1.031   0.625   2.187
  736TIP3   OH223698   6.557   6.809  11.686
  736TIP3    H123699   6.541   6.739  11.622
  736TIP3    H223700   6.485   6.801  11.749
  737TIP3   OH223701   2.795   6.677   1.625
  737TIP3    H123702   2.726   6.641   1.569
  737TIP3    H223703   2.777   6.641   1.712
  738TIP3   OH223704   2.810   4.894   5.715
  738TIP3    H123705   2.791   4.937   5.798
  738TIP3    H223706   2.849   4.810   5.740
  739TIP3   OH223707   2.560   0.530  16.846
  739TIP3    H123708   2.486   0.544  16.904
  739TIP3    H223709   2.523   0.531  16.758
  740TIP3   OH223710   3.810   0.052   0.278
  740TIP3    H123711   3.762   0.125   0.240
  740TIP3    H223712   3.833   0.082   0.366
  741TIP3   OH223713   6.638   6.327   6.065
  741TIP3    H123714   6.702   6.266   6.102
  741TIP3    H223715   6.595   6.278   5.995
  742TIP3   OH223716   3.791   5.030   3.669
  742TIP3    H123717   3.765   5.032   3.577
  742TIP3    H223718   3.716   4.991   3.715
  743TIP3   OH223719   1.544   2.264   4.933
  743TIP3    H123720   1.499   2.326   4.990
  743TIP3    H223721   1.510   2.281   4.846
  744TIP3   OH223722   0.731   6.574  11.067
  744TIP3    H123723   0.644   6.568  11.028
  744TIP3    H223724   0.761   6.663  11.046
  745TIP3   OH223725   1.468   4.536  16.293
  745TIP3    H123726   1.479   4.577  16.378
  745TIP3    H223727   1.379   4.558  16.267
  746TIP3   OH223728   0.880   6.178   2.327
  746TIP3    H123729   0.829   6.154   2.250
  746TIP3    H223730   0.819   6.227   2.381
  747TIP3   OH223731   0.423   3.725  11.326
  747TIP3    H123732   0.465   3.764  11.250
  747TIP3    H223733   0.363   3.793  11.358
  748TIP3   OH223734   3.264   2.733   1.827
  748TIP3    H123735   3.339   2.772   1.783
  748TIP3    H223736   3.188   2.775   1.787
  749TIP3   OH223737   0.726   4.998  12.040
  749TIP3    H123738   0.708   4.920  11.988
  749TIP3    H223739   0.815   4.985  12.072
  750TIP3   OH223740   6.423   3.250  11.279
  750TIP3    H123741   6.478   3.255  11.201
  750TIP3    H223742   6.447   3.168  11.321
  751TIP3   OH223743   3.577   1.061   1.600
  751TIP3    H123744   3.639   0.993   1.572
  751TIP3    H223745   3.527   1.081   1.521
  752TIP3   OH223746   4.389   2.964  15.284
  752TIP3    H123747   4.450   2.989  15.214
  752TIP3    H223748   4.437   2.981  15.365
  753TIP3   OH223749   1.433   3.647   4.498
  753TIP3    H123750   1.528   3.640   4.505
  753TIP3    H223751   1.412   3.733   4.534
  754TIP3   OH223752   4.141   5.949  13.405
  754TIP3    H123753   4.120   5.869  13.357
  754TIP3    H223754   4.168   6.012  13.337
  755TIP3   OH223755   4.884   6.659   5.825
  755TIP3    H123756   4.881   6.752   5.843
  755TIP3    H223757   4.794   6.629   5.837
  756TIP3   OH223758   5.795   3.795  13.646
  756TIP3    H123759   5.768   3.704  13.647
  756TIP3    H223760   5.884   3.795  13.683
  757TIP3   OH223761   4.170   2.495  15.331
  757TIP3    H123762   4.226   2.562  15.369
  757TIP3    H223763   4.101   2.543  15.287
  758TIP3   OH223764   2.018   1.286   2.359
  758TIP3    H123765   2.096   1.232   2.364
  758TIP3    H223766   1.946   1.223   2.349
  759TIP3   OH223767   6.546   4.812   1.858
  759TIP3    H123768   6.546   4.783   1.949
  759TIP3    H223769   6.515   4.736   1.808
  760TIP3   OH223770   2.664   3.930   1.052
  760TIP3    H123771   2.699   3.890   1.131
  760TIP3    H223772   2.572   3.904   1.050
  761TIP3   OH223773   6.300   4.600   5.670
  761TIP3    H123774   6.348   4.667   5.718
  761TIP3    H223775   6.241   4.649   5.612
  762TIP3   OH223776   0.209   1.767  14.702
  762TIP3    H123777   0.292   1.811  14.718
  762TIP3    H223778   0.198   1.770  14.607
  763TIP3   OH223779   4.186   5.084   6.311
  763TIP3    H123780   4.241   5.052   6.383
  763TIP3    H223781   4.195   5.018   6.242
  764TIP3   OH223782   6.022   3.414  14.376
  764TIP3    H123783   5.931   3.436  14.394
  764TIP3    H223784   6.070   3.496  14.385
  765TIP3   OH223785   2.140   1.704  12.727
  765TIP3    H123786   2.156   1.645  12.653
  765TIP3    H223787   2.226   1.740  12.748
  766TIP3   OH223788   6.185   5.884   2.655
  766TIP3    H123789   6.194   5.803   2.605
  766TIP3    H223790   6.181   5.856   2.746
  767TIP3   OH223791   5.675   0.452   6.562
  767TIP3    H123792   5.606   0.460   6.496
  767TIP3    H223793   5.741   0.396   6.522
  768TIP3   OH223794   6.730   3.630   2.678
  768TIP3    H123795   6.776   3.655   2.758
  768TIP3    H223796   6.799   3.606   2.616
  769TIP3   OH223797   5.102   1.308  10.675
  769TIP3    H123798   5.113   1.335  10.583
  769TIP3    H223799   5.060   1.383  10.717
  770TIP3   OH223800   3.130   1.971  13.010
  770TIP3    H123801   3.224   1.970  13.024
  770TIP3    H223802   3.099   1.888  13.047
  771TIP3   OH223803   0.817   3.506   5.168
  771TIP3    H123804   0.774   3.579   5.213
  771TIP3    H223805   0.836   3.443   5.238
  772TIP3   OH223806   5.700   0.677   3.132
  772TIP3    H123807   5.791   0.701   3.118
  772TIP3    H223808   5.698   0.582   3.119
  773TIP3   OH223809   1.521   0.547  11.061
  773TIP3    H123810   1.468   0.483  11.014
  773TIP3    H223811   1.472   0.629  11.055
  774TIP3   OH223812   3.248   4.323  14.799
  774TIP3    H123813   3.333   4.337  14.841
  774TIP3    H223814   3.193   4.395  14.830
  775TIP3   OH223815   4.160   4.341   3.274
  775TIP3    H123816   4.160   4.352   3.179
  775TIP3    H223817   4.178   4.429   3.308
  776TIP3   OH223818   3.076   4.005   2.526
  776TIP3    H123819   3.019   4.059   2.580
  776TIP3    H223820   3.017   3.946   2.480
  777TIP3   OH223821   3.433   1.623  10.992
  777TIP3    H123822   3.455   1.713  10.968
  777TIP3    H223823   3.476   1.569  10.926
  778TIP3   OH223824   0.530   2.608   5.106
  778TIP3    H123825   0.603   2.669   5.113
  778TIP3    H223826   0.491   2.606   5.194
  779TIP3   OH223827   0.163   1.991  12.829
  779TIP3    H123828   0.235   1.949  12.877
  779TIP3    H223829   0.098   1.922  12.819
  780TIP3   OH223830   5.893   6.778  12.950
  780TIP3    H123831   5.829   6.844  12.980
  780TIP3    H223832   5.896   6.714  13.021
  781TIP3   OH223833   3.877   4.025   0.978
  781TIP3    H123834   3.811   4.094   0.977
  781TIP3    H223835   3.933   4.045   0.903
  782TIP3   OH223836   3.942   6.740  15.366
  782TIP3    H123837   3.984   6.725  15.451
  782TIP3    H223838   3.996   6.807  15.324
  783TIP3   OH223839   0.129   4.988   5.419
  783TIP3    H123840   0.181   5.068   5.411
  783TIP3    H223841   0.050   5.006   5.368
  784TIP3   OH223842   4.908   5.345  17.190
  784TIP3    H123843   4.849   5.285  17.145
  784TIP3    H223844   4.855   5.379  17.263
  785TIP3   OH223845   6.141   0.298  11.197
  785TIP3    H123846   6.079   0.369  11.211
  785TIP3    H223847   6.128   0.239  11.272
  786TIP3   OH223848   5.173   3.684   5.383
  786TIP3    H123849   5.101   3.621   5.374
  786TIP3    H223850   5.206   3.696   5.294
  787TIP3   OH223851   4.896   2.749   1.559
  787TIP3    H123852   4.830   2.793   1.506
  787TIP3    H223853   4.876   2.776   1.649
  788TIP3   OH223854   5.238   3.243  11.510
  788TIP3    H123855   5.147   3.272  11.515
  788TIP3    H223856   5.279   3.283  11.587
  789TIP3   OH223857   2.989   6.537  13.777
  789TIP3    H123858   2.906   6.572  13.810
  789TIP3    H223859   3.047   6.538  13.853
  790TIP3   OH223860   3.738   1.701  13.147
  790TIP3    H123861   3.652   1.696  13.104
  790TIP3    H223862   3.719   1.695  13.240
  791TIP3   OH223863   4.547   1.109   3.663
  791TIP3    H123864   4.633   1.088   3.698
  791TIP3    H223865   4.500   1.026   3.663
  792TIP3   OH223866   6.319   1.325  13.701
  792TIP3    H123867   6.231   1.309  13.667
  792TIP3    H223868   6.328   1.421  13.699
  793TIP3   OH223869   2.836   0.128  15.525
  793TIP3    H123870   2.822   0.034  15.538
  793TIP3    H223871   2.930   0.135  15.509
  794TIP3   OH223872   3.073   1.564   0.352
  794TIP3    H123873   3.107   1.635   0.407
  794TIP3    H223874   3.142   1.498   0.351
  795TIP3   OH223875   2.027   1.960   0.458
  795TIP3    H123876   1.965   1.948   0.385
  795TIP3    H223877   2.096   1.897   0.440
  796TIP3   OH223878   3.698   4.159   5.687
  796TIP3    H123879   3.742   4.092   5.740
  796TIP3    H223880   3.749   4.238   5.702
  797TIP3   OH223881   4.052   0.560   0.388
  797TIP3    H123882   4.012   0.561   0.301
  797TIP3    H223883   4.141   0.527   0.373
  798TIP3   OH223884   5.174   1.466   2.264
  798TIP3    H123885   5.224   1.446   2.185
  798TIP3    H223886   5.234   1.520   2.317
  799TIP3   OH223887   4.820   5.309  13.852
  799TIP3    H123888   4.797   5.240  13.915
  799TIP3    H223889   4.915   5.304  13.845
  800TIP3   OH223890   5.507   0.582  12.568
  800TIP3    H123891   5.450   0.535  12.507
  800TIP3    H223892   5.472   0.671  12.570
  801TIP3   OH223893   5.353   2.508   4.851
  801TIP3    H123894   5.276   2.464   4.815
  801TIP3    H223895   5.422   2.493   4.787
  802TIP3   OH223896   6.266   3.606  11.672
  802TIP3    H123897   6.185   3.649  11.648
  802TIP3    H223898   6.295   3.561  11.593
  803TIP3   OH223899   5.707   5.424  10.896
  803TIP3    H123900   5.643   5.450  10.963
  803TIP3    H223901   5.761   5.502  10.883
  804TIP3   OH223902   0.711   6.623  16.278
  804TIP3    H123903   0.795   6.614  16.324
  804TIP3    H223904   0.731   6.675  16.201
  805TIP3   OH223905   2.858   6.189   0.442
  805TIP3    H123906   2.828   6.103   0.468
  805TIP3    H223907   2.822   6.202   0.354
  806TIP3   OH223908   1.385   6.083   4.173
  806TIP3    H123909   1.451   6.142   4.209
  806TIP3    H223910   1.405   5.998   4.211
  807TIP3   OH223911   0.597   2.126  13.269
  807TIP3    H123912   0.567   2.113  13.179
  807TIP3    H223913   0.574   2.044  13.314
  808TIP3   OH223914   5.078   1.193   5.002
  808TIP3    H123915   5.111   1.133   5.069
  808TIP3    H223916   5.111   1.157   4.919
  809TIP3   OH223917   1.907   6.431   2.852
  809TIP3    H123918   1.867   6.515   2.828
  809TIP3    H223919   1.921   6.438   2.946
  810TIP3   OH223920   2.412   2.246   5.218
  810TIP3    H123921   2.431   2.204   5.302
  810TIP3    H223922   2.316   2.244   5.211
  811TIP3   OH223923   2.892   5.620   2.915
  811TIP3    H123924   2.878   5.659   2.829
  811TIP3    H223925   2.946   5.683   2.962
  812TIP3   OH223926   3.422   5.776   5.518
  812TIP3    H123927   3.378   5.802   5.437
  812TIP3    H223928   3.379   5.828   5.586
  813TIP3   OH223929   0.117   6.396   3.928
  813TIP3    H123930   0.167   6.315   3.929
  813TIP3    H223931   0.085   6.406   4.018
  814TIP3   OH223932   4.871   2.399   2.276
  814TIP3    H123933   4.840   2.432   2.192
  814TIP3    H223934   4.809   2.434   2.340
  815TIP3   OH223935   4.848   1.400   0.668
  815TIP3    H123936   4.803   1.360   0.742
  815TIP3    H223937   4.837   1.337   0.596
  816TIP3   OH223938   4.453   0.324   4.546
  816TIP3    H123939   4.505   0.402   4.528
  816TIP3    H223940   4.368   0.342   4.506
  817TIP3   OH223941   0.690   5.076   6.226
  817TIP3    H123942   0.772   5.056   6.272
  817TIP3    H223943   0.708   5.156   6.178
  818TIP3   OH223944   0.198   4.020  15.279
  818TIP3    H123945   0.139   3.996  15.208
  818TIP3    H223946   0.152   3.994  15.359
  819TIP3   OH223947   2.239   5.490   6.643
  819TIP3    H123948   2.323   5.450   6.665
  819TIP3    H223949   2.236   5.569   6.697
  820TIP3   OH223950   5.618   6.747  12.207
  820TIP3    H123951   5.540   6.754  12.153
  820TIP3    H223952   5.659   6.665  12.180
  821TIP3   OH223953   5.118   2.521  12.364
  821TIP3    H123954   5.090   2.606  12.330
  821TIP3    H223955   5.077   2.457  12.305
  822TIP3   OH223956   1.876   3.269  14.520
  822TIP3    H123957   1.788   3.236  14.499
  822TIP3    H223958   1.863   3.362  14.537
  823TIP3   OH223959   0.823   6.075   3.522
  823TIP3    H123960   0.770   6.047   3.596
  823TIP3    H223961   0.760   6.110   3.459
  824TIP3   OH223962   3.700   1.411   2.274
  824TIP3    H123963   3.714   1.431   2.367
  824TIP3    H223964   3.627   1.468   2.248
  825TIP3   OH223965   6.289   4.001   4.339
  825TIP3    H123966   6.294   4.081   4.287
  825TIP3    H223967   6.304   3.930   4.277
  826TIP3   OH223968   2.399   2.883   3.958
  826TIP3    H123969   2.358   2.813   3.906
  826TIP3    H223970   2.445   2.837   4.028
  827TIP3   OH223971   4.328   4.087  15.331
  827TIP3    H123972   4.385   4.067  15.256
  827TIP3    H223973   4.283   4.168  15.307
  828TIP3   OH223974   0.983   1.857   2.739
  828TIP3    H123975   0.958   1.889   2.652
  828TIP3    H223976   0.931   1.910   2.800
  829TIP3   OH223977   0.816   0.484  16.700
  829TIP3    H123978   0.756   0.537  16.647
  829TIP3    H223979   0.892   0.470  16.643
  830TIP3   OH223980   0.026   3.743  13.360
  830TIP3    H123981   0.035   3.758  13.454
  830TIP3    H223982   0.033   3.648  13.349
  831TIP3   OH223983   5.037   6.598  14.573
  831TIP3    H123984   5.121   6.565  14.542
  831TIP3    H223985   5.000   6.525  14.623
  832TIP3   OH223986   5.928   0.293  14.304
  832TIP3    H123987   5.953   0.287  14.396
  832TIP3    H223988   5.832   0.299  14.306
  833TIP3   OH223989   2.726   2.710   0.738
  833TIP3    H123990   2.660   2.646   0.765
  833TIP3    H223991   2.810   2.666   0.749
  834TIP3   OH223992   0.217   4.441   0.427
  834TIP3    H123993   0.284   4.432   0.359
  834TIP3    H223994   0.165   4.361   0.421
  835TIP3   OH223995   0.888   1.201   3.316
  835TIP3    H123996   0.910   1.295   3.315
  835TIP3    H223997   0.862   1.183   3.226
  836TIP3   OH223998   4.727   2.235  14.491
  836TIP3    H123999   4.657   2.274  14.439
  836TIP3    H224000   4.795   2.212  14.427
  837TIP3   OH224001   5.562   3.359  12.184
  837TIP3    H124002   5.585   3.279  12.232
  837TIP3    H224003   5.539   3.328  12.097
  838TIP3   OH224004   1.614   4.751  10.451
  838TIP3    H124005   1.575   4.669  10.484
  838TIP3    H224006   1.687   4.723  10.396
  839TIP3   OH224007   1.195   2.436  14.646
  839TIP3    H124008   1.263   2.457  14.583
  839TIP3    H224009   1.219   2.486  14.724
  840TIP3   OH224010   3.013   5.151  11.279
  840TIP3    H124011   3.092   5.205  11.276
  840TIP3    H224012   2.955   5.192  11.215
  841TIP3   OH224013   3.159   1.711  11.749
  841TIP3    H124014   3.185   1.669  11.667
  841TIP3    H224015   3.142   1.802  11.725
  842TIP3   OH224016   5.233   3.365   2.433
  842TIP3    H124017   5.242   3.459   2.453
  842TIP3    H224018   5.319   3.328   2.456
  843TIP3   OH224019   1.616   1.308   6.185
  843TIP3    H124020   1.599   1.214   6.189
  843TIP3    H224021   1.556   1.347   6.249
  844TIP3   OH224022   5.033   1.380  12.323
  844TIP3    H124023   4.960   1.432  12.288
  844TIP3    H224024   4.992   1.299  12.353
  845TIP3   OH224025   5.249   0.912   1.997
  845TIP3    H124026   5.241   0.817   1.995
  845TIP3    H224027   5.159   0.944   1.998
  846TIP3   OH224028   3.441   5.158   2.260
  846TIP3    H124029   3.361   5.210   2.268
  846TIP3    H224030   3.409   5.070   2.236
  847TIP3   OH224031   4.438   6.629   0.284
  847TIP3    H124032   4.492   6.596   0.212
  847TIP3    H224033   4.501   6.660   0.349
  848TIP3   OH224034   6.490   2.469  11.870
  848TIP3    H124035   6.580   2.477  11.901
  848TIP3    H224036   6.452   2.401  11.925
  849TIP3   OH224037   0.656   4.666   3.599
  849TIP3    H124038   0.749   4.669   3.619
  849TIP3    H224039   0.646   4.586   3.547
  850TIP3   OH224040   0.468   6.145  16.543
  850TIP3    H124041   0.499   6.148  16.453
  850TIP3    H224042   0.541   6.109  16.593
  851TIP3   OH224043   0.532   1.081   1.328
  851TIP3    H124044   0.447   1.120   1.349
  851TIP3    H224045   0.542   1.094   1.234
  852TIP3   OH224046   6.114   6.611  16.584
  852TIP3    H124047   6.180   6.566  16.637
  852TIP3    H224048   6.031   6.591  16.627
  853TIP3   OH224049   1.121   1.812   0.128
  853TIP3    H124050   1.177   1.844   0.198
  853TIP3    H224051   1.146   1.864   0.051
  854TIP3   OH224052   3.983   5.074  14.027
  854TIP3    H124053   4.071   5.104  14.051
  854TIP3    H224054   3.955   5.133  13.957
  855TIP3   OH224055   3.803   4.401  14.404
  855TIP3    H124056   3.875   4.370  14.349
  855TIP3    H224057   3.724   4.368  14.362
  856TIP3   OH224058   2.448   1.977   5.143
  856TIP3    H124059   2.536   2.010   5.158
  856TIP3    H224060   2.426   1.930   5.224
  857TIP3   OH224061   5.364   2.450   3.109
  857TIP3    H124062   5.300   2.516   3.133
  857TIP3    H224063   5.448   2.494   3.116
  858TIP3   OH224064   1.294   2.026  11.301
  858TIP3    H124065   1.250   1.989  11.225
  858TIP3    H224066   1.277   1.963  11.372
  859TIP3   OH224067   3.400   4.401  16.821
  859TIP3    H124068   3.436   4.360  16.900
  859TIP3    H224069   3.305   4.391  16.830
  860TIP3   OH224070   0.782   4.910   2.954
  860TIP3    H124071   0.739   4.977   2.899
  860TIP3    H224072   0.760   4.827   2.912
  861TIP3   OH224073   1.555   2.921   2.369
  861TIP3    H124074   1.504   3.002   2.374
  861TIP3    H224075   1.560   2.901   2.276
  862TIP3   OH224076   6.256   4.617  12.044
  862TIP3    H124077   6.241   4.647  11.954
  862TIP3    H224078   6.304   4.535  12.034
  863TIP3   OH224079   2.652   6.386  16.553
  863TIP3    H124080   2.685   6.426  16.472
  863TIP3    H224081   2.703   6.306  16.563
  864TIP3   OH224082   2.551   6.486  12.985
  864TIP3    H124083   2.456   6.475  12.981
  864TIP3    H224084   2.566   6.578  12.963
  865TIP3   OH224085   4.701   5.583   4.698
  865TIP3    H124086   4.679   5.509   4.641
  865TIP3    H224087   4.792   5.567   4.723
  866TIP3   OH224088   0.953   3.900   5.465
  866TIP3    H124089   0.918   3.865   5.547
  866TIP3    H224090   0.980   3.990   5.486
  867TIP3   OH224091   0.678   4.217   5.000
  867TIP3    H124092   0.643   4.191   5.085
  867TIP3    H224093   0.669   4.312   4.998
  868TIP3   OH224094   0.496   5.549   3.148
  868TIP3    H124095   0.500   5.482   3.080
  868TIP3    H224096   0.470   5.501   3.227
  869TIP3   OH224097   3.286   2.962   0.397
  869TIP3    H124098   3.319   2.963   0.487
  869TIP3    H224099   3.208   2.907   0.400
  870TIP3   OH224100   4.670   5.506   3.365
  870TIP3    H124101   4.589   5.499   3.416
  870TIP3    H224102   4.738   5.469   3.422
  871TIP3   OH224103   6.673   1.629  15.022
  871TIP3    H124104   6.585   1.593  15.034
  871TIP3    H224105   6.727   1.579  15.082
  872TIP3   OH224106   1.609   5.513   0.298
  872TIP3    H124107   1.613   5.508   0.203
  872TIP3    H224108   1.548   5.585   0.315
  873TIP3   OH224109   3.199   4.325  15.544
  873TIP3    H124110   3.156   4.268  15.607
  873TIP3    H224111   3.213   4.407  15.591
  874TIP3   OH224112   3.893   5.181   1.500
  874TIP3    H124113   3.859   5.092   1.509
  874TIP3    H224114   3.907   5.192   1.406
  875TIP3   OH224115   5.129   5.507  15.387
  875TIP3    H124116   5.079   5.587  15.403
  875TIP3    H224117   5.085   5.440  15.441
  876TIP3   OH224118   0.699   3.662  11.387
  876TIP3    H124119   0.642   3.676  11.312
  876TIP3    H224120   0.657   3.710  11.458
  877TIP3   OH224121   3.644   3.973  14.804
  877TIP3    H124122   3.577   4.040  14.816
  877TIP3    H224123   3.680   3.989  14.717
  878TIP3   OH224124   2.478   3.900  13.790
  878TIP3    H124125   2.459   3.911  13.697
  878TIP3    H224126   2.405   3.848  13.823
  879TIP3   OH224127   5.012   3.891   0.536
  879TIP3    H124128   5.023   3.983   0.510
  879TIP3    H224129   5.098   3.852   0.523
  880TIP3   OH224130   4.398   0.529   4.826
  880TIP3    H124131   4.380   0.436   4.816
  880TIP3    H224132   4.370   0.549   4.916
  881TIP3   OH224133   3.729   2.025   1.550
  881TIP3    H124134   3.633   2.025   1.556
  881TIP3    H224135   3.757   2.088   1.616
  882TIP3   OH224136   3.128   5.906  15.616
  882TIP3    H124137   3.076   5.826  15.612
  882TIP3    H224138   3.133   5.926  15.710
  883TIP3   OH224139   1.290   1.871  11.551
  883TIP3    H124140   1.237   1.793  11.566
  883TIP3    H224141   1.378   1.845  11.580
  884TIP3   OH224142   2.380   4.536   0.558
  884TIP3    H124143   2.452   4.478   0.581
  884TIP3    H224144   2.315   4.479   0.516
  885TIP3   OH224145   5.732   1.507   1.721
  885TIP3    H124146   5.727   1.599   1.698
  885TIP3    H224147   5.763   1.506   1.811
  886TIP3   OH224148   2.849   4.840  15.804
  886TIP3    H124149   2.767   4.847  15.854
  886TIP3    H224150   2.821   4.826  15.714
  887TIP3   OH224151   6.173   5.443   3.731
  887TIP3    H124152   6.161   5.533   3.761
  887TIP3    H224153   6.240   5.407   3.788
  888TIP3   OH224154   4.090   4.815  13.509
  888TIP3    H124155   4.088   4.856  13.595
  888TIP3    H224156   4.003   4.776  13.499
  889TIP3   OH224157   1.601   1.868  12.392
  889TIP3    H124158   1.681   1.846  12.345
  889TIP3    H224159   1.580   1.957  12.364
  890TIP3   OH224160   5.785   4.912   1.350
  890TIP3    H124161   5.766   4.832   1.301
  890TIP3    H224162   5.780   4.982   1.284
  891TIP3   OH224163   4.267   4.223  14.165
  891TIP3    H124164   4.320   4.301  14.181
  891TIP3    H224165   4.205   4.249  14.097
  892TIP3   OH224166   1.635   4.368   3.945
  892TIP3    H124167   1.718   4.347   3.989
  892TIP3    H224168   1.577   4.296   3.967
  893TIP3   OH224169   6.738   5.800   6.199
  893TIP3    H124170   6.700   5.862   6.262
  893TIP3    H224171   6.820   5.772   6.240
  894TIP3   OH224172   1.536   2.746  13.231
  894TIP3    H124173   1.526   2.838  13.257
  894TIP3    H224174   1.447   2.718  13.209
  895TIP3   OH224175   0.994   5.592  14.589
  895TIP3    H124176   1.062   5.534  14.622
  895TIP3    H224177   0.912   5.545  14.607
  896TIP3   OH224178   5.819   1.985   3.998
  896TIP3    H124179   5.799   1.996   4.091
  896TIP3    H224180   5.904   1.941   3.997
  897TIP3   OH224181   2.509   5.281   3.827
  897TIP3    H124182   2.548   5.368   3.834
  897TIP3    H224183   2.554   5.229   3.894
  898TIP3   OH224184   0.842   0.987   2.226
  898TIP3    H124185   0.793   0.913   2.261
  898TIP3    H224186   0.929   0.979   2.264
  899TIP3   OH224187   4.717   3.306   1.611
  899TIP3    H124188   4.773   3.318   1.534
  899TIP3    H224189   4.715   3.391   1.654
  900TIP3   OH224190   3.511   1.800  16.174
  900TIP3    H124191   3.604   1.819  16.160
  900TIP3    H224192   3.480   1.871  16.230
  901TIP3   OH224193   0.361   2.334   4.551
  901TIP3    H124194   0.404   2.337   4.466
  901TIP3    H224195   0.277   2.379   4.537
  902TIP3   OH224196   1.769   6.654   2.851
  902TIP3    H124197   1.719   6.711   2.910
  902TIP3    H224198   1.716   6.651   2.771
  903TIP3   OH224199   5.448   3.859  13.785
  903TIP3    H124200   5.511   3.903  13.729
  903TIP3    H224201   5.445   3.769  13.752
  904TIP3   OH224202   3.550   3.741  14.520
  904TIP3    H124203   3.520   3.662  14.475
  904TIP3    H224204   3.482   3.761  14.583
  905TIP3   OH224205   2.205   2.157  13.158
  905TIP3    H124206   2.212   2.114  13.073
  905TIP3    H224207   2.277   2.220  13.159
  906TIP3   OH224208   3.699   3.798  10.873
  906TIP3    H124209   3.687   3.783  10.780
  906TIP3    H224210   3.712   3.893  10.881
  907TIP3   OH224211   6.555   5.734  17.209
  907TIP3    H124212   6.513   5.725  17.294
  907TIP3    H224213   6.554   5.828  17.191
  908TIP3   OH224214   2.101   6.665  12.712
  908TIP3    H124215   2.068   6.755  12.716
  908TIP3    H224216   2.022   6.610  12.715
  909TIP3   OH224217   6.183   6.745  14.970
  909TIP3    H124218   6.221   6.725  15.056
  909TIP3    H224219   6.207   6.671  14.915
  910TIP3   OH224220   4.054   5.165  13.641
  910TIP3    H124221   4.013   5.084  13.674
  910TIP3    H224222   4.006   5.235  13.685
  911TIP3   OH224223   6.186   0.401  13.382
  911TIP3    H124224   6.206   0.494  13.391
  911TIP3    H224225   6.162   0.390  13.290
  912TIP3   OH224226   1.237   6.363   6.481
  912TIP3    H124227   1.158   6.344   6.429
  912TIP3    H224228   1.210   6.345   6.571
  913TIP3   OH224229   6.500   0.367   2.959
  913TIP3    H124230   6.423   0.416   2.931
  913TIP3    H224231   6.467   0.280   2.982
  914TIP3   OH224232   5.622   6.524  11.976
  914TIP3    H124233   5.631   6.595  11.913
  914TIP3    H224234   5.560   6.463  11.936
  915TIP3   OH224235   3.186   5.360  12.524
  915TIP3    H124236   3.247   5.286  12.523
  915TIP3    H224237   3.235   5.432  12.484
  916TIP3   OH224238   4.671   4.547  14.738
  916TIP3    H124239   4.742   4.540  14.802
  916TIP3    H224240   4.639   4.637  14.745
  917TIP3   OH224241   1.501   6.591   5.427
  917TIP3    H124242   1.556   6.669   5.432
  917TIP3    H224243   1.521   6.543   5.507
  918TIP3   OH224244   2.480   5.091  15.066
  918TIP3    H124245   2.392   5.067  15.095
  918TIP3    H224246   2.481   5.187  15.067
  919TIP3   OH224247   3.582   1.866   2.238
  919TIP3    H124248   3.659   1.871   2.181
  919TIP3    H224249   3.575   1.954   2.276
  920TIP3   OH224250   3.885   1.278  14.362
  920TIP3    H124251   3.977   1.269  14.386
  920TIP3    H224252   3.840   1.212  14.414
  921TIP3   OH224253   1.700   1.724   5.604
  921TIP3    H124254   1.627   1.775   5.640
  921TIP3    H224255   1.775   1.782   5.608
  922TIP3   OH224256   5.888   0.508   4.028
  922TIP3    H124257   5.810   0.512   3.972
  922TIP3    H224258   5.882   0.585   4.084
  923TIP3   OH224259   5.312   2.551   1.816
  923TIP3    H124260   5.368   2.622   1.787
  923TIP3    H224261   5.341   2.533   1.906
  924TIP3   OH224262   2.046   5.031   4.304
  924TIP3    H124263   1.985   4.980   4.249
  924TIP3    H224264   1.988   5.081   4.363
  925TIP3   OH224265   3.592   0.338  16.421
  925TIP3    H124266   3.667   0.396  16.427
  925TIP3    H224267   3.518   0.396  16.402
  926TIP3   OH224268   6.293   5.038   1.522
  926TIP3    H124269   6.363   5.051   1.586
  926TIP3    H224270   6.332   5.065   1.438
  927TIP3   OH224271   2.994   1.403   2.095
  927TIP3    H124272   2.998   1.481   2.151
  927TIP3    H224273   2.908   1.408   2.054
  928TIP3   OH224274   0.142   4.034   3.827
  928TIP3    H124275   0.164   4.014   3.918
  928TIP3    H224276   0.209   3.988   3.776
  929TIP3   OH224277   2.338   5.957  15.473
  929TIP3    H124278   2.338   6.034  15.416
  929TIP3    H224279   2.255   5.963  15.521
  930TIP3   OH224280   1.166   3.386  13.215
  930TIP3    H124281   1.162   3.337  13.297
  930TIP3    H224282   1.251   3.361  13.177
  931TIP3   OH224283   2.595   1.840   4.957
  931TIP3    H124284   2.684   1.842   4.990
  931TIP3    H224285   2.545   1.891   5.021
  932TIP3   OH224286   4.512   6.000  14.225
  932TIP3    H124287   4.469   5.993  14.310
  932TIP3    H224288   4.605   5.982  14.243
  933TIP3   OH224289   1.045   5.214  11.791
  933TIP3    H124290   1.047   5.303  11.826
  933TIP3    H224291   1.006   5.223  11.704
  934TIP3   OH224292   6.533   5.249   4.385
  934TIP3    H124293   6.538   5.162   4.344
  934TIP3    H224294   6.466   5.296   4.335
  935TIP3   OH224295   4.244   0.584  17.167
  935TIP3    H124296   4.182   0.511  17.179
  935TIP3    H224297   4.300   0.580  17.245
  936TIP3   OH224298   3.683   3.355   0.767
  936TIP3    H124299   3.591   3.381   0.764
  936TIP3    H224300   3.696   3.322   0.856
  937TIP3   OH224301   2.342   6.451   6.125
  937TIP3    H124302   2.372   6.488   6.042
  937TIP3    H224303   2.332   6.357   6.107
  938TIP3   OH224304   4.448   2.059  12.350
  938TIP3    H124305   4.435   2.130  12.413
  938TIP3    H224306   4.392   1.989  12.382
  939TIP3   OH224307   6.141   0.607  17.254
  939TIP3    H124308   6.173   0.539  17.195
  939TIP3    H224309   6.219   0.633  17.304
  940TIP3   OH224310   4.699   2.329   2.673
  940TIP3    H124311   4.793   2.344   2.665
  940TIP3    H224312   4.685   2.243   2.633
  941TIP3   OH224313   6.688   4.561   2.542
  941TIP3    H124314   6.721   4.473   2.558
  941TIP3    H224315   6.766   4.615   2.531
  942TIP3   OH224316   3.706   6.526   1.309
  942TIP3    H124317   3.634   6.551   1.367
  942TIP3    H224318   3.780   6.511   1.368
  943TIP3   OH224319   0.123   3.853   0.491
  943TIP3    H124320   0.152   3.762   0.496
  943TIP3    H224321   0.038   3.853   0.534
  944TIP3   OH224322   3.250   5.543   4.460
  944TIP3    H124323   3.344   5.530   4.468
  944TIP3    H224324   3.225   5.593   4.538
  945TIP3   OH224325   3.502   5.565   2.500
  945TIP3    H124326   3.434   5.599   2.558
  945TIP3    H224327   3.486   5.471   2.497
  946TIP3   OH224328   1.720   2.673   5.901
  946TIP3    H124329   1.699   2.736   5.971
  946TIP3    H224330   1.796   2.712   5.857
  947TIP3   OH224331   2.684   2.508  14.344
  947TIP3    H124332   2.684   2.422  14.302
  947TIP3    H224333   2.769   2.514  14.387
  948TIP3   OH224334   1.902   5.089   6.054
  948TIP3    H124335   1.961   5.014   6.059
  948TIP3    H224336   1.817   5.055   6.080
  949TIP3   OH224337   1.048   4.066  16.161
  949TIP3    H124338   1.056   4.113  16.244
  949TIP3    H224339   0.993   4.122  16.107
  950TIP3   OH224340   5.686   5.739  16.682
  950TIP3    H124341   5.753   5.762  16.746
  950TIP3    H224342   5.719   5.773  16.599
  951TIP3   OH224343   3.818   5.000  15.778
  951TIP3    H124344   3.866   5.038  15.852
  951TIP3    H224345   3.787   4.915  15.810
  952TIP3   OH224346   0.469   1.040  15.494
  952TIP3    H124347   0.517   1.018  15.574
  952TIP3    H224348   0.482   1.134  15.483
  953TIP3   OH224349   4.718   5.591   5.004
  953TIP3    H124350   4.668   5.608   5.084
  953TIP3    H224351   4.660   5.538   4.950
  954TIP3   OH224352   2.465   1.861  11.753
  954TIP3    H124353   2.434   1.901  11.835
  954TIP3    H224354   2.490   1.772  11.779
  955TIP3   OH224355   4.480   2.547   4.874
  955TIP3    H124356   4.417   2.617   4.860
  955TIP3    H224357   4.485   2.502   4.790
  956TIP3   OH224358   0.142   3.393  15.532
  956TIP3    H124359   0.157   3.479  15.493
  956TIP3    H224360   0.052   3.370  15.509
  957TIP3   OH224361   4.838   1.744  11.827
  957TIP3    H124362   4.926   1.758  11.791
  957TIP3    H224363   4.779   1.775  11.758
  958TIP3   OH224364   3.054   6.742  15.927
  958TIP3    H124365   2.964   6.770  15.938
  958TIP3    H224366   3.079   6.773  15.840
  959TIP3   OH224367   5.493   2.541   3.611
  959TIP3    H124368   5.416   2.535   3.668
  959TIP3    H224369   5.548   2.468   3.638
  960TIP3   OH224370   0.965   1.945   5.150
  960TIP3    H124371   1.033   1.981   5.093
  960TIP3    H224372   0.886   1.944   5.096
  961TIP3   OH224373   4.695   2.124   6.095
  961TIP3    H124374   4.738   2.173   6.165
  961TIP3    H224375   4.740   2.153   6.015
  962TIP3   OH224376   0.881   4.693   2.789
  962TIP3    H124377   0.974   4.713   2.801
  962TIP3    H224378   0.880   4.611   2.739
  963TIP3   OH224379   6.414   5.470  12.959
  963TIP3    H124380   6.425   5.468  13.054
  963TIP3    H224381   6.493   5.428  12.925
  964TIP3   OH224382   4.379   0.034  17.200
  964TIP3    H124383   4.420  -0.031  17.143
  964TIP3    H224384   4.311   0.074  17.146
  965TIP3   OH224385   4.994   1.371   2.461
  965TIP3    H124386   4.939   1.448   2.476
  965TIP3    H224387   5.045   1.394   2.383
  966TIP3   OH224388   4.115   1.400   1.863
  966TIP3    H124389   4.042   1.372   1.807
  966TIP3    H224390   4.079   1.471   1.916
  967TIP3   OH224391   6.305   3.168  13.428
  967TIP3    H124392   6.364   3.102  13.393
  967TIP3    H224393   6.259   3.202  13.351
  968TIP3   OH224394   0.113   4.482   2.799
  968TIP3    H124395   0.185   4.460   2.857
  968TIP3    H224396   0.131   4.434   2.719
  969TIP3   OH224397   1.587   6.451  13.673
  969TIP3    H124398   1.580   6.541  13.703
  969TIP3    H224399   1.609   6.401  13.752
  970TIP3   OH224400   4.506   6.150  16.753
  970TIP3    H124401   4.513   6.217  16.821
  970TIP3    H224402   4.448   6.190  16.687
  971TIP3   OH224403   1.873   5.253  13.429
  971TIP3    H124404   1.914   5.263  13.515
  971TIP3    H224405   1.853   5.342  13.402
  972TIP3   OH224406   3.046   5.865   0.226
  972TIP3    H124407   2.983   5.797   0.247
  972TIP3    H224408   2.997   5.928   0.173
  973TIP3   OH224409   0.475   4.799  11.927
  973TIP3    H124410   0.415   4.830  11.995
  973TIP3    H224411   0.461   4.858  11.853
  974TIP3   OH224412   2.420   1.946   0.885
  974TIP3    H124413   2.432   1.997   0.805
  974TIP3    H224414   2.423   2.011   0.956
  975TIP3   OH224415   4.792   1.455   3.006
  975TIP3    H124416   4.792   1.541   2.963
  975TIP3    H224417   4.809   1.475   3.098
  976TIP3   OH224418   0.493   4.131  15.138
  976TIP3    H124419   0.491   4.146  15.044
  976TIP3    H224420   0.427   4.190  15.174
  977TIP3   OH224421   1.152   2.931   0.495
  977TIP3    H124422   1.234   2.945   0.543
  977TIP3    H224423   1.090   2.990   0.537
  978TIP3   OH224424   4.412   0.017   2.515
  978TIP3    H124425   4.453  -0.035   2.445
  978TIP3    H224426   4.443  -0.024   2.596
  979TIP3   OH224427   6.367   1.648   1.757
  979TIP3    H124428   6.283   1.651   1.710
  979TIP3    H224429   6.420   1.586   1.707
  980TIP3   OH224430   0.400   1.514   4.881
  980TIP3    H124431   0.344   1.452   4.928
  980TIP3    H224432   0.399   1.484   4.790
  981TIP3   OH224433   3.635   5.362  16.477
  981TIP3    H124434   3.611   5.401  16.561
  981TIP3    H224435   3.730   5.374  16.472
  982TIP3   OH224436   5.772   1.776  16.500
  982TIP3    H124437   5.712   1.845  16.530
  982TIP3    H224438   5.836   1.822  16.446
  983TIP3   OH224439   5.422   0.782  13.748
  983TIP3    H124440   5.507   0.740  13.736
  983TIP3    H224441   5.377   0.767  13.664
  984TIP3   OH224442   2.402   3.840  15.225
  984TIP3    H124443   2.385   3.794  15.307
  984TIP3    H224444   2.496   3.828  15.210
  985TIP3   OH224445   5.490   2.518   3.922
  985TIP3    H124446   5.507   2.612   3.909
  985TIP3    H224447   5.546   2.493   3.995
  986TIP3   OH224448   4.641   6.683   0.460
  986TIP3    H124449   4.637   6.673   0.555
  986TIP3    H224450   4.684   6.767   0.446
  987TIP3   OH224451   5.084   5.678  11.213
  987TIP3    H124452   5.089   5.703  11.121
  987TIP3    H224453   5.165   5.711  11.252
  988TIP3   OH224454   5.759   4.087  14.158
  988TIP3    H124455   5.762   4.031  14.080
  988TIP3    H224456   5.850   4.097  14.184
  989TIP3   OH224457   2.417   4.757   3.929
  989TIP3    H124458   2.378   4.788   4.011
  989TIP3    H224459   2.510   4.778   3.938
  990TIP3   OH224460   4.653   6.635  12.054
  990TIP3    H124461   4.679   6.686  12.130
  990TIP3    H224462   4.707   6.670  11.982
  991TIP3   OH224463   6.669   3.392   2.071
  991TIP3    H124464   6.727   3.398   2.147
  991TIP3    H224465   6.729   3.383   1.997
  992TIP3   OH224466   5.077   4.332  15.809
  992TIP3    H124467   4.986   4.359  15.793
  992TIP3    H224468   5.099   4.276  15.734
  993TIP3   OH224469   0.683   3.859  17.107
  993TIP3    H124470   0.698   3.782  17.053
  993TIP3    H224471   0.588   3.870  17.109
  994TIP3   OH224472   4.435   0.102  14.491
  994TIP3    H124473   4.392   0.185  14.468
  994TIP3    H224474   4.506   0.093  14.427
  995TIP3   OH224475   6.641   5.529   1.003
  995TIP3    H124476   6.553   5.557   0.976
  995TIP3    H224477   6.690   5.610   1.012
  996TIP3   OH224478   5.495   5.706  13.230
  996TIP3    H124479   5.578   5.677  13.192
  996TIP3    H224480   5.519   5.748  13.312
  997TIP3   OH224481   4.893   0.565   4.692
  997TIP3    H124482   4.813   0.597   4.733
  997TIP3    H224483   4.914   0.485   4.741
  998TIP3   OH224484   5.358   5.923   5.589
  998TIP3    H124485   5.398   5.963   5.513
  998TIP3    H224486   5.267   5.952   5.587
  999TIP3   OH224487   6.347   0.867   0.798
  999TIP3    H124488   6.340   0.836   0.707
  999TIP3    H224489   6.260   0.852   0.835
 1000TIP3   OH224490   1.901   1.406  12.885
 1000TIP3    H124491   1.922   1.497  12.904
 1000TIP3    H224492   1.978   1.356  12.914
 1001TIP3   OH224493   5.557   2.043  16.150
 1001TIP3    H124494   5.475   2.061  16.196
 1001TIP3    H224495   5.581   2.127  16.110
 1002TIP3   OH224496   4.876   5.689  16.098
 1002TIP3    H124497   4.969   5.688  16.123
 1002TIP3    H224498   4.842   5.605  16.127
 1003TIP3   OH224499   5.100   0.068  17.215
 1003TIP3    H124500   5.195   0.075  17.205
 1003TIP3    H224501   5.085  -0.024  17.236
 1004TIP3   OH224502   0.234   5.060   2.363
 1004TIP3    H124503   0.145   5.077   2.393
 1004TIP3    H224504   0.228   5.062   2.267
 1005TIP3   OH224505   5.633   5.026  10.923
 1005TIP3    H124506   5.558   4.973  10.897
 1005TIP3    H224507   5.701   4.962  10.944
 1006TIP3   OH224508   3.064   3.928   2.052
 1006TIP3    H124509   3.101   3.995   1.995
 1006TIP3    H224510   3.139   3.874   2.077
 1007TIP3   OH224511   6.216   0.572   6.144
 1007TIP3    H124512   6.181   0.660   6.158
 1007TIP3    H224513   6.311   0.581   6.154
 1008TIP3   OH224514   4.079   6.611  16.831
 1008TIP3    H124515   4.005   6.650  16.785
 1008TIP3    H224516   4.080   6.655  16.916
 1009TIP3   OH224517   0.007   0.587   4.811
 1009TIP3    H124518  -0.052   0.657   4.838
 1009TIP3    H224519   0.080   0.592   4.873
 1010TIP3   OH224520   2.992   5.908  15.974
 1010TIP3    H124521   3.022   5.967  15.905
 1010TIP3    H224522   3.071   5.888  16.025
 1011TIP3   OH224523   3.199   0.704  12.825
 1011TIP3    H124524   3.267   0.672  12.766
 1011TIP3    H224525   3.128   0.641  12.816
 1012TIP3   OH224526   5.696   5.650   4.801
 1012TIP3    H124527   5.749   5.719   4.840
 1012TIP3    H224528   5.640   5.695   4.738
 1013TIP3   OH224529   0.502   2.861  14.189
 1013TIP3    H124530   0.492   2.772  14.157
 1013TIP3    H224531   0.572   2.856  14.254
 1014TIP3   OH224532   2.760   3.268  16.973
 1014TIP3    H124533   2.689   3.250  17.035
 1014TIP3    H224534   2.721   3.251  16.887
 1015TIP3   OH224535   5.459   3.063   3.289
 1015TIP3    H124536   5.540   3.047   3.338
 1015TIP3    H224537   5.411   2.981   3.294
 1016TIP3   OH224538   4.226   5.830   1.163
 1016TIP3    H124539   4.244   5.910   1.114
 1016TIP3    H224540   4.248   5.852   1.254
 1017TIP3   OH224541   0.118   6.702   0.367
 1017TIP3    H124542   0.081   6.669   0.449
 1017TIP3    H224543   0.058   6.671   0.300
 1018TIP3   OH224544   4.790   5.558  12.029
 1018TIP3    H124545   4.729   5.614  11.982
 1018TIP3    H224546   4.876   5.594  12.009
 1019TIP3   OH224547   4.578   0.588   0.344
 1019TIP3    H124548   4.545   0.528   0.411
 1019TIP3    H224549   4.518   0.577   0.270
 1020TIP3   OH224550   6.089   4.557   1.237
 1020TIP3    H124551   6.161   4.494   1.242
 1020TIP3    H224552   6.047   4.552   1.323
 1021TIP3   OH224553   6.289   2.649   3.333
 1021TIP3    H124554   6.289   2.679   3.424
 1021TIP3    H224555   6.226   2.706   3.289
 1022TIP3   OH224556   3.385   5.341  13.635
 1022TIP3    H124557   3.437   5.401  13.581
 1022TIP3    H224558   3.296   5.375  13.628
 1023TIP3   OH224559   3.569   2.572  15.012
 1023TIP3    H124560   3.532   2.659  15.028
 1023TIP3    H224561   3.559   2.559  14.917
 1024TIP3   OH224562   1.709   1.039  13.055
 1024TIP3    H124563   1.796   1.049  13.095
 1024TIP3    H224564   1.671   0.964  13.102
 1025TIP3   OH224565   0.039   1.262   4.072
 1025TIP3    H124566   0.114   1.203   4.061
 1025TIP3    H224567   0.030   1.305   3.987
 1026TIP3   OH224568   5.162   4.330  12.625
 1026TIP3    H124569   5.124   4.407  12.666
 1026TIP3    H224570   5.200   4.362  12.543
 1027TIP3   OH224571   5.557   4.856   3.307
 1027TIP3    H124572   5.640   4.832   3.350
 1027TIP3    H224573   5.577   4.937   3.261
 1028TIP3   OH224574   2.250   5.189  16.002
 1028TIP3    H124575   2.317   5.140  16.050
 1028TIP3    H224576   2.300   5.238  15.936
 1029TIP3   OH224577   4.580   1.217   0.006
 1029TIP3    H124578   4.661   1.176   0.034
 1029TIP3    H224579   4.521   1.144  -0.012
 1030TIP3   OH224580   5.696   2.285  11.972
 1030TIP3    H124581   5.739   2.208  12.008
 1030TIP3    H224582   5.761   2.355  11.981
 1031TIP3   OH224583   3.088   0.733   4.058
 1031TIP3    H124584   3.149   0.802   4.084
 1031TIP3    H224585   3.024   0.778   4.004
 1032TIP3   OH224586   6.547   2.068   5.464
 1032TIP3    H124587   6.616   2.082   5.400
 1032TIP3    H224588   6.521   1.976   5.452
 1033TIP3   OH224589   0.774   0.757   2.475
 1033TIP3    H124590   0.716   0.834   2.476
 1033TIP3    H224591   0.723   0.689   2.518
 1034TIP3   OH224592   1.779   0.123   3.973
 1034TIP3    H124593   1.829   0.042   3.985
 1034TIP3    H224594   1.833   0.191   4.013
 1035TIP3   OH224595   1.657   3.739  10.890
 1035TIP3    H124596   1.582   3.798  10.882
 1035TIP3    H224597   1.725   3.793  10.931
 1036TIP3   OH224598   1.625   1.060   0.893
 1036TIP3    H124599   1.666   0.981   0.859
 1036TIP3    H224600   1.562   1.085   0.825
 1037TIP3   OH224601   3.180   0.653   4.528
 1037TIP3    H124602   3.115   0.687   4.589
 1037TIP3    H224603   3.134   0.649   4.444
 1038TIP3   OH224604   1.139   3.625  15.024
 1038TIP3    H124605   1.072   3.676  14.980
 1038TIP3    H224606   1.222   3.665  14.995
 1039TIP3   OH224607   5.323   6.012  12.160
 1039TIP3    H124608   5.390   6.079  12.175
 1039TIP3    H224609   5.312   5.970  12.246
 1040TIP3   OH224610   0.482   3.173   5.502
 1040TIP3    H124611   0.414   3.111   5.528
 1040TIP3    H224612   0.491   3.231   5.578
 1041TIP3   OH224613   4.766   1.693   1.866
 1041TIP3    H124614   4.743   1.621   1.808
 1041TIP3    H224615   4.859   1.679   1.887
 1042TIP3   OH224616   5.124   6.532  11.875
 1042TIP3    H124617   5.150   6.442  11.854
 1042TIP3    H224618   5.153   6.545  11.965
 1043TIP3   OH224619   5.999   0.368  10.915
 1043TIP3    H124620   5.975   0.454  10.881
 1043TIP3    H224621   6.015   0.384  11.009
 1044TIP3   OH224622   3.364   2.686   1.522
 1044TIP3    H124623   3.347   2.698   1.428
 1044TIP3    H224624   3.455   2.657   1.527
 1045TIP3   OH224625   1.086   4.420   1.563
 1045TIP3    H124626   1.029   4.448   1.635
 1045TIP3    H224627   1.027   4.407   1.489
 1046TIP3   OH224628   2.363   2.216  12.382
 1046TIP3    H124629   2.292   2.273  12.353
 1046TIP3    H224630   2.323   2.129  12.388
 1047TIP3   OH224631   3.979   0.370  17.173
 1047TIP3    H124632   3.887   0.394  17.180
 1047TIP3    H224633   3.978   0.277  17.151
 1048TIP3   OH224634   0.891   5.689   5.260
 1048TIP3    H124635   0.909   5.624   5.327
 1048TIP3    H224636   0.967   5.687   5.202
 1049TIP3   OH224637   0.644   5.700   3.819
 1049TIP3    H124638   0.701   5.692   3.743
 1049TIP3    H224639   0.556   5.698   3.784
 1050TIP3   OH224640   4.161   0.292   1.543
 1050TIP3    H124641   4.115   0.215   1.509
 1050TIP3    H224642   4.222   0.316   1.474
 1051TIP3   OH224643   6.714   1.765  14.711
 1051TIP3    H124644   6.696   1.740  14.802
 1051TIP3    H224645   6.805   1.795  14.712
 1052TIP3   OH224646   4.086   3.684   4.799
 1052TIP3    H124647   4.095   3.659   4.891
 1052TIP3    H224648   4.063   3.777   4.802
 1053TIP3   OH224649   3.252   2.198  12.688
 1053TIP3    H124650   3.289   2.149  12.614
 1053TIP3    H224651   3.319   2.192  12.756
 1054TIP3   OH224652   2.636   5.752  17.021
 1054TIP3    H124653   2.579   5.820  16.985
 1054TIP3    H224654   2.682   5.716  16.944
 1055TIP3   OH224655   3.675   1.124  12.377
 1055TIP3    H124656   3.745   1.061  12.394
 1055TIP3    H224657   3.718   1.192  12.325
 1056TIP3   OH224658   0.184   6.652   4.235
 1056TIP3    H124659   0.234   6.597   4.296
 1056TIP3    H224660   0.101   6.607   4.224
 1057TIP3   OH224661   6.186   3.536  14.726
 1057TIP3    H124662   6.239   3.457  14.728
 1057TIP3    H224663   6.209   3.583  14.806
 1058TIP3   OH224664   1.603   0.047  15.398
 1058TIP3    H124665   1.539  -0.024  15.392
 1058TIP3    H224666   1.688   0.004  15.394
 1059TIP3   OH224667   6.777   5.752   4.450
 1059TIP3    H124668   6.711   5.683   4.441
 1059TIP3    H224669   6.840   5.735   4.380
 1060TIP3   OH224670   4.510   1.442  12.046
 1060TIP3    H124671   4.603   1.444  12.066
 1060TIP3    H224672   4.497   1.359  12.000
 1061TIP3   OH224673   1.415   1.915   4.840
 1061TIP3    H124674   1.425   1.909   4.935
 1061TIP3    H224675   1.467   1.842   4.806
 1062TIP3   OH224676   4.764   4.219  12.732
 1062TIP3    H124677   4.702   4.245  12.664
 1062TIP3    H224678   4.716   4.231  12.814
 1063TIP3   OH224679   5.625   1.688   4.075
 1063TIP3    H124680   5.559   1.754   4.098
 1063TIP3    H224681   5.605   1.664   3.985
 1064TIP3   OH224682   4.029   6.688   5.137
 1064TIP3    H124683   4.070   6.705   5.053
 1064TIP3    H224684   4.102   6.667   5.196
 1065TIP3   OH224685   3.634   0.666  12.272
 1065TIP3    H124686   3.686   0.718  12.334
 1065TIP3    H224687   3.682   0.583  12.264
 1066TIP3   OH224688   5.855   1.426   3.540
 1066TIP3    H124689   5.765   1.404   3.565
 1066TIP3    H224690   5.850   1.446   3.447
 1067TIP3   OH224691   4.613   6.008   2.074
 1067TIP3    H124692   4.666   6.088   2.073
 1067TIP3    H224693   4.677   5.937   2.081
 1068TIP3   OH224694   6.707   0.691   6.596
 1068TIP3    H124695   6.745   0.706   6.510
 1068TIP3    H224696   6.642   0.622   6.582
 1069TIP3   OH224697   0.017   0.987  13.806
 1069TIP3    H124698   0.043   0.923  13.740
 1069TIP3    H224699  -0.076   1.002  13.790
 1070TIP3   OH224700   2.740   0.226   2.579
 1070TIP3    H124701   2.683   0.297   2.609
 1070TIP3    H224702   2.820   0.271   2.550
 1071TIP3   OH224703   3.843   3.881   6.653
 1071TIP3    H124704   3.914   3.828   6.691
 1071TIP3    H224705   3.878   3.911   6.569
 1072TIP3   OH224706   3.517   2.218   4.763
 1072TIP3    H124707   3.559   2.195   4.681
 1072TIP3    H224708   3.438   2.267   4.738
 1073TIP3   OH224709   4.682   1.334   3.493
 1073TIP3    H124710   4.612   1.316   3.555
 1073TIP3    H224711   4.642   1.321   3.407
 1074TIP3   OH224712   2.034   3.321   4.487
 1074TIP3    H124713   1.947   3.318   4.528
 1074TIP3    H224714   2.094   3.335   4.560
 1075TIP3   OH224715   5.039   6.124  16.722
 1075TIP3    H124716   5.099   6.114  16.647
 1075TIP3    H224717   5.094   6.160  16.791
 1076TIP3   OH224718   2.397   5.741  14.576
 1076TIP3    H124719   2.369   5.757  14.486
 1076TIP3    H224720   2.321   5.764  14.629
 1077TIP3   OH224721   0.078   3.117  16.820
 1077TIP3    H124722   0.132   3.117  16.899
 1077TIP3    H224723   0.104   3.037  16.774
 1078TIP3   OH224724   1.784   6.691  17.133
 1078TIP3    H124725   1.857   6.749  17.156
 1078TIP3    H224726   1.798   6.671  17.041
 1079TIP3   OH224727   5.372   1.141   5.395
 1079TIP3    H124728   5.415   1.086   5.330
 1079TIP3    H224729   5.313   1.081   5.441
 1080TIP3   OH224730   5.131   1.546   3.549
 1080TIP3    H124731   5.082   1.620   3.512
 1080TIP3    H224732   5.067   1.474   3.550
 1081TIP3   OH224733   3.803   6.694   0.078
 1081TIP3    H124734   3.794   6.766   0.140
 1081TIP3    H224735   3.844   6.624   0.128
 1082TIP3   OH224736   4.346   0.700   1.404
 1082TIP3    H124737   4.335   0.703   1.499
 1082TIP3    H224738   4.407   0.772   1.385
 1083TIP3   OH224739   5.236   2.639  13.369
 1083TIP3    H124740   5.284   2.696  13.429
 1083TIP3    H224741   5.215   2.561  13.421
 1084TIP3   OH224742   1.351   1.176   5.022
 1084TIP3    H124743   1.295   1.187   4.944
 1084TIP3    H224744   1.396   1.260   5.030
 1085TIP3   OH224745   5.352   3.891   0.205
 1085TIP3    H124746   5.305   3.972   0.228
 1085TIP3    H224747   5.411   3.918   0.135
 1086TIP3   OH224748   0.429   0.999  13.073
 1086TIP3    H124749   0.363   1.033  13.012
 1086TIP3    H224750   0.389   0.920  13.109
 1087TIP3   OH224751   1.828   4.636  16.371
 1087TIP3    H124752   1.803   4.711  16.317
 1087TIP3    H224753   1.844   4.673  16.458
 1088TIP3   OH224754   2.680   1.531   1.102
 1088TIP3    H124755   2.703   1.613   1.146
 1088TIP3    H224756   2.763   1.496   1.072
 1089TIP3   OH224757   0.331   4.594  15.780
 1089TIP3    H124758   0.322   4.504  15.748
 1089TIP3    H224759   0.425   4.606  15.793
 1090TIP3   OH224760   1.062   0.214  13.919
 1090TIP3    H124761   1.015   0.138  13.952
 1090TIP3    H224762   1.003   0.252  13.853
 1091TIP3   OH224763   6.803   6.296   1.952
 1091TIP3    H124764   6.744   6.262   1.885
 1091TIP3    H224765   6.745   6.331   2.019
 1092TIP3   OH224766   3.965   2.450   1.799
 1092TIP3    H124767   3.943   2.504   1.724
 1092TIP3    H224768   3.932   2.363   1.778
 1093TIP3   OH224769   3.695   2.152  12.225
 1093TIP3    H124770   3.644   2.175  12.147
 1093TIP3    H224771   3.720   2.235  12.263
 1094TIP3   OH224772   3.607   4.751   0.212
 1094TIP3    H124773   3.551   4.815   0.257
 1094TIP3    H224774   3.690   4.797   0.198
 1095TIP3   OH224775   4.922   2.243  14.723
 1095TIP3    H124776   4.979   2.168  14.706
 1095TIP3    H224777   4.849   2.233  14.663
 1096TIP3   OH224778   5.319   6.795   1.028
 1096TIP3    H124779   5.368   6.751   1.098
 1096TIP3    H224780   5.267   6.726   0.988
 1097TIP3   OH224781   2.033   3.292  14.257
 1097TIP3    H124782   1.951   3.324  14.220
 1097TIP3    H224783   2.006   3.225  14.320
 1098TIP3   OH224784   6.742   2.714  14.477
 1098TIP3    H124785   6.685   2.781  14.515
 1098TIP3    H224786   6.691   2.675  14.407
 1099TIP3   OH224787   2.217   3.713  13.788
 1099TIP3    H124788   2.174   3.798  13.780
 1099TIP3    H224789   2.175   3.672  13.863
 1100TIP3   OH224790   5.460   3.407  11.706
 1100TIP3    H124791   5.451   3.313  11.724
 1100TIP3    H224792   5.553   3.424  11.716
 1101TIP3   OH224793   3.193   2.010   5.195
 1101TIP3    H124794   3.109   2.043   5.164
 1101TIP3    H224795   3.185   1.914   5.189
 1102TIP3   OH224796   3.648   1.203   5.871
 1102TIP3    H124797   3.644   1.281   5.926
 1102TIP3    H224798   3.653   1.237   5.782
 1103TIP3   OH224799   0.819   6.056   0.986
 1103TIP3    H124800   0.851   5.975   0.947
 1103TIP3    H224801   0.794   6.111   0.912
 1104TIP3   OH224802   2.132   2.181   0.721
 1104TIP3    H124803   2.190   2.257   0.732
 1104TIP3    H224804   2.192   2.107   0.708
 1105TIP3   OH224805   2.208   4.993   2.430
 1105TIP3    H124806   2.221   5.064   2.367
 1105TIP3    H224807   2.183   5.036   2.512
 1106TIP3   OH224808   5.782   2.669   1.244
 1106TIP3    H124809   5.874   2.689   1.262
 1106TIP3    H224810   5.735   2.747   1.274
 1107TIP3   OH224811   6.484   3.050  16.971
 1107TIP3    H124812   6.545   3.030  17.042
 1107TIP3    H224813   6.540   3.066  16.895
 1108TIP3   OH224814   4.995   2.520   4.992
 1108TIP3    H124815   5.001   2.587   4.924
 1108TIP3    H224816   4.906   2.485   4.984
 1109TIP3   OH224817   1.140   4.821  11.566
 1109TIP3    H124818   1.210   4.826  11.631
 1109TIP3    H224819   1.109   4.911  11.556
 1110TIP3   OH224820   5.897   0.610  15.528
 1110TIP3    H124821   5.884   0.535  15.586
 1110TIP3    H224822   5.963   0.663  15.572
 1111TIP3   OH224823   3.363   0.005  17.274
 1111TIP3    H124824   3.355   0.100  17.273
 1111TIP3    H224825   3.438  -0.014  17.218
 1112TIP3   OH224826   2.147   1.774   0.671
 1112TIP3    H124827   2.229   1.736   0.638
 1112TIP3    H224828   2.078   1.725   0.625
 1113TIP3   OH224829   6.132   5.819  16.100
 1113TIP3    H124830   6.116   5.799  16.192
 1113TIP3    H224831   6.137   5.734  16.057
 1114TIP3   OH224832   1.696   4.205   3.042
 1114TIP3    H124833   1.739   4.147   3.105
 1114TIP3    H224834   1.690   4.289   3.088
 1115TIP3   OH224835   4.968   2.091   1.910
 1115TIP3    H124836   4.954   2.050   1.825
 1115TIP3    H224837   4.898   2.056   1.966
 1116TIP3   OH224838   1.257   2.781   2.222
 1116TIP3    H124839   1.278   2.778   2.316
 1116TIP3    H224840   1.295   2.701   2.186
 1117TIP3   OH224841   6.618   6.111  14.938
 1117TIP3    H124842   6.592   6.043  15.000
 1117TIP3    H224843   6.585   6.081  14.854
 1118TIP3   OH224844   1.918   4.742  15.973
 1118TIP3    H124845   1.885   4.681  15.907
 1118TIP3    H224846   1.929   4.825  15.927
 1119TIP3   OH224847   3.264   0.269  14.176
 1119TIP3    H124848   3.264   0.363  14.162
 1119TIP3    H224849   3.175   0.241  14.155
 1120TIP3   OH224850   2.002   5.633   1.743
 1120TIP3    H124851   1.917   5.676   1.754
 1120TIP3    H224852   1.982   5.551   1.698
 1121TIP3   OH224853   5.753   3.255   4.691
 1121TIP3    H124854   5.725   3.334   4.735
 1121TIP3    H224855   5.821   3.284   4.630
 1122TIP3   OH224856   3.655   1.786   4.538
 1122TIP3    H124857   3.566   1.796   4.503
 1122TIP3    H224858   3.645   1.799   4.632
 1123TIP3   OH224859   2.972   6.459   3.205
 1123TIP3    H124860   2.894   6.513   3.212
 1123TIP3    H224861   2.974   6.408   3.286
 1124TIP3   OH224862   6.437   3.466  14.980
 1124TIP3    H124863   6.520   3.476  14.933
 1124TIP3    H224864   6.387   3.405  14.926
 1125TIP3   OH224865   3.918   2.264  15.987
 1125TIP3    H124866   3.855   2.328  15.953
 1125TIP3    H224867   3.894   2.255  16.080
 1126TIP3   OH224868   5.173   3.125   4.490
 1126TIP3    H124869   5.243   3.190   4.483
 1126TIP3    H224870   5.148   3.126   4.583
 1127TIP3   OH224871   6.456   1.296  14.631
 1127TIP3    H124872   6.376   1.252  14.602
 1127TIP3    H224873   6.488   1.340  14.553
 1128TIP3   OH224874   5.956   6.138   5.251
 1128TIP3    H124875   5.896   6.066   5.271
 1128TIP3    H224876   6.018   6.100   5.189
 1129TIP3   OH224877   1.067   3.105  13.723
 1129TIP3    H124878   1.119   3.183  13.743
 1129TIP3    H224879   0.977   3.136  13.720
 1130TIP3   OH224880   4.085   2.529   2.598
 1130TIP3    H124881   4.169   2.513   2.555
 1130TIP3    H224882   4.105   2.592   2.668
 1131TIP3   OH224883   4.510   4.485  15.123
 1131TIP3    H124884   4.590   4.446  15.088
 1131TIP3    H224885   4.439   4.435  15.082
 1132TIP3   OH224886   4.989   4.994  16.563
 1132TIP3    H124887   4.963   5.039  16.644
 1132TIP3    H224888   4.910   4.997  16.509
 1133TIP3   OH224889   0.851   0.302  13.760
 1133TIP3    H124890   0.793   0.368  13.721
 1133TIP3    H224891   0.797   0.255  13.823
 1134TIP3   OH224892   5.394   6.540  15.661
 1134TIP3    H124893   5.306   6.515  15.637
 1134TIP3    H224894   5.408   6.625  15.618
 1135TIP3   OH224895   1.765   2.128   1.863
 1135TIP3    H124896   1.858   2.148   1.850
 1135TIP3    H224897   1.720   2.180   1.796
 1136TIP3   OH224898   5.334   1.424   4.215
 1136TIP3    H124899   5.263   1.469   4.260
 1136TIP3    H224900   5.294   1.343   4.182
 1137TIP3   OH224901   0.364   0.002  16.707
 1137TIP3    H124902   0.439  -0.052  16.680
 1137TIP3    H224903   0.324   0.029  16.624
 1138TIP3   OH224904   3.031   2.731   0.359
 1138TIP3    H124905   2.951   2.763   0.318
 1138TIP3    H224906   3.076   2.683   0.288
 1139TIP3   OH224907   5.092   1.903  12.223
 1139TIP3    H124908   5.180   1.879  12.250
 1139TIP3    H224909   5.071   1.980  12.276
 1140TIP3   OH224910   3.894   2.273  14.625
 1140TIP3    H124911   3.832   2.202  14.610
 1140TIP3    H224912   3.930   2.291  14.538
 1141TIP3   OH224913   1.187   4.598   0.565
 1141TIP3    H124914   1.130   4.619   0.490
 1141TIP3    H224915   1.158   4.657   0.634
 1142TIP3   OH224916   5.938   4.222  14.518
 1142TIP3    H124917   5.853   4.201  14.557
 1142TIP3    H224918   5.994   4.149  14.542
 1143TIP3   OH224919   1.049   0.268   0.526
 1143TIP3    H124920   1.090   0.355   0.520
 1143TIP3    H224921   0.964   0.284   0.566
 1144TIP3   OH224922   1.563   4.126   5.830
 1144TIP3    H124923   1.567   4.116   5.734
 1144TIP3    H224924   1.655   4.139   5.856
 1145TIP3   OH224925   4.283   4.154  11.999
 1145TIP3    H124926   4.362   4.119  11.958
 1145TIP3    H224927   4.248   4.081  12.050
 1146TIP3   OH224928   0.339   0.441   4.242
 1146TIP3    H124929   0.293   0.380   4.299
 1146TIP3    H224930   0.288   0.521   4.246
 1147TIP3   OH224931   4.297   1.462  13.009
 1147TIP3    H124932   4.248   1.529  12.962
 1147TIP3    H224933   4.388   1.476  12.982
 1148TIP3   OH224934   2.641   3.051   4.648
 1148TIP3    H124935   2.617   2.964   4.618
 1148TIP3    H224936   2.728   3.066   4.611
 1149TIP3   OH224937   5.194   0.839  12.944
 1149TIP3    H124938   5.257   0.865  12.877
 1149TIP3    H224939   5.240   0.855  13.027
 1150TIP3   OH224940   6.033   5.054  12.542
 1150TIP3    H124941   6.057   4.967  12.576
 1150TIP3    H224942   6.037   5.044  12.447
 1151TIP3   OH224943   6.214   1.095  15.920
 1151TIP3    H124944   6.162   1.124  15.846
 1151TIP3    H224945   6.151   1.087  15.992
 1152TIP3   OH224946   6.034   5.140   3.875
 1152TIP3    H124947   6.050   5.046   3.868
 1152TIP3    H224948   6.093   5.169   3.944
 1153TIP3   OH224949   4.459   3.193  12.048
 1153TIP3    H124950   4.374   3.158  12.024
 1153TIP3    H224951   4.466   3.275  11.999
 1154TIP3   OH224952   1.566   6.533   1.768
 1154TIP3    H124953   1.594   6.476   1.696
 1154TIP3    H224954   1.541   6.472   1.838
 1155TIP3   OH224955   3.411   1.972  14.225
 1155TIP3    H124956   3.503   1.974  14.198
 1155TIP3    H224957   3.386   1.880  14.218
 1156TIP3   OH224958   5.980   1.081   0.822
 1156TIP3    H124959   5.984   0.990   0.791
 1156TIP3    H224960   5.887   1.104   0.818
 1157TIP3   OH224961   0.509   5.981   0.741
 1157TIP3    H124962   0.444   5.912   0.754
 1157TIP3    H224963   0.588   5.935   0.714
 1158TIP3   OH224964   0.015   6.119  13.524
 1158TIP3    H124965   0.014   6.039  13.471
 1158TIP3    H224966  -0.040   6.097  13.600
 1159TIP3   OH224967   4.224   0.177   1.091
 1159TIP3    H124968   4.191   0.096   1.131
 1159TIP3    H224969   4.145   0.227   1.071
 1160TIP3   OH224970   5.464   4.637   2.804
 1160TIP3    H124971   5.438   4.655   2.894
 1160TIP3    H224972   5.386   4.598   2.764
 1161TIP3   OH224973   5.744   5.543  14.623
 1161TIP3    H124974   5.780   5.613  14.569
 1161TIP3    H224975   5.706   5.588  14.698
 1162TIP3   OH224976   1.860   6.305  15.283
 1162TIP3    H124977   1.834   6.216  15.259
 1162TIP3    H224978   1.778   6.352  15.295
 1163TIP3   OH224979   3.391   6.763   6.070
 1163TIP3    H124980   3.299   6.745   6.088
 1163TIP3    H224981   3.439   6.711   6.134
 1164TIP3   OH224982   2.431   4.107  13.577
 1164TIP3    H124983   2.371   4.049  13.530
 1164TIP3    H224984   2.518   4.074  13.556
 1165TIP3   OH224985   2.649   2.644   1.076
 1165TIP3    H124986   2.608   2.669   0.994
 1165TIP3    H224987   2.595   2.686   1.144
 1166TIP3   OH224988   0.827   4.957  13.418
 1166TIP3    H124989   0.801   4.897  13.488
 1166TIP3    H224990   0.822   5.044  13.458
 1167TIP3   OH224991   3.667   0.917   1.171
 1167TIP3    H124992   3.572   0.916   1.163
 1167TIP3    H224993   3.692   0.824   1.179
 1168TIP3   OH224994   1.340   3.514   2.225
 1168TIP3    H124995   1.369   3.519   2.316
 1168TIP3    H224996   1.372   3.594   2.184
 1169TIP3   OH224997   0.616   6.490   6.139
 1169TIP3    H124998   0.680   6.443   6.191
 1169TIP3    H224999   0.666   6.558   6.094
 1170TIP3   OH225000   4.261   6.603  12.692
 1170TIP3    H125001   4.203   6.594  12.616
 1170TIP3    H225002   4.288   6.695  12.690
 1171TIP3   OH225003   2.613   1.339   4.467
 1171TIP3    H125004   2.689   1.394   4.488
 1171TIP3    H225005   2.561   1.338   4.548
 1172TIP3   OH225006   5.105   2.629  11.456
 1172TIP3    H125007   5.066   2.580  11.527
 1172TIP3    H225008   5.194   2.650  11.487
 1173TIP3   OH225009   1.307   3.149  12.343
 1173TIP3    H125010   1.330   3.205  12.418
 1173TIP3    H225011   1.385   3.095  12.330
 1174TIP3   OH225012   0.360   4.738  15.018
 1174TIP3    H125013   0.393   4.654  15.049
 1174TIP3    H225014   0.419   4.762  14.947
 1175TIP3   OH225015   4.749   1.587  14.290
 1175TIP3    H125016   4.782   1.659  14.236
 1175TIP3    H225017   4.734   1.516  14.228
 1176TIP3   OH225018   4.177   0.771   0.220
 1176TIP3    H125019   4.167   0.682   0.187
 1176TIP3    H225020   4.105   0.781   0.283
 1177TIP3   OH225021   6.725   6.133  16.025
 1177TIP3    H125022   6.645   6.108  15.979
 1177TIP3    H225023   6.695   6.166  16.110
 1178TIP3   OH225024   3.106   5.190  16.497
 1178TIP3    H125025   3.135   5.280  16.480
 1178TIP3    H225026   3.047   5.171  16.425
 1179TIP3   OH225027   2.539   5.271  12.439
 1179TIP3    H125028   2.536   5.245  12.532
 1179TIP3    H225029   2.587   5.201  12.396
 1180TIP3   OH225030   4.034   0.535  15.892
 1180TIP3    H125031   3.997   0.617  15.859
 1180TIP3    H225032   4.085   0.560  15.968
 1181TIP3   OH225033   2.702   4.918   0.674
 1181TIP3    H125034   2.611   4.928   0.700
 1181TIP3    H225035   2.731   5.006   0.651
 1182TIP3   OH225036   6.055   1.234  13.296
 1182TIP3    H125037   6.127   1.178  13.328
 1182TIP3    H225038   6.070   1.319  13.338
 1183TIP3   OH225039   4.630   3.787  14.927
 1183TIP3    H125040   4.554   3.749  14.970
 1183TIP3    H225041   4.594   3.835  14.852
 1184TIP3   OH225042   5.994   1.333   3.301
 1184TIP3    H125043   6.036   1.395   3.362
 1184TIP3    H225044   6.066   1.293   3.254
 1185TIP3   OH225045   2.882   4.664   4.119
 1185TIP3    H125046   2.972   4.644   4.093
 1185TIP3    H225047   2.872   4.622   4.205
 1186TIP3   OH225048   4.395   4.003  14.083
 1186TIP3    H125049   4.356   4.066  14.144
 1186TIP3    H225050   4.322   3.971  14.031
 1187TIP3   OH225051   4.921   1.531  12.613
 1187TIP3    H125052   4.877   1.447  12.622
 1187TIP3    H225053   4.852   1.591  12.584
 1188TIP3   OH225054   5.208   4.862   2.731
 1188TIP3    H125055   5.206   4.844   2.825
 1188TIP3    H225056   5.159   4.943   2.721
 1189TIP3   OH225057   1.423   6.481  11.906
 1189TIP3    H125058   1.494   6.440  11.955
 1189TIP3    H225059   1.410   6.423  11.831
 1190TIP3   OH225060   0.873   3.506   2.862
 1190TIP3    H125061   0.914   3.442   2.804
 1190TIP3    H225062   0.938   3.522   2.930
 1191TIP3   OH225063   2.848   6.268   4.796
 1191TIP3    H125064   2.935   6.271   4.756
 1191TIP3    H225065   2.797   6.331   4.747
 1192TIP3   OH225066   6.442   6.707   1.035
 1192TIP3    H125067   6.350   6.716   1.010
 1192TIP3    H225068   6.440   6.704   1.131
 1193TIP3   OH225069   4.439   4.412  11.148
 1193TIP3    H125070   4.469   4.439  11.061
 1193TIP3    H225071   4.512   4.361  11.183
 1194TIP3   OH225072   5.176   1.940   0.503
 1194TIP3    H125073   5.223   1.859   0.481
 1194TIP3    H225074   5.246   2.004   0.516
 1195TIP3   OH225075   2.626   6.800   2.662
 1195TIP3    H125076   2.667   6.881   2.631
 1195TIP3    H225077   2.696   6.754   2.707
 1196TIP3   OH225078   2.212   3.145  16.140
 1196TIP3    H125079   2.181   3.105  16.221
 1196TIP3    H225080   2.150   3.116  16.073
 1197TIP3   OH225081   4.308   0.963   3.600
 1197TIP3    H125082   4.244   0.968   3.671
 1197TIP3    H225083   4.302   1.048   3.556
 1198TIP3   OH225084   5.758   2.804  12.530
 1198TIP3    H125085   5.843   2.759  12.534
 1198TIP3    H225086   5.728   2.788  12.440
 1199TIP3   OH225087   5.702   2.324   4.029
 1199TIP3    H125088   5.788   2.360   4.051
 1199TIP3    H225089   5.720   2.261   3.959
 1200TIP3   OH225090   0.665   0.724   1.891
 1200TIP3    H125091   0.701   0.638   1.869
 1200TIP3    H225092   0.706   0.746   1.975
 1201TIP3   OH225093   6.331   6.632   6.132
 1201TIP3    H125094   6.243   6.660   6.160
 1201TIP3    H225095   6.344   6.548   6.175
 1202TIP3   OH225096   5.475   4.672   3.530
 1202TIP3    H125097   5.420   4.669   3.452
 1202TIP3    H225098   5.547   4.611   3.512
 1203TIP3   OH225099   1.821   0.169  14.574
 1203TIP3    H125100   1.854   0.084  14.601
 1203TIP3    H225101   1.823   0.222  14.654
 1204TIP3   OH225102   3.113   5.746   1.104
 1204TIP3    H125103   3.089   5.707   1.019
 1204TIP3    H225104   3.046   5.715   1.164
 1205TIP3   OH225105   2.631   0.115  17.205
 1205TIP3    H125106   2.589   0.172  17.142
 1205TIP3    H225107   2.567   0.046  17.222
 1206TIP3   OH225108   6.585   3.221  16.075
 1206TIP3    H125109   6.523   3.290  16.098
 1206TIP3    H225110   6.666   3.246  16.120
 1207TIP3   OH225111   2.974   0.591   4.320
 1207TIP3    H125112   2.905   0.527   4.303
 1207TIP3    H225113   2.993   0.629   4.234
 1208TIP3   OH225114   4.467   4.959  15.042
 1208TIP3    H125115   4.407   5.030  15.021
 1208TIP3    H225116   4.554   4.996  15.027
 1209TIP3   OH225117   2.293   6.732   4.913
 1209TIP3    H125118   2.365   6.771   4.863
 1209TIP3    H225119   2.336   6.686   4.984
 1210TIP3   OH225120   0.638   0.781   3.454
 1210TIP3    H125121   0.652   0.821   3.540
 1210TIP3    H225122   0.713   0.723   3.442
 1211TIP3   OH225123   3.729   3.659  13.786
 1211TIP3    H125124   3.650   3.688  13.741
 1211TIP3    H225125   3.792   3.643  13.715
 1212TIP3   OH225126   6.310   4.532   3.193
 1212TIP3    H125127   6.382   4.575   3.148
 1212TIP3    H225128   6.274   4.472   3.128
 1213TIP3   OH225129   0.407   2.842   0.227
 1213TIP3    H125130   0.328   2.883   0.261
 1213TIP3    H225131   0.429   2.775   0.292
 1214TIP3   OH225132   2.799   0.395  16.830
 1214TIP3    H125133   2.725   0.449  16.856
 1214TIP3    H225134   2.772   0.355  16.747
 1215TIP3   OH225135   3.577   1.890   0.637
 1215TIP3    H125136   3.527   1.966   0.607
 1215TIP3    H225137   3.556   1.821   0.574
 1216TIP3   OH225138   2.688   4.399   5.981
 1216TIP3    H125139   2.696   4.377   6.074
 1216TIP3    H225140   2.690   4.494   5.978
 1217TIP3   OH225141   1.451   0.102   3.616
 1217TIP3    H125142   1.384   0.087   3.549
 1217TIP3    H225143   1.525   0.049   3.588
 1218TIP3   OH225144   5.048   1.898  10.225
 1218TIP3    H125145   5.053   1.804  10.207
 1218TIP3    H225146   5.069   1.905  10.318
 1219TIP3   OH225147   1.790   2.502  13.593
 1219TIP3    H125148   1.828   2.541  13.672
 1219TIP3    H225149   1.733   2.569  13.557
 1220TIP3   OH225150   3.043   0.992   6.834
 1220TIP3    H125151   2.995   0.940   6.898
 1220TIP3    H225152   3.129   1.006   6.873
 1221TIP3   OH225153   4.426   6.321   4.901
 1221TIP3    H125154   4.395   6.235   4.930
 1221TIP3    H225155   4.389   6.383   4.964
 1222TIP3   OH225156   4.168   2.867  14.273
 1222TIP3    H125157   4.229   2.938  14.254
 1222TIP3    H225158   4.199   2.830  14.356
 1223TIP3   OH225159   5.345   3.641  12.787
 1223TIP3    H125160   5.437   3.645  12.813
 1223TIP3    H225161   5.299   3.620  12.868
 1224TIP3   OH225162   5.723   0.735  13.743
 1224TIP3    H125163   5.731   0.640  13.738
 1224TIP3    H225164   5.744   0.766  13.655
 1225TIP3   OH225165   1.390   6.064  16.973
 1225TIP3    H125166   1.308   6.106  16.950
 1225TIP3    H225167   1.434   6.050  16.889
 1226TIP3   OH225168   6.728   2.797  13.404
 1226TIP3    H125169   6.771   2.848  13.336
 1226TIP3    H225170   6.639   2.833  13.409
 1227TIP3   OH225171   5.531   0.331  15.305
 1227TIP3    H125172   5.539   0.241  15.273
 1227TIP3    H225173   5.437   0.344  15.316
 1228TIP3   OH225174   4.126   2.032   0.216
 1228TIP3    H125175   4.199   1.973   0.200
 1228TIP3    H225176   4.057   2.003   0.157
 1229TIP3   OH225177   6.310   1.514  14.450
 1229TIP3    H125178   6.348   1.501  14.363
 1229TIP3    H225179   6.258   1.594  14.442
 1230TIP3   OH225180   4.090   3.849   1.731
 1230TIP3    H125181   4.056   3.938   1.721
 1230TIP3    H225182   4.034   3.810   1.798
 1231TIP3   OH225183   1.396   2.946   4.978
 1231TIP3    H125184   1.439   2.931   5.062
 1231TIP3    H225185   1.334   3.017   4.995
 1232TIP3   OH225186   4.838   1.529  12.237
 1232TIP3    H125187   4.821   1.560  12.326
 1232TIP3    H225188   4.866   1.607  12.189
 1233TIP3   OH225189   1.977   5.163   0.525
 1233TIP3    H125190   2.065   5.201   0.523
 1233TIP3    H225191   1.942   5.180   0.438
 1234TIP3   OH225192   2.581   4.320   3.038
 1234TIP3    H125193   2.603   4.231   3.065
 1234TIP3    H225194   2.616   4.375   3.107
 1235TIP3   OH225195   6.074   6.463   6.120
 1235TIP3    H125196   6.162   6.427   6.111
 1235TIP3    H225197   6.018   6.403   6.070
 1236TIP3   OH225198   3.191   1.366  17.104
 1236TIP3    H125199   3.161   1.360  17.195
 1236TIP3    H225200   3.286   1.355  17.110
 1237TIP3   OH225201   0.407   5.397  16.450
 1237TIP3    H125202   0.353   5.352  16.385
 1237TIP3    H225203   0.360   5.385  16.532
 1238TIP3   OH225204   0.126   4.482   4.079
 1238TIP3    H125205   0.132   4.386   4.072
 1238TIP3    H225206   0.097   4.510   3.992
 1239TIP3   OH225207   0.230   2.842  15.166
 1239TIP3    H125208   0.215   2.925  15.211
 1239TIP3    H225209   0.259   2.867  15.078
 1240TIP3   OH225210   1.174   3.736   0.511
 1240TIP3    H125211   1.266   3.722   0.487
 1240TIP3    H225212   1.176   3.745   0.607
 1241TIP3   OH225213   0.155   4.598  11.043
 1241TIP3    H125214   0.165   4.508  11.011
 1241TIP3    H225215   0.129   4.648  10.966
 1242TIP3   OH225216   5.574   0.800   5.445
 1242TIP3    H125217   5.619   0.854   5.379
 1242TIP3    H225218   5.614   0.825   5.528
 1243TIP3   OH225219   3.902   3.216  14.987
 1243TIP3    H125220   3.894   3.124  15.014
 1243TIP3    H225221   3.833   3.261  15.035
 1244TIP3   OH225222   4.091   1.104  14.850
 1244TIP3    H125223   4.133   1.186  14.825
 1244TIP3    H225224   4.096   1.103  14.945
 1245TIP3   OH225225   3.077   3.792   4.464
 1245TIP3    H125226   3.066   3.826   4.553
 1245TIP3    H225227   3.172   3.788   4.451
 1246TIP3   OH225228   1.027   2.205   0.839
 1246TIP3    H125229   0.979   2.124   0.856
 1246TIP3    H225230   0.968   2.274   0.868
 1247TIP3   OH225231   5.227   2.624   6.521
 1247TIP3    H125232   5.271   2.547   6.558
 1247TIP3    H225233   5.138   2.619   6.554
 1248TIP3   OH225234   2.706   3.577   4.003
 1248TIP3    H125235   2.617   3.540   3.997
 1248TIP3    H225236   2.693   3.663   4.043
 1249TIP3   OH225237   2.106   1.542   3.343
 1249TIP3    H125238   2.188   1.512   3.383
 1249TIP3    H225239   2.120   1.530   3.249
 1250TIP3   OH225240   5.153   4.894   4.868
 1250TIP3    H125241   5.148   4.948   4.947
 1250TIP3    H225242   5.244   4.863   4.866
 1251TIP3   OH225243   6.438   6.328  17.207
 1251TIP3    H125244   6.509   6.340  17.144
 1251TIP3    H225245   6.472   6.266  17.271
 1252TIP3   OH225246   4.600   4.595   4.415
 1252TIP3    H125247   4.534   4.651   4.374
 1252TIP3    H225248   4.573   4.506   4.395
 1253TIP3   OH225249   2.834   2.747   2.634
 1253TIP3    H125250   2.773   2.720   2.566
 1253TIP3    H225251   2.780   2.755   2.713
 1254TIP3   OH225252   5.692   0.923   5.984
 1254TIP3    H125253   5.691   0.878   6.068
 1254TIP3    H225254   5.705   1.015   6.006
 1255TIP3   OH225255   1.638   6.301  14.734
 1255TIP3    H125256   1.558   6.251  14.754
 1255TIP3    H225257   1.642   6.368  14.802
 1256TIP3   OH225258   3.844   3.801  14.841
 1256TIP3    H125259   3.767   3.857  14.843
 1256TIP3    H225260   3.888   3.817  14.925
 1257TIP3   OH225261   4.370   2.712   4.545
 1257TIP3    H125262   4.430   2.646   4.509
 1257TIP3    H225263   4.422   2.793   4.546
 1258TIP3   OH225264   1.297   4.964   0.733
 1258TIP3    H125265   1.267   4.965   0.642
 1258TIP3    H225266   1.383   5.006   0.731
 1259TIP3   OH225267   2.452   1.334   4.671
 1259TIP3    H125268   2.439   1.343   4.765
 1259TIP3    H225269   2.364   1.341   4.634
 1260TIP3   OH225270   1.265   2.524  11.175
 1260TIP3    H125271   1.251   2.454  11.239
 1260TIP3    H225272   1.286   2.601  11.227
 1261TIP3   OH225273   6.810   2.457  10.306
 1261TIP3    H125274   6.810   2.538  10.255
 1261TIP3    H225275   6.890   2.462  10.359
 1262TIP3   OH225276   4.185   1.717  15.343
 1262TIP3    H125277   4.226   1.799  15.316
 1262TIP3    H225278   4.094   1.740  15.360
 1263TIP3   OH225279   5.425   4.182   4.656
 1263TIP3    H125280   5.341   4.225   4.669
 1263TIP3    H225281   5.429   4.114   4.724
 1264TIP3   OH225282   4.585   3.624  17.143
 1264TIP3    H125283   4.667   3.632  17.191
 1264TIP3    H225284   4.562   3.531  17.150
 1265TIP3   OH225285   2.426   1.453  17.280
 1265TIP3    H125286   2.478   1.525  17.314
 1265TIP3    H225287   2.489   1.395  17.238
 1266TIP3   OH225288   5.486   4.410   1.512
 1266TIP3    H125289   5.409   4.384   1.462
 1266TIP3    H225290   5.559   4.363   1.470
 1267TIP3   OH225291   0.016   5.390   0.324
 1267TIP3    H125292   0.000   5.297   0.342
 1267TIP3    H225293   0.071   5.390   0.245
 1268TIP3   OH225294   1.655   3.774  11.398
 1268TIP3    H125295   1.634   3.844  11.335
 1268TIP3    H225296   1.699   3.707  11.345
 1269TIP3   OH225297   4.865   4.759   2.185
 1269TIP3    H125298   4.913   4.757   2.102
 1269TIP3    H225299   4.916   4.702   2.243
 1270TIP3   OH225300   3.600   3.339  15.708
 1270TIP3    H125301   3.571   3.301  15.791
 1270TIP3    H225302   3.565   3.280  15.642
 1271TIP3   OH225303   3.119   1.474  13.069
 1271TIP3    H125304   3.079   1.467  12.983
 1271TIP3    H225305   3.055   1.436  13.129
 1272TIP3   OH225306   0.999   3.658  12.716
 1272TIP3    H125307   0.991   3.740  12.668
 1272TIP3    H225308   0.911   3.639  12.746
 1273TIP3   OH225309   4.123   3.735   3.823
 1273TIP3    H125310   4.196   3.744   3.762
 1273TIP3    H225311   4.115   3.641   3.838
 1274TIP3   OH225312   5.421   5.918   5.132
 1274TIP3    H125313   5.502   5.936   5.085
 1274TIP3    H225314   5.434   5.832   5.172
 1275TIP3   OH225315   5.207   1.817  16.344
 1275TIP3    H125316   5.137   1.771  16.389
 1275TIP3    H225317   5.271   1.748  16.324
 1276TIP3   OH225318   1.659   2.968  11.228
 1276TIP3    H125319   1.650   3.038  11.162
 1276TIP3    H225320   1.751   2.944  11.225
 1277TIP3   OH225321   6.462   1.256   3.779
 1277TIP3    H125322   6.475   1.168   3.743
 1277TIP3    H225323   6.519   1.260   3.855
 1278TIP3   OH225324   0.144   0.686   0.613
 1278TIP3    H125325   0.063   0.634   0.613
 1278TIP3    H225326   0.214   0.621   0.604
 1279TIP3   OH225327   1.205   0.837  16.869
 1279TIP3    H125328   1.244   0.819  16.784
 1279TIP3    H225329   1.120   0.792  16.866
 1280TIP3   OH225330   3.201   2.175   4.357
 1280TIP3    H125331   3.183   2.126   4.277
 1280TIP3    H225332   3.243   2.255   4.327
 1281TIP3   OH225333   2.031   2.102  11.298
 1281TIP3    H125334   2.118   2.064  11.293
 1281TIP3    H225335   2.011   2.128  11.208
 1282TIP3   OH225336   5.760   5.604  16.211
 1282TIP3    H125337   5.808   5.684  16.192
 1282TIP3    H225338   5.825   5.534  16.201
 1283TIP3   OH225339   4.362   5.922   3.712
 1283TIP3    H125340   4.280   5.919   3.762
 1283TIP3    H225341   4.381   5.830   3.693
 1284TIP3   OH225342   0.148   5.836  11.221
 1284TIP3    H125343   0.157   5.744  11.246
 1284TIP3    H225344   0.223   5.853  11.164
 1285TIP3   OH225345   6.690   4.961  12.499
 1285TIP3    H125346   6.721   4.927  12.415
 1285TIP3    H225347   6.610   4.911  12.517
 1286TIP3   OH225348   5.817   5.513  15.320
 1286TIP3    H125349   5.848   5.429  15.353
 1286TIP3    H225350   5.770   5.552  15.393
 1287TIP3   OH225351   1.336   3.258  14.509
 1287TIP3    H125352   1.317   3.164  14.505
 1287TIP3    H225353   1.339   3.286  14.418
 1288TIP3   OH225354   6.504   5.183   0.618
 1288TIP3    H125355   6.486   5.257   0.560
 1288TIP3    H225356   6.590   5.151   0.590
 1289TIP3   OH225357   0.053   2.056   6.649
 1289TIP3    H125358   0.097   2.120   6.594
 1289TIP3    H225359   0.088   1.972   6.619
 1290TIP3   OH225360   6.616   4.483   4.787
 1290TIP3    H125361   6.627   4.574   4.812
 1290TIP3    H225362   6.636   4.481   4.693
 1291TIP3   OH225363   5.439   0.288   4.333
 1291TIP3    H125364   5.358   0.333   4.355
 1291TIP3    H225365   5.497   0.306   4.407
 1292TIP3   OH225366   0.754   5.239  14.470
 1292TIP3    H125367   0.719   5.199  14.550
 1292TIP3    H225368   0.846   5.256  14.490
 1293TIP3   OH225369   5.200   6.672   3.450
 1293TIP3    H125370   5.143   6.715   3.514
 1293TIP3    H225371   5.147   6.600   3.415
 1294TIP3   OH225372   3.604   0.654  13.165
 1294TIP3    H125373   3.569   0.673  13.252
 1294TIP3    H225374   3.527   0.640  13.111
 1295TIP3   OH225375   4.547   6.613   2.355
 1295TIP3    H125376   4.638   6.640   2.365
 1295TIP3    H225377   4.536   6.541   2.417
 1296TIP3   OH225378   2.361   2.663  15.546
 1296TIP3    H125379   2.418   2.611  15.489
 1296TIP3    H225380   2.287   2.604  15.565
 1297TIP3   OH225381   3.837   1.044  14.914
 1297TIP3    H125382   3.899   1.105  14.874
 1297TIP3    H225383   3.838   1.066  15.007
 1298TIP3   OH225384   5.408   2.255  15.548
 1298TIP3    H125385   5.494   2.285  15.577
 1298TIP3    H225386   5.403   2.165  15.580
 1299TIP3   OH225387   0.370   5.764   5.328
 1299TIP3    H125388   0.312   5.839   5.339
 1299TIP3    H225389   0.362   5.741   5.235
 1300TIP3   OH225390   4.090   2.866  11.651
 1300TIP3    H125391   4.048   2.781  11.638
 1300TIP3    H225392   4.179   2.854  11.618
 1301TIP3   OH225393   5.794   4.190  13.667
 1301TIP3    H125394   5.824   4.167  13.579
 1301TIP3    H225395   5.711   4.142  13.677
 1302TIP3   OH225396   5.403   4.317  11.626
 1302TIP3    H125397   5.436   4.383  11.565
 1302TIP3    H225398   5.481   4.266  11.650
 1303TIP3   OH225399   2.806   1.309   3.923
 1303TIP3    H125400   2.863   1.384   3.942
 1303TIP3    H225401   2.754   1.298   4.002
 1304TIP3   OH225402   5.153   3.623   3.455
 1304TIP3    H125403   5.218   3.691   3.474
 1304TIP3    H225404   5.118   3.599   3.541
 1305TIP3   OH225405   4.031   4.901  13.776
 1305TIP3    H125406   3.951   4.905  13.828
 1305TIP3    H225407   4.100   4.877  13.838
 1306TIP3   OH225408   3.510   5.838   0.476
 1306TIP3    H125409   3.544   5.897   0.409
 1306TIP3    H225410   3.418   5.826   0.453
 1307TIP3   OH225411   3.427   3.535  15.445
 1307TIP3    H125412   3.389   3.510  15.361
 1307TIP3    H225413   3.469   3.620  15.427
 1308TIP3   OH225414   4.528   5.863  15.188
 1308TIP3    H125415   4.472   5.939  15.200
 1308TIP3    H225416   4.613   5.891  15.223
 1309TIP3   OH225417   3.017   6.377  10.451
 1309TIP3    H125418   2.989   6.287  10.434
 1309TIP3    H225419   2.999   6.390  10.544
 1310TIP3   OH225420   2.444   4.739  13.299
 1310TIP3    H125421   2.491   4.656  13.306
 1310TIP3    H225422   2.513   4.804  13.290
 1311TIP3   OH225423   6.021   6.171  15.124
 1311TIP3    H125424   6.083   6.101  15.101
 1311TIP3    H225425   5.971   6.135  15.197
 1312TIP3   OH225426   5.859   0.102   0.991
 1312TIP3    H125427   5.834   0.015   1.021
 1312TIP3    H225428   5.777   0.143   0.964
 1313TIP3   OH225429   6.431   3.499  12.399
 1313TIP3    H125430   6.501   3.509  12.335
 1313TIP3    H225431   6.464   3.542  12.478
 1314TIP3   OH225432   2.558   3.520   4.531
 1314TIP3    H125433   2.591   3.483   4.613
 1314TIP3    H225434   2.489   3.580   4.557
 1315TIP3   OH225435   6.474   2.275   4.357
 1315TIP3    H125436   6.455   2.237   4.443
 1315TIP3    H225437   6.569   2.285   4.355
 1316TIP3   OH225438   1.103   5.922  15.851
 1316TIP3    H125439   1.117   5.839  15.896
 1316TIP3    H225440   1.052   5.975  15.912
 1317TIP3   OH225441   6.196   1.920   5.549
 1317TIP3    H125442   6.214   1.876   5.632
 1317TIP3    H225443   6.133   1.863   5.505
 1318TIP3   OH225444   6.735   5.322  11.588
 1318TIP3    H125445   6.660   5.302  11.532
 1318TIP3    H225446   6.711   5.402  11.634
 1319TIP3   OH225447   4.606   6.197  12.803
 1319TIP3    H125448   4.576   6.115  12.763
 1319TIP3    H225449   4.529   6.253  12.803
 1320TIP3   OH225450   0.727   0.457  15.246
 1320TIP3    H125451   0.699   0.394  15.312
 1320TIP3    H225452   0.675   0.435  15.168
 1321TIP3   OH225453   6.599   0.719  12.796
 1321TIP3    H125454   6.541   0.795  12.790
 1321TIP3    H225455   6.615   0.708  12.889
 1322TIP3   OH225456   4.241   0.544  16.661
 1322TIP3    H125457   4.281   0.561  16.746
 1322TIP3    H225458   4.278   0.461  16.632
 1323TIP3   OH225459   4.387   1.390   0.096
 1323TIP3    H125460   4.371   1.335   0.172
 1323TIP3    H225461   4.473   1.363   0.064
 1324TIP3   OH225462   0.546   3.377   2.562
 1324TIP3    H125463   0.569   3.436   2.490
 1324TIP3    H225464   0.483   3.426   2.615
 1325TIP3   OH225465   4.324   3.517  12.782
 1325TIP3    H125466   4.228   3.526  12.780
 1325TIP3    H225467   4.340   3.427  12.754
 1326TIP3   OH225468   6.200   3.032  11.335
 1326TIP3    H125469   6.258   3.090  11.384
 1326TIP3    H225470   6.238   3.028  11.248
 1327TIP3   OH225471   2.423   6.335   1.717
 1327TIP3    H125472   2.407   6.276   1.644
 1327TIP3    H225473   2.374   6.296   1.790
 1328TIP3   OH225474   2.855   0.398  15.656
 1328TIP3    H125475   2.785   0.462  15.644
 1328TIP3    H225476   2.850   0.342  15.578
 1329TIP3   OH225477   6.425   0.022  14.012
 1329TIP3    H125478   6.490   0.030  13.941
 1329TIP3    H225479   6.477  -0.002  14.089
 1330TIP3   OH225480   5.071   6.497  12.873
 1330TIP3    H125481   5.052   6.569  12.813
 1330TIP3    H225482   5.140   6.447  12.829
 1331TIP3   OH225483   0.296   0.826  12.296
 1331TIP3    H125484   0.205   0.854  12.305
 1331TIP3    H225485   0.297   0.772  12.217
 1332TIP3   OH225486   2.444   3.929   0.774
 1332TIP3    H125487   2.407   3.939   0.862
 1332TIP3    H225488   2.386   3.866   0.731
 1333TIP3   OH225489   1.267   1.202  12.845
 1333TIP3    H125490   1.294   1.160  12.764
 1333TIP3    H225491   1.348   1.215  12.894
 1334TIP3   OH225492   1.512   1.295  15.943
 1334TIP3    H125493   1.485   1.386  15.929
 1334TIP3    H225494   1.439   1.243  15.912
 1335TIP3   OH225495   0.010   1.044   1.183
 1335TIP3    H125496  -0.035   1.022   1.265
 1335TIP3    H225497   0.021   0.960   1.139
 1336TIP3   OH225498   5.376   4.018   1.596
 1336TIP3    H125499   5.354   4.032   1.688
 1336TIP3    H225500   5.339   3.932   1.575
 1337TIP3   OH225501   0.960   1.635   0.844
 1337TIP3    H125502   1.035   1.666   0.894
 1337TIP3    H225503   0.988   1.552   0.807
 1338TIP3   OH225504   3.579   3.523   2.547
 1338TIP3    H125505   3.487   3.549   2.543
 1338TIP3    H225506   3.581   3.453   2.613
 1339TIP3   OH225507   0.823   6.108  12.071
 1339TIP3    H125508   0.744   6.080  12.025
 1339TIP3    H225509   0.792   6.134  12.158
 1340TIP3   OH225510   4.534   6.442  16.214
 1340TIP3    H125511   4.503   6.362  16.257
 1340TIP3    H225512   4.593   6.410  16.145
 1341TIP3   OH225513   0.405   5.935   5.726
 1341TIP3    H125514   0.394   5.844   5.700
 1341TIP3    H225515   0.413   5.932   5.821
 1342TIP3   OH225516   5.454   4.471   0.861
 1342TIP3    H125517   5.405   4.553   0.852
 1342TIP3    H225518   5.387   4.405   0.879
 1343TIP3   OH225519   0.981   1.375  16.273
 1343TIP3    H125520   0.971   1.460  16.230
 1343TIP3    H225521   1.005   1.315  16.202
 1344TIP3   OH225522   0.369   3.142  13.540
 1344TIP3    H125523   0.317   3.121  13.462
 1344TIP3    H225524   0.388   3.057  13.579
 1345TIP3   OH225525   1.416   0.650  14.673
 1345TIP3    H125526   1.349   0.660  14.741
 1345TIP3    H225527   1.368   0.655  14.591
 1346TIP3   OH225528   3.461   6.122  12.999
 1346TIP3    H125529   3.377   6.079  13.012
 1346TIP3    H225530   3.526   6.053  13.015
 1347TIP3   OH225531   5.962   5.373   0.100
 1347TIP3    H125532   5.895   5.313   0.069
 1347TIP3    H225533   5.948   5.379   0.194
 1348TIP3   OH225534   6.618   6.093  11.465
 1348TIP3    H125535   6.712   6.091  11.445
 1348TIP3    H225536   6.605   6.020  11.525
 1349TIP3   OH225537   2.339   2.946   4.264
 1349TIP3    H125538   2.340   2.858   4.301
 1349TIP3    H225539   2.263   2.988   4.305
 1350TIP3   OH225540   6.243   1.933  14.599
 1350TIP3    H125541   6.272   1.887  14.678
 1350TIP3    H225542   6.302   2.008  14.592
 1351TIP3   OH225543   5.260   2.057  14.316
 1351TIP3    H125544   5.328   2.124  14.311
 1351TIP3    H225545   5.304   1.976  14.292
 1352TIP3   OH225546   1.475   5.314  14.071
 1352TIP3    H125547   1.466   5.262  13.991
 1352TIP3    H225548   1.417   5.272  14.134
 1353TIP3   OH225549   4.279   3.500   0.679
 1353TIP3    H125550   4.254   3.425   0.733
 1353TIP3    H225551   4.289   3.464   0.591
 1354TIP3   OH225552   0.490   3.556   1.991
 1354TIP3    H125553   0.558   3.501   1.954
 1354TIP3    H225554   0.426   3.495   2.028
 1355TIP3   OH225555   0.468   4.817   1.243
 1355TIP3    H125556   0.466   4.727   1.275
 1355TIP3    H225557   0.417   4.867   1.307
 1356TIP3   OH225558   1.987   0.748  16.750
 1356TIP3    H125559   1.991   0.677  16.814
 1356TIP3    H225560   1.926   0.717  16.684
 1357TIP3   OH225561   0.441   4.895   2.904
 1357TIP3    H125562   0.514   4.840   2.933
 1357TIP3    H225563   0.467   4.984   2.930
 1358TIP3   OH225564   6.360   4.152  13.017
 1358TIP3    H125565   6.276   4.107  13.018
 1358TIP3    H225566   6.410   4.107  12.948
 1359TIP3   OH225567   6.061   3.340   1.723
 1359TIP3    H125568   6.147   3.366   1.756
 1359TIP3    H225569   6.002   3.352   1.797
 1360TIP3   OH225570   4.434   4.183  11.728
 1360TIP3    H125571   4.505   4.187  11.664
 1360TIP3    H225572   4.354   4.186  11.676
 1361TIP3   OH225573   3.781   5.348   5.347
 1361TIP3    H125574   3.760   5.441   5.340
 1361TIP3    H225575   3.865   5.339   5.302
 1362TIP3   OH225576   1.502   6.402   0.138
 1362TIP3    H125577   1.412   6.391   0.108
 1362TIP3    H225578   1.555   6.398   0.059
 1363TIP3   OH225579   5.609   4.366  16.798
 1363TIP3    H125580   5.528   4.357  16.748
 1363TIP3    H225581   5.674   4.393  16.733
 1364TIP3   OH225582   5.239   2.594  13.873
 1364TIP3    H125583   5.324   2.638  13.880
 1364TIP3    H225584   5.241   2.551  13.788
 1365TIP3   OH225585   4.135   6.125   0.801
 1365TIP3    H125586   4.067   6.162   0.857
 1365TIP3    H225587   4.141   6.185   0.727
 1366TIP3   OH225588   6.550   2.055  15.302
 1366TIP3    H125589   6.635   2.072  15.343
 1366TIP3    H225590   6.541   1.960  15.306
 1367TIP3   OH225591   2.466   0.219   2.045
 1367TIP3    H125592   2.388   0.210   2.100
 1367TIP3    H225593   2.539   0.192   2.101
 1368TIP3   OH225594   0.688   4.223   6.482
 1368TIP3    H125595   0.679   4.243   6.576
 1368TIP3    H225596   0.759   4.280   6.452
 1369TIP3   OH225597   3.783   5.249  10.926
 1369TIP3    H125598   3.850   5.192  10.888
 1369TIP3    H225599   3.704   5.229  10.877
 1370TIP3   OH225600   1.210   1.523  12.375
 1370TIP3    H125601   1.256   1.440  12.388
 1370TIP3    H225602   1.252   1.562  12.298
 1371TIP3   OH225603   1.377   5.470  16.916
 1371TIP3    H125604   1.417   5.386  16.894
 1371TIP3    H225605   1.283   5.455  16.904
 1372TIP3   OH225606   6.770   0.708  13.973
 1372TIP3    H125607   6.706   0.766  13.931
 1372TIP3    H225608   6.789   0.749  14.057
 1373TIP3   OH225609   4.826   4.894   5.381
 1373TIP3    H125610   4.856   4.886   5.472
 1373TIP3    H225611   4.841   4.807   5.343
 1374TIP3   OH225612   1.322   1.241  13.196
 1374TIP3    H125613   1.268   1.236  13.275
 1374TIP3    H225614   1.326   1.151  13.164
 1375TIP3   OH225615   0.818   2.597  11.534
 1375TIP3    H125616   0.839   2.690  11.527
 1375TIP3    H225617   0.901   2.553  11.514
 1376TIP3   OH225618   6.103   3.829  13.181
 1376TIP3    H125619   6.035   3.804  13.244
 1376TIP3    H225620   6.178   3.854  13.235
 1377TIP3   OH225621   3.439   2.477  16.037
 1377TIP3    H125622   3.448   2.520  16.122
 1377TIP3    H225623   3.362   2.518  15.998
 1378TIP3   OH225624   6.414   6.398  13.325
 1378TIP3    H125625   6.455   6.330  13.378
 1378TIP3    H225626   6.479   6.422  13.260
 1379TIP3   OH225627   3.342   6.690  15.072
 1379TIP3    H125628   3.327   6.773  15.116
 1379TIP3    H225629   3.275   6.632  15.106
 1380TIP3   OH225630   4.949   5.328  12.904
 1380TIP3    H125631   4.894   5.249  12.905
 1380TIP3    H225632   5.020   5.308  12.965
 1381TIP3   OH225633   4.131   0.638   4.278
 1381TIP3    H125634   4.171   0.725   4.282
 1381TIP3    H225635   4.179   0.594   4.207
 1382TIP3   OH225636   2.102   3.125  13.231
 1382TIP3    H125637   2.192   3.111  13.262
 1382TIP3    H225638   2.051   3.137  13.311
 1383TIP3   OH225639   5.875   0.900   2.547
 1383TIP3    H125640   5.881   0.862   2.635
 1383TIP3    H225641   5.825   0.836   2.496
 1384TIP3   OH225642   3.025   3.517   5.343
 1384TIP3    H125643   2.998   3.432   5.377
 1384TIP3    H225644   3.068   3.497   5.260
 1385TIP3   OH225645   2.438   3.432   3.150
 1385TIP3    H125646   2.364   3.492   3.157
 1385TIP3    H225647   2.515   3.489   3.143
 1386TIP3   OH225648   0.716   5.293   3.083
 1386TIP3    H125649   0.651   5.331   3.025
 1386TIP3    H225650   0.726   5.357   3.154
 1387TIP3   OH225651   5.007   5.559   0.510
 1387TIP3    H125652   4.927   5.561   0.458
 1387TIP3    H225653   5.077   5.551   0.445
 1388TIP3   OH225654   5.806   1.281   4.893
 1388TIP3    H125655   5.859   1.205   4.868
 1388TIP3    H225656   5.857   1.356   4.863
 1389TIP3   OH225657   5.766   1.639  11.892
 1389TIP3    H125658   5.833   1.578  11.860
 1389TIP3    H225659   5.751   1.698  11.818
 1390TIP3   OH225660   0.907   2.712   3.001
 1390TIP3    H125661   0.967   2.786   2.998
 1390TIP3    H225662   0.838   2.733   2.938
 1391TIP3   OH225663   3.307   3.937   5.455
 1391TIP3    H125664   3.290   3.844   5.465
 1391TIP3    H225665   3.388   3.952   5.503
 1392TIP3   OH225666   4.124   6.722  12.094
 1392TIP3    H125667   4.058   6.727  12.025
 1392TIP3    H225668   4.106   6.798  12.150
 1393TIP3   OH225669   1.275   6.709  13.321
 1393TIP3    H125670   1.254   6.767  13.248
 1393TIP3    H225671   1.352   6.660  13.291
 1394TIP3   OH225672   3.399   0.877  11.153
 1394TIP3    H125673   3.445   0.951  11.114
 1394TIP3    H225674   3.378   0.820  11.079
 1395TIP3   OH225675   6.655   0.802   4.818
 1395TIP3    H125676   6.563   0.780   4.836
 1395TIP3    H225677   6.675   0.872   4.881
 1396TIP3   OH225678   6.455   5.621   3.200
 1396TIP3    H125679   6.491   5.544   3.244
 1396TIP3    H225680   6.380   5.587   3.151
 1397TIP3   OH225681   2.496   0.038   1.829
 1397TIP3    H125682   2.481   0.104   1.896
 1397TIP3    H225683   2.413  -0.009   1.822
 1398TIP3   OH225684   4.653   1.600  15.210
 1398TIP3    H125685   4.685   1.640  15.291
 1398TIP3    H225686   4.728   1.600  15.151
 1399TIP3   OH225687   0.976   3.482   6.136
 1399TIP3    H125688   1.007   3.569   6.159
 1399TIP3    H225689   1.025   3.423   6.193
 1400TIP3   OH225690   3.808   2.653   1.625
 1400TIP3    H125691   3.831   2.652   1.532
 1400TIP3    H225692   3.724   2.699   1.628
 1401TIP3   OH225693   4.852   2.497   0.002
 1401TIP3    H125694   4.823   2.478   0.091
 1401TIP3    H225695   4.874   2.411  -0.034
 1402TIP3   OH225696   3.454   0.668  13.400
 1402TIP3    H125697   3.481   0.752  13.436
 1402TIP3    H225698   3.371   0.649  13.443
 1403TIP3   OH225699   6.459   6.369   2.998
 1403TIP3    H125700   6.365   6.367   2.978
 1403TIP3    H225701   6.489   6.280   2.984
 1404TIP3   OH225702   5.598   3.616   2.578
 1404TIP3    H125703   5.622   3.538   2.529
 1404TIP3    H225704   5.597   3.587   2.670
 1405TIP3   OH225705   0.878   0.039  11.841
 1405TIP3    H125706   0.847   0.011  11.927
 1405TIP3    H225707   0.972   0.019  11.842
 1406TIP3   OH225708   3.130   0.032  13.638
 1406TIP3    H125709   3.164  -0.058  13.641
 1406TIP3    H225710   3.179   0.073  13.567
 1407TIP3   OH225711   2.560   5.712  12.883
 1407TIP3    H125712   2.604   5.794  12.863
 1407TIP3    H225713   2.627   5.645  12.872
 1408TIP3   OH225714   0.704   6.395   1.931
 1408TIP3    H125715   0.795   6.394   1.900
 1408TIP3    H225716   0.665   6.317   1.892
 1409TIP3   OH225717   0.633   1.164   2.723
 1409TIP3    H125718   0.619   1.123   2.808
 1409TIP3    H225719   0.704   1.227   2.738
 1410TIP3   OH225720   5.867   5.263  13.814
 1410TIP3    H125721   5.817   5.324  13.868
 1410TIP3    H225722   5.880   5.309  13.731
 1411TIP3   OH225723   4.493   1.132  11.599
 1411TIP3    H125724   4.497   1.220  11.637
 1411TIP3    H225725   4.439   1.142  11.521
 1412TIP3   OH225726   2.800   0.145   0.150
 1412TIP3    H125727   2.748   0.159   0.070
 1412TIP3    H225728   2.891   0.152   0.120
 1413TIP3   OH225729   2.407   5.841  16.539
 1413TIP3    H125730   2.489   5.852  16.589
 1413TIP3    H225731   2.428   5.774  16.474
 1414TIP3   OH225732   1.398   2.837   1.894
 1414TIP3    H125733   1.361   2.902   1.835
 1414TIP3    H225734   1.357   2.755   1.868
 1415TIP3   OH225735   3.895   3.458   0.403
 1415TIP3    H125736   3.811   3.412   0.408
 1415TIP3    H225737   3.877   3.545   0.438
 1416TIP3   OH225738   1.720   4.547  13.781
 1416TIP3    H125739   1.797   4.594  13.813
 1416TIP3    H225740   1.720   4.465  13.830
 1417TIP3   OH225741   4.815   1.491  14.706
 1417TIP3    H125742   4.886   1.538  14.751
 1417TIP3    H225743   4.764   1.560  14.664
 1418TIP3   OH225744   2.697   2.566  11.787
 1418TIP3    H125745   2.671   2.542  11.876
 1418TIP3    H225746   2.668   2.494  11.732
 1419TIP3   OH225747   6.164   5.678   3.871
 1419TIP3    H125748   6.093   5.742   3.870
 1419TIP3    H225749   6.237   5.721   3.826
 1420TIP3   OH225750   6.728   3.187   3.306
 1420TIP3    H125751   6.786   3.263   3.309
 1420TIP3    H225752   6.772   3.125   3.249
 1421TIP3   OH225753   5.180   3.258  13.459
 1421TIP3    H125754   5.153   3.321  13.526
 1421TIP3    H225755   5.109   3.259  13.396
 1422TIP3   OH225756   6.251   0.052  17.162
 1422TIP3    H125757   6.177   0.001  17.128
 1422TIP3    H225758   6.222   0.083  17.248
 1423TIP3   OH225759   6.574   1.275   3.256
 1423TIP3    H125760   6.618   1.255   3.173
 1423TIP3    H225761   6.602   1.204   3.315
 1424TIP3   OH225762   0.195   2.967  12.367
 1424TIP3    H125763   0.234   3.004  12.288
 1424TIP3    H225764   0.269   2.937  12.419
 1425TIP3   OH225765   5.549   0.882   5.105
 1425TIP3    H125766   5.562   0.975   5.122
 1425TIP3    H225767   5.632   0.853   5.067
 1426TIP3   OH225768   5.957   0.821   3.353
 1426TIP3    H125769   5.933   0.901   3.306
 1426TIP3    H225770   5.876   0.770   3.357
 1427TIP3   OH225771   1.295   3.732  12.390
 1427TIP3    H125772   1.360   3.767  12.450
 1427TIP3    H225773   1.224   3.701  12.447
 1428TIP3   OH225774   2.479   5.987  14.197
 1428TIP3    H125775   2.540   5.940  14.139
 1428TIP3    H225776   2.536   6.039  14.253
 1429TIP3   OH225777   5.637   6.376  16.363
 1429TIP3    H125778   5.682   6.339  16.287
 1429TIP3    H225779   5.565   6.427  16.326
 1430TIP3   OH225780   6.589   0.215  13.340
 1430TIP3    H125781   6.493   0.214  13.337
 1430TIP3    H225782   6.613   0.131  13.378
 1431TIP3   OH225783   2.360   1.387   3.402
 1431TIP3    H125784   2.404   1.408   3.484
 1431TIP3    H225785   2.336   1.295   3.409
 1432TIP3   OH225786   4.083   3.587  14.035
 1432TIP3    H125787   4.159   3.535  14.063
 1432TIP3    H225788   4.052   3.544  13.956
 1433TIP3   OH225789   1.100   0.045   3.127
 1433TIP3    H125790   1.109   0.026   3.034
 1433TIP3    H225791   1.183   0.084   3.152
 1434TIP3   OH225792   1.359   6.068  13.798
 1434TIP3    H125793   1.297   6.039  13.865
 1434TIP3    H225794   1.389   5.987  13.757
 1435TIP3   OH225795   2.599   1.848   0.425
 1435TIP3    H125796   2.536   1.861   0.354
 1435TIP3    H225797   2.591   1.755   0.447
 1436TIP3   OH225798   6.024   5.815  11.972
 1436TIP3    H125799   6.118   5.812  11.955
 1436TIP3    H225800   5.994   5.894  11.927
 1437TIP3   OH225801   0.030   4.491   1.752
 1437TIP3    H125802   0.008   4.402   1.724
 1437TIP3    H225803   0.116   4.507   1.714
 1438TIP3   OH225804   3.659   2.118  15.579
 1438TIP3    H125805   3.736   2.158  15.618
 1438TIP3    H225806   3.675   2.024  15.586
 1439TIP3   OH225807   3.320   1.000  13.709
 1439TIP3    H125808   3.332   1.085  13.667
 1439TIP3    H225809   3.232   0.973  13.682
 1440TIP3   OH225810   3.737   0.011   5.627
 1440TIP3    H125811   3.654   0.005   5.676
 1440TIP3    H225812   3.712   0.048   5.543
 1441TIP3   OH225813   6.049   1.801   6.240
 1441TIP3    H125814   6.141   1.783   6.221
 1441TIP3    H225815   6.036   1.769   6.329
 1442TIP3   OH225816   6.423   2.425  16.140
 1442TIP3    H125817   6.500   2.475  16.165
 1442TIP3    H225818   6.422   2.430  16.044
 1443TIP3   OH225819   5.738   1.719  15.891
 1443TIP3    H125820   5.787   1.795  15.922
 1443TIP3    H225821   5.747   1.654  15.961
 1444TIP3   OH225822   4.984   6.403  15.783
 1444TIP3    H125823   4.916   6.420  15.717
 1444TIP3    H225824   4.971   6.312  15.808
 1445TIP3   OH225825   5.006   1.466   1.522
 1445TIP3    H125826   5.051   1.385   1.545
 1445TIP3    H225827   5.074   1.533   1.524
 1446TIP3   OH225828   6.132   2.052   0.832
 1446TIP3    H125829   6.208   2.110   0.825
 1446TIP3    H225830   6.063   2.105   0.871
 1447TIP3   OH225831   4.676   6.008  13.834
 1447TIP3    H125832   4.612   6.067  13.873
 1447TIP3    H225833   4.635   5.978  13.753
 1448TIP3   OH225834   6.347   5.803   2.899
 1448TIP3    H125835   6.424   5.751   2.920
 1448TIP3    H225836   6.276   5.760   2.946
 1449TIP3   OH225837   4.337   3.104  10.735
 1449TIP3    H125838   4.301   3.075  10.819
 1449TIP3    H225839   4.293   3.050  10.670
 1450TIP3   OH225840   6.699   3.403  14.862
 1450TIP3    H125841   6.762   3.337  14.892
 1450TIP3    H225842   6.710   3.404  14.766
 1451TIP3   OH225843   3.837   5.739   4.335
 1451TIP3    H125844   3.926   5.759   4.366
 1451TIP3    H225845   3.784   5.737   4.415
 1452TIP3   OH225846   3.962   1.552  12.407
 1452TIP3    H125847   4.011   1.491  12.353
 1452TIP3    H225848   3.895   1.499  12.450
 1453TIP3   OH225849   2.657   3.493  12.966
 1453TIP3    H125850   2.610   3.467  13.045
 1453TIP3    H225851   2.745   3.458  12.979
 1454TIP3   OH225852   5.042   3.667  16.172
 1454TIP3    H125853   5.099   3.592  16.156
 1454TIP3    H225854   5.040   3.714  16.089
 1455TIP3   OH225855   1.490   1.896   5.109
 1455TIP3    H125856   1.420   1.833   5.127
 1455TIP3    H225857   1.564   1.863   5.159
 1456TIP3   OH225858   2.187   4.506  14.816
 1456TIP3    H125859   2.119   4.455  14.773
 1456TIP3    H225860   2.245   4.441  14.855
 1457TIP3   OH225861   6.553   4.463  10.961
 1457TIP3    H125862   6.491   4.418  10.904
 1457TIP3    H225863   6.566   4.549  10.920
 1458TIP3   OH225864   4.134   5.824  13.796
 1458TIP3    H125865   4.166   5.841  13.707
 1458TIP3    H225866   4.203   5.859  13.853
 1459TIP3   OH225867   6.803   4.534   0.334
 1459TIP3    H125868   6.893   4.536   0.368
 1459TIP3    H225869   6.749   4.523   0.412
 1460TIP3   OH225870   0.274   5.229  15.327
 1460TIP3    H125871   0.331   5.192  15.260
 1460TIP3    H225872   0.266   5.322  15.303
 1461TIP3   OH225873   3.628   5.251   4.364
 1461TIP3    H125874   3.692   5.181   4.353
 1461TIP3    H225875   3.560   5.214   4.419
 1462TIP3   OH225876   1.683   6.684  14.393
 1462TIP3    H125877   1.617   6.748  14.367
 1462TIP3    H225878   1.636   6.618  14.443
 1463TIP3   OH225879   0.597   2.864  12.662
 1463TIP3    H125880   0.692   2.857  12.655
 1463TIP3    H225881   0.576   2.817  12.743
 1464TIP3   OH225882   6.680   3.486  13.599
 1464TIP3    H125883   6.736   3.416  13.633
 1464TIP3    H225884   6.619   3.442  13.540
 1465TIP3   OH225885   4.938   2.049   2.741
 1465TIP3    H125886   4.935   1.954   2.752
 1465TIP3    H225887   4.928   2.063   2.647
 1466TIP3   OH225888   5.349   0.320   2.797
 1466TIP3    H125889   5.254   0.314   2.806
 1466TIP3    H225890   5.365   0.315   2.703
 1467TIP3   OH225891   6.439   0.476   1.192
 1467TIP3    H125892   6.347   0.500   1.181
 1467TIP3    H225893   6.443   0.383   1.172
 1468TIP3   OH225894   0.027   1.094   4.309
 1468TIP3    H125895   0.051   1.161   4.244
 1468TIP3    H225896  -0.044   1.134   4.359
 1469TIP3   OH225897   4.134   0.532   1.322
 1469TIP3    H125898   4.226   0.553   1.341
 1469TIP3    H225899   4.084   0.582   1.387
 1470TIP3   OH225900   4.592   3.411  10.736
 1470TIP3    H125901   4.590   3.498  10.776
 1470TIP3    H225902   4.646   3.359  10.795
 1471TIP3   OH225903   0.661   5.864   1.125
 1471TIP3    H125904   0.682   5.922   1.052
 1471TIP3    H225905   0.687   5.913   1.203
 1472TIP3   OH225906   1.003   3.944  16.859
 1472TIP3    H125907   0.986   3.887  16.934
 1472TIP3    H225908   0.923   3.939  16.806
 1473TIP3   OH225909   3.963   4.152  14.849
 1473TIP3    H125910   3.926   4.144  14.937
 1473TIP3    H225911   3.912   4.223  14.809
 1474TIP3   OH225912   2.163   5.811   1.898
 1474TIP3    H125913   2.100   5.746   1.865
 1474TIP3    H225914   2.239   5.759   1.924
 1475TIP3   OH225915   1.715   5.468   3.722
 1475TIP3    H125916   1.752   5.380   3.721
 1475TIP3    H225917   1.631   5.459   3.767
 1476TIP3   OH225918   1.893   3.154  11.734
 1476TIP3    H125919   1.902   3.112  11.648
 1476TIP3    H225920   1.834   3.096  11.783
 1477TIP3   OH225921   3.118   0.788  14.549
 1477TIP3    H125922   3.103   0.866  14.496
 1477TIP3    H225923   3.042   0.732  14.534
 1478TIP3   OH225924   3.130   3.596  14.458
 1478TIP3    H125925   3.104   3.506  14.480
 1478TIP3    H225926   3.183   3.587  14.379
 1479TIP3   OH225927   4.105   5.667   3.490
 1479TIP3    H125928   4.094   5.623   3.405
 1479TIP3    H225929   4.135   5.755   3.468
 1480TIP3   OH225930   5.266   3.819   6.120
 1480TIP3    H125931   5.349   3.860   6.143
 1480TIP3    H225932   5.222   3.806   6.203
 1481TIP3   OH225933   0.233   3.620  14.907
 1481TIP3    H125934   0.246   3.577  14.823
 1481TIP3    H225935   0.281   3.565  14.970
 1482TIP3   OH225936   0.481   5.424   1.568
 1482TIP3    H125937   0.408   5.366   1.544
 1482TIP3    H225938   0.533   5.372   1.629
 1483TIP3   OH225939   4.221   0.242   4.765
 1483TIP3    H125940   4.171   0.236   4.846
 1483TIP3    H225941   4.163   0.206   4.698
 1484TIP3   OH225942   1.287   0.400  15.403
 1484TIP3    H125943   1.295   0.333  15.336
 1484TIP3    H225944   1.377   0.422  15.426
 1485TIP3   OH225945   3.387   5.733   6.452
 1485TIP3    H125946   3.401   5.734   6.547
 1485TIP3    H225947   3.353   5.820   6.432
 1486TIP3   OH225948   5.411   1.254  11.368
 1486TIP3    H125949   5.383   1.345  11.372
 1486TIP3    H225950   5.351   1.213  11.305
 1487TIP3   OH225951   2.098   3.261  16.465
 1487TIP3    H125952   2.035   3.213  16.519
 1487TIP3    H225953   2.184   3.228  16.494
 1488TIP3   OH225954   3.181   5.113  12.711
 1488TIP3    H125955   3.093   5.086  12.684
 1488TIP3    H225956   3.220   5.034  12.748
 1489TIP3   OH225957   2.503   1.462  16.957
 1489TIP3    H125958   2.524   1.435  17.046
 1489TIP3    H225959   2.555   1.541  16.943
 1490TIP3   OH225960   3.516   5.272  15.250
 1490TIP3    H125961   3.581   5.238  15.312
 1490TIP3    H225962   3.567   5.296  15.173
 1491TIP3   OH225963   2.536   0.972   1.672
 1491TIP3    H125964   2.560   0.917   1.597
 1491TIP3    H225965   2.448   1.003   1.651
 1492TIP3   OH225966   2.374   2.702  15.812
 1492TIP3    H125967   2.292   2.743  15.840
 1492TIP3    H225968   2.360   2.679  15.720
 1493TIP3   OH225969   5.996   5.820  13.540
 1493TIP3    H125970   5.944   5.858  13.611
 1493TIP3    H225971   5.961   5.861  13.461
 1494TIP3   OH225972   0.924   1.812  15.264
 1494TIP3    H125973   0.853   1.778  15.210
 1494TIP3    H225974   0.880   1.853  15.339
 1495TIP3   OH225975   6.048   4.903  12.875
 1495TIP3    H125976   6.114   4.856  12.824
 1495TIP3    H225977   6.092   4.928  12.956
 1496TIP3   OH225978   2.048   6.181   5.904
 1496TIP3    H125979   2.026   6.110   5.843
 1496TIP3    H225980   2.041   6.261   5.852
 1497TIP3   OH225981   4.628   4.889  10.627
 1497TIP3    H125982   4.651   4.935  10.708
 1497TIP3    H225983   4.712   4.863  10.590
 1498TIP3   OH225984   1.152   6.183  14.906
 1498TIP3    H125985   1.202   6.135  14.971
 1498TIP3    H225986   1.080   6.125  14.883
 1499TIP3   OH225987   5.056   4.754   0.820
 1499TIP3    H125988   4.974   4.757   0.771
 1499TIP3    H225989   5.100   4.676   0.787
 1500TIP3   OH225990   2.778   5.763  12.263
 1500TIP3    H125991   2.774   5.677  12.305
 1500TIP3    H225992   2.831   5.817  12.323
 1501TIP3   OH225993   5.448   4.605   4.850
 1501TIP3    H125994   5.508   4.536   4.822
 1501TIP3    H225995   5.447   4.667   4.777
 1502TIP3   OH225996   0.530   0.383  13.830
 1502TIP3    H125997   0.490   0.336  13.756
 1502TIP3    H225998   0.567   0.462  13.791
 1503TIP3   OH225999   1.279   1.772   1.895
 1503TIP3    H126000   1.297   1.861   1.866
 1503TIP3    H226001   1.363   1.742   1.931
 1504TIP3   OH226002   1.165   1.776  11.277
 1504TIP3    H126003   1.134   1.841  11.213
 1504TIP3    H226004   1.218   1.715  11.225
 1505TIP3   OH226005   2.921   4.582  15.038
 1505TIP3    H126006   2.883   4.666  15.066
 1505TIP3    H226007   2.855   4.545  14.979
 1506TIP3   OH226008   0.815   5.494  13.978
 1506TIP3    H126009   0.892   5.439  13.968
 1506TIP3    H226010   0.799   5.496  14.072
 1507TIP3   OH226011   2.910   3.120   3.550
 1507TIP3    H126012   2.835   3.114   3.491
 1507TIP3    H226013   2.981   3.075   3.504
 1508TIP3   OH226014   3.580   3.207   1.381
 1508TIP3    H126015   3.504   3.152   1.398
 1508TIP3    H226016   3.545   3.296   1.378
 1509TIP3   OH226017   5.031   2.977   2.259
 1509TIP3    H126018   5.107   2.994   2.203
 1509TIP3    H226019   4.981   2.911   2.211
 1510TIP3   OH226020   1.961   2.922  16.115
 1510TIP3    H126021   1.868   2.908  16.096
 1510TIP3    H226022   1.986   2.996  16.059
 1511TIP3   OH226023   2.572   4.559  11.775
 1511TIP3    H126024   2.546   4.646  11.804
 1511TIP3    H226025   2.657   4.572  11.734
 1512TIP3   OH226026   3.702   4.396   2.615
 1512TIP3    H126027   3.719   4.461   2.546
 1512TIP3    H226028   3.731   4.313   2.577
 1513TIP3   OH226029   3.276   6.046   4.475
 1513TIP3    H126030   3.368   6.058   4.501
 1513TIP3    H226031   3.256   6.124   4.423
 1514TIP3   OH226032   1.551   6.817  11.414
 1514TIP3    H126033   1.530   6.725  11.427
 1514TIP3    H226034   1.470   6.855  11.378
 1515TIP3   OH226035   3.355   0.360   0.372
 1515TIP3    H126036   3.283   0.296   0.369
 1515TIP3    H226037   3.311   0.445   0.365
 1516TIP3   OH226038   2.390   6.406   6.454
 1516TIP3    H126039   2.412   6.383   6.364
 1516TIP3    H226040   2.310   6.356   6.472
 1517TIP3   OH226041   2.788   6.401  11.086
 1517TIP3    H126042   2.863   6.414  11.028
 1517TIP3    H226043   2.711   6.418  11.031
 1518TIP3   OH226044   4.766   3.492   4.612
 1518TIP3    H126045   4.798   3.479   4.522
 1518TIP3    H226046   4.687   3.544   4.601
 1519TIP3   OH226047   4.161   2.468   0.551
 1519TIP3    H126048   4.181   2.383   0.513
 1519TIP3    H226049   4.066   2.468   0.563
 1520TIP3   OH226050   0.544   1.637  15.415
 1520TIP3    H126051   0.632   1.631  15.452
 1520TIP3    H226052   0.523   1.731  15.419
 1521TIP3   OH226053   4.800   6.763   0.143
 1521TIP3    H126054   4.816   6.818   0.066
 1521TIP3    H226055   4.766   6.823   0.209
 1522TIP3   OH226056   3.281   5.798  11.184
 1522TIP3    H126057   3.306   5.706  11.182
 1522TIP3    H226058   3.286   5.822  11.277
 1523TIP3   OH226059   5.416   6.306  10.936
 1523TIP3    H126060   5.401   6.380  10.994
 1523TIP3    H226061   5.493   6.331  10.885
 1524TIP3   OH226062   6.664   3.671  16.697
 1524TIP3    H126063   6.667   3.766  16.693
 1524TIP3    H226064   6.608   3.651  16.772
 1525TIP3   OH226065   0.715   0.728   1.097
 1525TIP3    H126066   0.767   0.762   1.024
 1525TIP3    H226067   0.721   0.633   1.088
 1526TIP3   OH226068   0.819   5.160   1.761
 1526TIP3    H126069   0.899   5.200   1.727
 1526TIP3    H226070   0.851   5.087   1.814
 1527TIP3   OH226071   1.361   3.335   5.943
 1527TIP3    H126072   1.329   3.414   5.899
 1527TIP3    H226073   1.339   3.349   6.035
 1528TIP3   OH226074   6.221   5.915  15.862
 1528TIP3    H126075   6.149   5.861  15.828
 1528TIP3    H226076   6.209   5.914  15.957
 1529TIP3   OH226077   5.073   5.680  11.998
 1529TIP3    H126078   5.149   5.645  12.045
 1529TIP3    H226079   5.085   5.652  11.908
 1530TIP3   OH226080   5.726   5.318  14.833
 1530TIP3    H126081   5.799   5.375  14.857
 1530TIP3    H226082   5.653   5.350  14.886
 1531TIP3   OH226083   4.668   0.280  16.288
 1531TIP3    H126084   4.684   0.206  16.230
 1531TIP3    H226085   4.736   0.344  16.265
 1532TIP3   OH226086   4.761   3.988   4.363
 1532TIP3    H126087   4.745   3.920   4.298
 1532TIP3    H226088   4.688   3.980   4.424
 1533TIP3   OH226089   5.751   1.585   5.242
 1533TIP3    H126090   5.725   1.559   5.330
 1533TIP3    H226091   5.839   1.621   5.252
 1534TIP3   OH226092   1.015   1.770   2.069
 1534TIP3    H126093   1.096   1.732   2.035
 1534TIP3    H226094   1.041   1.856   2.103
 1535TIP3   OH226095   0.375   2.474  13.889
 1535TIP3    H126096   0.322   2.492  13.811
 1535TIP3    H226097   0.320   2.418  13.943
 1536TIP3   OH226098   2.472   3.309  17.062
 1536TIP3    H126099   2.472   3.330  16.969
 1536TIP3    H226100   2.420   3.229  17.068
 1537TIP3   OH226101   6.573   2.883   5.765
 1537TIP3    H126102   6.531   2.968   5.750
 1537TIP3    H226103   6.520   2.821   5.716
 1538TIP3   OH226104   0.642   2.857  11.825
 1538TIP3    H126105   0.593   2.873  11.906
 1538TIP3    H226106   0.682   2.941  11.804
 1539TIP3   OH226107   2.396   5.900   5.380
 1539TIP3    H126108   2.469   5.875   5.437
 1539TIP3    H226109   2.321   5.853   5.416
 1540TIP3   OH226110   3.490   3.977  13.147
 1540TIP3    H126111   3.505   4.072  13.147
 1540TIP3    H226112   3.420   3.964  13.083
 1541TIP3   OH226113   5.705   1.154  13.342
 1541TIP3    H126114   5.767   1.225  13.325
 1541TIP3    H226115   5.650   1.187  13.413
 1542TIP3   OH226116   5.866   5.583   5.084
 1542TIP3    H126117   5.784   5.535   5.095
 1542TIP3    H226118   5.840   5.665   5.042
 1543TIP3   OH226119   2.345   1.588   5.950
 1543TIP3    H126120   2.362   1.542   5.868
 1543TIP3    H226121   2.347   1.681   5.927
 1544TIP3   OH226122   4.570   4.170  15.833
 1544TIP3    H126123   4.534   4.209  15.912
 1544TIP3    H226124   4.513   4.202  15.762
 1545TIP3   OH226125   2.133   1.391   3.807
 1545TIP3    H126126   2.217   1.362   3.773
 1545TIP3    H226127   2.153   1.431   3.891
 1546TIP3   OH226128   5.032   4.702  11.855
 1546TIP3    H126129   5.061   4.704  11.946
 1546TIP3    H226130   5.021   4.794  11.832
 1547TIP3   OH226131   3.644   4.604  13.606
 1547TIP3    H126132   3.650   4.616  13.701
 1547TIP3    H226133   3.572   4.661  13.579
 1548TIP3   OH226134   5.291   2.207  15.936
 1548TIP3    H126135   5.254   2.184  15.850
 1548TIP3    H226136   5.271   2.132  15.991
 1549TIP3   OH226137   1.686   3.682  16.359
 1549TIP3    H126138   1.617   3.666  16.424
 1549TIP3    H226139   1.753   3.731  16.406
 1550TIP3   OH226140   0.013   3.338  14.311
 1550TIP3    H126141   0.054   3.402  14.252
 1550TIP3    H226142   0.086   3.283  14.340
 1551TIP3   OH226143   0.723   5.230  15.030
 1551TIP3    H126144   0.720   5.143  14.990
 1551TIP3    H226145   0.786   5.278  14.976
 1552TIP3   OH226146   1.447   2.723   2.764
 1552TIP3    H126147   1.408   2.799   2.720
 1552TIP3    H226148   1.372   2.669   2.787
 1553TIP3   OH226149   6.568   4.603   5.426
 1553TIP3    H126150   6.544   4.692   5.450
 1553TIP3    H226151   6.509   4.547   5.476
 1554TIP3   OH226152   6.812   6.151   0.158
 1554TIP3    H126153   6.897   6.164   0.118
 1554TIP3    H226154   6.826   6.168   0.251
 1555TIP3   OH226155   3.091   5.470  16.836
 1555TIP3    H126156   3.148   5.481  16.912
 1555TIP3    H226157   3.151   5.466  16.762
 1556TIP3   OH226158   2.018   0.796   0.795
 1556TIP3    H126159   2.025   0.787   0.891
 1556TIP3    H226160   2.080   0.865   0.773
 1557TIP3   OH226161   4.448   4.795   4.326
 1557TIP3    H126162   4.396   4.804   4.246
 1557TIP3    H226163   4.449   4.883   4.363
 1558TIP3   OH226164   6.621   5.332   5.218
 1558TIP3    H126165   6.567   5.398   5.175
 1558TIP3    H226166   6.558   5.265   5.247
 1559TIP3   OH226167   5.645   2.780  11.671
 1559TIP3    H126168   5.668   2.847  11.735
 1559TIP3    H226169   5.658   2.823  11.586
 1560TIP3   OH226170   0.735   4.895   3.219
 1560TIP3    H126171   0.748   4.905   3.125
 1560TIP3    H226172   0.789   4.819   3.243
 1561TIP3   OH226173   3.141   5.757   5.688
 1561TIP3    H126174   3.164   5.791   5.774
 1561TIP3    H226175   3.048   5.777   5.679
 1562TIP3   OH226176   5.459   2.152  14.116
 1562TIP3    H126177   5.457   2.056  14.111
 1562TIP3    H226178   5.387   2.180  14.060
 1563TIP3   OH226179   4.989   6.445   0.317
 1563TIP3    H126180   5.015   6.371   0.371
 1563TIP3    H226181   4.937   6.407   0.247
 1564TIP3   OH226182   3.899   0.868   3.921
 1564TIP3    H126183   3.862   0.875   4.009
 1564TIP3    H226184   3.828   0.894   3.862
 1565TIP3   OH226185   0.537   5.070   3.190
 1565TIP3    H126186   0.592   5.005   3.235
 1565TIP3    H226187   0.599   5.135   3.157
 1566TIP3   OH226188   4.262   0.851   5.561
 1566TIP3    H126189   4.351   0.882   5.574
 1566TIP3    H226190   4.212   0.888   5.634
 1567TIP3   OH226191   4.252   4.825  16.816
 1567TIP3    H126192   4.169   4.795  16.853
 1567TIP3    H226193   4.247   4.801  16.724
 1568TIP3   OH226194   6.698   0.636   6.094
 1568TIP3    H126195   6.651   0.574   6.039
 1568TIP3    H226196   6.729   0.584   6.168
 1569TIP3   OH226197   0.470   6.570  10.973
 1569TIP3    H126198   0.405   6.542  10.908
 1569TIP3    H226199   0.422   6.632  11.029
 1570TIP3   OH226200   3.239   2.708   3.166
 1570TIP3    H126201   3.281   2.624   3.147
 1570TIP3    H226202   3.146   2.691   3.159
 1571TIP3   OH226203   0.572   6.413   3.514
 1571TIP3    H126204   0.541   6.350   3.449
 1571TIP3    H226205   0.641   6.462   3.470
 1572TIP3   OH226206   6.526   4.165   2.834
 1572TIP3    H126207   6.536   4.255   2.803
 1572TIP3    H226208   6.461   4.127   2.776
 1573TIP3   OH226209   4.746   2.048   0.851
 1573TIP3    H126210   4.684   1.983   0.819
 1573TIP3    H226211   4.725   2.058   0.944
 1574TIP3   OH226212   5.209   3.993  13.015
 1574TIP3    H126213   5.287   3.983  12.961
 1574TIP3    H226214   5.179   4.083  12.997
 1575TIP3   OH226215   0.353   5.862  14.166
 1575TIP3    H126216   0.369   5.934  14.227
 1575TIP3    H226217   0.277   5.817  14.201
 1576TIP3   OH226218   1.607   3.905  13.971
 1576TIP3    H126219   1.512   3.914  13.960
 1576TIP3    H226220   1.629   3.971  14.037
 1577TIP3   OH226221   4.927   5.894  11.591
 1577TIP3    H126222   4.940   5.799  11.583
 1577TIP3    H226223   4.917   5.908  11.685
 1578TIP3   OH226224   5.537   3.738   5.575
 1578TIP3    H126225   5.477   3.716   5.646
 1578TIP3    H226226   5.609   3.676   5.585
 1579TIP3   OH226227   0.838   1.195   1.073
 1579TIP3    H126228   0.922   1.199   1.028
 1579TIP3    H226229   0.773   1.209   1.004
 1580TIP3   OH226230   2.301   2.789   2.748
 1580TIP3    H126231   2.380   2.828   2.710
 1580TIP3    H226232   2.309   2.696   2.730
 1581TIP3   OH226233   0.462   0.455  11.646
 1581TIP3    H126234   0.388   0.395  11.650
 1581TIP3    H226235   0.529   0.407  11.596
 1582TIP3   OH226236   4.152   1.431  13.495
 1582TIP3    H126237   4.227   1.400  13.546
 1582TIP3    H226238   4.188   1.445  13.407
 1583TIP3   OH226239   0.108   2.024  11.856
 1583TIP3    H126240   0.020   2.045  11.824
 1583TIP3    H226241   0.159   2.104  11.838
 1584TIP3   OH226242   3.334   4.284  12.163
 1584TIP3    H126243   3.246   4.295  12.197
 1584TIP3    H226244   3.351   4.364  12.113
 1585TIP3   OH226245   1.353   1.785  12.752
 1585TIP3    H126246   1.408   1.756  12.825
 1585TIP3    H226247   1.356   1.881  12.758
 1586TIP3   OH226248   6.295   5.624   0.994
 1586TIP3    H126249   6.299   5.716   1.022
 1586TIP3    H226250   6.224   5.621   0.930
 1587TIP3   OH226251   3.240   4.702  16.988
 1587TIP3    H126252   3.185   4.641  16.939
 1587TIP3    H226253   3.324   4.658  16.996
 1588TIP3   OH226254   6.380   2.975  12.356
 1588TIP3    H126255   6.388   2.951  12.448
 1588TIP3    H226256   6.286   2.975  12.339
 1589TIP3   OH226257   1.704   4.210   4.975
 1589TIP3    H126258   1.693   4.116   4.961
 1589TIP3    H226259   1.752   4.217   5.057
 1590TIP3   OH226260   1.965   4.971  15.203
 1590TIP3    H126261   1.934   5.004  15.287
 1590TIP3    H226262   1.938   5.039  15.140
 1591TIP3   OH226263   5.537   4.138   2.863
 1591TIP3    H126264   5.456   4.154   2.814
 1591TIP3    H226265   5.573   4.225   2.878
 1592TIP3   OH226266   3.246   3.677   5.455
 1592TIP3    H126267   3.180   3.613   5.429
 1592TIP3    H226268   3.226   3.696   5.547
 1593TIP3   OH226269   1.379   4.890   3.651
 1593TIP3    H126270   1.456   4.889   3.708
 1593TIP3    H226271   1.321   4.955   3.691
 1594TIP3   OH226272   4.863   0.818   1.345
 1594TIP3    H126273   4.866   0.914   1.345
 1594TIP3    H226274   4.953   0.791   1.323
 1595TIP3   OH226275   3.059   3.423   1.197
 1595TIP3    H126276   3.147   3.451   1.221
 1595TIP3    H226277   3.069   3.331   1.172
 1596TIP3   OH226278   0.495   4.000   4.035
 1596TIP3    H126279   0.403   3.989   4.059
 1596TIP3    H226280   0.492   4.032   3.944
 1597TIP3   OH226281   5.057   5.253   3.449
 1597TIP3    H126282   5.099   5.170   3.469
 1597TIP3    H226283   5.120   5.320   3.476
 1598TIP3   OH226284   4.684   6.014   0.219
 1598TIP3    H126285   4.779   6.022   0.211
 1598TIP3    H226286   4.652   6.008   0.129
 1599TIP3   OH226287   6.580   6.029  15.419
 1599TIP3    H126288   6.628   5.947  15.434
 1599TIP3    H226289   6.610   6.088  15.488
 1600TIP3   OH226290   0.954   5.558   2.074
 1600TIP3    H126291   0.999   5.642   2.076
 1600TIP3    H226292   1.019   5.495   2.103
 1601TIP3   OH226293   3.860   1.533   0.400
 1601TIP3    H126294   3.892   1.461   0.455
 1601TIP3    H226295   3.913   1.609   0.428
 1602TIP3   OH226296   3.896   3.129  15.424
 1602TIP3    H126297   3.920   3.177  15.503
 1602TIP3    H226298   3.979   3.109  15.381
 1603TIP3   OH226299   1.585   4.506  10.602
 1603TIP3    H126300   1.528   4.443  10.645
 1603TIP3    H226301   1.646   4.452  10.551
 1604TIP3   OH226302   4.798   6.607   3.555
 1604TIP3    H126303   4.741   6.569   3.622
 1604TIP3    H226304   4.881   6.621   3.600
 1605TIP3   OH226305   6.641   6.717   2.163
 1605TIP3    H126306   6.675   6.803   2.135
 1605TIP3    H226307   6.548   6.732   2.178
 1606TIP3   OH226308   4.161   2.944  15.586
 1606TIP3    H126309   4.222   2.979  15.520
 1606TIP3    H226310   4.097   3.014  15.598
 1607TIP3   OH226311   4.595   6.194  13.425
 1607TIP3    H126312   4.568   6.281  13.455
 1607TIP3    H226313   4.685   6.185  13.456
 1608TIP3   OH226314   6.744   2.859  11.018
 1608TIP3    H126315   6.750   2.924  11.088
 1608TIP3    H226316   6.824   2.807  11.025
 1609TIP3   OH226317   1.355   3.479  13.870
 1609TIP3    H126318   1.331   3.560  13.915
 1609TIP3    H226319   1.450   3.484  13.862
 1610TIP3   OH226320   6.239   0.859   0.297
 1610TIP3    H126321   6.241   0.897   0.384
 1610TIP3    H226322   6.154   0.884   0.262
 1611TIP3   OH226323   0.644   4.655  16.251
 1611TIP3    H126324   0.581   4.713  16.209
 1611TIP3    H226325   0.728   4.679  16.211
 1612TIP3   OH226326   2.689   0.257   1.693
 1612TIP3    H126327   2.693   0.344   1.654
 1612TIP3    H226328   2.635   0.207   1.632
 1613TIP3   OH226329   6.616   6.119   4.417
 1613TIP3    H126330   6.565   6.066   4.356
 1613TIP3    H226331   6.597   6.080   4.503
 1614TIP3   OH226332   3.357   3.569  10.496
 1614TIP3    H126333   3.366   3.642  10.435
 1614TIP3    H226334   3.271   3.531  10.476
 1615TIP3   OH226335   2.265   5.748   2.526
 1615TIP3    H126336   2.327   5.816   2.552
 1615TIP3    H226337   2.215   5.786   2.454
 1616TIP3   OH226338   5.291   0.368  12.837
 1616TIP3    H126339   5.317   0.329  12.921
 1616TIP3    H226340   5.201   0.337  12.824
 1617TIP3   OH226341   5.920   5.836   1.826
 1617TIP3    H126342   5.883   5.808   1.909
 1617TIP3    H226343   5.994   5.892   1.849
 1618TIP3   OH226344   5.152   4.402   0.132
 1618TIP3    H126345   5.087   4.429   0.197
 1618TIP3    H226346   5.135   4.458   0.056
 1619TIP3   OH226347   0.540   2.730  13.319
 1619TIP3    H126348   0.553   2.774  13.404
 1619TIP3    H226349   0.624   2.690  13.299
 1620TIP3   OH226350   4.062   4.693  11.312
 1620TIP3    H126351   4.043   4.766  11.371
 1620TIP3    H226352   4.156   4.700  11.295
 1621TIP3   OH226353   0.583   5.752   0.084
 1621TIP3    H126354   0.560   5.678   0.029
 1621TIP3    H226355   0.649   5.800   0.035
 1622TIP3   OH226356   4.343   6.058   3.221
 1622TIP3    H126357   4.402   5.989   3.194
 1622TIP3    H226358   4.262   6.042   3.172
 1623TIP3   OH226359   2.724   0.662  15.854
 1623TIP3    H126360   2.709   0.650  15.760
 1623TIP3    H226361   2.636   0.662  15.892
 1624TIP3   OH226362   5.241   6.220   3.690
 1624TIP3    H126363   5.160   6.258   3.723
 1624TIP3    H226364   5.243   6.246   3.597
 1625TIP3   OH226365   3.603   3.581   4.691
 1625TIP3    H126366   3.691   3.616   4.680
 1625TIP3    H226367   3.590   3.523   4.617
 1626TIP3   OH226368   3.157   6.214  15.188
 1626TIP3    H126369   3.245   6.213  15.151
 1626TIP3    H226370   3.156   6.143  15.252
 1627TIP3   OH226371   3.031   4.191  11.032
 1627TIP3    H126372   3.033   4.124  10.964
 1627TIP3    H226373   3.076   4.151  11.106
 1628TIP3   OH226374   3.432   1.156   0.409
 1628TIP3    H126375   3.379   1.183   0.334
 1628TIP3    H226376   3.494   1.228   0.422
 1629TIP3   OH226377   0.152   5.718  12.228
 1629TIP3    H126378   0.118   5.629  12.222
 1629TIP3    H226379   0.121   5.751  12.312
 1630TIP3   OH226380   4.460   6.000   4.012
 1630TIP3    H126381   4.458   6.022   3.919
 1630TIP3    H226382   4.427   5.910   4.017
 1631TIP3   OH226383   3.068   5.091   4.193
 1631TIP3    H126384   3.070   5.158   4.262
 1631TIP3    H226385   2.991   5.039   4.212
 1632TIP3   OH226386   0.484   6.774   3.804
 1632TIP3    H126387   0.400   6.813   3.781
 1632TIP3    H226388   0.538   6.787   3.726
 1633TIP3   OH226389   6.495   0.416  13.683
 1633TIP3    H126390   6.544   0.427  13.765
 1633TIP3    H226391   6.523   0.489  13.628
 1634TIP3   OH226392   0.972   0.881   4.007
 1634TIP3    H126393   0.880   0.872   4.034
 1634TIP3    H226394   0.967   0.903   3.914
 1635TIP3   OH226395   5.905   2.915   4.949
 1635TIP3    H126396   5.857   2.907   5.032
 1635TIP3    H226397   5.914   2.826   4.918
 1636TIP3   OH226398   4.597   1.206   2.028
 1636TIP3    H126399   4.587   1.302   2.028
 1636TIP3    H226400   4.578   1.180   2.118
 1637TIP3   OH226401   5.718   3.307   3.993
 1637TIP3    H126402   5.661   3.231   3.994
 1637TIP3    H226403   5.698   3.353   4.075
 1638TIP3   OH226404   3.617   2.767   0.561
 1638TIP3    H126405   3.686   2.702   0.567
 1638TIP3    H226406   3.536   2.716   0.558
 1639TIP3   OH226407   2.538   1.469   3.728
 1639TIP3    H126408   2.604   1.537   3.738
 1639TIP3    H226409   2.460   1.505   3.771
 1640TIP3   OH226410   2.528   3.120   3.594
 1640TIP3    H126411   2.450   3.091   3.546
 1640TIP3    H226412   2.578   3.170   3.530
 1641TIP3   OH226413   3.512   4.867  15.849
 1641TIP3    H126414   3.603   4.864  15.878
 1641TIP3    H226415   3.474   4.785  15.880
 1642TIP3   OH226416   5.479   6.018  12.933
 1642TIP3    H126417   5.438   5.993  12.850
 1642TIP3    H226418   5.468   6.113  12.938
 1643TIP3   OH226419   3.499   2.583  10.305
 1643TIP3    H126420   3.448   2.650  10.349
 1643TIP3    H226421   3.571   2.630  10.263
 1644TIP3   OH226422   6.454   0.447   6.274
 1644TIP3    H126423   6.424   0.496   6.351
 1644TIP3    H226424   6.549   0.455   6.276
 1645TIP3   OH226425   0.555   4.746   0.801
 1645TIP3    H126426   0.635   4.793   0.826
 1645TIP3    H226427   0.586   4.668   0.756
 1646TIP3   OH226428   1.802   0.135  10.848
 1646TIP3    H126429   1.714   0.103  10.826
 1646TIP3    H226430   1.790   0.229  10.862
 1647TIP3   OH226431   5.295   6.203  12.383
 1647TIP3    H126432   5.212   6.230  12.342
 1647TIP3    H226433   5.306   6.262  12.457
 1648TIP3   OH226434   2.992   2.340   3.533
 1648TIP3    H126435   2.913   2.380   3.568
 1648TIP3    H226436   3.040   2.311   3.610
 1649TIP3   OH226437   1.761   0.897   0.727
 1649TIP3    H126438   1.728   0.810   0.702
 1649TIP3    H226439   1.854   0.883   0.744
 1650TIP3   OH226440   6.392   3.022   2.812
 1650TIP3    H126441   6.468   3.047   2.864
 1650TIP3    H226442   6.329   3.094   2.826
 1651TIP3   OH226443   5.741   3.213   5.840
 1651TIP3    H126444   5.730   3.208   5.935
 1651TIP3    H226445   5.742   3.307   5.822
 1652TIP3   OH226446   1.594   1.902  13.563
 1652TIP3    H126447   1.661   1.846  13.523
 1652TIP3    H226448   1.640   1.982  13.586
 1653TIP3   OH226449   0.977   6.707   0.790
 1653TIP3    H126450   1.065   6.704   0.828
 1653TIP3    H226451   0.992   6.719   0.697
 1654TIP3   OH226452   1.438   6.132   3.429
 1654TIP3    H126453   1.482   6.209   3.463
 1654TIP3    H226454   1.479   6.059   3.475
 1655TIP3   OH226455   1.257   6.080  11.712
 1655TIP3    H126456   1.165   6.058  11.702
 1655TIP3    H226457   1.300   6.041  11.637
 1656TIP3   OH226458   5.647   1.689  14.173
 1656TIP3    H126459   5.683   1.756  14.115
 1656TIP3    H226460   5.718   1.668  14.233
 1657TIP3   OH226461   6.477   1.407   4.276
 1657TIP3    H126462   6.450   1.494   4.308
 1657TIP3    H226463   6.482   1.353   4.355
 1658TIP3   OH226464   3.232   1.146  12.954
 1658TIP3    H126465   3.254   1.155  13.046
 1658TIP3    H226466   3.142   1.178  12.947
 1659TIP3   OH226467   6.453   6.698   3.366
 1659TIP3    H126468   6.429   6.607   3.344
 1659TIP3    H226469   6.369   6.741   3.382
 1660TIP3   OH226470   4.791   0.827  15.948
 1660TIP3    H126471   4.740   0.821  16.028
 1660TIP3    H226472   4.749   0.766  15.887
 1661TIP3   OH226473   6.619   0.207  12.011
 1661TIP3    H126474   6.581   0.262  12.080
 1661TIP3    H226475   6.681   0.264  11.966
 1662TIP3   OH226476   3.463   4.445  13.890
 1662TIP3    H126477   3.548   4.405  13.909
 1662TIP3    H226478   3.399   4.376  13.908
 1663TIP3   OH226479   2.854   2.185   0.823
 1663TIP3    H126480   2.808   2.101   0.829
 1663TIP3    H226481   2.862   2.202   0.729
 1664TIP3   OH226482   5.192   1.171  17.225
 1664TIP3    H126483   5.161   1.213  17.145
 1664TIP3    H226484   5.235   1.091  17.194
 1665TIP3   OH226485   0.009   1.831   3.150
 1665TIP3    H126486   0.058   1.750   3.141
 1665TIP3    H226487   0.068   1.889   3.199
 1666TIP3   OH226488   4.013   1.559   2.901
 1666TIP3    H126489   4.036   1.535   2.990
 1666TIP3    H226490   4.001   1.475   2.856
 1667TIP3   OH226491   5.665   2.753  13.467
 1667TIP3    H126492   5.722   2.720  13.397
 1667TIP3    H226493   5.702   2.718  13.547
 1668TIP3   OH226494   2.641   3.902   2.834
 1668TIP3    H126495   2.574   3.969   2.819
 1668TIP3    H226496   2.642   3.850   2.753
 1669TIP3   OH226497   0.098   2.137  14.867
 1669TIP3    H126498   0.113   2.051  14.907
 1669TIP3    H226499   0.110   2.199  14.939
 1670TIP3   OH226500   2.531   2.530  15.373
 1670TIP3    H126501   2.581   2.604  15.338
 1670TIP3    H226502   2.581   2.453  15.347
 1671TIP3   OH226503   6.331   3.047  13.932
 1671TIP3    H126504   6.362   3.137  13.923
 1671TIP3    H226505   6.400   3.002  13.981
 1672TIP3   OH226506   4.390   3.017  12.759
 1672TIP3    H126507   4.458   3.059  12.706
 1672TIP3    H226508   4.343   2.960  12.699
 1673TIP3   OH226509   1.606   6.799  13.954
 1673TIP3    H126510   1.696   6.770  13.968
 1673TIP3    H226511   1.588   6.860  14.025
 1674TIP3   OH226512   5.454   3.953  12.868
 1674TIP3    H126513   5.417   3.891  12.804
 1674TIP3    H226514   5.545   3.926  12.878
 1675TIP3   OH226515   0.280   2.049   3.141
 1675TIP3    H126516   0.192   2.079   3.119
 1675TIP3    H226517   0.328   2.128   3.164
 1676TIP3   OH226518   6.287   6.202  12.976
 1676TIP3    H126519   6.200   6.168  12.955
 1676TIP3    H226520   6.340   6.183  12.898
 1677TIP3   OH226521   2.832   4.108   2.649
 1677TIP3    H126522   2.785   4.188   2.627
 1677TIP3    H226523   2.807   4.089   2.739
 1678TIP3   OH226524   0.414   2.989   1.365
 1678TIP3    H126525   0.394   3.035   1.283
 1678TIP3    H226526   0.336   2.937   1.383
 1679TIP3   OH226527   0.261   2.163   4.156
 1679TIP3    H126528   0.307   2.134   4.077
 1679TIP3    H226529   0.184   2.210   4.122
 1680TIP3   OH226530   2.663   3.043   5.409
 1680TIP3    H126531   2.672   2.970   5.469
 1680TIP3    H226532   2.570   3.049   5.391
 1681TIP3   OH226533   2.330   4.774   1.917
 1681TIP3    H126534   2.309   4.809   1.830
 1681TIP3    H226535   2.252   4.792   1.969
 1682TIP3   OH226536   6.267   5.616  14.970
 1682TIP3    H126537   6.207   5.662  14.911
 1682TIP3    H226538   6.333   5.579  14.912
 1683TIP3   OH226539   1.077   3.063  15.285
 1683TIP3    H126540   1.153   3.056  15.227
 1683TIP3    H226541   1.032   2.979  15.277
 1684TIP3   OH226542   0.993   2.510  10.956
 1684TIP3    H126543   0.971   2.538  11.045
 1684TIP3    H226544   0.909   2.504  10.912
 1685TIP3   OH226545   6.117   5.283   2.026
 1685TIP3    H126546   6.126   5.359   1.969
 1685TIP3    H226547   6.195   5.231   2.009
 1686TIP3   OH226548   4.059   6.050  17.141
 1686TIP3    H126549   4.087   6.081  17.055
 1686TIP3    H226550   4.013   6.124  17.180
 1687TIP3   OH226551   2.055   4.599  11.411
 1687TIP3    H126552   2.087   4.508  11.410
 1687TIP3    H226553   2.068   4.629  11.321
 1688TIP3   OH226554   3.708   0.167   3.106
 1688TIP3    H126555   3.634   0.227   3.104
 1688TIP3    H226556   3.668   0.080   3.099
 1689TIP3   OH226557   5.084   1.836  16.767
 1689TIP3    H126558   5.124   1.754  16.797
 1689TIP3    H226559   5.155   1.900  16.771
 1690TIP3   OH226560   2.453   2.110   1.224
 1690TIP3    H126561   2.376   2.116   1.280
 1690TIP3    H226562   2.480   2.201   1.210
 1691TIP3   OH226563   3.511   0.482  13.587
 1691TIP3    H126564   3.450   0.413  13.561
 1691TIP3    H226565   3.514   0.540  13.510
 1692TIP3   OH226566   5.699   3.984  16.293
 1692TIP3    H126567   5.633   4.001  16.360
 1692TIP3    H226568   5.765   4.052  16.306
 1693TIP3   OH226569   0.553   5.554  16.252
 1693TIP3    H126570   0.483   5.499  16.288
 1693TIP3    H226571   0.572   5.618  16.321
 1694TIP3   OH226572   0.221   5.955   0.516
 1694TIP3    H126573   0.236   5.907   0.597
 1694TIP3    H226574   0.239   5.891   0.447
 1695TIP3   OH226575   2.489   5.740   2.238
 1695TIP3    H126576   2.498   5.655   2.282
 1695TIP3    H226577   2.480   5.718   2.145
 1696TIP3   OH226578   0.275   6.200   5.536
 1696TIP3    H126579   0.199   6.196   5.595
 1696TIP3    H226580   0.349   6.221   5.593
 1697TIP3   OH226581   5.805   4.315   4.000
 1697TIP3    H126582   5.872   4.259   4.038
 1697TIP3    H226583   5.852   4.373   3.941
 1698TIP3   OH226584   0.700   0.049  17.203
 1698TIP3    H126585   0.670   0.012  17.286
 1698TIP3    H226586   0.716   0.142  17.222
 1699TIP3   OH226587   2.555   1.629  13.346
 1699TIP3    H126588   2.557   1.588  13.260
 1699TIP3    H226589   2.475   1.683  13.345
 1700TIP3   OH226590   5.601   4.203   0.515
 1700TIP3    H126591   5.628   4.237   0.601
 1700TIP3    H226592   5.564   4.117   0.534
 1701TIP3   OH226593   2.373   0.302   0.973
 1701TIP3    H126594   2.426   0.345   1.040
 1701TIP3    H226595   2.383   0.356   0.895
 1702TIP3   OH226596   4.180   5.612  17.040
 1702TIP3    H126597   4.130   5.682  17.081
 1702TIP3    H226598   4.264   5.652  17.017
 1703TIP3   OH226599   6.444   4.062   5.545
 1703TIP3    H126600   6.473   3.973   5.567
 1703TIP3    H226601   6.469   4.074   5.454
 1704TIP3   OH226602   5.775   3.754   2.090
 1704TIP3    H126603   5.778   3.816   2.018
 1704TIP3    H226604   5.703   3.695   2.069
 1705TIP3   OH226605   5.579   5.771   5.524
 1705TIP3    H126606   5.637   5.785   5.599
 1705TIP3    H226607   5.498   5.817   5.547
 1706TIP3   OH226608   2.476   0.922  13.338
 1706TIP3    H126609   2.499   0.971  13.417
 1706TIP3    H226610   2.384   0.944  13.322
 1707TIP3   OH226611   4.533   6.228  13.893
 1707TIP3    H126612   4.566   6.288  13.825
 1707TIP3    H226613   4.571   6.261  13.974
 1708TIP3   OH226614   4.234   3.942  13.867
 1708TIP3    H126615   4.230   3.989  13.783
 1708TIP3    H226616   4.143   3.932  13.893
 1709TIP3   OH226617   1.621   3.469   0.549
 1709TIP3    H126618   1.664   3.426   0.623
 1709TIP3    H226619   1.615   3.561   0.576
 1710TIP3   OH226620   0.144   4.144  12.003
 1710TIP3    H126621   0.220   4.118  12.056
 1710TIP3    H226622   0.082   4.073  12.014
 1711TIP3   OH226623   0.615   5.884   5.053
 1711TIP3    H126624   0.579   5.808   5.007
 1711TIP3    H226625   0.656   5.937   4.985
 1712TIP3   OH226626   2.122   5.886  12.205
 1712TIP3    H126627   2.208   5.844  12.201
 1712TIP3    H226628   2.091   5.869  12.294
 1713TIP3   OH226629   2.044   0.713  12.517
 1713TIP3    H126630   2.038   0.764  12.436
 1713TIP3    H226631   2.131   0.733  12.552
 1714TIP3   OH226632   3.916   2.401   3.221
 1714TIP3    H126633   3.822   2.384   3.213
 1714TIP3    H226634   3.958   2.326   3.181
 1715TIP3   OH226635   3.332   6.569   4.175
 1715TIP3    H126636   3.343   6.593   4.267
 1715TIP3    H226637   3.420   6.549   4.145
 1716TIP3   OH226638   2.939   1.450   0.577
 1716TIP3    H126639   2.981   1.496   0.505
 1716TIP3    H226640   2.978   1.362   0.576
 1717TIP3   OH226641   1.382   1.035  13.757
 1717TIP3    H126642   1.367   1.039  13.851
 1717TIP3    H226643   1.337   0.956  13.729
 1718TIP3   OH226644   0.091   2.352  15.070
 1718TIP3    H126645   0.051   2.339  15.156
 1718TIP3    H226646   0.151   2.425  15.082
 1719TIP3   OH226647   6.590   4.681   4.122
 1719TIP3    H126648   6.520   4.669   4.057
 1719TIP3    H226649   6.586   4.602   4.176
 1720TIP3   OH226650   5.647   3.633   0.603
 1720TIP3    H126651   5.740   3.633   0.624
 1720TIP3    H226652   5.607   3.581   0.673
 1721TIP3   OH226653   2.912   4.376  15.962
 1721TIP3    H126654   2.917   4.453  16.020
 1721TIP3    H226655   2.881   4.305  16.019
 1722TIP3   OH226656   6.201   1.181  17.194
 1722TIP3    H126657   6.262   1.255  17.195
 1722TIP3    H226658   6.119   1.218  17.228
 1723TIP3   OH226659   4.538   2.046   4.724
 1723TIP3    H126660   4.591   2.106   4.777
 1723TIP3    H226661   4.517   1.974   4.783
 1724TIP3   OH226662   1.006   0.330   2.431
 1724TIP3    H126663   0.988   0.379   2.512
 1724TIP3    H226664   0.925   0.283   2.413
 1725TIP3   OH226665   6.318   2.692  12.544
 1725TIP3    H126666   6.253   2.626  12.566
 1725TIP3    H226667   6.333   2.680  12.450
 1726TIP3   OH226668   4.988   5.917  15.605
 1726TIP3    H126669   5.020   6.007  15.605
 1726TIP3    H226670   4.893   5.926  15.615
 1727TIP3   OH226671   1.250   0.601  13.252
 1727TIP3    H126672   1.202   0.554  13.184
 1727TIP3    H226673   1.186   0.611  13.323
 1728TIP3   OH226674   6.349   0.611  15.887
 1728TIP3    H126675   6.412   0.682  15.874
 1728TIP3    H226676   6.264   0.653  15.879
 1729TIP3   OH226677   6.037   0.919  15.681
 1729TIP3    H126678   5.965   0.864  15.713
 1729TIP3    H226679   6.086   0.861  15.622
 1730TIP3   OH226680   1.107   5.106   2.855
 1730TIP3    H126681   1.052   5.153   2.792
 1730TIP3    H226682   1.084   5.144   2.940
 1731TIP3   OH226683   0.381   1.423   3.311
 1731TIP3    H126684   0.393   1.468   3.394
 1731TIP3    H226685   0.461   1.373   3.299
 1732TIP3   OH226686   6.127   0.733  16.213
 1732TIP3    H126687   6.158   0.643  16.222
 1732TIP3    H226688   6.136   0.751  16.119
 1733TIP3   OH226689   6.505   5.303  12.621
 1733TIP3    H126690   6.447   5.229  12.638
 1733TIP3    H226691   6.446   5.374  12.595
 1734TIP3   OH226692   1.856   5.162   4.467
 1734TIP3    H126693   1.839   5.250   4.431
 1734TIP3    H226694   1.878   5.178   4.559
 1735TIP3   OH226695   1.403   3.186  15.794
 1735TIP3    H126696   1.426   3.132  15.719
 1735TIP3    H226697   1.344   3.131  15.846
 1736TIP3   OH226698   5.518   6.230   0.203
 1736TIP3    H126699   5.520   6.135   0.190
 1736TIP3    H226700   5.610   6.256   0.202
 1737TIP3   OH226701   3.130   6.331  13.429
 1737TIP3    H126702   3.077   6.300  13.355
 1737TIP3    H226703   3.208   6.370  13.388
 1738TIP3   OH226704   2.235   3.885   1.871
 1738TIP3    H126705   2.290   3.826   1.922
 1738TIP3    H226706   2.148   3.844   1.873
 1739TIP3   OH226707   0.017   0.781   1.069
 1739TIP3    H126708   0.013   0.758   1.162
 1739TIP3    H226709  -0.057   0.734   1.030
 1740TIP3   OH226710   6.493   5.592  13.986
 1740TIP3    H126711   6.449   5.554  14.062
 1740TIP3    H226712   6.502   5.685  14.007
 1741TIP3   OH226713   4.504   5.770   3.416
 1741TIP3    H126714   4.446   5.781   3.340
 1741TIP3    H226715   4.477   5.686   3.454
 1742TIP3   OH226716   1.742   2.192   6.476
 1742TIP3    H126717   1.651   2.165   6.490
 1742TIP3    H226718   1.788   2.165   6.555
 1743TIP3   OH226719   1.871   1.515   5.656
 1743TIP3    H126720   1.874   1.450   5.586
 1743TIP3    H226721   1.825   1.589   5.618
 1744TIP3   OH226722   6.022   5.573   4.648
 1744TIP3    H126723   6.046   5.553   4.557
 1744TIP3    H226724   6.103   5.604   4.688
 1745TIP3   OH226725   1.757   3.473   1.581
 1745TIP3    H126726   1.673   3.466   1.536
 1745TIP3    H226727   1.748   3.413   1.656
 1746TIP3   OH226728   5.251   0.443   3.959
 1746TIP3    H126729   5.257   0.495   3.878
 1746TIP3    H226730   5.339   0.408   3.971
 1747TIP3   OH226731   4.644   3.096   1.030
 1747TIP3    H126732   4.715   3.148   1.069
 1747TIP3    H226733   4.688   3.041   0.965
 1748TIP3   OH226734   0.270   0.045   2.050
 1748TIP3    H126735   0.293   0.127   2.094
 1748TIP3    H226736   0.319   0.047   1.968
 1749TIP3   OH226737   0.894   4.080   2.936
 1749TIP3    H126738   0.852   3.997   2.958
 1749TIP3    H226739   0.836   4.147   2.972
 1750TIP3   OH226740   6.723   2.251   4.089
 1750TIP3    H126741   6.734   2.343   4.065
 1750TIP3    H226742   6.768   2.203   4.019
 1751TIP3   OH226743   6.300   4.407  11.133
 1751TIP3    H126744   6.370   4.463  11.100
 1751TIP3    H226745   6.331   4.318  11.116
 1752TIP3   OH226746   0.516   4.285   4.197
 1752TIP3    H126747   0.480   4.292   4.108
 1752TIP3    H226748   0.568   4.204   4.195
 1753TIP3   OH226749   3.539   1.492  11.928
 1753TIP3    H126750   3.455   1.446  11.921
 1753TIP3    H226751   3.585   1.469  11.847
 1754TIP3   OH226752   3.352   0.101   4.205
 1754TIP3    H126753   3.392   0.056   4.130
 1754TIP3    H226754   3.425   0.145   4.248
 1755TIP3   OH226755   5.750   5.309   3.086
 1755TIP3    H126756   5.741   5.259   3.005
 1755TIP3    H226757   5.802   5.385   3.061
 1756TIP3   OH226758   3.602   1.183  16.293
 1756TIP3    H126759   3.626   1.231  16.213
 1756TIP3    H226760   3.507   1.195  16.300
 1757TIP3   OH226761   1.503   4.632   0.827
 1757TIP3    H126762   1.570   4.693   0.858
 1757TIP3    H226763   1.506   4.559   0.889
 1758TIP3   OH226764   6.696   6.625   6.032
 1758TIP3    H126765   6.668   6.533   6.021
 1758TIP3    H226766   6.713   6.634   6.126
 1759TIP3   OH226767   2.337   5.976   3.332
 1759TIP3    H126768   2.248   6.001   3.308
 1759TIP3    H226769   2.354   5.896   3.284
 1760TIP3   OH226770   3.509   4.198  13.696
 1760TIP3    H126771   3.593   4.211  13.741
 1760TIP3    H226772   3.456   4.149  13.758
 1761TIP3   OH226773   1.688   0.030   2.589
 1761TIP3    H126774   1.742  -0.033   2.541
 1761TIP3    H226775   1.620  -0.024   2.631
 1762TIP3   OH226776   3.315   6.631  14.408
 1762TIP3    H126777   3.408   6.650  14.422
 1762TIP3    H226778   3.315   6.564  14.339
 1763TIP3   OH226779   3.953   3.728   0.222
 1763TIP3    H126780   4.009   3.676   0.164
 1763TIP3    H226781   3.955   3.816   0.184
 1764TIP3   OH226782   0.010   2.127   3.855
 1764TIP3    H126783   0.022   2.041   3.894
 1764TIP3    H226784   0.059   2.123   3.772
 1765TIP3   OH226785   0.881   0.888  13.054
 1765TIP3    H126786   0.957   0.943  13.035
 1765TIP3    H226787   0.806   0.941  13.027
 1766TIP3   OH226788   0.379   6.646  15.967
 1766TIP3    H126789   0.311   6.585  15.937
 1766TIP3    H226790   0.413   6.606  16.047
 1767TIP3   OH226791   0.487   4.072   0.076
 1767TIP3    H126792   0.562   4.123   0.045
 1767TIP3    H226793   0.526   3.990   0.107
 1768TIP3   OH226794   0.200   4.026  17.264
 1768TIP3    H126795   0.190   3.941  17.307
 1768TIP3    H226796   0.284   4.059  17.297
 1769TIP3   OH226797   2.252   4.646  16.301
 1769TIP3    H126798   2.200   4.727  16.301
 1769TIP3    H226799   2.257   4.622  16.394
 1770TIP3   OH226800   5.142   4.610  16.592
 1770TIP3    H126801   5.122   4.552  16.518
 1770TIP3    H226802   5.207   4.671  16.557
 1771TIP3   OH226803   4.820   4.220  11.841
 1771TIP3    H126804   4.781   4.157  11.782
 1771TIP3    H226805   4.904   4.242  11.800
 1772TIP3   OH226806   3.754   4.066  14.553
 1772TIP3    H126807   3.810   4.023  14.488
 1772TIP3    H226808   3.665   4.056  14.518
 1773TIP3   OH226809   4.010   3.774  14.614
 1773TIP3    H126810   3.945   3.803  14.550
 1773TIP3    H226811   3.959   3.761  14.694
 1774TIP3   OH226812   4.446   2.133  14.471
 1774TIP3    H126813   4.433   2.039  14.471
 1774TIP3    H226814   4.537   2.146  14.499
 1775TIP3   OH226815   1.682   2.420  12.183
 1775TIP3    H126816   1.611   2.401  12.122
 1775TIP3    H226817   1.761   2.415  12.129
 1776TIP3   OH226818   3.361   2.612   2.077
 1776TIP3    H126819   3.432   2.668   2.107
 1776TIP3    H226820   3.316   2.665   2.011
 1777TIP3   OH226821   5.541   2.007   0.372
 1777TIP3    H126822   5.593   2.072   0.419
 1777TIP3    H226823   5.536   1.932   0.432
 1778TIP3   OH226824   2.697   5.995   5.652
 1778TIP3    H126825   2.636   5.923   5.637
 1778TIP3    H226826   2.643   6.074   5.651
 1779TIP3   OH226827   0.686   0.084  13.543
 1779TIP3    H126828   0.714   0.137  13.468
 1779TIP3    H226829   0.604   0.124  13.572
 1780TIP3   OH226830   0.726   3.222  13.357
 1780TIP3    H126831   0.806   3.263  13.390
 1780TIP3    H226832   0.717   3.142  13.407
 1781TIP3   OH226833   0.457   4.252  16.510
 1781TIP3    H126834   0.362   4.263  16.515
 1781TIP3    H226835   0.469   4.191  16.436
 1782TIP3   OH226836   6.382   6.144  16.451
 1782TIP3    H126837   6.325   6.142  16.374
 1782TIP3    H226838   6.322   6.132  16.525
 1783TIP3   OH226839   0.633   4.205   6.753
 1783TIP3    H126840   0.637   4.112   6.775
 1783TIP3    H226841   0.575   4.243   6.819
 1784TIP3   OH226842   3.273   4.351  16.464
 1784TIP3    H126843   3.275   4.433  16.514
 1784TIP3    H226844   3.318   4.373  16.382
 1785TIP3   OH226845   1.722   3.191  11.480
 1785TIP3    H126846   1.756   3.102  11.487
 1785TIP3    H226847   1.628   3.182  11.493
 1786TIP3   OH226848   3.277   5.571  11.803
 1786TIP3    H126849   3.230   5.509  11.748
 1786TIP3    H226850   3.212   5.637  11.827
 1787TIP3   OH226851   2.426   0.345  15.015
 1787TIP3    H126852   2.419   0.441  15.017
 1787TIP3    H226853   2.403   0.321  14.926
 1788TIP3   OH226854   0.071   0.534   5.422
 1788TIP3    H126855   0.090   0.627   5.420
 1788TIP3    H226856   0.144   0.493   5.376
 1789TIP3   OH226857   6.567   0.333  10.611
 1789TIP3    H126858   6.549   0.425  10.629
 1789TIP3    H226859   6.623   0.335  10.533
 1790TIP3   OH226860   0.070   2.706  13.601
 1790TIP3    H126861   0.029   2.749  13.526
 1790TIP3    H226862   0.042   2.757  13.677
 1791TIP3   OH226863   1.022   5.398  13.375
 1791TIP3    H126864   1.081   5.397  13.300
 1791TIP3    H226865   0.936   5.420  13.339
 1792TIP3   OH226866   1.726   3.249  15.554
 1792TIP3    H126867   1.650   3.193  15.538
 1792TIP3    H226868   1.726   3.310  15.480
 1793TIP3   OH226869   5.635   1.390   5.099
 1793TIP3    H126870   5.677   1.469   5.134
 1793TIP3    H226871   5.701   1.352   5.041
 1794TIP3   OH226872   1.361   1.042  15.772
 1794TIP3    H126873   1.339   0.965  15.824
 1794TIP3    H226874   1.352   1.013  15.681
 1795TIP3   OH226875   1.000   4.041  14.426
 1795TIP3    H126876   1.040   4.119  14.388
 1795TIP3    H226877   1.021   3.970  14.364
 1796TIP3   OH226878   4.558   0.797   0.639
 1796TIP3    H126879   4.546   0.796   0.734
 1796TIP3    H226880   4.651   0.815   0.627
 1797TIP3   OH226881   0.716   3.156   2.213
 1797TIP3    H126882   0.785   3.141   2.147
 1797TIP3    H226883   0.735   3.243   2.249
 1798TIP3   OH226884   3.426   3.751   5.262
 1798TIP3    H126885   3.380   3.734   5.180
 1798TIP3    H226886   3.358   3.742   5.330
 1799TIP3   OH226887   5.571   6.678  13.061
 1799TIP3    H126888   5.662   6.692  13.087
 1799TIP3    H226889   5.578   6.628  12.979
 1800TIP3   OH226890   0.783   3.499   0.750
 1800TIP3    H126891   0.716   3.473   0.813
 1800TIP3    H226892   0.767   3.444   0.674
 1801TIP3   OH226893   1.486   5.861   6.689
 1801TIP3    H126894   1.453   5.772   6.688
 1801TIP3    H226895   1.570   5.856   6.733
 1802TIP3   OH226896   1.575   6.597  14.960
 1802TIP3    H126897   1.492   6.617  14.917
 1802TIP3    H226898   1.570   6.503  14.980
 1803TIP3   OH226899   6.520   6.614  12.309
 1803TIP3    H126900   6.460   6.540  12.312
 1803TIP3    H226901   6.607   6.576  12.318
 1804TIP3   OH226902   3.930   1.304   2.130
 1804TIP3    H126903   3.844   1.336   2.158
 1804TIP3    H226904   3.966   1.375   2.079
 1805TIP3   OH226905   3.569   3.754   2.909
 1805TIP3    H126906   3.579   3.831   2.852
 1805TIP3    H226907   3.505   3.781   2.974
 1806TIP3   OH226908   3.737   2.518   0.014
 1806TIP3    H126909   3.743   2.533  -0.081
 1806TIP3    H226910   3.826   2.494   0.040
 1807TIP3   OH226911   6.102   4.364   2.686
 1807TIP3    H126912   6.059   4.299   2.741
 1807TIP3    H226913   6.035   4.432   2.672
 1808TIP3   OH226914   2.883   5.690  16.770
 1808TIP3    H126915   2.955   5.663  16.826
 1808TIP3    H226916   2.904   5.653  16.684
 1809TIP3   OH226917   6.520   2.178  13.252
 1809TIP3    H126918   6.544   2.214  13.337
 1809TIP3    H226919   6.602   2.178  13.202
 1810TIP3   OH226920   0.807   4.094   1.343
 1810TIP3    H126921   0.768   4.046   1.416
 1810TIP3    H226922   0.787   4.041   1.266
 1811TIP3   OH226923   3.062   3.210  14.641
 1811TIP3    H126924   3.116   3.242  14.569
 1811TIP3    H226925   2.978   3.254  14.628
 1812TIP3   OH226926   2.922   5.251  15.912
 1812TIP3    H126927   2.963   5.165  15.924
 1812TIP3    H226928   2.907   5.258  15.818
 1813TIP3   OH226929   2.644   5.180  15.572
 1813TIP3    H126930   2.724   5.195  15.623
 1813TIP3    H226931   2.656   5.094  15.533
 1814TIP3   OH226932   5.751   4.349   0.327
 1814TIP3    H126933   5.730   4.436   0.360
 1814TIP3    H226934   5.684   4.292   0.366
 1815TIP3   OH226935   3.221   3.214   5.383
 1815TIP3    H126936   3.187   3.278   5.445
 1815TIP3    H226937   3.201   3.129   5.422
 1816TIP3   OH226938   4.656   6.669  15.837
 1816TIP3    H126939   4.689   6.755  15.809
 1816TIP3    H226940   4.562   6.681  15.845
 1817TIP3   OH226941   4.278   2.017  16.830
 1817TIP3    H126942   4.301   2.012  16.923
 1817TIP3    H226943   4.308   2.104  16.803
 1818TIP3   OH226944   3.402   3.850   3.852
 1818TIP3    H126945   3.368   3.878   3.938
 1818TIP3    H226946   3.324   3.824   3.803
 1819TIP3   OH226947   6.742   0.420   5.607
 1819TIP3    H126948   6.804   0.467   5.551
 1819TIP3    H226949   6.736   0.333   5.568
 1820TIP3   OH226950   1.823   4.522   4.521
 1820TIP3    H126951   1.865   4.480   4.446
 1820TIP3    H226952   1.759   4.581   4.483
 1821TIP3   OH226953   5.712   3.389   5.449
 1821TIP3    H126954   5.689   3.480   5.432
 1821TIP3    H226955   5.652   3.361   5.518
 1822TIP3   OH226956   5.392   4.893  15.515
 1822TIP3    H126957   5.467   4.905  15.457
 1822TIP3    H226958   5.318   4.930  15.466
 1823TIP3   OH226959   4.436   6.558   5.065
 1823TIP3    H126960   4.521   6.601   5.071
 1823TIP3    H226961   4.407   6.551   5.156
 1824TIP3   OH226962   4.775   6.461  17.137
 1824TIP3    H126963   4.758   6.462  17.043
 1824TIP3    H226964   4.732   6.540  17.170
 1825TIP3   OH226965   4.484   4.753   3.835
 1825TIP3    H126966   4.529   4.835   3.856
 1825TIP3    H226967   4.505   4.737   3.743
 1826TIP3   OH226968   6.486   6.696   1.314
 1826TIP3    H126969   6.560   6.674   1.371
 1826TIP3    H226970   6.422   6.628   1.330
 1827TIP3   OH226971   3.832   1.434  13.079
 1827TIP3    H126972   3.819   1.495  13.151
 1827TIP3    H226973   3.758   1.449  13.020
 1828TIP3   OH226974   3.305   1.255  13.558
 1828TIP3    H126975   3.400   1.259  13.554
 1828TIP3    H226976   3.276   1.318  13.491
 1829TIP3   OH226977   2.543   3.440   3.471
 1829TIP3    H126978   2.619   3.480   3.513
 1829TIP3    H226979   2.577   3.360   3.431
 1830TIP3   OH226980   0.575   2.128   4.991
 1830TIP3    H126981   0.614   2.051   4.950
 1830TIP3    H226982   0.558   2.187   4.918
 1831TIP3   OH226983   4.636   0.067   2.199
 1831TIP3    H126984   4.638   0.008   2.274
 1831TIP3    H226985   4.648   0.154   2.237
 1832TIP3   OH226986   0.080   6.475   1.590
 1832TIP3    H126987   0.122   6.412   1.531
 1832TIP3    H226988   0.093   6.439   1.677
 1833TIP3   OH226989   1.420   6.308   0.982
 1833TIP3    H126990   1.421   6.401   0.958
 1833TIP3    H226991   1.463   6.264   0.908
 1834TIP3   OH226992   6.299   4.416   1.699
 1834TIP3    H126993   6.284   4.325   1.676
 1834TIP3    H226994   6.217   4.444   1.740
 1835TIP3   OH226995   3.554   3.366   4.529
 1835TIP3    H126996   3.526   3.308   4.600
 1835TIP3    H226997   3.475   3.382   4.478
 1836TIP3   OH226998   3.052   3.465  15.623
 1836TIP3    H126999   3.015   3.523  15.555
 1836TIP3    H227000   3.141   3.449  15.593
 1837TIP3   OH227001   2.010   3.982  16.282
 1837TIP3    H127002   1.995   4.041  16.208
 1837TIP3    H227003   2.104   3.987  16.299
 1838TIP3   OH227004   4.992   6.379  14.741
 1838TIP3    H127005   5.033   6.319  14.803
 1838TIP3    H227006   4.911   6.406  14.784
 1839TIP3   OH227007   2.448   2.938   1.211
 1839TIP3    H127008   2.531   2.951   1.167
 1839TIP3    H227009   2.397   3.017   1.192
 1840TIP3   OH227010   0.772   6.493   1.557
 1840TIP3    H127011   0.775   6.446   1.474
 1840TIP3    H227012   0.854   6.470   1.600
 1841TIP3   OH227013   2.016   3.119  15.946
 1841TIP3    H127014   1.934   3.167  15.939
 1841TIP3    H227015   2.070   3.154  15.876
 1842TIP3   OH227016   4.248   2.018   1.020
 1842TIP3    H127017   4.213   2.083   0.960
 1842TIP3    H227018   4.180   2.007   1.087
 1843TIP3   OH227019   2.779   0.344  14.678
 1843TIP3    H127020   2.699   0.380  14.641
 1843TIP3    H227021   2.824   0.303  14.604
 1844TIP3   OH227022   2.254   0.710   1.322
 1844TIP3    H127023   2.214   0.754   1.247
 1844TIP3    H227024   2.231   0.764   1.397
 1845TIP3   OH227025   5.909   4.218   1.648
 1845TIP3    H127026   5.814   4.215   1.657
 1845TIP3    H227027   5.924   4.216   1.553
 1846TIP3   OH227028   6.161   4.097  14.846
 1846TIP3    H127029   6.141   4.094  14.940
 1846TIP3    H227030   6.125   4.181  14.817
 1847TIP3   OH227031   6.260   2.658   0.408
 1847TIP3    H127032   6.207   2.714   0.465
 1847TIP3    H227033   6.326   2.717   0.372
 1848TIP3   OH227034   6.489   6.521   5.288
 1848TIP3    H127035   6.402   6.519   5.328
 1848TIP3    H227036   6.539   6.580   5.343
 1849TIP3   OH227037   3.699   5.737  12.306
 1849TIP3    H127038   3.617   5.775  12.275
 1849TIP3    H227039   3.704   5.762  12.398
 1850TIP3   OH227040   5.756   6.790   5.818
 1850TIP3    H127041   5.776   6.829   5.733
 1850TIP3    H227042   5.700   6.855   5.861
 1851TIP3   OH227043   1.062   6.541  14.242
 1851TIP3    H127044   1.107   6.620  14.210
 1851TIP3    H227045   1.124   6.470  14.223
 1852TIP3   OH227046   3.784   2.973   0.186
 1852TIP3    H127047   3.730   2.923   0.248
 1852TIP3    H227048   3.769   3.064   0.210
 1853TIP3   OH227049   3.460   5.498   6.325
 1853TIP3    H127050   3.381   5.459   6.286
 1853TIP3    H227051   3.428   5.578   6.367
 1854TIP3   OH227052   5.882   0.721  11.461
 1854TIP3    H127053   5.957   0.750  11.512
 1854TIP3    H227054   5.915   0.713  11.372
 1855TIP3   OH227055   0.679   4.458   1.541
 1855TIP3    H127056   0.713   4.546   1.559
 1855TIP3    H227057   0.757   4.402   1.541
 1856TIP3   OH227058   4.051   6.433  12.327
 1856TIP3    H127059   4.108   6.377  12.274
 1856TIP3    H227060   3.962   6.409  12.301
 1857TIP3   OH227061   5.221   1.563   3.810
 1857TIP3    H127062   5.292   1.499   3.811
 1857TIP3    H227063   5.202   1.576   3.717
 1858TIP3   OH227064   3.902   3.810   5.795
 1858TIP3    H127065   3.867   3.858   5.870
 1858TIP3    H227066   3.857   3.725   5.798
 1859TIP3   OH227067   3.869   6.055   4.627
 1859TIP3    H127068   3.894   6.081   4.715
 1859TIP3    H227069   3.926   5.982   4.605
 1860TIP3   OH227070   6.019   3.374   2.236
 1860TIP3    H127071   6.104   3.331   2.244
 1860TIP3    H227072   6.033   3.462   2.272
 1861TIP3   OH227073   0.787   3.450  11.735
 1861TIP3    H127074   0.851   3.508  11.776
 1861TIP3    H227075   0.788   3.473  11.642
 1862TIP3   OH227076   2.063   0.528  14.840
 1862TIP3    H127077   2.002   0.566  14.776
 1862TIP3    H227078   2.146   0.574  14.825
 1863TIP3   OH227079   5.126   5.874   2.649
 1863TIP3    H127080   5.073   5.839   2.721
 1863TIP3    H227081   5.211   5.892   2.688
 1864TIP3   OH227082   4.217   4.157  13.669
 1864TIP3    H127083   4.170   4.206  13.736
 1864TIP3    H227084   4.309   4.169  13.690
 1865TIP3   OH227085   4.608   5.695  12.616
 1865TIP3    H127086   4.693   5.651  12.618
 1865TIP3    H227087   4.556   5.644  12.554
 1866TIP3   OH227088   1.732   4.829  16.193
 1866TIP3    H127089   1.756   4.784  16.112
 1866TIP3    H227090   1.639   4.850  16.182
 1867TIP3   OH227091   5.526   5.823  13.465
 1867TIP3    H127092   5.511   5.753  13.528
 1867TIP3    H227093   5.455   5.885  13.480
 1868TIP3   OH227094   4.625   5.438  14.567
 1868TIP3    H127095   4.567   5.483  14.629
 1868TIP3    H227096   4.669   5.371  14.621
 1869TIP3   OH227097   6.372   4.880  12.992
 1869TIP3    H127098   6.452   4.932  12.997
 1869TIP3    H227099   6.378   4.835  12.908
 1870TIP3   OH227100   6.030   6.080   3.369
 1870TIP3    H127101   6.006   6.026   3.293
 1870TIP3    H227102   5.959   6.065   3.432
 1871TIP3   OH227103   6.763   5.385   2.000
 1871TIP3    H127104   6.809   5.466   1.978
 1871TIP3    H227105   6.763   5.383   2.096
 1872TIP3   OH227106   5.487   1.886   2.366
 1872TIP3    H127107   5.573   1.918   2.393
 1872TIP3    H227108   5.427   1.925   2.430
 1873TIP3   OH227109   3.147   3.370  15.354
 1873TIP3    H127110   3.157   3.279  15.382
 1873TIP3    H227111   3.123   3.365  15.262
 1874TIP3   OH227112   0.320   6.783  14.579
 1874TIP3    H127113   0.396   6.774  14.521
 1874TIP3    H227114   0.358   6.791  14.666
 1875TIP3   OH227115   0.751   0.501   3.478
 1875TIP3    H127116   0.826   0.474   3.423
 1875TIP3    H227117   0.674   0.475   3.427
 1876TIP3   OH227118   0.705   6.147  12.336
 1876TIP3    H127119   0.742   6.224  12.379
 1876TIP3    H227120   0.626   6.179  12.293
 1877TIP3   OH227121   3.561   0.688   5.281
 1877TIP3    H127122   3.538   0.699   5.189
 1877TIP3    H227123   3.557   0.594   5.296
 1878TIP3   OH227124   6.217   0.468  14.731
 1878TIP3    H127125   6.211   0.519  14.650
 1878TIP3    H227126   6.283   0.401  14.713
 1879TIP3   OH227127   2.215   3.413  16.272
 1879TIP3    H127128   2.163   3.374  16.342
 1879TIP3    H227129   2.215   3.347  16.202
 1880TIP3   OH227130   3.844   2.888   6.057
 1880TIP3    H127131   3.891   2.893   5.974
 1880TIP3    H227132   3.805   2.975   6.068
 1881TIP3   OH227133   0.081   1.024  14.945
 1881TIP3    H127134   0.113   0.937  14.922
 1881TIP3    H227135   0.160   1.072  14.971
 1882TIP3   OH227136   5.583   6.615  15.348
 1882TIP3    H127137   5.668   6.574  15.332
 1882TIP3    H227138   5.546   6.564  15.420
 1883TIP3   OH227139   4.053   3.599   1.339
 1883TIP3    H127140   4.058   3.692   1.319
 1883TIP3    H227141   3.967   3.572   1.307
 1884TIP3   OH227142   5.668   4.864   2.433
 1884TIP3    H127143   5.660   4.773   2.403
 1884TIP3    H227144   5.593   4.878   2.491
 1885TIP3   OH227145   0.326   4.271  13.508
 1885TIP3    H127146   0.233   4.295  13.511
 1885TIP3    H227147   0.371   4.345  13.550
 1886TIP3   OH227148   4.128   2.228   5.705
 1886TIP3    H127149   4.036   2.244   5.688
 1886TIP3    H227150   4.174   2.292   5.652
 1887TIP3   OH227151   6.220   6.360   4.930
 1887TIP3    H127152   6.163   6.391   5.000
 1887TIP3    H227153   6.252   6.440   4.888
 1888TIP3   OH227154   0.717   5.830  15.262
 1888TIP3    H127155   0.709   5.787  15.348
 1888TIP3    H227156   0.682   5.918  15.276
 1889TIP3   OH227157   0.391   1.867  12.936
 1889TIP3    H127158   0.410   1.791  12.881
 1889TIP3    H227159   0.420   1.841  13.023
 1890TIP3   OH227160   0.899   2.413   6.639
 1890TIP3    H127161   0.853   2.497   6.637
 1890TIP3    H227162   0.983   2.433   6.681
 1891TIP3   OH227163   0.779   1.733  11.766
 1891TIP3    H127164   0.747   1.651  11.804
 1891TIP3    H227165   0.707   1.794  11.776
 1892TIP3   OH227166   0.263   0.657   3.355
 1892TIP3    H127167   0.282   0.690   3.267
 1892TIP3    H227168   0.232   0.568   3.341
 1893TIP3   OH227169   6.764   1.717  11.345
 1893TIP3    H127170   6.819   1.785  11.384
 1893TIP3    H227171   6.794   1.712  11.254
 1894TIP3   OH227172   0.568   1.161   5.664
 1894TIP3    H127173   0.662   1.175   5.673
 1894TIP3    H227174   0.547   1.098   5.733
 1895TIP3   OH227175   0.858   0.853   0.897
 1895TIP3    H127176   0.895   0.825   0.814
 1895TIP3    H227177   0.807   0.931   0.876
 1896TIP3   OH227178   5.605   4.951   5.700
 1896TIP3    H127179   5.575   5.005   5.773
 1896TIP3    H227180   5.555   4.869   5.708
 1897TIP3   OH227181   1.846   6.067   3.315
 1897TIP3    H127182   1.917   6.017   3.274
 1897TIP3    H227183   1.808   6.006   3.379
 1898TIP3   OH227184   0.405   4.642   3.458
 1898TIP3    H127185   0.425   4.682   3.373
 1898TIP3    H227186   0.461   4.689   3.520
 1899TIP3   OH227187   2.562   6.608   2.189
 1899TIP3    H127188   2.636   6.654   2.229
 1899TIP3    H227189   2.524   6.558   2.261
 1900TIP3   OH227190   2.770   2.073   1.883
 1900TIP3    H127191   2.820   2.150   1.909
 1900TIP3    H227192   2.685   2.107   1.855
 1901TIP3   OH227193   5.304   0.592  16.381
 1901TIP3    H127194   5.392   0.630  16.379
 1901TIP3    H227195   5.292   0.564  16.472
 1902TIP3   OH227196   1.706   3.112   5.297
 1902TIP3    H127197   1.739   3.116   5.387
 1902TIP3    H227198   1.641   3.182   5.292
 1903TIP3   OH227199   3.917   1.805  12.246
 1903TIP3    H127200   3.960   1.873  12.299
 1903TIP3    H227201   3.950   1.722  12.283
 1904TIP3   OH227202   0.012   6.693  13.917
 1904TIP3    H127203  -0.052   6.644  13.968
 1904TIP3    H227204   0.049   6.757  13.978
 1905TIP3   OH227205   0.273   0.415   5.288
 1905TIP3    H127206   0.355   0.444   5.330
 1905TIP3    H227207   0.301   0.350   5.223
 1906TIP3   OH227208   2.391   5.956  16.128
 1906TIP3    H127209   2.371   5.864  16.110
 1906TIP3    H227210   2.433   5.955  16.214
 1907TIP3   OH227211   6.688   3.334  12.880
 1907TIP3    H127212   6.693   3.317  12.974
 1907TIP3    H227213   6.779   3.335  12.851
 1908TIP3   OH227214   0.764   0.960  13.586
 1908TIP3    H127215   0.779   0.865  13.582
 1908TIP3    H227216   0.677   0.969  13.623
 1909TIP3   OH227217   3.653   2.466  16.308
 1909TIP3    H127218   3.739   2.445  16.344
 1909TIP3    H227219   3.599   2.390  16.329
 1910TIP3   OH227220   0.829   4.374  13.530
 1910TIP3    H127221   0.914   4.408  13.502
 1910TIP3    H227222   0.795   4.327  13.454
 1911TIP3   OH227223   4.037   6.721  12.951
 1911TIP3    H127224   4.062   6.694  12.863
 1911TIP3    H227225   4.023   6.639  12.999
 1912TIP3   OH227226   0.531   5.255   3.588
 1912TIP3    H127227   0.575   5.170   3.589
 1912TIP3    H227228   0.592   5.314   3.632
 1913TIP3   OH227229   0.350   3.775  15.109
 1913TIP3    H127230   0.271   3.763  15.056
 1913TIP3    H227231   0.397   3.692  15.101
 1914TIP3   OH227232   5.825   4.114  13.232
 1914TIP3    H127233   5.756   4.173  13.264
 1914TIP3    H227234   5.778   4.039  13.196
 1915TIP3   OH227235   4.615   5.213   1.955
 1915TIP3    H127236   4.535   5.257   1.926
 1915TIP3    H227237   4.628   5.245   2.044
 1916TIP3   OH227238   4.969   6.546  13.368
 1916TIP3    H127239   5.001   6.600  13.295
 1916TIP3    H227240   5.008   6.460  13.353
 1917TIP3   OH227241   0.330   2.634   1.307
 1917TIP3    H127242   0.254   2.581   1.332
 1917TIP3    H227243   0.291   2.715   1.272
 1918TIP3   OH227244   1.650   1.748   5.337
 1918TIP3    H127245   1.657   1.733   5.431
 1918TIP3    H227246   1.689   1.671   5.296
 1919TIP3   OH227247   4.715   3.913  15.457
 1919TIP3    H127248   4.768   3.868  15.391
 1919TIP3    H227249   4.649   3.961  15.405
 1920TIP3   OH227250   6.593   1.805   0.207
 1920TIP3    H127251   6.679   1.785   0.244
 1920TIP3    H227252   6.601   1.895   0.176
 1921TIP3   OH227253   3.125   3.103   1.942
 1921TIP3    H127254   3.118   3.014   1.909
 1921TIP3    H227255   3.050   3.149   1.904
 1922TIP3   OH227256   3.385   2.174  12.384
 1922TIP3    H127257   3.477   2.162  12.363
 1922TIP3    H227258   3.353   2.086  12.404
 1923TIP3   OH227259   3.424   2.777  12.375
 1923TIP3    H127260   3.340   2.820  12.362
 1923TIP3    H227261   3.460   2.767  12.286
 1924TIP3   OH227262   4.211   1.308  11.619
 1924TIP3    H127263   4.293   1.350  11.593
 1924TIP3    H227264   4.142   1.360  11.577
 1925TIP3   OH227265   6.507   4.676  15.052
 1925TIP3    H127266   6.457   4.629  15.118
 1925TIP3    H227267   6.582   4.619  15.034
 1926TIP3   OH227268   1.627   4.017  16.751
 1926TIP3    H127269   1.644   4.110  16.769
 1926TIP3    H227270   1.555   3.994  16.808
 1927TIP3   OH227271   4.000   2.898  15.909
 1927TIP3    H127272   4.017   2.877  16.001
 1927TIP3    H227273   3.929   2.839  15.884
 1928TIP3   OH227274   3.802   2.166  14.303
 1928TIP3    H127275   3.876   2.205  14.351
 1928TIP3    H227276   3.761   2.241  14.259
 1929TIP3   OH227277   0.070   4.146   6.030
 1929TIP3    H127278   0.065   4.149   6.125
 1929TIP3    H227279   0.157   4.180   6.009
 1930TIP3   OH227280   5.885   0.766  16.656
 1930TIP3    H127281   5.870   0.677  16.689
 1930TIP3    H227282   5.930   0.811  16.727
 1931TIP3   OH227283   1.952   3.649   0.165
 1931TIP3    H127284   1.988   3.579   0.220
 1931TIP3    H227285   1.858   3.631   0.164
 1932TIP3   OH227286   3.327   1.172   6.080
 1932TIP3    H127287   3.286   1.157   6.165
 1932TIP3    H227288   3.359   1.262   6.084
 1933TIP3   OH227289   1.319   5.369  16.244
 1933TIP3    H127290   1.296   5.459  16.266
 1933TIP3    H227291   1.327   5.369  16.149
 1934TIP3   OH227292   2.509   6.026  12.455
 1934TIP3    H127293   2.565   6.095  12.420
 1934TIP3    H227294   2.514   5.955  12.392
 1935TIP3   OH227295   0.848   4.307  16.368
 1935TIP3    H127296   0.860   4.241  16.436
 1935TIP3    H227297   0.834   4.388  16.416
 1936TIP3   OH227298   5.247   4.375   6.115
 1936TIP3    H127299   5.225   4.290   6.079
 1936TIP3    H227300   5.231   4.437   6.043
 1937TIP3   OH227301   4.780   5.900   3.779
 1937TIP3    H127302   4.758   5.913   3.687
 1937TIP3    H227303   4.793   5.988   3.814
 1938TIP3   OH227304   6.152   3.205   3.466
 1938TIP3    H127305   6.164   3.300   3.457
 1938TIP3    H227306   6.058   3.192   3.455
 1939TIP3   OH227307   1.797   0.162   3.217
 1939TIP3    H127308   1.707   0.155   3.247
 1939TIP3    H227309   1.841   0.214   3.286
 1940TIP3   OH227310   4.594   0.752  13.310
 1940TIP3    H127311   4.518   0.699  13.335
 1940TIP3    H227312   4.633   0.780  13.393
 1941TIP3   OH227313   1.847   4.385  15.999
 1941TIP3    H127314   1.911   4.408  16.067
 1941TIP3    H227315   1.763   4.414  16.034
 1942TIP3   OH227316   5.836   0.386  15.665
 1942TIP3    H127317   5.881   0.342  15.737
 1942TIP3    H227318   5.765   0.327  15.641
 1943TIP3   OH227319   1.142   6.493  14.799
 1943TIP3    H127320   1.077   6.529  14.739
 1943TIP3    H227321   1.180   6.419  14.753
 1944TIP3   OH227322   3.131   4.921   5.531
 1944TIP3    H127323   3.081   4.918   5.449
 1944TIP3    H227324   3.089   4.991   5.581
 1945TIP3   OH227325   6.522   2.733   0.748
 1945TIP3    H127326   6.565   2.742   0.663
 1945TIP3    H227327   6.568   2.660   0.791
 1946TIP3   OH227328   1.967   5.705  12.864
 1946TIP3    H127329   2.051   5.730  12.902
 1946TIP3    H227330   1.911   5.689  12.940
 1947TIP3   OH227331   2.362   4.593  11.365
 1947TIP3    H127332   2.354   4.606  11.460
 1947TIP3    H227333   2.311   4.515  11.348
 1948TIP3   OH227334   4.675   4.629  13.244
 1948TIP3    H127335   4.736   4.564  13.280
 1948TIP3    H227336   4.658   4.689  13.316
 1949TIP3   OH227337   4.200   5.456  16.471
 1949TIP3    H127338   4.227   5.393  16.538
 1949TIP3    H227339   4.237   5.539  16.500
 1950TIP3   OH227340   4.471   0.587  11.814
 1950TIP3    H127341   4.519   0.669  11.804
 1950TIP3    H227342   4.386   0.612  11.850
 1951TIP3   OH227343   6.218   4.093  13.465
 1951TIP3    H127344   6.245   4.025  13.527
 1951TIP3    H227345   6.247   4.061  13.380
 1952TIP3   OH227346   2.098   5.977   4.101
 1952TIP3    H127347   2.137   6.061   4.124
 1952TIP3    H227348   2.063   5.991   4.013
 1953TIP3   OH227349   5.563   6.313  11.597
 1953TIP3    H127350   5.490   6.284  11.543
 1953TIP3    H227351   5.578   6.404  11.572
 1954TIP3   OH227352   6.067   0.991  16.145
 1954TIP3    H127353   6.101   0.924  16.204
 1954TIP3    H227354   5.974   0.972  16.137
 1955TIP3   OH227355   0.944   3.602   4.928
 1955TIP3    H127356   0.953   3.697   4.934
 1955TIP3    H227357   0.893   3.577   5.004
 1956TIP3   OH227358   0.659   6.297   5.157
 1956TIP3    H127359   0.689   6.209   5.174
 1956TIP3    H227360   0.568   6.298   5.187
 1957TIP3   OH227361   0.795   3.808   5.691
 1957TIP3    H127362   0.853   3.794   5.766
 1957TIP3    H227363   0.736   3.878   5.719
 1958TIP3   OH227364   3.385   1.412   4.752
 1958TIP3    H127365   3.477   1.390   4.744
 1958TIP3    H227366   3.357   1.433   4.663
 1959TIP3   OH227367   0.442   5.930   6.035
 1959TIP3    H127368   0.460   6.012   6.081
 1959TIP3    H227369   0.489   5.863   6.085
 1960TIP3   OH227370   5.020   0.548   3.546
 1960TIP3    H127371   5.046   0.616   3.484
 1960TIP3    H227372   4.927   0.563   3.561
 1961TIP3   OH227373   1.864   2.032  14.660
 1961TIP3    H127374   1.860   2.128  14.650
 1961TIP3    H227375   1.877   1.999  14.571
 1962TIP3   OH227376   2.110   6.271   4.559
 1962TIP3    H127377   2.046   6.343   4.562
 1962TIP3    H227378   2.058   6.195   4.533
 1963TIP3   OH227379   0.782   6.758   5.754
 1963TIP3    H127380   0.802   6.839   5.801
 1963TIP3    H227381   0.748   6.699   5.821
 1964TIP3   OH227382   4.756   0.958  14.104
 1964TIP3    H127383   4.845   0.951  14.138
 1964TIP3    H227384   4.700   0.929  14.177
 1965TIP3   OH227385   5.017   4.995  11.321
 1965TIP3    H127386   4.986   5.074  11.276
 1965TIP3    H227387   4.947   4.931  11.309
 1966TIP3   OH227388   5.136   1.349  16.171
 1966TIP3    H127389   5.100   1.438  16.169
 1966TIP3    H227390   5.170   1.335  16.083
 1967TIP3   OH227391   0.678   3.466  17.004
 1967TIP3    H127392   0.714   3.539  16.954
 1967TIP3    H227393   0.602   3.502  17.050
 1968TIP3   OH227394   4.563   4.009  15.197
 1968TIP3    H127395   4.504   4.024  15.123
 1968TIP3    H227396   4.647   3.987  15.156
 1969TIP3   OH227397   4.863   0.744  13.187
 1969TIP3    H127398   4.772   0.729  13.213
 1969TIP3    H227399   4.857   0.782  13.099
 1970TIP3   OH227400   4.589   4.746   2.173
 1970TIP3    H127401   4.684   4.746   2.182
 1970TIP3    H227402   4.559   4.811   2.237
 1971TIP3   OH227403   3.153   2.511  15.018
 1971TIP3    H127404   3.128   2.419  15.027
 1971TIP3    H227405   3.244   2.508  14.990
 1972TIP3   OH227406   3.432   5.391   1.310
 1972TIP3    H127407   3.515   5.381   1.355
 1972TIP3    H227408   3.398   5.302   1.300
 1973TIP3   OH227409   6.444   1.493  15.540
 1973TIP3    H127410   6.375   1.431  15.515
 1973TIP3    H227411   6.524   1.440  15.540
 1974TIP3   OH227412   1.873   0.408  11.685
 1974TIP3    H127413   1.955   0.397  11.637
 1974TIP3    H227414   1.814   0.448  11.620
 1975TIP3   OH227415   4.597   1.687  15.940
 1975TIP3    H127416   4.633   1.599  15.937
 1975TIP3    H227417   4.616   1.717  16.029
 1976TIP3   OH227418   5.348   1.152   1.787
 1976TIP3    H127419   5.425   1.100   1.812
 1976TIP3    H227420   5.357   1.164   1.693
 1977TIP3   OH227421   4.965   4.449   2.664
 1977TIP3    H127422   4.928   4.525   2.709
 1977TIP3    H227423   4.949   4.376   2.724
 1978TIP3   OH227424   0.149   1.139  15.758
 1978TIP3    H127425   0.141   1.211  15.696
 1978TIP3    H227426   0.060   1.106  15.768
 1979TIP3   OH227427   5.328   3.866  11.109
 1979TIP3    H127428   5.342   3.918  11.031
 1979TIP3    H227429   5.398   3.800  11.107
 1980TIP3   OH227430   0.082   1.338   0.417
 1980TIP3    H127431   0.160   1.371   0.372
 1980TIP3    H227432   0.094   1.243   0.418
 1981TIP3   OH227433   1.514   1.438   4.127
 1981TIP3    H127434   1.601   1.399   4.125
 1981TIP3    H227435   1.497   1.463   4.036
 1982TIP3   OH227436   2.837   6.353   4.303
 1982TIP3    H127437   2.771   6.410   4.340
 1982TIP3    H227438   2.801   6.265   4.312
 1983TIP3   OH227439   0.893   4.575   1.153
 1983TIP3    H127440   0.798   4.563   1.151
 1983TIP3    H227441   0.908   4.643   1.218
 1984TIP3   OH227442   6.028   6.106   4.076
 1984TIP3    H127443   6.111   6.060   4.092
 1984TIP3    H227444   5.964   6.058   4.127
 1985TIP3   OH227445   3.126   3.629  13.191
 1985TIP3    H127446   3.192   3.675  13.243
 1985TIP3    H227447   3.176   3.564  13.142
 1986TIP3   OH227448   4.730   5.594   2.589
 1986TIP3    H127449   4.718   5.593   2.494
 1986TIP3    H227450   4.804   5.653   2.603
 1987TIP3   OH227451   5.768   2.432   5.482
 1987TIP3    H127452   5.787   2.359   5.423
 1987TIP3    H227453   5.721   2.495   5.427
 1988TIP3   OH227454   2.127   6.102  14.502
 1988TIP3    H127455   2.166   6.094  14.589
 1988TIP3    H227456   2.033   6.099  14.518
 1989TIP3   OH227457   3.404   6.299   3.874
 1989TIP3    H127458   3.351   6.373   3.905
 1989TIP3    H227459   3.449   6.267   3.952
 1990TIP3   OH227460   3.574   4.615  10.234
 1990TIP3    H127461   3.656   4.664  10.234
 1990TIP3    H227462   3.600   4.523  10.237
 1991TIP3   OH227463   5.427   6.675   5.891
 1991TIP3    H127464   5.518   6.674   5.918
 1991TIP3    H227465   5.403   6.583   5.882
 1992TIP3   OH227466   4.703   4.262  13.289
 1992TIP3    H127467   4.739   4.245  13.376
 1992TIP3    H227468   4.633   4.325  13.304
 1993TIP3   OH227469   4.554   5.619  16.480
 1993TIP3    H127470   4.600   5.670  16.547
 1993TIP3    H227471   4.480   5.674  16.455
 1994TIP3   OH227472   4.567   0.672   1.833
 1994TIP3    H127473   4.625   0.747   1.849
 1994TIP3    H227474   4.479   0.708   1.833
 1995TIP3   OH227475   4.259   5.657   5.785
 1995TIP3    H127476   4.192   5.589   5.784
 1995TIP3    H227477   4.321   5.631   5.718
 1996TIP3   OH227478   6.172   4.527  14.296
 1996TIP3    H127479   6.198   4.590  14.229
 1996TIP3    H227480   6.104   4.573  14.346
 1997TIP3   OH227481   5.987   6.085  16.361
 1997TIP3    H127482   5.968   6.036  16.440
 1997TIP3    H227483   5.916   6.150  16.355
 1998TIP3   OH227484   5.217   4.623  14.824
 1998TIP3    H127485   5.284   4.622  14.755
 1998TIP3    H227486   5.213   4.532  14.854
 1999TIP3   OH227487   5.747   6.109   1.193
 1999TIP3    H127488   5.668   6.086   1.146
 1999TIP3    H227489   5.719   6.174   1.257
 2000TIP3   OH227490   5.558   2.981  11.896
 2000TIP3    H127491   5.652   2.966  11.908
 2000TIP3    H227492   5.518   2.897  11.918
 2001TIP3   OH227493   0.173   0.985  16.873
 2001TIP3    H127494   0.189   1.042  16.948
 2001TIP3    H227495   0.188   1.042  16.797
 2002TIP3   OH227496   1.376   3.773  16.035
 2002TIP3    H127497   1.464   3.761  16.069
 2002TIP3    H227498   1.385   3.763  15.940
 2003TIP3   OH227499   1.357   3.374  14.257
 2003TIP3    H127500   1.385   3.466  14.252
 2003TIP3    H227501   1.312   3.359  14.174
 2004TIP3   OH227502   4.554   6.199  12.036
 2004TIP3    H127503   4.562   6.268  11.970
 2004TIP3    H227504   4.567   6.244  12.119
 2005TIP3   OH227505   3.441   4.772  13.549
 2005TIP3    H127506   3.469   4.857  13.581
 2005TIP3    H227507   3.347   4.768  13.570
 2006TIP3   OH227508   5.839   1.362  13.167
 2006TIP3    H127509   5.890   1.281  13.172
 2006TIP3    H227510   5.902   1.428  13.137
 2007TIP3   OH227511   1.640   6.278  13.869
 2007TIP3    H127512   1.692   6.222  13.926
 2007TIP3    H227513   1.552   6.276  13.907
 2008TIP3   OH227514   1.945   3.610  16.020
 2008TIP3    H127515   1.911   3.642  15.936
 2008TIP3    H227516   1.914   3.520  16.026
 2009TIP3   OH227517   5.648   5.194  16.274
 2009TIP3    H127518   5.612   5.212  16.187
 2009TIP3    H227519   5.658   5.099  16.278
 2010TIP3   OH227520   2.388   3.379  12.884
 2010TIP3    H127521   2.399   3.392  12.978
 2010TIP3    H227522   2.298   3.406  12.866
 2011TIP3   OH227523   2.271   3.462  11.881
 2011TIP3    H127524   2.242   3.398  11.816
 2011TIP3    H227525   2.237   3.545  11.849
 2012TIP3   OH227526   3.823   6.531  14.582
 2012TIP3    H127527   3.892   6.587  14.617
 2012TIP3    H227528   3.869   6.462  14.535
 2013TIP3   OH227529   1.568   0.861   3.000
 2013TIP3    H127530   1.517   0.936   3.030
 2013TIP3    H227531   1.529   0.786   3.043
 2014TIP3   OH227532   2.540   1.299   1.185
 2014TIP3    H127533   2.465   1.332   1.234
 2014TIP3    H227534   2.593   1.377   1.167
 2015TIP3   OH227535   5.607   1.529  13.793
 2015TIP3    H127536   5.552   1.460  13.830
 2015TIP3    H227537   5.545   1.589  13.751
 2016TIP3   OH227538   5.061   3.153   3.048
 2016TIP3    H127539   5.000   3.174   3.119
 2016TIP3    H227540   5.005   3.131   2.974
 2017TIP3   OH227541   6.460   2.315  13.663
 2017TIP3    H127542   6.445   2.234  13.615
 2017TIP3    H227543   6.513   2.369  13.604
 2018TIP3   OH227544   2.758   0.389  12.666
 2018TIP3    H127545   2.849   0.381  12.640
 2018TIP3    H227546   2.760   0.385  12.762
 2019TIP3   OH227547   1.572   1.503  12.154
 2019TIP3    H127548   1.582   1.585  12.107
 2019TIP3    H227549   1.534   1.443  12.090
 2020TIP3   OH227550   2.905   2.057  15.453
 2020TIP3    H127551   2.997   2.083  15.445
 2020TIP3    H227552   2.860   2.136  15.482
 2021TIP3   OH227553   4.540   5.247   2.723
 2021TIP3    H127554   4.518   5.307   2.651
 2021TIP3    H227555   4.618   5.200   2.692
 2022TIP3   OH227556   2.288   4.724  14.981
 2022TIP3    H127557   2.252   4.640  14.954
 2022TIP3    H227558   2.242   4.745  15.063
 2023TIP3   OH227559   0.464   6.568   2.322
 2023TIP3    H127560   0.500   6.594   2.237
 2023TIP3    H227561   0.370   6.579   2.313
 2024TIP3   OH227562   3.712   5.391  14.032
 2024TIP3    H127563   3.618   5.404  14.017
 2024TIP3    H227564   3.739   5.331  13.962
 2025TIP3   OH227565   4.390   3.518  10.212
 2025TIP3    H127566   4.345   3.603  10.210
 2025TIP3    H227567   4.321   3.454  10.199
 2026TIP3   OH227568   1.896   4.784  16.631
 2026TIP3    H127569   1.936   4.867  16.604
 2026TIP3    H227570   1.958   4.748  16.695
 2027TIP3   OH227571   1.918   4.897   1.524
 2027TIP3    H127572   1.964   4.813   1.519
 2027TIP3    H227573   1.982   4.960   1.492
 2028TIP3   OH227574   0.165   0.260  10.599
 2028TIP3    H127575   0.104   0.292  10.533
 2028TIP3    H227576   0.129   0.175  10.625
 2029TIP3   OH227577   2.188   1.007   0.732
 2029TIP3    H127578   2.283   1.005   0.719
 2029TIP3    H227579   2.168   1.100   0.748
 2030TIP3   OH227580   2.715   1.329   1.851
 2030TIP3    H127581   2.766   1.268   1.798
 2030TIP3    H227582   2.701   1.405   1.794
 2031TIP3   OH227583   0.432   6.730   6.280
 2031TIP3    H127584   0.500   6.734   6.347
 2031TIP3    H227585   0.375   6.805   6.299
 2032TIP3   OH227586   3.669   1.585  15.709
 2032TIP3    H127587   3.614   1.522  15.756
 2032TIP3    H227588   3.737   1.532  15.668
 2033TIP3   OH227589   5.389   5.680  15.363
 2033TIP3    H127590   5.332   5.756  15.375
 2033TIP3    H227591   5.333   5.605  15.378
 2034TIP3   OH227592   3.725   0.684   6.373
 2034TIP3    H127593   3.649   0.636   6.408
 2034TIP3    H227594   3.791   0.677   6.441
 2035TIP3   OH227595   2.468   3.526   2.199
 2035TIP3    H127596   2.385   3.526   2.245
 2035TIP3    H227597   2.533   3.548   2.266
 2036TIP3   OH227598   5.432   1.726   5.598
 2036TIP3    H127599   5.391   1.744   5.682
 2036TIP3    H227600   5.359   1.705   5.540
 2037TIP3   OH227601   5.953   2.091  12.479
 2037TIP3    H127602   5.932   2.001  12.456
 2037TIP3    H227603   6.046   2.100  12.461
 2038TIP3   OH227604   2.563   0.953  11.299
 2038TIP3    H127605   2.565   1.048  11.287
 2038TIP3    H227606   2.527   0.918  11.218
 2039TIP3   OH227607   1.079   4.529  13.012
 2039TIP3    H127608   0.988   4.552  13.028
 2039TIP3    H227609   1.082   4.434  13.018
 2040TIP3   OH227610   0.672   1.172  16.039
 2040TIP3    H127611   0.753   1.184  15.990
 2040TIP3    H227612   0.674   1.240  16.105
 2041TIP3   OH227613   2.551   0.104  11.426
 2041TIP3    H127614   2.593   0.161  11.490
 2041TIP3    H227615   2.494   0.047  11.478
 2042TIP3   OH227616   2.301   5.721  10.395
 2042TIP3    H127617   2.289   5.689  10.305
 2042TIP3    H227618   2.372   5.786  10.388
 2043TIP3   OH227619   1.936   5.584  16.273
 2043TIP3    H127620   1.846   5.560  16.250
 2043TIP3    H227621   1.926   5.643  16.347
 2044TIP3   OH227622   4.786   5.979   1.075
 2044TIP3    H127623   4.698   5.992   1.111
 2044TIP3    H227624   4.845   6.015   1.141
 2045TIP3   OH227625   4.097   6.196  12.530
 2045TIP3    H127626   4.114   6.238  12.446
 2045TIP3    H227627   4.026   6.134  12.513
 2046TIP3   OH227628   0.350   5.376  10.662
 2046TIP3    H127629   0.272   5.357  10.714
 2046TIP3    H227630   0.400   5.438  10.716
 2047TIP3   OH227631   2.750   5.714  14.900
 2047TIP3    H127632   2.764   5.645  14.965
 2047TIP3    H227633   2.656   5.734  14.906
 2048TIP3   OH227634   4.450   1.703  13.113
 2048TIP3    H127635   4.364   1.661  13.106
 2048TIP3    H227636   4.505   1.639  13.158
 2049TIP3   OH227637   6.427   3.909   3.771
 2049TIP3    H127638   6.425   3.814   3.765
 2049TIP3    H227639   6.515   3.933   3.743
 2050TIP3   OH227640   1.537   2.335   3.884
 2050TIP3    H127641   1.481   2.317   3.959
 2050TIP3    H227642   1.485   2.394   3.829
 2051TIP3   OH227643   1.738   0.737   5.641
 2051TIP3    H127644   1.757   0.821   5.600
 2051TIP3    H227645   1.710   0.759   5.730
 2052TIP3   OH227646   3.215   2.848   0.039
 2052TIP3    H127647   3.194   2.905   0.112
 2052TIP3    H227648   3.162   2.881  -0.034
 2053TIP3   OH227649   3.400   6.005   3.570
 2053TIP3    H127650   3.336   5.950   3.616
 2053TIP3    H227651   3.417   5.958   3.489
 2054TIP3   OH227652   1.523   2.494   0.886
 2054TIP3    H127653   1.444   2.442   0.873
 2054TIP3    H227654   1.502   2.580   0.849
 2055TIP3   OH227655   3.015   2.115   2.665
 2055TIP3    H127656   3.006   2.038   2.609
 2055TIP3    H227657   2.927   2.153   2.667
 2056TIP3   OH227658   6.380   6.700   0.039
 2056TIP3    H127659   6.327   6.753  -0.021
 2056TIP3    H227660   6.317   6.643   0.083
 2057TIP3   OH227661   4.717   1.482  11.741
 2057TIP3    H127662   4.739   1.575  11.743
 2057TIP3    H227663   4.733   1.452  11.831
 2058TIP3   OH227664   1.498   5.145   0.737
 2058TIP3    H127665   1.484   5.235   0.765
 2058TIP3    H227666   1.587   5.144   0.701
 2059TIP3   OH227667   1.788   0.638   3.084
 2059TIP3    H127668   1.857   0.591   3.130
 2059TIP3    H227669   1.711   0.582   3.094
 2060TIP3   OH227670   1.541   6.778   1.995
 2060TIP3    H127671   1.602   6.850   1.977
 2060TIP3    H227672   1.581   6.702   1.952
 2061TIP3   OH227673   2.820   5.561   2.513
 2061TIP3    H127674   2.736   5.575   2.557
 2061TIP3    H227675   2.862   5.647   2.515
 2062TIP3   OH227676   1.949   1.405  13.716
 2062TIP3    H127677   1.970   1.337  13.652
 2062TIP3    H227678   2.025   1.464  13.714
 2063TIP3   OH227679   2.791   2.493   1.340
 2063TIP3    H127680   2.878   2.454   1.333
 2063TIP3    H227681   2.805   2.576   1.385
 2064TIP3   OH227682   4.228   6.519   5.248
 2064TIP3    H127683   4.212   6.503   5.341
 2064TIP3    H227684   4.245   6.432   5.212
 2065TIP3   OH227685   0.837   4.244  12.919
 2065TIP3    H127686   0.865   4.248  12.828
 2065TIP3    H227687   0.765   4.307  12.925
 2066TIP3   OH227688   5.283   1.326   2.040
 2066TIP3    H127689   5.209   1.274   2.008
 2066TIP3    H227690   5.358   1.293   1.990
 2067TIP3   OH227691   2.736   1.422  14.636
 2067TIP3    H127692   2.684   1.462  14.705
 2067TIP3    H227693   2.826   1.421  14.671
 2068TIP3   OH227694   1.455   5.792  13.766
 2068TIP3    H127695   1.432   5.705  13.798
 2068TIP3    H227696   1.549   5.789  13.753
 2069TIP3   OH227697   4.766   4.819   1.243
 2069TIP3    H127698   4.752   4.724   1.253
 2069TIP3    H227699   4.688   4.859   1.282
 2070TIP3   OH227700   0.616   5.299   4.939
 2070TIP3    H127701   0.622   5.210   4.973
 2070TIP3    H227702   0.651   5.355   5.008
 2071TIP3   OH227703   5.954   3.397   3.657
 2071TIP3    H127704   5.993   3.427   3.575
 2071TIP3    H227705   6.018   3.421   3.724
 2072TIP3   OH227706   5.390   0.291   1.560
 2072TIP3    H127707   5.393   0.306   1.465
 2072TIP3    H227708   5.436   0.208   1.572
 2073TIP3   OH227709   1.398   3.179   1.752
 2073TIP3    H127710   1.381   3.269   1.723
 2073TIP3    H227711   1.479   3.154   1.708
 2074TIP3   OH227712   3.586   6.817   1.326
 2074TIP3    H127713   3.659   6.783   1.378
 2074TIP3    H227714   3.546   6.884   1.381
 2075TIP3   OH227715   1.305   5.836  16.464
 2075TIP3    H127716   1.308   5.764  16.528
 2075TIP3    H227717   1.396   5.863  16.454
 2076TIP3   OH227718   0.588   5.503   2.390
 2076TIP3    H127719   0.577   5.440   2.319
 2076TIP3    H227720   0.636   5.456   2.457
 2077TIP3   OH227721   6.572   5.966   5.554
 2077TIP3    H127722   6.510   6.035   5.534
 2077TIP3    H227723   6.530   5.886   5.521
 2078TIP3   OH227724   3.127   2.791   0.901
 2078TIP3    H127725   3.118   2.720   0.964
 2078TIP3    H227726   3.192   2.850   0.940
 2079TIP3   OH227727   5.480   5.577   6.028
 2079TIP3    H127728   5.542   5.629   5.977
 2079TIP3    H227729   5.488   5.489   5.993
 2080TIP3   OH227730   0.784   2.931   3.352
 2080TIP3    H127731   0.745   2.972   3.275
 2080TIP3    H227732   0.769   2.838   3.340
 2081TIP3   OH227733   2.542   5.526  16.535
 2081TIP3    H127734   2.585   5.538  16.619
 2081TIP3    H227735   2.613   5.527  16.471
 2082TIP3   OH227736   0.214   5.978  15.215
 2082TIP3    H127737   0.124   5.993  15.187
 2082TIP3    H227738   0.223   6.028  15.296
 2083TIP3   OH227739   3.833   0.361   4.633
 2083TIP3    H127740   3.739   0.378   4.629
 2083TIP3    H227741   3.868   0.401   4.554
 2084TIP3   OH227742   4.650   5.173   5.172
 2084TIP3    H127743   4.567   5.150   5.129
 2084TIP3    H227744   4.716   5.124   5.124
 2085TIP3   OH227745   4.773   1.236   1.814
 2085TIP3    H127746   4.691   1.227   1.862
 2085TIP3    H227747   4.772   1.164   1.751
 2086TIP3   OH227748   4.998   2.365   6.456
 2086TIP3    H127749   5.001   2.441   6.515
 2086TIP3    H227750   5.028   2.399   6.372
 2087TIP3   OH227751   5.405   2.763  12.890
 2087TIP3    H127752   5.480   2.811  12.855
 2087TIP3    H227753   5.428   2.746  12.982
 2088TIP3   OH227754   1.813   2.683  12.199
 2088TIP3    H127755   1.727   2.643  12.184
 2088TIP3    H227756   1.866   2.612  12.236
 2089TIP3   OH227757   2.838   5.694  13.537
 2089TIP3    H127758   2.784   5.763  13.498
 2089TIP3    H227759   2.777   5.623  13.556
 2090TIP3   OH227760   3.863   4.257  14.163
 2090TIP3    H127761   3.808   4.182  14.182
 2090TIP3    H227762   3.952   4.222  14.164
 2091TIP3   OH227763   6.174   5.871  11.525
 2091TIP3    H127764   6.096   5.819  11.545
 2091TIP3    H227765   6.151   5.919  11.445
 2092TIP3   OH227766   6.276   3.009  14.815
 2092TIP3    H127767   6.196   2.983  14.769
 2092TIP3    H227768   6.328   2.928  14.818
 2093TIP3   OH227769   3.850   5.553   2.361
 2093TIP3    H127770   3.814   5.476   2.317
 2093TIP3    H227771   3.870   5.615   2.290
 2094TIP3   OH227772   5.874   6.461   0.426
 2094TIP3    H127773   5.852   6.553   0.443
 2094TIP3    H227774   5.969   6.458   0.433
 2095TIP3   OH227775   2.483   1.376  16.678
 2095TIP3    H127776   2.568   1.332  16.670
 2095TIP3    H227777   2.451   1.353  16.765
 2096TIP3   OH227778   2.399   0.519  13.336
 2096TIP3    H127779   2.367   0.598  13.378
 2096TIP3    H227780   2.362   0.522  13.247
 2097TIP3   OH227781   0.975   5.484  11.728
 2097TIP3    H127782   0.990   5.561  11.782
 2097TIP3    H227783   1.053   5.479  11.672
 2098TIP3   OH227784   3.209   4.464   4.256
 2098TIP3    H127785   3.230   4.550   4.220
 2098TIP3    H227786   3.171   4.482   4.342
 2099TIP3   OH227787   4.602   2.865   4.439
 2099TIP3    H127788   4.617   2.957   4.416
 2099TIP3    H227789   4.570   2.825   4.358
 2100TIP3   OH227790   6.156   3.993   0.771
 2100TIP3    H127791   6.245   3.967   0.792
 2100TIP3    H227792   6.112   3.912   0.747
 2101TIP3   OH227793   5.050   5.623   3.598
 2101TIP3    H127794   4.998   5.553   3.558
 2101TIP3    H227795   5.135   5.582   3.616
 2102TIP3   OH227796   4.638   2.700  14.885
 2102TIP3    H127797   4.657   2.607  14.896
 2102TIP3    H227798   4.544   2.703  14.868
 2103TIP3   OH227799   4.746   4.831   6.336
 2103TIP3    H127800   4.688   4.907   6.333
 2103TIP3    H227801   4.711   4.771   6.270
 2104TIP3   OH227802   2.043   2.476  15.131
 2104TIP3    H127803   2.029   2.549  15.070
 2104TIP3    H227804   2.101   2.416  15.085
 2105TIP3   OH227805   1.987   2.213  11.929
 2105TIP3    H127806   2.037   2.295  11.927
 2105TIP3    H227807   2.030   2.157  11.864
 2106TIP3   OH227808   6.636   1.628   2.536
 2106TIP3    H127809   6.642   1.539   2.571
 2106TIP3    H227810   6.721   1.643   2.496
 2107TIP3   OH227811   4.084   0.131   3.543
 2107TIP3    H127812   4.027   0.090   3.609
 2107TIP3    H227813   4.075   0.075   3.466
 2108TIP3   OH227814   0.044   1.390  15.013
 2108TIP3    H127815  -0.035   1.353  14.975
 2108TIP3    H227816   0.099   1.410  14.938
 2109TIP3   OH227817   6.633   6.725  13.749
 2109TIP3    H127818   6.649   6.756  13.660
 2109TIP3    H227819   6.717   6.737  13.794
 2110TIP3   OH227820   4.190   3.834  16.900
 2110TIP3    H127821   4.242   3.799  16.972
 2110TIP3    H227822   4.122   3.768  16.885
 2111TIP3   OH227823   4.354   6.275  12.782
 2111TIP3    H127824   4.276   6.221  12.792
 2111TIP3    H227825   4.347   6.311  12.693
 2112TIP3   OH227826   0.518   2.254  15.785
 2112TIP3    H127827   0.500   2.195  15.858
 2112TIP3    H227828   0.600   2.297  15.809
 2113TIP3   OH227829   6.695   5.994   3.083
 2113TIP3    H127830   6.621   6.032   3.036
 2113TIP3    H227831   6.771   6.045   3.055
 2114TIP3   OH227832   0.922   5.565   3.129
 2114TIP3    H127833   0.864   5.526   3.195
 2114TIP3    H227834   0.863   5.588   3.057
 2115TIP3   OH227835   3.895   4.960   1.842
 2115TIP3    H127836   3.876   5.054   1.845
 2115TIP3    H227837   3.874   4.935   1.751
 2116TIP3   OH227838   6.108   6.027   0.831
 2116TIP3    H127839   6.156   5.981   0.899
 2116TIP3    H227840   6.075   6.106   0.873
 2117TIP3   OH227841   0.723   0.235   3.728
 2117TIP3    H127842   0.687   0.323   3.719
 2117TIP3    H227843   0.765   0.235   3.814
 2118TIP3   OH227844   2.859   3.350  13.097
 2118TIP3    H127845   2.900   3.271  13.131
 2118TIP3    H227846   2.837   3.401  13.175
 2119TIP3   OH227847   1.930   0.664  13.016
 2119TIP3    H127848   1.870   0.590  13.004
 2119TIP3    H227849   1.937   0.703  12.928
 2120TIP3   OH227850   3.735   1.375  11.422
 2120TIP3    H127851   3.715   1.454  11.471
 2120TIP3    H227852   3.691   1.387  11.338
 2121TIP3   OH227853   6.136   3.738   3.769
 2121TIP3    H127854   6.079   3.794   3.716
 2121TIP3    H227855   6.147   3.785   3.852
 2122TIP3   OH227856   3.546   4.168   2.783
 2122TIP3    H127857   3.632   4.208   2.799
 2122TIP3    H227858   3.566   4.090   2.731
 2123TIP3   OH227859   5.867   3.680   4.446
 2123TIP3    H127860   5.835   3.695   4.535
 2123TIP3    H227861   5.826   3.748   4.393
 2124TIP3   OH227862   2.545   6.602   1.453
 2124TIP3    H127863   2.591   6.551   1.386
 2124TIP3    H227864   2.456   6.565   1.454
 2125TIP3   OH227865   4.091   2.896  16.919
 2125TIP3    H127866   4.104   2.897  16.824
 2125TIP3    H227867   4.014   2.951  16.933
 2126TIP3   OH227868   5.105   1.793   5.490
 2126TIP3    H127869   5.021   1.748   5.500
 2126TIP3    H227870   5.148   1.783   5.576
 2127TIP3   OH227871   6.158   0.677   5.767
 2127TIP3    H127872   6.108   0.713   5.840
 2127TIP3    H227873   6.231   0.737   5.755
 2128TIP3   OH227874   5.908   2.861  12.786
 2128TIP3    H127875   5.895   2.768  12.767
 2128TIP3    H227876   5.997   2.880  12.757
 2129TIP3   OH227877   4.423   4.074  12.987
 2129TIP3    H127878   4.366   4.106  13.057
 2129TIP3    H227879   4.363   4.030  12.926
 2130TIP3   OH227880   4.175   5.300  13.261
 2130TIP3    H127881   4.132   5.219  13.291
 2130TIP3    H227882   4.135   5.369  13.315
 2131TIP3   OH227883   6.485   1.391   2.127
 2131TIP3    H127884   6.452   1.445   2.199
 2131TIP3    H227885   6.420   1.402   2.057
 2132TIP3   OH227886   2.484   3.800   1.754
 2132TIP3    H127887   2.415   3.858   1.786
 2132TIP3    H227888   2.565   3.845   1.778
 2133TIP3   OH227889   1.762   4.837  14.114
 2133TIP3    H127890   1.701   4.763  14.124
 2133TIP3    H227891   1.843   4.807  14.156
 2134TIP3   OH227892   5.212   1.697   0.151
 2134TIP3    H127893   5.226   1.696   0.246
 2134TIP3    H227894   5.201   1.789   0.129
 2135TIP3   OH227895   4.980   6.395  11.298
 2135TIP3    H127896   4.926   6.350  11.233
 2135TIP3    H227897   4.917   6.450  11.347
 2136TIP3   OH227898   6.536   2.429   5.249
 2136TIP3    H127899   6.530   2.362   5.181
 2136TIP3    H227900   6.461   2.412   5.306
 2137TIP3   OH227901   0.880   2.503  12.172
 2137TIP3    H127902   0.931   2.521  12.093
 2137TIP3    H227903   0.900   2.411  12.192
 2138TIP3   OH227904   3.481   5.816   2.254
 2138TIP3    H127905   3.478   5.875   2.330
 2138TIP3    H227906   3.574   5.797   2.242
 2139TIP3   OH227907   0.867   3.617  13.103
 2139TIP3    H127908   0.873   3.522  13.092
 2139TIP3    H227909   0.774   3.637  13.097
 2140TIP3   OH227910   5.313   6.202  14.041
 2140TIP3    H127911   5.331   6.108  14.032
 2140TIP3    H227912   5.331   6.220  14.133
 2141TIP3   OH227913   1.310   0.337   6.745
 2141TIP3    H127914   1.389   0.283   6.747
 2141TIP3    H227915   1.252   0.298   6.810
 2142TIP3   OH227916   4.652   3.122  12.643
 2142TIP3    H127917   4.746   3.138  12.637
 2142TIP3    H227918   4.613   3.192  12.590
 2143TIP3   OH227919   0.374   0.682  11.478
 2143TIP3    H127920   0.423   0.763  11.492
 2143TIP3    H227921   0.426   0.615  11.523
 2144TIP3   OH227922   3.148   6.743   0.323
 2144TIP3    H127923   3.179   6.678   0.385
 2144TIP3    H227924   3.057   6.760   0.350
 2145TIP3   OH227925   3.623   3.837  10.577
 2145TIP3    H127926   3.583   3.873  10.498
 2145TIP3    H227927   3.714   3.866  10.574
 2146TIP3   OH227928   1.810   2.868  14.513
 2146TIP3    H127929   1.849   2.791  14.472
 2146TIP3    H227930   1.849   2.871  14.600
 2147TIP3   OH227931   3.686   2.259   4.552
 2147TIP3    H127932   3.777   2.266   4.581
 2147TIP3    H227933   3.650   2.347   4.566
 2148TIP3   OH227934   1.800   3.000   0.855
 2148TIP3    H127935   1.873   2.944   0.881
 2148TIP3    H227936   1.823   3.029   0.767
 2149TIP3   OH227937   4.356   1.321   5.513
 2149TIP3    H127938   4.276   1.285   5.474
 2149TIP3    H227939   4.324   1.388   5.574
 2150TIP3   OH227940   3.936   1.112  15.741
 2150TIP3    H127941   3.922   1.186  15.801
 2150TIP3    H227942   3.850   1.070  15.735
 2151TIP3   OH227943   1.521   5.666   4.564
 2151TIP3    H127944   1.537   5.578   4.530
 2151TIP3    H227945   1.439   5.693   4.523
 2152TIP3   OH227946   3.851   5.823   4.978
 2152TIP3    H127947   3.848   5.750   5.040
 2152TIP3    H227948   3.762   5.827   4.942
 2153TIP3   OH227949   1.740   1.545  13.802
 2153TIP3    H127950   1.814   1.491  13.773
 2153TIP3    H227951   1.778   1.609  13.862
 2154TIP3   OH227952   4.198   0.425   2.906
 2154TIP3    H127953   4.193   0.486   2.832
 2154TIP3    H227954   4.111   0.430   2.946
 2155TIP3   OH227955   3.849   6.346   1.719
 2155TIP3    H127956   3.902   6.424   1.735
 2155TIP3    H227957   3.912   6.280   1.689
 2156TIP3   OH227958   5.911   2.026  11.525
 2156TIP3    H127959   5.837   2.025  11.586
 2156TIP3    H227960   5.989   2.034  11.581
 2157TIP3   OH227961   0.188   0.301  11.673
 2157TIP3    H127962   0.163   0.218  11.633
 2157TIP3    H227963   0.195   0.282  11.767
 2158TIP3   OH227964   2.463   2.629  16.159
 2158TIP3    H127965   2.504   2.712  16.132
 2158TIP3    H227966   2.372   2.636  16.129
 2159TIP3   OH227967   4.385   5.236   4.714
 2159TIP3    H127968   4.448   5.177   4.672
 2159TIP3    H227969   4.304   5.223   4.665
 2160TIP3   OH227970   4.802   6.477  14.902
 2160TIP3    H127971   4.733   6.540  14.880
 2160TIP3    H227972   4.849   6.518  14.974
 2161TIP3   OH227973   5.632   2.144   1.778
 2161TIP3    H127974   5.558   2.084   1.771
 2161TIP3    H227975   5.610   2.216   1.720
 2162TIP3   OH227976   3.858   3.947   2.324
 2162TIP3    H127977   3.789   3.903   2.374
 2162TIP3    H227978   3.816   4.027   2.291
 2163TIP3   OH227979   2.764   2.281  15.519
 2163TIP3    H127980   2.731   2.361  15.560
 2163TIP3    H227981   2.729   2.283  15.430
 2164TIP3   OH227982   1.584   0.290   3.801
 2164TIP3    H127983   1.544   0.220   3.749
 2164TIP3    H227984   1.624   0.245   3.875
 2165TIP3   OH227985   6.755   3.889   6.166
 2165TIP3    H127986   6.753   3.975   6.207
 2165TIP3    H227987   6.703   3.833   6.224
 2166TIP3   OH227988   0.137   5.600   0.469
 2166TIP3    H127989   0.079   5.536   0.428
 2166TIP3    H227990   0.172   5.651   0.396
 2167TIP3   OH227991   2.060   4.350  13.033
 2167TIP3    H127992   2.109   4.365  12.952
 2167TIP3    H227993   1.968   4.350  13.005
 2168TIP3   OH227994   1.748   6.672   4.577
 2168TIP3    H127995   1.695   6.709   4.647
 2168TIP3    H227996   1.704   6.591   4.553
 2169TIP3   OH227997   2.066   0.916  14.657
 2169TIP3    H127998   2.160   0.927  14.673
 2169TIP3    H227999   2.060   0.902  14.563
 2170TIP3   OH228000   3.723   0.596   3.684
 2170TIP3    H128001   3.637   0.593   3.644
 2170TIP3    H228002   3.715   0.662   3.753
 2171TIP3   OH228003   4.733   5.324  13.113
 2171TIP3    H128004   4.661   5.386  13.127
 2171TIP3    H228005   4.717   5.289  13.025
 2172TIP3   OH228006   0.354   5.781   1.698
 2172TIP3    H128007   0.278   5.832   1.671
 2172TIP3    H228008   0.330   5.690   1.677
 2173TIP3   OH228009   3.569   3.851   1.285
 2173TIP3    H128010   3.477   3.853   1.312
 2173TIP3    H228011   3.579   3.766   1.242
 2174TIP3   OH228012   3.895   2.382  11.954
 2174TIP3    H128013   3.959   2.327  12.000
 2174TIP3    H228014   3.814   2.332  11.959
 2175TIP3   OH228015   4.399   1.883  13.412
 2175TIP3    H128016   4.440   1.800  13.389
 2175TIP3    H228017   4.400   1.935  13.332
 2176TIP3   OH228018   3.227   4.255   4.565
 2176TIP3    H128019   3.132   4.259   4.555
 2176TIP3    H228020   3.243   4.277   4.657
 2177TIP3   OH228021   0.086   3.633  12.087
 2177TIP3    H128022   0.089   3.539  12.068
 2177TIP3    H228023   0.141   3.672  12.019
 2178TIP3   OH228024   1.275   2.816  15.672
 2178TIP3    H128025   1.312   2.902  15.650
 2178TIP3    H228026   1.255   2.776  15.587
 2179TIP3   OH228027   3.909   4.380   0.858
 2179TIP3    H128028   3.936   4.472   0.864
 2179TIP3    H228029   3.815   4.384   0.840
 2180TIP3   OH228030   6.335   0.920   2.633
 2180TIP3    H128031   6.315   0.832   2.601
 2180TIP3    H228032   6.376   0.906   2.718
 2181TIP3   OH228033   3.913   3.026  12.858
 2181TIP3    H128034   3.945   2.972  12.787
 2181TIP3    H228035   3.992   3.057  12.903
 2182TIP3   OH228036   5.198   0.996   4.836
 2182TIP3    H128037   5.173   0.951   4.917
 2182TIP3    H228038   5.292   1.010   4.845
 2183TIP3   OH228039   3.586   5.637   3.897
 2183TIP3    H128040   3.628   5.597   3.973
 2183TIP3    H228041   3.551   5.720   3.929
 2184TIP3   OH228042   0.023   3.361   0.144
 2184TIP3    H128043  -0.010   3.274   0.122
 2184TIP3    H228044  -0.031   3.421   0.093
 2185TIP3   OH228045   3.354   1.993  17.156
 2185TIP3    H128046   3.448   1.976  17.169
 2185TIP3    H228047   3.327   2.039  17.236
 2186TIP3   OH228048   1.039   5.912  15.553
 2186TIP3    H128049   0.969   5.977  15.543
 2186TIP3    H228050   1.058   5.911  15.647
 2187TIP3   OH228051   1.165   3.674   3.667
 2187TIP3    H128052   1.183   3.765   3.643
 2187TIP3    H228053   1.154   3.677   3.762
 2188TIP3   OH228054   1.564   3.802   4.257
 2188TIP3    H128055   1.493   3.865   4.270
 2188TIP3    H228056   1.564   3.750   4.337
 2189TIP3   OH228057   6.044   1.845  16.260
 2189TIP3    H128058   6.090   1.908  16.315
 2189TIP3    H228059   6.104   1.771  16.253
 2190TIP3   OH228060   6.058   1.938  12.983
 2190TIP3    H128061   5.967   1.950  12.956
 2190TIP3    H228062   6.092   2.027  12.991
 2191TIP3   OH228063   3.614   5.987  12.443
 2191TIP3    H128064   3.581   5.898  12.459
 2191TIP3    H228065   3.595   6.034  12.524
 2192TIP3   OH228066   5.927   2.481   5.178
 2192TIP3    H128067   5.977   2.528   5.245
 2192TIP3    H228068   5.840   2.519   5.182
 2193TIP3   OH228069   1.490   5.743   1.534
 2193TIP3    H128070   1.528   5.656   1.547
 2193TIP3    H228071   1.396   5.729   1.537
 2194TIP3   OH228072   3.071   0.168   1.152
 2194TIP3    H128073   3.167   0.175   1.158
 2194TIP3    H228074   3.054   0.075   1.162
 2195TIP3   OH228075   2.322   1.307   2.112
 2195TIP3    H128076   2.369   1.389   2.125
 2195TIP3    H228077   2.296   1.280   2.200
 2196TIP3   OH228078   5.494   2.318  10.972
 2196TIP3    H128079   5.588   2.318  10.988
 2196TIP3    H228080   5.485   2.357  10.885
 2197TIP3   OH228081   4.550   0.873   1.322
 2197TIP3    H128082   4.636   0.830   1.328
 2197TIP3    H228083   4.542   0.898   1.230
 2198TIP3   OH228084   5.167   2.182   0.789
 2198TIP3    H128085   5.227   2.124   0.743
 2198TIP3    H228086   5.171   2.264   0.740
 2199TIP3   OH228087   2.691   0.487   1.536
 2199TIP3    H128088   2.746   0.553   1.494
 2199TIP3    H228089   2.608   0.491   1.489
 2200TIP3   OH228090   5.504   4.817  13.618
 2200TIP3    H128091   5.504   4.753  13.547
 2200TIP3    H228092   5.583   4.870  13.603
 2201TIP3   OH228093   5.375   2.641   5.938
 2201TIP3    H128094   5.438   2.581   5.976
 2201TIP3    H228095   5.325   2.675   6.012
 2202TIP3   OH228096   2.740   6.594   5.769
 2202TIP3    H128097   2.779   6.682   5.763
 2202TIP3    H228098   2.726   6.568   5.678
 2203TIP3   OH228099   0.523   3.870  12.072
 2203TIP3    H128100   0.472   3.946  12.100
 2203TIP3    H228101   0.472   3.795  12.102
 2204TIP3   OH228102   2.035   4.060  11.208
 2204TIP3    H128103   2.030   4.100  11.295
 2204TIP3    H228104   2.107   3.997  11.215
 2205TIP3   OH228105   6.191   1.242  10.701
 2205TIP3    H128106   6.121   1.250  10.767
 2205TIP3    H228107   6.206   1.148  10.693
 2206TIP3   OH228108   5.342   2.924  12.532
 2206TIP3    H128109   5.356   2.836  12.567
 2206TIP3    H228110   5.302   2.910  12.446
 2207TIP3   OH228111   5.605   4.102   3.979
 2207TIP3    H128112   5.596   4.155   3.900
 2207TIP3    H228113   5.652   4.157   4.041
 2208TIP3   OH228114   1.587   1.298   2.620
 2208TIP3    H128115   1.662   1.357   2.613
 2208TIP3    H228116   1.557   1.286   2.530
 2209TIP3   OH228117   4.698   4.130   3.071
 2209TIP3    H128118   4.773   4.108   3.127
 2209TIP3    H228119   4.723   4.212   3.028
 2210TIP3   OH228120   5.164   2.119   2.889
 2210TIP3    H128121   5.103   2.140   2.961
 2210TIP3    H228122   5.109   2.075   2.824
 2211TIP3   OH228123   2.460   2.510   0.347
 2211TIP3    H128124   2.468   2.598   0.384
 2211TIP3    H228125   2.403   2.521   0.271
 2212TIP3   OH228126   5.260   6.429  12.100
 2212TIP3    H128127   5.335   6.374  12.077
 2212TIP3    H228128   5.200   6.369  12.145
 2213TIP3   OH228129   3.343   2.491  14.495
 2213TIP3    H128130   3.320   2.582  14.514
 2213TIP3    H228131   3.439   2.491  14.491
 2214TIP3   OH228132   6.252   0.047   3.399
 2214TIP3    H128133   6.299   0.109   3.456
 2214TIP3    H228134   6.257   0.086   3.312
 2215TIP3   OH228135   4.542   2.317  11.941
 2215TIP3    H128136   4.552   2.259  11.866
 2215TIP3    H228137   4.448   2.323  11.954
 2216TIP3   OH228138   6.329   0.118  13.278
 2216TIP3    H128139   6.241   0.099  13.245
 2216TIP3    H228140   6.360   0.034  13.312
 2217TIP3   OH228141   4.912   3.797   6.131
 2217TIP3    H128142   4.927   3.703   6.120
 2217TIP3    H228143   4.954   3.837   6.055
 2218TIP3   OH228144   6.076   5.380   5.927
 2218TIP3    H128145   5.984   5.361   5.943
 2218TIP3    H228146   6.099   5.446   5.993
 2219TIP3   OH228147   4.882   5.309   0.654
 2219TIP3    H128148   4.816   5.353   0.601
 2219TIP3    H228149   4.832   5.256   0.716
 2220TIP3   OH228150   3.553   0.441   1.492
 2220TIP3    H128151   3.642   0.448   1.458
 2220TIP3    H228152   3.557   0.481   1.579
 2221TIP3   OH228153   5.234   5.888  10.751
 2221TIP3    H128154   5.211   5.899  10.659
 2221TIP3    H228155   5.309   5.828  10.750
 2222TIP3   OH228156   5.183   1.997   5.094
 2222TIP3    H128157   5.269   2.000   5.051
 2222TIP3    H228158   5.153   2.088   5.093
 2223TIP3   OH228159   3.690   0.595  12.889
 2223TIP3    H128160   3.761   0.582  12.952
 2223TIP3    H228161   3.650   0.678  12.914
 2224TIP3   OH228162   4.377   1.956   3.846
 2224TIP3    H128163   4.394   2.050   3.846
 2224TIP3    H228164   4.291   1.947   3.805
 2225TIP3   OH228165   6.286   3.887  14.349
 2225TIP3    H128166   6.230   3.818  14.312
 2225TIP3    H228167   6.239   3.968  14.330
 2226TIP3   OH228168   2.367   1.215  15.846
 2226TIP3    H128169   2.300   1.218  15.914
 2226TIP3    H228170   2.354   1.294  15.794
 2227TIP3   OH228171   3.987   5.967   2.624
 2227TIP3    H128172   3.906   5.951   2.575
 2227TIP3    H228173   4.039   5.888   2.611
 2228TIP3   OH228174   6.378   1.231   2.994
 2228TIP3    H128175   6.397   1.198   3.082
 2228TIP3    H228176   6.463   1.236   2.951
 2229TIP3   OH228177   3.611   3.336  15.154
 2229TIP3    H128178   3.592   3.263  15.095
 2229TIP3    H228179   3.570   3.412  15.113
 2230TIP3   OH228180   6.571   6.114  12.784
 2230TIP3    H128181   6.649   6.076  12.744
 2230TIP3    H228182   6.603   6.193  12.828
 2231TIP3   OH228183   3.020   4.403   0.897
 2231TIP3    H128184   2.996   4.479   0.951
 2231TIP3    H228185   3.111   4.386   0.919
 2232TIP3   OH228186   5.509   3.979  11.980
 2232TIP3    H128187   5.481   3.895  11.943
 2232TIP3    H228188   5.471   3.980  12.068
 2233TIP3   OH228189   1.224   4.149  12.738
 2233TIP3    H128190   1.165   4.109  12.801
 2233TIP3    H228191   1.285   4.200  12.791
 2234TIP3   OH228192   4.080   5.387  14.919
 2234TIP3    H128193   4.150   5.396  14.983
 2234TIP3    H228194   4.101   5.452  14.851
 2235TIP3   OH228195   3.356   2.919   6.354
 2235TIP3    H128196   3.371   2.829   6.325
 2235TIP3    H228197   3.443   2.951   6.377
 2236TIP3   OH228198   0.631   5.773   3.375
 2236TIP3    H128199   0.546   5.816   3.375
 2236TIP3    H228200   0.683   5.823   3.311
 2237TIP3   OH228201   2.596   6.071  16.308
 2237TIP3    H128202   2.673   6.119  16.279
 2237TIP3    H228203   2.547   6.134  16.361
 2238TIP3   OH228204   2.529   5.461   0.869
 2238TIP3    H128205   2.553   5.375   0.904
 2238TIP3    H228206   2.451   5.444   0.815
 2239TIP3   OH228207   5.156   2.686   2.902
 2239TIP3    H128208   5.145   2.663   2.994
 2239TIP3    H228209   5.232   2.636   2.873
 2240TIP3   OH228210   1.602   3.072  13.923
 2240TIP3    H128211   1.552   3.094  14.001
 2240TIP3    H228212   1.655   2.996  13.949
 2241TIP3   OH228213   5.519   1.610  16.759
 2241TIP3    H128214   5.468   1.531  16.779
 2241TIP3    H228215   5.581   1.617  16.832
 2242TIP3   OH228216   1.555   2.165  11.358
 2242TIP3    H128217   1.467   2.129  11.369
 2242TIP3    H228218   1.547   2.224  11.282
 2243TIP3   OH228219   0.882   2.194  12.003
 2243TIP3    H128220   0.796   2.234  12.015
 2243TIP3    H228221   0.879   2.113  12.052
 2244TIP3   OH228222   3.193   6.399  12.070
 2244TIP3    H128223   3.282   6.364  12.062
 2244TIP3    H228224   3.164   6.413  11.980
 2245TIP3   OH228225   2.438   4.197  16.121
 2245TIP3    H128226   2.381   4.274  16.121
 2245TIP3    H228227   2.527   4.233  16.125
 2246TIP3   OH228228   4.510   3.466  14.307
 2246TIP3    H128229   4.550   3.379  14.310
 2246TIP3    H228230   4.583   3.526  14.319
 2247TIP3   OH228231   2.188   4.205  12.515
 2247TIP3    H128232   2.123   4.254  12.567
 2247TIP3    H228233   2.243   4.273  12.477
 2248TIP3   OH228234   3.596   4.029   4.284
 2248TIP3    H128235   3.546   4.003   4.361
 2248TIP3    H228236   3.583   4.123   4.278
 2249TIP3   OH228237   2.450   2.971   3.037
 2249TIP3    H128238   2.418   2.922   3.112
 2249TIP3    H228239   2.372   3.017   3.004
 2250TIP3   OH228240   3.814   6.444   2.830
 2250TIP3    H128241   3.880   6.403   2.774
 2250TIP3    H228242   3.748   6.376   2.844
 2251TIP3   OH228243   4.529   1.086   1.504
 2251TIP3    H128244   4.489   1.134   1.431
 2251TIP3    H228245   4.569   1.009   1.463
 2252TIP3   OH228246   2.590   5.814   0.180
 2252TIP3    H128247   2.570   5.872   0.106
 2252TIP3    H228248   2.614   5.731   0.139
 2253TIP3   OH228249   2.257   1.323  12.363
 2253TIP3    H128250   2.297   1.396  12.316
 2253TIP3    H228251   2.283   1.245  12.314
 2254TIP3   OH228252   5.968   2.903   4.247
 2254TIP3    H128253   5.997   2.814   4.266
 2254TIP3    H228254   6.046   2.948   4.216
 2255TIP3   OH228255   2.072   2.259  12.557
 2255TIP3    H128256   1.979   2.250  12.537
 2255TIP3    H228257   2.115   2.193  12.502
 2256TIP3   OH228258   0.250   4.710  12.082
 2256TIP3    H128259   0.268   4.632  12.028
 2256TIP3    H228260   0.155   4.711  12.092
 2257TIP3   OH228261   2.290   3.221   1.940
 2257TIP3    H128262   2.369   3.246   1.891
 2257TIP3    H228263   2.270   3.297   1.993
 2258TIP3   OH228264   0.388   6.569  13.687
 2258TIP3    H128265   0.464   6.551  13.632
 2258TIP3    H228266   0.329   6.495  13.672
 2259TIP3   OH228267   4.009   3.371   1.529
 2259TIP3    H128268   4.074   3.304   1.509
 2259TIP3    H228269   4.042   3.450   1.488
 2260TIP3   OH228270   3.859   2.017   0.880
 2260TIP3    H128271   3.843   1.923   0.885
 2260TIP3    H228272   3.954   2.025   0.873
 2261TIP3   OH228273   1.332   6.082  15.083
 2261TIP3    H128274   1.406   6.024  15.065
 2261TIP3    H228275   1.347   6.113  15.173
 2262TIP3   OH228276   4.056   5.073  13.362
 2262TIP3    H128277   4.093   4.988  13.388
 2262TIP3    H228278   3.961   5.061  13.370
 2263TIP3   OH228279   5.478   5.446  11.381
 2263TIP3    H128280   5.461   5.509  11.451
 2263TIP3    H228281   5.400   5.448  11.326
 2264TIP3   OH228282   6.783   6.770  12.614
 2264TIP3    H128283   6.823   6.834  12.672
 2264TIP3    H228284   6.710   6.735  12.665
 2265TIP3   OH228285   3.270   1.525   3.386
 2265TIP3    H128286   3.365   1.519   3.395
 2265TIP3    H228287   3.240   1.434   3.385
 2266TIP3   OH228288   5.085   0.023  11.677
 2266TIP3    H128289   5.115   0.106  11.640
 2266TIP3    H228290   5.082   0.039  11.771
 2267TIP3   OH228291   4.383   0.261  11.762
 2267TIP3    H128292   4.468   0.303  11.746
 2267TIP3    H228293   4.378   0.252  11.857
 2268TIP3   OH228294   0.861   4.449   2.654
 2268TIP3    H128295   0.836   4.449   2.562
 2268TIP3    H228296   0.880   4.357   2.675
 2269TIP3   OH228297   3.887   1.937  12.003
 2269TIP3    H128298   3.810   1.921  11.948
 2269TIP3    H228299   3.881   1.871  12.072
 2270TIP3   OH228300   1.582   4.640  10.992
 2270TIP3    H128301   1.537   4.653  11.075
 2270TIP3    H228302   1.527   4.684  10.928
 2271TIP3   OH228303   0.267   2.480  16.213
 2271TIP3    H128304   0.257   2.495  16.119
 2271TIP3    H228305   0.307   2.394  16.220
 2272TIP3   OH228306   5.336   1.946  13.415
 2272TIP3    H128307   5.303   1.862  13.445
 2272TIP3    H228308   5.356   1.932  13.322
 2273TIP3   OH228309   3.632   3.253   2.231
 2273TIP3    H128310   3.699   3.218   2.172
 2273TIP3    H228311   3.674   3.257   2.316
 2274TIP3   OH228312   2.417   5.269  10.454
 2274TIP3    H128313   2.344   5.247  10.396
 2274TIP3    H228314   2.489   5.212  10.425
 2275TIP3   OH228315   5.035   3.439  13.964
 2275TIP3    H128316   5.113   3.495  13.960
 2275TIP3    H228317   4.991   3.452  13.880
 2276TIP3   OH228318   3.233   1.174  15.660
 2276TIP3    H128319   3.195   1.213  15.581
 2276TIP3    H228320   3.286   1.101  15.627
 2277TIP3   OH228321   3.681   4.906   0.622
 2277TIP3    H128322   3.624   4.832   0.643
 2277TIP3    H228323   3.643   4.944   0.542
 2278TIP3   OH228324   3.713   4.735   4.766
 2278TIP3    H128325   3.680   4.719   4.678
 2278TIP3    H228326   3.638   4.773   4.813
 2279TIP3   OH228327   2.352   0.741   2.992
 2279TIP3    H128328   2.286   0.809   3.004
 2279TIP3    H228329   2.427   0.771   3.043
 2280TIP3   OH228330   2.264   2.738   3.514
 2280TIP3    H128331   2.333   2.697   3.566
 2280TIP3    H228332   2.234   2.812   3.567
 2281TIP3   OH228333   0.573   2.775   5.742
 2281TIP3    H128334   0.481   2.754   5.758
 2281TIP3    H228335   0.600   2.713   5.674
 2282TIP3   OH228336   4.814   0.246  11.952
 2282TIP3    H128337   4.737   0.210  11.996
 2282TIP3    H228338   4.888   0.203  11.995
 2283TIP3   OH228339   2.421   3.353   2.597
 2283TIP3    H128340   2.392   3.349   2.688
 2283TIP3    H228341   2.508   3.314   2.598
 2284TIP3   OH228342   1.687   5.451  13.902
 2284TIP3    H128343   1.592   5.461  13.898
 2284TIP3    H228344   1.721   5.515  13.839
 2285TIP3   OH228345   6.524   3.620  13.922
 2285TIP3    H128346   6.478   3.539  13.944
 2285TIP3    H228347   6.615   3.594  13.909
 2286TIP3   OH228348   1.624   0.149  12.353
 2286TIP3    H128349   1.669   0.077  12.309
 2286TIP3    H228350   1.694   0.197  12.397
 2287TIP3   OH228351   5.743   6.443   3.856
 2287TIP3    H128352   5.757   6.430   3.949
 2287TIP3    H228353   5.810   6.506   3.830
 2288TIP3   OH228354   3.938   5.379  12.613
 2288TIP3    H128355   4.010   5.365  12.675
 2288TIP3    H228356   3.973   5.350  12.529
 2289TIP3   OH228357   1.316   0.656   2.028
 2289TIP3    H128358   1.313   0.741   2.071
 2289TIP3    H228359   1.227   0.621   2.039
 2290TIP3   OH228360   5.695   6.011  15.739
 2290TIP3    H128361   5.695   5.927  15.785
 2290TIP3    H228362   5.786   6.042  15.745
 2291TIP3   OH228363   2.046   0.368  17.209
 2291TIP3    H128364   1.954   0.354  17.187
 2291TIP3    H228365   2.053   0.341  17.301
 2292TIP3   OH228366   4.085   2.251   5.989
 2292TIP3    H128367   4.113   2.210   5.907
 2292TIP3    H228368   4.063   2.177   6.046
 2293TIP3   OH228369   5.078   2.372   3.816
 2293TIP3    H128370   5.017   2.307   3.849
 2293TIP3    H228371   5.165   2.332   3.827
 2294TIP3   OH228372   5.418   6.309  11.348
 2294TIP3    H128373   5.506   6.284  11.319
 2294TIP3    H228374   5.372   6.333  11.267
 2295TIP3   OH228375   2.980   6.019  16.407
 2295TIP3    H128376   3.074   6.036  16.412
 2295TIP3    H228377   2.949   6.074  16.335
 2296TIP3   OH228378   3.811   0.831   4.196
 2296TIP3    H128379   3.861   0.814   4.276
 2296TIP3    H228380   3.731   0.873   4.226
 2297TIP3   OH228381   5.576   2.614  14.377
 2297TIP3    H128382   5.498   2.606  14.323
 2297TIP3    H228383   5.604   2.524  14.392
 2298TIP3   OH228384   4.395   5.229  10.959
 2298TIP3    H128385   4.422   5.189  11.042
 2298TIP3    H228386   4.428   5.319  10.964
 2299TIP3   OH228387   3.677   3.172   0.325
 2299TIP3    H128388   3.717   3.175   0.412
 2299TIP3    H228389   3.592   3.216   0.337
 2300TIP3   OH228390   4.950   2.484  11.621
 2300TIP3    H128391   4.874   2.496  11.679
 2300TIP3    H228392   4.921   2.420  11.556
 2301TIP3   OH228393   5.086   0.286   2.862
 2301TIP3    H128394   5.058   0.195   2.857
 2301TIP3    H228395   5.047   0.319   2.943
 2302TIP3   OH228396   4.835   2.572  16.985
 2302TIP3    H128397   4.918   2.608  17.018
 2302TIP3    H228398   4.770   2.599  17.050
 2303TIP3   OH228399   1.459   0.962   2.346
 2303TIP3    H128400   1.552   0.941   2.349
 2303TIP3    H228401   1.453   1.052   2.376
 2304TIP3   OH228402   4.006   0.221  11.853
 2304TIP3    H128403   4.043   0.297  11.899
 2304TIP3    H228404   3.965   0.258  11.775
 2305TIP3   OH228405   3.233   3.178   1.545
 2305TIP3    H128406   3.144   3.211   1.554
 2305TIP3    H228407   3.288   3.256   1.542
 2306TIP3   OH228408   4.298   1.804  16.649
 2306TIP3    H128409   4.292   1.869  16.719
 2306TIP3    H228410   4.291   1.854  16.568
 2307TIP3   OH228411   1.437   6.693  11.708
 2307TIP3    H128412   1.524   6.690  11.669
 2307TIP3    H228413   1.438   6.622  11.773
 2308TIP3   OH228414   2.234   4.610   6.539
 2308TIP3    H128415   2.146   4.627   6.573
 2308TIP3    H228416   2.291   4.618   6.615
 2309TIP3   OH228417   5.047   3.318  14.694
 2309TIP3    H128418   5.123   3.284  14.741
 2309TIP3    H228419   4.973   3.267  14.728
 2310TIP3   OH228420   3.130   3.483   6.263
 2310TIP3    H128421   3.189   3.419   6.304
 2310TIP3    H228422   3.177   3.566   6.270
 2311TIP3   OH228423   5.637   5.272  16.870
 2311TIP3    H128424   5.621   5.353  16.820
 2311TIP3    H228425   5.620   5.202  16.807
 2312TIP3   OH228426   0.750   5.885   4.012
 2312TIP3    H128427   0.845   5.875   4.010
 2312TIP3    H228428   0.718   5.825   3.944
 2313TIP3   OH228429   0.116   4.490   4.784
 2313TIP3    H128430   0.077   4.501   4.697
 2313TIP3    H228431   0.065   4.420   4.824
 2314TIP3   OH228432   3.213   2.446   5.970
 2314TIP3    H128433   3.195   2.504   6.045
 2314TIP3    H228434   3.307   2.432   5.973
 2315TIP3   OH228435   4.262   3.325   5.481
 2315TIP3    H128436   4.223   3.241   5.505
 2315TIP3    H228437   4.312   3.351   5.559
 2316TIP3   OH228438   1.247   0.934   2.164
 2316TIP3    H128439   1.316   0.946   2.230
 2316TIP3    H228440   1.167   0.919   2.215
 2317TIP3   OH228441   5.350   1.317   2.981
 2317TIP3    H128442   5.443   1.309   3.003
 2317TIP3    H228443   5.317   1.227   2.989
 2318TIP3   OH228444   4.474   6.660  10.334
 2318TIP3    H128445   4.380   6.674  10.323
 2318TIP3    H228446   4.491   6.575  10.293
 2319TIP3   OH228447   0.367   0.147  15.508
 2319TIP3    H128448   0.285   0.102  15.530
 2319TIP3    H228449   0.429   0.076  15.492
 2320TIP3   OH228450   2.673   0.989   2.143
 2320TIP3    H128451   2.731   0.956   2.074
 2320TIP3    H228452   2.619   1.055   2.099
 2321TIP3   OH228453   5.756   5.003  11.527
 2321TIP3    H128454   5.837   5.053  11.517
 2321TIP3    H228455   5.689   5.069  11.545
 2322TIP3   OH228456   6.485   3.855  14.558
 2322TIP3    H128457   6.422   3.854  14.486
 2322TIP3    H228458   6.433   3.834  14.635
 2323TIP3   OH228459   5.202   4.368   1.887
 2323TIP3    H128460   5.146   4.363   1.964
 2323TIP3    H228461   5.149   4.329   1.817
 2324TIP3   OH228462   4.129   3.951   3.982
 2324TIP3    H128463   4.078   4.023   3.945
 2324TIP3    H228464   4.108   3.876   3.926
 2325TIP3   OH228465   0.108   4.218   3.443
 2325TIP3    H128466   0.110   4.306   3.481
 2325TIP3    H228467   0.134   4.231   3.351
 2326TIP3   OH228468   3.844   0.956   3.026
 2326TIP3    H128469   3.790   1.035   3.021
 2326TIP3    H228470   3.811   0.908   3.102
 2327TIP3   OH228471   0.575   6.363  13.836
 2327TIP3    H128472   0.490   6.345  13.876
 2327TIP3    H228473   0.559   6.355  13.742
 2328TIP3   OH228474   3.442   4.811  16.257
 2328TIP3    H128475   3.446   4.739  16.193
 2328TIP3    H228476   3.349   4.831  16.264
 2329TIP3   OH228477   4.202   4.610  12.065
 2329TIP3    H128478   4.281   4.582  12.112
 2329TIP3    H228479   4.184   4.538  12.005
 2330TIP3   OH228480   6.392   0.775   4.880
 2330TIP3    H128481   6.376   0.796   4.788
 2330TIP3    H228482   6.319   0.815   4.927
 2331TIP3   OH228483   6.240   2.695  14.681
 2331TIP3    H128484   6.164   2.746  14.652
 2331TIP3    H228485   6.239   2.704  14.777
 2332TIP3   OH228486   4.684   2.742   2.351
 2332TIP3    H128487   4.636   2.663   2.326
 2332TIP3    H228488   4.738   2.763   2.274
 2333TIP3   OH228489   2.891   0.979   5.004
 2333TIP3    H128490   2.935   1.001   4.921
 2333TIP3    H228491   2.875   1.064   5.045
 2334TIP3   OH228492   0.276   6.647  15.085
 2334TIP3    H128493   0.269   6.605  14.999
 2334TIP3    H228494   0.185   6.662  15.111
 2335TIP3   OH228495   5.987   1.307   6.010
 2335TIP3    H128496   6.053   1.366   6.045
 2335TIP3    H228497   5.983   1.236   6.074
 2336TIP3   OH228498   6.730   2.307  14.697
 2336TIP3    H128499   6.665   2.297  14.767
 2336TIP3    H228500   6.803   2.251  14.725
 2337TIP3   OH228501   3.032   3.177  16.994
 2337TIP3    H128502   3.055   3.161  16.902
 2337TIP3    H228503   2.947   3.220  16.990
 2338TIP3   OH228504   1.546   3.283  16.710
 2338TIP3    H128505   1.630   3.318  16.680
 2338TIP3    H228506   1.499   3.359  16.744
 2339TIP3   OH228507   3.544   3.537   5.953
 2339TIP3    H128508   3.583   3.471   6.011
 2339TIP3    H228509   3.543   3.617   6.006
 2340TIP3   OH228510   2.970   1.807   2.069
 2340TIP3    H128511   2.983   1.899   2.093
 2340TIP3    H228512   2.882   1.786   2.102
 2341TIP3   OH228513   6.063   2.463  16.364
 2341TIP3    H128514   6.047   2.449  16.458
 2341TIP3    H228515   6.061   2.558  16.353
 2342TIP3   OH228516   5.663   1.614   0.263
 2342TIP3    H128517   5.649   1.621   0.168
 2342TIP3    H228518   5.752   1.582   0.272
 2343TIP3   OH228519   0.735   0.014  12.675
 2343TIP3    H128520   0.824  -0.014  12.697
 2343TIP3    H228521   0.696  -0.061  12.630
 2344TIP3   OH228522   1.892   6.581   4.872
 2344TIP3    H128523   1.887   6.501   4.820
 2344TIP3    H228524   1.958   6.635   4.827
 2345TIP3   OH228525   1.275   3.911  14.686
 2345TIP3    H128526   1.242   3.858  14.613
 2345TIP3    H228527   1.347   3.962  14.647
 2346TIP3   OH228528   0.053   0.164  16.938
 2346TIP3    H128529  -0.009   0.200  17.002
 2346TIP3    H228530   0.077   0.238  16.883
 2347TIP3   OH228531   5.007   4.693  14.210
 2347TIP3    H128532   5.053   4.609  14.198
 2347TIP3    H228533   5.025   4.716  14.302
 2348TIP3   OH228534   4.302   1.160  14.234
 2348TIP3    H128535   4.227   1.113  14.196
 2348TIP3    H228536   4.370   1.154  14.167
 2349TIP3   OH228537   2.386   3.312  11.537
 2349TIP3    H128538   2.384   3.405  11.562
 2349TIP3    H228539   2.446   3.308  11.463
 2350TIP3   OH228540   2.068   0.344  15.062
 2350TIP3    H128541   2.078   0.399  14.985
 2350TIP3    H228542   2.085   0.403  15.136
 2351TIP3   OH228543   4.231   1.492   5.670
 2351TIP3    H128544   4.139   1.488   5.696
 2351TIP3    H228545   4.262   1.577   5.701
 2352TIP3   OH228546   6.599   3.621  11.525
 2352TIP3    H128547   6.665   3.689  11.509
 2352TIP3    H228548   6.643   3.539  11.504
 2353TIP3   OH228549   4.027   0.234   0.441
 2353TIP3    H128550   4.087   0.307   0.458
 2353TIP3    H228551   3.971   0.230   0.518
 2354TIP3   OH228552   0.391   4.271   0.290
 2354TIP3    H128553   0.397   4.215   0.213
 2354TIP3    H228554   0.479   4.270   0.328
 2355TIP3   OH228555   1.092   3.444  16.890
 2355TIP3    H128556   1.084   3.366  16.834
 2355TIP3    H228557   1.090   3.518  16.830
 2356TIP3   OH228558   1.463   0.331  16.194
 2356TIP3    H128559   1.525   0.266  16.163
 2356TIP3    H228560   1.432   0.296  16.278
 2357TIP3   OH228561   0.253   6.139  12.417
 2357TIP3    H128562   0.252   6.078  12.491
 2357TIP3    H228563   0.164   6.134  12.381
 2358TIP3   OH228564   1.248   0.481   4.252
 2358TIP3    H128565   1.188   0.408   4.233
 2358TIP3    H228566   1.200   0.559   4.224
 2359TIP3   OH228567   6.149   6.442   0.414
 2359TIP3    H128568   6.111   6.357   0.388
 2359TIP3    H228569   6.204   6.421   0.489
 2360TIP3   OH228570   5.950   4.521  13.777
 2360TIP3    H128571   5.939   4.429  13.802
 2360TIP3    H228572   5.981   4.518  13.687
 2361TIP3   OH228573   6.761   6.547   1.204
 2361TIP3    H128574   6.796   6.526   1.291
 2361TIP3    H228575   6.796   6.634   1.184
 2362TIP3   OH228576   0.392   0.181   0.037
 2362TIP3    H128577   0.436   0.165   0.120
 2362TIP3    H228578   0.353   0.097   0.013
 2363TIP3   OH228579   2.741   6.590  11.908
 2363TIP3    H128580   2.817   6.608  11.852
 2363TIP3    H228581   2.689   6.528  11.857
 2364TIP3   OH228582   5.532   3.896  15.756
 2364TIP3    H128583   5.616   3.916  15.798
 2364TIP3    H228584   5.556   3.843  15.680
 2365TIP3   OH228585   4.004   4.222  16.081
 2365TIP3    H128586   4.041   4.144  16.040
 2365TIP3    H228587   4.065   4.243  16.152
 2366TIP3   OH228588   4.924   2.774  10.992
 2366TIP3    H128589   4.960   2.751  11.078
 2366TIP3    H228590   4.902   2.690  10.952
 2367TIP3   OH228591   3.353   3.605  13.726
 2367TIP3    H128592   3.355   3.509  13.729
 2367TIP3    H228593   3.260   3.627  13.731
 2368TIP3   OH228594   5.739   4.499  12.377
 2368TIP3    H128595   5.832   4.487  12.354
 2368TIP3    H228596   5.732   4.463  12.465
 2369TIP3   OH228597   4.646   3.798  16.142
 2369TIP3    H128598   4.660   3.795  16.237
 2369TIP3    H228599   4.725   3.842  16.108
 2370TIP3   OH228600   1.780   6.308  10.906
 2370TIP3    H128601   1.752   6.400  10.897
 2370TIP3    H228602   1.761   6.286  10.997
 2371TIP3   OH228603   6.196   4.506  13.051
 2371TIP3    H128604   6.259   4.553  13.105
 2371TIP3    H228605   6.149   4.450  13.112
 2372TIP3   OH228606   0.061   1.242   1.823
 2372TIP3    H128607  -0.019   1.290   1.800
 2372TIP3    H228608   0.052   1.159   1.777
 2373TIP3   OH228609   5.828   0.606   0.725
 2373TIP3    H128610   5.863   0.534   0.673
 2373TIP3    H228611   5.859   0.588   0.814
 2374TIP3   OH228612   4.719   2.497   5.022
 2374TIP3    H128613   4.714   2.431   4.953
 2374TIP3    H228614   4.672   2.572   4.987
 2375TIP3   OH228615   4.408   3.993   2.569
 2375TIP3    H128616   4.323   4.005   2.527
 2375TIP3    H228617   4.459   4.069   2.542
 2376TIP3   OH228618   4.622   6.336   1.023
 2376TIP3    H128619   4.593   6.298   0.940
 2376TIP3    H228620   4.597   6.428   1.018
 2377TIP3   OH228621   2.642   2.250   4.293
 2377TIP3    H128622   2.634   2.195   4.371
 2377TIP3    H228623   2.556   2.247   4.251
 2378TIP3   OH228624   3.727   4.114   0.690
 2378TIP3    H128625   3.821   4.133   0.687
 2378TIP3    H228626   3.720   4.022   0.665
 2379TIP3   OH228627   0.282   5.346   1.935
 2379TIP3    H128628   0.368   5.318   1.905
 2379TIP3    H228629   0.246   5.271   1.983
 2380TIP3   OH228630   3.565   4.152   1.715
 2380TIP3    H128631   3.579   4.105   1.797
 2380TIP3    H228632   3.487   4.205   1.731
 2381TIP3   OH228633   3.221   1.441  16.523
 2381TIP3    H128634   3.259   1.509  16.467
 2381TIP3    H228635   3.129   1.439  16.497
 2382TIP3   OH228636   1.415   2.798  11.918
 2382TIP3    H128637   1.431   2.812  12.011
 2382TIP3    H228638   1.359   2.872  11.893
 2383TIP3   OH228639   1.701   4.667   5.957
 2383TIP3    H128640   1.733   4.661   5.867
 2383TIP3    H228641   1.778   4.651   6.011
 2384TIP3   OH228642   2.425   4.550  15.287
 2384TIP3    H128643   2.349   4.495  15.268
 2384TIP3    H228644   2.432   4.549  15.382
 2385TIP3   OH228645   0.285   1.072   1.943
 2385TIP3    H128646   0.275   1.056   1.849
 2385TIP3    H228647   0.370   1.035   1.965
 2386TIP3   OH228648   4.795   2.751   0.915
 2386TIP3    H128649   4.738   2.704   0.975
 2386TIP3    H228650   4.737   2.808   0.865
 2387TIP3   OH228651   6.006   6.523  14.171
 2387TIP3    H128652   5.918   6.557  14.154
 2387TIP3    H228653   6.062   6.601  14.170
 2388TIP3   OH228654   5.983   1.330  16.057
 2388TIP3    H128655   5.923   1.380  16.112
 2388TIP3    H228656   5.954   1.347  15.967
 2389TIP3   OH228657   6.726   5.947  11.090
 2389TIP3    H128658   6.765   5.936  11.003
 2389TIP3    H228659   6.784   5.898  11.149
 2390TIP3   OH228660   1.622   0.156  12.972
 2390TIP3    H128661   1.575   0.075  12.952
 2390TIP3    H228662   1.656   0.185  12.887
 2391TIP3   OH228663   4.132   0.110   5.375
 2391TIP3    H128664   4.069   0.182   5.380
 2391TIP3    H228665   4.104   0.049   5.444
 2392TIP3   OH228666   1.939   5.126  14.958
 2392TIP3    H128667   1.992   5.206  14.961
 2392TIP3    H228668   1.879   5.140  14.885
 2393TIP3   OH228669   2.186   0.507   4.696
 2393TIP3    H128670   2.280   0.503   4.678
 2393TIP3    H228671   2.146   0.509   4.609
 2394TIP3   OH228672   5.928   3.077   2.002
 2394TIP3    H128673   5.967   3.038   2.080
 2394TIP3    H228674   5.888   3.003   1.956
 2395TIP3   OH228675   0.212   4.683  14.301
 2395TIP3    H128676   0.292   4.673  14.250
 2395TIP3    H228677   0.210   4.608  14.360
 2396TIP3   OH228678   3.996   6.044   2.208
 2396TIP3    H128679   3.952   6.128   2.204
 2396TIP3    H228680   4.069   6.058   2.268
 2397TIP3   OH228681   0.739   3.217   1.370
 2397TIP3    H128682   0.751   3.224   1.275
 2397TIP3    H228683   0.724   3.307   1.398
 2398TIP3   OH228684   5.944   0.272  12.698
 2398TIP3    H128685   5.976   0.268  12.608
 2398TIP3    H228686   5.851   0.292  12.690
 2399TIP3   OH228687   3.329   6.529  11.231
 2399TIP3    H128688   3.357   6.621  11.223
 2399TIP3    H228689   3.317   6.500  11.141
 2400TIP3   OH228690   0.312   2.923   5.109
 2400TIP3    H128691   0.312   2.876   5.026
 2400TIP3    H228692   0.263   2.866   5.168
 2401TIP3   OH228693   3.675   6.427  11.983
 2401TIP3    H128694   3.741   6.391  11.923
 2401TIP3    H228695   3.724   6.485  12.041
 2402TIP3   OH228696   3.246   4.101   1.275
 2402TIP3    H128697   3.238   4.015   1.234
 2402TIP3    H228698   3.308   4.087   1.347
 2403TIP3   OH228699   1.570   2.683   0.113
 2403TIP3    H128700   1.623   2.665   0.191
 2403TIP3    H228701   1.486   2.713   0.149
 2404TIP3   OH228702   3.462   4.412  12.447
 2404TIP3    H128703   3.474   4.319  12.465
 2404TIP3    H228704   3.549   4.445  12.427
 2405TIP3   OH228705   2.245   0.717   5.724
 2405TIP3    H128706   2.236   0.637   5.672
 2405TIP3    H228707   2.335   0.747   5.706
 2406TIP3   OH228708   1.491   2.954  16.338
 2406TIP3    H128709   1.476   3.020  16.406
 2406TIP3    H228710   1.416   2.963  16.279
 2407TIP3   OH228711   1.195   4.463  14.367
 2407TIP3    H128712   1.257   4.436  14.301
 2407TIP3    H228713   1.188   4.558  14.357
 2408TIP3   OH228714   5.345   6.725  14.099
 2408TIP3    H128715   5.332   6.747  14.006
 2408TIP3    H228716   5.257   6.726  14.136
 2409TIP3   OH228717   2.448   0.027  13.300
 2409TIP3    H128718   2.496  -0.026  13.237
 2409TIP3    H228719   2.355   0.011  13.281
 2410TIP3   OH228720   1.539   1.650  15.844
 2410TIP3    H128721   1.459   1.602  15.820
 2410TIP3    H228722   1.539   1.727  15.786
 2411TIP3   OH228723   1.200   3.066   5.436
 2411TIP3    H128724   1.167   3.117   5.510
 2411TIP3    H228725   1.180   2.975   5.458
 2412TIP3   OH228726   0.829   6.276   6.093
 2412TIP3    H128727   0.802   6.305   6.007
 2412TIP3    H228728   0.922   6.257   6.084
 2413TIP3   OH228729   3.119   1.592  16.121
 2413TIP3    H128730   3.141   1.605  16.213
 2413TIP3    H228731   3.145   1.673  16.078
 2414TIP3   OH228732   3.579   1.070  11.100
 2414TIP3    H128733   3.643   1.122  11.148
 2414TIP3    H228734   3.541   1.131  11.037
 2415TIP3   OH228735   4.616   1.972  14.806
 2415TIP3    H128736   4.525   2.003  14.802
 2415TIP3    H228737   4.635   1.966  14.900
 2416TIP3   OH228738   0.471   4.596   3.923
 2416TIP3    H128739   0.538   4.627   3.983
 2416TIP3    H228740   0.453   4.506   3.952
 2417TIP3   OH228741   5.399   4.379  14.008
 2417TIP3    H128742   5.367   4.289  14.009
 2417TIP3    H228743   5.478   4.376  13.954
 2418TIP3   OH228744   0.608   3.366  14.145
 2418TIP3    H128745   0.626   3.289  14.092
 2418TIP3    H228746   0.657   3.437  14.104
 2419TIP3   OH228747   4.381   4.938   3.432
 2419TIP3    H128748   4.376   4.844   3.451
 2419TIP3    H228749   4.474   4.960   3.439
 2420TIP3   OH228750   4.584   5.248   1.441
 2420TIP3    H128751   4.602   5.222   1.531
 2420TIP3    H228752   4.644   5.321   1.424
 2421TIP3   OH228753   6.742   0.518   1.194
 2421TIP3    H128754   6.728   0.477   1.279
 2421TIP3    H228755   6.656   0.550   1.168
 2422TIP3   OH228756   1.375   2.676  14.230
 2422TIP3    H128757   1.372   2.720  14.145
 2422TIP3    H228758   1.345   2.742  14.292
 2423TIP3   OH228759   6.151   4.112  11.583
 2423TIP3    H128760   6.201   4.172  11.638
 2423TIP3    H228761   6.093   4.169  11.532
 2424TIP3   OH228762   4.659   4.661  14.277
 2424TIP3    H128763   4.713   4.593  14.317
 2424TIP3    H228764   4.657   4.731  14.342
 2425TIP3   OH228765   3.409   0.079  12.382
 2425TIP3    H128766   3.460   0.074  12.463
 2425TIP3    H228767   3.422  -0.006  12.340
 2426TIP3   OH228768   3.025   4.948  13.651
 2426TIP3    H128769   3.088   5.014  13.624
 2426TIP3    H228770   3.001   4.972  13.741
 2427TIP3   OH228771   5.798   3.315  15.071
 2427TIP3    H128772   5.803   3.280  14.982
 2427TIP3    H228773   5.802   3.410  15.061
 2428TIP3   OH228774   5.324   2.211  15.285
 2428TIP3    H128775   5.352   2.230  15.375
 2428TIP3    H228776   5.230   2.193  15.293
 2429TIP3   OH228777   0.214   1.093  12.943
 2429TIP3    H128778   0.216   1.140  12.859
 2429TIP3    H228779   0.132   1.044  12.941
 2430TIP3   OH228780   1.506   3.681  13.329
 2430TIP3    H128781   1.505   3.747  13.398
 2430TIP3    H228782   1.599   3.675  13.304
 2431TIP3   OH228783   1.518   6.353   5.606
 2431TIP3    H128784   1.524   6.346   5.701
 2431TIP3    H228785   1.431   6.321   5.585
 2432TIP3   OH228786   3.718   3.981  10.167
 2432TIP3    H128787   3.644   3.983  10.228
 2432TIP3    H228788   3.794   4.003  10.221
 2433TIP3   OH228789   3.540   1.033  12.628
 2433TIP3    H128790   3.499   1.109  12.669
 2433TIP3    H228791   3.557   1.061  12.537
 2434TIP3   OH228792   2.614   0.382  16.166
 2434TIP3    H128793   2.649   0.471  16.170
 2434TIP3    H228794   2.595   0.368  16.074
 2435TIP3   OH228795   3.893   3.638  12.120
 2435TIP3    H128796   3.871   3.554  12.079
 2435TIP3    H228797   3.820   3.655  12.179
 2436TIP3   OH228798   3.812   3.159  11.526
 2436TIP3    H128799   3.774   3.230  11.475
 2436TIP3    H228800   3.788   3.179  11.616
 2437TIP3   OH228801   0.094   5.778   0.031
 2437TIP3    H128802   0.172   5.770  -0.026
 2437TIP3    H228803   0.022   5.749  -0.025
 2438TIP3   OH228804   0.942   3.312  13.499
 2438TIP3    H128805   0.950   3.338  13.591
 2438TIP3    H228806   0.957   3.392  13.450
 2439TIP3   OH228807   5.527   5.597   1.496
 2439TIP3    H128808   5.464   5.667   1.481
 2439TIP3    H228809   5.576   5.624   1.574
 2440TIP3   OH228810   4.643   2.786  11.632
 2440TIP3    H128811   4.713   2.769  11.695
 2440TIP3    H228812   4.562   2.767  11.679
 2441TIP3   OH228813   2.420   6.459   0.298
 2441TIP3    H128814   2.391   6.542   0.260
 2441TIP3    H228815   2.465   6.414   0.226
 2442TIP3   OH228816   6.056   2.699  16.535
 2442TIP3    H128817   6.084   2.747  16.613
 2442TIP3    H228818   6.135   2.653  16.505
 2443TIP3   OH228819   5.120   0.399   6.750
 2443TIP3    H128820   5.106   0.311   6.784
 2443TIP3    H228821   5.205   0.394   6.705
 2444TIP3   OH228822   3.385   6.224   3.229
 2444TIP3    H128823   3.412   6.211   3.138
 2444TIP3    H228824   3.467   6.229   3.278
 2445TIP3   OH228825   3.099   6.382   5.266
 2445TIP3    H128826   3.129   6.471   5.247
 2445TIP3    H228827   3.084   6.381   5.360
 2446TIP3   OH228828   6.742   6.475  16.627
 2446TIP3    H128829   6.731   6.520  16.711
 2446TIP3    H228830   6.652   6.460  16.597
 2447TIP3   OH228831   5.930   3.656  12.157
 2447TIP3    H128832   6.001   3.633  12.098
 2447TIP3    H228833   5.974   3.679  12.239
 2448TIP3   OH228834   0.598   0.213  15.028
 2448TIP3    H128835   0.623   0.296  14.988
 2448TIP3    H228836   0.502   0.215  15.030
 2449TIP3   OH228837   0.927   2.426  16.894
 2449TIP3    H128838   0.928   2.508  16.844
 2449TIP3    H228839   1.017   2.393  16.888
 2450TIP3   OH228840   2.054   3.384  11.394
 2450TIP3    H128841   2.007   3.317  11.345
 2450TIP3    H228842   2.122   3.414  11.334
 2451TIP3   OH228843   6.791   5.417  14.912
 2451TIP3    H128844   6.705   5.382  14.885
 2451TIP3    H228845   6.781   5.437  15.005
 2452TIP3   OH228846   0.744   0.246   4.761
 2452TIP3    H128847   0.735   0.172   4.702
 2452TIP3    H228848   0.808   0.218   4.826
 2453TIP3   OH228849   5.831   5.132  12.139
 2453TIP3    H128850   5.769   5.060  12.124
 2453TIP3    H228851   5.789   5.208  12.099
 2454TIP3   OH228852   1.400   1.040   6.539
 2454TIP3    H128853   1.335   1.109   6.548
 2454TIP3    H228854   1.477   1.073   6.585
 2455TIP3   OH228855   5.042   4.663   1.993
 2455TIP3    H128856   5.128   4.702   1.978
 2455TIP3    H228857   5.000   4.663   1.906
 2456TIP3   OH228858   1.265   3.411  15.893
 2456TIP3    H128859   1.262   3.492  15.843
 2456TIP3    H228860   1.322   3.353  15.841
 2457TIP3   OH228861   6.498   2.880  13.099
 2457TIP3    H128862   6.504   2.921  13.186
 2457TIP3    H228863   6.484   2.953  13.040
 2458TIP3   OH228864   3.488   6.216  13.402
 2458TIP3    H128865   3.530   6.140  13.361
 2458TIP3    H228866   3.428   6.179  13.467
 2459TIP3   OH228867   2.030   6.625  13.548
 2459TIP3    H128868   2.055   6.640  13.639
 2459TIP3    H228869   2.113   6.618  13.501
 2460TIP3   OH228870   0.477   2.092  17.001
 2460TIP3    H128871   0.552   2.081  16.942
 2460TIP3    H228872   0.454   2.003  17.027
 2461TIP3   OH228873   4.575   5.772   4.499
 2461TIP3    H128874   4.615   5.692   4.533
 2461TIP3    H228875   4.554   5.752   4.408
 2462TIP3   OH228876   0.548   4.725  11.161
 2462TIP3    H128877   0.590   4.639  11.156
 2462TIP3    H228878   0.544   4.755  11.070
 2463TIP3   OH228879   1.052   4.469  15.024
 2463TIP3    H128880   1.062   4.434  15.112
 2463TIP3    H228881   1.136   4.509  15.004
 2464TIP3   OH228882   0.315   5.027  11.516
 2464TIP3    H128883   0.334   5.079  11.438
 2464TIP3    H228884   0.322   4.936  11.487
 2465TIP3   OH228885   0.575   1.053  13.762
 2465TIP3    H128886   0.595   1.140  13.797
 2465TIP3    H228887   0.519   1.013  13.828
 2466TIP3   OH228888   3.436   1.199   4.558
 2466TIP3    H128889   3.348   1.216   4.593
 2466TIP3    H228890   3.424   1.123   4.500
 2467TIP3   OH228891   0.028   4.163   6.297
 2467TIP3    H128892   0.058   4.254   6.287
 2467TIP3    H228893  -0.049   4.170   6.354
 2468TIP3   OH228894   0.413   2.948  13.942
 2468TIP3    H128895   0.489   2.897  13.913
 2468TIP3    H228896   0.428   2.961  14.036
 2469TIP3   OH228897   6.204   3.875  11.727
 2469TIP3    H128898   6.298   3.867  11.738
 2469TIP3    H228899   6.191   3.962  11.690
 2470TIP3   OH228900   1.164   6.376  11.193
 2470TIP3    H128901   1.107   6.447  11.225
 2470TIP3    H228902   1.106   6.300  11.188
 2471TIP3   OH228903   6.610   4.554  12.963
 2471TIP3    H128904   6.635   4.613  13.034
 2471TIP3    H228905   6.549   4.605  12.909
 2472TIP3   OH228906   1.950   4.830   1.818
 2472TIP3    H128907   1.938   4.853   1.726
 2472TIP3    H228908   1.912   4.904   1.866
 2473TIP3   OH228909   2.649   5.836   3.000
 2473TIP3    H128910   2.578   5.822   2.937
 2473TIP3    H228911   2.630   5.773   3.070
 2474TIP3   OH228912   2.007   1.411   2.104
 2474TIP3    H128913   2.092   1.371   2.086
 2474TIP3    H228914   1.985   1.381   2.192
 2475TIP3   OH228915   6.486   6.725   4.571
 2475TIP3    H128916   6.507   6.763   4.657
 2475TIP3    H228917   6.418   6.660   4.590
 2476TIP3   OH228918   3.100   0.906   3.807
 2476TIP3    H128919   3.037   0.835   3.804
 2476TIP3    H228920   3.072   0.960   3.881
 2477TIP3   OH228921   6.739   4.623  13.688
 2477TIP3    H128922   6.709   4.584  13.605
 2477TIP3    H228923   6.704   4.565  13.756
 2478TIP3   OH228924   0.223   6.649   3.843
 2478TIP3    H128925   0.317   6.628   3.847
 2478TIP3    H228926   0.179   6.568   3.866
 2479TIP3   OH228927   2.429   0.590   1.539
 2479TIP3    H128928   2.444   0.633   1.623
 2479TIP3    H228929   2.425   0.661   1.475
 2480TIP3   OH228930   4.207   1.938   3.610
 2480TIP3    H128931   4.148   1.893   3.549
 2480TIP3    H228932   4.225   2.022   3.567
 2481TIP3   OH228933   4.522   3.852   3.403
 2481TIP3    H128934   4.560   3.880   3.319
 2481TIP3    H228935   4.480   3.769   3.384
 2482TIP3   OH228936   4.507   4.263  14.929
 2482TIP3    H128937   4.441   4.208  14.971
 2482TIP3    H228938   4.585   4.207  14.925
 2483TIP3   OH228939   6.719   3.071  15.622
 2483TIP3    H128940   6.688   2.989  15.660
 2483TIP3    H228941   6.643   3.106  15.575
 2484TIP3   OH228942   2.880   6.073   4.185
 2484TIP3    H128943   2.907   6.079   4.276
 2484TIP3    H228944   2.843   5.985   4.176
 2485TIP3   OH228945   3.314   1.387  16.099
 2485TIP3    H128946   3.250   1.457  16.091
 2485TIP3    H228947   3.395   1.425  16.066
 2486TIP3   OH228948   5.637   6.177   5.175
 2486TIP3    H128949   5.657   6.239   5.245
 2486TIP3    H228950   5.610   6.231   5.102
 2487TIP3   OH228951   6.734   5.764   4.949
 2487TIP3    H128952   6.811   5.714   4.923
 2487TIP3    H228953   6.768   5.853   4.965
 2488TIP3   OH228954   1.081   2.849  14.294
 2488TIP3    H128955   1.086   2.798  14.374
 2488TIP3    H228956   1.032   2.793  14.233
 2489TIP3   OH228957   5.120   2.293   2.316
 2489TIP3    H128958   5.160   2.258   2.237
 2489TIP3    H228959   5.029   2.310   2.291
 2490TIP3   OH228960   4.526   1.762  16.397
 2490TIP3    H128961   4.585   1.777  16.471
 2490TIP3    H228962   4.499   1.671  16.406
 2491TIP3   OH228963   3.674   4.713   2.935
 2491TIP3    H128964   3.655   4.761   2.854
 2491TIP3    H228965   3.720   4.775   2.990
 2492TIP3   OH228966   3.975   0.515   3.739
 2492TIP3    H128967   3.892   0.560   3.724
 2492TIP3    H228968   4.041   0.573   3.703
 2493TIP3   OH228969   2.068   6.302  15.609
 2493TIP3    H128970   2.127   6.280  15.681
 2493TIP3    H228971   2.055   6.220  15.562
 2494TIP3   OH228972   3.225   2.293   4.628
 2494TIP3    H128973   3.206   2.268   4.538
 2494TIP3    H228974   3.152   2.259   4.679
 2495TIP3   OH228975   2.109   0.043   5.093
 2495TIP3    H128976   2.145   0.128   5.118
 2495TIP3    H228977   2.178   0.001   5.042
 2496TIP3   OH228978   1.930   3.018  13.047
 2496TIP3    H128979   1.999   2.996  13.109
 2496TIP3    H228980   1.895   3.102  13.078
 2497TIP3   OH228981   6.639   2.921  10.749
 2497TIP3    H128982   6.671   3.011  10.753
 2497TIP3    H228983   6.668   2.882  10.831
 2498TIP3   OH228984   6.610   6.749   3.890
 2498TIP3    H128985   6.527   6.745   3.842
 2498TIP3    H228986   6.605   6.831   3.940
 2499TIP3   OH228987   0.997   3.720  13.725
 2499TIP3    H128988   1.036   3.727  13.812
 2499TIP3    H228989   0.970   3.628  13.718
 2500TIP3   OH228990   1.622   2.624  14.963
 2500TIP3    H128991   1.663   2.570  15.031
 2500TIP3    H228992   1.644   2.714  14.987
 2501TIP3   OH228993   5.791   0.218  10.644
 2501TIP3    H128994   5.716   0.158  10.638
 2501TIP3    H228995   5.752   0.305  10.651
 2502TIP3   OH228996   2.193   5.805  16.792
 2502TIP3    H128997   2.223   5.714  16.800
 2502TIP3    H228998   2.148   5.808  16.708
 2503TIP3   OH228999   2.978   4.839   0.691
 2503TIP3    H129000   2.968   4.756   0.644
 2503TIP3    H229001   2.891   4.859   0.724
 2504TIP3   OH229002   6.406   4.445  15.856
 2504TIP3    H129003   6.443   4.505  15.792
 2504TIP3    H229004   6.480   4.389  15.883
 2505TIP3   OH229005   0.391   1.752  15.068
 2505TIP3    H129006   0.320   1.775  15.009
 2505TIP3    H229007   0.404   1.658  15.055
 2506TIP3   OH229008   4.884   3.202   0.398
 2506TIP3    H129009   4.891   3.186   0.303
 2506TIP3    H229010   4.973   3.227   0.424
 2507TIP3   OH229011   6.573   1.623  13.495
 2507TIP3    H129012   6.541   1.701  13.451
 2507TIP3    H229013   6.531   1.550  13.449
 2508TIP3   OH229014   4.786   0.101  15.848
 2508TIP3    H129015   4.743   0.093  15.934
 2508TIP3    H229016   4.879   0.096  15.868
 2509TIP3   OH229017   1.716   4.418  16.263
 2509TIP3    H129018   1.764   4.494  16.296
 2509TIP3    H229019   1.625   4.433  16.290
 2510TIP3   OH229020   1.500   5.462  13.266
 2510TIP3    H129021   1.552   5.464  13.185
 2510TIP3    H229022   1.412   5.438  13.237
 2511TIP3   OH229023   3.880   3.892  12.004
 2511TIP3    H129024   3.882   3.801  12.036
 2511TIP3    H229025   3.849   3.943  12.080
 2512TIP3   OH229026   6.272   4.380  16.091
 2512TIP3    H129027   6.223   4.305  16.057
 2512TIP3    H229028   6.313   4.418  16.013
 2513TIP3   OH229029   4.720   3.951  17.170
 2513TIP3    H129030   4.754   3.880  17.225
 2513TIP3    H229031   4.642   3.913  17.128
 2514TIP3   OH229032   0.891   2.839  12.632
 2514TIP3    H129033   0.960   2.783  12.597
 2514TIP3    H229034   0.934   2.922  12.651
 2515TIP3   OH229035   6.552   1.908  13.694
 2515TIP3    H129036   6.592   1.821  13.686
 2515TIP3    H229037   6.625   1.967  13.711
 2516TIP3   OH229038   4.137   2.517   1.995
 2516TIP3    H129039   4.087   2.503   1.914
 2516TIP3    H229040   4.105   2.601   2.028
 2517TIP3   OH229041   0.369   5.702   5.072
 2517TIP3    H129042   0.389   5.611   5.049
 2517TIP3    H229043   0.285   5.720   5.030
 2518TIP3   OH229044   1.614   3.444  17.005
 2518TIP3    H129045   1.684   3.378  17.003
 2518TIP3    H229046   1.544   3.402  17.055
 2519TIP3   OH229047   0.597   4.737  12.906
 2519TIP3    H129048   0.679   4.727  12.954
 2519TIP3    H229049   0.531   4.697  12.963
 2520TIP3   OH229050   6.718   5.879  11.596
 2520TIP3    H129051   6.801   5.894  11.551
 2520TIP3    H229052   6.727   5.791  11.633
 2521TIP3   OH229053   0.078   4.225   4.035
 2521TIP3    H129054   0.006   4.172   4.070
 2521TIP3    H229055   0.083   4.199   3.943
 2522TIP3   OH229056   5.329   3.975  16.202
 2522TIP3    H129057   5.382   3.896  16.190
 2522TIP3    H229058   5.384   4.033  16.254
 2523TIP3   OH229059   3.861   2.321   0.927
 2523TIP3    H129060   3.817   2.248   0.971
 2523TIP3    H229061   3.954   2.302   0.936
 2524TIP3   OH229062   5.183   5.083   0.678
 2524TIP3    H129063   5.096   5.088   0.638
 2524TIP3    H229064   5.167   5.098   0.771
 2525TIP3   OH229065   3.975   4.595   2.920
 2525TIP3    H129066   3.892   4.643   2.927
 2525TIP3    H229067   4.018   4.633   2.844
 2526TIP3   OH229068   5.069   0.284   4.461
 2526TIP3    H129069   5.133   0.336   4.412
 2526TIP3    H229070   5.121   0.232   4.522
 2527TIP3   OH229071   0.983   0.821  16.511
 2527TIP3    H129072   1.011   0.740  16.554
 2527TIP3    H229073   0.887   0.821  16.521
 2528TIP3   OH229074   3.991   4.036   3.416
 2528TIP3    H129075   4.080   4.025   3.449
 2528TIP3    H229076   3.960   3.947   3.401
 2529TIP3   OH229077   6.445   5.591   1.764
 2529TIP3    H129078   6.356   5.613   1.790
 2529TIP3    H229079   6.477   5.532   1.833
 2530TIP3   OH229080   4.685   3.478  13.080
 2530TIP3    H129081   4.773   3.446  13.060
 2530TIP3    H229082   4.671   3.549  13.017
 2531TIP3   OH229083   0.645   4.333  14.723
 2531TIP3    H129084   0.622   4.388  14.798
 2531TIP3    H229085   0.739   4.320  14.730
 2532TIP3   OH229086   4.845   3.504  11.001
 2532TIP3    H129087   4.855   3.538  11.090
 2532TIP3    H229088   4.823   3.580  10.948
 2533TIP3   OH229089   4.558   0.204  10.642
 2533TIP3    H129090   4.588   0.239  10.726
 2533TIP3    H229091   4.608   0.123  10.630
 2534TIP3   OH229092   4.778   4.645   3.157
 2534TIP3    H129093   4.785   4.675   3.067
 2534TIP3    H229094   4.688   4.664   3.182
 2535TIP3   OH229095   3.687   6.314  13.568
 2535TIP3    H129096   3.685   6.407  13.591
 2535TIP3    H229097   3.630   6.306  13.492
 2536TIP3   OH229098   6.400   4.471  15.260
 2536TIP3    H129099   6.375   4.527  15.334
 2536TIP3    H229100   6.447   4.398  15.299
 2537TIP3   OH229101   3.642   6.043   0.319
 2537TIP3    H129102   3.583   6.110   0.354
 2537TIP3    H229103   3.664   6.075   0.232
 2538TIP3   OH229104   5.893   5.414   5.325
 2538TIP3    H129105   5.833   5.428   5.399
 2538TIP3    H229106   5.836   5.404   5.249
 2539TIP3   OH229107   1.232   4.448  15.468
 2539TIP3    H129108   1.248   4.359  15.499
 2539TIP3    H229109   1.158   4.438  15.407
 2540TIP3   OH229110   5.352   4.346   5.805
 2540TIP3    H129111   5.279   4.286   5.789
 2540TIP3    H229112   5.312   4.420   5.851
 2541TIP3   OH229113   4.468   1.373  15.243
 2541TIP3    H129114   4.392   1.423  15.273
 2541TIP3    H229115   4.538   1.438  15.236
 2542TIP3   OH229116   2.675   0.595  15.586
 2542TIP3    H129117   2.594   0.545  15.579
 2542TIP3    H229118   2.689   0.631  15.499
 2543TIP3   OH229119   2.357   1.710  13.616
 2543TIP3    H129120   2.332   1.713  13.524
 2543TIP3    H229121   2.410   1.789  13.629
 2544TIP3   OH229122   5.381   2.985  14.023
 2544TIP3    H129123   5.393   2.919  13.955
 2544TIP3    H229124   5.303   3.034  13.996
 2545TIP3   OH229125   5.076   3.317   4.740
 2545TIP3    H129126   5.095   3.378   4.669
 2545TIP3    H229127   5.136   3.342   4.810
 2546TIP3   OH229128   6.160   0.758  14.758
 2546TIP3    H129129   6.241   0.800  14.730
 2546TIP3    H229130   6.107   0.751  14.679
 2547TIP3   OH229131   0.126   4.757  15.943
 2547TIP3    H129132   0.138   4.784  15.852
 2547TIP3    H229133   0.196   4.694  15.959
 2548TIP3   OH229134   5.349   4.929   1.259
 2548TIP3    H129135   5.409   4.997   1.230
 2548TIP3    H229136   5.265   4.952   1.218
 2549TIP3   OH229137   2.330   0.493  15.909
 2549TIP3    H129138   2.247   0.518  15.951
 2549TIP3    H229139   2.380   0.574  15.906
 2550TIP3   OH229140   5.984   0.860   3.730
 2550TIP3    H129141   5.904   0.871   3.678
 2550TIP3    H229142   5.954   0.856   3.821
 2551TIP3   OH229143   4.404   1.851  14.449
 2551TIP3    H129144   4.322   1.824  14.406
 2551TIP3    H229145   4.416   1.788  14.520
 2552TIP3   OH229146   5.591   3.149   1.592
 2552TIP3    H129147   5.580   3.054   1.589
 2552TIP3    H229148   5.630   3.166   1.678
 2553TIP3   OH229149   5.556   6.397  13.901
 2553TIP3    H129150   5.477   6.435  13.941
 2553TIP3    H229151   5.595   6.471  13.854
 2554TIP3   OH229152   2.127   2.572   4.487
 2554TIP3    H129153   2.085   2.492   4.516
 2554TIP3    H229154   2.068   2.607   4.420
 2555TIP3   OH229155   3.758   0.133  14.088
 2555TIP3    H129156   3.762   0.124  13.993
 2555TIP3    H229157   3.768   0.043  14.121
 2556TIP3   OH229158   5.521   5.303  10.673
 2556TIP3    H129159   5.488   5.346  10.752
 2556TIP3    H229160   5.464   5.334  10.603
 2557TIP3   OH229161   2.594   2.025  14.701
 2557TIP3    H129162   2.676   2.048  14.745
 2557TIP3    H229163   2.528   2.026  14.770
 2558TIP3   OH229164   6.207   2.974  16.246
 2558TIP3    H129165   6.123   2.932  16.262
 2558TIP3    H229166   6.206   2.997  16.153
 2559TIP3   OH229167   4.529   5.673   4.221
 2559TIP3    H129168   4.588   5.638   4.154
 2559TIP3    H229169   4.477   5.739   4.175
 2560TIP3   OH229170   2.135   1.788   3.827
 2560TIP3    H129171   2.041   1.780   3.843
 2560TIP3    H229172   2.159   1.871   3.867
 2561TIP3   OH229173   5.249   2.660   6.179
 2561TIP3    H129174   5.201   2.743   6.170
 2561TIP3    H229175   5.252   2.644   6.273
 2562TIP3   OH229176   5.186   3.584  16.889
 2562TIP3    H129177   5.263   3.632  16.921
 2562TIP3    H229178   5.167   3.625  16.805
 2563TIP3   OH229179   2.277   0.835  11.212
 2563TIP3    H129180   2.274   0.753  11.262
 2563TIP3    H229181   2.359   0.830  11.162
 2564TIP3   OH229182   2.979   0.631  10.563
 2564TIP3    H129183   3.046   0.648  10.629
 2564TIP3    H229184   2.909   0.693  10.584
 2565TIP3   OH229185   3.885   3.061  16.980
 2565TIP3    H129186   3.865   3.003  17.054
 2565TIP3    H229187   3.816   3.126  16.982
 2566TIP3   OH229188   0.525   5.328  14.333
 2566TIP3    H129189   0.491   5.413  14.362
 2566TIP3    H229190   0.606   5.317  14.382
 2567TIP3   OH229191   6.359   5.773   6.634
 2567TIP3    H129192   6.341   5.848   6.578
 2567TIP3    H229193   6.279   5.721   6.632
 2568TIP3   OH229194   3.404   3.924  16.268
 2568TIP3    H129195   3.325   3.928  16.214
 2568TIP3    H229196   3.426   4.016  16.284
 2569TIP3   OH229197   3.654   4.125   2.240
 2569TIP3    H129198   3.571   4.089   2.209
 2569TIP3    H229199   3.681   4.186   2.172
 2570TIP3   OH229200   2.311   1.144  17.106
 2570TIP3    H129201   2.278   1.184  17.026
 2570TIP3    H229202   2.401   1.178  17.114
 2571TIP3   OH229203   1.247   1.124   2.613
 2571TIP3    H129204   1.158   1.121   2.650
 2571TIP3    H229205   1.235   1.155   2.524
 2572TIP3   OH229206   5.248   3.913  16.713
 2572TIP3    H129207   5.195   3.872  16.645
 2572TIP3    H229208   5.216   4.003  16.719
 2573TIP3   OH229209   3.824   3.125   4.811
 2573TIP3    H129210   3.746   3.110   4.759
 2573TIP3    H229211   3.832   3.220   4.816
 2574TIP3   OH229212   3.193   1.870  16.963
 2574TIP3    H129213   3.129   1.820  17.013
 2574TIP3    H229214   3.252   1.906  17.029
 2575TIP3   OH229215   5.978   5.367  14.683
 2575TIP3    H129216   6.045   5.340  14.620
 2575TIP3    H229217   5.952   5.455  14.654
 2576TIP3   OH229218   2.558   1.050  12.436
 2576TIP3    H129219   2.592   0.963  12.414
 2576TIP3    H229220   2.533   1.043  12.528
 2577TIP3   OH229221   4.778   3.720  12.299
 2577TIP3    H129222   4.735   3.685  12.377
 2577TIP3    H229223   4.815   3.643  12.256
 2578TIP3   OH229224   1.571   4.294  16.839
 2578TIP3    H129225   1.478   4.273  16.836
 2578TIP3    H229226   1.597   4.278  16.930
 2579TIP3   OH229227   0.091   5.833  13.388
 2579TIP3    H129228   0.072   5.863  13.300
 2579TIP3    H229229   0.174   5.876  13.411
 2580TIP3   OH229230   2.471   2.900  16.857
 2580TIP3    H129231   2.538   2.912  16.790
 2580TIP3    H229232   2.388   2.903  16.808
 2581TIP3   OH229233   2.721   6.768   6.079
 2581TIP3    H129234   2.650   6.712   6.110
 2581TIP3    H229235   2.791   6.755   6.144
 2582TIP3   OH229236   3.381   5.543  12.078
 2582TIP3    H129237   3.359   5.593  11.999
 2582TIP3    H229238   3.431   5.468  12.045
 2583TIP3   OH229239   6.586   3.739   0.339
 2583TIP3    H129240   6.630   3.823   0.323
 2583TIP3    H229241   6.520   3.733   0.270
 2584TIP3   OH229242   5.399   4.605  12.219
 2584TIP3    H129243   5.489   4.600  12.186
 2584TIP3    H229244   5.401   4.676  12.284
 2585TIP3   OH229245   1.850   5.245  11.148
 2585TIP3    H129246   1.896   5.161  11.156
 2585TIP3    H229247   1.882   5.282  11.066
 2586TIP3   OH229248   3.817   4.067  13.781
 2586TIP3    H129249   3.821   4.098  13.690
 2586TIP3    H229250   3.860   3.981  13.779
 2587TIP3   OH229251   2.141   2.115  13.655
 2587TIP3    H129252   2.077   2.186  13.652
 2587TIP3    H229253   2.219   2.151  13.612
 2588TIP3   OH229254   6.605   2.601   3.713
 2588TIP3    H129255   6.630   2.508   3.711
 2588TIP3    H229256   6.645   2.634   3.794
 2589TIP3   OH229257   3.531   6.469   3.134
 2589TIP3    H129258   3.460   6.480   3.198
 2589TIP3    H229259   3.486   6.468   3.050
 2590TIP3   OH229260   0.828   4.069   0.755
 2590TIP3    H129261   0.844   4.154   0.714
 2590TIP3    H229262   0.845   4.006   0.686
 2591TIP3   OH229263   0.154   3.513  14.656
 2591TIP3    H129264   0.187   3.467  14.580
 2591TIP3    H229265   0.097   3.582  14.621
 2592TIP3   OH229266   0.426   4.496  16.048
 2592TIP3    H129267   0.503   4.444  16.074
 2592TIP3    H229268   0.458   4.586  16.046
 2593TIP3   OH229269   6.020   3.540  13.899
 2593TIP3    H129270   6.043   3.450  13.924
 2593TIP3    H229271   6.073   3.558  13.822
 2594TIP3   OH229272   2.909   5.357   3.305
 2594TIP3    H129273   2.864   5.301   3.369
 2594TIP3    H229274   2.847   5.366   3.233
 2595TIP3   OH229275   0.181   6.384   4.906
 2595TIP3    H129276   0.097   6.430   4.903
 2595TIP3    H229277   0.214   6.401   4.994
 2596TIP3   OH229278   0.564   0.796  17.240
 2596TIP3    H129279   0.556   0.705  17.209
 2596TIP3    H229280   0.481   0.837  17.216
 2597TIP3   OH229281   3.898   5.439  15.170
 2597TIP3    H129282   3.970   5.448  15.108
 2597TIP3    H229283   3.839   5.376  15.129
 2598TIP3   OH229284   1.995   6.176  13.892
 2598TIP3    H129285   1.982   6.270  13.885
 2598TIP3    H229286   1.965   6.154  13.980
 2599TIP3   OH229287   5.102   0.281  12.417
 2599TIP3    H129288   5.187   0.279  12.461
 2599TIP3    H229289   5.048   0.220  12.467
 2600TIP3   OH229290   3.437   3.518   5.702
 2600TIP3    H129291   3.459   3.598   5.654
 2600TIP3    H229292   3.491   3.522   5.781
 2601TIP3   OH229293   2.532   4.184   1.324
 2601TIP3    H129294   2.476   4.127   1.272
 2601TIP3    H229295   2.506   4.273   1.298
 2602TIP3   OH229296   0.334   5.315  15.941
 2602TIP3    H129297   0.370   5.378  15.879
 2602TIP3    H229298   0.304   5.242  15.887
 2603TIP3   OH229299   2.116   1.290  13.020
 2603TIP3    H129300   2.077   1.243  13.094
 2603TIP3    H229301   2.124   1.381  13.051
 2604TIP3   OH229302   0.151   6.725   1.477
 2604TIP3    H129303   0.138   6.633   1.499
 2604TIP3    H229304   0.063   6.762   1.480
 2605TIP3   OH229305   5.618   4.510  14.151
 2605TIP3    H129306   5.660   4.459  14.082
 2605TIP3    H229307   5.575   4.445  14.206
 2606TIP3   OH229308   2.275   4.408   1.331
 2606TIP3    H129309   2.328   4.451   1.398
 2606TIP3    H229310   2.190   4.394   1.373
 2607TIP3   OH229311   2.591   1.308  16.020
 2607TIP3    H129312   2.610   1.393  15.980
 2607TIP3    H229313   2.510   1.279  15.976
 2608TIP3   OH229314   5.948   0.228  12.420
 2608TIP3    H129315   5.857   0.215  12.396
 2608TIP3    H229316   5.985   0.139  12.420
 2609TIP3   OH229317   6.309   1.032  12.441
 2609TIP3    H129318   6.244   1.018  12.510
 2609TIP3    H229319   6.258   1.032  12.360
 2610TIP3   OH229320   6.519   6.424   3.277
 2610TIP3    H129321   6.603   6.390   3.245
 2610TIP3    H229322   6.461   6.418   3.201
 2611TIP3   OH229323   5.889   0.185  15.877
 2611TIP3    H129324   5.825   0.113  15.879
 2611TIP3    H229325   5.911   0.200  15.969
 2612TIP3   OH229326   3.826   1.589   3.577
 2612TIP3    H129327   3.905   1.538   3.558
 2612TIP3    H229328   3.819   1.588   3.672
 2613TIP3   OH229329   0.028   6.420   2.979
 2613TIP3    H129330   0.105   6.470   2.952
 2613TIP3    H229331   0.060   6.332   2.997
 2614TIP3   OH229332   2.002   3.017  12.772
 2614TIP3    H129333   1.932   2.988  12.830
 2614TIP3    H229334   1.999   2.956  12.699
 2615TIP3   OH229335   5.492   1.100  15.275
 2615TIP3    H129336   5.478   1.084  15.182
 2615TIP3    H229337   5.425   1.163  15.300
 2616TIP3   OH229338   1.589   2.691  16.654
 2616TIP3    H129339   1.654   2.729  16.595
 2616TIP3    H229340   1.511   2.744  16.643
 2617TIP3   OH229341   5.386   4.450   4.504
 2617TIP3    H129342   5.297   4.447   4.540
 2617TIP3    H229343   5.384   4.388   4.431
 2618TIP3   OH229344   6.252   6.113   4.418
 2618TIP3    H129345   6.301   6.071   4.489
 2618TIP3    H229346   6.286   6.203   4.417
 2619TIP3   OH229347   6.710   1.265   5.573
 2619TIP3    H129348   6.806   1.256   5.572
 2619TIP3    H229349   6.688   1.280   5.665
 2620TIP3   OH229350   3.437   4.030   0.475
 2620TIP3    H129351   3.498   3.973   0.522
 2620TIP3    H229352   3.447   4.116   0.516
 2621TIP3   OH229353   4.474   3.416  14.832
 2621TIP3    H129354   4.490   3.483  14.898
 2621TIP3    H229355   4.382   3.429  14.806
 2622TIP3   OH229356   4.751   6.588  16.897
 2622TIP3    H129357   4.750   6.542  16.813
 2622TIP3    H229358   4.784   6.676  16.876
 2623TIP3   OH229359   3.461   3.752  14.874
 2623TIP3    H129360   3.519   3.826  14.859
 2623TIP3    H229361   3.452   3.710  14.789
 2624TIP3   OH229362   0.267   4.191   2.978
 2624TIP3    H129363   0.245   4.111   3.026
 2624TIP3    H229364   0.246   4.172   2.887
 2625TIP3   OH229365   2.181   4.940   3.505
 2625TIP3    H129366   2.171   4.985   3.589
 2625TIP3    H229367   2.242   4.868   3.523
 2626TIP3   OH229368   1.694   6.568  15.754
 2626TIP3    H129369   1.786   6.578  15.731
 2626TIP3    H229370   1.695   6.532  15.843
 2627TIP3   OH229371   3.447   1.495  13.199
 2627TIP3    H129372   3.514   1.536  13.254
 2627TIP3    H229373   3.456   1.401  13.217
 2628TIP3   OH229374   0.431   0.228   3.448
 2628TIP3    H129375   0.447   0.138   3.418
 2628TIP3    H229376   0.427   0.222   3.543
 2629TIP3   OH229377   1.841   6.630   2.464
 2629TIP3    H129378   1.877   6.554   2.418
 2629TIP3    H229379   1.917   6.684   2.485
 2630TIP3   OH229380   0.766   2.501   0.532
 2630TIP3    H129381   0.837   2.462   0.584
 2630TIP3    H229382   0.801   2.585   0.504
 2631TIP3   OH229383   2.386   1.600  13.048
 2631TIP3    H129384   2.395   1.564  12.960
 2631TIP3    H229385   2.430   1.686  13.043
 2632TIP3   OH229386   2.802   3.817  11.080
 2632TIP3    H129387   2.786   3.832  10.987
 2632TIP3    H229388   2.890   3.780  11.084
 2633TIP3   OH229389   3.370   1.781   5.684
 2633TIP3    H129390   3.328   1.701   5.714
 2633TIP3    H229391   3.421   1.755   5.607
 2634TIP3   OH229392   2.457   6.067   2.843
 2634TIP3    H129393   2.527   6.067   2.908
 2634TIP3    H229394   2.391   6.008   2.879
 2635TIP3   OH229395   3.162   6.126   3.801
 2635TIP3    H129396   3.104   6.124   3.878
 2635TIP3    H229397   3.237   6.178   3.829
 2636TIP3   OH229398   2.130   5.114  14.175
 2636TIP3    H129399   2.109   5.105  14.082
 2636TIP3    H229400   2.045   5.131  14.216
 2637TIP3   OH229401   0.106   3.422   1.970
 2637TIP3    H129402   0.140   3.465   1.892
 2637TIP3    H229403   0.183   3.388   2.014
 2638TIP3   OH229404   6.812   4.377  16.878
 2638TIP3    H129405   6.901   4.384  16.843
 2638TIP3    H229406   6.824   4.345  16.967
 2639TIP3   OH229407   4.786   0.382   0.341
 2639TIP3    H129408   4.734   0.437   0.281
 2639TIP3    H229409   4.873   0.421   0.339
 2640TIP3   OH229410   6.734   3.807  12.792
 2640TIP3    H129411   6.747   3.841  12.704
 2640TIP3    H229412   6.821   3.783  12.823
 2641TIP3   OH229413   1.468   6.631  14.113
 2641TIP3    H129414   1.378   6.663  14.114
 2641TIP3    H229415   1.514   6.693  14.056
 2642TIP3   OH229416   4.904   1.926   1.676
 2642TIP3    H129417   4.828   1.873   1.650
 2642TIP3    H229418   4.966   1.916   1.603
 2643TIP3   OH229419   4.996   2.713   6.340
 2643TIP3    H129420   4.945   2.689   6.417
 2643TIP3    H229421   5.070   2.763   6.375
 2644TIP3   OH229422   3.943   5.185  12.887
 2644TIP3    H129423   3.935   5.268  12.933
 2644TIP3    H229424   3.871   5.185  12.825
 2645TIP3   OH229425   0.650   3.817   0.106
 2645TIP3    H129426   0.615   3.793   0.192
 2645TIP3    H229427   0.691   3.736   0.074
 2646TIP3   OH229428   4.052   1.709  11.746
 2646TIP3    H129429   4.108   1.707  11.669
 2646TIP3    H229430   4.007   1.794  11.741
 2647TIP3   OH229431   1.783   3.780   5.752
 2647TIP3    H129432   1.743   3.769   5.838
 2647TIP3    H229433   1.789   3.875   5.740
 2648TIP3   OH229434   3.781   0.794  17.162
 2648TIP3    H129435   3.825   0.842  17.092
 2648TIP3    H229436   3.688   0.812  17.148
 2649TIP3   OH229437   3.873   2.438   5.900
 2649TIP3    H129438   3.806   2.393   5.952
 2649TIP3    H229439   3.955   2.395   5.925
 2650TIP3   OH229440   2.167   6.451  14.956
 2650TIP3    H129441   2.085   6.443  15.005
 2650TIP3    H229442   2.193   6.542  14.967
 2651TIP3   OH229443   1.236   6.409  13.397
 2651TIP3    H129444   1.274   6.363  13.472
 2651TIP3    H229445   1.261   6.500  13.410
 2652TIP3   OH229446   4.776   4.161  16.014
 2652TIP3    H129447   4.729   4.151  15.932
 2652TIP3    H229448   4.744   4.090  16.069
 2653TIP3   OH229449   1.541   3.943   3.228
 2653TIP3    H129450   1.526   3.851   3.251
 2653TIP3    H229451   1.634   3.958   3.246
 2654TIP3   OH229452   3.062   5.715   1.936
 2654TIP3    H129453   3.099   5.633   1.968
 2654TIP3    H229454   3.129   5.751   1.879
 2655TIP3   OH229455   3.950   5.007   5.267
 2655TIP3    H129456   3.860   4.990   5.236
 2655TIP3    H229457   3.950   4.977   5.358
 2656TIP3   OH229458   2.850   6.616  16.526
 2656TIP3    H129459   2.868   6.680  16.457
 2656TIP3    H229460   2.760   6.634  16.553
 2657TIP3   OH229461   1.761   4.851  17.280
 2657TIP3    H129462   1.742   4.923  17.340
 2657TIP3    H229463   1.833   4.804  17.322
 2658TIP3   OH229464   3.101   6.062  13.203
 2658TIP3    H129465   3.139   6.077  13.117
 2658TIP3    H229466   3.008   6.048  13.186
 2659TIP3   OH229467   0.441   1.141   3.222
 2659TIP3    H129468   0.501   1.066   3.214
 2659TIP3    H229469   0.378   1.129   3.151
 2660TIP3   OH229470   0.980   5.132  12.172
 2660TIP3    H129471   0.949   5.211  12.128
 2660TIP3    H229472   0.959   5.146  12.264
 2661TIP3   OH229473   5.628   3.563   3.084
 2661TIP3    H129474   5.606   3.602   3.169
 2661TIP3    H229475   5.544   3.536   3.047
 2662TIP3   OH229476   1.690   3.814  11.681
 2662TIP3    H129477   1.701   3.859  11.597
 2662TIP3    H229478   1.778   3.786  11.705
 2663TIP3   OH229479   2.424   4.504   5.527
 2663TIP3    H129480   2.449   4.537   5.614
 2663TIP3    H229481   2.485   4.546   5.467
 2664TIP3   OH229482   4.279   6.258  13.776
 2664TIP3    H129483   4.259   6.351  13.787
 2664TIP3    H229484   4.338   6.237  13.848
 2665TIP3   OH229485   1.262   6.747  15.836
 2665TIP3    H129486   1.348   6.724  15.803
 2665TIP3    H229487   1.212   6.774  15.759
 2666TIP3   OH229488   4.846   1.629  12.880
 2666TIP3    H129489   4.857   1.535  12.893
 2666TIP3    H229490   4.888   1.646  12.796
 2667TIP3   OH229491   6.383   3.448  14.262
 2667TIP3    H129492   6.362   3.355  14.265
 2667TIP3    H229493   6.461   3.454  14.207
 2668TIP3   OH229494   1.121   5.942   4.383
 2668TIP3    H129495   1.115   6.026   4.339
 2668TIP3    H229496   1.152   5.962   4.471
 2669TIP3   OH229497   2.992   5.740  16.330
 2669TIP3    H129498   3.071   5.780  16.367
 2669TIP3    H229499   2.924   5.805  16.343
 2670TIP3   OH229500   6.728   2.365  11.086
 2670TIP3    H129501   6.705   2.406  11.003
 2670TIP3    H229502   6.645   2.336  11.123
 2671TIP3   OH229503   1.590   5.971  12.134
 2671TIP3    H129504   1.532   5.911  12.086
 2671TIP3    H229505   1.601   5.930  12.220
 2672TIP3   OH229506   0.638   6.525   3.763
 2672TIP3    H129507   0.573   6.593   3.782
 2672TIP3    H229508   0.607   6.485   3.681
 2673TIP3   OH229509   5.555   5.073  16.710
 2673TIP3    H129510   5.461   5.075  16.728
 2673TIP3    H229511   5.567   4.997  16.654
 2674TIP3   OH229512   0.953   4.227   4.623
 2674TIP3    H129513   0.869   4.218   4.668
 2674TIP3    H229514   1.018   4.230   4.694
 2675TIP3   OH229515   1.636   4.378   2.779
 2675TIP3    H129516   1.596   4.464   2.791
 2675TIP3    H229517   1.729   4.391   2.798
 2676TIP3   OH229518   2.239   1.798   0.411
 2676TIP3    H129519   2.237   1.702   0.408
 2676TIP3    H229520   2.297   1.823   0.339
 2677TIP3   OH229521   4.315   0.488   5.674
 2677TIP3    H129522   4.256   0.467   5.602
 2677TIP3    H229523   4.260   0.536   5.737
 2678TIP3   OH229524   4.494   6.430  13.250
 2678TIP3    H129525   4.475   6.478  13.170
 2678TIP3    H229526   4.473   6.491  13.320
 2679TIP3   OH229527   0.395   5.743   3.698
 2679TIP3    H129528   0.402   5.814   3.634
 2679TIP3    H229529   0.364   5.786   3.778
 2680TIP3   OH229530   2.324   4.987  11.724
 2680TIP3    H129531   2.390   4.937  11.773
 2680TIP3    H229532   2.240   4.959  11.760
 2681TIP3   OH229533   6.795   5.336  13.431
 2681TIP3    H129534   6.764   5.423  13.405
 2681TIP3    H229535   6.887   5.350  13.454
 2682TIP3   OH229536   1.949   1.087   2.675
 2682TIP3    H129537   2.002   1.150   2.627
 2682TIP3    H229538   1.898   1.140   2.736
 2683TIP3   OH229539   3.435   6.527   2.889
 2683TIP3    H129540   3.449   6.466   2.816
 2683TIP3    H229541   3.496   6.599   2.872
 2684TIP3   OH229542   1.202   6.691   4.852
 2684TIP3    H129543   1.169   6.610   4.892
 2684TIP3    H229544   1.164   6.692   4.765
 2685TIP3   OH229545   3.201   3.788   5.090
 2685TIP3    H129546   3.111   3.819   5.084
 2685TIP3    H229547   3.250   3.845   5.031
 2686TIP3   OH229548   0.969   4.291  12.696
 2686TIP3    H129549   1.013   4.210  12.671
 2686TIP3    H229550   0.927   4.321  12.616
 2687TIP3   OH229551   6.249   2.860   4.561
 2687TIP3    H129552   6.277   2.922   4.493
 2687TIP3    H229553   6.326   2.849   4.617
 2688TIP3   OH229554   5.760   0.910  11.064
 2688TIP3    H129555   5.793   0.857  11.137
 2688TIP3    H229556   5.832   0.969  11.043
 2689TIP3   OH229557   2.310   4.492   4.181
 2689TIP3    H129558   2.350   4.453   4.259
 2689TIP3    H229559   2.249   4.558   4.216
 2690TIP3   OH229560   1.484   6.557   0.907
 2690TIP3    H129561   1.507   6.613   0.833
 2690TIP3    H229562   1.522   6.600   0.983
 2691TIP3   OH229563   1.594   0.511  12.205
 2691TIP3    H129564   1.553   0.597  12.211
 2691TIP3    H229565   1.678   0.521  12.250
 2692TIP3   OH229566   4.513   4.752   2.706
 2692TIP3    H129567   4.593   4.751   2.759
 2692TIP3    H229568   4.442   4.756   2.770
 2693TIP3   OH229569   3.065   3.120  14.924
 2693TIP3    H129570   3.026   3.114  15.011
 2693TIP3    H229571   3.001   3.169  14.873
 2694TIP3   OH229572   6.711   2.672   2.567
 2694TIP3    H129573   6.623   2.635   2.562
 2694TIP3    H229574   6.755   2.619   2.634
 2695TIP3   OH229575   1.875   0.612   5.182
 2695TIP3    H129576   1.869   0.645   5.092
 2695TIP3    H229577   1.965   0.580   5.189
 2696TIP3   OH229578   0.361   0.774   3.155
 2696TIP3    H129579   0.383   0.867   3.167
 2696TIP3    H229580   0.442   0.734   3.123
 2697TIP3   OH229581   3.539   6.590   1.504
 2697TIP3    H129582   3.500   6.674   1.527
 2697TIP3    H229583   3.491   6.526   1.557
 2698TIP3   OH229584   5.539   4.669   4.588
 2698TIP3    H129585   5.501   4.751   4.558
 2698TIP3    H229586   5.490   4.601   4.542
 2699TIP3   OH229587   4.804   0.288   1.028
 2699TIP3    H129588   4.756   0.357   0.982
 2699TIP3    H229589   4.845   0.332   1.102
 2700TIP3   OH229590   5.031   0.297  16.626
 2700TIP3    H129591   4.944   0.276  16.592
 2700TIP3    H229592   5.088   0.231  16.588
 2701TIP3   OH229593   4.934   0.401  11.541
 2701TIP3    H129594   5.019   0.418  11.501
 2701TIP3    H229595   4.952   0.397  11.635
 2702TIP3   OH229596   1.953   2.323  16.782
 2702TIP3    H129597   1.927   2.279  16.863
 2702TIP3    H229598   1.877   2.375  16.757
 2703TIP3   OH229599   6.616   5.618   0.349
 2703TIP3    H129600   6.627   5.706   0.311
 2703TIP3    H229601   6.701   5.576   0.338
 2704TIP3   OH229602   0.772   5.552  17.204
 2704TIP3    H129603   0.677   5.541  17.205
 2704TIP3    H229604   0.785   5.646  17.191
 2705TIP3   OH229605   5.703   6.346   2.992
 2705TIP3    H129606   5.773   6.368   2.932
 2705TIP3    H229607   5.746   6.301   3.065
 2706TIP3   OH229608   2.967   5.399   5.577
 2706TIP3    H129609   3.020   5.468   5.536
 2706TIP3    H229610   2.896   5.383   5.515
 2707TIP3   OH229611   3.295   5.041  15.792
 2707TIP3    H129612   3.208   5.012  15.818
 2707TIP3    H229613   3.353   4.968  15.815
 2708TIP3   OH229614   1.959   2.696   2.749
 2708TIP3    H129615   1.994   2.655   2.670
 2708TIP3    H229616   2.036   2.718   2.800
 2709TIP3   OH229617   5.176   6.598  16.176
 2709TIP3    H129618   5.100   6.545  16.199
 2709TIP3    H229619   5.150   6.643  16.095
 2710TIP3   OH229620   1.180   2.886   3.866
 2710TIP3    H129621   1.143   2.842   3.789
 2710TIP3    H229622   1.220   2.966   3.830
 2711TIP3   OH229623   4.112   2.788   4.463
 2711TIP3    H129624   4.202   2.785   4.432
 2711TIP3    H229625   4.063   2.827   4.391
 2712TIP3   OH229626   3.807   1.774   0.703
 2712TIP3    H129627   3.754   1.849   0.678
 2712TIP3    H229628   3.747   1.714   0.746
 2713TIP3   OH229629   4.696   1.202   1.104
 2713TIP3    H129630   4.731   1.160   1.026
 2713TIP3    H229631   4.702   1.296   1.086
 2714TIP3   OH229632   5.606   6.111   3.729
 2714TIP3    H129633   5.602   6.123   3.824
 2714TIP3    H229634   5.516   6.091   3.703
 2715TIP3   OH229635   4.971   6.030  13.773
 2715TIP3    H129636   5.024   6.102  13.805
 2715TIP3    H229637   4.888   6.039  13.820
 2716TIP3   OH229638   1.269   0.074   2.137
 2716TIP3    H129639   1.290   0.136   2.067
 2716TIP3    H229640   1.338   0.007   2.132
 2717TIP3   OH229641   5.691   1.191   5.448
 2717TIP3    H129642   5.643   1.199   5.530
 2717TIP3    H229643   5.768   1.138   5.470
 2718TIP3   OH229644   2.482   5.475  12.687
 2718TIP3    H129645   2.437   5.440  12.764
 2718TIP3    H229646   2.553   5.528  12.723
 2719TIP3   OH229647   3.714   2.405  14.254
 2719TIP3    H129648   3.620   2.421  14.243
 2719TIP3    H229649   3.752   2.493  14.260
 2720TIP3   OH229650   1.451   2.245   6.493
 2720TIP3    H129651   1.431   2.260   6.585
 2720TIP3    H229652   1.456   2.150   6.484
 2721TIP3   OH229653   0.954   6.620  13.839
 2721TIP3    H129654   0.864   6.645  13.863
 2721TIP3    H229655   0.962   6.645  13.747
 2722TIP3   OH229656   3.353   0.606  12.611
 2722TIP3    H129657   3.345   0.537  12.545
 2722TIP3    H229658   3.443   0.600  12.643
 2723TIP3   OH229659   0.636   4.186  11.152
 2723TIP3    H129660   0.657   4.123  11.220
 2723TIP3    H229661   0.544   4.169  11.131
 2724TIP3   OH229662   2.543   1.112   0.154
 2724TIP3    H129663   2.610   1.067   0.207
 2724TIP3    H229664   2.460   1.082   0.190
 2725TIP3   OH229665   5.252   2.693  17.091
 2725TIP3    H129666   5.306   2.615  17.079
 2725TIP3    H229667   5.281   2.753  17.023
 2726TIP3   OH229668   4.453   6.683  12.408
 2726TIP3    H129669   4.390   6.644  12.347
 2726TIP3    H229670   4.401   6.715  12.481
 2727TIP3   OH229671   6.633   3.807   6.636
 2727TIP3    H129672   6.567   3.740   6.619
 2727TIP3    H229673   6.629   3.864   6.559
 2728TIP3   OH229674   3.485   5.213   4.829
 2728TIP3    H129675   3.485   5.181   4.919
 2728TIP3    H229676   3.571   5.253   4.817
 2729TIP3   OH229677   1.882   5.134   1.032
 2729TIP3    H129678   1.935   5.066   1.073
 2729TIP3    H229679   1.792   5.107   1.049
 2730TIP3   OH229680   6.212   4.659  12.322
 2730TIP3    H129681   6.285   4.605  12.352
 2730TIP3    H229682   6.231   4.676  12.230
 2731TIP3   OH229683   6.220   2.509   2.019
 2731TIP3    H129684   6.239   2.484   1.928
 2731TIP3    H229685   6.133   2.474   2.036
 2732TIP3   OH229686   6.754   4.829   3.478
 2732TIP3    H129687   6.682   4.891   3.494
 2732TIP3    H229688   6.831   4.873   3.513
 2733TIP3   OH229689   0.551   4.116  16.264
 2733TIP3    H129690   0.611   4.190  16.262
 2733TIP3    H229691   0.496   4.127  16.186
 2734TIP3   OH229692   3.813   4.951   1.091
 2734TIP3    H129693   3.759   4.951   1.013
 2734TIP3    H229694   3.800   4.864   1.129
 2735TIP3   OH229695   6.464   5.366   1.522
 2735TIP3    H129696   6.547   5.326   1.546
 2735TIP3    H229697   6.424   5.304   1.460
 2736TIP3   OH229698   4.140   5.261  11.824
 2736TIP3    H129699   4.098   5.244  11.908
 2736TIP3    H229700   4.069   5.289  11.766
 2737TIP3   OH229701   4.155   5.285  10.839
 2737TIP3    H129702   4.091   5.219  10.813
 2737TIP3    H229703   4.237   5.237  10.847
 2738TIP3   OH229704   5.910   3.831   6.114
 2738TIP3    H129705   5.978   3.897   6.128
 2738TIP3    H229706   5.837   3.858   6.170
 2739TIP3   OH229707   3.626   3.513   4.950
 2739TIP3    H129708   3.680   3.581   4.991
 2739TIP3    H229709   3.598   3.551   4.867
 2740TIP3   OH229710   2.352   2.525  11.532
 2740TIP3    H129711   2.348   2.600  11.591
 2740TIP3    H229712   2.350   2.563  11.444
 2741TIP3   OH229713   4.040   6.443   2.416
 2741TIP3    H129714   4.037   6.355   2.452
 2741TIP3    H229715   4.102   6.437   2.343
 2742TIP3   OH229716   6.055   2.757  15.651
 2742TIP3    H129717   6.092   2.819  15.713
 2742TIP3    H229718   5.960   2.768  15.659
 2743TIP3   OH229719   1.199   2.758  13.400
 2743TIP3    H129720   1.190   2.689  13.465
 2743TIP3    H229721   1.130   2.740  13.336
 2744TIP3   OH229722   4.738   5.767  12.190
 2744TIP3    H129723   4.752   5.677  12.161
 2744TIP3    H229724   4.823   5.809  12.177
 2745TIP3   OH229725   5.391   1.024  15.995
 2745TIP3    H129726   5.380   0.940  15.950
 2745TIP3    H229727   5.470   1.062  15.956
 2746TIP3   OH229728   3.686   2.547  11.270
 2746TIP3    H129729   3.735   2.518  11.348
 2746TIP3    H229730   3.595   2.551  11.299
 2747TIP3   OH229731   6.492   5.876  12.993
 2747TIP3    H129732   6.511   5.967  13.015
 2747TIP3    H229733   6.424   5.850  13.054
 2748TIP3   OH229734   1.277   0.357   2.897
 2748TIP3    H129735   1.298   0.416   2.825
 2748TIP3    H229736   1.183   0.341   2.888
 2749TIP3   OH229737   4.085   0.294  15.045
 2749TIP3    H129738   4.128   0.371  15.082
 2749TIP3    H229739   3.993   0.318  15.039
 2750TIP3   OH229740   2.501   3.636   5.837
 2750TIP3    H129741   2.524   3.675   5.921
 2750TIP3    H229742   2.447   3.561   5.860
 2751TIP3   OH229743   0.448   3.816   5.832
 2751TIP3    H129744   0.357   3.843   5.821
 2751TIP3    H229745   0.443   3.736   5.886
 2752TIP3   OH229746   2.640   6.655  16.935
 2752TIP3    H129747   2.616   6.732  16.884
 2752TIP3    H229748   2.736   6.660  16.944
 2753TIP3   OH229749   3.659   5.524   3.413
 2753TIP3    H129750   3.708   5.577   3.351
 2753TIP3    H229751   3.614   5.459   3.359
 2754TIP3   OH229752   6.604   2.072  11.520
 2754TIP3    H129753   6.542   2.142  11.540
 2754TIP3    H229754   6.580   2.000  11.579
 2755TIP3   OH229755   6.667   6.281   5.280
 2755TIP3    H129756   6.601   6.350   5.286
 2755TIP3    H229757   6.632   6.220   5.216
 2756TIP3   OH229758   6.212   6.100  12.320
 2756TIP3    H129759   6.195   6.139  12.406
 2756TIP3    H229760   6.292   6.050  12.332
 2757TIP3   OH229761   6.114   2.787  10.907
 2757TIP3    H129762   6.135   2.712  10.962
 2757TIP3    H229763   6.193   2.803  10.855
 2758TIP3   OH229764   0.519   3.238   5.247
 2758TIP3    H129765   0.614   3.249   5.256
 2758TIP3    H229766   0.490   3.214   5.335
 2759TIP3   OH229767   4.115   5.469   4.546
 2759TIP3    H129768   4.063   5.547   4.562
 2759TIP3    H229769   4.112   5.457   4.451
 2760TIP3   OH229770   0.045   1.927   5.137
 2760TIP3    H129771   0.113   1.953   5.075
 2760TIP3    H229772  -0.002   1.856   5.093
 2761TIP3   OH229773   6.366   4.274  11.971
 2761TIP3    H129774   6.367   4.301  11.879
 2761TIP3    H229775   6.274   4.252  11.987
 2762TIP3   OH229776   0.536   5.289  13.741
 2762TIP3    H129777   0.478   5.362  13.765
 2762TIP3    H229778   0.566   5.255  13.825
 2763TIP3   OH229779   6.099   2.514  17.146
 2763TIP3    H129780   6.180   2.508  17.096
 2763TIP3    H229781   6.123   2.487  17.235
 2764TIP3   OH229782   4.200   6.316  14.663
 2764TIP3    H129783   4.168   6.377  14.597
 2764TIP3    H229784   4.133   6.317  14.731
 2765TIP3   OH229785   2.272   2.654   5.129
 2765TIP3    H129786   2.188   2.626   5.093
 2765TIP3    H229787   2.330   2.579   5.118
 2766TIP3   OH229788   0.490   2.561   3.157
 2766TIP3    H129789   0.577   2.525   3.139
 2766TIP3    H229790   0.505   2.654   3.172
 2767TIP3   OH229791   4.635   0.442  12.856
 2767TIP3    H129792   4.641   0.423  12.949
 2767TIP3    H229793   4.707   0.503  12.839
 2768TIP3   OH229794   5.378   2.923  15.509
 2768TIP3    H129795   5.319   2.875  15.566
 2768TIP3    H229796   5.321   2.965  15.445
 2769TIP3   OH229797   0.081   6.769   1.165
 2769TIP3    H129798   0.168   6.754   1.128
 2769TIP3    H229799   0.065   6.863   1.152
 2770TIP3   OH229800   2.121   0.337   2.833
 2770TIP3    H129801   2.046   0.293   2.873
 2770TIP3    H229802   2.117   0.312   2.741
 2771TIP3   OH229803   0.583   5.987  12.006
 2771TIP3    H129804   0.531   6.058  11.970
 2771TIP3    H229805   0.536   5.907  11.981
 2772TIP3   OH229806   3.999   6.256   3.112
 2772TIP3    H129807   3.923   6.280   3.165
 2772TIP3    H229808   4.073   6.296   3.158
 2773TIP3   OH229809   2.090   5.782  14.147
 2773TIP3    H129810   2.026   5.853  14.148
 2773TIP3    H229811   2.040   5.704  14.170
 2774TIP3   OH229812   5.534   6.807  16.457
 2774TIP3    H129813   5.594   6.771  16.391
 2774TIP3    H229814   5.447   6.781  16.427
 2775TIP3   OH229815   5.669   1.893  11.386
 2775TIP3    H129816   5.642   1.908  11.295
 2775TIP3    H229817   5.756   1.853  11.378
 2776TIP3   OH229818   4.821   5.556   2.854
 2776TIP3    H129819   4.754   5.578   2.789
 2776TIP3    H229820   4.830   5.461   2.849
 2777TIP3   OH229821   5.965   4.912  16.628
 2777TIP3    H129822   6.001   4.908  16.539
 2777TIP3    H229823   5.884   4.862  16.623
 2778TIP3   OH229824   1.539   0.784  17.041
 2778TIP3    H129825   1.508   0.699  17.071
 2778TIP3    H229826   1.473   0.846  17.072
 2779TIP3   OH229827   6.782   5.448   4.104
 2779TIP3    H129828   6.810   5.361   4.134
 2779TIP3    H229829   6.798   5.505   4.179
 2780TIP3   OH229830   5.230   6.045   1.305
 2780TIP3    H129831   5.169   5.979   1.271
 2780TIP3    H229832   5.192   6.073   1.388
 2781TIP3   OH229833   4.137   4.631   0.624
 2781TIP3    H129834   4.190   4.711   0.633
 2781TIP3    H229835   4.179   4.568   0.684
 2782TIP3   OH229836   5.199   1.521   1.761
 2782TIP3    H129837   5.126   1.476   1.802
 2782TIP3    H229838   5.254   1.452   1.725
 2783TIP3   OH229839   0.564   2.166  15.019
 2783TIP3    H129840   0.625   2.129  15.082
 2783TIP3    H229841   0.483   2.179  15.069
 2784TIP3   OH229842   1.453   5.223   2.079
 2784TIP3    H129843   1.523   5.203   2.142
 2784TIP3    H229844   1.382   5.164   2.104
 2785TIP3   OH229845   0.416   1.742  16.672
 2785TIP3    H129846   0.422   1.821  16.725
 2785TIP3    H229847   0.337   1.754  16.620
 2786TIP3   OH229848   3.867   4.711   5.656
 2786TIP3    H129849   3.814   4.785   5.686
 2786TIP3    H229850   3.892   4.734   5.566
 2787TIP3   OH229851   4.744   3.324  11.594
 2787TIP3    H129852   4.708   3.236  11.598
 2787TIP3    H229853   4.798   3.331  11.673
 2788TIP3   OH229854   0.847   3.287  16.123
 2788TIP3    H129855   0.923   3.234  16.149
 2788TIP3    H229856   0.876   3.336  16.047
 2789TIP3   OH229857   4.372   3.164   4.479
 2789TIP3    H129858   4.291   3.174   4.429
 2789TIP3    H229859   4.441   3.160   4.412
 2790TIP3   OH229860   6.541   5.310  14.815
 2790TIP3    H129861   6.576   5.254  14.745
 2790TIP3    H229862   6.456   5.271  14.837
 2791TIP3   OH229863   2.757   2.821  14.688
 2791TIP3    H129864   2.730   2.828  14.779
 2791TIP3    H229865   2.845   2.858  14.686
 2792TIP3   OH229866   2.022   4.329  16.319
 2792TIP3    H129867   2.003   4.255  16.262
 2792TIP3    H229868   2.020   4.405  16.262
 2793TIP3   OH229869   4.595   3.601   1.949
 2793TIP3    H129870   4.561   3.688   1.967
 2793TIP3    H229871   4.635   3.608   1.862
 2794TIP3   OH229872   5.087   2.609   4.148
 2794TIP3    H129873   5.156   2.675   4.157
 2794TIP3    H229874   5.019   2.637   4.210
 2795TIP3   OH229875   3.753   2.406  12.291
 2795TIP3    H129876   3.685   2.440  12.348
 2795TIP3    H229877   3.821   2.474  12.292
 2796TIP3   OH229878   3.139   2.504  11.761
 2796TIP3    H129879   3.070   2.541  11.707
 2796TIP3    H229880   3.093   2.464  11.835
 2797TIP3   OH229881   1.647   0.450   0.070
 2797TIP3    H129882   1.607   0.416   0.149
 2797TIP3    H229883   1.740   0.461   0.093
 2798TIP3   OH229884   1.112   5.524  15.835
 2798TIP3    H129885   1.126   5.596  15.896
 2798TIP3    H229886   1.148   5.448  15.880
 2799TIP3   OH229887   5.203   1.034  15.085
 2799TIP3    H129888   5.184   0.972  15.015
 2799TIP3    H229889   5.298   1.033  15.093
 2800TIP3   OH229890   6.726   0.013   4.949
 2800TIP3    H129891   6.757   0.010   5.039
 2800TIP3    H229892   6.773   0.087   4.909
 2801TIP3   OH229893   0.563   2.974   5.175
 2801TIP3    H129894   0.521   3.054   5.207
 2801TIP3    H229895   0.497   2.932   5.121
 2802TIP3   OH229896   3.992   0.696  11.771
 2802TIP3    H129897   3.957   0.608  11.761
 2802TIP3    H229898   4.030   0.716  11.685
 2803TIP3   OH229899   2.690   0.808  12.361
 2803TIP3    H129900   2.651   0.755  12.431
 2803TIP3    H229901   2.783   0.809  12.381
 2804TIP3   OH229902   5.613   0.413   1.864
 2804TIP3    H129903   5.570   0.462   1.935
 2804TIP3    H229904   5.580   0.324   1.874
 2805TIP3   OH229905   1.785   4.162  16.408
 2805TIP3    H129906   1.695   4.129  16.399
 2805TIP3    H229907   1.785   4.243  16.357
 2806TIP3   OH229908   3.027   2.193  11.240
 2806TIP3    H129909   3.036   2.289  11.238
 2806TIP3    H229910   3.108   2.163  11.282
 2807TIP3   OH229911   5.820   1.645   1.183
 2807TIP3    H129912   5.905   1.660   1.140
 2807TIP3    H229913   5.841   1.586   1.255
 2808TIP3   OH229914   3.237   6.328   3.431
 2808TIP3    H129915   3.320   6.332   3.479
 2808TIP3    H229916   3.263   6.315   3.340
 2809TIP3   OH229917   4.339   2.594  15.721
 2809TIP3    H129918   4.366   2.513  15.764
 2809TIP3    H229919   4.332   2.658  15.791
 2810TIP3   OH229920   3.768   4.583  17.238
 2810TIP3    H129921   3.700   4.518  17.254
 2810TIP3    H229922   3.722   4.658  17.201
 2811TIP3   OH229923   0.215   2.678  14.544
 2811TIP3    H129924   0.219   2.583  14.549
 2811TIP3    H229925   0.125   2.697  14.518
 2812TIP3   OH229926   5.236   3.258   5.314
 2812TIP3    H129927   5.181   3.182   5.329
 2812TIP3    H229928   5.235   3.305   5.398
 2813TIP3   OH229929   2.878   3.720   3.352
 2813TIP3    H129930   2.933   3.697   3.427
 2813TIP3    H229931   2.859   3.636   3.309
 2814TIP3   OH229932   6.784   0.578   2.776
 2814TIP3    H129933   6.791   0.656   2.832
 2814TIP3    H229934   6.801   0.505   2.835
 2815TIP3   OH229935   6.334   0.325  16.273
 2815TIP3    H129936   6.350   0.231  16.281
 2815TIP3    H229937   6.378   0.363  16.349
 2816TIP3   OH229938   6.081   1.730   0.339
 2816TIP3    H129939   6.154   1.788   0.359
 2816TIP3    H229940   6.074   1.732   0.244
 2817TIP3   OH229941   4.305   5.230   1.026
 2817TIP3    H129942   4.328   5.156   1.082
 2817TIP3    H229943   4.280   5.300   1.087
 2818TIP3   OH229944   1.377   2.071   2.028
 2818TIP3    H129945   1.467   2.063   2.061
 2818TIP3    H229946   1.372   2.161   1.997
 2819TIP3   OH229947   6.785   2.700  12.878
 2819TIP3    H129948   6.793   2.628  12.816
 2819TIP3    H229949   6.782   2.658  12.964
 2820TIP3   OH229950   1.064   2.334  12.560
 2820TIP3    H129951   1.135   2.290  12.605
 2820TIP3    H229952   1.102   2.363  12.477
 2821TIP3   OH229953   2.932   6.342   5.539
 2821TIP3    H129954   3.004   6.388   5.580
 2821TIP3    H229955   2.863   6.408   5.529
 2822TIP3   OH229956   4.342   2.720   3.738
 2822TIP3    H129957   4.254   2.741   3.706
 2822TIP3    H229958   4.365   2.794   3.795
 2823TIP3   OH229959   1.154   3.108  17.053
 2823TIP3    H129960   1.158   3.013  17.049
 2823TIP3    H229961   1.145   3.136  16.962
 2824TIP3   OH229962   4.725   5.295  10.930
 2824TIP3    H129963   4.653   5.320  10.873
 2824TIP3    H229964   4.748   5.376  10.976
 2825TIP3   OH229965   5.984   0.098  15.551
 2825TIP3    H129966   6.052   0.155  15.514
 2825TIP3    H229967   5.911   0.104  15.489
 2826TIP3   OH229968   0.163   1.202  13.739
 2826TIP3    H129969   0.117   1.124  13.770
 2826TIP3    H229970   0.231   1.217  13.804
 2827TIP3   OH229971   6.288   6.606   1.721
 2827TIP3    H129972   6.193   6.595   1.727
 2827TIP3    H229973   6.300   6.675   1.656
 2828TIP3   OH229974   2.161   0.836   1.582
 2828TIP3    H129975   2.206   0.920   1.585
 2828TIP3    H229976   2.177   0.797   1.669
 2829TIP3   OH229977   1.473   6.091   5.273
 2829TIP3    H129978   1.480   6.031   5.199
 2829TIP3    H229979   1.555   6.141   5.271
 2830TIP3   OH229980   0.909   1.414  13.146
 2830TIP3    H129981   0.994   1.416  13.190
 2830TIP3    H229982   0.915   1.484  13.080
 2831TIP3   OH229983   3.145   0.337   0.916
 2831TIP3    H129984   3.142   0.259   0.860
 2831TIP3    H229985   3.129   0.303   1.004
 2832TIP3   OH229986   3.302   5.008   3.093
 2832TIP3    H129987   3.282   4.962   3.012
 2832TIP3    H229988   3.367   4.953   3.137
 2833TIP3   OH229989   3.771   5.124  12.668
 2833TIP3    H129990   3.681   5.093  12.677
 2833TIP3    H229991   3.769   5.181  12.591
 2834TIP3   OH229992   6.217   0.029  13.676
 2834TIP3    H129993   6.275   0.099  13.646
 2834TIP3    H229994   6.176   0.064  13.755
 2835TIP3   OH229995   6.488   6.604  12.002
 2835TIP3    H129996   6.474   6.601  12.097
 2835TIP3    H229997   6.582   6.619  11.992
 2836TIP3   OH229998   2.730   3.177  17.275
 2836TIP3    H129999   2.664   3.178  17.344
 2836TIP3    H230000   2.733   3.086  17.246
 2837TIP3   OH230001   1.595   4.806  12.002
 2837TIP3    H130002   1.570   4.762  11.920
 2837TIP3    H230003   1.515   4.806  12.054
 2838TIP3   OH230004   4.177   0.446  14.239
 2838TIP3    H130005   4.093   0.427  14.281
 2838TIP3    H230006   4.242   0.422  14.304
 2839TIP3   OH230007   4.164   5.637  12.740
 2839TIP3    H130008   4.219   5.661  12.814
 2839TIP3    H230009   4.155   5.542  12.747
 2840TIP3   OH230010   1.921   1.139  16.388
 2840TIP3    H130011   1.958   1.178  16.309
 2840TIP3    H230012   1.978   1.065  16.408
 2841TIP3   OH230013   1.826   2.573   0.887
 2841TIP3    H130014   1.889   2.644   0.901
 2841TIP3    H230015   1.815   2.533   0.973
 2842TIP3   OH230016   2.129   2.513  13.423
 2842TIP3    H130017   2.190   2.445  13.454
 2842TIP3    H230018   2.092   2.478  13.342
 2843TIP3   OH230019   0.417   5.921   2.449
 2843TIP3    H130020   0.446   5.898   2.361
 2843TIP3    H230021   0.398   5.837   2.491
 2844TIP3   OH230022   0.461   4.148   6.364
 2844TIP3    H130023   0.493   4.070   6.319
 2844TIP3    H230024   0.536   4.179   6.415
 2845TIP3   OH230025   2.248   4.219   3.350
 2845TIP3    H130026   2.174   4.202   3.408
 2845TIP3    H230027   2.300   4.139   3.355
 2846TIP3   OH230028   5.371   4.371  16.636
 2846TIP3    H130029   5.368   4.409  16.548
 2846TIP3    H230030   5.286   4.392  16.674
 2847TIP3   OH230031   2.767   1.049   2.394
 2847TIP3    H130032   2.724   0.978   2.441
 2847TIP3    H230033   2.748   1.033   2.302
 2848TIP3   OH230034   1.512   0.280   1.800
 2848TIP3    H130035   1.505   0.324   1.716
 2848TIP3    H230036   1.522   0.350   1.864
 2849TIP3   OH230037   0.636   1.312   3.383
 2849TIP3    H130038   0.687   1.291   3.461
 2849TIP3    H230039   0.639   1.233   3.330
 2850TIP3   OH230040   1.206   1.781   3.303
 2850TIP3    H130041   1.264   1.777   3.228
 2850TIP3    H230042   1.230   1.863   3.347
 2851TIP3   OH230043   6.091   6.716  16.999
 2851TIP3    H130044   6.040   6.636  17.011
 2851TIP3    H230045   6.033   6.774  16.949
 2852TIP3   OH230046   3.214   1.246  14.894
 2852TIP3    H130047   3.305   1.236  14.920
 2852TIP3    H230048   3.184   1.156  14.881
 2853TIP3   OH230049   4.196   2.501  13.137
 2853TIP3    H130050   4.183   2.444  13.061
 2853TIP3    H230051   4.271   2.556  13.112
 2854TIP3   OH230052   5.167   5.888   0.251
 2854TIP3    H130053   5.198   5.959   0.195
 2854TIP3    H230054   5.219   5.896   0.331
 2855TIP3   OH230055   1.640   2.217   2.175
 2855TIP3    H130056   1.735   2.211   2.180
 2855TIP3    H230057   1.623   2.259   2.091
 2856TIP3   OH230058   3.308   4.125   3.520
 2856TIP3    H130059   3.374   4.056   3.522
 2856TIP3    H230060   3.271   4.125   3.609
 2857TIP3   OH230061   3.208   1.101  13.285
 2857TIP3    H130062   3.121   1.073  13.312
 2857TIP3    H230063   3.209   1.196  13.300
 2858TIP3   OH230064   1.983   4.338  12.623
 2858TIP3    H130065   1.960   4.250  12.652
 2858TIP3    H230066   1.916   4.360  12.558
 2859TIP3   OH230067   5.952   4.562   3.520
 2859TIP3    H130068   5.892   4.612   3.466
 2859TIP3    H230069   5.929   4.470   3.505
 2860TIP3   OH230070   2.834   3.371   4.816
 2860TIP3    H130071   2.844   3.358   4.910
 2860TIP3    H230072   2.884   3.299   4.777
 2861TIP3   OH230073   4.610   1.672   1.592
 2861TIP3    H130074   4.632   1.601   1.652
 2861TIP3    H230075   4.676   1.666   1.523
 2862TIP3   OH230076   1.157   2.076  15.499
 2862TIP3    H130077   1.162   2.061  15.405
 2862TIP3    H230078   1.115   1.997  15.534
 2863TIP3   OH230079   3.015   5.140  17.177
 2863TIP3    H130080   3.049   5.057  17.145
 2863TIP3    H230081   2.920   5.127  17.181
 2864TIP3   OH230082   0.223   5.982   5.346
 2864TIP3    H130083   0.130   5.990   5.323
 2864TIP3    H230084   0.236   6.047   5.416
 2865TIP3   OH230085   0.958   5.931  15.103
 2865TIP3    H130086   1.037   5.933  15.157
 2865TIP3    H230087   0.892   5.893  15.159
 2866TIP3   OH230088   2.018   6.013   4.805
 2866TIP3    H130089   1.966   5.959   4.745
 2866TIP3    H230090   2.098   6.031   4.757
 2867TIP3   OH230091   4.498   1.160   0.764
 2867TIP3    H130092   4.446   1.213   0.826
 2867TIP3    H230093   4.445   1.158   0.685
 2868TIP3   OH230094   0.557   0.267   4.975
 2868TIP3    H130095   0.481   0.325   4.977
 2868TIP3    H230096   0.619   0.310   4.916
 2869TIP3   OH230097   0.291   5.019   4.718
 2869TIP3    H130098   0.303   4.989   4.627
 2869TIP3    H230099   0.196   5.028   4.727
 2870TIP3   OH230100   5.639   3.492   1.378
 2870TIP3    H130101   5.672   3.437   1.307
 2870TIP3    H230102   5.557   3.527   1.345
 2871TIP3   OH230103   1.517   4.982  16.331
 2871TIP3    H130104   1.549   4.943  16.412
 2871TIP3    H230105   1.597   5.008  16.284
 2872TIP3   OH230106   2.669   3.691  14.600
 2872TIP3    H130107   2.646   3.772  14.645
 2872TIP3    H230108   2.640   3.704  14.510
 2873TIP3   OH230109   5.592   6.191   2.192
 2873TIP3    H130110   5.576   6.256   2.261
 2873TIP3    H230111   5.504   6.166   2.163
 2874TIP3   OH230112   4.465   0.329   5.859
 2874TIP3    H130113   4.391   0.282   5.896
 2874TIP3    H230114   4.426   0.387   5.794
 2875TIP3   OH230115   0.088   4.929  16.674
 2875TIP3    H130116   0.130   4.875  16.607
 2875TIP3    H230117   0.149   5.000  16.689
 2876TIP3   OH230118   0.765   0.002  14.567
 2876TIP3    H130119   0.723   0.044  14.642
 2876TIP3    H230120   0.692  -0.026  14.511
 2877TIP3   OH230121   3.469   0.121  12.802
 2877TIP3    H130122   3.478   0.097  12.895
 2877TIP3    H230123   3.497   0.212  12.799
 2878TIP3   OH230124   1.287   3.686   1.529
 2878TIP3    H130125   1.243   3.743   1.592
 2878TIP3    H230126   1.239   3.603   1.534
 2879TIP3   OH230127   2.790   6.601   1.287
 2879TIP3    H130128   2.870   6.653   1.292
 2879TIP3    H230129   2.816   6.513   1.311
 2880TIP3   OH230130   5.783   0.190   2.844
 2880TIP3    H130131   5.728   0.121   2.808
 2880TIP3    H230132   5.864   0.186   2.793
 2881TIP3   OH230133   0.854   4.369  14.479
 2881TIP3    H130134   0.837   4.431  14.408
 2881TIP3    H230135   0.943   4.391  14.508
 2882TIP3   OH230136   3.514   2.128   4.362
 2882TIP3    H130137   3.573   2.174   4.422
 2882TIP3    H230138   3.442   2.190   4.347
 2883TIP3   OH230139   0.711   3.410   1.873
 2883TIP3    H130140   0.702   3.358   1.793
 2883TIP3    H230141   0.772   3.359   1.927
 2884TIP3   OH230142   5.260   3.575   6.006
 2884TIP3    H130143   5.244   3.655   6.056
 2884TIP3    H230144   5.256   3.505   6.071
 2885TIP3   OH230145   5.822   5.588   4.270
 2885TIP3    H130146   5.839   5.548   4.355
 2885TIP3    H230147   5.906   5.627   4.245
 2886TIP3   OH230148   5.608   5.478  13.433
 2886TIP3    H130149   5.625   5.398  13.382
 2886TIP3    H230150   5.693   5.519  13.444
 2887TIP3   OH230151   5.303   5.988  15.863
 2887TIP3    H130152   5.270   6.024  15.781
 2887TIP3    H230153   5.316   6.065  15.918
 2888TIP3   OH230154   0.251   2.933   2.976
 2888TIP3    H130155   0.334   2.887   2.983
 2888TIP3    H230156   0.205   2.889   2.904
 2889TIP3   OH230157   1.223   6.267   0.014
 2889TIP3    H130158   1.174   6.223  -0.055
 2889TIP3    H230159   1.161   6.327   0.055
 2890TIP3   OH230160   5.963   1.514   4.796
 2890TIP3    H130161   6.000   1.585   4.850
 2890TIP3    H230162   6.009   1.521   4.713
 2891TIP3   OH230163   1.778   1.488   2.595
 2891TIP3    H130164   1.748   1.559   2.652
 2891TIP3    H230165   1.764   1.519   2.506
 2892TIP3   OH230166   4.939   3.861   2.625
 2892TIP3    H130167   4.997   3.900   2.560
 2892TIP3    H230168   4.979   3.776   2.645
 2893TIP3   OH230169   1.914   0.523   3.269
 2893TIP3    H130170   1.860   0.525   3.348
 2893TIP3    H230171   1.973   0.449   3.282
 2894TIP3   OH230172   2.409   0.259  16.576
 2894TIP3    H130173   2.316   0.246  16.560
 2894TIP3    H230174   2.414   0.342  16.623
 2895TIP3   OH230175   6.123   4.092  12.453
 2895TIP3    H130176   6.127   4.000  12.425
 2895TIP3    H230177   6.029   4.110  12.459
 2896TIP3   OH230178   3.575   3.673   4.280
 2896TIP3    H130179   3.546   3.736   4.214
 2896TIP3    H230180   3.668   3.691   4.291
 2897TIP3   OH230181   4.695   6.162   2.740
 2897TIP3    H130182   4.702   6.135   2.832
 2897TIP3    H230183   4.620   6.221   2.738
 2898TIP3   OH230184   0.324   3.760  11.901
 2898TIP3    H130185   0.339   3.851  11.872
 2898TIP3    H230186   0.409   3.718  11.889
 2899TIP3   OH230187   1.428   6.396  16.378
 2899TIP3    H130188   1.366   6.447  16.326
 2899TIP3    H230189   1.513   6.435  16.361
 2900TIP3   OH230190   2.226   0.613  13.118
 2900TIP3    H130191   2.182   0.638  13.199
 2900TIP3    H230192   2.172   0.652  13.049
 2901TIP3   OH230193   4.615   4.387  15.424
 2901TIP3    H130194   4.704   4.401  15.393
 2901TIP3    H230195   4.561   4.439  15.364
 2902TIP3   OH230196   4.306   0.223   0.080
 2902TIP3    H130197   4.266   0.167   0.146
 2902TIP3    H230198   4.343   0.162   0.016
 2903TIP3   OH230199   1.053   1.379  14.693
 2903TIP3    H130200   1.121   1.377  14.761
 2903TIP3    H230201   0.986   1.319  14.726
 2904TIP3   OH230202   3.133   4.343   3.256
 2904TIP3    H130203   3.128   4.249   3.239
 2904TIP3    H230204   3.065   4.359   3.322
 2905TIP3   OH230205   0.489   0.475   3.310
 2905TIP3    H130206   0.409   0.519   3.340
 2905TIP3    H230207   0.476   0.383   3.334
 2906TIP3   OH230208   0.920   3.037  11.230
 2906TIP3    H130209   0.978   2.961  11.220
 2906TIP3    H230210   0.959   3.104  11.174
 2907TIP3   OH230211   1.747   4.129   6.208
 2907TIP3    H130212   1.778   4.099   6.293
 2907TIP3    H230213   1.821   4.178   6.171
 2908TIP3   OH230214   0.742   0.698   0.448
 2908TIP3    H130215   0.758   0.617   0.496
 2908TIP3    H230216   0.822   0.712   0.397
 2909TIP3   OH230217   3.268   4.515  13.282
 2909TIP3    H130218   3.315   4.480  13.357
 2909TIP3    H230219   3.220   4.440  13.247
 2910TIP3   OH230220   2.583   1.143  16.223
 2910TIP3    H130221   2.567   1.208  16.154
 2910TIP3    H230222   2.592   1.060  16.175
 2911TIP3   OH230223   1.480   3.004  15.570
 2911TIP3    H130224   1.564   2.960  15.588
 2911TIP3    H230225   1.461   2.982  15.478
 2912TIP3   OH230226   4.270   2.269   2.656
 2912TIP3    H130227   4.217   2.315   2.721
 2912TIP3    H230228   4.218   2.191   2.634
 2913TIP3   OH230229   2.212   5.315  12.068
 2913TIP3    H130230   2.274   5.352  12.005
 2913TIP3    H230231   2.241   5.348  12.153
 2914TIP3   OH230232   4.536   2.538   3.604
 2914TIP3    H130233   4.601   2.527   3.673
 2914TIP3    H230234   4.471   2.597   3.643
 2915TIP3   OH230235   1.689   4.440  16.651
 2915TIP3    H130236   1.625   4.511  16.637
 2915TIP3    H230237   1.642   4.375  16.703
 2916TIP3   OH230238   4.945   3.232  13.337
 2916TIP3    H130239   4.912   3.319  13.359
 2916TIP3    H230240   4.901   3.210  13.255
 2917TIP3   OH230241   2.453   0.254   5.327
 2917TIP3    H130242   2.368   0.297   5.330
 2917TIP3    H230243   2.467   0.234   5.235
 2918TIP3   OH230244   2.778   2.088  16.715
 2918TIP3    H130245   2.763   2.001  16.677
 2918TIP3    H230246   2.804   2.072  16.805
 2919TIP3   OH230247   4.878   0.442   2.765
 2919TIP3    H130248   4.872   0.491   2.683
 2919TIP3    H230249   4.966   0.404   2.764
 2920TIP3   OH230250   0.640   0.801   3.818
 2920TIP3    H130251   0.614   0.880   3.771
 2920TIP3    H230252   0.641   0.827   3.910
 2921TIP3   OH230253   2.550   3.869  17.089
 2921TIP3    H130254   2.628   3.834  17.046
 2921TIP3    H230255   2.575   3.958  17.115
 2922TIP3   OH230256   5.875   2.463   0.575
 2922TIP3    H130257   5.909   2.451   0.664
 2922TIP3    H230258   5.953   2.462   0.519
 2923TIP3   OH230259   5.642   0.931  13.927
 2923TIP3    H130260   5.711   0.958  13.988
 2923TIP3    H230261   5.682   0.862  13.874
 2924TIP3   OH230262   6.115   2.822  13.014
 2924TIP3    H130263   6.200   2.851  12.980
 2924TIP3    H230264   6.055   2.829  12.940
 2925TIP3   OH230265   6.209   3.010   6.869
 2925TIP3    H130266   6.263   2.938   6.837
 2925TIP3    H230267   6.223   3.080   6.806
 2926TIP3   OH230268   2.352   0.366  12.890
 2926TIP3    H130269   2.309   0.285  12.918
 2926TIP3    H230270   2.442   0.358  12.921
 2927TIP3   OH230271   6.265   1.455   5.888
 2927TIP3    H130272   6.222   1.522   5.942
 2927TIP3    H230273   6.194   1.413   5.840
 2928TIP3   OH230274   5.251   2.813   2.363
 2928TIP3    H130275   5.159   2.836   2.376
 2928TIP3    H230276   5.285   2.882   2.305
 2929TIP3   OH230277   6.071   1.337  14.408
 2929TIP3    H130278   6.035   1.420  14.375
 2929TIP3    H230279   6.146   1.364  14.461
 2930TIP3   OH230280   0.506   1.905  15.751
 2930TIP3    H130281   0.428   1.850  15.757
 2930TIP3    H230282   0.515   1.944  15.838
 2931TIP3   OH230283   6.179   4.157   5.886
 2931TIP3    H130284   6.199   4.189   5.974
 2931TIP3    H230285   6.229   4.076   5.879
 2932TIP3   OH230286   2.985   4.019   0.781
 2932TIP3    H130287   2.890   4.029   0.767
 2932TIP3    H230288   3.003   3.929   0.755
 2933TIP3   OH230289   6.011   6.173  12.135
 2933TIP3    H130290   6.017   6.255  12.087
 2933TIP3    H230291   6.094   6.166  12.182
 2934TIP3   OH230292   6.609   5.157  16.725
 2934TIP3    H130293   6.551   5.229  16.750
 2934TIP3    H230294   6.634   5.177  16.635
 2935TIP3   OH230295   1.195   2.978  11.443
 2935TIP3    H130296   1.286   3.007  11.441
 2935TIP3    H230297   1.176   2.954  11.352
 2936TIP3   OH230298   1.930   2.916   6.224
 2936TIP3    H130299   1.865   2.925   6.294
 2936TIP3    H230300   1.895   2.967   6.151
 2937TIP3   OH230301   0.595   6.299   3.074
 2937TIP3    H130302   0.556   6.385   3.055
 2937TIP3    H230303   0.663   6.289   3.008
 2938TIP3   OH230304   3.154   1.945   3.662
 2938TIP3    H130305   3.129   1.856   3.637
 2938TIP3    H230306   3.144   1.947   3.758
 2939TIP3   OH230307   0.898   5.890   2.759
 2939TIP3    H130308   0.904   5.795   2.770
 2939TIP3    H230309   0.899   5.903   2.664
 2940TIP3   OH230310   2.876   0.669   1.202
 2940TIP3    H130311   2.931   0.596   1.228
 2940TIP3    H230312   2.865   0.658   1.107
 2941TIP3   OH230313   4.046   4.531   2.546
 2941TIP3    H130314   4.059   4.552   2.454
 2941TIP3    H230315   3.996   4.605   2.581
 2942TIP3   OH230316   4.867   0.546  12.506
 2942TIP3    H130317   4.919   0.564  12.427
 2942TIP3    H230318   4.918   0.480  12.553
 2943TIP3   OH230319   2.042   4.234   2.407
 2943TIP3    H130320   2.011   4.177   2.336
 2943TIP3    H230321   2.011   4.191   2.487
 2944TIP3   OH230322   3.757   2.818  15.573
 2944TIP3    H130323   3.851   2.807  15.556
 2944TIP3    H230324   3.733   2.743  15.627
 2945TIP3   OH230325   1.571   2.404   6.131
 2945TIP3    H130326   1.614   2.394   6.046
 2945TIP3    H230327   1.589   2.322   6.178
 2946TIP3   OH230328   1.237   2.837   1.364
 2946TIP3    H130329   1.269   2.925   1.387
 2946TIP3    H230330   1.143   2.849   1.350
 2947TIP3   OH230331   3.323   1.376   2.280
 2947TIP3    H130332   3.361   1.292   2.254
 2947TIP3    H230333   3.371   1.401   2.359
 2948TIP3   OH230334   5.757   3.597  13.978
 2948TIP3    H130335   5.840   3.556  13.954
 2948TIP3    H230336   5.723   3.542  14.049
 2949TIP3   OH230337   5.875   0.809   1.813
 2949TIP3    H130338   5.930   0.882   1.786
 2949TIP3    H230339   5.927   0.731   1.793
 2950TIP3   OH230340   0.166   1.476  11.796
 2950TIP3    H130341   0.079   1.514  11.779
 2950TIP3    H230342   0.211   1.480  11.712
 2951TIP3   OH230343   6.594   4.474   4.302
 2951TIP3    H130344   6.514   4.441   4.344
 2951TIP3    H230345   6.657   4.403   4.312
 2952TIP3   OH230346   6.553   0.574  14.738
 2952TIP3    H130347   6.628   0.616  14.781
 2952TIP3    H230348   6.589   0.494  14.699
 2953TIP3   OH230349   5.830   5.005  13.888
 2953TIP3    H130350   5.879   4.953  13.823
 2953TIP3    H230351   5.869   5.093  13.881
 2954TIP3   OH230352   1.800   3.747   6.128
 2954TIP3    H130353   1.763   3.687   6.063
 2954TIP3    H230354   1.756   3.724   6.210
 2955TIP3   OH230355   4.561   5.968   5.312
 2955TIP3    H130356   4.626   5.900   5.290
 2955TIP3    H230357   4.515   5.933   5.387
 2956TIP3   OH230358   1.438   2.080   0.041
 2956TIP3    H130359   1.362   2.114  -0.006
 2956TIP3    H230360   1.408   2.069   0.131
 2957TIP3   OH230361   0.747   5.231   1.306
 2957TIP3    H130362   0.681   5.297   1.329
 2957TIP3    H230363   0.718   5.151   1.349
 2958TIP3   OH230364   4.890   4.229   1.283
 2958TIP3    H130365   4.817   4.262   1.231
 2958TIP3    H230366   4.949   4.304   1.292
 2959TIP3   OH230367   2.181   6.394   4.862
 2959TIP3    H130368   2.089   6.371   4.854
 2959TIP3    H230369   2.207   6.419   4.773
 2960TIP3   OH230370   5.888   1.551  14.243
 2960TIP3    H130371   5.924   1.640  14.238
 2960TIP3    H230372   5.956   1.496  14.205
 2961TIP3   OH230373   2.293   5.992   6.244
 2961TIP3    H130374   2.216   5.981   6.300
 2961TIP3    H230375   2.359   5.934   6.283
 2962TIP3   OH230376   3.482   2.495   5.940
 2962TIP3    H130377   3.536   2.562   5.897
 2962TIP3    H230378   3.516   2.412   5.906
 2963TIP3   OH230379   0.041   5.746   1.025
 2963TIP3    H130380  -0.007   5.827   1.041
 2963TIP3    H230381   0.084   5.759   0.941
 2964TIP3   OH230382   1.268   5.708   4.481
 2964TIP3    H130383   1.236   5.680   4.567
 2964TIP3    H230384   1.202   5.770   4.450
 2965TIP3   OH230385   6.116   1.647  11.600
 2965TIP3    H130386   6.121   1.718  11.537
 2965TIP3    H230387   6.100   1.690  11.684
 2966TIP3   OH230388   1.900   4.088   3.546
 2966TIP3    H130389   1.873   4.126   3.630
 2966TIP3    H230390   1.993   4.110   3.539
 2967TIP3   OH230391   2.960   1.254  14.016
 2967TIP3    H130392   2.986   1.332  13.968
 2967TIP3    H230393   2.929   1.193  13.949
 2968TIP3   OH230394   5.459   2.407  10.621
 2968TIP3    H130395   5.454   2.501  10.604
 2968TIP3    H230396   5.551   2.392  10.645
 2969TIP3   OH230397   3.485   5.535   2.192
 2969TIP3    H130398   3.512   5.472   2.260
 2969TIP3    H230399   3.478   5.618   2.239
 2970TIP3   OH230400   0.453   1.431  12.293
 2970TIP3    H130401   0.517   1.441  12.364
 2970TIP3    H230402   0.477   1.348  12.251
 2971TIP3   OH230403   1.199   1.454  12.984
 2971TIP3    H130404   1.210   1.369  12.941
 2971TIP3    H230405   1.287   1.477  13.014
 2972TIP3   OH230406   2.141   1.531  13.147
 2972TIP3    H130407   2.223   1.574  13.122
 2972TIP3    H230408   2.083   1.604  13.170
 2973TIP3   OH230409   4.021   5.054   3.245
 2973TIP3    H130410   3.945   5.111   3.229
 2973TIP3    H230411   4.095   5.106   3.215
 2974TIP3   OH230412   3.087   4.895   3.961
 2974TIP3    H130413   3.091   4.894   3.865
 2974TIP3    H230414   3.029   4.968   3.982
 2975TIP3   OH230415   3.501   3.188   5.577
 2975TIP3    H130416   3.460   3.182   5.491
 2975TIP3    H230417   3.502   3.098   5.609
 2976TIP3   OH230418   4.575   2.886  13.673
 2976TIP3    H130419   4.651   2.855  13.625
 2976TIP3    H230420   4.605   2.897  13.763
 2977TIP3   OH230421   4.564   0.475   1.645
 2977TIP3    H130422   4.501   0.409   1.677
 2977TIP3    H230423   4.563   0.542   1.713
 2978TIP3   OH230424   1.463   0.060   6.700
 2978TIP3    H130425   1.531  -0.001   6.727
 2978TIP3    H230426   1.381   0.017   6.725
 2979TIP3   OH230427   0.457   4.315   3.911
 2979TIP3    H130428   0.398   4.328   3.837
 2979TIP3    H230429   0.540   4.287   3.871
 2980TIP3   OH230430   3.420   6.480   4.778
 2980TIP3    H130431   3.444   6.394   4.745
 2980TIP3    H230432   3.455   6.483   4.867
 2981TIP3   OH230433   4.298   3.339   1.248
 2981TIP3    H130434   4.283   3.245   1.251
 2981TIP3    H230435   4.357   3.352   1.174
 2982TIP3   OH230436   6.642   5.753   2.951
 2982TIP3    H130437   6.693   5.689   3.002
 2982TIP3    H230438   6.652   5.835   2.998
 2983TIP3   OH230439   0.405   3.058   2.255
 2983TIP3    H130440   0.348   2.986   2.226
 2983TIP3    H230441   0.477   3.058   2.192
 2984TIP3   OH230442   6.728   3.709   1.678
 2984TIP3    H130443   6.771   3.687   1.761
 2984TIP3    H230444   6.797   3.699   1.613
 2985TIP3   OH230445   2.798   4.281  11.360
 2985TIP3    H130446   2.786   4.241  11.274
 2985TIP3    H230447   2.728   4.346  11.367
 2986TIP3   OH230448   3.036   4.894   3.195
 2986TIP3    H130449   3.129   4.888   3.177
 2986TIP3    H230450   2.999   4.931   3.114
 2987TIP3   OH230451   0.055   2.070  15.731
 2987TIP3    H130452   0.092   2.158  15.735
 2987TIP3    H230453   0.085   2.028  15.812
 2988TIP3   OH230454   6.818   5.189  13.175
 2988TIP3    H130455   6.822   5.100  13.211
 2988TIP3    H230456   6.793   5.244  13.248
 2989TIP3   OH230457   1.867   0.108  11.120
 2989TIP3    H130458   1.822   0.102  11.035
 2989TIP3    H230459   1.948   0.154  11.100
 2990TIP3   OH230460   3.323   3.445  15.690
 2990TIP3    H130461   3.351   3.453  15.598
 2990TIP3    H230462   3.379   3.506  15.737
 2991TIP3   OH230463   3.255   1.908  12.444
 2991TIP3    H130464   3.256   1.842  12.513
 2991TIP3    H230465   3.283   1.861  12.365
 2992TIP3   OH230466   4.764   3.943   1.029
 2992TIP3    H130467   4.845   3.934   0.979
 2992TIP3    H230468   4.694   3.944   0.963
 2993TIP3   OH230469   0.515   0.937   1.673
 2993TIP3    H130470   0.496   0.844   1.668
 2993TIP3    H230471   0.586   0.951   1.610
 2994TIP3   OH230472   6.372   6.195   4.064
 2994TIP3    H130473   6.413   6.178   3.980
 2994TIP3    H230474   6.338   6.284   4.057
 2995TIP3   OH230475   3.430   2.221  16.061
 2995TIP3    H130476   3.437   2.315  16.045
 2995TIP3    H230477   3.434   2.182  15.973
 2996TIP3   OH230478   6.367   4.361   2.702
 2996TIP3    H130479   6.395   4.451   2.687
 2996TIP3    H230480   6.274   4.360   2.681
 2997TIP3   OH230481   2.041   4.697   3.338
 2997TIP3    H130482   1.989   4.763   3.384
 2997TIP3    H230483   2.104   4.668   3.404
 2998TIP3   OH230484   1.265   6.111   0.255
 2998TIP3    H130485   1.246   6.196   0.295
 2998TIP3    H230486   1.271   6.129   0.162
 2999TIP3   OH230487   2.717   5.959  15.013
 2999TIP3    H130488   2.622   5.956  15.007
 2999TIP3    H230489   2.747   5.885  14.959
 3000TIP3   OH230490   4.429   2.723   1.451
 3000TIP3    H130491   4.456   2.811   1.427
 3000TIP3    H230492   4.373   2.695   1.379
 3001TIP3   OH230493   2.943   6.262  14.180
 3001TIP3    H130494   2.976   6.345  14.213
 3001TIP3    H230495   2.889   6.285  14.104
 3002TIP3   OH230496   2.658   6.627   1.887
 3002TIP3    H130497   2.621   6.629   1.976
 3002TIP3    H230498   2.620   6.704   1.844
 3003TIP3   OH230499   6.280   2.132  15.651
 3003TIP3    H130500   6.370   2.104  15.639
 3003TIP3    H230501   6.234   2.099  15.574
 3004TIP3   OH230502   6.809   0.229  13.832
 3004TIP3    H130503   6.765   0.234  13.748
 3004TIP3    H230504   6.864   0.308  13.835
 3005TIP3   OH230505   1.941   6.412  12.696
 3005TIP3    H130506   1.969   6.339  12.640
 3005TIP3    H230507   1.874   6.374  12.752
 3006TIP3   OH230508   1.229   0.249   0.740
 3006TIP3    H130509   1.196   0.250   0.650
 3006TIP3    H230510   1.312   0.297   0.735
 3007TIP3   OH230511   5.980   6.793   5.397
 3007TIP3    H130512   5.912   6.852   5.430
 3007TIP3    H230513   6.033   6.772   5.474
 3008TIP3   OH230514   2.052   5.335   3.584
 3008TIP3    H130515   2.091   5.265   3.637
 3008TIP3    H230516   2.125   5.393   3.563
 3009TIP3   OH230517   5.672   3.933   4.893
 3009TIP3    H130518   5.580   3.959   4.886
 3009TIP3    H230519   5.685   3.914   4.986
 3010TIP3   OH230520   4.153   2.275   4.338
 3010TIP3    H130521   4.085   2.269   4.270
 3010TIP3    H230522   4.120   2.342   4.398
 3011TIP3   OH230523   2.725   5.101  17.263
 3011TIP3    H130524   2.656   5.126  17.202
 3011TIP3    H230525   2.678   5.069  17.341
 3012TIP3   OH230526   2.797   0.285  11.354
 3012TIP3    H130527   2.855   0.326  11.419
 3012TIP3    H230528   2.831   0.196  11.345
 3013TIP3   OH230529   5.635   4.086  16.681
 3013TIP3    H130530   5.624   4.147  16.754
 3013TIP3    H230531   5.728   4.090  16.660
 3014TIP3   OH230532   3.453   4.175  10.551
 3014TIP3    H130533   3.459   4.104  10.488
 3014TIP3    H230534   3.367   4.164  10.592
 3015TIP3   OH230535   2.243   0.633  14.690
 3015TIP3    H130536   2.165   0.667  14.645
 3015TIP3    H230537   2.293   0.591  14.620
 3016TIP3   OH230538   3.619   1.404  16.878
 3016TIP3    H130539   3.535   1.358  16.870
 3016TIP3    H230540   3.617   1.471  16.810
 3017TIP3   OH230541   4.140   1.417  16.970
 3017TIP3    H130542   4.174   1.399  17.057
 3017TIP3    H230543   4.210   1.388  16.911
 3018TIP3   OH230544   5.178   3.786  10.440
 3018TIP3    H130545   5.245   3.854  10.438
 3018TIP3    H230546   5.204   3.724  10.371
 3019TIP3   OH230547   3.505   5.909   3.932
 3019TIP3    H130548   3.578   5.919   3.994
 3019TIP3    H230549   3.544   5.924   3.846
 3020TIP3   OH230550   4.524   1.448  11.051
 3020TIP3    H130551   4.555   1.362  11.023
 3020TIP3    H230552   4.569   1.509  10.992
 3021TIP3   OH230553   0.259   3.902  13.311
 3021TIP3    H130554   0.176   3.860  13.330
 3021TIP3    H230555   0.235   3.986  13.272
 3022TIP3   OH230556   0.624   4.458   0.834
 3022TIP3    H130557   0.542   4.492   0.799
 3022TIP3    H230558   0.600   4.374   0.873
 3023TIP3   OH230559   3.399   1.292  11.370
 3023TIP3    H130560   3.360   1.347  11.302
 3023TIP3    H230561   3.362   1.205  11.356
 3024TIP3   OH230562   1.876   0.853  13.191
 3024TIP3    H130563   1.895   0.770  13.146
 3024TIP3    H230564   1.798   0.833  13.244
 3025TIP3   OH230565   0.939   5.119   3.902
 3025TIP3    H130566   0.870   5.184   3.893
 3025TIP3    H230567   0.914   5.068   3.980
 3026TIP3   OH230568   1.719   6.124  17.273
 3026TIP3    H130569   1.674   6.057  17.324
 3026TIP3    H230570   1.806   6.129  17.313
 3027TIP3   OH230571   6.595   4.024   2.515
 3027TIP3    H130572   6.531   3.954   2.518
 3027TIP3    H230573   6.559   4.087   2.452
 3028TIP3   OH230574   2.604   0.459   5.002
 3028TIP3    H130575   2.694   0.491   4.995
 3028TIP3    H230576   2.609   0.367   4.976
 3029TIP3   OH230577   3.461   5.884  14.902
 3029TIP3    H130578   3.448   5.831  14.824
 3029TIP3    H230579   3.479   5.972  14.869
 3030TIP3   OH230580   3.092   3.901   6.152
 3030TIP3    H130581   3.028   3.971   6.146
 3030TIP3    H230582   3.147   3.925   6.227
 3031TIP3   OH230583   1.383   5.450   4.959
 3031TIP3    H130584   1.293   5.418   4.956
 3031TIP3    H230585   1.414   5.429   5.047
 3032TIP3   OH230586   2.106   4.548   0.821
 3032TIP3    H130587   2.074   4.593   0.900
 3032TIP3    H230588   2.197   4.576   0.814
 3033TIP3   OH230589   6.284   5.268  11.580
 3033TIP3    H130590   6.319   5.333  11.640
 3033TIP3    H230591   6.360   5.214  11.557
 3034TIP3   OH230592   0.690   2.003  12.910
 3034TIP3    H130593   0.619   1.947  12.881
 3034TIP3    H230594   0.735   2.029  12.830
 3035TIP3   OH230595   0.846   5.608   2.345
 3035TIP3    H130596   0.844   5.642   2.255
 3035TIP3    H230597   0.755   5.584   2.363
 3036TIP3   OH230598   3.566   4.214  16.581
 3036TIP3    H130599   3.524   4.249  16.503
 3036TIP3    H230600   3.591   4.291  16.632
 3037TIP3   OH230601   6.513   6.818  12.494
 3037TIP3    H130602   6.521   6.778  12.407
 3037TIP3    H230603   6.502   6.744  12.554
 3038TIP3   OH230604   3.929   2.919  15.144
 3038TIP3    H130605   3.854   2.917  15.204
 3038TIP3    H230606   3.902   2.864  15.071
 3039TIP3   OH230607   5.425   4.847  16.360
 3039TIP3    H130608   5.346   4.901  16.346
 3039TIP3    H230609   5.433   4.797  16.279
 3040TIP3   OH230610   6.460   4.300  12.236
 3040TIP3    H130611   6.506   4.217  12.253
 3040TIP3    H230612   6.412   4.284  12.155
 3041TIP3   OH230613   2.524   3.515  13.493
 3041TIP3    H130614   2.489   3.541  13.408
 3041TIP3    H230615   2.521   3.419  13.492
 3042TIP3   OH230616   0.907   4.894   6.584
 3042TIP3    H130617   0.895   4.799   6.586
 3042TIP3    H230618   0.831   4.929   6.631
 3043TIP3   OH230619   6.634   6.399  12.596
 3043TIP3    H130620   6.677   6.373  12.515
 3043TIP3    H230621   6.540   6.385  12.579
 3044TIP3   OH230622   5.178   2.147  12.740
 3044TIP3    H130623   5.249   2.204  12.768
 3044TIP3    H230624   5.155   2.178  12.653
 3045TIP3   OH230625   5.249   5.867  16.947
 3045TIP3    H130626   5.258   5.961  16.931
 3045TIP3    H230627   5.328   5.829  16.909
 3046TIP3   OH230628   3.327   6.321   1.872
 3046TIP3    H130629   3.259   6.331   1.939
 3046TIP3    H230630   3.401   6.373   1.904
 3047TIP3   OH230631   2.271   1.301  15.221
 3047TIP3    H130632   2.252   1.293  15.315
 3047TIP3    H230633   2.341   1.237  15.206
 3048TIP3   OH230634   3.267   3.820  12.993
 3048TIP3    H130635   3.273   3.875  12.915
 3048TIP3    H230636   3.337   3.756  12.983
 3049TIP3   OH230637   2.267   0.878  12.113
 3049TIP3    H130638   2.360   0.892  12.094
 3049TIP3    H230639   2.266   0.809  12.180
 3050TIP3   OH230640   3.325   4.928  14.862
 3050TIP3    H130641   3.287   4.903  14.778
 3050TIP3    H230642   3.397   4.866  14.875
 3051TIP3   OH230643   4.486   5.159  13.811
 3051TIP3    H130644   4.521   5.222  13.873
 3051TIP3    H230645   4.426   5.209  13.755
 3052TIP3   OH230646   2.671   5.525  13.347
 3052TIP3    H130647   2.610   5.593  13.318
 3052TIP3    H230648   2.620   5.472  13.408
 3053TIP3   OH230649   5.922   1.316  15.083
 3053TIP3    H130650   5.886   1.393  15.039
 3053TIP3    H230651   6.014   1.315  15.059
 3054TIP3   OH230652   6.234   2.060  15.386
 3054TIP3    H130653   6.184   1.981  15.365
 3054TIP3    H230654   6.195   2.129  15.332
 3055TIP3   OH230655   4.423   1.879   3.098
 3055TIP3    H130656   4.508   1.853   3.132
 3055TIP3    H230657   4.421   1.974   3.107
 3056TIP3   OH230658   2.372   6.248   4.041
 3056TIP3    H130659   2.427   6.199   3.980
 3056TIP3    H230660   2.429   6.264   4.117
 3057TIP3   OH230661   0.926   0.539   0.871
 3057TIP3    H130662   0.905   0.511   0.960
 3057TIP3    H230663   1.021   0.548   0.871
 3058TIP3   OH230664   6.788   3.732  13.632
 3058TIP3    H130665   6.753   3.644  13.629
 3058TIP3    H230666   6.805   3.749  13.724
 3059TIP3   OH230667   1.525   0.052   5.483
 3059TIP3    H130668   1.567   0.097   5.556
 3059TIP3    H230669   1.587   0.062   5.410
 3060TIP3   OH230670   1.538   3.513   1.390
 3060TIP3    H130671   1.545   3.596   1.438
 3060TIP3    H230672   1.485   3.534   1.313
 3061TIP3   OH230673   0.047   0.097   3.352
 3061TIP3    H130674  -0.016   0.057   3.293
 3061TIP3    H230675  -0.003   0.160   3.403
 3062TIP3   OH230676   4.689   0.886  12.030
 3062TIP3    H130677   4.688   0.847  11.942
 3062TIP3    H230678   4.601   0.870  12.064
 3063TIP3   OH230679   1.476   6.714   2.268
 3063TIP3    H130680   1.527   6.764   2.204
 3063TIP3    H230681   1.509   6.625   2.259
 3064TIP3   OH230682   3.542   6.753   6.450
 3064TIP3    H130683   3.496   6.817   6.504
 3064TIP3    H230684   3.607   6.714   6.508
 3065TIP3   OH230685   0.696   3.945   4.633
 3065TIP3    H130686   0.692   4.040   4.638
 3065TIP3    H230687   0.719   3.917   4.721
 3066TIP3   OH230688   5.691   1.552   0.910
 3066TIP3    H130689   5.597   1.560   0.929
 3066TIP3    H230690   5.734   1.598   0.981
 3067TIP3   OH230691   0.169   3.463  15.802
 3067TIP3    H130692   0.143   3.474  15.711
 3067TIP3    H230693   0.125   3.383  15.831
 3068TIP3   OH230694   3.632   4.842  13.113
 3068TIP3    H130695   3.590   4.774  13.166
 3068TIP3    H230696   3.726   4.828  13.127
 3069TIP3   OH230697   1.556   3.420   6.224
 3069TIP3    H130698   1.476   3.367   6.221
 3069TIP3    H230699   1.526   3.507   6.249
 3070TIP3   OH230700   4.618   3.993  13.184
 3070TIP3    H130701   4.573   4.013  13.102
 3070TIP3    H230702   4.650   4.077  13.215
 3071TIP3   OH230703   3.556   0.970   5.969
 3071TIP3    H130704   3.478   0.995   6.020
 3071TIP3    H230705   3.580   1.050   5.922
 3072TIP3   OH230706   3.431   1.653   1.598
 3072TIP3    H130707   3.416   1.699   1.516
 3072TIP3    H230708   3.441   1.561   1.572
 3073TIP3   OH230709   1.823   6.308  13.095
 3073TIP3    H130710   1.862   6.381  13.143
 3073TIP3    H230711   1.737   6.295  13.136
 3074TIP3   OH230712   5.550   6.409   1.550
 3074TIP3    H130713   5.601   6.378   1.625
 3074TIP3    H230714   5.564   6.504   1.550
 3075TIP3   OH230715   3.935   6.338   6.255
 3075TIP3    H130716   3.930   6.263   6.314
 3075TIP3    H230717   3.968   6.301   6.173
 3076TIP3   OH230718   0.066   3.022  16.163
 3076TIP3    H130719   0.141   3.055  16.214
 3076TIP3    H230720   0.099   3.015  16.074
 3077TIP3   OH230721   5.924   4.710  17.027
 3077TIP3    H130722   5.868   4.787  17.029
 3077TIP3    H230723   5.967   4.710  17.113
 3078TIP3   OH230724   6.548   0.743  17.217
 3078TIP3    H130725   6.515   0.698  17.295
 3078TIP3    H230726   6.470   0.766  17.167
 3079TIP3   OH230727   0.504   0.921   0.175
 3079TIP3    H130728   0.524   0.867   0.098
 3079TIP3    H230729   0.434   0.873   0.220
 3080TIP3   OH230730   4.980   3.352  11.743
 3080TIP3    H130731   5.071   3.337  11.767
 3080TIP3    H230732   4.985   3.411  11.667
 3081TIP3   OH230733   4.320   0.832   2.584
 3081TIP3    H130734   4.362   0.916   2.564
 3081TIP3    H230735   4.361   0.803   2.665
 3082TIP3   OH230736   1.769   0.723   4.917
 3082TIP3    H130737   1.751   0.813   4.887
 3082TIP3    H230738   1.824   0.686   4.849
 3083TIP3   OH230739   4.028   0.574  15.590
 3083TIP3    H130740   4.038   0.663  15.558
 3083TIP3    H230741   4.095   0.564  15.657
 3084TIP3   OH230742   5.724   0.899   3.589
 3084TIP3    H130743   5.706   0.828   3.527
 3084TIP3    H230744   5.692   0.978   3.544
 3085TIP3   OH230745   0.640   2.070  16.769
 3085TIP3    H130746   0.671   1.989  16.809
 3085TIP3    H230747   0.719   2.109  16.729
 3086TIP3   OH230748   4.459   6.405  11.890
 3086TIP3    H130749   4.488   6.469  11.825
 3086TIP3    H230750   4.435   6.458  11.966
 3087TIP3   OH230751   1.712   4.494   1.306
 3087TIP3    H130752   1.701   4.575   1.356
 3087TIP3    H230753   1.805   4.493   1.281
 3088TIP3   OH230754   1.977   6.782  14.799
 3088TIP3    H130755   2.029   6.806  14.722
 3088TIP3    H230756   2.040   6.738  14.857
 3089TIP3   OH230757   3.324   0.133   0.710
 3089TIP3    H130758   3.364   0.056   0.670
 3089TIP3    H230759   3.230   0.114   0.710
 3090TIP3   OH230760   4.846   3.571   0.911
 3090TIP3    H130761   4.798   3.522   0.844
 3090TIP3    H230762   4.937   3.543   0.900
 3091TIP3   OH230763   6.031   6.518  15.681
 3091TIP3    H130764   5.949   6.539  15.637
 3091TIP3    H230765   6.062   6.438  15.638
 3092TIP3   OH230766   1.259   5.448   3.052
 3092TIP3    H130767   1.354   5.437   3.061
 3092TIP3    H230768   1.238   5.520   3.111
 3093TIP3   OH230769   1.956   4.655   0.486
 3093TIP3    H130770   1.915   4.581   0.531
 3093TIP3    H230771   1.931   4.732   0.537
 3094TIP3   OH230772   4.011   2.815   2.470
 3094TIP3    H130773   4.058   2.732   2.458
 3094TIP3    H230774   3.986   2.815   2.563
 3095TIP3   OH230775   0.788   2.725   5.156
 3095TIP3    H130776   0.854   2.666   5.191
 3095TIP3    H230777   0.808   2.731   5.063
 3096TIP3   OH230778   5.446   0.175   3.146
 3096TIP3    H130779   5.411   0.260   3.120
 3096TIP3    H230780   5.370   0.126   3.177
 3097TIP3   OH230781   6.598   3.486   3.562
 3097TIP3    H130782   6.670   3.423   3.561
 3097TIP3    H230783   6.641   3.572   3.561
 3098TIP3   OH230784   3.119   2.855   4.152
 3098TIP3    H130785   3.066   2.908   4.211
 3098TIP3    H230786   3.071   2.856   4.069
 3099TIP3   OH230787   2.816   1.029  12.044
 3099TIP3    H130788   2.896   1.074  12.070
 3099TIP3    H230789   2.846   0.956  11.990
 3100TIP3   OH230790   6.512   1.974  16.730
 3100TIP3    H130791   6.548   2.018  16.653
 3100TIP3    H230792   6.447   1.913  16.696
 3101TIP3   OH230793   3.584   5.820  13.556
 3101TIP3    H130794   3.527   5.891  13.583
 3101TIP3    H230795   3.642   5.806  13.632
 3102TIP3   OH230796   4.035   2.762  13.369
 3102TIP3    H130797   3.950   2.759  13.324
 3102TIP3    H230798   4.024   2.703  13.443
 3103TIP3   OH230799   5.227   5.783   5.396
 3103TIP3    H130800   5.297   5.827   5.445
 3103TIP3    H230801   5.213   5.838   5.320
 3104TIP3   OH230802   6.470   2.804  14.910
 3104TIP3    H130803   6.397   2.751  14.943
 3104TIP3    H230804   6.523   2.822  14.988
 3105TIP3   OH230805   0.235   5.589  11.288
 3105TIP3    H130806   0.196   5.518  11.340
 3105TIP3    H230807   0.233   5.556  11.198
 3106TIP3   OH230808   0.414   0.232   1.263
 3106TIP3    H130809   0.418   0.306   1.202
 3106TIP3    H230810   0.504   0.220   1.292
 3107TIP3   OH230811   5.266   0.876   5.880
 3107TIP3    H130812   5.305   0.847   5.797
 3107TIP3    H230813   5.318   0.834   5.948
 3108TIP3   OH230814   3.901   2.740  12.432
 3108TIP3    H130815   3.952   2.702  12.361
 3108TIP3    H230816   3.864   2.665  12.479
 3109TIP3   OH230817   0.546   5.223  14.059
 3109TIP3    H130818   0.547   5.194  14.150
 3109TIP3    H230819   0.533   5.317  14.064
 3110TIP3   OH230820   1.646   6.663   0.716
 3110TIP3    H130821   1.738   6.689   0.719
 3110TIP3    H230822   1.600   6.740   0.683
 3111TIP3   OH230823   3.864   5.746   2.823
 3111TIP3    H130824   3.852   5.802   2.746
 3111TIP3    H230825   3.781   5.699   2.832
 3112TIP3   OH230826   3.517   6.777   2.675
 3112TIP3    H130827   3.531   6.838   2.748
 3112TIP3    H230828   3.602   6.772   2.631
 3113TIP3   OH230829   3.609   2.661   0.878
 3113TIP3    H130830   3.691   2.616   0.861
 3113TIP3    H230831   3.551   2.633   0.807
 3114TIP3   OH230832   5.958   1.194  11.371
 3114TIP3    H130833   5.866   1.179  11.348
 3114TIP3    H230834   6.007   1.158  11.297
 3115TIP3   OH230835   4.938   2.823  15.263
 3115TIP3    H130836   4.871   2.843  15.196
 3115TIP3    H230837   4.992   2.756  15.222
 3116TIP3   OH230838   4.834   6.072  14.396
 3116TIP3    H130839   4.852   6.115  14.313
 3116TIP3    H230840   4.899   6.108  14.456
 3117TIP3   OH230841   5.778   5.762  15.833
 3117TIP3    H130842   5.862   5.756  15.788
 3117TIP3    H230843   5.741   5.674  15.826
 3118TIP3   OH230844   1.988   5.597   4.503
 3118TIP3    H130845   1.935   5.551   4.437
 3118TIP3    H230846   1.987   5.688   4.474
 3119TIP3   OH230847   4.707   6.685   2.614
 3119TIP3    H130848   4.728   6.593   2.629
 3119TIP3    H230849   4.627   6.700   2.664
 3120TIP3   OH230850   0.203   1.001  15.493
 3120TIP3    H130851   0.295   1.018  15.515
 3120TIP3    H230852   0.154   1.025  15.571
 3121TIP3   OH230853   2.430   4.297   2.105
 3121TIP3    H130854   2.463   4.298   2.195
 3121TIP3    H230855   2.340   4.264   2.112
 3122TIP3   OH230856   6.667   4.148   6.518
 3122TIP3    H130857   6.624   4.233   6.508
 3122TIP3    H230858   6.602   4.085   6.488
 3123TIP3   OH230859   6.540   3.888   1.895
 3123TIP3    H130860   6.603   3.819   1.877
 3123TIP3    H230861   6.469   3.844   1.943
 3124TIP3   OH230862   5.992   1.019   4.092
 3124TIP3    H130863   6.052   0.964   4.043
 3124TIP3    H230864   6.048   1.080   4.140
 3125TIP3   OH230865   4.238   1.564   2.659
 3125TIP3    H130866   4.227   1.547   2.753
 3125TIP3    H230867   4.155   1.604   2.633
 3126TIP3   OH230868   0.751   1.417   0.931
 3126TIP3    H130869   0.720   1.401   1.021
 3126TIP3    H230870   0.794   1.502   0.935
 3127TIP3   OH230871   3.540   1.917   0.242
 3127TIP3    H130872   3.592   1.838   0.248
 3127TIP3    H230873   3.449   1.887   0.236
 3128TIP3   OH230874   4.286   4.463  11.359
 3128TIP3    H130875   4.202   4.417  11.350
 3128TIP3    H230876   4.342   4.423  11.292
 3129TIP3   OH230877   2.693   4.973   3.408
 3129TIP3    H130878   2.610   5.017   3.386
 3129TIP3    H230879   2.678   4.935   3.494
 3130TIP3   OH230880   4.305   5.538   6.362
 3130TIP3    H130881   4.395   5.534   6.397
 3130TIP3    H230882   4.261   5.603   6.418
 3131TIP3   OH230883   4.772   1.043   1.629
 3131TIP3    H130884   4.798   0.967   1.680
 3131TIP3    H230885   4.685   1.021   1.594
 3132TIP3   OH230886   0.254   0.263  14.408
 3132TIP3    H130887   0.187   0.332  14.419
 3132TIP3    H230888   0.318   0.282  14.477
 3133TIP3   OH230889   4.769   2.175  15.198
 3133TIP3    H130890   4.710   2.250  15.210
 3133TIP3    H230891   4.711   2.102  15.179
 3134TIP3   OH230892   2.543   0.146   4.154
 3134TIP3    H130893   2.544   0.107   4.241
 3134TIP3    H230894   2.548   0.071   4.094
 3135TIP3   OH230895   2.176   0.003   0.766
 3135TIP3    H130896   2.232   0.005   0.844
 3135TIP3    H230897   2.188   0.089   0.726
 3136TIP3   OH230898   2.249   5.098   0.039
 3136TIP3    H130899   2.177   5.148   0.077
 3136TIP3    H230900   2.220   5.080  -0.051
 3137TIP3   OH230901   3.868   1.616   3.850
 3137TIP3    H130902   3.935   1.556   3.881
 3137TIP3    H230903   3.788   1.588   3.894
 3138TIP3   OH230904   4.431   0.815   0.192
 3138TIP3    H130905   4.337   0.809   0.204
 3138TIP3    H230906   4.464   0.850   0.275
 3139TIP3   OH230907   1.903   2.250   2.146
 3139TIP3    H130908   1.933   2.217   2.062
 3139TIP3    H230909   1.938   2.339   2.151
 3140TIP3   OH230910   5.138   6.077  16.457
 3140TIP3    H130911   5.213   6.022  16.434
 3140TIP3    H230912   5.108   6.114  16.374
 3141TIP3   OH230913   2.959   5.844  17.096
 3141TIP3    H130914   2.873   5.831  17.055
 3141TIP3    H230915   3.011   5.889  17.029
 3142TIP3   OH230916   3.570   1.738  14.691
 3142TIP3    H130917   3.655   1.705  14.660
 3142TIP3    H230918   3.565   1.827  14.655
 3143TIP3   OH230919   5.738   3.053  13.488
 3143TIP3    H130920   5.815   3.075  13.436
 3143TIP3    H230921   5.718   2.962  13.466
 3144TIP3   OH230922   6.265   2.432  12.341
 3144TIP3    H130923   6.195   2.437  12.276
 3144TIP3    H230924   6.328   2.499  12.314
 3145TIP3   OH230925   6.441   3.336  17.187
 3145TIP3    H130926   6.392   3.413  17.215
 3145TIP3    H230927   6.385   3.262  17.209
 3146TIP3   OH230928   2.579   4.634   2.199
 3146TIP3    H130929   2.559   4.557   2.252
 3146TIP3    H230930   2.674   4.642   2.203
 3147TIP3   OH230931   4.456   5.132   3.675
 3147TIP3    H130932   4.497   5.089   3.599
 3147TIP3    H230933   4.368   5.154   3.644
 3148TIP3   OH230934   1.508   3.850   3.695
 3148TIP3    H130935   1.493   3.944   3.693
 3148TIP3    H230936   1.513   3.828   3.788
 3149TIP3   OH230937   5.035   4.742   3.197
 3149TIP3    H130938   4.941   4.725   3.190
 3149TIP3    H230939   5.069   4.669   3.248
 3150TIP3   OH230940   3.290   3.076  17.082
 3150TIP3    H130941   3.280   3.048  17.173
 3150TIP3    H230942   3.201   3.078  17.047
 3151TIP3   OH230943   0.187   2.128   1.796
 3151TIP3    H130944   0.160   2.205   1.746
 3151TIP3    H230945   0.187   2.157   1.887
 3152TIP3   OH230946   2.235   2.985  15.465
 3152TIP3    H130947   2.278   2.900  15.454
 3152TIP3    H230948   2.307   3.047  15.471
 3153TIP3   OH230949   6.667   0.682   3.623
 3153TIP3    H130950   6.661   0.587   3.608
 3153TIP3    H230951   6.759   0.703   3.607
 3154TIP3   OH230952   2.149   2.952   3.670
 3154TIP3    H130953   2.148   3.035   3.718
 3154TIP3    H230954   2.077   2.959   3.608
 3155TIP3   OH230955   2.118   0.722  11.879
 3155TIP3    H130956   2.188   0.762  11.932
 3155TIP3    H230957   2.163   0.656  11.826
 3156TIP3   OH230958   0.639   4.684   2.963
 3156TIP3    H130959   0.684   4.608   2.925
 3156TIP3    H230960   0.625   4.660   3.054
 3157TIP3   OH230961   0.975   2.568   5.278
 3157TIP3    H130962   1.035   2.510   5.232
 3157TIP3    H230963   0.964   2.529   5.364
 3158TIP3   OH230964   4.637   1.377  15.913
 3158TIP3    H130965   4.615   1.406  16.002
 3158TIP3    H230966   4.669   1.288  15.925
 3159TIP3   OH230967   6.366   2.870   5.383
 3159TIP3    H130968   6.360   2.792   5.328
 3159TIP3    H230969   6.287   2.920   5.363
 3160TIP3   OH230970   6.494   5.652  11.664
 3160TIP3    H130971   6.440   5.644  11.586
 3160TIP3    H230972   6.481   5.743  11.693
 3161TIP3   OH230973   4.301   6.029  13.634
 3161TIP3    H130974   4.261   6.030  13.547
 3161TIP3    H230975   4.284   6.117  13.669
 3162TIP3   OH230976   4.575   3.056   0.257
 3162TIP3    H130977   4.549   3.104   0.178
 3162TIP3    H230978   4.663   3.088   0.276
 3163TIP3   OH230979   5.425   2.487   2.676
 3163TIP3    H130980   5.388   2.437   2.749
 3163TIP3    H230981   5.350   2.506   2.620
 3164TIP3   OH230982   4.073   1.781   4.177
 3164TIP3    H130983   4.152   1.828   4.152
 3164TIP3    H230984   4.030   1.760   4.094
 3165TIP3   OH230985   3.069   2.603  12.571
 3165TIP3    H130986   3.057   2.686  12.617
 3165TIP3    H230987   2.984   2.586  12.530
 3166TIP3   OH230988   4.989   1.127   0.618
 3166TIP3    H130989   5.051   1.188   0.657
 3166TIP3    H230990   5.043   1.053   0.590
 3167TIP3   OH230991   3.942   3.559  15.142
 3167TIP3    H130992   4.025   3.549  15.097
 3167TIP3    H230993   3.933   3.478  15.194
 3168TIP3   OH230994   3.894   0.804   0.297
 3168TIP3    H130995   3.851   0.744   0.238
 3168TIP3    H230996   3.847   0.887   0.287
 3169TIP3   OH230997   2.893   5.675   1.245
 3169TIP3    H130998   2.810   5.628   1.243
 3169TIP3    H230999   2.906   5.698   1.337
 3170TIP3   OH231000   1.984   3.222  13.496
 3170TIP3    H131001   1.925   3.152  13.523
 3170TIP3    H231002   1.932   3.302  13.500
 3171TIP3   OH231003   2.342   1.375  11.784
 3171TIP3    H131004   2.330   1.286  11.753
 3171TIP3    H231005   2.435   1.381  11.806
 3172TIP3   OH231006   2.051   6.271   2.444
 3172TIP3    H131007   2.059   6.355   2.489
 3172TIP3    H231008   1.992   6.220   2.498
 3173TIP3   OH231009   4.440   2.146  17.068
 3173TIP3    H131010   4.456   2.229  17.022
 3173TIP3    H231011   4.527   2.109  17.081
 3174TIP3   OH231012   5.710   1.687   6.458
 3174TIP3    H131013   5.643   1.702   6.525
 3174TIP3    H231014   5.752   1.772   6.446
 3175TIP3   OH231015   1.431   1.884   2.324
 3175TIP3    H131016   1.455   1.826   2.253
 3175TIP3    H231017   1.395   1.826   2.391
 3176TIP3   OH231018   5.034   0.673  12.776
 3176TIP3    H131019   5.081   0.734  12.832
 3176TIP3    H231020   5.083   0.672  12.694
 3177TIP3   OH231021   6.746   4.881  14.405
 3177TIP3    H131022   6.805   4.885  14.481
 3177TIP3    H231023   6.689   4.806  14.424
 3178TIP3   OH231024   2.582   6.351   5.234
 3178TIP3    H131025   2.521   6.277   5.240
 3178TIP3    H231026   2.664   6.317   5.268
 3179TIP3   OH231027   3.993   3.913   4.830
 3179TIP3    H131028   4.040   3.932   4.911
 3179TIP3    H231029   3.905   3.949   4.844
 3180TIP3   OH231030   6.693   6.011  16.405
 3180TIP3    H131031   6.747   5.947  16.358
 3180TIP3    H231032   6.610   6.013  16.357
 3181TIP3   OH231033   2.936   2.890  13.073
 3181TIP3    H131034   2.854   2.842  13.062
 3181TIP3    H231035   2.926   2.968  13.018
 3182TIP3   OH231036   3.960   1.431   5.748
 3182TIP3    H131037   3.942   1.415   5.655
 3182TIP3    H231038   3.966   1.343   5.786
 3183TIP3   OH231039   3.637   0.658  12.613
 3183TIP3    H131040   3.696   0.723  12.576
 3183TIP3    H231041   3.680   0.629  12.693
 3184TIP3   OH231042   2.608   2.775  12.607
 3184TIP3    H131043   2.646   2.689  12.586
 3184TIP3    H231044   2.514   2.763  12.598
 3185TIP3   OH231045   0.626   5.252  12.960
 3185TIP3    H131046   0.654   5.210  13.042
 3185TIP3    H231047   0.577   5.183  12.914
 3186TIP3   OH231048   2.264   2.210  15.451
 3186TIP3    H131049   2.200   2.156  15.404
 3186TIP3    H231050   2.279   2.284  15.393
 3187TIP3   OH231051   1.304   0.991   0.204
 3187TIP3    H131052   1.379   1.044   0.179
 3187TIP3    H231053   1.232   1.023   0.149
 3188TIP3   OH231054   0.156   2.459   4.413
 3188TIP3    H131055   0.210   2.465   4.334
 3188TIP3    H231056   0.141   2.550   4.438
 3189TIP3   OH231057   1.187   1.925  16.226
 3189TIP3    H131058   1.181   1.909  16.321
 3189TIP3    H231059   1.199   2.020  16.219
 3190TIP3   OH231060   4.417   0.283   2.588
 3190TIP3    H131061   4.449   0.284   2.678
 3190TIP3    H231062   4.420   0.191   2.562
 3191TIP3   OH231063   4.295   0.534  15.700
 3191TIP3    H131064   4.286   0.570  15.789
 3191TIP3    H231065   4.322   0.444  15.713
 3192TIP3   OH231066   4.733   6.194   3.286
 3192TIP3    H131067   4.701   6.109   3.316
 3192TIP3    H231068   4.777   6.232   3.362
 3193TIP3   OH231069   6.719   0.231   2.190
 3193TIP3    H131070   6.779   0.221   2.116
 3193TIP3    H231071   6.632   0.230   2.151
 3194TIP3   OH231072   3.558   3.949   1.937
 3194TIP3    H131073   3.502   3.960   2.014
 3194TIP3    H231074   3.630   3.894   1.967
 3195TIP3   OH231075   4.401   4.405  10.838
 3195TIP3    H131076   4.398   4.501  10.840
 3195TIP3    H231077   4.398   4.383  10.745
 3196TIP3   OH231078   2.570   0.431   4.019
 3196TIP3    H131079   2.551   0.353   4.071
 3196TIP3    H231080   2.630   0.400   3.951
 3197TIP3   OH231081   1.801   5.175   0.774
 3197TIP3    H131082   1.830   5.162   0.864
 3197TIP3    H231083   1.779   5.268   0.768
 3198TIP3   OH231084   0.459   0.374  13.248
 3198TIP3    H131085   0.433   0.406  13.334
 3198TIP3    H231086   0.443   0.447  13.189
 3199TIP3   OH231087   0.543   0.575  17.093
 3199TIP3    H131088   0.488   0.498  17.108
 3199TIP3    H231089   0.599   0.551  17.019
 3200TIP3   OH231090   1.556   5.366   2.950
 3200TIP3    H131091   1.559   5.457   2.978
 3200TIP3    H231092   1.550   5.370   2.854
 3201TIP3   OH231093   2.466   5.081  16.575
 3201TIP3    H131094   2.556   5.103  16.601
 3201TIP3    H231095   2.439   5.154  16.520
 3202TIP3   OH231096   3.950   4.800   0.398
 3202TIP3    H131097   3.925   4.754   0.318
 3202TIP3    H231098   3.887   4.871   0.405
 3203TIP3   OH231099   0.173   3.124  14.342
 3203TIP3    H131100   0.149   3.051  14.285
 3203TIP3    H231101   0.144   3.097  14.429
 3204TIP3   OH231102   1.050   3.138  13.086
 3204TIP3    H131103   1.062   3.190  13.006
 3204TIP3    H231104   1.069   3.200  13.157
 3205TIP3   OH231105   3.406   6.567  12.957
 3205TIP3    H131106   3.430   6.549  12.866
 3205TIP3    H231107   3.326   6.618  12.951
 3206TIP3   OH231108   0.544   2.497  15.951
 3206TIP3    H131109   0.507   2.520  15.865
 3206TIP3    H231110   0.632   2.465  15.931
 3207TIP3   OH231111   5.986   5.304  15.683
 3207TIP3    H131112   5.985   5.219  15.727
 3207TIP3    H231113   6.054   5.354  15.728
 3208TIP3   OH231114   3.916   5.712  16.330
 3208TIP3    H131115   3.903   5.632  16.382
 3208TIP3    H231116   3.860   5.777  16.372
 3209TIP3   OH231117   5.506   2.225  17.143
 3209TIP3    H131118   5.491   2.146  17.196
 3209TIP3    H231119   5.568   2.276  17.194
 3210TIP3   OH231120   1.544   5.312   4.767
 3210TIP3    H131121   1.546   5.345   4.677
 3210TIP3    H231122   1.458   5.338   4.800
 3211TIP3   OH231123   2.646   4.937  15.263
 3211TIP3    H131124   2.617   4.986  15.186
 3211TIP3    H231125   2.566   4.899  15.299
 3212TIP3   OH231126   0.973   0.807   4.859
 3212TIP3    H131127   1.008   0.896   4.866
 3212TIP3    H231128   1.014   0.759   4.931
 3213TIP3   OH231129   2.120   5.785   4.277
 3213TIP3    H131130   2.094   5.859   4.222
 3213TIP3    H231131   2.038   5.738   4.293
 3214TIP3   OH231132   4.015   4.201   4.693
 3214TIP3    H131133   3.932   4.154   4.693
 3214TIP3    H231134   4.027   4.230   4.783
 3215TIP3   OH231135   5.084   6.200   5.309
 3215TIP3    H131136   5.038   6.265   5.256
 3215TIP3    H231137   5.016   6.162   5.365
 3216TIP3   OH231138   1.949   1.752   3.352
 3216TIP3    H131139   1.995   1.669   3.343
 3216TIP3    H231140   1.978   1.786   3.437
 3217TIP3   OH231141   5.049   2.888   0.707
 3217TIP3    H131142   5.130   2.849   0.673
 3217TIP3    H231143   5.034   2.843   0.790
 3218TIP3   OH231144   6.434   4.068  13.652
 3218TIP3    H131145   6.406   4.034  13.737
 3218TIP3    H231146   6.528   4.082  13.661
 3219TIP3   OH231147   4.597   3.992  16.504
 3219TIP3    H131148   4.643   4.025  16.427
 3219TIP3    H231149   4.594   3.897  16.491
 3220TIP3   OH231150   1.769   2.365  11.948
 3220TIP3    H131151   1.768   2.417  11.868
 3220TIP3    H231152   1.833   2.296  11.931
 3221TIP3   OH231153   4.986   2.515  14.063
 3221TIP3    H131154   4.909   2.562  14.029
 3221TIP3    H231155   5.061   2.562  14.025
 3222TIP3   OH231156   1.313   1.520  15.841
 3222TIP3    H131157   1.238   1.578  15.831
 3222TIP3    H231158   1.275   1.433  15.850
 3223TIP3   OH231159   1.376   6.291  13.950
 3223TIP3    H131160   1.373   6.371  13.898
 3223TIP3    H231161   1.351   6.221  13.889
 3224TIP3   OH231162   5.040   5.724  10.934
 3224TIP3    H131163   5.081   5.684  10.856
 3224TIP3    H231164   4.975   5.784  10.898
 3225TIP3   OH231165   2.345   2.141   4.962
 3225TIP3    H131166   2.271   2.081   4.962
 3225TIP3    H231167   2.388   2.126   5.046
 3226TIP3   OH231168   4.089   2.891  13.821
 3226TIP3    H131169   4.054   2.974  13.788
 3226TIP3    H231170   4.174   2.882  13.778
 3227TIP3   OH231171   6.054   3.592  11.371
 3227TIP3    H131172   6.111   3.617  11.298
 3227TIP3    H231173   6.061   3.665  11.432
 3228TIP3   OH231174   2.026   2.788   1.417
 3228TIP3    H131175   1.991   2.757   1.334
 3228TIP3    H231176   2.016   2.714   1.477
 3229TIP3   OH231177   4.741   1.738   6.193
 3229TIP3    H131178   4.818   1.751   6.250
 3229TIP3    H231179   4.674   1.795   6.231
 3230TIP3   OH231180   3.805   4.303  14.684
 3230TIP3    H131181   3.783   4.359  14.610
 3230TIP3    H231182   3.814   4.215  14.647
 3231TIP3   OH231183   4.833   6.413   2.727
 3231TIP3    H131184   4.781   6.333   2.740
 3231TIP3    H231185   4.899   6.387   2.663
 3232TIP3   OH231186   5.617   0.184  11.892
 3232TIP3    H131187   5.686   0.247  11.912
 3232TIP3    H231188   5.538   0.238  11.881
 3233TIP3   OH231189   6.130   5.071   1.815
 3233TIP3    H131190   6.114   5.121   1.895
 3233TIP3    H231191   6.166   4.988   1.845
 3234TIP3   OH231192   1.932   1.313   1.836
 3234TIP3    H131193   2.025   1.320   1.856
 3234TIP3    H231194   1.894   1.395   1.866
 3235TIP3   OH231195   5.027   0.312   5.714
 3235TIP3    H131196   5.003   0.221   5.733
 3235TIP3    H231197   4.946   0.351   5.680
 3236TIP3   OH231198   4.480   4.030  11.404
 3236TIP3    H131199   4.542   4.003  11.471
 3236TIP3    H231200   4.532   4.081  11.342
 3237TIP3   OH231201   4.700   0.978   6.185
 3237TIP3    H131202   4.662   0.968   6.272
 3237TIP3    H231203   4.787   0.938   6.192
 3238TIP3   OH231204   1.686   2.034   4.986
 3238TIP3    H131205   1.651   2.112   4.944
 3238TIP3    H231206   1.612   1.997   5.035
 3239TIP3   OH231207   4.653   2.669  16.802
 3239TIP3    H131208   4.631   2.615  16.726
 3239TIP3    H231209   4.706   2.612  16.856
 3240TIP3   OH231210   6.154   5.635   2.506
 3240TIP3    H131211   6.215   5.583   2.559
 3240TIP3    H231212   6.084   5.575   2.483
 3241TIP3   OH231213   1.162   5.427   2.792
 3241TIP3    H131214   1.109   5.347   2.792
 3241TIP3    H231215   1.206   5.427   2.876
 3242TIP3   OH231216   4.027   3.501  14.869
 3242TIP3    H131217   3.946   3.451  14.877
 3242TIP3    H231218   4.084   3.465  14.936
 3243TIP3   OH231219   6.557   6.488   4.047
 3243TIP3    H131220   6.612   6.412   4.063
 3243TIP3    H231221   6.560   6.501   3.953
 3244TIP3   OH231222   4.265   0.871   4.281
 3244TIP3    H131223   4.224   0.950   4.245
 3244TIP3    H231224   4.307   0.900   4.362
 3245TIP3   OH231225   5.795   3.339  11.213
 3245TIP3    H131226   5.853   3.291  11.271
 3245TIP3    H231227   5.853   3.375  11.145
 3246TIP3   OH231228   1.979   6.354  10.725
 3246TIP3    H131229   1.982   6.449  10.740
 3246TIP3    H231230   1.900   6.326  10.771
 3247TIP3   OH231231   6.464   0.040   5.243
 3247TIP3    H131232   6.387   0.063   5.295
 3247TIP3    H231233   6.456   0.092   5.163
 3248TIP3   OH231234   4.822   6.195  11.220
 3248TIP3    H131235   4.778   6.163  11.299
 3248TIP3    H231236   4.752   6.201  11.155
 3249TIP3   OH231237   3.670   1.515   1.898
 3249TIP3    H131238   3.683   1.420   1.892
 3249TIP3    H231239   3.615   1.527   1.975
 3250TIP3   OH231240   0.626   3.845  11.587
 3250TIP3    H131241   0.691   3.854  11.658
 3250TIP3    H231242   0.546   3.883  11.623
 3251TIP3   OH231243   1.285   0.953  13.336
 3251TIP3    H131244   1.256   0.927  13.249
 3251TIP3    H231245   1.235   1.032  13.356
 3252TIP3   OH231246   0.333   4.484  11.947
 3252TIP3    H131247   0.371   4.400  11.922
 3252TIP3    H231248   0.244   4.482  11.910
 3253TIP3   OH231249   1.304   6.215   4.913
 3253TIP3    H131250   1.297   6.240   4.821
 3253TIP3    H231251   1.267   6.289   4.961
 3254TIP3   OH231252   5.983   6.716  12.472
 3254TIP3    H131253   6.009   6.752  12.557
 3254TIP3    H231254   6.061   6.723  12.418
 3255TIP3   OH231255   1.777   4.577   1.002
 3255TIP3    H131256   1.706   4.513   1.007
 3255TIP3    H231257   1.847   4.538   1.054
 3256TIP3   OH231258   0.139   6.307  13.396
 3256TIP3    H131259   0.087   6.236  13.434
 3256TIP3    H231260   0.076   6.375  13.374
 3257TIP3   OH231261   2.596   0.708   1.149
 3257TIP3    H131262   2.686   0.678   1.162
 3257TIP3    H231263   2.586   0.712   1.054
 3258TIP3   OH231264   2.700   5.999  15.501
 3258TIP3    H131265   2.744   6.083  15.496
 3258TIP3    H231266   2.607   6.019  15.493
 3259TIP3   OH231267   1.675   0.760   0.168
 3259TIP3    H131268   1.750   0.795   0.121
 3259TIP3    H231269   1.660   0.674   0.128
 3260TIP3   OH231270   0.683   2.914   4.801
 3260TIP3    H131271   0.661   2.957   4.719
 3260TIP3    H231272   0.618   2.844   4.809
 3261TIP3   OH231273   5.794   2.401   2.980
 3261TIP3    H131274   5.762   2.386   2.891
 3261TIP3    H231275   5.807   2.313   3.016
 3262TIP3   OH231276   0.126   3.999  14.113
 3262TIP3    H131277   0.039   4.039  14.123
 3262TIP3    H231278   0.126   3.925  14.173
 3263TIP3   OH231279   0.918   5.246  16.560
 3263TIP3    H131280   1.006   5.239  16.525
 3263TIP3    H231281   0.862   5.258  16.483
 3264TIP3   OH231282   0.377   2.006  16.708
 3264TIP3    H131283   0.327   2.083  16.683
 3264TIP3    H231284   0.469   2.033  16.699
 3265TIP3   OH231285   3.679   2.617   3.896
 3265TIP3    H131286   3.715   2.568   3.969
 3265TIP3    H231287   3.689   2.709   3.921
 3266TIP3   OH231288   5.861   4.693  12.955
 3266TIP3    H131289   5.912   4.617  12.927
 3266TIP3    H231290   5.904   4.767  12.912
 3267TIP3   OH231291   1.724   3.634  11.164
 3267TIP3    H131292   1.738   3.547  11.202
 3267TIP3    H231293   1.732   3.621  11.070
 3268TIP3   OH231294   0.422   4.737   2.687
 3268TIP3    H131295   0.514   4.728   2.661
 3268TIP3    H231296   0.424   4.799   2.760
 3269TIP3   OH231297   6.001   0.356  13.166
 3269TIP3    H131298   6.032   0.418  13.101
 3269TIP3    H231299   5.923   0.396  13.204
 3270TIP3   OH231300   2.059   3.721   4.751
 3270TIP3    H131301   1.994   3.716   4.821
 3270TIP3    H231302   2.127   3.779   4.785
 3271TIP3   OH231303   6.071   3.841   3.372
 3271TIP3    H131304   6.133   3.913   3.378
 3271TIP3    H231305   6.024   3.857   3.290
 3272TIP3   OH231306   3.485   1.704  13.894
 3272TIP3    H131307   3.467   1.626  13.841
 3272TIP3    H231308   3.509   1.668  13.980
 3273TIP3   OH231309   6.033   4.338  11.069
 3273TIP3    H131310   6.116   4.382  11.088
 3273TIP3    H231311   5.969   4.382  11.125
 3274TIP3   OH231312   6.728   0.075   2.811
 3274TIP3    H131313   6.714   0.092   2.718
 3274TIP3    H231314   6.713  -0.019   2.821
 3275TIP3   OH231315   1.703   2.589   5.556
 3275TIP3    H131316   1.665   2.584   5.643
 3275TIP3    H231317   1.751   2.507   5.546
 3276TIP3   OH231318   0.497   3.130   1.932
 3276TIP3    H131319   0.484   3.136   1.837
 3276TIP3    H231320   0.574   3.074   1.943
 3277TIP3   OH231321   4.681   4.228  17.256
 3277TIP3    H131322   4.711   4.140  17.236
 3277TIP3    H231323   4.729   4.284  17.196
 3278TIP3   OH231324   5.843   3.853  12.978
 3278TIP3    H131325   5.854   3.924  12.915
 3278TIP3    H231326   5.923   3.801  12.970
 3279TIP3   OH231327   2.920   3.346   5.932
 3279TIP3    H131328   2.968   3.293   5.996
 3279TIP3    H231329   2.855   3.393   5.984
 3280TIP3   OH231330   6.144   6.385  11.956
 3280TIP3    H131331   6.135   6.470  11.912
 3280TIP3    H231332   6.100   6.323  11.898
 3281TIP3   OH231333   1.913   1.083   6.408
 3281TIP3    H131334   1.999   1.089   6.449
 3281TIP3    H231335   1.864   1.157   6.445
 3282TIP3   OH231336   6.654   1.713  14.448
 3282TIP3    H131337   6.649   1.723  14.543
 3282TIP3    H231338   6.738   1.752  14.424
 3283TIP3   OH231339   6.045   2.317   3.372
 3283TIP3    H131340   6.070   2.393   3.424
 3283TIP3    H231341   5.949   2.319   3.371
 3284TIP3   OH231342   5.374   2.805   4.728
 3284TIP3    H131343   5.370   2.767   4.815
 3284TIP3    H231344   5.335   2.892   4.737
 3285TIP3   OH231345   5.054   3.263  10.709
 3285TIP3    H131346   5.043   3.179  10.663
 3285TIP3    H231347   5.111   3.314  10.651
 3286TIP3   OH231348   3.127   2.230  15.569
 3286TIP3    H131349   3.062   2.250  15.637
 3286TIP3    H231350   3.127   2.307  15.512
 3287TIP3   OH231351   4.897   6.419  15.456
 3287TIP3    H131352   4.821   6.476  15.467
 3287TIP3    H231353   4.965   6.477  15.422
 3288TIP3   OH231354   6.360   6.716  16.904
 3288TIP3    H131355   6.324   6.770  16.833
 3288TIP3    H231356   6.287   6.704  16.965
 3289TIP3   OH231357   4.484   5.136  14.144
 3289TIP3    H131358   4.403   5.104  14.103
 3289TIP3    H231359   4.545   5.062  14.138
 3290TIP3   OH231360   4.292   4.573  17.157
 3290TIP3    H131361   4.279   4.483  17.129
 3290TIP3    H231362   4.203   4.609  17.164
 3291TIP3   OH231363   2.135   4.972  10.355
 3291TIP3    H131364   2.117   4.892  10.307
 3291TIP3    H231365   2.224   4.960  10.389
 3292TIP3   OH231366   2.741   2.519  11.457
 3292TIP3    H131367   2.770   2.486  11.542
 3292TIP3    H231368   2.776   2.608  11.453
 3293TIP3   OH231369   6.451   3.493   4.447
 3293TIP3    H131370   6.436   3.520   4.356
 3293TIP3    H231371   6.433   3.571   4.498
 3294TIP3   OH231372   5.751   3.772   1.468
 3294TIP3    H131373   5.731   3.818   1.549
 3294TIP3    H231374   5.689   3.699   1.466
 3295TIP3   OH231375   2.583   6.521  12.508
 3295TIP3    H131376   2.565   6.607  12.545
 3295TIP3    H231377   2.574   6.461  12.583
 3296TIP3   OH231378   2.400   3.215   5.146
 3296TIP3    H131379   2.338   3.226   5.074
 3296TIP3    H231380   2.465   3.153   5.112
 3297TIP3   OH231381   4.830   2.781  13.010
 3297TIP3    H131382   4.891   2.722  13.053
 3297TIP3    H231383   4.764   2.723  12.970
 3298TIP3   OH231384   4.208   4.683  16.574
 3298TIP3    H131385   4.288   4.672  16.523
 3298TIP3    H231386   4.138   4.656  16.515
 3299TIP3   OH231387   3.884   1.557   5.969
 3299TIP3    H131388   3.896   1.504   5.891
 3299TIP3    H231389   3.946   1.520   6.033
 3300TIP3   OH231390   5.069   3.916   1.726
 3300TIP3    H131391   5.142   3.874   1.771
 3300TIP3    H231392   5.094   3.915   1.634
 3301TIP3   OH231393   0.416   4.130   4.566
 3301TIP3    H131394   0.386   4.043   4.592
 3301TIP3    H231395   0.436   4.174   4.649
 3302TIP3   OH231396   0.779   0.186  16.755
 3302TIP3    H131397   0.844   0.229  16.811
 3302TIP3    H231398   0.739   0.120  16.812
 3303TIP3   OH231399   0.939   2.525   4.034
 3303TIP3    H131400   0.891   2.607   4.034
 3303TIP3    H231401   0.941   2.498   4.126
 3304TIP3   OH231402   0.884   1.838   6.803
 3304TIP3    H131403   0.904   1.814   6.893
 3304TIP3    H231404   0.904   1.760   6.752
 3305TIP3   OH231405   2.470   0.296  14.636
 3305TIP3    H131406   2.418   0.250  14.570
 3305TIP3    H231407   2.477   0.385  14.603
 3306TIP3   OH231408   1.388   3.280   3.446
 3306TIP3    H131409   1.446   3.271   3.371
 3306TIP3    H231410   1.434   3.238   3.518
 3307TIP3   OH231411   4.607   3.593   0.489
 3307TIP3    H131412   4.621   3.615   0.396
 3307TIP3    H231413   4.623   3.675   0.535
 3308TIP3   OH231414   1.814   3.567  12.379
 3308TIP3    H131415   1.908   3.547  12.381
 3308TIP3    H231416   1.791   3.565  12.286
 3309TIP3   OH231417   0.986   6.708   0.522
 3309TIP3    H131418   1.017   6.626   0.484
 3309TIP3    H231419   1.056   6.771   0.502
 3310TIP3   OH231420   1.333   1.260  17.156
 3310TIP3    H131421   1.275   1.290  17.086
 3310TIP3    H231422   1.360   1.172  17.129
 3311TIP3   OH231423   0.367   0.107  16.084
 3311TIP3    H131424   0.411   0.040  16.032
 3311TIP3    H231425   0.434   0.139  16.144
 3312TIP3   OH231426   0.991   3.945   3.655
 3312TIP3    H131427   0.912   3.951   3.600
 3312TIP3    H231428   1.024   4.035   3.659
 3313TIP3   OH231429   3.753   6.350  12.284
 3313TIP3    H131430   3.696   6.412  12.331
 3313TIP3    H231431   3.696   6.277  12.263
 3314TIP3   OH231432   2.712   0.725  10.603
 3314TIP3    H131433   2.677   0.760  10.684
 3314TIP3    H231434   2.637   0.684  10.560
 3315TIP3   OH231435   5.472   0.976   4.468
 3315TIP3    H131436   5.410   1.044   4.493
 3315TIP3    H231437   5.438   0.943   4.384
 3316TIP3   OH231438   1.936   5.687   5.721
 3316TIP3    H131439   1.879   5.727   5.787
 3316TIP3    H231440   1.876   5.638   5.665
 3317TIP3   OH231441   3.458   5.474  14.786
 3317TIP3    H131442   3.423   5.555  14.748
 3317TIP3    H231443   3.438   5.406  14.722
 3318TIP3   OH231444   2.170   5.361  14.427
 3318TIP3    H131445   2.153   5.417  14.503
 3318TIP3    H231446   2.086   5.320  14.408
 3319TIP3   OH231447   3.086   6.677   5.456
 3319TIP3    H131448   3.114   6.753   5.506
 3319TIP3    H231449   3.146   6.674   5.381
 3320TIP3   OH231450   5.464   1.172  12.389
 3320TIP3    H131451   5.409   1.123  12.328
 3320TIP3    H231452   5.553   1.162  12.355
 3321TIP3   OH231453   6.221   6.454  16.373
 3321TIP3    H131454   6.144   6.401  16.357
 3321TIP3    H231455   6.194   6.517  16.440
 3322TIP3   OH231456   2.187   2.478  16.824
 3322TIP3    H131457   2.126   2.422  16.776
 3322TIP3    H231458   2.178   2.452  16.915
 3323TIP3   OH231459   3.083   3.077   3.342
 3323TIP3    H131460   3.124   3.150   3.296
 3323TIP3    H231461   3.007   3.054   3.288
 3324TIP3   OH231462   2.318   0.921   4.378
 3324TIP3    H131463   2.290   0.829   4.382
 3324TIP3    H231464   2.322   0.941   4.285
 3325TIP3   OH231465   5.795   6.409  13.074
 3325TIP3    H131466   5.770   6.329  13.028
 3325TIP3    H231467   5.831   6.379  13.157
 3326TIP3   OH231468   6.265   5.761   0.407
 3326TIP3    H131469   6.313   5.831   0.363
 3326TIP3    H231470   6.329   5.690   0.415
 3327TIP3   OH231471   0.330   5.502  12.086
 3327TIP3    H131472   0.408   5.536  12.130
 3327TIP3    H231473   0.307   5.423  12.136
 3328TIP3   OH231474   5.209   1.115  14.423
 3328TIP3    H131475   5.262   1.171  14.480
 3328TIP3    H231476   5.274   1.067  14.371
 3329TIP3   OH231477   4.417   1.271   5.890
 3329TIP3    H131478   4.360   1.333   5.844
 3329TIP3    H231479   4.360   1.232   5.957
 3330TIP3   OH231480   4.248   4.934  17.216
 3330TIP3    H131481   4.174   4.985  17.183
 3330TIP3    H231482   4.290   4.899  17.137
 3331TIP3   OH231483   3.488   1.196   1.011
 3331TIP3    H131484   3.454   1.109   1.030
 3331TIP3    H231485   3.431   1.255   1.060
 3332TIP3   OH231486   2.078   6.642   1.252
 3332TIP3    H131487   2.013   6.608   1.314
 3332TIP3    H231488   2.152   6.668   1.307
 3333TIP3   OH231489   3.657   5.366  14.526
 3333TIP3    H131490   3.679   5.281  14.565
 3333TIP3    H231491   3.580   5.349  14.472
 3334TIP3   OH231492   6.138   5.490  15.225
 3334TIP3    H131493   6.197   5.487  15.150
 3334TIP3    H231494   6.110   5.582  15.230
 3335TIP3   OH231495   3.644   6.803  10.562
 3335TIP3    H131496   3.595   6.860  10.502
 3335TIP3    H231497   3.625   6.714  10.531
 3336TIP3   OH231498   1.673   2.897  12.990
 3336TIP3    H131499   1.745   2.861  13.043
 3336TIP3    H231500   1.623   2.951  13.052
 3337TIP3   OH231501   3.095   0.585  16.368
 3337TIP3    H131502   3.025   0.649  16.355
 3337TIP3    H231503   3.049   0.502  16.380
 3338TIP3   OH231504   0.745   3.748  12.184
 3338TIP3    H131505   0.829   3.794  12.171
 3338TIP3    H231506   0.679   3.814  12.166
 3339TIP3   OH231507   6.123   5.626   6.616
 3339TIP3    H131508   6.139   5.541   6.576
 3339TIP3    H231509   6.055   5.666   6.562
 3340TIP3   OH231510   5.722   5.113   3.510
 3340TIP3    H131511   5.670   5.169   3.567
 3340TIP3    H231512   5.811   5.118   3.545
 3341TIP3   OH231513   6.318   4.313   2.275
 3341TIP3    H131514   6.249   4.379   2.276
 3341TIP3    H231515   6.274   4.233   2.245
 3342TIP3   OH231516   3.899   0.514  13.784
 3342TIP3    H131517   3.818   0.467  13.803
 3342TIP3    H231518   3.894   0.534  13.691
 3343TIP3   OH231519   6.069   0.196  10.720
 3343TIP3    H131520   6.041   0.257  10.789
 3343TIP3    H231521   5.992   0.183  10.666
 3344TIP3   OH231522   3.353   1.492  15.430
 3344TIP3    H131523   3.401   1.575  15.436
 3344TIP3    H231524   3.370   1.461  15.341
 3345TIP3   OH231525   0.129   5.923  13.863
 3345TIP3    H131526   0.136   5.837  13.822
 3345TIP3    H231527   0.196   5.976  13.819
 3346TIP3   OH231528   0.760   2.790  15.230
 3346TIP3    H131529   0.782   2.699  15.248
 3346TIP3    H231530   0.839   2.827  15.190
 3347TIP3   OH231531   0.386   3.959   2.497
 3347TIP3    H131532   0.449   3.988   2.562
 3347TIP3    H231533   0.352   4.040   2.458
 3348TIP3   OH231534   3.015   1.828  14.439
 3348TIP3    H131535   2.987   1.760  14.378
 3348TIP3    H231536   3.064   1.781  14.506
 3349TIP3   OH231537   6.559   1.499  12.612
 3349TIP3    H131538   6.524   1.495  12.702
 3349TIP3    H231539   6.504   1.438  12.563
 3350TIP3   OH231540   2.430   5.866  11.674
 3350TIP3    H131541   2.493   5.809  11.716
 3350TIP3    H231542   2.353   5.811  11.660
 3351TIP3   OH231543   1.758   6.026   3.674
 3351TIP3    H131544   1.762   5.930   3.678
 3351TIP3    H231545   1.665   6.046   3.666
 3352TIP3   OH231546   1.017   6.631  15.049
 3352TIP3    H131547   1.047   6.585  14.970
 3352TIP3    H231548   1.086   6.695  15.066
 3353TIP3   OH231549   4.366   1.746   5.989
 3353TIP3    H131550   4.407   1.830   6.009
 3353TIP3    H231551   4.347   1.750   5.895
 3354TIP3   OH231552   0.310   3.596   0.315
 3354TIP3    H131553   0.215   3.581   0.319
 3354TIP3    H231554   0.338   3.594   0.406
 3355TIP3   OH231555   3.844   1.102   5.466
 3355TIP3    H131556   3.875   1.012   5.475
 3355TIP3    H231557   3.765   1.095   5.413
 3356TIP3   OH231558   6.150   3.532   4.462
 3356TIP3    H131559   6.097   3.591   4.408
 3356TIP3    H231560   6.195   3.475   4.400
 3357TIP3   OH231561   1.143   3.638  13.125
 3357TIP3    H131562   1.057   3.669  13.153
 3357TIP3    H231563   1.142   3.545  13.144
 3358TIP3   OH231564   6.028   6.604  13.859
 3358TIP3    H131565   6.086   6.638  13.926
 3358TIP3    H231566   5.973   6.540  13.905
 3359TIP3   OH231567   0.952   3.938   6.693
 3359TIP3    H131568   0.939   4.016   6.638
 3359TIP3    H231569   1.047   3.927   6.696
 3360TIP3   OH231570   2.195   2.415  17.109
 3360TIP3    H131571   2.119   2.423  17.168
 3360TIP3    H231572   2.231   2.328  17.128
 3361TIP3   OH231573   2.569   5.499  11.590
 3361TIP3    H131574   2.539   5.587  11.612
 3361TIP3    H231575   2.522   5.478  11.509
 3362TIP3   OH231576   3.736   0.960   4.627
 3362TIP3    H131577   3.736   0.873   4.667
 3362TIP3    H231578   3.657   1.002   4.660
 3363TIP3   OH231579   3.236   0.569   1.908
 3363TIP3    H131580   3.174   0.551   1.979
 3363TIP3    H231581   3.319   0.534   1.939
 3364TIP3   OH231582   4.016   3.987   6.438
 3364TIP3    H131583   4.015   3.992   6.342
 3364TIP3    H231584   4.096   3.938   6.459
 3365TIP3   OH231585   6.091   3.045  17.000
 3365TIP3    H131586   6.164   3.065  17.059
 3365TIP3    H231587   6.084   2.950  17.003
 3366TIP3   OH231588   1.143   4.036   5.656
 3366TIP3    H131589   1.183   4.103   5.601
 3366TIP3    H231590   1.198   4.033   5.734
 3367TIP3   OH231591   4.142   0.910  13.156
 3367TIP3    H131592   4.117   0.995  13.120
 3367TIP3    H231593   4.237   0.907  13.147
 3368TIP3   OH231594   4.324   6.085  14.426
 3368TIP3    H131595   4.247   6.131  14.460
 3368TIP3    H231596   4.358   6.036  14.501
 3369TIP3   OH231597   0.315   0.787   0.313
 3369TIP3    H131598   0.219   0.782   0.311
 3369TIP3    H231599   0.343   0.698   0.331
 3370TIP3   OH231600   1.187   0.303   3.382
 3370TIP3    H131601   1.261   0.362   3.396
 3370TIP3    H231602   1.200   0.268   3.294
 3371TIP3   OH231603   1.847   5.807  11.228
 3371TIP3    H131604   1.768   5.797  11.282
 3371TIP3    H231605   1.913   5.843  11.287
 3372TIP3   OH231606   5.472   2.365   6.024
 3372TIP3    H131607   5.416   2.295   6.056
 3372TIP3    H231608   5.538   2.376   6.092
 3373TIP3   OH231609   2.868   0.111  14.546
 3373TIP3    H131610   2.902   0.079  14.629
 3373TIP3    H231611   2.946   0.133  14.495
 3374TIP3   OH231612   1.913   4.557   5.467
 3374TIP3    H131613   1.991   4.516   5.431
 3374TIP3    H231614   1.940   4.647   5.489
 3375TIP3   OH231615   1.321   6.687   3.114
 3375TIP3    H131616   1.340   6.646   3.198
 3375TIP3    H231617   1.228   6.673   3.100
 3376TIP3   OH231618   5.134   3.643  15.895
 3376TIP3    H131619   5.129   3.654  15.800
 3376TIP3    H231620   5.216   3.684  15.920
 3377TIP3   OH231621   5.012   0.798  15.685
 3377TIP3    H131622   4.930   0.788  15.637
 3377TIP3    H231623   4.988   0.781  15.777
 3378TIP3   OH231624   2.793   1.479  11.509
 3378TIP3    H131625   2.855   1.461  11.579
 3378TIP3    H231626   2.847   1.497  11.432
 3379TIP3   OH231627   1.795   4.708  11.147
 3379TIP3    H131628   1.870   4.721  11.089
 3379TIP3    H231629   1.741   4.643  11.102
 3380TIP3   OH231630   4.800   1.949  11.163
 3380TIP3    H131631   4.745   1.984  11.233
 3380TIP3    H231632   4.739   1.924  11.094
 3381TIP3   OH231633   2.731   1.969  14.472
 3381TIP3    H131634   2.744   1.877  14.453
 3381TIP3    H231635   2.665   1.971  14.541
 3382TIP3   OH231636   6.553   5.578  12.335
 3382TIP3    H131637   6.562   5.589  12.429
 3382TIP3    H231638   6.536   5.484  12.323
 3383TIP3   OH231639   4.935   2.291   4.412
 3383TIP3    H131640   4.994   2.219   4.391
 3383TIP3    H231641   4.992   2.366   4.430
 3384TIP3   OH231642   3.893   0.479  11.656
 3384TIP3    H131643   3.852   0.393  11.669
 3384TIP3    H231644   3.885   0.495  11.562
 3385TIP3   OH231645   1.113   4.814  10.890
 3385TIP3    H131646   1.112   4.876  10.963
 3385TIP3    H231647   1.135   4.868  10.814
 3386TIP3   OH231648   1.446   0.699  11.305
 3386TIP3    H131649   1.426   0.654  11.223
 3386TIP3    H231650   1.537   0.727  11.295
 3387TIP3   OH231651   3.089   1.539   6.049
 3387TIP3    H131652   2.997   1.517   6.033
 3387TIP3    H231653   3.115   1.480   6.120
 3388TIP3   OH231654   1.522   2.677   4.070
 3388TIP3    H131655   1.554   2.748   4.015
 3388TIP3    H231656   1.428   2.692   4.077
 3389TIP3   OH231657   3.776   0.664   1.636
 3389TIP3    H131658   3.758   0.572   1.655
 3389TIP3    H231659   3.778   0.706   1.722
 3390TIP3   OH231660   4.180   0.777   3.935
 3390TIP3    H131661   4.091   0.799   3.909
 3390TIP3    H231662   4.228   0.767   3.853
 3391TIP3   OH231663   1.099   4.953  13.390
 3391TIP3    H131664   1.013   4.930  13.425
 3391TIP3    H231665   1.118   4.884  13.326
 3392TIP3   OH231666   0.912   2.067  16.387
 3392TIP3    H131667   1.005   2.044  16.387
 3392TIP3    H231668   0.871   1.999  16.332
 3393TIP3   OH231669   4.205   5.601  11.711
 3393TIP3    H131670   4.204   5.653  11.792
 3393TIP3    H231671   4.288   5.555  11.713
 3394TIP3   OH231672   5.259   5.965   3.784
 3394TIP3    H131673   5.242   5.981   3.877
 3394TIP3    H231674   5.256   6.053   3.744
 3395TIP3   OH231675   5.042   6.629   0.024
 3395TIP3    H131676   5.057   6.539   0.055
 3395TIP3    H231677   4.974   6.663   0.082
 3396TIP3   OH231678   5.813   0.456   6.239
 3396TIP3    H131679   5.822   0.393   6.311
 3396TIP3    H231680   5.883   0.433   6.178
 3397TIP3   OH231681   5.250   1.059   2.364
 3397TIP3    H131682   5.273   1.152   2.364
 3397TIP3    H231683   5.300   1.022   2.291
 3398TIP3   OH231684   6.765   3.927  12.045
 3398TIP3    H131685   6.744   3.986  11.972
 3398TIP3    H231686   6.722   3.845  12.022
 3399TIP3   OH231687   6.134   0.756   0.934
 3399TIP3    H131688   6.117   0.808   1.013
 3399TIP3    H231689   6.047   0.739   0.898
 3400TIP3   OH231690   1.762   1.798  16.811
 3400TIP3    H131691   1.681   1.835  16.848
 3400TIP3    H231692   1.767   1.710  16.847
 3401TIP3   OH231693   5.962   2.448  16.646
 3401TIP3    H131694   5.871   2.424  16.628
 3401TIP3    H231695   5.964   2.543  16.633
 3402TIP3   OH231696   4.777   0.522  13.573
 3402TIP3    H131697   4.872   0.531  13.579
 3402TIP3    H231698   4.755   0.456  13.640
 3403TIP3   OH231699   2.148   0.448  16.417
 3403TIP3    H131700   2.241   0.467  16.425
 3403TIP3    H231701   2.105   0.533  16.432
 3404TIP3   OH231702   3.549   6.019  14.463
 3404TIP3    H131703   3.563   5.927  14.439
 3404TIP3    H231704   3.617   6.039  14.527
 3405TIP3   OH231705   1.600   6.283  16.909
 3405TIP3    H131706   1.527   6.294  16.970
 3405TIP3    H231707   1.563   6.303  16.823
 3406TIP3   OH231708   5.073   0.672  11.437
 3406TIP3    H131709   5.081   0.710  11.524
 3406TIP3    H231710   5.107   0.583  11.447
 3407TIP3   OH231711   1.028   3.788   2.341
 3407TIP3    H131712   1.102   3.841   2.313
 3407TIP3    H231713   1.025   3.800   2.436
 3408TIP3   OH231714   1.575   6.066  12.458
 3408TIP3    H131715   1.537   6.024  12.535
 3408TIP3    H231716   1.621   5.996  12.413
 3409TIP3   OH231717   0.810   4.629  11.565
 3409TIP3    H131718   0.850   4.607  11.481
 3409TIP3    H231719   0.795   4.544  11.607
 3410TIP3   OH231720   6.115   1.047   6.555
 3410TIP3    H131721   6.151   1.126   6.515
 3410TIP3    H231722   6.152   0.975   6.504
 3411TIP3   OH231723   1.207   6.605   1.183
 3411TIP3    H131724   1.282   6.546   1.184
 3411TIP3    H231725   1.155   6.580   1.259
 3412TIP3   OH231726   2.315   0.379   2.427
 3412TIP3    H131727   2.399   0.372   2.381
 3412TIP3    H231728   2.262   0.436   2.371
 3413TIP3   OH231729   2.906   1.657  13.745
 3413TIP3    H131730   2.991   1.627  13.712
 3413TIP3    H231731   2.900   1.748  13.718
 3414TIP3   OH231732   0.120   1.519   3.595
 3414TIP3    H131733   0.075   1.486   3.517
 3414TIP3    H231734   0.183   1.451   3.617
 3415TIP3   OH231735   2.962   1.718   3.181
 3415TIP3    H131736   2.907   1.790   3.148
 3415TIP3    H231737   3.047   1.733   3.142
 3416TIP3   OH231738   5.545   5.328   4.906
 3416TIP3    H131739   5.551   5.289   4.819
 3416TIP3    H231740   5.564   5.256   4.966
 3417TIP3   OH231741   3.359   1.806   1.356
 3417TIP3    H131742   3.273   1.821   1.315
 3417TIP3    H231743   3.415   1.874   1.320
 3418TIP3   OH231744   1.032   3.582   0.746
 3418TIP3    H131745   0.950   3.549   0.709
 3418TIP3    H231746   1.004   3.650   0.807
 3419TIP3   OH231747   0.227   5.913  12.060
 3419TIP3    H131748   0.194   5.854  12.128
 3419TIP3    H231749   0.153   5.970  12.040
 3420TIP3   OH231750   2.446   3.486   4.075
 3420TIP3    H131751   2.362   3.495   4.029
 3420TIP3    H231752   2.423   3.474   4.167
 3421TIP3   OH231753   1.069   1.824  16.005
 3421TIP3    H131754   1.100   1.849  16.092
 3421TIP3    H231755   1.114   1.883  15.945
 3422TIP3   OH231756   4.060   5.625   1.242
 3422TIP3    H131757   4.100   5.694   1.189
 3422TIP3    H231758   4.124   5.554   1.239
 3423TIP3   OH231759   6.387   2.931  15.661
 3423TIP3    H131760   6.403   2.986  15.737
 3423TIP3    H231761   6.378   2.993  15.588
 3424TIP3   OH231762   2.034   5.639  12.596
 3424TIP3    H131763   1.982   5.642  12.676
 3424TIP3    H231764   2.113   5.590  12.619
 3425TIP3   OH231765   6.755   4.675   1.154
 3425TIP3    H131766   6.808   4.688   1.075
 3425TIP3    H231767   6.666   4.661   1.122
 3426TIP3   OH231768   4.582   2.523   4.225
 3426TIP3    H131769   4.504   2.483   4.263
 3426TIP3    H231770   4.607   2.464   4.154
 3427TIP3   OH231771   4.957   3.057   2.523
 3427TIP3    H131772   4.896   3.131   2.526
 3427TIP3    H231773   4.980   3.048   2.431
 3428TIP3   OH231774   2.358   0.547  14.463
 3428TIP3    H131775   2.264   0.535  14.474
 3428TIP3    H231776   2.370   0.555  14.369
 3429TIP3   OH231777   5.877   1.048  15.411
 3429TIP3    H131778   5.871   1.142  15.391
 3429TIP3    H231779   5.920   1.045  15.496
 3430TIP3   OH231780   1.771   6.353  14.403
 3430TIP3    H131781   1.837   6.384  14.465
 3430TIP3    H231782   1.771   6.419  14.334
 3431TIP3   OH231783   2.523   6.482  13.348
 3431TIP3    H131784   2.594   6.546  13.349
 3431TIP3    H231785   2.567   6.397  13.347
 3432TIP3   OH231786   6.248   3.622   2.232
 3432TIP3    H131787   6.174   3.621   2.292
 3432TIP3    H231788   6.219   3.569   2.157
 3433TIP3   OH231789   2.988   3.688   1.859
 3433TIP3    H131790   2.961   3.760   1.802
 3433TIP3    H231791   2.943   3.706   1.942
 3434TIP3   OH231792   2.093   4.774   2.041
 3434TIP3    H131793   2.020   4.738   2.091
 3434TIP3    H231794   2.053   4.810   1.962
 3435TIP3   OH231795   3.134   6.637   3.495
 3435TIP3    H131796   3.090   6.694   3.431
 3435TIP3    H231797   3.075   6.561   3.503
 3436TIP3   OH231798   0.383   1.198   6.821
 3436TIP3    H131799   0.328   1.276   6.826
 3436TIP3    H231800   0.465   1.224   6.862
 3437TIP3   OH231801   6.447   6.291   4.640
 3437TIP3    H131802   6.375   6.354   4.642
 3437TIP3    H231803   6.508   6.321   4.707
 3438TIP3   OH231804   2.661   3.781  14.342
 3438TIP3    H131805   2.727   3.791  14.274
 3438TIP3    H231806   2.635   3.870  14.364
 3439TIP3   OH231807   3.382   6.093   4.994
 3439TIP3    H131808   3.417   6.120   4.909
 3439TIP3    H231809   3.310   6.155   5.012
 3440TIP3   OH231810   3.412   2.587   0.591
 3440TIP3    H131811   3.383   2.516   0.534
 3440TIP3    H231812   3.336   2.644   0.601
 3441TIP3   OH231813   3.152   1.759  13.416
 3441TIP3    H131814   3.216   1.827  13.394
 3441TIP3    H231815   3.108   1.791  13.494
 3442TIP3   OH231816   3.697   4.319   4.221
 3442TIP3    H131817   3.665   4.386   4.281
 3442TIP3    H231818   3.780   4.291   4.259
 3443TIP3   OH231819   2.851   2.706   0.071
 3443TIP3    H131820   2.790   2.739   0.005
 3443TIP3    H231821   2.926   2.675   0.020
 3444TIP3   OH231822   5.972   0.671   3.065
 3444TIP3    H131823   6.043   0.642   3.122
 3444TIP3    H231824   6.012   0.680   2.979
 3445TIP3   OH231825   0.966   5.510   0.726
 3445TIP3    H131826   0.975   5.558   0.643
 3445TIP3    H231827   1.056   5.492   0.753
 3446TIP3   OH231828   5.175   2.293  11.619
 3446TIP3    H131829   5.120   2.370  11.603
 3446TIP3    H231830   5.181   2.250  11.534
 3447TIP3   OH231831   4.269   2.066   2.334
 3447TIP3    H131832   4.194   2.119   2.307
 3447TIP3    H231833   4.246   1.977   2.307
 3448TIP3   OH231834   4.662   5.160  12.906
 3448TIP3    H131835   4.671   5.102  12.981
 3448TIP3    H231836   4.573   5.194  12.912
 3449TIP3   OH231837   1.519   3.601  17.259
 3449TIP3    H131838   1.569   3.637  17.332
 3449TIP3    H231839   1.441   3.564  17.300
 3450TIP3   OH231840   2.260   3.295  13.488
 3450TIP3    H131841   2.179   3.262  13.525
 3450TIP3    H231842   2.233   3.370  13.435
 3451TIP3   OH231843   0.592   4.566   4.184
 3451TIP3    H131844   0.576   4.472   4.172
 3451TIP3    H231845   0.647   4.571   4.261
 3452TIP3   OH231846   4.967   3.469   2.945
 3452TIP3    H131847   5.037   3.422   2.900
 3452TIP3    H231848   4.971   3.437   3.035
 3453TIP3   OH231849   2.467   6.634   4.664
 3453TIP3    H131850   2.498   6.721   4.688
 3453TIP3    H231851   2.506   6.576   4.729
 3454TIP3   OH231852   1.742   1.035   2.860
 3454TIP3    H131853   1.753   1.125   2.891
 3454TIP3    H231854   1.652   1.030   2.831
 3455TIP3   OH231855   2.361   5.177   1.389
 3455TIP3    H131856   2.424   5.114   1.422
 3455TIP3    H231857   2.405   5.219   1.315
 3456TIP3   OH231858   1.536   1.635  12.514
 3456TIP3    H131859   1.443   1.655  12.525
 3456TIP3    H231860   1.575   1.718  12.485
 3457TIP3   OH231861   4.219   4.612  13.743
 3457TIP3    H131862   4.222   4.683  13.808
 3457TIP3    H231863   4.133   4.572  13.756
 3458TIP3   OH231864   1.958   0.712   0.040
 3458TIP3    H131865   2.042   0.750   0.066
 3458TIP3    H231866   1.939   0.752  -0.045
 3459TIP3   OH231867   6.725   0.130   2.475
 3459TIP3    H131868   6.820   0.120   2.488
 3459TIP3    H231869   6.718   0.190   2.401
 3460TIP3   OH231870   6.627   1.977   3.281
 3460TIP3    H131871   6.663   1.996   3.368
 3460TIP3    H231872   6.699   1.934   3.234
 3461TIP3   OH231873   0.153   1.229  15.211
 3461TIP3    H131874   0.111   1.277  15.139
 3461TIP3    H231875   0.238   1.204  15.177
 3462TIP3   OH231876   6.424   6.630  10.789
 3462TIP3    H131877   6.416   6.714  10.742
 3462TIP3    H231878   6.338   6.589  10.778
 3463TIP3   OH231879   4.253   3.385  15.746
 3463TIP3    H131880   4.164   3.418  15.752
 3463TIP3    H231881   4.307   3.462  15.730
 3464TIP3   OH231882   1.766   3.051   4.193
 3464TIP3    H131883   1.768   2.992   4.117
 3464TIP3    H231884   1.850   3.036   4.237
 3465TIP3   OH231885   1.626   5.463  13.022
 3465TIP3    H131886   1.660   5.431  12.938
 3465TIP3    H231887   1.635   5.558  13.016
 3466TIP3   OH231888   3.140   6.196  14.811
 3466TIP3    H131889   3.225   6.207  14.854
 3466TIP3    H231890   3.085   6.265  14.849
 3467TIP3   OH231891   5.677   4.609   2.303
 3467TIP3    H131892   5.720   4.538   2.255
 3467TIP3    H231893   5.584   4.592   2.292
 3468TIP3   OH231894   4.241   3.104  15.819
 3468TIP3    H131895   4.253   3.195  15.793
 3468TIP3    H231896   4.268   3.053  15.743
 3469TIP3   OH231897   4.704   4.629  11.189
 3469TIP3    H131898   4.616   4.652  11.159
 3469TIP3    H231899   4.756   4.708  11.176
 3470TIP3   OH231900   0.812   0.636  14.914
 3470TIP3    H131901   0.766   0.708  14.957
 3470TIP3    H231902   0.866   0.678  14.848
 3471TIP3   OH231903   0.128   3.525   2.520
 3471TIP3    H131904   0.132   3.452   2.581
 3471TIP3    H231905   0.193   3.587   2.552
 3472TIP3   OH231906   0.348   0.913  14.266
 3472TIP3    H131907   0.295   0.925  14.345
 3472TIP3    H231908   0.285   0.889  14.198
 3473TIP3   OH231909   2.244   2.951  11.048
 3473TIP3    H131910   2.158   2.918  11.024
 3473TIP3    H231911   2.246   3.041  11.014
 3474TIP3   OH231912   0.231   1.580  11.555
 3474TIP3    H131913   0.137   1.591  11.538
 3474TIP3    H231914   0.266   1.668  11.555
 3475TIP3   OH231915   6.042   4.062  13.996
 3475TIP3    H131916   6.056   4.077  13.902
 3475TIP3    H231917   5.974   3.996  14.000
 3476TIP3   OH231918   5.940   0.200   1.762
 3476TIP3    H131919   5.866   0.140   1.751
 3476TIP3    H231920   5.900   0.286   1.772
 3477TIP3   OH231921   3.301   0.669  16.510
 3477TIP3    H131922   3.235   0.621  16.461
 3477TIP3    H231923   3.295   0.759  16.477
 3478TIP3   OH231924   0.349   3.248  12.730
 3478TIP3    H131925   0.381   3.230  12.642
 3478TIP3    H231926   0.367   3.168  12.779
 3479TIP3   OH231927   2.249   0.476  11.773
 3479TIP3    H131928   2.177   0.412  11.774
 3479TIP3    H231929   2.271   0.487  11.681
 3480TIP3   OH231930   0.708   3.058  16.170
 3480TIP3    H131931   0.791   3.103  16.157
 3480TIP3    H231932   0.694   3.058  16.265
 3481TIP3   OH231933   3.964   5.519   2.600
 3481TIP3    H131934   3.934   5.530   2.510
 3481TIP3    H231935   3.913   5.446   2.634
 3482TIP3   OH231936   0.345   3.307   0.855
 3482TIP3    H131937   0.346   3.332   0.763
 3482TIP3    H231938   0.282   3.366   0.897
 3483TIP3   OH231939   0.820   0.296  13.078
 3483TIP3    H131940   0.895   0.241  13.100
 3483TIP3    H231941   0.762   0.240  13.027
 3484TIP3   OH231942   5.157   5.243   4.187
 3484TIP3    H131943   5.244   5.222   4.154
 3484TIP3    H231944   5.108   5.161   4.178
 3485TIP3   OH231945   0.371   4.200   1.647
 3485TIP3    H131946   0.452   4.155   1.623
 3485TIP3    H231947   0.303   4.153   1.598
 3486TIP3   OH231948   6.692   5.573  13.066
 3486TIP3    H131949   6.705   5.517  12.990
 3486TIP3    H231950   6.687   5.512  13.140
 3487TIP3   OH231951   6.199   1.070   4.261
 3487TIP3    H131952   6.271   1.018   4.297
 3487TIP3    H231953   6.225   1.086   4.170
 3488TIP3   OH231954   1.314   5.004   3.049
 3488TIP3    H131955   1.400   5.035   3.076
 3488TIP3    H231956   1.316   5.006   2.953
 3489TIP3   OH231957   5.462   3.300   0.199
 3489TIP3    H131958   5.512   3.356   0.140
 3489TIP3    H231959   5.386   3.273   0.147
 3490TIP3   OH231960   2.945   6.068   1.244
 3490TIP3    H131961   2.868   6.080   1.189
 3490TIP3    H231962   3.002   6.141   1.221
 3491TIP3   OH231963   3.411   3.757   9.970
 3491TIP3    H131964   3.355   3.684   9.997
 3491TIP3    H231965   3.381   3.832  10.023
 3492TIP3   OH231966   4.462   4.062  13.771
 3492TIP3    H131967   4.407   4.030  13.842
 3492TIP3    H231968   4.523   3.990  13.754
 3493TIP3   OH231969   4.176   2.344  16.025
 3493TIP3    H131970   4.083   2.327  16.012
 3493TIP3    H231971   4.218   2.260  16.004
 3494TIP3   OH231972   4.704   5.399   0.440
 3494TIP3    H131973   4.663   5.391   0.354
 3494TIP3    H231974   4.695   5.492   0.462
 3495TIP3   OH231975   6.397   5.576   4.042
 3495TIP3    H131976   6.314   5.613   4.012
 3495TIP3    H231977   6.422   5.515   3.974
 3496TIP3   OH231978   6.356   4.820   5.819
 3496TIP3    H131979   6.370   4.913   5.835
 3496TIP3    H231980   6.401   4.776   5.892
 3497TIP3   OH231981   2.530   6.769   5.086
 3497TIP3    H131982   2.604   6.809   5.133
 3497TIP3    H231983   2.483   6.843   5.047
 3498TIP3   OH231984   1.469   1.523   0.245
 3498TIP3    H131985   1.402   1.457   0.263
 3498TIP3    H231986   1.518   1.530   0.327
 3499TIP3   OH231987   3.989   1.095  16.634
 3499TIP3    H131988   4.052   1.059  16.698
 3499TIP3    H231989   4.030   1.175  16.603
 3500TIP3   OH231990   5.991   2.333   4.084
 3500TIP3    H131991   6.051   2.376   4.022
 3500TIP3    H231992   6.028   2.246   4.097
 3501TIP3   OH231993   6.735   4.980   0.824
 3501TIP3    H131994   6.659   4.923   0.817
 3501TIP3    H231995   6.800   4.928   0.873
 3502TIP3   OH231996   6.361   4.342   4.387
 3502TIP3    H131997   6.320   4.277   4.444
 3502TIP3    H231998   6.291   4.369   4.328
 3503TIP3   OH231999   2.662   6.167  11.157
 3503TIP3    H132000   2.721   6.238  11.132
 3503TIP3    H232001   2.581   6.211  11.183
 3504TIP3   OH232002   0.233   2.489  15.507
 3504TIP3    H132003   0.262   2.578  15.529
 3504TIP3    H232004   0.145   2.501  15.472
 3505TIP3   OH232005   5.101   5.553  10.712
 3505TIP3    H132006   5.034   5.485  10.708
 3505TIP3    H232007   5.077   5.614  10.642
 3506TIP3   OH232008   0.916   3.728   5.918
 3506TIP3    H132009   0.839   3.759   5.966
 3506TIP3    H232010   0.962   3.670   5.980
 3507TIP3   OH232011   0.789   4.001   2.527
 3507TIP3    H132012   0.822   4.071   2.584
 3507TIP3    H232013   0.755   4.047   2.450
 3508TIP3   OH232014   3.920   4.883   4.933
 3508TIP3    H132015   3.902   4.902   4.841
 3508TIP3    H232016   3.833   4.878   4.974
 3509TIP3   OH232017   4.726   4.342   5.783
 3509TIP3    H132018   4.744   4.260   5.829
 3509TIP3    H232019   4.634   4.337   5.760
 3510TIP3   OH232020   6.408   2.868   6.265
 3510TIP3    H132021   6.345   2.937   6.241
 3510TIP3    H232022   6.410   2.869   6.360
 3511TIP3   OH232023   5.911   6.688   6.163
 3511TIP3    H132024   5.963   6.751   6.212
 3511TIP3    H232025   5.967   6.610   6.155
 3512TIP3   OH232026   3.854   6.027  12.870
 3512TIP3    H132027   3.906   6.017  12.791
 3512TIP3    H232028   3.822   5.938  12.889
 3513TIP3   OH232029   5.997   5.345   4.785
 3513TIP3    H132030   5.923   5.334   4.845
 3513TIP3    H232031   5.999   5.439   4.767
 3514TIP3   OH232032   5.982   1.320   4.502
 3514TIP3    H132033   5.940   1.385   4.445
 3514TIP3    H232034   5.910   1.271   4.540
 3515TIP3   OH232035   1.781   1.514  11.796
 3515TIP3    H132036   1.812   1.507  11.886
 3515TIP3    H232037   1.844   1.462  11.746
 3516TIP3   OH232038   4.730   2.322   0.822
 3516TIP3    H132039   4.763   2.234   0.802
 3516TIP3    H232040   4.809   2.375   0.834
 3517TIP3   OH232041   6.488   2.639  12.912
 3517TIP3    H132042   6.562   2.687  12.949
 3517TIP3    H232043   6.526   2.580  12.847
 3518TIP3   OH232044   5.577   4.408  15.321
 3518TIP3    H132045   5.623   4.482  15.280
 3518TIP3    H232046   5.647   4.350  15.349
 3519TIP3   OH232047   5.961   2.646   4.827
 3519TIP3    H132048   6.005   2.562   4.837
 3519TIP3    H232049   5.975   2.671   4.736
 3520TIP3   OH232050   0.636   4.646  14.105
 3520TIP3    H132051   0.561   4.587  14.098
 3520TIP3    H232052   0.598   4.733  14.114
 3521TIP3   OH232053   4.124   4.320  13.849
 3521TIP3    H132054   4.188   4.386  13.822
 3521TIP3    H232055   4.060   4.369  13.902
 3522TIP3   OH232056   1.035   6.601  11.469
 3522TIP3    H132057   1.107   6.649  11.428
 3522TIP3    H232058   0.979   6.574  11.396
 3523TIP3   OH232059   3.677   0.242   2.814
 3523TIP3    H132060   3.633   0.208   2.892
 3523TIP3    H232061   3.735   0.311   2.847
 3524TIP3   OH232062   5.447   5.777   3.672
 3524TIP3    H132063   5.400   5.834   3.733
 3524TIP3    H232064   5.536   5.773   3.705
 3525TIP3   OH232065   4.486   3.257  16.659
 3525TIP3    H132066   4.397   3.238  16.690
 3525TIP3    H232067   4.486   3.227  16.568
 3526TIP3   OH232068   6.028   5.384  13.196
 3526TIP3    H132069   5.963   5.314  13.204
 3526TIP3    H232070   6.022   5.413  13.105
 3527TIP3   OH232071   4.235   3.468  14.725
 3527TIP3    H132072   4.219   3.471  14.631
 3527TIP3    H232073   4.156   3.505  14.765
 3528TIP3   OH232074   2.745   1.993  11.355
 3528TIP3    H132075   2.805   1.962  11.288
 3528TIP3    H232076   2.658   1.975  11.320
 3529TIP3   OH232077   3.651   2.227  11.953
 3529TIP3    H132078   3.603   2.156  11.910
 3529TIP3    H232079   3.584   2.290  11.979
 3530TIP3   OH232080   2.843   1.044  12.570
 3530TIP3    H132081   2.813   0.957  12.597
 3530TIP3    H232082   2.850   1.038  12.475
 3531TIP3   OH232083   2.916   4.497  11.088
 3531TIP3    H132084   2.919   4.498  10.993
 3531TIP3    H232085   2.827   4.521  11.111
 3532TIP3   OH232086   0.370   2.849  13.587
 3532TIP3    H132087   0.456   2.808  13.591
 3532TIP3    H232088   0.328   2.812  13.510
 3533TIP3   OH232089   6.315   2.832   1.394
 3533TIP3    H132090   6.335   2.833   1.487
 3533TIP3    H232091   6.353   2.914   1.361
 3534TIP3   OH232092   0.690   4.599   1.950
 3534TIP3    H132093   0.640   4.650   2.013
 3534TIP3    H232094   0.626   4.571   1.885
 3535TIP3   OH232095   2.245   4.558  10.470
 3535TIP3    H132096   2.187   4.484  10.485
 3535TIP3    H232097   2.255   4.599  10.556
 3536TIP3   OH232098   4.145   5.521   2.212
 3536TIP3    H132099   4.114   5.464   2.141
 3536TIP3    H232100   4.195   5.464   2.269
 3537TIP3   OH232101   6.282   0.418   6.670
 3537TIP3    H132102   6.276   0.376   6.584
 3537TIP3    H232103   6.247   0.506   6.656
 3538TIP3   OH232104   5.394   5.607  14.785
 3538TIP3    H132105   5.438   5.548  14.724
 3538TIP3    H232106   5.466   5.648  14.834
 3539TIP3   OH232107   4.465   1.845  12.760
 3539TIP3    H132108   4.489   1.755  12.736
 3539TIP3    H232109   4.469   1.846  12.855
 3540TIP3   OH232110   0.633   5.292  15.963
 3540TIP3    H132111   0.585   5.241  15.897
 3540TIP3    H232112   0.725   5.278  15.941
 3541TIP3   OH232113   5.296   3.467  12.119
 3541TIP3    H132114   5.368   3.451  12.180
 3541TIP3    H232115   5.291   3.386  12.068
 3542TIP3   OH232116   0.208   4.055   1.495
 3542TIP3    H132117   0.114   4.071   1.491
 3542TIP3    H232118   0.217   3.960   1.490
 3543TIP3   OH232119   2.716   6.070   1.858
 3543TIP3    H132120   2.629   6.057   1.895
 3543TIP3    H232121   2.721   6.164   1.842
 3544TIP3   OH232122   1.952   1.321   5.476
 3544TIP3    H132123   1.932   1.322   5.383
 3544TIP3    H232124   1.950   1.228   5.500
 3545TIP3   OH232125   2.189   2.396   6.236
 3545TIP3    H132126   2.096   2.373   6.227
 3545TIP3    H232127   2.192   2.490   6.222
 3546TIP3   OH232128   1.909   1.822   1.342
 3546TIP3    H132129   1.855   1.772   1.281
 3546TIP3    H232130   1.996   1.820   1.303
 3547TIP3   OH232131   4.691   1.305   0.398
 3547TIP3    H132132   4.600   1.311   0.427
 3547TIP3    H232133   4.699   1.216   0.363
 3548TIP3   OH232134   4.163   4.382   3.004
 3548TIP3    H132135   4.237   4.355   2.949
 3548TIP3    H232136   4.116   4.446   2.951
 3549TIP3   OH232137   6.338   2.115   5.039
 3549TIP3    H132138   6.342   2.025   5.071
 3549TIP3    H232139   6.316   2.167   5.117
 3550TIP3   OH232140   4.788   2.770  13.576
 3550TIP3    H132141   4.838   2.702  13.531
 3550TIP3    H232142   4.807   2.756  13.669
 3551TIP3   OH232143   4.633   5.984  14.604
 3551TIP3    H132144   4.690   6.016  14.533
 3551TIP3    H232145   4.597   5.902  14.570
 3552TIP3   OH232146   5.626   2.520  14.796
 3552TIP3    H132147   5.617   2.448  14.733
 3552TIP3    H232148   5.606   2.598  14.745
 3553TIP3   OH232149   3.069   5.750  14.484
 3553TIP3    H132150   3.096   5.827  14.434
 3553TIP3    H232151   2.975   5.743  14.467
 3554TIP3   OH232152   2.238   3.204   3.185
 3554TIP3    H132153   2.164   3.257   3.156
 3554TIP3    H232154   2.312   3.265   3.187
 3555TIP3   OH232155   2.667   5.290  13.960
 3555TIP3    H132156   2.698   5.303  14.050
 3555TIP3    H232157   2.604   5.218  13.966
 3556TIP3   OH232158   3.261   1.033   1.701
 3556TIP3    H132159   3.302   1.064   1.782
 3556TIP3    H232160   3.208   0.959   1.729
 3557TIP3   OH232161   4.344   2.382   6.664
 3557TIP3    H132162   4.300   2.464   6.640
 3557TIP3    H232163   4.274   2.327   6.699
 3558TIP3   OH232164   3.954   0.250   1.178
 3558TIP3    H132165   3.922   0.287   1.260
 3558TIP3    H232166   3.882   0.195   1.147
 3559TIP3   OH232167   6.050   2.419  12.193
 3559TIP3    H132168   6.017   2.485  12.133
 3559TIP3    H232169   5.973   2.389  12.242
 3560TIP3   OH232170   6.188   4.338  12.725
 3560TIP3    H132171   6.155   4.301  12.806
 3560TIP3    H232172   6.277   4.303  12.717
 3561TIP3   OH232173   3.395   6.561  16.668
 3561TIP3    H132174   3.349   6.520  16.595
 3561TIP3    H232175   3.452   6.493  16.702
 3562TIP3   OH232176   4.124   4.531  13.422
 3562TIP3    H132177   4.105   4.611  13.471
 3562TIP3    H232178   4.062   4.467  13.457
 3563TIP3   OH232179   4.144   4.326  12.142
 3563TIP3    H132180   4.198   4.263  12.095
 3563TIP3    H232181   4.183   4.330  12.229
 3564TIP3   OH232182   5.280   1.629  12.949
 3564TIP3    H132183   5.367   1.628  12.988
 3564TIP3    H232184   5.292   1.595  12.861
 3565TIP3   OH232185   1.676   5.523   5.451
 3565TIP3    H132186   1.696   5.617   5.451
 3565TIP3    H232187   1.743   5.484   5.395
 3566TIP3   OH232188   5.385   2.107   0.649
 3566TIP3    H132189   5.463   2.054   0.669
 3566TIP3    H232190   5.419   2.183   0.603
 3567TIP3   OH232191   2.701   5.739  11.434
 3567TIP3    H132192   2.708   5.735  11.339
 3567TIP3    H232193   2.733   5.654  11.464
 3568TIP3   OH232194   3.116   2.390  17.020
 3568TIP3    H132195   3.179   2.328  16.981
 3568TIP3    H232196   3.056   2.412  16.949
 3569TIP3   OH232197   5.343   4.409  17.163
 3569TIP3    H132198   5.268   4.371  17.209
 3569TIP3    H232199   5.350   4.498  17.196
 3570TIP3   OH232200   2.123   4.188   5.063
 3570TIP3    H132201   2.183   4.249   5.107
 3570TIP3    H232202   2.167   4.103   5.070
 3571TIP3   OH232203   0.381   0.105  13.171
 3571TIP3    H132204   0.410   0.194  13.191
 3571TIP3    H232205   0.333   0.113  13.089
 3572TIP3   OH232206   6.570   5.957  13.328
 3572TIP3    H132207   6.524   5.982  13.407
 3572TIP3    H232208   6.516   5.991  13.256
 3573TIP3   OH232209   3.438   1.093  13.945
 3573TIP3    H132210   3.406   1.043  13.870
 3573TIP3    H232211   3.437   1.031  14.018
 3574TIP3   OH232212   1.779   5.848   5.875
 3574TIP3    H132213   1.824   5.917   5.923
 3574TIP3    H232214   1.706   5.893   5.832
 3575TIP3   OH232215   2.648   4.992  16.925
 3575TIP3    H132216   2.685   4.938  16.995
 3575TIP3    H232217   2.678   4.949  16.844
 3576TIP3   OH232218   2.214   5.855  11.891
 3576TIP3    H132219   2.247   5.784  11.946
 3576TIP3    H232220   2.203   5.815  11.805
 3577TIP3   OH232221   2.326   2.427  13.819
 3577TIP3    H132222   2.282   2.505  13.786
 3577TIP3    H232223   2.257   2.379  13.866
 3578TIP3   OH232224   2.174   1.144   1.091
 3578TIP3    H132225   2.152   1.174   1.003
 3578TIP3    H232226   2.100   1.088   1.115
 3579TIP3   OH232227   1.943   3.684  13.101
 3579TIP3    H132228   1.901   3.600  13.086
 3579TIP3    H232229   1.950   3.723  13.013
 3580TIP3   OH232230   0.370   0.309  15.713
 3580TIP3    H132231   0.297   0.360  15.680
 3580TIP3    H232232   0.399   0.257  15.638
 3581TIP3   OH232233   4.999   0.719  12.069
 3581TIP3    H132234   5.068   0.689  12.010
 3581TIP3    H232235   4.921   0.671  12.040
 3582TIP3   OH232236   2.694   6.339   1.739
 3582TIP3    H132237   2.700   6.415   1.797
 3582TIP3    H232238   2.600   6.323   1.730
 3583TIP3   OH232239   6.688   2.831   1.280
 3583TIP3    H132240   6.671   2.860   1.190
 3583TIP3    H232241   6.658   2.904   1.335
 3584TIP3   OH232242   6.710   2.085   6.424
 3584TIP3    H132243   6.770   2.046   6.488
 3584TIP3    H232244   6.623   2.067   6.460
 3585TIP3   OH232245   3.284   4.409   0.376
 3585TIP3    H132246   3.353   4.347   0.398
 3585TIP3    H232247   3.203   4.358   0.383
 3586TIP3   OH232248   0.209   1.363  13.222
 3586TIP3    H132249   0.227   1.279  13.180
 3586TIP3    H232250   0.193   1.424  13.150
 3587TIP3   OH232251   2.141   4.469  12.797
 3587TIP3    H132252   2.221   4.444  12.751
 3587TIP3    H232253   2.071   4.424  12.750
 3588TIP3   OH232254   6.512   1.689   4.107
 3588TIP3    H132255   6.488   1.688   4.200
 3588TIP3    H232256   6.520   1.781   4.086
 3589TIP3   OH232257   1.298   1.003  14.011
 3589TIP3    H132258   1.272   0.912  13.995
 3589TIP3    H232259   1.305   1.009  14.107
 3590TIP3   OH232260   5.069   1.029  15.438
 3590TIP3    H132261   5.148   0.988  15.474
 3590TIP3    H232262   5.031   0.962  15.381
 3591TIP3   OH232263   0.813   5.345   2.453
 3591TIP3    H132264   0.858   5.426   2.430
 3591TIP3    H232265   0.790   5.306   2.369
 3592TIP3   OH232266   6.203   2.105   3.575
 3592TIP3    H132267   6.118   2.112   3.533
 3592TIP3    H232268   6.185   2.113   3.669
 3593TIP3   OH232269   4.720   4.006  11.049
 3593TIP3    H132270   4.814   4.003  11.033
 3593TIP3    H232271   4.684   4.053  10.974
 3594TIP3   OH232272   4.427   2.676  13.100
 3594TIP3    H132273   4.519   2.655  13.082
 3594TIP3    H232274   4.422   2.771  13.091
 3595TIP3   OH232275   3.602   2.103   0.917
 3595TIP3    H132276   3.563   2.026   0.959
 3595TIP3    H232277   3.692   2.076   0.899
 3596TIP3   OH232278   0.840   5.293   5.557
 3596TIP3    H132279   0.876   5.204   5.550
 3596TIP3    H232280   0.873   5.338   5.479
 3597TIP3   OH232281   6.007   2.893   6.663
 3597TIP3    H132282   5.917   2.864   6.671
 3597TIP3    H232283   6.003   2.972   6.609
 3598TIP3   OH232284   2.691   1.921  12.723
 3598TIP3    H132285   2.745   1.917  12.802
 3598TIP3    H232286   2.737   1.982  12.666
 3599TIP3   OH232287   4.907   3.776   3.597
 3599TIP3    H132288   4.851   3.701   3.578
 3599TIP3    H232289   4.931   3.811   3.511
 3600TIP3   OH232290   0.365   3.312  12.033
 3600TIP3    H132291   0.287   3.347  11.991
 3600TIP3    H232292   0.438   3.348  11.983
 3601TIP3   OH232293   4.229   4.397  11.846
 3601TIP3    H132294   4.229   4.322  11.906
 3601TIP3    H232295   4.318   4.401  11.812
 3602TIP3   OH232296   4.341   5.045  12.613
 3602TIP3    H132297   4.353   5.131  12.654
 3602TIP3    H232298   4.246   5.031  12.613
 3603TIP3   OH232299   4.199   5.234   4.349
 3603TIP3    H132300   4.293   5.217   4.353
 3603TIP3    H232301   4.169   5.221   4.439
 3604TIP3   OH232302   4.430   1.669  16.846
 3604TIP3    H132303   4.522   1.678  16.871
 3604TIP3    H232304   4.422   1.717  16.764
 3605TIP3   OH232305   1.942   6.555  15.141
 3605TIP3    H132306   2.000   6.583  15.212
 3605TIP3    H232307   1.887   6.487  15.179
 3606TIP3   OH232308   4.656   6.646   3.824
 3606TIP3    H132309   4.716   6.622   3.895
 3606TIP3    H232310   4.615   6.727   3.854
 3607TIP3   OH232311   0.652   0.970   2.923
 3607TIP3    H132312   0.711   0.898   2.902
 3607TIP3    H232313   0.564   0.934   2.906
 3608TIP3   OH232314   4.499   0.337  14.331
 3608TIP3    H132315   4.465   0.421  14.360
 3608TIP3    H232316   4.574   0.359  14.276
 3609TIP3   OH232317   4.793   2.523   1.181
 3609TIP3    H132318   4.863   2.544   1.242
 3609TIP3    H232319   4.780   2.429   1.189
 3610TIP3   OH232320   3.613   0.991   5.389
 3610TIP3    H132321   3.583   0.905   5.358
 3610TIP3    H232322   3.592   0.991   5.482
 3611TIP3   OH232323   4.741   0.060   5.360
 3611TIP3    H132324   4.810   0.002   5.392
 3611TIP3    H232325   4.784   0.146   5.353
 3612TIP3   OH232326   4.864   2.143  11.653
 3612TIP3    H132327   4.904   2.081  11.592
 3612TIP3    H232328   4.779   2.103  11.674
 3613TIP3   OH232329   2.501   3.755   0.060
 3613TIP3    H132330   2.539   3.678   0.018
 3613TIP3    H232331   2.487   3.817  -0.011
 3614TIP3   OH232332   4.434   0.062  15.566
 3614TIP3    H132333   4.526   0.036  15.570
 3614TIP3    H232334   4.403   0.028  15.481
 3615TIP3   OH232335   2.617   4.205  12.817
 3615TIP3    H132336   2.656   4.131  12.863
 3615TIP3    H232337   2.648   4.196  12.727
 3616TIP3   OH232338   2.372   4.455  13.281
 3616TIP3    H132339   2.301   4.393  13.301
 3616TIP3    H232340   2.352   4.488  13.194
 3617TIP3   OH232341   1.659   6.764   3.569
 3617TIP3    H132342   1.707   6.835   3.528
 3617TIP3    H232343   1.709   6.685   3.546
 3618TIP3   OH232344   6.036   5.020  15.396
 3618TIP3    H132345   6.021   4.944  15.340
 3618TIP3    H232346   6.058   4.983  15.482
 3619TIP3   OH232347   1.366   6.263  12.812
 3619TIP3    H132348   1.274   6.246  12.792
 3619TIP3    H232349   1.410   6.257  12.727
 3620TIP3   OH232350   3.467   5.057  13.564
 3620TIP3    H132351   3.410   5.129  13.590
 3620TIP3    H232352   3.454   5.049  13.469
 3621TIP3   OH232353   0.562   6.286   3.915
 3621TIP3    H132354   0.532   6.351   3.978
 3621TIP3    H232355   0.634   6.329   3.868
 3622TIP3   OH232356   1.040   1.494   1.515
 3622TIP3    H132357   0.956   1.455   1.537
 3622TIP3    H232358   1.105   1.427   1.539
 3623TIP3   OH232359   1.457   1.609  14.656
 3623TIP3    H132360   1.509   1.678  14.616
 3623TIP3    H232361   1.366   1.636  14.641
 3624TIP3   OH232362   1.758   3.469  17.290
 3624TIP3    H132363   1.826   3.531  17.264
 3624TIP3    H232364   1.676   3.507  17.259
 3625TIP3   OH232365   5.790   0.580  12.552
 3625TIP3    H132366   5.698   0.603  12.543
 3625TIP3    H232367   5.807   0.520  12.478
 3626TIP3   OH232368   2.677   3.955  15.854
 3626TIP3    H132369   2.699   3.868  15.821
 3626TIP3    H232370   2.708   3.954  15.945
 3627TIP3   OH232371   2.764   1.245   3.312
 3627TIP3    H132372   2.694   1.303   3.281
 3627TIP3    H232373   2.731   1.157   3.299
 3628TIP3   OH232374   5.203   0.826  11.642
 3628TIP3    H132375   5.284   0.779  11.623
 3628TIP3    H232376   5.194   0.821  11.737
 3629TIP3   OH232377   5.705   1.223   0.146
 3629TIP3    H132378   5.638   1.232   0.213
 3629TIP3    H232379   5.704   1.130   0.123
 3630TIP3   OH232380   6.219   0.955   4.980
 3630TIP3    H132381   6.170   1.028   4.943
 3630TIP3    H232382   6.153   0.903   5.027
 3631TIP3   OH232383   2.529   5.185   2.352
 3631TIP3    H132384   2.616   5.154   2.326
 3631TIP3    H232385   2.534   5.192   2.447
 3632TIP3   OH232386   3.162   5.677  16.548
 3632TIP3    H132387   3.126   5.626  16.476
 3632TIP3    H232388   3.211   5.614  16.600
 3633TIP3   OH232389   4.077   5.551  13.409
 3633TIP3    H132390   4.103   5.608  13.336
 3633TIP3    H232391   4.026   5.608  13.466
 3634TIP3   OH232392   6.022   5.720  15.687
 3634TIP3    H132393   6.018   5.791  15.623
 3634TIP3    H232394   6.065   5.648  15.641
 3635TIP3   OH232395   6.275   5.841   3.311
 3635TIP3    H132396   6.185   5.823   3.284
 3635TIP3    H232397   6.327   5.774   3.267
 3636TIP3   OH232398   3.144   3.311   4.614
 3636TIP3    H132399   3.132   3.227   4.570
 3636TIP3    H232400   3.233   3.307   4.649
 3637TIP3   OH232401   6.173   1.538  15.869
 3637TIP3    H132402   6.268   1.527  15.864
 3637TIP3    H232403   6.143   1.466  15.925
 3638TIP3   OH232404   5.537   3.851   2.840
 3638TIP3    H132405   5.557   3.847   2.747
 3638TIP3    H232406   5.530   3.944   2.859
 3639TIP3   OH232407   6.426   3.641   1.940
 3639TIP3    H132408   6.435   3.572   2.005
 3639TIP3    H232409   6.401   3.596   1.859
 3640TIP3   OH232410   0.852   0.096   1.992
 3640TIP3    H132411   0.778   0.060   1.943
 3640TIP3    H232412   0.859   0.187   1.963
 3641TIP3   OH232413   3.469   0.782  13.812
 3641TIP3    H132414   3.542   0.765  13.752
 3641TIP3    H232415   3.409   0.837  13.761
 3642TIP3   OH232416   4.644   0.322  15.766
 3642TIP3    H132417   4.674   0.231  15.773
 3642TIP3    H232418   4.556   0.315  15.728
 3643TIP3   OH232419   4.192   1.250  12.035
 3643TIP3    H132420   4.157   1.175  11.987
 3643TIP3    H232421   4.124   1.272  12.098
 3644TIP3   OH232422   1.788   6.067   5.392
 3644TIP3    H132423   1.785   6.132   5.321
 3644TIP3    H232424   1.866   6.016   5.373
 3645TIP3   OH232425   3.741   0.983   4.910
 3645TIP3    H132426   3.670   1.004   4.849
 3645TIP3    H232427   3.721   1.033   4.989
 3646TIP3   OH232428   0.004   3.180  14.067
 3646TIP3    H132429   0.082   3.195  14.014
 3646TIP3    H232430   0.030   3.205  14.155
 3647TIP3   OH232431   0.609   3.915   6.434
 3647TIP3    H132432   0.642   3.986   6.488
 3647TIP3    H232433   0.656   3.837   6.466
 3648TIP3   OH232434   3.273   4.819   5.719
 3648TIP3    H132435   3.219   4.807   5.798
 3648TIP3    H232436   3.214   4.862   5.657
 3649TIP3   OH232437   2.647   0.154  14.839
 3649TIP3    H132438   2.720   0.182  14.783
 3649TIP3    H232439   2.569   0.180  14.791
 3650TIP3   OH232440   3.425   0.169   5.540
 3650TIP3    H132441   3.450   0.077   5.545
 3650TIP3    H232442   3.329   0.167   5.543
 3651TIP3   OH232443   1.362   5.430  14.652
 3651TIP3    H132444   1.358   5.340  14.620
 3651TIP3    H232445   1.415   5.476  14.587
 3652TIP3   OH232446   5.432   0.625   1.124
 3652TIP3    H132447   5.500   0.687   1.098
 3652TIP3    H232448   5.386   0.604   1.043
 3653TIP3   OH232449   5.769   2.349   3.375
 3653TIP3    H132450   5.705   2.296   3.327
 3653TIP3    H232451   5.718   2.396   3.440
 3654TIP3   OH232452   3.743   6.504   6.138
 3654TIP3    H132453   3.803   6.438   6.173
 3654TIP3    H232454   3.795   6.585   6.135
 3655TIP3   OH232455   3.440   1.844  11.560
 3655TIP3    H132456   3.525   1.888  11.564
 3655TIP3    H232457   3.394   1.887  11.488
 3656TIP3   OH232458   0.138   3.402  11.917
 3656TIP3    H132459   0.151   3.407  11.823
 3656TIP3    H232460   0.056   3.352  11.928
 3657TIP3   OH232461   1.671   4.550  15.031
 3657TIP3    H132462   1.700   4.602  14.956
 3657TIP3    H232463   1.669   4.611  15.104
 3658TIP3   OH232464   4.470   4.069  12.616
 3658TIP3    H132465   4.408   4.121  12.668
 3658TIP3    H232466   4.415   4.006  12.569
 3659TIP3   OH232467   0.491   3.714   5.412
 3659TIP3    H132468   0.491   3.650   5.341
 3659TIP3    H232469   0.424   3.682   5.473
 3660TIP3   OH232470   0.491   0.906   2.027
 3660TIP3    H132471   0.562   0.968   2.015
 3660TIP3    H232472   0.506   0.839   1.960
 3661TIP3   OH232473   1.206   4.798   6.301
 3661TIP3    H132474   1.176   4.850   6.227
 3661TIP3    H232475   1.132   4.740   6.321
 3662TIP3   OH232476   0.510   1.363   4.464
 3662TIP3    H132477   0.472   1.446   4.493
 3662TIP3    H232478   0.570   1.338   4.534
 3663TIP3   OH232479   1.899   3.472   3.607
 3663TIP3    H132480   1.897   3.562   3.641
 3663TIP3    H232481   1.862   3.419   3.677
 3664TIP3   OH232482   0.544   1.297  12.750
 3664TIP3    H132483   0.453   1.320  12.769
 3664TIP3    H232484   0.547   1.202  12.762
 3665TIP3   OH232485   5.795   5.481  15.788
 3665TIP3    H132486   5.874   5.439  15.756
 3665TIP3    H232487   5.773   5.434  15.868
 3666TIP3   OH232488   3.432   5.933  15.617
 3666TIP3    H132489   3.398   5.876  15.548
 3666TIP3    H232490   3.357   5.951  15.673
 3667TIP3   OH232491   0.036   3.312   6.448
 3667TIP3    H132492   0.090   3.304   6.528
 3667TIP3    H232493   0.051   3.402   6.418
 3668TIP3   OH232494   1.466   4.389   1.573
 3668TIP3    H132495   1.478   4.483   1.566
 3668TIP3    H232496   1.387   4.378   1.626
 3669TIP3   OH232497   0.100   3.148   5.751
 3669TIP3    H132498   0.050   3.095   5.813
 3669TIP3    H232499   0.097   3.237   5.787
 3670TIP3   OH232500   0.917   2.970   4.655
 3670TIP3    H132501   0.856   2.928   4.716
 3670TIP3    H232502   1.002   2.963   4.698
 3671TIP3   OH232503   0.214   6.415  15.942
 3671TIP3    H132504   0.209   6.353  16.014
 3671TIP3    H232505   0.135   6.469  15.950
 3672TIP3   OH232506   2.044   1.872  15.984
 3672TIP3    H132507   2.089   1.886  16.068
 3672TIP3    H232508   2.112   1.835  15.927
 3673TIP3   OH232509   4.393   0.280   1.389
 3673TIP3    H132510   4.323   0.247   1.334
 3673TIP3    H232511   4.432   0.351   1.339
 3674TIP3   OH232512   5.686   2.590  16.931
 3674TIP3    H132513   5.711   2.587  17.023
 3674TIP3    H232514   5.730   2.668  16.897
 3675TIP3   OH232515   4.560   3.373   5.913
 3675TIP3    H132516   4.618   3.296   5.909
 3675TIP3    H232517   4.584   3.416   5.995
 3676TIP3   OH232518   0.760   3.339   0.150
 3676TIP3    H132519   0.846   3.318   0.185
 3676TIP3    H232520   0.719   3.254   0.134
 3677TIP3   OH232521   1.755   1.693  13.270
 3677TIP3    H132522   1.699   1.651  13.334
 3677TIP3    H232523   1.753   1.635  13.194
 3678TIP3   OH232524   4.480   3.251  16.370
 3678TIP3    H132525   4.542   3.192  16.327
 3678TIP3    H232526   4.496   3.336  16.328
 3679TIP3   OH232527   1.269   3.728   3.086
 3679TIP3    H132528   1.225   3.811   3.104
 3679TIP3    H232529   1.315   3.707   3.168
 3680TIP3   OH232530   4.169   2.884  16.658
 3680TIP3    H132531   4.241   2.828  16.629
 3680TIP3    H232532   4.098   2.864  16.597
 3681TIP3   OH232533   3.051   0.274   0.061
 3681TIP3    H132534   3.146   0.288   0.056
 3681TIP3    H232535   3.016   0.321  -0.015
 3682TIP3   OH232536   3.840   3.620  12.995
 3682TIP3    H132537   3.831   3.528  12.973
 3682TIP3    H232538   3.809   3.627  13.085
 3683TIP3   OH232539   4.260   1.042   5.047
 3683TIP3    H132540   4.340   1.072   5.005
 3683TIP3    H232541   4.289   1.006   5.131
 3684TIP3   OH232542   1.117   1.104  11.537
 3684TIP3    H132543   1.179   1.113  11.610
 3684TIP3    H232544   1.154   1.033  11.484
 3685TIP3   OH232545   1.829   1.951  11.641
 3685TIP3    H132546   1.756   1.893  11.666
 3685TIP3    H232547   1.902   1.891  11.627
 3686TIP3   OH232548   3.276   5.539  12.944
 3686TIP3    H132549   3.182   5.553  12.935
 3686TIP3    H232550   3.299   5.477  12.875
 3687TIP3   OH232551   1.582   1.230   6.642
 3687TIP3    H132552   1.638   1.249   6.566
 3687TIP3    H232553   1.603   1.300   6.704
 3688TIP3   OH232554   1.501   4.650  16.542
 3688TIP3    H132555   1.558   4.723  16.568
 3688TIP3    H232556   1.413   4.678  16.567
 3689TIP3   OH232557   5.736   6.652   3.484
 3689TIP3    H132558   5.795   6.655   3.560
 3689TIP3    H232559   5.789   6.613   3.414
 3690TIP3   OH232560   5.706   0.065   3.141
 3690TIP3    H132561   5.720   0.080   3.235
 3690TIP3    H232562   5.634   0.124   3.119
 3691TIP3   OH232563   5.957   6.510   3.379
 3691TIP3    H132564   6.013   6.555   3.443
 3691TIP3    H232565   5.936   6.427   3.422
 3692TIP3   OH232566   6.671   3.840  12.509
 3692TIP3    H132567   6.695   3.921  12.554
 3692TIP3    H232568   6.733   3.833  12.436
 3693TIP3   OH232569   5.250   1.960  15.991
 3693TIP3    H132570   5.236   1.930  15.901
 3693TIP3    H232571   5.302   1.890  16.031
 3694TIP3   OH232572   4.520   6.732   6.316
 3694TIP3    H132573   4.584   6.766   6.253
 3694TIP3    H232574   4.469   6.808   6.343
 3695TIP3   OH232575   4.264   5.457   5.400
 3695TIP3    H132576   4.238   5.546   5.427
 3695TIP3    H232577   4.351   5.445   5.438
 3696TIP3   OH232578   1.492   1.960  16.469
 3696TIP3    H132579   1.468   2.046  16.504
 3696TIP3    H232580   1.483   1.970  16.374
 3697TIP3   OH232581   0.706   1.978  10.856
 3697TIP3    H132582   0.736   2.059  10.898
 3697TIP3    H232583   0.745   1.980  10.768
 3698TIP3   OH232584   2.593   1.059  15.798
 3698TIP3    H132585   2.514   1.107  15.776
 3698TIP3    H232586   2.661   1.097  15.743
 3699TIP3   OH232587   1.732   1.101   4.470
 3699TIP3    H132588   1.747   1.193   4.450
 3699TIP3    H232589   1.766   1.054   4.393
 3700TIP3   OH232590   4.221   1.998  11.312
 3700TIP3    H132591   4.140   2.046  11.328
 3700TIP3    H232592   4.258   2.039  11.233
 3701TIP3   OH232593   0.695   4.250  13.316
 3701TIP3    H132594   0.639   4.321  13.284
 3701TIP3    H232595   0.676   4.177  13.257
 3702TIP3   OH232596   2.847   1.532   3.487
 3702TIP3    H132597   2.833   1.556   3.579
 3702TIP3    H232598   2.816   1.607   3.437
 3703TIP3   OH232599   0.280   5.232   3.538
 3703TIP3    H132600   0.238   5.318   3.540
 3703TIP3    H232601   0.370   5.248   3.565
 3704TIP3   OH232602   5.929   4.658   3.997
 3704TIP3    H132603   5.944   4.584   3.938
 3704TIP3    H232604   5.924   4.619   4.084
 3705TIP3   OH232605   1.325   0.229   4.811
 3705TIP3    H132606   1.417   0.250   4.831
 3705TIP3    H232607   1.299   0.167   4.878
 3706TIP3   OH232608   2.525   6.266  10.753
 3706TIP3    H132609   2.571   6.329  10.809
 3706TIP3    H232610   2.592   6.201  10.730
 3707TIP3   OH232611   4.516   1.026   2.472
 3707TIP3    H132612   4.514   0.973   2.392
 3707TIP3    H232613   4.603   1.068   2.471
 3708TIP3   OH232614   2.643   4.801  16.034
 3708TIP3    H132615   2.614   4.737  15.970
 3708TIP3    H232616   2.643   4.753  16.117
 3709TIP3   OH232617   6.551   2.263   3.462
 3709TIP3    H132618   6.590   2.176   3.478
 3709TIP3    H232619   6.618   2.310   3.413
 3710TIP3   OH232620   2.065   3.892   0.120
 3710TIP3    H132621   2.020   3.808   0.122
 3710TIP3    H232622   2.029   3.940   0.195
 3711TIP3   OH232623   4.491   1.431   3.022
 3711TIP3    H132624   4.458   1.447   2.933
 3711TIP3    H232625   4.586   1.446   3.015
 3712TIP3   OH232626   2.664   1.420   0.713
 3712TIP3    H132627   2.587   1.380   0.753
 3712TIP3    H232628   2.738   1.376   0.755
 3713TIP3   OH232629   5.573   6.036   1.812
 3713TIP3    H132630   5.557   5.950   1.851
 3713TIP3    H232631   5.518   6.096   1.863
 3714TIP3   OH232632   0.309   4.661   4.170
 3714TIP3    H132633   0.396   4.644   4.133
 3714TIP3    H232634   0.255   4.590   4.137
 3715TIP3   OH232635   4.414   5.935  15.472
 3715TIP3    H132636   4.367   6.018  15.468
 3715TIP3    H232637   4.428   5.920  15.566
 3716TIP3   OH232638   5.461   1.296  14.535
 3716TIP3    H132639   5.490   1.207  14.516
 3716TIP3    H232640   5.538   1.351  14.519
 3717TIP3   OH232641   4.150   4.604  15.791
 3717TIP3    H132642   4.245   4.593  15.783
 3717TIP3    H232643   4.118   4.517  15.817
 3718TIP3   OH232644   1.304   0.729  13.991
 3718TIP3    H132645   1.321   0.680  14.071
 3718TIP3    H232646   1.377   0.708  13.934
 3719TIP3   OH232647   3.966   5.709  13.625
 3719TIP3    H132648   3.932   5.781  13.573
 3719TIP3    H232649   3.997   5.749  13.706
 3720TIP3   OH232650   2.517   1.708  12.016
 3720TIP3    H132651   2.510   1.802  12.029
 3720TIP3    H232652   2.611   1.690  12.017
 3721TIP3   OH232653   5.048   1.062   3.474
 3721TIP3    H132654   4.973   1.003   3.474
 3721TIP3    H232655   5.061   1.085   3.383
 3722TIP3   OH232656   3.042   1.484   5.038
 3722TIP3    H132657   3.006   1.532   4.963
 3722TIP3    H232658   3.136   1.481   5.022
 3723TIP3   OH232659   1.502   5.768   0.303
 3723TIP3    H132660   1.533   5.820   0.377
 3723TIP3    H232661   1.409   5.790   0.296
 3724TIP3   OH232662   0.633   2.542  13.838
 3724TIP3    H132663   0.546   2.510  13.861
 3724TIP3    H232664   0.693   2.485  13.885
 3725TIP3   OH232665   1.961   4.325   1.889
 3725TIP3    H132666   1.993   4.389   1.826
 3725TIP3    H232667   1.879   4.362   1.922
 3726TIP3   OH232668   5.253   3.353   5.586
 3726TIP3    H132669   5.254   3.290   5.659
 3726TIP3    H232670   5.181   3.413   5.607
 3727TIP3   OH232671   6.661   1.888   4.344
 3727TIP3    H132672   6.654   1.911   4.251
 3727TIP3    H232673   6.745   1.925   4.371
 3728TIP3   OH232674   6.624   3.343  16.979
 3728TIP3    H132675   6.561   3.343  17.051
 3728TIP3    H232676   6.580   3.298  16.908
 3729TIP3   OH232677   2.363   1.087  14.935
 3729TIP3    H132678   2.329   1.090  14.845
 3729TIP3    H232679   2.360   1.178  14.964
 3730TIP3   OH232680   2.291   5.293   4.082
 3730TIP3    H132681   2.345   5.345   4.142
 3730TIP3    H232682   2.329   5.309   3.996
 3731TIP3   OH232683   6.248   2.399  15.396
 3731TIP3    H132684   6.187   2.468  15.368
 3731TIP3    H232685   6.294   2.374  15.316
 3732TIP3   OH232686   6.582   6.355   4.874
 3732TIP3    H132687   6.656   6.406   4.906
 3732TIP3    H232688   6.506   6.392   4.919
 3733TIP3   OH232689   6.527   1.785  16.270
 3733TIP3    H132690   6.482   1.841  16.208
 3733TIP3    H232691   6.539   1.839  16.348
 3734TIP3   OH232692   3.465   3.133   1.945
 3734TIP3    H132693   3.460   3.097   2.033
 3734TIP3    H232694   3.401   3.204   1.944
 3735TIP3   OH232695   4.179   0.024  16.984
 3735TIP3    H132696   4.219   0.068  16.908
 3735TIP3    H232697   4.105   0.081  17.007
 3736TIP3   OH232698   3.830   0.898  13.391
 3736TIP3    H132699   3.921   0.919  13.412
 3736TIP3    H232700   3.835   0.841  13.314
 3737TIP3   OH232701   3.874   1.464  17.018
 3737TIP3    H132702   3.828   1.455  16.935
 3737TIP3    H232703   3.962   1.431  17.001
 3738TIP3   OH232704   3.115   2.612   5.483
 3738TIP3    H132705   3.116   2.539   5.545
 3738TIP3    H232706   3.201   2.654   5.493
 3739TIP3   OH232707   1.709   2.009   5.446
 3739TIP3    H132708   1.718   2.071   5.373
 3739TIP3    H232709   1.696   1.924   5.404
 3740TIP3   OH232710   6.168   5.008   4.433
 3740TIP3    H132711   6.221   4.934   4.465
 3740TIP3    H232712   6.164   5.067   4.508
 3741TIP3   OH232713   1.514   3.640   5.285
 3741TIP3    H132714   1.467   3.723   5.294
 3741TIP3    H232715   1.597   3.654   5.331
 3742TIP3   OH232716   3.658   2.906   2.756
 3742TIP3    H132717   3.661   3.001   2.767
 3742TIP3    H232718   3.662   2.871   2.846
 3743TIP3   OH232719   5.122   0.652   1.947
 3743TIP3    H132720   5.110   0.629   1.854
 3743TIP3    H232721   5.079   0.581   1.995
 3744TIP3   OH232722   2.306   4.208   2.368
 3744TIP3    H132723   2.212   4.215   2.384
 3744TIP3    H232724   2.325   4.115   2.374
 3745TIP3   OH232725   4.412   4.561  15.719
 3745TIP3    H132726   4.436   4.602  15.636
 3745TIP3    H232727   4.491   4.569  15.773
 3746TIP3   OH232728   1.585   6.181  16.142
 3746TIP3    H132729   1.489   6.189  16.141
 3746TIP3    H232730   1.615   6.263  16.182
 3747TIP3   OH232731   6.669   6.771   0.876
 3747TIP3    H132732   6.662   6.860   0.843
 3747TIP3    H232733   6.584   6.752   0.915
 3748TIP3   OH232734   4.457   5.530  11.766
 3748TIP3    H132735   4.432   5.552  11.855
 3748TIP3    H232736   4.516   5.455  11.775
 3749TIP3   OH232737   4.693   4.826   4.609
 3749TIP3    H132738   4.787   4.821   4.626
 3749TIP3    H232739   4.672   4.743   4.566
 3750TIP3   OH232740   6.018   4.406  13.259
 3750TIP3    H132741   5.944   4.457  13.227
 3750TIP3    H232742   5.978   4.335  13.310
 3751TIP3   OH232743   1.453   5.138   1.738
 3751TIP3    H132744   1.442   5.061   1.794
 3751TIP3    H232745   1.451   5.212   1.799
 3752TIP3   OH232746   2.731   5.767  15.342
 3752TIP3    H132747   2.721   5.832  15.412
 3752TIP3    H232748   2.825   5.764  15.325
 3753TIP3   OH232749   2.993   3.309   1.518
 3753TIP3    H132750   2.961   3.388   1.473
 3753TIP3    H232751   2.917   3.251   1.519
 3754TIP3   OH232752   5.378   1.606  16.271
 3754TIP3    H132753   5.450   1.575  16.326
 3754TIP3    H232754   5.385   1.555  16.191
 3755TIP3   OH232755   1.354   1.069   3.039
 3755TIP3    H132756   1.322   1.089   3.127
 3755TIP3    H232757   1.364   1.154   2.997
 3756TIP3   OH232758   6.269   2.611  15.739
 3756TIP3    H132759   6.191   2.637  15.691
 3756TIP3    H232760   6.340   2.620  15.675
 3757TIP3   OH232761   6.599   6.009   1.590
 3757TIP3    H132762   6.605   5.926   1.542
 3757TIP3    H232763   6.514   6.044   1.566
 3758TIP3   OH232764   1.974   1.006  12.864
 3758TIP3    H132765   1.900   0.983  12.919
 3758TIP3    H232766   2.038   1.046  12.923
 3759TIP3   OH232767   2.914   6.605  16.984
 3759TIP3    H132768   2.967   6.526  16.971
 3759TIP3    H232769   2.911   6.616  17.079
 3760TIP3   OH232770   6.212   0.042  16.677
 3760TIP3    H132771   6.173  -0.034  16.635
 3760TIP3    H232772   6.158   0.116  16.648
 3761TIP3   OH232773   4.041   2.703   3.958
 3761TIP3    H132774   3.956   2.660   3.955
 3761TIP3    H232775   4.052   2.741   3.871
 3762TIP3   OH232776   6.676   2.681  12.451
 3762TIP3    H132777   6.763   2.643  12.450
 3762TIP3    H232778   6.691   2.774  12.469
 3763TIP3   OH232779   1.848   5.150   5.465
 3763TIP3    H132780   1.870   5.090   5.394
 3763TIP3    H232781   1.810   5.095   5.532
 3764TIP3   OH232782   0.981   4.198   6.559
 3764TIP3    H132783   0.939   4.262   6.503
 3764TIP3    H232784   1.056   4.244   6.596
 3765TIP3   OH232785   6.216   0.969  10.772
 3765TIP3    H132786   6.171   0.936  10.850
 3765TIP3    H232787   6.230   0.891  10.718
 3766TIP3   OH232788   4.734   2.076  12.246
 3766TIP3    H132789   4.647   2.082  12.286
 3766TIP3    H232790   4.717   2.047  12.157
 3767TIP3   OH232791   1.094   4.523   2.987
 3767TIP3    H132792   1.165   4.520   2.923
 3767TIP3    H232793   1.054   4.609   2.973
 3768TIP3   OH232794   1.827   6.224   4.459
 3768TIP3    H132795   1.898   6.161   4.448
 3768TIP3    H232796   1.753   6.172   4.491
 3769TIP3   OH232797   6.733   4.911  14.783
 3769TIP3    H132798   6.784   4.897  14.862
 3769TIP3    H232799   6.676   4.834  14.778
 3770TIP3   OH232800   5.892   1.521  12.733
 3770TIP3    H132801   5.936   1.564  12.660
 3770TIP3    H232802   5.953   1.452  12.761
 3771TIP3   OH232803   6.489   6.286  16.777
 3771TIP3    H132804   6.554   6.283  16.708
 3771TIP3    H232805   6.430   6.213  16.758
 3772TIP3   OH232806   4.894   4.893  13.842
 3772TIP3    H132807   4.866   4.802  13.846
 3772TIP3    H232808   4.833   4.935  13.781
 3773TIP3   OH232809   2.025   1.920   1.742
 3773TIP3    H132810   2.025   2.015   1.752
 3773TIP3    H232811   2.087   1.889   1.809
 3774TIP3   OH232812   2.060   6.284   4.079
 3774TIP3    H132813   1.965   6.284   4.077
 3774TIP3    H232814   2.085   6.376   4.064
 3775TIP3   OH232815   6.242   5.404  12.480
 3775TIP3    H132816   6.215   5.321  12.441
 3775TIP3    H232817   6.250   5.464  12.406
 3776TIP3   OH232818   4.146   4.038  12.210
 3776TIP3    H132819   4.194   4.083  12.279
 3776TIP3    H232820   4.064   4.086  12.201
 3777TIP3   OH232821   2.809   4.230   1.285
 3777TIP3    H132822   2.806   4.301   1.221
 3777TIP3    H232823   2.740   4.170   1.258
 3778TIP3   OH232824   3.043   0.950   0.050
 3778TIP3    H132825   3.025   0.983   0.138
 3778TIP3    H232826   2.969   0.894   0.030
 3779TIP3   OH232827   6.703   5.752  14.742
 3779TIP3    H132828   6.696   5.803  14.661
 3779TIP3    H232829   6.731   5.816  14.808
 3780TIP3   OH232830   6.772   3.109   4.719
 3780TIP3    H132831   6.804   3.190   4.758
 3780TIP3    H232832   6.680   3.104   4.744
 3781TIP3   OH232833   5.180   2.458   0.623
 3781TIP3    H132834   5.101   2.488   0.669
 3781TIP3    H232835   5.147   2.400   0.555
 3782TIP3   OH232836   1.601   3.858  15.653
 3782TIP3    H132837   1.646   3.912  15.719
 3782TIP3    H232838   1.655   3.867  15.574
 3783TIP3   OH232839   3.220   4.724   1.163
 3783TIP3    H132840   3.166   4.689   1.235
 3783TIP3    H232841   3.156   4.759   1.101
 3784TIP3   OH232842   6.642   4.164   3.531
 3784TIP3    H132843   6.687   4.085   3.501
 3784TIP3    H232844   6.691   4.236   3.491
 3785TIP3   OH232845   1.773   2.434  16.070
 3785TIP3    H132846   1.757   2.510  16.015
 3785TIP3    H232847   1.687   2.395  16.083
 3786TIP3   OH232848   4.623   5.634  13.201
 3786TIP3    H132849   4.643   5.674  13.286
 3786TIP3    H232850   4.638   5.703  13.137
 3787TIP3   OH232851   6.742   1.845   1.298
 3787TIP3    H132852   6.832   1.827   1.270
 3787TIP3    H232853   6.744   1.935   1.331
 3788TIP3   OH232854   5.220   6.660  15.348
 3788TIP3    H132855   5.304   6.704  15.362
 3788TIP3    H232856   5.157   6.731  15.340
 3789TIP3   OH232857   0.020   3.053   0.537
 3789TIP3    H132858  -0.072   3.030   0.550
 3789TIP3    H232859   0.036   3.125   0.599
 3790TIP3   OH232860   2.807   6.184   3.844
 3790TIP3    H132861   2.891   6.168   3.801
 3790TIP3    H232862   2.826   6.253   3.908
 3791TIP3   OH232863   4.301   2.532  11.137
 3791TIP3    H132864   4.259   2.498  11.057
 3791TIP3    H232865   4.319   2.624  11.117
 3792TIP3   OH232866   3.822   2.473  11.506
 3792TIP3    H132867   3.885   2.534  11.468
 3792TIP3    H232868   3.876   2.406  11.548
 3793TIP3   OH232869   1.500   4.402  15.395
 3793TIP3    H132870   1.534   4.477  15.445
 3793TIP3    H232871   1.408   4.424  15.379
 3794TIP3   OH232872   0.043   0.845   1.884
 3794TIP3    H132873  -0.019   0.905   1.842
 3794TIP3    H232874   0.098   0.814   1.812
 3795TIP3   OH232875   3.703   1.268  16.017
 3795TIP3    H132876   3.664   1.355  16.004
 3795TIP3    H232877   3.794   1.279  15.987
 3796TIP3   OH232878   4.463   5.418   3.523
 3796TIP3    H132879   4.388   5.368   3.554
 3796TIP3    H232880   4.531   5.402   3.588
 3797TIP3   OH232881   6.042   1.425   3.758
 3797TIP3    H132882   6.084   1.339   3.756
 3797TIP3    H232883   5.986   1.425   3.680
 3798TIP3   OH232884   2.200   1.856  13.090
 3798TIP3    H132885   2.112   1.865  13.053
 3798TIP3    H232886   2.259   1.871  13.015
 3799TIP3   OH232887   5.978   3.454   1.970
 3799TIP3    H132888   5.978   3.385   2.037
 3799TIP3    H232889   5.928   3.526   2.010
 3800TIP3   OH232890   4.003   4.705  17.163
 3800TIP3    H132891   4.020   4.704  17.069
 3800TIP3    H232892   3.909   4.685  17.170
 3801TIP3   OH232893   0.477   3.828  16.883
 3801TIP3    H132894   0.501   3.776  16.806
 3801TIP3    H232895   0.391   3.795  16.908
 3802TIP3   OH232896   1.979   0.817   5.754
 3802TIP3    H132897   2.071   0.792   5.745
 3802TIP3    H232898   1.945   0.760   5.823
 3803TIP3   OH232899   3.669   4.250  10.713
 3803TIP3    H132900   3.704   4.326  10.667
 3803TIP3    H232901   3.601   4.215  10.656
 3804TIP3   OH232902   0.306   0.691   6.235
 3804TIP3    H132903   0.341   0.674   6.322
 3804TIP3    H232904   0.227   0.637   6.229
 3805TIP3   OH232905   5.043   3.387   4.200
 3805TIP3    H132906   5.041   3.355   4.109
 3805TIP3    H232907   5.021   3.480   4.193
 3806TIP3   OH232908   2.819   2.771  13.605
 3806TIP3    H132909   2.787   2.726  13.683
 3806TIP3    H232910   2.867   2.846  13.638
 3807TIP3   OH232911   0.200   6.356   2.137
 3807TIP3    H132912   0.254   6.427   2.102
 3807TIP3    H232913   0.155   6.396   2.212
 3808TIP3   OH232914   6.354   2.223   0.914
 3808TIP3    H132915   6.278   2.252   0.965
 3808TIP3    H232916   6.357   2.284   0.840
 3809TIP3   OH232917   5.986   6.581   1.836
 3809TIP3    H132918   6.040   6.635   1.895
 3809TIP3    H232919   5.990   6.493   1.874
 3810TIP3   OH232920   2.027   4.015  17.013
 3810TIP3    H132921   1.943   3.969  17.018
 3810TIP3    H232922   2.050   4.033  17.103
 3811TIP3   OH232923   6.649   2.653   0.309
 3811TIP3    H132924   6.568   2.633   0.263
 3811TIP3    H232925   6.647   2.596   0.386
 3812TIP3   OH232926   1.191   2.217   4.739
 3812TIP3    H132927   1.114   2.234   4.793
 3812TIP3    H232928   1.155   2.183   4.657
 3813TIP3   OH232929   1.397   1.291   4.544
 3813TIP3    H132930   1.399   1.219   4.481
 3813TIP3    H232931   1.359   1.364   4.495
 3814TIP3   OH232932   0.428   5.699   5.592
 3814TIP3    H132933   0.433   5.721   5.499
 3814TIP3    H232934   0.517   5.674   5.615
 3815TIP3   OH232935   3.375   5.290  16.320
 3815TIP3    H132936   3.316   5.231  16.273
 3815TIP3    H232937   3.421   5.234  16.382
 3816TIP3   OH232938   1.639   4.234  11.498
 3816TIP3    H132939   1.603   4.317  11.465
 3816TIP3    H232940   1.591   4.167  11.450
 3817TIP3   OH232941   2.363   1.557   2.826
 3817TIP3    H132942   2.339   1.468   2.803
 3817TIP3    H232943   2.439   1.548   2.884
 3818TIP3   OH232944   4.757   5.416   5.277
 3818TIP3    H132945   4.711   5.338   5.248
 3818TIP3    H232946   4.833   5.421   5.220
 3819TIP3   OH232947   1.962   4.583   0.227
 3819TIP3    H132948   1.962   4.600   0.321
 3819TIP3    H232949   2.043   4.624   0.195
 3820TIP3   OH232950   4.745   2.700  11.878
 3820TIP3    H132951   4.816   2.697  11.943
 3820TIP3    H232952   4.723   2.608  11.862
 3821TIP3   OH232953   4.566   1.954   5.202
 3821TIP3    H132954   4.548   1.864   5.227
 3821TIP3    H232955   4.516   1.967   5.121
 3822TIP3   OH232956   0.668   4.172   2.341
 3822TIP3    H132957   0.704   4.261   2.342
 3822TIP3    H232958   0.583   4.181   2.298
 3823TIP3   OH232959   3.976   0.816   0.560
 3823TIP3    H132960   3.934   0.739   0.599
 3823TIP3    H232961   3.977   0.797   0.466
 3824TIP3   OH232962   1.930   2.281  13.537
 3824TIP3    H132963   1.972   2.294  13.452
 3824TIP3    H232964   1.905   2.369  13.566
 3825TIP3   OH232965   5.974   0.879   2.213
 3825TIP3    H132966   5.983   0.924   2.297
 3825TIP3    H232967   6.055   0.900   2.167
 3826TIP3   OH232968   4.992   5.652   2.498
 3826TIP3    H132969   5.037   5.721   2.547
 3826TIP3    H232970   4.966   5.693   2.416
 3827TIP3   OH232971   0.421   4.791   3.722
 3827TIP3    H132972   0.456   4.728   3.786
 3827TIP3    H232973   0.496   4.817   3.670
 3828TIP3   OH232974   1.407   4.764  15.377
 3828TIP3    H132975   1.429   4.777  15.470
 3828TIP3    H232976   1.314   4.784  15.371
 3829TIP3   OH232977   0.171   5.015   2.882
 3829TIP3    H132978   0.220   4.934   2.894
 3829TIP3    H232979   0.088   4.988   2.842
 3830TIP3   OH232980   4.251   3.409  11.390
 3830TIP3    H132981   4.155   3.412  11.393
 3830TIP3    H232982   4.279   3.440  11.476
 3831TIP3   OH232983   5.861   3.356  16.343
 3831TIP3    H132984   5.877   3.435  16.396
 3831TIP3    H232985   5.871   3.284  16.405
 3832TIP3   OH232986   6.659   5.863  16.912
 3832TIP3    H132987   6.702   5.948  16.907
 3832TIP3    H232988   6.596   5.873  16.984
 3833TIP3   OH232989   2.548   3.431   5.180
 3833TIP3    H132990   2.512   3.346   5.155
 3833TIP3    H232991   2.641   3.425   5.161
 3834TIP3   OH232992   0.558   5.206  16.598
 3834TIP3    H132993   0.539   5.277  16.537
 3834TIP3    H232994   0.589   5.250  16.677
 3835TIP3   OH232995   4.369   5.110   0.088
 3835TIP3    H132996   4.320   5.031   0.067
 3835TIP3    H232997   4.401   5.095   0.177
 3836TIP3   OH232998   3.541   1.959   5.403
 3836TIP3    H132999   3.457   2.005   5.412
 3836TIP3    H233000   3.597   1.996   5.470
 3837TIP3   OH233001   5.898   4.186  10.875
 3837TIP3    H133002   5.808   4.163  10.895
 3837TIP3    H233003   5.941   4.191  10.960
 3838TIP3   OH233004   2.901   2.250   5.836
 3838TIP3    H133005   2.859   2.322   5.883
 3838TIP3    H233006   2.965   2.215   5.899
 3839TIP3   OH233007   6.497   3.893  10.383
 3839TIP3    H133008   6.420   3.843  10.356
 3839TIP3    H233009   6.565   3.827  10.395
 3840TIP3   OH233010   6.057   0.191   4.529
 3840TIP3    H133011   6.119   0.185   4.602
 3840TIP3    H233012   6.068   0.280   4.496
 3841TIP3   OH233013   2.248   1.189   4.895
 3841TIP3    H133014   2.214   1.236   4.819
 3841TIP3    H233015   2.188   1.115   4.906
 3842TIP3   OH233016   6.619   6.557   5.634
 3842TIP3    H133017   6.585   6.608   5.707
 3842TIP3    H233018   6.649   6.622   5.570
 3843TIP3   OH233019   5.341   3.666   2.467
 3843TIP3    H133020   5.309   3.753   2.490
 3843TIP3    H233021   5.413   3.649   2.528
 3844TIP3   OH233022   5.008   0.055  14.108
 3844TIP3    H133023   4.970   0.132  14.150
 3844TIP3    H233024   4.964   0.050  14.023
 3845TIP3   OH233025   0.826   0.156   5.944
 3845TIP3    H133026   0.880   0.156   6.024
 3845TIP3    H233027   0.756   0.218   5.962
 3846TIP3   OH233028   1.219   5.923   0.881
 3846TIP3    H133029   1.250   5.916   0.791
 3846TIP3    H233030   1.126   5.899   0.876
 3847TIP3   OH233031   4.390   6.049   2.525
 3847TIP3    H133032   4.382   6.144   2.536
 3847TIP3    H233033   4.336   6.012   2.595
 3848TIP3   OH233034   5.356   5.748   3.015
 3848TIP3    H133035   5.286   5.695   3.053
 3848TIP3    H233036   5.411   5.772   3.089
 3849TIP3   OH233037   0.877   4.849  15.259
 3849TIP3    H133038   0.869   4.763  15.301
 3849TIP3    H233039   0.789   4.885  15.262
 3850TIP3   OH233040   0.236   5.488   0.166
 3850TIP3    H133041   0.305   5.506   0.230
 3850TIP3    H233042   0.281   5.443   0.094
 3851TIP3   OH233043   0.359   6.190   0.822
 3851TIP3    H133044   0.422   6.225   0.884
 3851TIP3    H233045   0.410   6.134   0.764
 3852TIP3   OH233046   5.857   1.351   1.507
 3852TIP3    H133047   5.790   1.351   1.440
 3852TIP3    H233048   5.823   1.408   1.576
 3853TIP3   OH233049   1.992   2.581   5.987
 3853TIP3    H133050   2.021   2.606   6.074
 3853TIP3    H233051   1.896   2.584   5.992
 3854TIP3   OH233052   0.039   0.899  12.069
 3854TIP3    H133053   0.019   0.837  12.139
 3854TIP3    H233054   0.072   0.844  11.998
 3855TIP3   OH233055   2.198   0.291   4.216
 3855TIP3    H133056   2.208   0.340   4.135
 3855TIP3    H233057   2.246   0.343   4.281
 3856TIP3   OH233058   6.712   3.941  14.410
 3856TIP3    H133059   6.643   3.914  14.469
 3856TIP3    H233060   6.677   3.924  14.322
 3857TIP3   OH233061   2.069   0.364   4.916
 3857TIP3    H133062   1.980   0.367   4.880
 3857TIP3    H233063   2.124   0.398   4.846
 3858TIP3   OH233064   2.710   1.134   4.325
 3858TIP3    H133065   2.671   1.198   4.385
 3858TIP3    H233066   2.803   1.132   4.350
 3859TIP3   OH233067   6.645   4.982   2.783
 3859TIP3    H133068   6.563   4.953   2.742
 3859TIP3    H233069   6.661   4.918   2.852
 3860TIP3   OH233070   0.157   2.741   4.414
 3860TIP3    H133071   0.153   2.814   4.476
 3860TIP3    H233072   0.081   2.754   4.357
 3861TIP3   OH233073   4.362   4.780   0.627
 3861TIP3    H133074   4.354   4.805   0.535
 3861TIP3    H233075   4.385   4.861   0.672
 3862TIP3   OH233076   3.712   0.793  11.749
 3862TIP3    H133077   3.659   0.743  11.688
 3862TIP3    H233078   3.784   0.734  11.772
 3863TIP3   OH233079   1.955   2.633  14.229
 3863TIP3    H133080   1.978   2.714  14.273
 3863TIP3    H233081   1.878   2.601  14.276
 3864TIP3   OH233082   1.441   1.505  13.851
 3864TIP3    H133083   1.435   1.474  13.941
 3864TIP3    H233084   1.534   1.503  13.831
 3865TIP3   OH233085   5.832   6.640   5.215
 3865TIP3    H133086   5.878   6.657   5.297
 3865TIP3    H233087   5.897   6.660   5.147
 3866TIP3   OH233088   4.801   6.352  14.101
 3866TIP3    H133089   4.891   6.318  14.099
 3866TIP3    H233090   4.751   6.284  14.146
 3867TIP3   OH233091   4.483   2.224   3.923
 3867TIP3    H133092   4.543   2.221   3.848
 3867TIP3    H233093   4.540   2.220   4.000
 3868TIP3   OH233094   3.114   4.179   5.036
 3868TIP3    H133095   3.026   4.140   5.042
 3868TIP3    H233096   3.146   4.180   5.126
 3869TIP3   OH233097   5.520   3.685  14.283
 3869TIP3    H133098   5.516   3.590  14.268
 3869TIP3    H233099   5.531   3.723  14.196
 3870TIP3   OH233100   6.498   2.802   4.737
 3870TIP3    H133101   6.501   2.724   4.793
 3870TIP3    H233102   6.579   2.798   4.685
 3871TIP3   OH233103   1.863   1.409   1.003
 3871TIP3    H133104   1.883   1.405   1.096
 3871TIP3    H233105   1.948   1.407   0.960
 3872TIP3   OH233106   2.934   2.954   2.896
 3872TIP3    H133107   2.922   2.944   2.991
 3872TIP3    H233108   2.972   2.870   2.869
 3873TIP3   OH233109   1.618   6.378   5.045
 3873TIP3    H133110   1.630   6.358   5.138
 3873TIP3    H233111   1.691   6.334   5.002
 3874TIP3   OH233112   0.656   5.519   5.615
 3874TIP3    H133113   0.715   5.443   5.618
 3874TIP3    H233114   0.596   5.500   5.542
 3875TIP3   OH233115   2.204   1.793   0.980
 3875TIP3    H133116   2.169   1.725   0.922
 3875TIP3    H233117   2.277   1.832   0.931
 3876TIP3   OH233118   2.444   1.063   5.164
 3876TIP3    H133119   2.501   1.016   5.102
 3876TIP3    H233120   2.358   1.024   5.151
 3877TIP3   OH233121   3.871   0.282  12.993
 3877TIP3    H133122   3.843   0.336  13.067
 3877TIP3    H233123   3.967   0.279  13.001
 3878TIP3   OH233124   5.712   1.977  14.142
 3878TIP3    H133125   5.667   2.060  14.158
 3878TIP3    H233126   5.752   1.988  14.056
 3879TIP3   OH233127   4.642   5.084   4.601
 3879TIP3    H133128   4.590   5.098   4.522
 3879TIP3    H233129   4.634   4.990   4.619
 3880TIP3   OH233130   0.264   3.081   4.397
 3880TIP3    H133131   0.280   3.174   4.411
 3880TIP3    H233132   0.322   3.057   4.324
 3881TIP3   OH233133   5.789   2.207  14.436
 3881TIP3    H133134   5.753   2.259  14.364
 3881TIP3    H233135   5.884   2.214  14.424
 3882TIP3   OH233136   0.576   5.388  12.630
 3882TIP3    H133137   0.512   5.394  12.701
 3882TIP3    H233138   0.660   5.377  12.673
 3883TIP3   OH233139   5.228   0.213  14.161
 3883TIP3    H133140   5.158   0.275  14.141
 3883TIP3    H233141   5.219   0.144  14.095
 3884TIP3   OH233142   5.960   4.663  12.175
 3884TIP3    H133143   6.031   4.635  12.232
 3884TIP3    H233144   5.998   4.731  12.120
 3885TIP3   OH233145   2.982   3.757  14.627
 3885TIP3    H133146   3.024   3.713  14.553
 3885TIP3    H233147   2.951   3.840  14.591
 3886TIP3   OH233148   4.379   1.581   3.617
 3886TIP3    H133149   4.289   1.596   3.647
 3886TIP3    H233150   4.402   1.496   3.653
 3887TIP3   OH233151   5.339   6.679   0.254
 3887TIP3    H133152   5.366   6.641   0.337
 3887TIP3    H233153   5.250   6.712   0.271
 3888TIP3   OH233154   2.253   3.561  16.764
 3888TIP3    H133155   2.256   3.550  16.859
 3888TIP3    H233156   2.226   3.652  16.752
 3889TIP3   OH233157   2.161   5.393  13.866
 3889TIP3    H133158   2.218   5.322  13.836
 3889TIP3    H233159   2.191   5.413  13.955
 3890TIP3   OH233160   1.225   0.509  11.163
 3890TIP3    H133161   1.245   0.587  11.112
 3890TIP3    H233162   1.192   0.542  11.247
 3891TIP3   OH233163   3.873   6.157  13.165
 3891TIP3    H133164   3.792   6.207  13.174
 3891TIP3    H233165   3.904   6.175  13.076
 3892TIP3   OH233166   5.003   4.093   5.358
 3892TIP3    H133167   4.981   4.171   5.410
 3892TIP3    H233168   4.965   4.111   5.272
 3893TIP3   OH233169   1.432   5.234  12.128
 3893TIP3    H133170   1.508   5.292  12.114
 3893TIP3    H233171   1.377   5.248  12.052
 3894TIP3   OH233172   6.420   2.170  16.895
 3894TIP3    H133173   6.363   2.148  16.969
 3894TIP3    H233174   6.430   2.088  16.846
 3895TIP3   OH233175   5.052   0.717   3.321
 3895TIP3    H133176   5.042   0.667   3.240
 3895TIP3    H233177   4.984   0.784   3.317
 3896TIP3   OH233178   5.098   2.987  11.368
 3896TIP3    H133179   5.091   3.020  11.279
 3896TIP3    H233180   5.041   2.911  11.370
 3897TIP3   OH233181   3.571   5.870   4.914
 3897TIP3    H133182   3.556   5.842   4.824
 3897TIP3    H233183   3.506   5.939   4.929
 3898TIP3   OH233184   0.577   4.217  13.812
 3898TIP3    H133185   0.541   4.258  13.890
 3898TIP3    H233186   0.529   4.134  13.804
 3899TIP3   OH233187   0.683   2.606   3.823
 3899TIP3    H133188   0.638   2.653   3.753
 3899TIP3    H233189   0.738   2.672   3.865
 3900TIP3   OH233190   1.066   2.677  12.444
 3900TIP3    H133191   1.072   2.597  12.392
 3900TIP3    H233192   1.100   2.746  12.388
 3901TIP3   OH233193   5.126   3.064  10.294
 3901TIP3    H133194   5.090   3.050  10.381
 3901TIP3    H233195   5.120   2.979  10.251
 3902TIP3   OH233196   0.888   5.780  12.747
 3902TIP3    H133197   0.824   5.846  12.722
 3902TIP3    H233198   0.928   5.753  12.664
 3903TIP3   OH233199   4.918   0.827  14.876
 3903TIP3    H133200   4.860   0.815  14.801
 3903TIP3    H233201   4.859   0.855  14.947
 3904TIP3   OH233202   1.580   0.001   4.774
 3904TIP3    H133203   1.567   0.052   4.854
 3904TIP3    H233204   1.499  -0.048   4.763
 3905TIP3   OH233205   4.741   4.958  14.991
 3905TIP3    H133206   4.779   5.016  15.057
 3905TIP3    H233207   4.776   4.871  15.013
 3906TIP3   OH233208   0.906   2.938  13.177
 3906TIP3    H133209   0.956   3.019  13.166
 3906TIP3    H233210   0.816   2.962  13.157
 3907TIP3   OH233211   3.154   1.296   1.887
 3907TIP3    H133212   3.111   1.211   1.892
 3907TIP3    H233213   3.089   1.358   1.921
 3908TIP3   OH233214   0.706   2.678   0.158
 3908TIP3    H133215   0.679   2.664   0.067
 3908TIP3    H233216   0.785   2.731   0.153
 3909TIP3   OH233217   4.917   2.524   2.657
 3909TIP3    H133218   4.922   2.605   2.606
 3909TIP3    H233219   5.007   2.493   2.661
 3910TIP3   OH233220   6.127   4.305  16.752
 3910TIP3    H133221   6.124   4.365  16.677
 3910TIP3    H233222   6.207   4.254  16.738
 3911TIP3   OH233223   6.244   4.459  11.394
 3911TIP3    H133224   6.231   4.426  11.305
 3911TIP3    H233225   6.337   4.449  11.410
 3912TIP3   OH233226   0.167   4.646   5.793
 3912TIP3    H133227   0.144   4.726   5.746
 3912TIP3    H233228   0.236   4.606   5.740
 3913TIP3   OH233229   1.859   4.811   4.954
 3913TIP3    H133230   1.887   4.755   4.881
 3913TIP3    H233231   1.764   4.799   4.959
 3914TIP3   OH233232   4.489   1.953  15.848
 3914TIP3    H133233   4.501   1.859  15.862
 3914TIP3    H233234   4.557   1.995  15.902
 3915TIP3   OH233235   4.832   5.997  14.067
 3915TIP3    H133236   4.785   5.983  13.984
 3915TIP3    H233237   4.923   5.977  14.047
 3916TIP3   OH233238   6.518   3.092   4.825
 3916TIP3    H133239   6.497   3.184   4.838
 3916TIP3    H233240   6.436   3.053   4.794
 3917TIP3   OH233241   1.653   1.316   3.479
 3917TIP3    H133242   1.673   1.408   3.464
 3917TIP3    H233243   1.560   1.313   3.500
 3918TIP3   OH233244   6.725   0.198  12.463
 3918TIP3    H133245   6.633   0.173  12.474
 3918TIP3    H233246   6.770   0.116  12.443
 3919TIP3   OH233247   2.198   4.754   4.860
 3919TIP3    H133248   2.164   4.842   4.843
 3919TIP3    H233249   2.120   4.699   4.865
 3920TIP3   OH233250   5.812   4.955  17.241
 3920TIP3    H133251   5.835   4.969  17.149
 3920TIP3    H233252   5.731   4.905  17.238
 3921TIP3   OH233253   3.658   4.631   1.894
 3921TIP3    H133254   3.626   4.575   1.823
 3921TIP3    H233255   3.753   4.635   1.881
 3922TIP3   OH233256   5.794   5.458   1.203
 3922TIP3    H133257   5.778   5.442   1.110
 3922TIP3    H233258   5.882   5.424   1.218
 3923TIP3   OH233259   0.166   0.329   4.424
 3923TIP3    H133260   0.174   0.367   4.511
 3923TIP3    H233261   0.072   0.310   4.415
 3924TIP3   OH233262   2.977   5.399  13.474
 3924TIP3    H133263   2.900   5.354  13.437
 3924TIP3    H233264   2.992   5.472  13.415
 3925TIP3   OH233265   4.823   5.344   3.854
 3925TIP3    H133266   4.849   5.396   3.930
 3925TIP3    H233267   4.882   5.269   3.854
 3926TIP3   OH233268   2.557   0.320  15.899
 3926TIP3    H133269   2.487   0.377  15.869
 3926TIP3    H233270   2.515   0.235  15.911
 3927TIP3   OH233271   2.726   2.300   2.479
 3927TIP3    H133272   2.712   2.237   2.550
 3927TIP3    H233273   2.689   2.382   2.512
 3928TIP3   OH233274   4.543   4.006   4.886
 3928TIP3    H133275   4.448   4.015   4.880
 3928TIP3    H233276   4.556   3.941   4.956
 3929TIP3   OH233277   4.689   4.923   5.950
 3929TIP3    H133278   4.593   4.931   5.954
 3929TIP3    H233279   4.717   5.001   5.902
 3930TIP3   OH233280   6.725   1.091  12.244
 3930TIP3    H133281   6.666   1.037  12.296
 3930TIP3    H233282   6.782   1.028  12.198
 3931TIP3   OH233283   1.473   1.598   2.217
 3931TIP3    H133284   1.492   1.509   2.186
 3931TIP3    H233285   1.413   1.586   2.290
 3932TIP3   OH233286   1.265   1.127   0.532
 3932TIP3    H133287   1.316   1.155   0.456
 3932TIP3    H233288   1.175   1.151   0.510
 3933TIP3   OH233289   3.156   5.440  16.381
 3933TIP3    H133290   3.105   5.478  16.309
 3933TIP3    H233291   3.245   5.434  16.347
 3934TIP3   OH233292   5.839   4.220   5.085
 3934TIP3    H133293   5.743   4.221   5.089
 3934TIP3    H233294   5.862   4.127   5.094
 3935TIP3   OH233295   0.017   3.616  16.196
 3935TIP3    H133296  -0.022   3.641  16.280
 3935TIP3    H233297   0.111   3.619  16.211
 3936TIP3   OH233298   2.130   5.478  11.171
 3936TIP3    H133299   2.207   5.535  11.174
 3936TIP3    H233300   2.166   5.390  11.180
 3937TIP3   OH233301   2.606   4.355  15.493
 3937TIP3    H133302   2.623   4.300  15.570
 3937TIP3    H233303   2.583   4.441  15.529
 3938TIP3   OH233304   3.696   6.213   3.966
 3938TIP3    H133305   3.711   6.307   3.953
 3938TIP3    H233306   3.769   6.171   3.920
 3939TIP3   OH233307   5.108   0.406   1.171
 3939TIP3    H133308   5.097   0.311   1.164
 3939TIP3    H233309   5.140   0.433   1.085
 3940TIP3   OH233310   5.854   5.958  11.792
 3940TIP3    H133311   5.932   6.012  11.784
 3940TIP3    H233312   5.860   5.896  11.719
 3941TIP3   OH233313   5.060   3.565  12.397
 3941TIP3    H133314   5.086   3.485  12.442
 3941TIP3    H233315   4.982   3.595  12.443
 3942TIP3   OH233316   4.197   0.058  11.757
 3942TIP3    H133317   4.125   0.092  11.809
 3942TIP3    H233318   4.269   0.120  11.772
 3943TIP3   OH233319   3.187   5.545   5.508
 3943TIP3    H133320   3.198   5.560   5.414
 3943TIP3    H233321   3.167   5.632   5.544
 3944TIP3   OH233322   6.725   4.409   5.853
 3944TIP3    H133323   6.650   4.380   5.801
 3944TIP3    H233324   6.783   4.451   5.789
 3945TIP3   OH233325   2.642   3.563  15.691
 3945TIP3    H133326   2.689   3.584  15.772
 3945TIP3    H233327   2.643   3.644  15.641
 3946TIP3   OH233328   6.205   4.502  17.001
 3946TIP3    H133329   6.170   4.431  17.055
 3946TIP3    H233330   6.145   4.507  16.927
 3947TIP3   OH233331   3.825   2.154   0.212
 3947TIP3    H133332   3.745   2.129   0.165
 3947TIP3    H233333   3.881   2.193   0.144
 3948TIP3   OH233334   6.472   5.788   4.973
 3948TIP3    H133335   6.463   5.859   5.037
 3948TIP3    H233336   6.564   5.792   4.947
 3949TIP3   OH233337   3.984   3.866   1.171
 3949TIP3    H133338   3.938   3.913   1.102
 3949TIP3    H233339   3.963   3.913   1.251
 3950TIP3   OH233340   0.373   4.588   1.359
 3950TIP3    H133341   0.419   4.508   1.383
 3950TIP3    H233342   0.300   4.558   1.305
 3951TIP3   OH233343   4.117   0.842  12.195
 3951TIP3    H133344   4.097   0.871  12.106
 3951TIP3    H233345   4.076   0.908  12.251
 3952TIP3   OH233346   4.546   2.894   1.198
 3952TIP3    H133347   4.540   2.808   1.156
 3952TIP3    H233348   4.567   2.954   1.127
 3953TIP3   OH233349   6.566   1.531   5.920
 3953TIP3    H133350   6.548   1.468   5.990
 3953TIP3    H233351   6.480   1.565   5.896
 3954TIP3   OH233352   5.046   1.672   2.023
 3954TIP3    H133353   4.979   1.614   2.061
 3954TIP3    H233354   5.105   1.690   2.096
 3955TIP3   OH233355   2.030   5.874  12.455
 3955TIP3    H133356   2.025   5.791  12.502
 3955TIP3    H233357   2.086   5.929  12.509
 3956TIP3   OH233358   0.848   2.433  16.281
 3956TIP3    H133359   0.772   2.377  16.297
 3956TIP3    H233360   0.823   2.519  16.315
 3957TIP3   OH233361   5.352   3.706   5.149
 3957TIP3    H133362   5.378   3.774   5.212
 3957TIP3    H233363   5.300   3.752   5.084
 3958TIP3   OH233364   2.059   2.910  14.005
 3958TIP3    H133365   2.151   2.934  14.016
 3958TIP3    H233366   2.022   2.916  14.093
 3959TIP3   OH233367   2.365   6.189  10.984
 3959TIP3    H133368   2.414   6.237  10.917
 3959TIP3    H233369   2.417   6.198  11.063
 3960TIP3   OH233370   0.547   1.883   0.272
 3960TIP3    H133371   0.577   1.816   0.333
 3960TIP3    H233372   0.482   1.839   0.217
 3961TIP3   OH233373   6.542   5.317  16.298
 3961TIP3    H133374   6.593   5.397  16.284
 3961TIP3    H233375   6.453   5.341  16.275
 3962TIP3   OH233376   3.930   1.413   0.099
 3962TIP3    H133377   3.989   1.395   0.026
 3962TIP3    H233378   3.982   1.469   0.158
 3963TIP3   OH233379   2.755   0.108  11.910
 3963TIP3    H133380   2.831   0.062  11.945
 3963TIP3    H233381   2.692   0.110  11.982
 3964TIP3   OH233382   4.796   3.409   2.043
 3964TIP3    H133383   4.862   3.456   2.094
 3964TIP3    H233384   4.721   3.468   2.041
 3965TIP3   OH233385   1.281   2.034   3.403
 3965TIP3    H133386   1.200   2.084   3.412
 3965TIP3    H233387   1.329   2.078   3.333
 3966TIP3   OH233388   4.144   1.236   1.604
 3966TIP3    H133389   4.235   1.266   1.599
 3966TIP3    H233390   4.151   1.141   1.611
 3967TIP3   OH233391   3.620   6.308  13.108
 3967TIP3    H133392   3.564   6.303  13.186
 3967TIP3    H233393   3.581   6.246  13.046
 3968TIP3   OH233394   1.952   1.105  13.177
 3968TIP3    H133395   1.943   1.011  13.193
 3968TIP3    H233396   1.911   1.146  13.253
 3969TIP3   OH233397   4.126   6.427   4.729
 3969TIP3    H133398   4.212   6.469   4.738
 3969TIP3    H233399   4.077   6.485   4.671
 3970TIP3   OH233400   6.651   2.228  12.903
 3970TIP3    H133401   6.621   2.159  12.843
 3970TIP3    H233402   6.724   2.188  12.950
 3971TIP3   OH233403   2.396   3.947  15.906
 3971TIP3    H133404   2.413   4.026  15.958
 3971TIP3    H233405   2.478   3.931  15.859
 3972TIP3   OH233406   2.245   4.882   2.807
 3972TIP3    H133407   2.222   4.972   2.785
 3972TIP3    H233408   2.165   4.832   2.792
 3973TIP3   OH233409   0.670   2.628   0.962
 3973TIP3    H133410   0.696   2.705   0.912
 3973TIP3    H233411   0.587   2.601   0.923
 3974TIP3   OH233412   2.693   5.892  13.428
 3974TIP3    H133413   2.597   5.899  13.430
 3974TIP3    H233414   2.722   5.977  13.395
 3975TIP3   OH233415   2.566   6.008  16.915
 3975TIP3    H133416   2.484   6.010  16.865
 3975TIP3    H233417   2.569   6.093  16.959
 3976TIP3   OH233418   6.725   2.704   4.223
 3976TIP3    H133419   6.692   2.616   4.242
 3976TIP3    H233420   6.674   2.762   4.278
 3977TIP3   OH233421   3.935   1.717   4.851
 3977TIP3    H133422   3.977   1.732   4.935
 3977TIP3    H233423   4.007   1.713   4.788
 3978TIP3   OH233424   4.904   6.168   2.450
 3978TIP3    H133425   4.833   6.105   2.441
 3978TIP3    H233426   4.943   6.174   2.362
 3979TIP3   OH233427   6.125   1.466  11.383
 3979TIP3    H133428   6.033   1.457  11.360
 3979TIP3    H233429   6.125   1.521  11.461
 3980TIP3   OH233430   1.006   6.145  17.181
 3980TIP3    H133431   0.962   6.069  17.218
 3980TIP3    H233432   0.935   6.200  17.146
 3981TIP3   OH233433   0.126   3.424  10.996
 3981TIP3    H133434   0.217   3.452  10.993
 3981TIP3    H233435   0.113   3.395  11.086
 3982TIP3   OH233436   5.312   3.886   3.215
 3982TIP3    H133437   5.313   3.874   3.310
 3982TIP3    H233438   5.404   3.901   3.192
 3983TIP3   OH233439   0.311   1.788  11.337
 3983TIP3    H133440   0.322   1.882  11.346
 3983TIP3    H233441   0.385   1.760  11.284
 3984TIP3   OH233442   0.326   0.755  15.105
 3984TIP3    H133443   0.333   0.661  15.124
 3984TIP3    H233444   0.295   0.758  15.015
 3985TIP3   OH233445   6.321   5.524  14.514
 3985TIP3    H133446   6.266   5.568  14.579
 3985TIP3    H233447   6.409   5.526  14.551
 3986TIP3   OH233448   2.027   4.367   0.063
 3986TIP3    H133449   2.010   4.412  -0.020
 3986TIP3    H233450   2.001   4.430   0.130
 3987TIP3   OH233451   1.967   2.504  11.702
 3987TIP3    H133452   1.872   2.516  11.697
 3987TIP3    H233453   1.981   2.413  11.679
 3988TIP3   OH233454   1.884   3.823  16.470
 3988TIP3    H133455   1.942   3.866  16.407
 3988TIP3    H233456   1.886   3.880  16.547
 3989TIP3   OH233457   2.188   3.218  15.769
 3989TIP3    H133458   2.218   3.145  15.714
 3989TIP3    H233459   2.266   3.274  15.778
 3990TIP3   OH233460   0.396   1.857   1.853
 3990TIP3    H133461   0.416   1.914   1.779
 3990TIP3    H233462   0.383   1.771   1.814
 3991TIP3   OH233463   3.723   1.243   0.120
 3991TIP3    H133464   3.800   1.294   0.145
 3991TIP3    H233465   3.749   1.198   0.040
 3992TIP3   OH233466   6.738   3.339   5.545
 3992TIP3    H133467   6.658   3.305   5.584
 3992TIP3    H233468   6.710   3.381   5.464
 3993TIP3   OH233469   3.231   5.204   4.778
 3993TIP3    H133470   3.323   5.207   4.805
 3993TIP3    H233471   3.186   5.261   4.841
 3994TIP3   OH233472   2.386   1.658   4.880
 3994TIP3    H133473   2.376   1.575   4.927
 3994TIP3    H233474   2.456   1.704   4.926
 3995TIP3   OH233475   1.084   4.375   3.944
 3995TIP3    H133476   1.106   4.296   3.994
 3995TIP3    H233477   1.144   4.442   3.978
 3996TIP3   OH233478   2.583   0.645   4.433
 3996TIP3    H133479   2.520   0.664   4.363
 3996TIP3    H233480   2.635   0.572   4.399
 3997TIP3   OH233481   0.894   2.098   4.809
 3997TIP3    H133482   0.853   2.146   4.737
 3997TIP3    H233483   0.889   2.006   4.782
 3998TIP3   OH233484   4.993   0.401   3.085
 3998TIP3    H133485   5.045   0.418   3.163
 3998TIP3    H233486   4.975   0.488   3.049
 3999TIP3   OH233487   5.879   0.523  15.273
 3999TIP3    H133488   5.891   0.547  15.364
 3999TIP3    H233489   5.786   0.539  15.256
 4000TIP3   OH233490   0.847   0.862  12.697
 4000TIP3    H133491   0.832   0.792  12.633
 4000TIP3    H233492   0.939   0.886  12.685
 4001TIP3   OH233493   2.728   6.688  16.073
 4001TIP3    H133494   2.737   6.780  16.051
 4001TIP3    H233495   2.683   6.649  15.998
 4002TIP3   OH233496   5.228   1.485  12.724
 4002TIP3    H133497   5.144   1.517  12.689
 4002TIP3    H233498   5.292   1.507  12.656
 4003TIP3   OH233499   4.950   4.442   0.310
 4003TIP3    H133500   4.878   4.493   0.346
 4003TIP3    H233501   4.910   4.360   0.282
 4004TIP3   OH233502   1.666   4.468   3.168
 4004TIP3    H133503   1.707   4.544   3.126
 4004TIP3    H233504   1.577   4.498   3.189
 4005TIP3   OH233505   3.331   3.854  12.321
 4005TIP3    H133506   3.276   3.801  12.263
 4005TIP3    H233507   3.419   3.844  12.285
 4006TIP3   OH233508   5.494   3.562   4.254
 4006TIP3    H133509   5.427   3.498   4.279
 4006TIP3    H233510   5.461   3.602   4.174
 4007TIP3   OH233511   2.121   4.867  11.550
 4007TIP3    H133512   2.176   4.872  11.628
 4007TIP3    H233513   2.128   4.776  11.520
 4008TIP3   OH233514   3.638   2.589  13.887
 4008TIP3    H133515   3.726   2.627  13.885
 4008TIP3    H233516   3.586   2.652  13.936
 4009TIP3   OH233517   3.312   5.134   2.668
 4009TIP3    H133518   3.266   5.201   2.619
 4009TIP3    H233519   3.268   5.130   2.752
 4010TIP3   OH233520   3.184   4.053   3.245
 4010TIP3    H133521   3.130   3.974   3.235
 4010TIP3    H233522   3.218   4.047   3.334
 4011TIP3   OH233523   6.332   0.934  17.220
 4011TIP3    H133524   6.274   0.877  17.271
 4011TIP3    H233525   6.278   1.011  17.201
 4012TIP3   OH233526   3.887   4.529   4.783
 4012TIP3    H133527   3.881   4.473   4.706
 4012TIP3    H233528   3.821   4.597   4.769
 4013TIP3   OH233529   5.093   2.843  14.952
 4013TIP3    H133530   5.017   2.891  14.984
 4013TIP3    H233531   5.057   2.779  14.890
 4014TIP3   OH233532   3.246   2.270  14.037
 4014TIP3    H133533   3.318   2.232  13.986
 4014TIP3    H233534   3.223   2.200  14.099
 4015TIP3   OH233535   1.533   4.052   0.444
 4015TIP3    H133536   1.468   3.999   0.490
 4015TIP3    H233537   1.547   4.005   0.362
 4016TIP3   OH233538   0.256   3.821   5.237
 4016TIP3    H133539   0.324   3.810   5.304
 4016TIP3    H233540   0.181   3.771   5.270
 4017TIP3   OH233541   1.880   2.799   1.169
 4017TIP3    H133542   1.951   2.804   1.106
 4017TIP3    H233543   1.837   2.884   1.166
 4018TIP3   OH233544   0.999   5.789   3.754
 4018TIP3    H133545   0.971   5.877   3.729
 4018TIP3    H233546   0.934   5.730   3.715
 4019TIP3   OH233547   0.843   0.277  11.756
 4019TIP3    H133548   0.921   0.301  11.706
 4019TIP3    H233549   0.852   0.183  11.771
 4020TIP3   OH233550   3.919   1.542   2.004
 4020TIP3    H133551   3.919   1.633   2.031
 4020TIP3    H233552   3.851   1.536   1.937
 4021TIP3   OH233553   4.030   4.713   4.049
 4021TIP3    H133554   4.000   4.801   4.024
 4021TIP3    H233555   4.121   4.710   4.020
 4022TIP3   OH233556   3.462   0.318  16.080
 4022TIP3    H133557   3.387   0.292  16.026
 4022TIP3    H233558   3.430   0.390  16.133
 4023TIP3   OH233559   3.353   2.134  11.479
 4023TIP3    H133560   3.302   2.057  11.503
 4023TIP3    H233561   3.311   2.206  11.526
 4024TIP3   OH233562   2.197   3.309  13.880
 4024TIP3    H133563   2.241   3.385  13.842
 4024TIP3    H233564   2.226   3.309  13.972
 4025TIP3   OH233565   4.934   0.869  16.388
 4025TIP3    H133566   5.020   0.865  16.347
 4025TIP3    H233567   4.878   0.911  16.323
 4026TIP3   OH233568   6.716   3.871  13.874
 4026TIP3    H133569   6.628   3.839  13.857
 4026TIP3    H233570   6.720   3.956  13.830
 4027TIP3   OH233571   3.414   6.005  13.666
 4027TIP3    H133572   3.322   5.979  13.668
 4027TIP3    H233573   3.437   6.022  13.757
 4028TIP3   OH233574   4.439   4.798   1.001
 4028TIP3    H133575   4.426   4.703   0.992
 4028TIP3    H233576   4.351   4.833   1.014
 4029TIP3   OH233577   5.015   5.783   3.153
 4029TIP3    H133578   5.063   5.800   3.234
 4029TIP3    H233579   4.922   5.788   3.179
 4030TIP3   OH233580   4.238   3.379  15.321
 4030TIP3    H133581   4.173   3.314  15.295
 4030TIP3    H233582   4.194   3.432  15.387
 4031TIP3   OH233583   5.961   3.123   1.290
 4031TIP3    H133584   6.002   3.156   1.370
 4031TIP3    H233585   5.954   3.200   1.233
 4032TIP3   OH233586   1.979   2.590   6.526
 4032TIP3    H133587   2.020   2.560   6.445
 4032TIP3    H233588   1.890   2.554   6.522
 4033TIP3   OH233589   2.868   1.221   0.815
 4033TIP3    H133590   2.926   1.213   0.739
 4033TIP3    H233591   2.861   1.132   0.849
 4034TIP3   OH233592   0.447   3.172   6.494
 4034TIP3    H133593   0.464   3.077   6.491
 4034TIP3    H233594   0.502   3.203   6.566
 4035TIP3   OH233595   4.669   1.531  16.437
 4035TIP3    H133596   4.633   1.463  16.494
 4035TIP3    H233597   4.764   1.517  16.441
 4036TIP3   OH233598   3.811   0.014   6.304
 4036TIP3    H133599   3.846  -0.052   6.364
 4036TIP3    H233600   3.843   0.097   6.339
 4037TIP3   OH233601   2.758   1.638   3.729
 4037TIP3    H133602   2.714   1.651   3.813
 4037TIP3    H233603   2.815   1.714   3.719
 4038TIP3   OH233604   0.164   4.524   3.492
 4038TIP3    H133605   0.235   4.581   3.464
 4038TIP3    H233606   0.170   4.523   3.587
 4039TIP3   OH233607   1.398   1.347  12.601
 4039TIP3    H133608   1.452   1.392  12.666
 4039TIP3    H233609   1.457   1.330  12.528
 4040TIP3   OH233610   0.366   5.981   1.103
 4040TIP3    H133611   0.374   5.886   1.091
 4040TIP3    H233612   0.388   6.018   1.017
 4041TIP3   OH233613   2.958   6.788   3.340
 4041TIP3    H133614   2.965   6.843   3.262
 4041TIP3    H233615   2.906   6.840   3.401
 4042TIP3   OH233616   3.088   6.329   1.218
 4042TIP3    H133617   3.087   6.403   1.279
 4042TIP3    H233618   3.179   6.298   1.218
 4043TIP3   OH233619   1.436   3.307  12.867
 4043TIP3    H133620   1.476   3.352  12.793
 4043TIP3    H233621   1.448   3.214  12.847
 4044TIP3   OH233622   5.004   4.615  13.676
 4044TIP3    H133623   4.909   4.613  13.662
 4044TIP3    H233624   5.019   4.549  13.743
 4045TIP3   OH233625   2.606   4.136  15.637
 4045TIP3    H133626   2.625   4.077  15.710
 4045TIP3    H233627   2.683   4.129  15.580
 4046TIP3   OH233628   2.431   2.800   0.458
 4046TIP3    H133629   2.439   2.823   0.365
 4046TIP3    H233630   2.463   2.878   0.505
 4047TIP3   OH233631   1.457   5.063  17.153
 4047TIP3    H133632   1.526   5.050  17.218
 4047TIP3    H233633   1.464   4.987  17.095
 4048TIP3   OH233634   0.201   2.360  12.063
 4048TIP3    H133635   0.140   2.307  12.115
 4048TIP3    H233636   0.224   2.434  12.120
 4049TIP3   OH233637   5.521   3.364   3.759
 4049TIP3    H133638   5.529   3.409   3.843
 4049TIP3    H233639   5.473   3.284   3.780
 4050TIP3   OH233640   2.131   5.776   1.165
 4050TIP3    H133641   2.106   5.778   1.257
 4050TIP3    H233642   2.115   5.865   1.133
 4051TIP3   OH233643   4.390   0.088  10.449
 4051TIP3    H133644   4.440   0.146  10.505
 4051TIP3    H233645   4.443   0.008  10.443
 4052TIP3   OH233646   6.382   6.760   1.968
 4052TIP3    H133647   6.450   6.697   1.947
 4052TIP3    H233648   6.323   6.759   1.892
 4053TIP3   OH233649   1.004   6.369   6.298
 4053TIP3    H133650   1.079   6.373   6.238
 4053TIP3    H233651   0.935   6.326   6.247
 4054TIP3   OH233652   5.810   2.008   0.270
 4054TIP3    H133653   5.780   1.947   0.202
 4054TIP3    H233654   5.732   2.027   0.321
 4055TIP3   OH233655   0.857   4.215   1.652
 4055TIP3    H133656   0.922   4.220   1.582
 4055TIP3    H233657   0.873   4.131   1.694
 4056TIP3   OH233658   6.354   3.395  16.061
 4056TIP3    H133659   6.281   3.396  16.123
 4056TIP3    H233660   6.378   3.487  16.052
 4057TIP3   OH233661   1.738   6.338  15.953
 4057TIP3    H133662   1.811   6.361  16.010
 4057TIP3    H233663   1.684   6.279  16.006
 4058TIP3   OH233664   0.783   2.854   2.769
 4058TIP3    H133665   0.787   2.809   2.684
 4058TIP3    H233666   0.711   2.916   2.760
 4059TIP3   OH233667   3.842   5.114   5.555
 4059TIP3    H133668   3.801   5.185   5.604
 4059TIP3    H233669   3.932   5.142   5.541
 4060TIP3   OH233670   5.551   0.318  17.196
 4060TIP3    H133671   5.584   0.289  17.282
 4060TIP3    H233672   5.502   0.398  17.216
 4061TIP3   OH233673   1.197   6.302   4.269
 4061TIP3    H133674   1.204   6.362   4.195
 4061TIP3    H233675   1.287   6.286   4.295
 4062TIP3   OH233676   3.021   5.195  13.052
 4062TIP3    H133677   2.995   5.277  13.093
 4062TIP3    H233678   3.013   5.211  12.958
 4063TIP3   OH233679   2.788   1.537   2.222
 4063TIP3    H133680   2.744   1.610   2.265
 4063TIP3    H233681   2.799   1.471   2.290
 4064TIP3   OH233682   1.351   4.132  14.998
 4064TIP3    H133683   1.268   4.106  15.037
 4064TIP3    H233684   1.414   4.069  15.032
 4065TIP3   OH233685   3.310   0.863  12.514
 4065TIP3    H133686   3.324   0.770  12.533
 4065TIP3    H233687   3.378   0.908  12.564
 4066TIP3   OH233688   0.960   3.473   1.219
 4066TIP3    H133689   1.043   3.513   1.193
 4066TIP3    H233690   0.984   3.407   1.285
 4067TIP3   OH233691   2.988   4.592   5.167
 4067TIP3    H133692   2.967   4.509   5.210
 4067TIP3    H233693   3.050   4.568   5.098
 4068TIP3   OH233694   5.202   3.666  13.834
 4068TIP3    H133695   5.129   3.696  13.779
 4068TIP3    H233696   5.280   3.681  13.781
 4069TIP3   OH233697   3.959   4.566  13.785
 4069TIP3    H133698   3.914   4.545  13.866
 4069TIP3    H233699   3.913   4.643  13.751
 4070TIP3   OH233700   2.168   4.711  15.236
 4070TIP3    H133701   2.103   4.667  15.180
 4070TIP3    H233702   2.159   4.669  15.321
 4071TIP3   OH233703   3.232   0.620   0.331
 4071TIP3    H133704   3.306   0.653   0.280
 4071TIP3    H233705   3.246   0.654   0.419
 4072TIP3   OH233706   6.463   4.330   5.745
 4072TIP3    H133707   6.419   4.411   5.720
 4072TIP3    H233708   6.422   4.262   5.692
 4073TIP3   OH233709   1.794   2.403   0.210
 4073TIP3    H133710   1.856   2.439   0.274
 4073TIP3    H233711   1.710   2.402   0.256
 4074TIP3   OH233712   0.742   5.743  14.961
 4074TIP3    H133713   0.836   5.761  14.949
 4074TIP3    H233714   0.704   5.827  14.986
 4075TIP3   OH233715   2.052   6.393   0.481
 4075TIP3    H133716   2.066   6.456   0.552
 4075TIP3    H233717   1.998   6.324   0.520
 4076TIP3   OH233718   3.788   3.544   1.308
 4076TIP3    H133719   3.755   3.596   1.381
 4076TIP3    H233720   3.773   3.453   1.334
 4077TIP3   OH233721   2.833   1.808   4.425
 4077TIP3    H133722   2.752   1.835   4.469
 4077TIP3    H233723   2.848   1.874   4.358
 4078TIP3   OH233724   4.186   4.106  11.280
 4078TIP3    H133725   4.107   4.116  11.334
 4078TIP3    H233726   4.214   4.196  11.261
 4079TIP3   OH233727   6.254   1.843   6.527
 4079TIP3    H133728   6.255   1.749   6.508
 4079TIP3    H233729   6.328   1.878   6.478
 4080TIP3   OH233730   4.273   5.491   1.829
 4080TIP3    H133731   4.339   5.456   1.887
 4080TIP3    H233732   4.254   5.579   1.864
 4081TIP3   OH233733   2.108   0.166  16.883
 4081TIP3    H133734   2.159   0.246  16.895
 4081TIP3    H233735   2.173   0.098  16.864
 4082TIP3   OH233736   6.155   5.281  13.469
 4082TIP3    H133737   6.173   5.190  13.491
 4082TIP3    H233738   6.208   5.331  13.531
 4083TIP3   OH233739   3.653   2.604  12.840
 4083TIP3    H133740   3.634   2.677  12.898
 4083TIP3    H233741   3.585   2.539  12.859
 4084TIP3   OH233742   6.158   2.573   5.367
 4084TIP3    H133743   6.235   2.553   5.421
 4084TIP3    H233744   6.194   2.599   5.282
 4085TIP3   OH233745   0.428   2.555  14.900
 4085TIP3    H133746   0.367   2.550  14.974
 4085TIP3    H233747   0.407   2.478  14.847
 4086TIP3   OH233748   5.416   3.546  10.511
 4086TIP3    H133749   5.379   3.612  10.570
 4086TIP3    H233750   5.499   3.583  10.483
 4087TIP3   OH233751   0.737   3.083   5.441
 4087TIP3    H133752   0.656   3.107   5.486
 4087TIP3    H233753   0.792   3.044   5.508
 4088TIP3   OH233754   5.994   4.823   4.959
 4088TIP3    H133755   6.014   4.755   5.023
 4088TIP3    H233756   6.051   4.804   4.885
 4089TIP3   OH233757   6.002   3.456   6.232
 4089TIP3    H133758   6.049   3.373   6.230
 4089TIP3    H233759   5.930   3.441   6.293
 4090TIP3   OH233760   2.116   0.689   4.483
 4090TIP3    H133761   2.078   0.606   4.456
 4090TIP3    H233762   2.053   0.755   4.452
 4091TIP3   OH233763   3.888   2.970   0.843
 4091TIP3    H133764   3.980   2.994   0.850
 4091TIP3    H233765   3.882   2.918   0.763
 4092TIP3   OH233766   4.870   5.156  11.578
 4092TIP3    H133767   4.776   5.138  11.581
 4092TIP3    H233768   4.911   5.070  11.580
 4093TIP3   OH233769   3.980   4.635   5.022
 4093TIP3    H133770   3.962   4.725   4.995
 4093TIP3    H233771   3.967   4.583   4.942
 4094TIP3   OH233772   1.195   2.335   2.214
 4094TIP3    H133773   1.219   2.324   2.121
 4094TIP3    H233774   1.236   2.261   2.258
 4095TIP3   OH233775   6.514   6.501   0.768
 4095TIP3    H133776   6.509   6.528   0.860
 4095TIP3    H233777   6.572   6.425   0.768
 4096TIP3   OH233778   6.225   5.241  15.518
 4096TIP3    H133779   6.257   5.168  15.572
 4096TIP3    H233780   6.130   5.234  15.523
 4097TIP3   OH233781   4.591   4.907   2.431
 4097TIP3    H133782   4.686   4.909   2.430
 4097TIP3    H233783   4.568   4.826   2.477
 4098TIP3   OH233784   1.008   0.901   4.568
 4098TIP3    H133785   1.006   0.838   4.640
 4098TIP3    H233786   1.074   0.867   4.508
 4099TIP3   OH233787   0.832   2.073   1.106
 4099TIP3    H133788   0.902   2.107   1.161
 4099TIP3    H233789   0.764   2.140   1.108
 4100TIP3   OH233790   5.777   1.732  12.880
 4100TIP3    H133791   5.819   1.807  12.837
 4100TIP3    H233792   5.811   1.656  12.834
 4101TIP3   OH233793   4.376   2.695   5.701
 4101TIP3    H133794   4.324   2.623   5.739
 4101TIP3    H233795   4.427   2.653   5.632
 4102TIP3   OH233796   2.504   1.969  13.020
 4102TIP3    H133797   2.572   2.034  13.041
 4102TIP3    H233798   2.551   1.886  13.016
 4103TIP3   OH233799   2.803   0.214  10.539
 4103TIP3    H133800   2.881   0.182  10.494
 4103TIP3    H233801   2.760   0.135  10.571
 4104TIP3   OH233802   6.274   2.742  11.731
 4104TIP3    H133803   6.338   2.799  11.775
 4104TIP3    H233804   6.278   2.768  11.639
 4105TIP3   OH233805   0.570   1.334  13.848
 4105TIP3    H133806   0.489   1.319  13.896
 4105TIP3    H233807   0.548   1.401  13.783
 4106TIP3   OH233808   5.010   2.012   0.910
 4106TIP3    H133809   5.045   2.080   0.852
 4106TIP3    H233810   4.917   2.006   0.886
 4107TIP3   OH233811   3.684   5.640   5.421
 4107TIP3    H133812   3.606   5.645   5.476
 4107TIP3    H233813   3.748   5.695   5.466
 4108TIP3   OH233814   4.014   5.416   1.987
 4108TIP3    H133815   4.078   5.424   1.916
 4108TIP3    H233816   3.944   5.362   1.951
 4109TIP3   OH233817   1.142   4.336   3.199
 4109TIP3    H133818   1.118   4.383   3.119
 4109TIP3    H233819   1.227   4.297   3.178
 4110TIP3   OH233820   1.358   3.641   5.908
 4110TIP3    H133821   1.340   3.731   5.935
 4110TIP3    H233822   1.378   3.647   5.815
 4111TIP3   OH233823   0.589   3.469   3.823
 4111TIP3    H133824   0.680   3.443   3.813
 4111TIP3    H233825   0.593   3.564   3.833
 4112TIP3   OH233826   6.526   2.205  10.269
 4112TIP3    H133827   6.488   2.131  10.317
 4112TIP3    H233828   6.619   2.202  10.290
 4113TIP3   OH233829   3.623   5.416   5.999
 4113TIP3    H133830   3.611   5.351   6.069
 4113TIP3    H233831   3.705   5.390   5.957
 4114TIP3   OH233832   4.929   0.011   4.332
 4114TIP3    H133833   4.872   0.051   4.267
 4114TIP3    H233834   4.950   0.082   4.393
 4115TIP3   OH233835   0.673   3.405  15.382
 4115TIP3    H133836   0.727   3.371  15.310
 4115TIP3    H233837   0.586   3.371  15.365
 4116TIP3   OH233838   1.259   1.848  12.081
 4116TIP3    H133839   1.238   1.852  12.174
 4116TIP3    H233840   1.177   1.822  12.039
 4117TIP3   OH233841   5.206   1.662   5.231
 4117TIP3    H133842   5.217   1.639   5.323
 4117TIP3    H233843   5.294   1.687   5.202
 4118TIP3   OH233844   2.656   0.765   0.130
 4118TIP3    H133845   2.565   0.766   0.102
 4118TIP3    H233846   2.653   0.781   0.224
 4119TIP3   OH233847   1.514   5.384  11.366
 4119TIP3    H133848   1.523   5.445  11.439
 4119TIP3    H233849   1.574   5.313  11.387
 4120TIP3   OH233850   0.579   2.740  12.909
 4120TIP3    H133851   0.597   2.800  12.981
 4120TIP3    H233852   0.584   2.653  12.949
 4121TIP3   OH233853   5.318   0.689   4.921
 4121TIP3    H133854   5.360   0.605   4.900
 4121TIP3    H233855   5.342   0.747   4.849
 4122TIP3   OH233856   4.874   6.567   2.958
 4122TIP3    H133857   4.810   6.541   3.024
 4122TIP3    H233858   4.859   6.506   2.885
 4123TIP3   OH233859   1.616   0.781   1.407
 4123TIP3    H133860   1.616   0.751   1.498
 4123TIP3    H233861   1.703   0.757   1.374
 4124TIP3   OH233862   0.974   5.736   4.237
 4124TIP3    H133863   0.994   5.757   4.145
 4124TIP3    H233864   1.015   5.806   4.287
 4125TIP3   OH233865   4.802   5.823   4.289
 4125TIP3    H133866   4.793   5.799   4.197
 4125TIP3    H233867   4.713   5.833   4.320
 4126TIP3   OH233868   3.295   0.933  12.085
 4126TIP3    H133869   3.372   0.967  12.130
 4126TIP3    H233870   3.330   0.896  12.003
 4127TIP3   OH233871   6.471   3.352   2.641
 4127TIP3    H133872   6.483   3.415   2.712
 4127TIP3    H233873   6.376   3.336   2.638
 4128TIP3   OH233874   6.660   4.879  11.831
 4128TIP3    H133875   6.646   4.969  11.859
 4128TIP3    H233876   6.740   4.882  11.778
 4129TIP3   OH233877   4.565   0.724   6.341
 4129TIP3    H133878   4.537   0.811   6.371
 4129TIP3    H233879   4.657   0.718   6.367
 4130TIP3   OH233880   4.747   4.972   4.193
 4130TIP3    H133881   4.695   4.993   4.270
 4130TIP3    H233882   4.696   5.007   4.120
 4131TIP3   OH233883   0.719   5.080  14.248
 4131TIP3    H133884   0.723   5.149  14.315
 4131TIP3    H233885   0.665   5.012  14.287
 4132TIP3   OH233886   1.026   3.103  12.635
 4132TIP3    H133887   1.028   3.162  12.710
 4132TIP3    H233888   0.980   3.151  12.567
 4133TIP3   OH233889   6.376   6.671  13.420
 4133TIP3    H133890   6.402   6.582  13.397
 4133TIP3    H233891   6.421   6.688  13.503
 4134TIP3   OH233892   5.619   3.539  15.321
 4134TIP3    H133893   5.594   3.452  15.352
 4134TIP3    H233894   5.542   3.571  15.274
 4135TIP3   OH233895   0.798   5.393  12.074
 4135TIP3    H133896   0.791   5.389  11.979
 4135TIP3    H233897   0.891   5.408  12.090
 4136TIP3   OH233898   1.380   0.123  16.781
 4136TIP3    H133899   1.459   0.087  16.822
 4136TIP3    H233900   1.309   0.069  16.815
 4137TIP3   OH233901   1.384   6.805  14.370
 4137TIP3    H133902   1.401   6.849  14.454
 4137TIP3    H233903   1.308   6.750  14.386
 4138TIP3   OH233904   5.504   2.215  12.890
 4138TIP3    H133905   5.429   2.272  12.868
 4138TIP3    H233906   5.473   2.165  12.965
 4139TIP3   OH233907   0.609   5.189   0.379
 4139TIP3    H133908   0.605   5.280   0.408
 4139TIP3    H233909   0.640   5.141   0.456
 4140TIP3   OH233910   3.584   5.868   1.716
 4140TIP3    H133911   3.538   5.952   1.716
 4140TIP3    H233912   3.657   5.881   1.777
 4141TIP3   OH233913   0.905   4.113  11.532
 4141TIP3    H133914   0.935   4.134  11.444
 4141TIP3    H233915   0.810   4.116  11.527
 4142TIP3   OH233916   5.749   3.057  17.263
 4142TIP3    H133917   5.708   3.079  17.347
 4142TIP3    H233918   5.694   2.988  17.227
 4143TIP3   OH233919   0.054   1.078  17.287
 4143TIP3    H133920   0.113   1.107  17.218
 4143TIP3    H233921   0.057   1.148  17.352
 4144TIP3   OH233922   1.392   5.128  14.287
 4144TIP3    H133923   1.377   5.130  14.381
 4144TIP3    H233924   1.484   5.104  14.277
 4145TIP3   OH233925   1.131   0.703  12.938
 4145TIP3    H133926   1.155   0.612  12.956
 4145TIP3    H233927   1.035   0.704  12.939
 4146TIP3   OH233928   0.049   2.807   0.900
 4146TIP3    H133929   0.093   2.891   0.891
 4146TIP3    H233930   0.091   2.751   0.835
 4147TIP3   OH233931   1.363   4.969   4.508
 4147TIP3    H133932   1.344   5.061   4.530
 4147TIP3    H233933   1.310   4.919   4.570
 4148TIP3   OH233934   3.901   4.869  12.839
 4148TIP3    H133935   3.879   4.962  12.846
 4148TIP3    H233936   3.906   4.838  12.929
 4149TIP3   OH233937   0.337   2.102  10.529
 4149TIP3    H133938   0.249   2.071  10.552
 4149TIP3    H233939   0.356   2.169  10.594
 4150TIP3   OH233940   0.798   2.411   2.059
 4150TIP3    H133941   0.792   2.315   2.052
 4150TIP3    H233942   0.724   2.435   2.115
 4151TIP3   OH233943   4.245   6.797  14.661
 4151TIP3    H133944   4.297   6.839  14.592
 4151TIP3    H233945   4.265   6.847  14.740
 4152TIP3   OH233946   1.969   0.696  12.134
 4152TIP3    H133947   2.005   0.607  12.132
 4152TIP3    H233948   2.026   0.746  12.075
 4153TIP3   OH233949   3.399   0.860  15.114
 4153TIP3    H133950   3.394   0.771  15.080
 4153TIP3    H233951   3.313   0.877  15.152
 4154TIP3   OH233952   2.564   2.798   4.973
 4154TIP3    H133953   2.489   2.768   4.921
 4154TIP3    H233954   2.541   2.774   5.063
 4155TIP3   OH233955   4.990   2.707  10.623
 4155TIP3    H133956   5.053   2.700  10.550
 4155TIP3    H233957   4.958   2.618  10.636
 4156TIP3   OH233958   3.574   5.450  16.718
 4156TIP3    H133959   3.616   5.384  16.773
 4156TIP3    H233960   3.607   5.533  16.751
 4157TIP3   OH233961   6.397   3.185   5.259
 4157TIP3    H133962   6.438   3.098   5.258
 4157TIP3    H233963   6.319   3.175   5.205
 4158TIP3   OH233964   1.484   3.866   2.475
 4158TIP3    H133965   1.561   3.810   2.471
 4158TIP3    H233966   1.519   3.955   2.464
 4159TIP3   OH233967   2.662   5.985   1.562
 4159TIP3    H133968   2.754   6.008   1.553
 4159TIP3    H233969   2.652   5.963   1.655
 4160TIP3   OH233970   5.266   1.376   1.433
 4160TIP3    H133971   5.335   1.409   1.375
 4160TIP3    H233972   5.294   1.287   1.455
 4161TIP3   OH233973   2.897   4.380   3.927
 4161TIP3    H133974   2.878   4.352   4.017
 4161TIP3    H233975   2.955   4.456   3.938
 4162TIP3   OH233976   4.091   5.682  15.216
 4162TIP3    H133977   4.174   5.663  15.260
 4162TIP3    H233978   4.095   5.776  15.198
 4163TIP3   OH233979   3.841   2.680  10.391
 4163TIP3    H133980   3.856   2.730  10.311
 4163TIP3    H233981   3.746   2.683  10.403
 4164TIP3   OH233982   4.019   1.842   3.885
 4164TIP3    H133983   4.016   1.921   3.831
 4164TIP3    H233984   3.944   1.791   3.856
 4165TIP3   OH233985   4.206   3.725   2.600
 4165TIP3    H133986   4.298   3.745   2.617
 4165TIP3    H233987   4.167   3.809   2.578
 4166TIP3   OH233988   1.222   2.679   0.419
 4166TIP3    H133989   1.178   2.761   0.444
 4166TIP3    H233990   1.208   2.622   0.494
 4167TIP3   OH233991   2.881   5.142  16.302
 4167TIP3    H133992   2.846   5.161  16.389
 4167TIP3    H233993   2.847   5.213  16.247
 4168TIP3   OH233994   2.211   1.962  13.892
 4168TIP3    H133995   2.194   2.008  13.810
 4168TIP3    H233996   2.166   2.015  13.959
 4169TIP3   OH233997   3.261   5.241   4.040
 4169TIP3    H133998   3.208   5.179   4.089
 4169TIP3    H233999   3.233   5.327   4.072
 4170TIP3   OH234000   4.841   1.132  14.926
 4170TIP3    H134001   4.798   1.050  14.902
 4170TIP3    H234002   4.876   1.166  14.844
 4171TIP3   OH234003   1.427   6.540   6.410
 4171TIP3    H134004   1.415   6.631   6.383
 4171TIP3    H234005   1.338   6.507   6.423
 4172TIP3   OH234006   2.248   3.021   2.319
 4172TIP3    H134007   2.200   3.009   2.237
 4172TIP3    H234008   2.263   3.116   2.325
 4173TIP3   OH234009   0.586   1.162   0.049
 4173TIP3    H134010   0.629   1.128  -0.030
 4173TIP3    H234011   0.557   1.084   0.096
 4174TIP3   OH234012   4.669   3.125   4.439
 4174TIP3    H134013   4.660   3.175   4.521
 4174TIP3    H234014   4.760   3.140   4.412
 4175TIP3   OH234015   1.557   4.122  13.715
 4175TIP3    H134016   1.470   4.096  13.744
 4175TIP3    H234017   1.552   4.118  13.619
 4176TIP3   OH234018   1.189   6.082   3.998
 4176TIP3    H134019   1.231   6.142   3.935
 4176TIP3    H234020   1.224   6.109   4.083
 4177TIP3   OH234021   2.891   1.810  17.145
 4177TIP3    H134022   2.960   1.781  17.205
 4177TIP3    H234023   2.842   1.730  17.125
 4178TIP3   OH234024   4.838   6.339   3.494
 4178TIP3    H134025   4.902   6.317   3.562
 4178TIP3    H234026   4.821   6.432   3.506
 4179TIP3   OH234027   5.650   0.205   5.962
 4179TIP3    H134028   5.575   0.261   5.981
 4179TIP3    H234029   5.712   0.262   5.916
 4180TIP3   OH234030   3.754   3.410   5.319
 4180TIP3    H134031   3.659   3.414   5.311
 4180TIP3    H234032   3.780   3.334   5.267
 4181TIP3   OH234033   3.612   3.458  13.350
 4181TIP3    H134034   3.690   3.407  13.373
 4181TIP3    H234035   3.590   3.428  13.261
 4182TIP3   OH234036   1.952   3.014   3.463
 4182TIP3    H134037   1.951   3.109   3.451
 4182TIP3    H234038   1.860   2.988   3.458
 4183TIP3   OH234039   5.315   0.804   4.290
 4183TIP3    H134040   5.370   0.750   4.347
 4183TIP3    H234041   5.229   0.762   4.292
 4184TIP3   OH234042   2.647   1.614   4.666
 4184TIP3    H134043   2.679   1.704   4.655
 4184TIP3    H234044   2.558   1.616   4.633
 4185TIP3   OH234045   3.767   4.712  15.541
 4185TIP3    H134046   3.674   4.734  15.539
 4185TIP3    H234047   3.779   4.664  15.623
 4186TIP3   OH234048   3.946   2.285   1.193
 4186TIP3    H134049   4.020   2.334   1.158
 4186TIP3    H234050   3.974   2.259   1.281
 4187TIP3   OH234051   6.019   5.960  15.549
 4187TIP3    H134052   6.066   6.023  15.494
 4187TIP3    H234053   6.021   5.998  15.637
 4188TIP3   OH234054   4.014   2.020   1.148
 4188TIP3    H134055   3.943   1.957   1.162
 4188TIP3    H234056   3.974   2.105   1.166
 4189TIP3   OH234057   3.691   6.164   2.655
 4189TIP3    H134058   3.654   6.088   2.702
 4189TIP3    H234059   3.775   6.180   2.698
 4190TIP3   OH234060   5.915   5.384  15.047
 4190TIP3    H134061   5.968   5.449  15.093
 4190TIP3    H234062   5.834   5.378  15.097
 4191TIP3   OH234063   1.068   5.778  11.321
 4191TIP3    H134064   1.047   5.685  11.331
 4191TIP3    H234065   1.039   5.799  11.233
 4192TIP3   OH234066   1.380   5.904   1.811
 4192TIP3    H134067   1.340   5.967   1.871
 4192TIP3    H234068   1.368   5.942   1.724
 4193TIP3   OH234069   3.818   5.880  13.298
 4193TIP3    H134070   3.806   5.925  13.381
 4193TIP3    H234071   3.861   5.944  13.241
 4194TIP3   OH234072   2.925   4.901  11.874
 4194TIP3    H134073   2.950   4.916  11.783
 4194TIP3    H234074   2.988   4.836  11.906
 4195TIP3   OH234075   1.646   6.666   6.767
 4195TIP3    H134076   1.620   6.575   6.753
 4195TIP3    H234077   1.742   6.664   6.763
 4196TIP3   OH234078   1.429   3.546  12.707
 4196TIP3    H134079   1.355   3.526  12.764
 4196TIP3    H234080   1.431   3.641  12.701
 4197TIP3   OH234081   5.370   3.428  14.329
 4197TIP3    H134082   5.345   3.451  14.418
 4197TIP3    H234083   5.287   3.430  14.280
 4198TIP3   OH234084   1.907   0.095   5.293
 4198TIP3    H134085   1.954   0.075   5.212
 4198TIP3    H234086   1.835   0.031   5.295
 4199TIP3   OH234087   3.031   0.997  14.414
 4199TIP3    H134088   3.004   1.047  14.491
 4199TIP3    H234089   2.969   1.020  14.346
 4200TIP3   OH234090   1.366   0.628  16.417
 4200TIP3    H134091   1.327   0.669  16.340
 4200TIP3    H234092   1.362   0.696  16.485
 4201TIP3   OH234093   2.355   1.042   4.133
 4201TIP3    H134094   2.277   1.094   4.118
 4201TIP3    H234095   2.416   1.070   4.064
 4202TIP3   OH234096   3.316   2.797   2.346
 4202TIP3    H134097   3.305   2.704   2.365
 4202TIP3    H234098   3.317   2.803   2.251
 4203TIP3   OH234099   6.522   0.899  12.353
 4203TIP3    H134100   6.474   0.819  12.332
 4203TIP3    H234101   6.458   0.955  12.397
 4204TIP3   OH234102   6.764   0.852   0.083
 4204TIP3    H134103   6.691   0.823   0.028
 4204TIP3    H234104   6.801   0.927   0.036
 4205TIP3   OH234105   4.292   1.875  15.135
 4205TIP3    H134106   4.197   1.878  15.147
 4205TIP3    H234107   4.318   1.966  15.122
 4206TIP3   OH234108   5.188   5.631   4.846
 4206TIP3    H134109   5.264   5.678   4.880
 4206TIP3    H234110   5.224   5.573   4.779
 4207TIP3   OH234111   2.887   6.357   5.882
 4207TIP3    H134112   2.834   6.333   5.958
 4207TIP3    H234113   2.845   6.435   5.847
 4208TIP3   OH234114   1.728   0.610   3.967
 4208TIP3    H134115   1.747   0.700   3.993
 4208TIP3    H234116   1.678   0.574   4.040
 4209TIP3   OH234117   4.169   6.602  11.696
 4209TIP3    H134118   4.154   6.553  11.777
 4209TIP3    H234119   4.208   6.684  11.724
 4210TIP3   OH234120   0.733   6.120   2.114
 4210TIP3    H134121   0.725   6.136   2.020
 4210TIP3    H234122   0.646   6.139   2.149
 4211TIP3   OH234123   2.656   0.797   1.857
 4211TIP3    H134124   2.738   0.777   1.812
 4211TIP3    H234125   2.621   0.873   1.810
 4212TIP3   OH234126   6.252   1.162   2.545
 4212TIP3    H134127   6.284   1.075   2.566
 4212TIP3    H234128   6.328   1.219   2.557
 4213TIP3   OH234129   2.827   2.626  17.071
 4213TIP3    H134130   2.761   2.586  17.014
 4213TIP3    H234131   2.875   2.685  17.015
 4214TIP3   OH234132   5.542   1.912  12.654
 4214TIP3    H134133   5.500   1.986  12.610
 4214TIP3    H234134   5.510   1.835  12.608
 4215TIP3   OH234135   1.625   0.582   6.298
 4215TIP3    H134136   1.694   0.534   6.343
 4215TIP3    H234137   1.611   0.660   6.351
 4216TIP3   OH234138   2.542   2.335  11.660
 4216TIP3    H134139   2.540   2.392  11.583
 4216TIP3    H234140   2.585   2.256  11.630
 4217TIP3   OH234141   3.437   5.776  10.844
 4217TIP3    H134142   3.375   5.771  10.771
 4217TIP3    H234143   3.411   5.705  10.902
 4218TIP3   OH234144   4.168   1.173   6.010
 4218TIP3    H134145   4.123   1.229   6.073
 4218TIP3    H234146   4.103   1.155   5.943
 4219TIP3   OH234147   1.491   5.204   5.164
 4219TIP3    H134148   1.491   5.215   5.259
 4219TIP3    H234149   1.533   5.283   5.130
 4220TIP3   OH234150   5.594   1.999   0.794
 4220TIP3    H134151   5.549   1.972   0.875
 4220TIP3    H234152   5.628   1.917   0.758
 4221TIP3   OH234153   2.143   5.154   2.056
 4221TIP3    H134154   2.163   5.176   1.965
 4221TIP3    H234155   2.215   5.098   2.083
 4222TIP3   OH234156   0.826   3.036  10.287
 4222TIP3    H134157   0.758   3.082  10.237
 4222TIP3    H234158   0.825   3.078  10.373
 4223TIP3   OH234159   6.301   2.358   3.167
 4223TIP3    H134160   6.337   2.396   3.087
 4223TIP3    H234161   6.263   2.432   3.214
 4224TIP3   OH234162   4.302   1.606  15.031
 4224TIP3    H134163   4.317   1.680  15.090
 4224TIP3    H234164   4.390   1.583  14.999
 4225TIP3   OH234165   3.840   3.760  14.027
 4225TIP3    H134166   3.789   3.733  13.951
 4225TIP3    H234167   3.918   3.704  14.026
 4226TIP3   OH234168   4.692   0.503  15.509
 4226TIP3    H134169   4.742   0.542  15.580
 4226TIP3    H234170   4.671   0.576  15.451
 4227TIP3   OH234171   3.348   1.821   6.016
 4227TIP3    H134172   3.334   1.742   5.964
 4227TIP3    H234173   3.330   1.893   5.955
 4228TIP3   OH234174   4.115   5.059   6.628
 4228TIP3    H134175   4.111   5.145   6.587
 4228TIP3    H234176   4.047   5.008   6.585
 4229TIP3   OH234177   4.853   4.556   0.680
 4229TIP3    H134178   4.760   4.577   0.671
 4229TIP3    H234179   4.863   4.530   0.771
 4230TIP3   OH234180   5.287   0.880   1.724
 4230TIP3    H134181   5.288   0.955   1.783
 4230TIP3    H234182   5.281   0.804   1.782
 4231TIP3   OH234183   1.602   3.199   4.995
 4231TIP3    H134184   1.560   3.232   5.074
 4231TIP3    H234185   1.541   3.221   4.925
 4232TIP3   OH234186   2.985   4.497   3.598
 4232TIP3    H134187   2.895   4.495   3.629
 4232TIP3    H234188   3.031   4.552   3.662
 4233TIP3   OH234189   5.798   0.931   5.394
 4233TIP3    H134190   5.856   0.882   5.452
 4233TIP3    H234191   5.842   0.929   5.309
 4234TIP3   OH234192   0.585   4.584  15.772
 4234TIP3    H134193   0.601   4.675  15.745
 4234TIP3    H234194   0.650   4.569  15.841
 4235TIP3   OH234195   1.039   2.424  15.054
 4235TIP3    H134196   1.058   2.514  15.082
 4235TIP3    H234197   1.108   2.404  14.991
 4236TIP3   OH234198   2.688   2.152   4.015
 4236TIP3    H134199   2.706   2.229   4.069
 4236TIP3    H234200   2.726   2.173   3.929
 4237TIP3   OH234201   4.626   6.643  16.427
 4237TIP3    H134202   4.722   6.651  16.427
 4237TIP3    H234203   4.606   6.593  16.349
 4238TIP3   OH234204   6.696   0.248   4.491
 4238TIP3    H134205   6.749   0.174   4.462
 4238TIP3    H234206   6.607   0.215   4.494
 4239TIP3   OH234207   3.651   2.009   2.642
 4239TIP3    H134208   3.691   1.922   2.642
 4239TIP3    H234209   3.605   2.015   2.558
 4240TIP3   OH234210   0.142   4.748   2.757
 4240TIP3    H134211   0.228   4.727   2.721
 4240TIP3    H234212   0.114   4.669   2.803
 4241TIP3   OH234213   4.821   6.229  15.136
 4241TIP3    H134214   4.885   6.258  15.072
 4241TIP3    H234215   4.871   6.215  15.216
 4242TIP3   OH234216   1.610   1.393  12.411
 4242TIP3    H134217   1.590   1.469  12.466
 4242TIP3    H234218   1.590   1.422  12.322
 4243TIP3   OH234219   0.259   4.534   3.145
 4243TIP3    H134220   0.317   4.505   3.075
 4243TIP3    H234221   0.279   4.627   3.156
 4244TIP3   OH234222   1.399   6.134  16.419
 4244TIP3    H134223   1.307   6.121  16.398
 4244TIP3    H234224   1.415   6.226  16.402
 4245TIP3   OH234225   5.431   0.931   2.520
 4245TIP3    H134226   5.450   1.014   2.565
 4245TIP3    H234227   5.363   0.954   2.455
 4246TIP3   OH234228   6.065   3.870  16.624
 4246TIP3    H134229   6.065   3.790  16.676
 4246TIP3    H234230   5.995   3.856  16.559
 4247TIP3   OH234231   5.310   4.882   5.996
 4247TIP3    H134232   5.236   4.942   5.984
 4247TIP3    H234233   5.387   4.936   5.981
 4248TIP3   OH234234   3.951   2.610   1.342
 4248TIP3    H134235   4.023   2.591   1.402
 4248TIP3    H234236   3.971   2.559   1.263
 4249TIP3   OH234237   5.001   3.430   0.711
 4249TIP3    H134238   4.944   3.465   0.643
 4249TIP3    H234239   4.982   3.336   0.712
 4250TIP3   OH234240   3.359   4.345   2.675
 4250TIP3    H134241   3.425   4.277   2.684
 4250TIP3    H234242   3.313   4.324   2.594
 4251TIP3   OH234243   3.918   4.497  11.002
 4251TIP3    H134244   3.982   4.428  10.985
 4251TIP3    H234245   3.906   4.540  10.918
 4252TIP3   OH234246   1.609   6.434   6.629
 4252TIP3    H134247   1.556   6.478   6.562
 4252TIP3    H234248   1.575   6.345   6.631
 4253TIP3   OH234249   4.465   6.261  16.405
 4253TIP3    H134250   4.465   6.332  16.470
 4253TIP3    H234251   4.373   6.241  16.392
 4254TIP3   OH234252   1.612   2.024  15.862
 4254TIP3    H134253   1.594   1.962  15.792
 4254TIP3    H234254   1.670   1.977  15.922
 4255TIP3   OH234255   2.179   3.064  12.478
 4255TIP3    H134256   2.239   3.009  12.528
 4255TIP3    H234257   2.215   3.063  12.389
 4256TIP3   OH234258   2.330   5.727   3.174
 4256TIP3    H134259   2.259   5.671   3.206
 4256TIP3    H234260   2.402   5.666   3.159
 4257TIP3   OH234261   5.456   3.968  12.261
 4257TIP3    H134262   5.395   3.896  12.276
 4257TIP3    H234263   5.542   3.925  12.251
 4258TIP3   OH234264   3.516   3.189  15.496
 4258TIP3    H134265   3.449   3.198  15.428
 4258TIP3    H234266   3.572   3.118  15.465
 4259TIP3   OH234267   2.602   5.451  15.629
 4259TIP3    H134268   2.673   5.515  15.630
 4259TIP3    H234269   2.646   5.366  15.633
 4260TIP3   OH234270   0.049   1.152   2.084
 4260TIP3    H134271   0.124   1.138   2.025
 4260TIP3    H234272   0.030   1.246   2.076
 4261TIP3   OH234273   0.096   0.994   4.574
 4261TIP3    H134274   0.076   1.005   4.481
 4261TIP3    H234275   0.140   0.909   4.580
 4262TIP3   OH234276   2.731   0.257   4.815
 4262TIP3    H134277   2.827   0.251   4.811
 4262TIP3    H234278   2.704   0.264   4.724
 4263TIP3   OH234279   3.829   5.055   4.297
 4263TIP3    H134280   3.887   5.101   4.236
 4263TIP3    H234281   3.888   5.001   4.350
 4264TIP3   OH234282   6.740   0.478   1.899
 4264TIP3    H134283   6.775   0.532   1.970
 4264TIP3    H234284   6.755   0.388   1.929
 4265TIP3   OH234285   5.393   3.794  15.257
 4265TIP3    H134286   5.427   3.829  15.174
 4265TIP3    H234287   5.320   3.850  15.279
 4266TIP3   OH234288   5.311   2.188   1.503
 4266TIP3    H134289   5.282   2.097   1.498
 4266TIP3    H234290   5.406   2.182   1.512
 4267TIP3   OH234291   4.829   5.190   5.479
 4267TIP3    H134292   4.919   5.160   5.490
 4267TIP3    H234293   4.806   5.227   5.565
 4268TIP3   OH234294   3.829   3.964  12.257
 4268TIP3    H134295   3.840   3.899  12.326
 4268TIP3    H234296   3.864   4.045  12.295
 4269TIP3   OH234297   0.605   2.028   1.958
 4269TIP3    H134298   0.518   2.022   1.918
 4269TIP3    H234299   0.643   1.941   1.946
 4270TIP3   OH234300   2.817   3.640  14.832
 4270TIP3    H134301   2.857   3.722  14.860
 4270TIP3    H234302   2.779   3.659  14.746
 4271TIP3   OH234303   6.585   6.159   0.390
 4271TIP3    H134304   6.528   6.165   0.467
 4271TIP3    H234305   6.629   6.244   0.386
 4272TIP3   OH234306   4.479   5.646   1.494
 4272TIP3    H134307   4.434   5.562   1.497
 4272TIP3    H234308   4.543   5.637   1.423
 4273TIP3   OH234309   0.753   6.552   3.366
 4273TIP3    H134310   0.843   6.564   3.336
 4273TIP3    H234311   0.700   6.604   3.306
 4274TIP3   OH234312   1.226   4.365  16.597
 4274TIP3    H134313   1.300   4.422  16.619
 4274TIP3    H234314   1.156   4.393  16.655
 4275TIP3   OH234315   1.411   2.058  12.543
 4275TIP3    H134316   1.401   2.055  12.448
 4275TIP3    H234317   1.497   2.019  12.559
 4276TIP3   OH234318   0.638   0.437  14.905
 4276TIP3    H134319   0.706   0.503  14.890
 4276TIP3    H234320   0.566   0.462  14.848
 4277TIP3   OH234321   0.572   5.164  11.839
 4277TIP3    H134322   0.648   5.107  11.850
 4277TIP3    H234323   0.609   5.252  11.832
 4278TIP3   OH234324   1.203   4.370   5.682
 4278TIP3    H134325   1.184   4.371   5.589
 4278TIP3    H234326   1.292   4.335   5.688
 4279TIP3   OH234327   1.608   1.782  15.034
 4279TIP3    H134328   1.578   1.824  15.114
 4279TIP3    H234329   1.656   1.851  14.988
 4280TIP3   OH234330   0.800   2.215  10.996
 4280TIP3    H134331   0.805   2.252  11.084
 4280TIP3    H234332   0.885   2.172  10.983
 4281TIP3   OH234333   0.293   2.455  11.491
 4281TIP3    H134334   0.238   2.451  11.413
 4281TIP3    H234335   0.378   2.485  11.458
 4282TIP3   OH234336   0.636   5.094   2.816
 4282TIP3    H134337   0.616   5.170   2.872
 4282TIP3    H234338   0.607   5.120   2.729
 4283TIP3   OH234339   0.607   1.097   4.867
 4283TIP3    H134340   0.575   1.114   4.956
 4283TIP3    H234341   0.617   1.002   4.863
 4284TIP3   OH234342   6.135   1.823   3.520
 4284TIP3    H134343   6.076   1.779   3.581
 4284TIP3    H234344   6.170   1.897   3.569
 4285TIP3   OH234345   3.461   3.963   1.027
 4285TIP3    H134346   3.409   3.918   0.960
 4285TIP3    H234347   3.434   3.922   1.109
 4286TIP3   OH234348   6.361   3.227  15.577
 4286TIP3    H134349   6.286   3.261  15.529
 4286TIP3    H234350   6.371   3.287  15.651
 4287TIP3   OH234351   3.888   4.915   2.926
 4287TIP3    H134352   3.936   4.993   2.895
 4287TIP3    H234353   3.804   4.949   2.955
 4288TIP3   OH234354   2.005   1.707  14.968
 4288TIP3    H134355   1.937   1.663  14.918
 4288TIP3    H234356   1.986   1.684  15.059
 4289TIP3   OH234357   1.448   4.609  13.752
 4289TIP3    H134358   1.542   4.597  13.765
 4289TIP3    H234359   1.411   4.610  13.840
 4290TIP3   OH234360   0.554   3.960  12.516
 4290TIP3    H134361   0.544   4.049  12.549
 4290TIP3    H234362   0.648   3.952  12.496
 4291TIP3   OH234363   4.745   6.556  11.401
 4291TIP3    H134364   4.661   6.568  11.357
 4291TIP3    H234365   4.766   6.643  11.436
 4292TIP3   OH234366   5.697   2.397   2.728
 4292TIP3    H134367   5.605   2.418   2.709
 4292TIP3    H234368   5.740   2.400   2.642
 4293TIP3   OH234369   3.922   5.169  16.386
 4293TIP3    H134370   3.896   5.177  16.295
 4293TIP3    H234371   3.948   5.078  16.396
 4294TIP3   OH234372   4.936   5.929  12.114
 4294TIP3    H134373   4.988   5.861  12.070
 4294TIP3    H234374   4.948   6.007  12.060
 4295TIP3   OH234375   3.874   5.637   2.032
 4295TIP3    H134376   3.812   5.607   1.965
 4295TIP3    H234377   3.948   5.577   2.024
 4296TIP3   OH234378   5.280   5.855  13.582
 4296TIP3    H134379   5.276   5.844  13.677
 4296TIP3    H234380   5.191   5.881  13.557
 4297TIP3   OH234381   5.945   0.622   2.259
 4297TIP3    H134382   5.928   0.611   2.353
 4297TIP3    H234383   5.954   0.716   2.247
 4298TIP3   OH234384   4.058   5.381   0.037
 4298TIP3    H134385   4.146   5.343   0.036
 4298TIP3    H234386   4.043   5.405   0.128
 4299TIP3   OH234387   2.665   3.240   3.095
 4299TIP3    H134388   2.610   3.317   3.079
 4299TIP3    H234389   2.675   3.199   3.009
 4300TIP3   OH234390   3.997   1.342  16.217
 4300TIP3    H134391   3.940   1.280  16.262
 4300TIP3    H234392   3.988   1.423  16.268
 4301TIP3   OH234393   5.883   1.948   2.123
 4301TIP3    H134394   5.888   1.962   2.218
 4301TIP3    H234395   5.853   1.858   2.114
 4302TIP3   OH234396   6.226   1.774  13.088
 4302TIP3    H134397   6.311   1.811  13.065
 4302TIP3    H234398   6.164   1.817  13.030
 4303TIP3   OH234399   5.414   5.511   2.868
 4303TIP3    H134400   5.381   5.472   2.949
 4303TIP3    H234401   5.342   5.503   2.806
 4304TIP3   OH234402   1.955   1.196  14.518
 4304TIP3    H134403   2.009   1.241  14.453
 4304TIP3    H234404   2.013   1.189  14.595
 4305TIP3   OH234405   5.509   3.570  16.675
 4305TIP3    H134406   5.543   3.531  16.755
 4305TIP3    H234407   5.531   3.663  16.681
 4306TIP3   OH234408   6.204   4.900  11.534
 4306TIP3    H134409   6.254   4.894  11.615
 4306TIP3    H234410   6.264   4.938  11.471
 4307TIP3   OH234411   6.316   4.867   0.981
 4307TIP3    H134412   6.312   4.943   0.922
 4307TIP3    H234413   6.227   4.857   1.014
 4308TIP3   OH234414   3.226   5.227   2.959
 4308TIP3    H134415   3.131   5.215   2.960
 4308TIP3    H234416   3.258   5.163   3.023
 4309TIP3   OH234417   5.952   1.006   1.110
 4309TIP3    H134418   5.893   1.080   1.119
 4309TIP3    H234419   5.960   0.993   1.016
 4310TIP3   OH234420   4.822   2.658   4.271
 4310TIP3    H134421   4.740   2.618   4.243
 4310TIP3    H234422   4.828   2.739   4.221
 4311TIP3   OH234423   2.704   2.083   5.107
 4311TIP3    H134424   2.743   2.121   5.028
 4311TIP3    H234425   2.710   2.153   5.172
 4312TIP3   OH234426   1.920   6.173   2.676
 4312TIP3    H134427   2.004   6.163   2.722
 4312TIP3    H234428   1.872   6.237   2.729
 4313TIP3   OH234429   2.105   0.338   3.311
 4313TIP3    H134430   2.154   0.337   3.229
 4313TIP3    H234431   2.136   0.261   3.359
 4314TIP3   OH234432   2.183   0.723   3.615
 4314TIP3    H134433   2.091   0.698   3.624
 4314TIP3    H234434   2.214   0.672   3.540
 4315TIP3   OH234435   3.351   4.327   2.108
 4315TIP3    H134436   3.355   4.330   2.203
 4315TIP3    H234437   3.290   4.397   2.084
 4316TIP3   OH234438   3.005   1.080  17.111
 4316TIP3    H134439   2.962   1.010  17.159
 4316TIP3    H234440   3.048   1.134  17.178
 4317TIP3   OH234441   0.819   5.389   3.644
 4317TIP3    H134442   0.819   5.340   3.726
 4317TIP3    H234443   0.912   5.403   3.625
 4318TIP3   OH234444   2.721   4.829  12.508
 4318TIP3    H134445   2.678   4.756  12.553
 4318TIP3    H234446   2.811   4.827  12.539
 4319TIP3   OH234447   4.276   3.965   6.197
 4319TIP3    H134448   4.226   3.891   6.163
 4319TIP3    H234449   4.275   3.953   6.292
 4320TIP3   OH234450   4.636   3.529  11.801
 4320TIP3    H134451   4.690   3.579  11.740
 4320TIP3    H234452   4.668   3.439  11.795
 4321TIP3   OH234453   5.624   3.607   5.207
 4321TIP3    H134454   5.546   3.625   5.259
 4321TIP3    H234455   5.642   3.689   5.161
 4322TIP3   OH234456   6.751   6.294  14.469
 4322TIP3    H134457   6.811   6.310  14.396
 4322TIP3    H234458   6.805   6.251  14.535
 4323TIP3   OH234459   2.026   0.774   3.293
 4323TIP3    H134460   1.987   0.686   3.292
 4323TIP3    H234461   1.978   0.822   3.226
 4324TIP3   OH234462   6.418   2.470  11.125
 4324TIP3    H134463   6.459   2.543  11.079
 4324TIP3    H234464   6.460   2.392  11.089
 4325TIP3   OH234465   6.199   2.079   3.011
 4325TIP3    H134466   6.151   2.157   3.040
 4325TIP3    H234467   6.152   2.006   3.049
 4326TIP3   OH234468   6.400   2.278   1.805
 4326TIP3    H134469   6.485   2.238   1.823
 4326TIP3    H234470   6.336   2.219   1.845
 4327TIP3   OH234471   3.989   3.793   2.010
 4327TIP3    H134472   4.013   3.731   2.079
 4327TIP3    H234473   3.904   3.828   2.037
 4328TIP3   OH234474   4.113   1.725  12.595
 4328TIP3    H134475   4.169   1.757  12.524
 4328TIP3    H234476   4.079   1.642  12.563
 4329TIP3   OH234477   0.789   0.327  17.273
 4329TIP3    H134478   0.740   0.322  17.355
 4329TIP3    H234479   0.780   0.419  17.245
 4330TIP3   OH234480   4.841   5.339   4.275
 4330TIP3    H134481   4.863   5.292   4.355
 4330TIP3    H234482   4.916   5.323   4.217
 4331TIP3   OH234483   3.335   1.172  11.887
 4331TIP3    H134484   3.369   1.109  11.823
 4331TIP3    H234485   3.311   1.118  11.962
 4332TIP3   OH234486   1.435   6.455   1.252
 4332TIP3    H134487   1.390   6.387   1.303
 4332TIP3    H234488   1.459   6.412   1.170
 4333TIP3   OH234489   2.223   6.523  16.927
 4333TIP3    H134490   2.194   6.448  16.979
 4333TIP3    H234491   2.171   6.518  16.847
 4334TIP3   OH234492   2.092   2.863  14.400
 4334TIP3    H134493   2.058   2.949  14.425
 4334TIP3    H234494   2.178   2.859  14.442
 4335TIP3   OH234495   2.770   5.552  11.956
 4335TIP3    H134496   2.817   5.603  12.022
 4335TIP3    H234497   2.839   5.504  11.910
 4336TIP3   OH234498   0.797   6.526   2.460
 4336TIP3    H134499   0.786   6.508   2.367
 4336TIP3    H234500   0.731   6.471   2.503
 4337TIP3   OH234501   5.001   3.395  16.751
 4337TIP3    H134502   5.076   3.442  16.788
 4337TIP3    H234503   5.034   3.307  16.734
 4338TIP3   OH234504   0.053   5.739   0.727
 4338TIP3    H134505  -0.022   5.682   0.746
 4338TIP3    H234506   0.102   5.693   0.660
 4339TIP3   OH234507   0.880   1.618  11.240
 4339TIP3    H134508   0.840   1.670  11.169
 4339TIP3    H234509   0.914   1.683  11.301
 4340TIP3   OH234510   3.608   1.434  11.184
 4340TIP3    H134511   3.556   1.513  11.199
 4340TIP3    H234512   3.544   1.366  11.162
 4341TIP3   OH234513   3.476   6.192  12.600
 4341TIP3    H134514   3.551   6.230  12.646
 4341TIP3    H234515   3.400   6.238  12.636
 4342TIP3   OH234516   2.878   3.890   5.641
 4342TIP3    H134517   2.928   3.969   5.660
 4342TIP3    H234518   2.798   3.899   5.695
 4343TIP3   OH234519   2.660   0.270  16.607
 4343TIP3    H134520   2.704   0.204  16.554
 4343TIP3    H234521   2.568   0.266  16.580
 4344TIP3   OH234522   6.721   3.505   4.344
 4344TIP3    H134523   6.696   3.580   4.288
 4344TIP3    H234524   6.652   3.501   4.410
 4345TIP3   OH234525   4.037   3.233   2.512
 4345TIP3    H134526   4.091   3.307   2.541
 4345TIP3    H234527   4.075   3.157   2.555
 4346TIP3   OH234528   2.258   6.480  13.046
 4346TIP3    H134529   2.217   6.395  13.028
 4346TIP3    H234530   2.259   6.486  13.141
 4347TIP3   OH234531   1.183   2.651   4.297
 4347TIP3    H134532   1.232   2.570   4.311
 4347TIP3    H234533   1.195   2.671   4.205
 4348TIP3   OH234534   5.954   2.917  16.334
 4348TIP3    H134535   5.915   2.852  16.392
 4348TIP3    H234536   5.935   3.001  16.376
 4349TIP3   OH234537   6.021   3.251   4.162
 4349TIP3    H134538   6.043   3.215   4.076
 4349TIP3    H234539   5.927   3.270   4.157
 4350TIP3   OH234540   3.479   0.939  13.133
 4350TIP3    H134541   3.389   0.914  13.111
 4350TIP3    H234542   3.485   0.929  13.228
 4351TIP3   OH234543   5.730   0.493   2.468
 4351TIP3    H134544   5.799   0.432   2.440
 4351TIP3    H234545   5.688   0.519   2.386
 4352TIP3   OH234546   3.159   5.168  13.618
 4352TIP3    H134547   3.103   5.245  13.625
 4352TIP3    H234548   3.227   5.193  13.555
 4353TIP3   OH234549   5.154   4.305  11.499
 4353TIP3    H134550   5.158   4.346  11.586
 4353TIP3    H234551   5.244   4.277  11.482
 4354TIP3   OH234552   2.010   2.924  15.589
 4354TIP3    H134553   2.104   2.931  15.573
 4354TIP3    H234554   2.003   2.865  15.664
 4355TIP3   OH234555   3.913   4.063  12.672
 4355TIP3    H134556   3.828   4.033  12.641
 4355TIP3    H234557   3.900   4.081  12.765
 4356TIP3   OH234558   6.039   4.447   0.688
 4356TIP3    H134559   6.016   4.354   0.690
 4356TIP3    H234560   5.989   4.486   0.760
 4357TIP3   OH234561   4.724   2.858   1.757
 4357TIP3    H134562   4.754   2.883   1.844
 4357TIP3    H234563   4.681   2.774   1.770
 4358TIP3   OH234564   0.858   1.368  13.907
 4358TIP3    H134565   0.862   1.447  13.853
 4358TIP3    H234566   0.780   1.321  13.876
 4359TIP3   OH234567   4.949   1.816   3.590
 4359TIP3    H134568   4.895   1.852   3.520
 4359TIP3    H234569   4.898   1.741   3.622
 4360TIP3   OH234570   1.105   4.391   3.474
 4360TIP3    H134571   1.108   4.396   3.379
 4360TIP3    H234572   1.027   4.441   3.499
 4361TIP3   OH234573   6.305   3.402  15.791
 4361TIP3    H134574   6.214   3.429  15.797
 4361TIP3    H234575   6.342   3.421  15.877
 4362TIP3   OH234576   3.100   5.476  13.691
 4362TIP3    H134577   3.052   5.441  13.616
 4362TIP3    H234578   3.034   5.480  13.761
 4363TIP3   OH234579   4.495   6.610  11.675
 4363TIP3    H134580   4.573   6.645  11.632
 4363TIP3    H234581   4.422   6.645  11.624
 4364TIP3   OH234582   3.380   4.429  14.289
 4364TIP3    H134583   3.461   4.385  14.261
 4364TIP3    H234584   3.352   4.380  14.366
 4365TIP3   OH234585   2.231   2.004  12.549
 4365TIP3    H134586   2.194   2.011  12.637
 4365TIP3    H234587   2.216   1.912  12.524
 4366TIP3   OH234588   1.813   5.780   4.375
 4366TIP3    H134589   1.769   5.699   4.351
 4366TIP3    H234590   1.749   5.848   4.359
 4367TIP3   OH234591   5.059   0.055  15.350
 4367TIP3    H134592   5.103   0.109  15.416
 4367TIP3    H234593   4.988   0.110  15.317
 4368TIP3   OH234594   1.299   4.843   1.525
 4368TIP3    H134595   1.251   4.864   1.605
 4368TIP3    H234596   1.328   4.928   1.492
 4369TIP3   OH234597   5.678   3.474   2.810
 4369TIP3    H134598   5.664   3.398   2.866
 4369TIP3    H234599   5.711   3.542   2.869
 4370TIP3   OH234600   0.562   6.625   2.058
 4370TIP3    H134601   0.568   6.703   2.003
 4370TIP3    H234602   0.619   6.561   2.014
 4371TIP3   OH234603   3.612   5.271   6.232
 4371TIP3    H134604   3.636   5.201   6.293
 4371TIP3    H234605   3.561   5.333   6.284
 4372TIP3   OH234606   4.080   3.747  15.662
 4372TIP3    H134607   4.075   3.817  15.596
 4372TIP3    H234608   4.158   3.769  15.713
 4373TIP3   OH234609   3.933   0.974   6.592
 4373TIP3    H134610   3.984   1.043   6.549
 4373TIP3    H234611   3.901   1.016   6.673
 4374TIP3   OH234612   6.507   3.531   2.834
 4374TIP3    H134613   6.586   3.553   2.784
 4374TIP3    H234614   6.539   3.481   2.909
 4375TIP3   OH234615   0.307   0.768  13.186
 4375TIP3    H134616   0.257   0.774  13.105
 4375TIP3    H234617   0.240   0.764  13.255
 4376TIP3   OH234618   1.335   4.378  14.154
 4376TIP3    H134619   1.304   4.401  14.067
 4376TIP3    H234620   1.345   4.283  14.152
 4377TIP3   OH234621   2.560   1.482  15.093
 4377TIP3    H134622   2.629   1.489  15.027
 4377TIP3    H234623   2.581   1.401  15.140
 4378TIP3   OH234624   6.630   1.116   3.457
 4378TIP3    H134625   6.573   1.113   3.533
 4378TIP3    H234626   6.712   1.076   3.487
 4379TIP3   OH234627   5.316   5.951   2.828
 4379TIP3    H134628   5.388   6.009   2.856
 4379TIP3    H234629   5.329   5.871   2.878
 4380TIP3   OH234630   2.731   3.950   1.831
 4380TIP3    H134631   2.766   4.039   1.835
 4380TIP3    H234632   2.800   3.898   1.791
 4381TIP3   OH234633   3.549   4.826  14.430
 4381TIP3    H134634   3.534   4.908  14.382
 4381TIP3    H234635   3.507   4.759  14.376
 4382TIP3   OH234636   1.986   6.813  16.220
 4382TIP3    H134637   2.074   6.778  16.209
 4382TIP3    H234638   1.973   6.816  16.315
 4383TIP3   OH234639   0.588   6.692  14.381
 4383TIP3    H134640   0.551   6.771  14.343
 4383TIP3    H234641   0.659   6.667  14.321
 4384TIP3   OH234642   1.743   2.233   6.929
 4384TIP3    H134643   1.748   2.144   6.961
 4384TIP3    H234644   1.753   2.288   7.006
 4385TIP3   OH234645   3.535   0.183   2.038
 4385TIP3    H134646   3.488   0.258   2.075
 4385TIP3    H234647   3.565   0.133   2.114
 4386TIP3   OH234648   6.469   1.757   3.455
 4386TIP3    H134649   6.449   1.835   3.506
 4386TIP3    H234650   6.442   1.684   3.510
 4387TIP3   OH234651   5.672   0.980  15.915
 4387TIP3    H134652   5.674   1.050  15.850
 4387TIP3    H234653   5.659   0.900  15.864
 4388TIP3   OH234654   2.501   5.468   5.613
 4388TIP3    H134655   2.431   5.484   5.676
 4388TIP3    H234656   2.470   5.395   5.560
 4389TIP3   OH234657   3.812   1.633   3.145
 4389TIP3    H134658   3.842   1.694   3.077
 4389TIP3    H234659   3.717   1.631   3.135
 4390TIP3   OH234660   5.232   6.250  10.687
 4390TIP3    H134661   5.224   6.211  10.600
 4390TIP3    H234662   5.309   6.306  10.681
 4391TIP3   OH234663   1.232   5.959  14.037
 4391TIP3    H134664   1.271   6.017  14.102
 4391TIP3    H234665   1.146   5.936  14.074
 4392TIP3   OH234666   0.846   4.651  17.239
 4392TIP3    H134667   0.922   4.612  17.195
 4392TIP3    H234668   0.793   4.687  17.168
 4393TIP3   OH234669   5.250   3.195   0.708
 4393TIP3    H134670   5.162   3.169   0.734
 4393TIP3    H234671   5.237   3.279   0.663
 4394TIP3   OH234672   2.487   2.462   5.072
 4394TIP3    H134673   2.569   2.475   5.121
 4394TIP3    H234674   2.440   2.395   5.122
 4395TIP3   OH234675   3.474   5.105   5.069
 4395TIP3    H134676   3.467   5.192   5.110
 4395TIP3    H234677   3.398   5.057   5.103
 4396TIP3   OH234678   3.010   5.077  10.431
 4396TIP3    H134679   3.101   5.104  10.437
 4396TIP3    H234680   2.969   5.141  10.373
 4397TIP3   OH234681   0.684   4.220   4.697
 4397TIP3    H134682   0.658   4.239   4.787
 4397TIP3    H234683   0.649   4.294   4.646
 4398TIP3   OH234684   5.684   1.163  11.424
 4398TIP3    H134685   5.603   1.211  11.407
 4398TIP3    H234686   5.659   1.071  11.417
 4399TIP3   OH234687   0.923   3.469  11.136
 4399TIP3    H134688   0.964   3.503  11.216
 4399TIP3    H234689   0.953   3.378  11.132
 4400TIP3   OH234690   5.034   0.958   6.039
 4400TIP3    H134691   4.956   0.944   5.985
 4400TIP3    H234692   5.106   0.929   5.983
 4401TIP3   OH234693   6.065   5.610  14.317
 4401TIP3    H134694   6.051   5.541  14.252
 4401TIP3    H234695   6.142   5.657  14.284
 4402TIP3   OH234696   2.117   2.991   4.561
 4402TIP3    H134697   2.152   3.078   4.579
 4402TIP3    H234698   2.194   2.935   4.554
 4403TIP3   OH234699   4.183   4.325  14.474
 4403TIP3    H134700   4.174   4.389  14.404
 4403TIP3    H234701   4.164   4.373  14.554
 4404TIP3   OH234702   4.197   3.449   2.565
 4404TIP3    H134703   4.208   3.540   2.536
 4404TIP3    H234704   4.138   3.455   2.640
 4405TIP3   OH234705   1.062   3.269  15.734
 4405TIP3    H134706   1.111   3.336  15.781
 4405TIP3    H234707   0.986   3.315  15.699
 4406TIP3   OH234708   3.814   3.924  15.780
 4406TIP3    H134709   3.797   3.880  15.863
 4406TIP3    H234710   3.863   3.860  15.729
 4407TIP3   OH234711   6.201   0.187   1.827
 4407TIP3    H134712   6.107   0.175   1.816
 4407TIP3    H234713   6.216   0.171   1.921
 4408TIP3   OH234714   1.992   1.836   6.233
 4408TIP3    H134715   1.999   1.929   6.255
 4408TIP3    H234716   2.049   1.792   6.295
 4409TIP3   OH234717   4.083   4.476  14.673
 4409TIP3    H134718   4.016   4.436  14.729
 4409TIP3    H234719   4.042   4.556  14.640
 4410TIP3   OH234720   2.031   4.767  12.196
 4410TIP3    H134721   2.048   4.861  12.189
 4410TIP3    H234722   1.946   4.761  12.238
 4411TIP3   OH234723   2.531   3.400  12.264
 4411TIP3    H134724   2.542   3.317  12.216
 4411TIP3    H234725   2.440   3.425  12.249
 4412TIP3   OH234726   5.543   6.114   0.542
 4412TIP3    H134727   5.574   6.058   0.470
 4412TIP3    H234728   5.610   6.182   0.550
 4413TIP3   OH234729   2.457   0.764  11.504
 4413TIP3    H134730   2.506   0.835  11.462
 4413TIP3    H234731   2.491   0.760  11.593
 4414TIP3   OH234732   5.566   1.696  17.279
 4414TIP3    H134733   5.578   1.603  17.259
 4414TIP3    H234734   5.503   1.726  17.213
 4415TIP3   OH234735   5.738   2.971  13.117
 4415TIP3    H134736   5.783   2.890  13.142
 4415TIP3    H234737   5.645   2.947  13.115
 4416TIP3   OH234738   3.949   6.286  17.217
 4416TIP3    H134739   3.986   6.372  17.200
 4416TIP3    H234740   3.856   6.294  17.196
 4417TIP3   OH234741   4.368   2.488  12.422
 4417TIP3    H134742   4.429   2.492  12.496
 4417TIP3    H234743   4.351   2.580  12.401
 4418TIP3   OH234744   2.088   6.146  10.567
 4418TIP3    H134745   2.071   6.210  10.636
 4418TIP3    H234746   2.179   6.163  10.542
 4419TIP3   OH234747   3.511   1.057   4.782
 4419TIP3    H134748   3.505   1.127   4.716
 4419TIP3    H234749   3.421   1.036   4.803
 4420TIP3   OH234750   1.610   6.127   6.606
 4420TIP3    H134751   1.520   6.095   6.602
 4420TIP3    H234752   1.659   6.056   6.647
 4421TIP3   OH234753   0.028   1.446   4.291
 4421TIP3    H134754   0.076   1.526   4.268
 4421TIP3    H234755   0.031   1.393   4.211
 4422TIP3   OH234756   5.829   1.407   2.453
 4422TIP3    H134757   5.872   1.487   2.485
 4422TIP3    H234758   5.835   1.346   2.526
 4423TIP3   OH234759   3.028   3.498  11.688
 4423TIP3    H134760   2.948   3.496  11.636
 4423TIP3    H234761   3.023   3.581  11.736
 4424TIP3   OH234762   2.438   4.495  13.569
 4424TIP3    H134763   2.489   4.428  13.614
 4424TIP3    H234764   2.426   4.461  13.481
 4425TIP3   OH234765   5.767   0.461  12.303
 4425TIP3    H134766   5.757   0.529  12.236
 4425TIP3    H234767   5.741   0.380  12.259
 4426TIP3   OH234768   5.224   3.635  15.629
 4426TIP3    H134769   5.236   3.615  15.536
 4426TIP3    H234770   5.291   3.700  15.649
 4427TIP3   OH234771   1.085   0.523   5.921
 4427TIP3    H134772   1.063   0.496   6.011
 4427TIP3    H234773   1.110   0.443   5.877
 4428TIP3   OH234774   6.797   5.809  16.272
 4428TIP3    H134775   6.758   5.729  16.306
 4428TIP3    H234776   6.812   5.791  16.179
 4429TIP3   OH234777   4.618   0.009   3.102
 4429TIP3    H134778   4.539   0.026   3.153
 4429TIP3    H234779   4.667   0.091   3.106
 4430TIP3   OH234780   1.503   3.900  16.538
 4430TIP3    H134781   1.504   3.969  16.471
 4430TIP3    H234782   1.528   3.945  16.619
 4431TIP3   OH234783   6.606   3.334  12.592
 4431TIP3    H134784   6.524   3.286  12.584
 4431TIP3    H234785   6.643   3.307  12.676
 4432TIP3   OH234786   0.641   4.987   3.942
 4432TIP3    H134787   0.659   4.989   3.848
 4432TIP3    H234788   0.700   4.920   3.977
 4433TIP3   OH234789   0.420   1.997   3.973
 4433TIP3    H134790   0.476   1.933   4.015
 4433TIP3    H234791   0.479   2.050   3.920
 4434TIP3   OH234792   6.765   2.255  13.932
 4434TIP3    H134793   6.782   2.182  13.873
 4434TIP3    H234794   6.725   2.322  13.877
 4435TIP3   OH234795   2.671   1.714   3.999
 4435TIP3    H134796   2.615   1.679   4.069
 4435TIP3    H234797   2.759   1.714   4.038
 4436TIP3   OH234798   1.162   5.549  11.539
 4436TIP3    H134799   1.117   5.509  11.465
 4436TIP3    H234800   1.213   5.478  11.577
 4437TIP3   OH234801   2.426   3.380  12.525
 4437TIP3    H134802   2.457   3.396  12.436
 4437TIP3    H234803   2.425   3.466  12.566
 4438TIP3   OH234804   4.217   5.726   5.111
 4438TIP3    H134805   4.162   5.697   5.183
 4438TIP3    H234806   4.175   5.689   5.033
 4439TIP3   OH234807   0.543   1.208  15.206
 4439TIP3    H134808   0.475   1.147  15.234
 4439TIP3    H234809   0.621   1.180  15.254
 4440TIP3   OH234810   4.157   2.347  13.870
 4440TIP3    H134811   4.210   2.279  13.910
 4440TIP3    H234812   4.089   2.365  13.934
 4441TIP3   OH234813   6.494   3.661   1.481
 4441TIP3    H134814   6.512   3.622   1.395
 4441TIP3    H234815   6.568   3.634   1.536
 4442TIP3   OH234816   1.689   6.241   5.899
 4442TIP3    H134817   1.701   6.335   5.886
 4442TIP3    H234818   1.740   6.201   5.829
 4443TIP3   OH234819   5.567   5.971  15.145
 4443TIP3    H134820   5.495   5.909  15.151
 4443TIP3    H234821   5.646   5.918  15.155
 4444TIP3   OH234822   2.618   3.492  14.918
 4444TIP3    H134823   2.692   3.537  14.878
 4444TIP3    H234824   2.544   3.550  14.903
 4445TIP3   OH234825   1.665   0.404  16.461
 4445TIP3    H134826   1.724   0.407  16.386
 4445TIP3    H234827   1.679   0.486  16.508
 4446TIP3   OH234828   3.212   6.305  12.698
 4446TIP3    H134829   3.144   6.268  12.642
 4446TIP3    H234830   3.164   6.354  12.765
 4447TIP3   OH234831   1.474   5.407   1.853
 4447TIP3    H134832   1.395   5.460   1.861
 4447TIP3    H234833   1.473   5.349   1.929
 4448TIP3   OH234834   6.613   6.523  14.045
 4448TIP3    H134835   6.567   6.468  13.982
 4448TIP3    H234836   6.579   6.495  14.130
 4449TIP3   OH234837   6.632   4.134  17.000
 4449TIP3    H134838   6.551   4.099  16.962
 4449TIP3    H234839   6.631   4.227  16.978
 4450TIP3   OH234840   5.847   2.524  12.036
 4450TIP3    H134841   5.792   2.593  12.073
 4450TIP3    H234842   5.851   2.543  11.943
 4451TIP3   OH234843   5.716   4.677   2.726
 4451TIP3    H134844   5.727   4.764   2.765
 4451TIP3    H234845   5.627   4.651   2.749
 4452TIP3   OH234846   2.146   4.767  12.855
 4452TIP3    H134847   2.130   4.678  12.825
 4452TIP3    H234848   2.205   4.805  12.790
 4453TIP3   OH234849   1.488   1.479   5.376
 4453TIP3    H134850   1.483   1.522   5.290
 4453TIP3    H234851   1.434   1.533   5.433
 4454TIP3   OH234852   6.675   4.803  16.027
 4454TIP3    H134853   6.631   4.756  16.098
 4454TIP3    H234854   6.761   4.761  16.021
 4455TIP3   OH234855   0.774   3.600   0.008
 4455TIP3    H134856   0.822   3.570  -0.070
 4455TIP3    H234857   0.743   3.519   0.049
 4456TIP3   OH234858   5.072   3.712   0.224
 4456TIP3    H134859   5.132   3.669   0.285
 4456TIP3    H234860   5.087   3.668   0.140
 4457TIP3   OH234861   2.569   4.324   2.357
 4457TIP3    H134862   2.622   4.328   2.436
 4457TIP3    H234863   2.479   4.317   2.388
 4458TIP3   OH234864   5.038   5.193   0.283
 4458TIP3    H134865   4.998   5.139   0.351
 4458TIP3    H234866   4.966   5.246   0.249
 4459TIP3   OH234867   2.877   6.232  15.419
 4459TIP3    H134868   2.869   6.271  15.332
 4459TIP3    H234869   2.935   6.157  15.406
 4460TIP3   OH234870   3.584   0.551   0.449
 4460TIP3    H134871   3.607   0.555   0.357
 4460TIP3    H234872   3.518   0.481   0.455
 4461TIP3   OH234873   3.558   3.674   5.487
 4461TIP3    H134874   3.525   3.654   5.400
 4461TIP3    H234875   3.567   3.770   5.488
 4462TIP3   OH234876   0.591   3.528   4.939
 4462TIP3    H134877   0.539   3.462   4.894
 4462TIP3    H234878   0.623   3.585   4.869
 4463TIP3   OH234879   2.089   2.947   5.103
 4463TIP3    H134880   2.075   2.995   5.184
 4463TIP3    H234881   2.044   2.999   5.036
 4464TIP3   OH234882   0.357   0.725  16.934
 4464TIP3    H134883   0.389   0.668  17.005
 4464TIP3    H234884   0.279   0.766  16.971
 4465TIP3   OH234885   4.344   0.861   1.928
 4465TIP3    H134886   4.276   0.905   1.980
 4465TIP3    H234887   4.417   0.923   1.927
 4466TIP3   OH234888   2.600   3.706  16.839
 4466TIP3    H134889   2.637   3.646  16.773
 4466TIP3    H234890   2.665   3.707  16.909
 4467TIP3   OH234891   3.306   1.520  13.721
 4467TIP3    H134892   3.276   1.525  13.812
 4467TIP3    H234893   3.262   1.444  13.684
 4468TIP3   OH234894   6.165   6.552   0.154
 4468TIP3    H134895   6.166   6.497   0.233
 4468TIP3    H234896   6.105   6.623   0.175
 4469TIP3   OH234897   5.925   4.682  11.830
 4469TIP3    H134898   5.885   4.603  11.794
 4469TIP3    H234899   5.852   4.737  11.858
 4470TIP3   OH234900   2.272   2.317  12.799
 4470TIP3    H134901   2.334   2.323  12.727
 4470TIP3    H234902   2.205   2.382  12.779
 4471TIP3   OH234903   3.473   1.135  15.893
 4471TIP3    H134904   3.552   1.121  15.946
 4471TIP3    H234905   3.488   1.219  15.850
 4472TIP3   OH234906   2.383   0.608  17.063
 4472TIP3    H134907   2.450   0.608  17.131
 4472TIP3    H234908   2.346   0.696  17.065
 4473TIP3   OH234909   3.826   6.033   1.255
 4473TIP3    H134910   3.750   5.976   1.241
 4473TIP3    H234911   3.793   6.121   1.237
 4474TIP3   OH234912   1.917   0.743  12.755
 4474TIP3    H134913   1.963   0.713  12.676
 4474TIP3    H234914   1.906   0.837  12.741
 4475TIP3   OH234915   0.569   0.022   3.336
 4475TIP3    H134916   0.652   0.016   3.288
 4475TIP3    H234917   0.594   0.046   3.425
 4476TIP3   OH234918   3.018   2.979   5.433
 4476TIP3    H134919   3.090   2.930   5.394
 4476TIP3    H234920   2.980   2.920   5.498
 4477TIP3   OH234921   6.368   3.121  15.075
 4477TIP3    H134922   6.319   3.126  14.993
 4477TIP3    H234923   6.452   3.162  15.055
 4478TIP3   OH234924   6.756   4.661  14.208
 4478TIP3    H134925   6.718   4.743  14.240
 4478TIP3    H234926   6.849   4.667  14.232
 4479TIP3   OH234927   2.692   0.261  12.141
 4479TIP3    H134928   2.769   0.270  12.085
 4479TIP3    H234929   2.670   0.350  12.166
 4480TIP3   OH234930   0.955   1.593  16.141
 4480TIP3    H134931   0.895   1.569  16.070
 4480TIP3    H234932   1.016   1.655  16.101
 4481TIP3   OH234933   6.703   3.909   2.231
 4481TIP3    H134934   6.762   3.850   2.183
 4481TIP3    H234935   6.618   3.865   2.228
 4482TIP3   OH234936   2.411   6.641  15.204
 4482TIP3    H134937   2.488   6.691  15.230
 4482TIP3    H234938   2.429   6.615  15.113
 4483TIP3   OH234939   6.409   2.196   0.031
 4483TIP3    H134940   6.374   2.131  -0.030
 4483TIP3    H234941   6.484   2.153   0.072
 4484TIP3   OH234942   5.236   4.121   0.984
 4484TIP3    H134943   5.230   4.028   0.963
 4484TIP3    H234944   5.185   4.165   0.916
 4485TIP3   OH234945   3.779   1.072  11.761
 4485TIP3    H134946   3.770   0.976  11.760
 4485TIP3    H234947   3.708   1.102  11.818
 4486TIP3   OH234948   3.035   1.215   6.242
 4486TIP3    H134949   3.081   1.297   6.227
 4486TIP3    H234950   3.100   1.157   6.282
 4487TIP3   OH234951   0.066   0.806  15.167
 4487TIP3    H134952   0.146   0.764  15.136
 4487TIP3    H234953   0.082   0.900  15.152
 4488TIP3   OH234954   2.415   6.224  15.761
 4488TIP3    H134955   2.411   6.309  15.719
 4488TIP3    H234956   2.328   6.212  15.799
 4489TIP3   OH234957   1.701   0.223  12.717
 4489TIP3    H134958   1.772   0.185  12.666
 4489TIP3    H234959   1.670   0.298  12.665
 4490TIP3   OH234960   0.511   3.038   4.608
 4490TIP3    H134961   0.491   3.129   4.590
 4490TIP3    H234962   0.426   2.998   4.627
 4491TIP3   OH234963   6.676   6.254   6.343
 4491TIP3    H134964   6.604   6.214   6.295
 4491TIP3    H234965   6.661   6.349   6.334
 4492TIP3   OH234966   3.222   1.053  16.698
 4492TIP3    H134967   3.192   1.144  16.701
 4492TIP3    H234968   3.153   1.003  16.740
 4493TIP3   OH234969   6.132   1.296   1.132
 4493TIP3    H134970   6.221   1.285   1.097
 4493TIP3    H234971   6.129   1.238   1.208
 4494TIP3   OH234972   4.332   6.233   4.099
 4494TIP3    H134973   4.346   6.147   4.059
 4494TIP3    H234974   4.238   6.246   4.097
 4495TIP3   OH234975   0.886   0.532   6.140
 4495TIP3    H134976   0.812   0.565   6.190
 4495TIP3    H234977   0.847   0.474   6.074
 4496TIP3   OH234978   6.120   2.745   1.823
 4496TIP3    H134979   6.115   2.790   1.738
 4496TIP3    H234980   6.056   2.673   1.815
 4497TIP3   OH234981   4.394   3.701   6.233
 4497TIP3    H134982   4.363   3.718   6.144
 4497TIP3    H234983   4.479   3.745   6.237
 4498TIP3   OH234984   3.055   6.644   0.593
 4498TIP3    H134985   3.135   6.606   0.557
 4498TIP3    H234986   2.986   6.582   0.570
 4499TIP3   OH234987   0.431   4.673  13.715
 4499TIP3    H134988   0.487   4.604  13.679
 4499TIP3    H234989   0.342   4.638  13.708
 4500TIP3   OH234990   0.949   0.520  12.337
 4500TIP3    H134991   0.979   0.534  12.248
 4500TIP3    H234992   1.021   0.473  12.380
 4501TIP3   OH234993   4.124   2.509  16.268
 4501TIP3    H134994   4.208   2.550  16.289
 4501TIP3    H234995   4.143   2.456  16.190
 4502TIP3   OH234996   0.050   2.283  12.291
 4502TIP3    H134997   0.018   2.199  12.256
 4502TIP3    H234998  -0.027   2.323  12.332
 4503TIP3   OH234999   6.262   3.140  17.219
 4503TIP3    H135000   6.191   3.143  17.283
 4503TIP3    H235001   6.281   3.047  17.209
 4504TIP3   OH235002   1.711   4.160  12.721
 4504TIP3    H135003   1.775   4.109  12.672
 4504TIP3    H235004   1.646   4.096  12.751
 4505TIP3   OH235005   2.747   6.120  16.548
 4505TIP3    H135006   2.718   6.060  16.616
 4505TIP3    H235007   2.806   6.068  16.493
 4506TIP3   OH235008   0.810   4.735  10.839
 4506TIP3    H135009   0.799   4.659  10.896
 4506TIP3    H235010   0.900   4.763  10.854
 4507TIP3   OH235011   5.030   3.983  17.282
 4507TIP3    H135012   5.114   3.947  17.309
 4507TIP3    H235013   5.044   4.012  17.192
 4508TIP3   OH235014   5.002   2.227  14.027
 4508TIP3    H135015   4.987   2.186  14.112
 4508TIP3    H235016   4.990   2.321  14.044
 4509TIP3   OH235017   1.742   0.399  16.191
 4509TIP3    H135018   1.650   0.396  16.163
 4509TIP3    H235019   1.756   0.490  16.218
 4510TIP3   OH235020   6.629   2.236   6.231
 4510TIP3    H135021   6.676   2.198   6.305
 4510TIP3    H235022   6.683   2.310   6.204
 4511TIP3   OH235023   5.240   4.660  13.445
 4511TIP3    H135024   5.214   4.730  13.504
 4511TIP3    H235025   5.220   4.694  13.357
 4512TIP3   OH235026   5.840   0.613  16.046
 4512TIP3    H135027   5.752   0.595  16.015
 4512TIP3    H235028   5.845   0.568  16.131
 4513TIP3   OH235029   5.386   4.269  12.898
 4513TIP3    H135030   5.465   4.322  12.885
 4513TIP3    H235031   5.332   4.288  12.821
 4514TIP3   OH235032   5.049   3.525   4.570
 4514TIP3    H135033   4.967   3.536   4.618
 4514TIP3    H235034   5.040   3.582   4.493
 4515TIP3   OH235035   5.749   5.850   5.286
 4515TIP3    H135036   5.829   5.805   5.261
 4515TIP3    H235037   5.694   5.782   5.325
 4516TIP3   OH235038   0.108   2.398  14.096
 4516TIP3    H135039   0.031   2.366  14.050
 4516TIP3    H235040   0.180   2.347  14.060
 4517TIP3   OH235041   1.966   6.655  14.400
 4517TIP3    H135042   1.877   6.681  14.376
 4517TIP3    H235043   1.955   6.579  14.456
 4518TIP3   OH235044   5.288   1.467  12.238
 4518TIP3    H135045   5.241   1.443  12.318
 4518TIP3    H235046   5.226   1.448  12.167
 4519TIP3   OH235047   5.002   4.869  12.690
 4519TIP3    H135048   5.001   4.964  12.705
 4519TIP3    H235049   4.914   4.841  12.714
 4520TIP3   OH235050   5.625   3.060   5.330
 4520TIP3    H135051   5.631   3.045   5.424
 4520TIP3    H235052   5.560   3.129   5.321
 4521TIP3   OH235053   5.254   0.547   4.630
 4521TIP3    H135054   5.161   0.525   4.631
 4521TIP3    H235055   5.297   0.472   4.671
 4522TIP3   OH235056   0.755   0.451   1.106
 4522TIP3    H135057   0.667   0.421   1.087
 4522TIP3    H235058   0.786   0.393   1.176
 4523TIP3   OH235059   5.993   1.930   2.400
 4523TIP3    H135060   6.073   1.952   2.447
 4523TIP3    H235061   5.923   1.972   2.450
 4524TIP3   OH235062   0.296   3.187  11.756
 4524TIP3    H135063   0.365   3.253  11.760
 4524TIP3    H235064   0.321   3.122  11.821
 4525TIP3   OH235065   4.598   4.805  14.796
 4525TIP3    H135066   4.565   4.868  14.861
 4525TIP3    H235067   4.677   4.845  14.761
 4526TIP3   OH235068   3.635   2.992   2.434
 4526TIP3    H135069   3.545   2.978   2.463
 4526TIP3    H235070   3.657   3.079   2.467
 4527TIP3   OH235071   0.778   1.161   3.071
 4527TIP3    H135072   0.824   1.182   2.990
 4527TIP3    H235073   0.712   1.096   3.044
 4528TIP3   OH235074   4.808   3.682  17.283
 4528TIP3    H135075   4.773   3.669  17.371
 4528TIP3    H235076   4.885   3.625  17.279
 4529TIP3   OH235077   1.212   6.678   2.344
 4529TIP3    H135078   1.303   6.705   2.335
 4529TIP3    H235079   1.162   6.743   2.294
 4530TIP3   OH235080   0.393   4.393   6.287
 4530TIP3    H135081   0.398   4.298   6.284
 4530TIP3    H235082   0.352   4.413   6.371
 4531TIP3   OH235083   1.001   3.037  15.582
 4531TIP3    H135084   1.044   3.068  15.503
 4531TIP3    H235085   1.022   3.103  15.648
 4532TIP3   OH235086   4.640   0.917   5.641
 4532TIP3    H135087   4.588   0.988   5.602
 4532TIP3    H235088   4.602   0.905   5.728
 4533TIP3   OH235089   5.812   4.171   3.121
 4533TIP3    H135090   5.902   4.146   3.143
 4533TIP3    H235091   5.767   4.089   3.103
 4534TIP3   OH235092   5.518   3.991  17.088
 4534TIP3    H135093   5.578   3.931  17.133
 4534TIP3    H235094   5.541   4.078  17.122
 4535TIP3   OH235095   4.379   4.722  15.187
 4535TIP3    H135096   4.389   4.797  15.128
 4535TIP3    H235097   4.420   4.650  15.139
 4536TIP3   OH235098   5.076   5.271  12.151
 4536TIP3    H135099   5.158   5.222  12.153
 4536TIP3    H235100   5.101   5.359  12.180
 4537TIP3   OH235101   2.990   4.611   4.816
 4537TIP3    H135102   2.945   4.530   4.793
 4537TIP3    H235103   3.052   4.585   4.885
 4538TIP3   OH235104   0.662   1.624  11.492
 4538TIP3    H135105   0.622   1.609  11.407
 4538TIP3    H235106   0.619   1.561  11.550
 4539TIP3   OH235107   4.565   0.195  10.942
 4539TIP3    H135108   4.566   0.260  11.012
 4539TIP3    H235109   4.657   0.180  10.921
 4540TIP3   OH235110   5.444   5.695   0.236
 4540TIP3    H135111   5.478   5.644   0.309
 4540TIP3    H235112   5.408   5.630   0.176
 4541TIP3   OH235113   5.495   1.184   5.660
 4541TIP3    H135114   5.451   1.189   5.575
 4541TIP3    H235115   5.426   1.199   5.724
 4542TIP3   OH235116   0.241   5.427   4.752
 4542TIP3    H135117   0.256   5.335   4.730
 4542TIP3    H235118   0.170   5.454   4.695
 4543TIP3   OH235119   3.851   3.044  14.624
 4543TIP3    H135120   3.869   3.000  14.541
 4543TIP3    H235121   3.852   3.137  14.603
 4544TIP3   OH235122   4.227   3.734   4.137
 4544TIP3    H135123   4.194   3.785   4.063
 4544TIP3    H235124   4.283   3.795   4.186
 4545TIP3   OH235125   1.153   4.136   0.859
 4545TIP3    H135126   1.156   4.079   0.781
 4545TIP3    H235127   1.181   4.221   0.826
 4546TIP3   OH235128   6.547   0.873  11.120
 4546TIP3    H135129   6.492   0.931  11.173
 4546TIP3    H235130   6.530   0.901  11.030
 4547TIP3   OH235131   1.439   2.912   3.295
 4547TIP3    H135132   1.387   2.879   3.368
 4547TIP3    H235133   1.398   2.873   3.217
 4548TIP3   OH235134   3.613   6.145   4.488
 4548TIP3    H135135   3.705   6.136   4.512
 4548TIP3    H235136   3.613   6.156   4.393
 4549TIP3   OH235137   6.334   0.517   4.769
 4549TIP3    H135138   6.367   0.594   4.816
 4549TIP3    H235139   6.363   0.530   4.679
 4550TIP3   OH235140   4.275   4.234  12.692
 4550TIP3    H135141   4.209   4.274  12.636
 4550TIP3    H235142   4.290   4.297  12.762
 4551TIP3   OH235143   6.727   4.128  14.195
 4551TIP3    H135144   6.637   4.147  14.168
 4551TIP3    H235145   6.728   4.144  14.289
 4552TIP3   OH235146   4.064   3.164  13.553
 4552TIP3    H135147   4.082   3.210  13.635
 4552TIP3    H235148   4.128   3.200  13.491
 4553TIP3   OH235149   6.804   5.124   1.634
 4553TIP3    H135150   6.807   5.215   1.602
 4553TIP3    H235151   6.794   5.133   1.729
 4554TIP3   OH235152   1.317   0.645   5.948
 4554TIP3    H135153   1.279   0.649   5.861
 4554TIP3    H235154   1.253   0.596   6.000
 4555TIP3   OH235155   5.650   3.085  12.570
 4555TIP3    H135156   5.683   3.004  12.608
 4555TIP3    H235157   5.574   3.108  12.623
 4556TIP3   OH235158   1.890   2.053   5.171
 4556TIP3    H135159   1.844   2.126   5.214
 4556TIP3    H235160   1.821   2.004   5.127
 4557TIP3   OH235161   6.111   4.762   3.137
 4557TIP3    H135162   6.181   4.749   3.202
 4557TIP3    H235163   6.081   4.674   3.116
 4558TIP3   OH235164   0.979   0.751   5.805
 4558TIP3    H135165   1.032   0.830   5.808
 4558TIP3    H235166   1.042   0.679   5.813
 4559TIP3   OH235167   3.742   5.754  12.882
 4559TIP3    H135168   3.765   5.729  12.792
 4559TIP3    H235169   3.779   5.684  12.936
 4560TIP3   OH235170   2.888   4.305   0.403
 4560TIP3    H135171   2.968   4.253   0.391
 4560TIP3    H235172   2.867   4.295   0.496
 4561TIP3   OH235173   3.515   5.166   1.866
 4561TIP3    H135174   3.421   5.161   1.884
 4561TIP3    H235175   3.539   5.255   1.894
 4562TIP3   OH235176   4.528   3.745  15.580
 4562TIP3    H135177   4.600   3.808  15.578
 4562TIP3    H235178   4.514   3.723  15.488
 4563TIP3   OH235179   3.148   4.334  16.819
 4563TIP3    H135180   3.105   4.264  16.770
 4563TIP3    H235181   3.136   4.412  16.763
 4564TIP3   OH235182   0.685   3.924  14.159
 4564TIP3    H135183   0.705   3.878  14.077
 4564TIP3    H235184   0.698   3.858  14.227
 4565TIP3   OH235185   0.416   1.875   3.334
 4565TIP3    H135186   0.348   1.899   3.272
 4565TIP3    H235187   0.493   1.924   3.307
 4566TIP3   OH235188   6.161   4.796   4.760
 4566TIP3    H135189   6.180   4.767   4.671
 4566TIP3    H235190   6.238   4.770   4.811
 4567TIP3   OH235191   6.200   2.378   0.083
 4567TIP3    H135192   6.143   2.324   0.136
 4567TIP3    H235193   6.278   2.324   0.068
 4568TIP3   OH235194   2.939   3.514  12.163
 4568TIP3    H135195   2.860   3.497  12.113
 4568TIP3    H235196   2.930   3.604  12.194
 4569TIP3   OH235197   1.391   1.109  11.623
 4569TIP3    H135198   1.362   1.070  11.540
 4569TIP3    H235199   1.363   1.047  11.690
 4570TIP3   OH235200   6.578   1.378   0.776
 4570TIP3    H135201   6.598   1.295   0.819
 4570TIP3    H235202   6.662   1.404   0.736
 4571TIP3   OH235203   2.975   1.944   4.596
 4571TIP3    H135204   2.938   1.874   4.541
 4571TIP3    H235205   3.050   1.903   4.639
 4572TIP3   OH235206   3.328   6.817  11.519
 4572TIP3    H135207   3.300   6.844  11.431
 4572TIP3    H235208   3.421   6.796  11.509
 4573TIP3   OH235209   2.396   0.426  13.644
 4573TIP3    H135210   2.425   0.338  13.620
 4573TIP3    H235211   2.389   0.473  13.561
 4574TIP3   OH235212   6.202   6.789  10.593
 4574TIP3    H135213   6.152   6.869  10.603
 4574TIP3    H235214   6.139   6.719  10.610
 4575TIP3   OH235215   1.208   3.962   0.340
 4575TIP3    H135216   1.243   3.887   0.387
 4575TIP3    H235217   1.171   4.018   0.409
 4576TIP3   OH235218   4.489   5.910   6.418
 4576TIP3    H135219   4.480   6.005   6.413
 4576TIP3    H235220   4.400   5.878   6.433
 4577TIP3   OH235221   3.681   4.872  17.191
 4577TIP3    H135222   3.603   4.927  17.196
 4577TIP3    H235223   3.712   4.883  17.101
 4578TIP3   OH235224   5.421   4.359  13.661
 4578TIP3    H135225   5.371   4.287  13.624
 4578TIP3    H235226   5.492   4.374  13.598
 4579TIP3   OH235227   6.594   5.720   2.234
 4579TIP3    H135228   6.650   5.718   2.312
 4579TIP3    H235229   6.656   5.717   2.160
 4580TIP3   OH235230   3.076   4.373  15.145
 4580TIP3    H135231   3.085   4.445  15.082
 4580TIP3    H235232   3.030   4.305  15.097
 4581TIP3   OH235233   4.832   4.339  15.712
 4581TIP3    H135234   4.781   4.270  15.753
 4581TIP3    H235235   4.776   4.371  15.641
 4582TIP3   OH235236   0.048   0.025   3.950
 4582TIP3    H135237  -0.028  -0.030   3.937
 4582TIP3    H235238   0.121  -0.025   3.913
 4583TIP3   OH235239   4.616   4.356   1.829
 4583TIP3    H135240   4.689   4.384   1.885
 4583TIP3    H235241   4.541   4.352   1.889
 4584TIP3   OH235242   5.305   4.145  13.516
 4584TIP3    H135243   5.301   4.095  13.598
 4584TIP3    H235244   5.350   4.087  13.455
 4585TIP3   OH235245   6.648   6.019  11.822
 4585TIP3    H135246   6.590   6.094  11.809
 4585TIP3    H235247   6.665   5.987  11.733
 4586TIP3   OH235248   4.825   0.663   0.694
 4586TIP3    H135249   4.835   0.673   0.599
 4586TIP3    H235250   4.783   0.578   0.705
 4587TIP3   OH235251   4.238   3.445  14.442
 4587TIP3    H135252   4.220   3.367  14.389
 4587TIP3    H235253   4.333   3.449  14.448
 4588TIP3   OH235254   2.757   4.808   1.037
 4588TIP3    H135255   2.707   4.796   1.117
 4588TIP3    H235256   2.783   4.900   1.039
 4589TIP3   OH235257   0.011   4.207   4.871
 4589TIP3    H135258  -0.058   4.140   4.871
 4589TIP3    H235259   0.082   4.169   4.819
 4590TIP3   OH235260   6.125   5.196  13.823
 4590TIP3    H135261   6.172   5.259  13.769
 4590TIP3    H235262   6.034   5.223  13.818
 4591TIP3   OH235263   6.662   5.013  17.233
 4591TIP3    H135264   6.588   5.053  17.280
 4591TIP3    H235265   6.656   4.920  17.254
 4592TIP3   OH235266   5.373   5.512   1.758
 4592TIP3    H135267   5.468   5.527   1.751
 4592TIP3    H235268   5.335   5.571   1.692
 4593TIP3   OH235269   2.425   4.520   4.465
 4593TIP3    H135270   2.382   4.593   4.509
 4593TIP3    H235271   2.510   4.512   4.508
 4594TIP3   OH235272   1.369   6.066   1.574
 4594TIP3    H135273   1.398   6.087   1.486
 4594TIP3    H235274   1.350   6.150   1.615
 4595TIP3   OH235275   4.672   2.147   1.106
 4595TIP3    H135276   4.578   2.156   1.121
 4595TIP3    H235277   4.713   2.185   1.184
 4596TIP3   OH235278   2.866   3.451  15.876
 4596TIP3    H135279   2.866   3.355  15.880
 4596TIP3    H235280   2.910   3.472  15.795
 4597TIP3   OH235281   0.366   4.526   5.614
 4597TIP3    H135282   0.422   4.528   5.537
 4597TIP3    H235283   0.349   4.433   5.629
 4598TIP3   OH235284   4.240   2.795   1.840
 4598TIP3    H135285   4.260   2.863   1.776
 4598TIP3    H235286   4.316   2.736   1.836
 4599TIP3   OH235287   0.832   4.683  13.549
 4599TIP3    H135288   0.823   4.593  13.578
 4599TIP3    H235289   0.898   4.721  13.606
 4600TIP3   OH235290   1.016   6.508   3.285
 4600TIP3    H135291   0.983   6.422   3.258
 4600TIP3    H235292   1.107   6.492   3.309
 4601TIP3   OH235293   0.642   1.888   4.156
 4601TIP3    H135294   0.687   1.908   4.238
 4601TIP3    H235295   0.704   1.913   4.088
 4602TIP3   OH235296   6.809   1.510   1.478
 4602TIP3    H135297   6.780   1.532   1.390
 4602TIP3    H235298   6.775   1.422   1.493
 4603TIP3   OH235299   4.739   5.332   4.579
 4603TIP3    H135300   4.704   5.244   4.593
 4603TIP3    H235301   4.832   5.325   4.599
 4604TIP3   OH235302   2.724   0.584  17.146
 4604TIP3    H135303   2.667   0.563  17.220
 4604TIP3    H235304   2.666   0.622  17.080
 4605TIP3   OH235305   6.255   4.986   2.957
 4605TIP3    H135306   6.185   4.977   3.020
 4605TIP3    H235307   6.335   4.996   3.009
 4606TIP3   OH235308   4.698   4.033  12.416
 4606TIP3    H135309   4.654   4.003  12.496
 4606TIP3    H235310   4.674   4.125  12.409
 4607TIP3   OH235311   1.411   3.678  17.009
 4607TIP3    H135312   1.323   3.655  17.040
 4607TIP3    H235313   1.470   3.628  17.065
 4608TIP3   OH235314   3.189   6.468   3.969
 4608TIP3    H135315   3.153   6.382   3.994
 4608TIP3    H235316   3.205   6.512   4.052
 4609TIP3   OH235317   3.960   5.985  14.010
 4609TIP3    H135318   4.019   6.009  14.082
 4609TIP3    H235319   3.983   6.046  13.939
 4610TIP3   OH235320   6.217   2.315   1.154
 4610TIP3    H135321   6.217   2.411   1.154
 4610TIP3    H235322   6.153   2.291   1.221
 4611TIP3   OH235323   4.936   1.901  13.564
 4611TIP3    H135324   4.980   1.816  13.559
 4611TIP3    H235325   4.936   1.922  13.657
 4612TIP3   OH235326   1.345   2.579   6.098
 4612TIP3    H135327   1.366   2.653   6.040
 4612TIP3    H235328   1.426   2.528   6.101
 4613TIP3   OH235329   3.838   1.084   2.315
 4613TIP3    H135330   3.885   1.162   2.286
 4613TIP3    H235331   3.763   1.078   2.255
 4614TIP3   OH235332   3.136   0.163   5.533
 4614TIP3    H135333   3.133   0.189   5.625
 4614TIP3    H235334   3.064   0.211   5.492
 4615TIP3   OH235335   4.126   1.248   4.879
 4615TIP3    H135336   4.051   1.201   4.841
 4615TIP3    H235337   4.166   1.184   4.938
 4616TIP3   OH235338   5.231   2.717  14.564
 4616TIP3    H135339   5.200   2.629  14.585
 4616TIP3    H235340   5.222   2.724  14.469
 4617TIP3   OH235341   1.713   1.827  14.157
 4617TIP3    H135342   1.705   1.844  14.063
 4617TIP3    H235343   1.713   1.732  14.165
 4618TIP3   OH235344   2.837   4.011   4.084
 4618TIP3    H135345   2.920   3.980   4.121
 4618TIP3    H235346   2.815   4.089   4.134
 4619TIP3   OH235347   5.500   2.054   5.595
 4619TIP3    H135348   5.533   2.140   5.567
 4619TIP3    H235349   5.442   2.027   5.524
 4620TIP3   OH235350   5.003   5.159  12.642
 4620TIP3    H135351   4.970   5.188  12.558
 4620TIP3    H235352   5.010   5.239  12.694
 4621TIP3   OH235353   2.420   1.774  12.308
 4621TIP3    H135354   2.423   1.731  12.223
 4621TIP3    H235355   2.443   1.705  12.370
 4622TIP3   OH235356   4.962   5.267  15.469
 4622TIP3    H135357   5.027   5.255  15.538
 4622TIP3    H235358   4.885   5.304  15.514
 4623TIP3   OH235359   0.166   6.735  15.362
 4623TIP3    H135360   0.080   6.699  15.343
 4623TIP3    H235361   0.160   6.763  15.454
 4624TIP3   OH235362   4.923   3.530  16.524
 4624TIP3    H135363   4.941   3.463  16.459
 4624TIP3    H235364   4.950   3.491  16.608
 4625TIP3   OH235365   3.187   4.315  13.592
 4625TIP3    H135366   3.153   4.361  13.668
 4625TIP3    H235367   3.271   4.356  13.574
 4626TIP3   OH235368   0.721   5.480   3.274
 4626TIP3    H135369   0.707   5.458   3.366
 4626TIP3    H235370   0.653   5.543   3.254
 4627TIP3   OH235371   3.770   2.743  15.876
 4627TIP3    H135372   3.708   2.798  15.924
 4627TIP3    H235373   3.716   2.673  15.839
 4628TIP3   OH235374   4.411   2.734  15.494
 4628TIP3    H135375   4.459   2.810  15.527
 4628TIP3    H235376   4.369   2.696  15.571
 4629TIP3   OH235377   2.171   3.558  14.838
 4629TIP3    H135378   2.111   3.594  14.904
 4629TIP3    H235379   2.255   3.601  14.856
 4630TIP3   OH235380   3.248   1.191  14.104
 4630TIP3    H135381   3.308   1.151  14.042
 4630TIP3    H235382   3.162   1.155  14.080
 4631TIP3   OH235383   5.066   6.277  14.146
 4631TIP3    H135384   5.084   6.259  14.239
 4631TIP3    H235385   5.145   6.247  14.101
 4632TIP3   OH235386   6.729   6.784   4.433
 4632TIP3    H135387   6.645   6.770   4.477
 4632TIP3    H235388   6.723   6.730   4.354
 4633TIP3   OH235389   4.605   2.991   2.104
 4633TIP3    H135390   4.541   3.026   2.167
 4633TIP3    H235391   4.571   3.016   2.018
 4634TIP3   OH235392   6.132   3.320  14.064
 4634TIP3    H135393   6.207   3.293  14.116
 4634TIP3    H235394   6.057   3.309  14.122
 4635TIP3   OH235395   0.178   2.934  13.812
 4635TIP3    H135396   0.196   2.924  13.718
 4635TIP3    H235397   0.265   2.941  13.852
 4636TIP3   OH235398   0.769   6.047   3.113
 4636TIP3    H135399   0.686   6.019   3.151
 4636TIP3    H235400   0.745   6.093   3.033
 4637TIP3   OH235401   5.055   1.120  12.720
 4637TIP3    H135402   4.966   1.138  12.689
 4637TIP3    H235403   5.076   1.192  12.779
 4638TIP3   OH235404   3.408   5.810   5.222
 4638TIP3    H135405   3.436   5.901   5.216
 4638TIP3    H235406   3.489   5.759   5.215
 4639TIP3   OH235407   6.432   6.304  10.987
 4639TIP3    H135408   6.465   6.392  11.006
 4639TIP3    H235409   6.403   6.308  10.896
 4640TIP3   OH235410   0.582   1.324  13.400
 4640TIP3    H135411   0.634   1.402  13.422
 4640TIP3    H235412   0.491   1.354  13.404
 4641TIP3   OH235413   2.275   1.082  12.905
 4641TIP3    H135414   2.214   1.151  12.934
 4641TIP3    H235415   2.303   1.111  12.818
 4642TIP3   OH235416   1.287   6.180  11.962
 4642TIP3    H135417   1.278   6.135  11.878
 4642TIP3    H235418   1.215   6.147  12.016
 4643TIP3   OH235419   6.199   4.263   6.136
 4643TIP3    H135420   6.111   4.300   6.141
 4643TIP3    H235421   6.247   4.306   6.207
 4644TIP3   OH235422   5.417   2.521   5.118
 4644TIP3    H135423   5.388   2.493   5.031
 4644TIP3    H235424   5.341   2.565   5.156
 4645TIP3   OH235425   3.445   6.281  12.060
 4645TIP3    H135426   3.529   6.320  12.036
 4645TIP3    H235427   3.461   6.238  12.144
 4646TIP3   OH235428   4.620   3.096  15.810
 4646TIP3    H135429   4.569   3.159  15.860
 4646TIP3    H235430   4.711   3.120  15.828
 4647TIP3   OH235431   0.235   1.804  15.754
 4647TIP3    H135432   0.161   1.821  15.696
 4647TIP3    H235433   0.196   1.769  15.834
 4648TIP3   OH235434   0.535   0.600   5.374
 4648TIP3    H135435   0.611   0.651   5.401
 4648TIP3    H235436   0.483   0.589   5.453
 4649TIP3   OH235437   0.872   6.097   6.666
 4649TIP3    H135438   0.902   6.024   6.612
 4649TIP3    H235439   0.792   6.128   6.623
 4650TIP3   OH235440   3.752   3.824  16.030
 4650TIP3    H135441   3.767   3.850  16.121
 4650TIP3    H235442   3.667   3.781  16.031
 4651TIP3   OH235443   5.974   2.376   2.113
 4651TIP3    H135444   5.898   2.434   2.121
 4651TIP3    H235445   5.956   2.323   2.035
 4652TIP3   OH235446   4.110   5.884   3.841
 4652TIP3    H135447   4.022   5.891   3.802
 4652TIP3    H235448   4.103   5.932   3.924
 4653TIP3   OH235449   5.708   1.811   3.080
 4653TIP3    H135450   5.639   1.766   3.130
 4653TIP3    H235451   5.686   1.904   3.087
 4654TIP3   OH235452   4.461   3.865  12.231
 4654TIP3    H135453   4.410   3.797  12.187
 4654TIP3    H235454   4.419   3.877  12.315
 4655TIP3   OH235455   5.761   3.897  17.249
 4655TIP3    H135456   5.787   3.874  17.160
 4655TIP3    H235457   5.787   3.823  17.302
 4656TIP3   OH235458   3.229   5.789  13.386
 4656TIP3    H135459   3.188   5.827  13.464
 4656TIP3    H235460   3.280   5.861  13.349
 4657TIP3   OH235461   0.594   6.716   0.125
 4657TIP3    H135462   0.515   6.683   0.080
 4657TIP3    H235463   0.665   6.661   0.091
 4658TIP3   OH235464   4.925   3.386  13.023
 4658TIP3    H135465   4.951   3.400  12.932
 4658TIP3    H235466   4.959   3.299  13.044
 4659TIP3   OH235467   0.851   0.968  14.441
 4659TIP3    H135468   0.804   0.975  14.525
 4659TIP3    H235469   0.876   0.876  14.435
 4660TIP3   OH235470   4.384   4.031   2.261
 4660TIP3    H135471   4.394   3.954   2.318
 4660TIP3    H235472   4.291   4.033   2.240
 4661TIP3   OH235473   1.582   2.422   1.983
 4661TIP3    H135474   1.555   2.485   1.916
 4661TIP3    H235475   1.665   2.455   2.015
 4662TIP3   OH235476   2.445   6.518  14.606
 4662TIP3    H135477   2.432   6.426  14.584
 4662TIP3    H235478   2.540   6.531  14.601
 4663TIP3   OH235479   5.099   5.474  15.922
 4663TIP3    H135480   5.151   5.396  15.901
 4663TIP3    H235481   5.015   5.458  15.881
 4664TIP3   OH235482   0.565   5.055  15.557
 4664TIP3    H135483   0.596   5.042  15.647
 4664TIP3    H235484   0.622   5.122  15.521
 4665TIP3   OH235485   6.022   3.778  14.897
 4665TIP3    H135486   5.942   3.826  14.875
 4665TIP3    H235487   6.011   3.692  14.857
 4666TIP3   OH235488   0.116   3.160   2.211
 4666TIP3    H135489   0.057   3.155   2.286
 4666TIP3    H235490   0.198   3.121   2.241
 4667TIP3   OH235491   1.409   2.188  16.614
 4667TIP3    H135492   1.425   2.282  16.600
 4667TIP3    H235493   1.492   2.154  16.648
 4668TIP3   OH235494   3.352   4.483   3.776
 4668TIP3    H135495   3.416   4.416   3.801
 4668TIP3    H235496   3.304   4.445   3.703
 4669TIP3   OH235497   6.644   3.243   6.100
 4669TIP3    H135498   6.629   3.259   6.007
 4669TIP3    H235499   6.610   3.155   6.115
 4670TIP3   OH235500   2.815   2.479  14.935
 4670TIP3    H135501   2.849   2.530  15.009
 4670TIP3    H235502   2.888   2.476  14.873
 4671TIP3   OH235503   3.704   4.399  16.753
 4671TIP3    H135504   3.672   4.475  16.704
 4671TIP3    H235505   3.684   4.420  16.844
 4672TIP3   OH235506   1.810   6.701   5.870
 4672TIP3    H135507   1.831   6.635   5.804
 4672TIP3    H235508   1.720   6.727   5.850
 4673TIP3   OH235509   3.711   3.807   2.106
 4673TIP3    H135510   3.723   3.835   2.196
 4673TIP3    H235511   3.664   3.724   2.113
 4674TIP3   OH235512   6.631   3.003  16.239
 4674TIP3    H135513   6.718   3.006  16.200
 4674TIP3    H235514   6.584   3.077  16.201
 4675TIP3   OH235515   0.628   4.965   6.658
 4675TIP3    H135516   0.561   4.928   6.600
 4675TIP3    H235517   0.584   5.037   6.703
 4676TIP3   OH235518   5.758   5.631   3.247
 4676TIP3    H135519   5.777   5.683   3.169
 4676TIP3    H235520   5.844   5.614   3.285
 4677TIP3   OH235521   2.741   2.153   6.100
 4677TIP3    H135522   2.655   2.112   6.092
 4677TIP3    H235523   2.787   2.100   6.165
 4678TIP3   OH235524   1.241   6.351  14.174
 4678TIP3    H135525   1.300   6.379  14.244
 4678TIP3    H235526   1.300   6.325  14.103
 4679TIP3   OH235527   1.539   6.067   4.879
 4679TIP3    H135528   1.457   6.115   4.889
 4679TIP3    H235529   1.600   6.112   4.938
 4680TIP3   OH235530   2.028   1.696  13.342
 4680TIP3    H135531   1.935   1.693  13.321
 4680TIP3    H235532   2.037   1.763  13.409
 4681TIP3   OH235533   6.351   6.813   1.552
 4681TIP3    H135534   6.370   6.801   1.459
 4681TIP3    H235535   6.369   6.905   1.569
 4682TIP3   OH235536   3.294   4.313  15.293
 4682TIP3    H135537   3.215   4.325  15.241
 4682TIP3    H235538   3.263   4.314  15.384
 4683TIP3   OH235539   2.286   0.117  13.017
 4683TIP3    H135540   2.280   0.074  12.932
 4683TIP3    H235541   2.250   0.053  13.079
 4684TIP3   OH235542   1.683   5.032   4.809
 4684TIP3    H135543   1.724   4.978   4.742
 4684TIP3    H235544   1.709   5.121   4.787
 4685TIP3   OH235545   3.097   1.854  14.086
 4685TIP3    H135546   3.177   1.824  14.042
 4685TIP3    H235547   3.055   1.913  14.023
 4686TIP3   OH235548   6.394   5.711   6.939
 4686TIP3    H135549   6.344   5.639   6.977
 4686TIP3    H235550   6.329   5.771   6.903
 4687TIP3   OH235551   5.957   5.011  15.099
 4687TIP3    H135552   6.028   4.961  15.060
 4687TIP3    H235553   6.001   5.082  15.147
 4688TIP3   OH235554   5.391   2.871   2.580
 4688TIP3    H135555   5.326   2.854   2.512
 4688TIP3    H235556   5.471   2.830   2.548
 4689TIP3   OH235557   2.394   0.678   4.219
 4689TIP3    H135558   2.450   0.685   4.142
 4689TIP3    H235559   2.305   0.681   4.184
 4690TIP3   OH235560   3.560   6.210  16.070
 4690TIP3    H135561   3.505   6.216  16.148
 4690TIP3    H235562   3.596   6.298  16.060
 4691TIP3   OH235563   2.468   0.964   2.313
 4691TIP3    H135564   2.524   0.920   2.249
 4691TIP3    H235565   2.495   0.927   2.398
 4692TIP3   OH235566   6.291   3.546   1.641
 4692TIP3    H135567   6.361   3.548   1.575
 4692TIP3    H235568   6.307   3.465   1.690
 4693TIP3   OH235569   6.319   3.360  16.505
 4693TIP3    H135570   6.298   3.405  16.586
 4693TIP3    H235571   6.365   3.281  16.532
 4694TIP3   OH235572   2.846   3.178   0.864
 4694TIP3    H135573   2.875   3.089   0.883
 4694TIP3    H235574   2.762   3.186   0.908
 4695TIP3   OH235575   1.450   2.198  13.415
 4695TIP3    H135576   1.498   2.278  13.395
 4695TIP3    H235577   1.504   2.127  13.381
 4696TIP3   OH235578   2.557   1.178  15.546
 4696TIP3    H135579   2.479   1.128  15.524
 4696TIP3    H235580   2.619   1.159  15.476
 4697TIP3   OH235581   3.770   0.551   2.357
 4697TIP3    H135582   3.859   0.523   2.333
 4697TIP3    H235583   3.774   0.646   2.356
 4698TIP3   OH235584   0.268   2.017   4.995
 4698TIP3    H135585   0.265   2.047   4.904
 4698TIP3    H235586   0.323   1.939   4.993
 4699TIP3   OH235587   1.039   1.137   4.948
 4699TIP3    H135588   0.980   1.211   4.962
 4699TIP3    H235589   1.028   1.083   5.027
 4700TIP3   OH235590   1.581   5.821  11.068
 4700TIP3    H135591   1.515   5.762  11.104
 4700TIP3    H235592   1.600   5.785  10.981
 4701TIP3   OH235593   6.220   0.675  13.368
 4701TIP3    H135594   6.214   0.718  13.282
 4701TIP3    H235595   6.166   0.729  13.425
 4702TIP3   OH235596   4.275   6.444   1.602
 4702TIP3    H135597   4.320   6.399   1.531
 4702TIP3    H235598   4.311   6.405   1.682
 4703TIP3   OH235599   2.514   1.775   5.749
 4703TIP3    H135600   2.482   1.864   5.735
 4703TIP3    H235601   2.574   1.782   5.824
 4704TIP3   OH235602   1.493   5.659   5.608
 4704TIP3    H135603   1.552   5.585   5.592
 4704TIP3    H235604   1.420   5.621   5.656
 4705TIP3   OH235605   0.110   5.488   5.167
 4705TIP3    H135606   0.091   5.436   5.088
 4705TIP3    H235607   0.204   5.500   5.166
 4706TIP3   OH235608   6.650   0.922   4.260
 4706TIP3    H135609   6.695   1.004   4.243
 4706TIP3    H235610   6.634   0.922   4.355
 4707TIP3   OH235611   1.492   5.211  13.094
 4707TIP3    H135612   1.406   5.241  13.124
 4707TIP3    H235613   1.531   5.289  13.055
 4708TIP3   OH235614   3.094   4.297  13.217
 4708TIP3    H135615   3.019   4.309  13.160
 4708TIP3    H235616   3.088   4.207  13.248
 4709TIP3   OH235617   3.175   1.629   2.273
 4709TIP3    H135618   3.202   1.651   2.184
 4709TIP3    H235619   3.202   1.538   2.284
 4710TIP3   OH235620   4.828   4.788   0.516
 4710TIP3    H135621   4.736   4.799   0.493
 4710TIP3    H235622   4.835   4.695   0.540
 4711TIP3   OH235623   0.160   1.357  16.904
 4711TIP3    H135624   0.143   1.353  16.810
 4711TIP3    H235625   0.165   1.451  16.923
 4712TIP3   OH235626   0.009   1.735   0.352
 4712TIP3    H135627  -0.020   1.794   0.422
 4712TIP3    H235628   0.103   1.751   0.345
 4713TIP3   OH235629   1.915   1.755  15.589
 4713TIP3    H135630   1.848   1.819  15.614
 4713TIP3    H235631   1.868   1.689  15.539
 4714TIP3   OH235632   2.864   4.789  14.819
 4714TIP3    H135633   2.881   4.820  14.908
 4714TIP3    H235634   2.876   4.866  14.764
 4715TIP3   OH235635   2.853   5.887   3.557
 4715TIP3    H135636   2.892   5.847   3.479
 4715TIP3    H235637   2.774   5.930   3.524
 4716TIP3   OH235638   1.265   4.902   1.196
 4716TIP3    H135639   1.293   4.821   1.154
 4716TIP3    H235640   1.272   4.969   1.128
 4717TIP3   OH235641   4.993   3.862   3.323
 4717TIP3    H135642   4.934   3.806   3.273
 4717TIP3    H235643   5.079   3.821   3.311
 4718TIP3   OH235644   0.826   1.563   3.634
 4718TIP3    H135645   0.830   1.467   3.636
 4718TIP3    H235646   0.855   1.590   3.721
 4719TIP3   OH235647   3.688   3.306  17.035
 4719TIP3    H135648   3.612   3.357  17.063
 4719TIP3    H235649   3.714   3.257  17.114
 4720TIP3   OH235650   0.125   6.800  16.108
 4720TIP3    H135651   0.204   6.851  16.088
 4720TIP3    H235652   0.136   6.775  16.200
 4721TIP3   OH235653   3.532   6.449  12.422
 4721TIP3    H135654   3.506   6.420  12.509
 4721TIP3    H235655   3.489   6.534  12.411
 4722TIP3   OH235656   0.602   3.280   0.939
 4722TIP3    H135657   0.650   3.238   0.868
 4722TIP3    H235658   0.510   3.268   0.916
 4723TIP3   OH235659   0.854   4.258  17.108
 4723TIP3    H135660   0.778   4.288  17.059
 4723TIP3    H235661   0.820   4.185  17.161
 4724TIP3   OH235662   1.058   6.591  15.596
 4724TIP3    H135663   1.098   6.505  15.604
 4724TIP3    H235664   0.967   6.574  15.571
 4725TIP3   OH235665   5.381   3.101  16.464
 4725TIP3    H135666   5.433   3.114  16.384
 4725TIP3    H235667   5.446   3.090  16.533
 4726TIP3   OH235668   0.860   6.368  14.842
 4726TIP3    H135669   0.868   6.345  14.935
 4726TIP3    H235670   0.913   6.447  14.833
 4727TIP3   OH235671   2.462   2.393  12.579
 4727TIP3    H135672   2.402   2.460  12.545
 4727TIP3    H235673   2.464   2.326  12.511
 4728TIP3   OH235674   4.703   2.942   2.765
 4728TIP3    H135675   4.638   2.890   2.813
 4728TIP3    H235676   4.691   2.916   2.674
 4729TIP3   OH235677   6.244   2.408   6.135
 4729TIP3    H135678   6.272   2.485   6.085
 4729TIP3    H235679   6.152   2.424   6.155
 4730TIP3   OH235680   1.605   5.773  10.810
 4730TIP3    H135681   1.669   5.788  10.740
 4730TIP3    H235682   1.541   5.843  10.800
 4731TIP3   OH235683   2.462   5.141   5.791
 4731TIP3    H135684   2.398   5.201   5.753
 4731TIP3    H235685   2.522   5.197   5.841
 4732TIP3   OH235686   2.146   2.788  15.891
 4732TIP3    H135687   2.089   2.837  15.950
 4732TIP3    H235688   2.139   2.697  15.920
 4733TIP3   OH235689   2.230   1.536   5.308
 4733TIP3    H135690   2.184   1.461   5.270
 4733TIP3    H235691   2.270   1.501   5.388
 4734TIP3   OH235692   0.308   1.782   5.330
 4734TIP3    H135693   0.286   1.870   5.361
 4734TIP3    H235694   0.238   1.760   5.269
 4735TIP3   OH235695   6.077   4.851   3.855
 4735TIP3    H135696   6.019   4.776   3.863
 4735TIP3    H235697   6.125   4.853   3.938
 4736TIP3   OH235698   4.022   3.255   0.236
 4736TIP3    H135699   4.023   3.176   0.290
 4736TIP3    H235700   4.018   3.327   0.298
 4737TIP3   OH235701   3.866   1.935  13.124
 4737TIP3    H135702   3.823   1.851  13.110
 4737TIP3    H235703   3.916   1.950  13.044
 4738TIP3   OH235704   5.450   0.888  10.804
 4738TIP3    H135705   5.376   0.865  10.748
 4738TIP3    H235706   5.501   0.807  10.809
 4739TIP3   OH235707   6.524   0.859   2.134
 4739TIP3    H135708   6.543   0.950   2.113
 4739TIP3    H235709   6.464   0.830   2.065
 4740TIP3   OH235710   6.317   1.006   6.226
 4740TIP3    H135711   6.312   1.100   6.244
 4740TIP3    H235712   6.294   0.965   6.309
 4741TIP3   OH235713   5.931   2.842   2.477
 4741TIP3    H135714   5.967   2.756   2.456
 4741TIP3    H235715   5.935   2.847   2.572
 4742TIP3   OH235716   5.872   3.198   3.416
 4742TIP3    H135717   5.846   3.106   3.420
 4742TIP3    H235718   5.793   3.243   3.387
 4743TIP3   OH235719   6.173   2.153   3.881
 4743TIP3    H135720   6.163   2.068   3.924
 4743TIP3    H235721   6.252   2.190   3.921
 4744TIP3   OH235722   4.954   5.802  14.385
 4744TIP3    H135723   4.957   5.756  14.301
 4744TIP3    H235724   4.910   5.884  14.366
 4745TIP3   OH235725   2.394   3.771   3.637
 4745TIP3    H135726   2.390   3.731   3.724
 4745TIP3    H235727   2.379   3.698   3.577
 4746TIP3   OH235728   5.726   2.315  14.176
 4746TIP3    H135729   5.821   2.320  14.186
 4746TIP3    H235730   5.711   2.317  14.082
 4747TIP3   OH235731   4.874   3.013  12.865
 4747TIP3    H135732   4.900   3.057  12.946
 4747TIP3    H235733   4.859   2.922  12.892
 4748TIP3   OH235734   4.024   4.176   0.358
 4748TIP3    H135735   3.937   4.176   0.397
 4748TIP3    H235736   4.031   4.261   0.315
 4749TIP3   OH235737   3.776   3.896  16.291
 4749TIP3    H135738   3.702   3.904  16.351
 4749TIP3    H235739   3.846   3.857  16.343
 4750TIP3   OH235740   1.075   6.445   2.493
 4750TIP3    H135741   1.116   6.516   2.444
 4750TIP3    H235742   0.981   6.460   2.484
 4751TIP3   OH235743   3.084   5.766  13.664
 4751TIP3    H135744   3.006   5.795  13.616
 4751TIP3    H235745   3.078   5.671  13.666
 4752TIP3   OH235746   2.250   1.531   0.462
 4752TIP3    H135747   2.221   1.441   0.472
 4752TIP3    H235748   2.289   1.554   0.546
 4753TIP3   OH235749   0.676   4.912  11.366
 4753TIP3    H135750   0.746   4.940  11.307
 4753TIP3    H235751   0.623   4.851  11.315
 4754TIP3   OH235752   5.060   3.331  10.989
 4754TIP3    H135753   5.053   3.304  10.897
 4754TIP3    H235754   5.000   3.405  10.997
 4755TIP3   OH235755   4.275   6.658  11.201
 4755TIP3    H135756   4.229   6.733  11.164
 4755TIP3    H235757   4.209   6.611  11.252
 4756TIP3   OH235758   5.001   3.800  15.529
 4756TIP3    H135759   5.070   3.778  15.591
 4756TIP3    H235760   5.019   3.745  15.453
 4757TIP3   OH235761   2.617   2.349   1.162
 4757TIP3    H135762   2.681   2.389   1.220
 4757TIP3    H235763   2.597   2.417   1.097
 4758TIP3   OH235764   3.706   0.127  14.437
 4758TIP3    H135765   3.646   0.059  14.407
 4758TIP3    H235766   3.725   0.105  14.528
 4759TIP3   OH235767   2.345   4.048  10.609
 4759TIP3    H135768   2.371   4.117  10.548
 4759TIP3    H235769   2.280   4.089  10.666
 4760TIP3   OH235770   5.525   3.247   4.976
 4760TIP3    H135771   5.468   3.324   4.975
 4760TIP3    H235772   5.522   3.216   5.067
 4761TIP3   OH235773   5.909   2.313  12.681
 4761TIP3    H135774   5.819   2.317  12.648
 4761TIP3    H235775   5.900   2.273  12.768
 4762TIP3   OH235776   0.173   2.454   3.072
 4762TIP3    H135777   0.120   2.500   3.008
 4762TIP3    H235778   0.130   2.369   3.082
 4763TIP3   OH235779   3.278   2.147   1.077
 4763TIP3    H135780   3.325   2.135   0.994
 4763TIP3    H235781   3.193   2.183   1.051
 4764TIP3   OH235782   6.690   1.332  15.541
 4764TIP3    H135783   6.711   1.371  15.626
 4764TIP3    H235784   6.773   1.330  15.494
 4765TIP3   OH235785   1.745   1.892  14.425
 4765TIP3    H135786   1.667   1.847  14.457
 4765TIP3    H235787   1.742   1.881  14.330
 4766TIP3   OH235788   5.754   4.848   3.992
 4766TIP3    H135789   5.836   4.802   4.012
 4766TIP3    H235790   5.686   4.786   4.018
 4767TIP3   OH235791   1.585   1.560  14.102
 4767TIP3    H135792   1.537   1.478  14.113
 4767TIP3    H235793   1.653   1.557  14.169
 4768TIP3   OH235794   6.261   0.676   2.296
 4768TIP3    H135795   6.312   0.669   2.377
 4768TIP3    H235796   6.180   0.720   2.322
 4769TIP3   OH235797   4.984   2.328   3.358
 4769TIP3    H135798   4.918   2.397   3.357
 4769TIP3    H235799   4.952   2.265   3.422
 4770TIP3   OH235800   2.756   1.692   0.671
 4770TIP3    H135801   2.767   1.607   0.628
 4770TIP3    H235802   2.678   1.682   0.726
 4771TIP3   OH235803   3.419   3.840  15.337
 4771TIP3    H135804   3.398   3.883  15.254
 4771TIP3    H235805   3.514   3.827  15.334
 4772TIP3   OH235806   0.051   2.938  14.807
 4772TIP3    H135807   0.103   2.974  14.879
 4772TIP3    H235808   0.037   2.847  14.831
 4773TIP3   OH235809   3.378   0.949   1.052
 4773TIP3    H135810   3.283   0.946   1.059
 4773TIP3    H235811   3.405   0.857   1.060
 4774TIP3   OH235812   1.134   1.244  16.445
 4774TIP3    H135813   1.198   1.311  16.471
 4774TIP3    H235814   1.063   1.293  16.404
 4775TIP3   OH235815   0.094   0.901   3.477
 4775TIP3    H135816   0.165   0.965   3.484
 4775TIP3    H235817   0.128   0.823   3.520
 4776TIP3   OH235818   5.779   5.359   0.948
 4776TIP3    H135819   5.849   5.329   0.890
 4776TIP3    H235820   5.702   5.363   0.891
 4777TIP3   OH235821   0.684   1.748   1.412
 4777TIP3    H135822   0.740   1.726   1.487
 4777TIP3    H235823   0.620   1.677   1.409
 4778TIP3   OH235824   1.608   4.712   2.100
 4778TIP3    H135825   1.703   4.728   2.101
 4778TIP3    H235826   1.589   4.682   2.012
 4779TIP3   OH235827   4.978   5.761   2.853
 4779TIP3    H135828   4.936   5.678   2.829
 4779TIP3    H235829   5.001   5.751   2.945
 4780TIP3   OH235830   0.940   1.644  12.939
 4780TIP3    H135831   0.927   1.700  12.863
 4780TIP3    H235832   1.030   1.613  12.932
 4781TIP3   OH235833   5.352   4.873   1.670
 4781TIP3    H135834   5.367   4.836   1.583
 4781TIP3    H235835   5.433   4.919   1.690
 4782TIP3   OH235836   4.259   3.893   1.000
 4782TIP3    H135837   4.182   3.888   1.057
 4782TIP3    H235838   4.312   3.818   1.025
 4783TIP3   OH235839   3.944   4.179   3.146
 4783TIP3    H135840   4.000   4.149   3.218
 4783TIP3    H235841   3.999   4.242   3.098
 4784TIP3   OH235842   0.126   4.524  16.605
 4784TIP3    H135843   0.190   4.480  16.660
 4784TIP3    H235844   0.173   4.597  16.566
 4785TIP3   OH235845   0.395   5.139   1.237
 4785TIP3    H135846   0.389   5.232   1.218
 4785TIP3    H235847   0.376   5.096   1.154
 4786TIP3   OH235848   3.277   1.301   5.789
 4786TIP3    H135849   3.283   1.241   5.864
 4786TIP3    H235850   3.273   1.243   5.712
 4787TIP3   OH235851   1.166   2.183  14.729
 4787TIP3    H135852   1.175   2.278  14.720
 4787TIP3    H235853   1.236   2.147  14.674
 4788TIP3   OH235854   3.907   1.713  15.310
 4788TIP3    H135855   3.837   1.742  15.369
 4788TIP3    H235856   3.883   1.623  15.286
 4789TIP3   OH235857   4.920   1.501   5.136
 4789TIP3    H135858   4.941   1.516   5.228
 4789TIP3    H235859   4.828   1.472   5.137
 4790TIP3   OH235860   3.099   5.093  11.536
 4790TIP3    H135861   3.066   5.004  11.545
 4790TIP3    H235862   3.073   5.120  11.447
 4791TIP3   OH235863   1.356   1.207   0.876
 4791TIP3    H135864   1.392   1.144   0.814
 4791TIP3    H235865   1.420   1.278   0.878
 4792TIP3   OH235866   1.082   0.298   5.137
 4792TIP3    H135867   0.999   0.279   5.182
 4792TIP3    H235868   1.102   0.217   5.090
 4793TIP3   OH235869   4.002   1.026   4.797
 4793TIP3    H135870   4.003   1.022   4.701
 4793TIP3    H235871   3.922   0.979   4.822
 4794TIP3   OH235872   0.551   5.606  11.768
 4794TIP3    H135873   0.510   5.653  11.695
 4794TIP3    H235874   0.535   5.662  11.844
 4795TIP3   OH235875   3.586   2.743  14.478
 4795TIP3    H135876   3.501   2.786  14.492
 4795TIP3    H235877   3.596   2.739  14.383
 4796TIP3   OH235878   5.024   5.913   0.617
 4796TIP3    H135879   5.111   5.944   0.593
 4796TIP3    H235880   4.986   5.984   0.669
 4797TIP3   OH235881   0.396   0.460  11.914
 4797TIP3    H135882   0.346   0.379  11.929
 4797TIP3    H235883   0.432   0.450  11.826
 4798TIP3   OH235884   1.338   2.041  14.346
 4798TIP3    H135885   1.289   2.122  14.333
 4798TIP3    H235886   1.362   2.013  14.258
 4799TIP3   OH235887   4.781   2.388   0.560
 4799TIP3    H135888   4.707   2.353   0.610
 4799TIP3    H235889   4.840   2.425   0.626
 4800TIP3   OH235890   6.308   5.307  11.984
 4800TIP3    H135891   6.384   5.311  11.927
 4800TIP3    H235892   6.266   5.393  11.975
 4801TIP3   OH235893   4.909   6.494   0.840
 4801TIP3    H135894   4.833   6.439   0.818
 4801TIP3    H235895   4.881   6.582   0.817
 4802TIP3   OH235896   1.470   6.053  16.691
 4802TIP3    H135897   1.475   6.148  16.700
 4802TIP3    H235898   1.402   6.038  16.626
 4803TIP3   OH235899   2.647   2.418  13.614
 4803TIP3    H135900   2.693   2.348  13.567
 4803TIP3    H235901   2.636   2.487  13.549
 4804TIP3   OH235902   5.828   6.584  15.262
 4804TIP3    H135903   5.845   6.669  15.223
 4804TIP3    H235904   5.839   6.522  15.190
 4805TIP3   OH235905   2.930   2.738   5.929
 4805TIP3    H135906   2.974   2.813   5.888
 4805TIP3    H235907   2.983   2.717   6.005
 4806TIP3   OH235908   4.761   0.677  12.803
 4806TIP3    H135909   4.856   0.667  12.807
 4806TIP3    H235910   4.747   0.769  12.826
 4807TIP3   OH235911   5.312   3.446  17.104
 4807TIP3    H135912   5.239   3.405  17.149
 4807TIP3    H235913   5.296   3.428  17.011
 4808TIP3   OH235914   1.563   6.704  13.713
 4808TIP3    H135915   1.564   6.762  13.789
 4808TIP3    H235916   1.479   6.721  13.671
 4809TIP3   OH235917   2.983   5.689  12.098
 4809TIP3    H135918   2.911   5.741  12.135
 4809TIP3    H235919   3.005   5.735  12.017
 4810TIP3   OH235920   3.019   5.682  12.789
 4810TIP3    H135921   2.963   5.723  12.856
 4810TIP3    H235922   3.064   5.755  12.748
 4811TIP3   OH235923   6.173   0.883   2.899
 4811TIP3    H135924   6.159   0.970   2.862
 4811TIP3    H235925   6.235   0.897   2.971
 4812TIP3   OH235926   4.255   3.751   4.603
 4812TIP3    H135927   4.177   3.738   4.657
 4812TIP3    H235928   4.327   3.756   4.665
 4813TIP3   OH235929   3.860   1.226  13.739
 4813TIP3    H135930   3.817   1.148  13.775
 4813TIP3    H235931   3.855   1.291  13.809
 4814TIP3   OH235932   1.852   2.658   4.828
 4814TIP3    H135933   1.892   2.685   4.745
 4814TIP3    H235934   1.765   2.697   4.826
 4815TIP3   OH235935   5.917   5.034  13.401
 4815TIP3    H135936   5.999   5.046  13.449
 4815TIP3    H235937   5.878   4.956  13.439
 4816TIP3   OH235938   5.743   0.288   1.389
 4816TIP3    H135939   5.686   0.226   1.437
 4816TIP3    H235940   5.683   0.337   1.333
 4817TIP3   OH235941   2.716   0.219  13.906
 4817TIP3    H135942   2.759   0.260  13.831
 4817TIP3    H235943   2.725   0.125  13.891
 4818TIP3   OH235944   3.780   3.537   5.796
 4818TIP3    H135945   3.753   3.474   5.729
 4818TIP3    H235946   3.697   3.573   5.829
 4819TIP3   OH235947   1.473   5.497  14.899
 4819TIP3    H135948   1.495   5.404  14.909
 4819TIP3    H235949   1.441   5.505  14.810
 4820TIP3   OH235950   3.838   4.226  17.230
 4820TIP3    H135951   3.784   4.175  17.292
 4820TIP3    H235952   3.776   4.282  17.185
 4821TIP3   OH235953   1.495   3.614   3.551
 4821TIP3    H135954   1.499   3.536   3.606
 4821TIP3    H235955   1.497   3.687   3.613
 4822TIP3   OH235956   4.088   4.458   0.358
 4822TIP3    H135957   4.104   4.525   0.424
 4822TIP3    H235958   4.023   4.498   0.300
 4823TIP3   OH235959   1.067   5.479  17.192
 4823TIP3    H135960   1.114   5.451  17.114
 4823TIP3    H235961   0.974   5.477  17.167
 4824TIP3   OH235962   6.093   2.988   0.361
 4824TIP3    H135963   6.048   2.908   0.388
 4824TIP3    H235964   6.065   3.054   0.425
 4825TIP3   OH235965   6.712   2.315  11.504
 4825TIP3    H135966   6.777   2.353  11.444
 4825TIP3    H235967   6.693   2.229  11.467
 4826TIP3   OH235968   0.972   1.817   4.824
 4826TIP3    H135969   0.895   1.761   4.834
 4826TIP3    H235970   1.044   1.756   4.809
 4827TIP3   OH235971   5.126   3.288  16.517
 4827TIP3    H135972   5.065   3.303  16.445
 4827TIP3    H235973   5.209   3.325  16.487
 4828TIP3   OH235974   2.416   5.985   6.526
 4828TIP3    H135975   2.325   6.011   6.539
 4828TIP3    H235976   2.465   6.039   6.589
 4829TIP3   OH235977   2.744   4.000   6.240
 4829TIP3    H135978   2.752   3.923   6.183
 4829TIP3    H235979   2.801   4.065   6.201
 4830TIP3   OH235980   2.131   3.557  13.290
 4830TIP3    H135981   2.078   3.586  13.216
 4830TIP3    H235982   2.211   3.522  13.251
 4831TIP3   OH235983   0.146   4.218  11.732
 4831TIP3    H135984   0.121   4.165  11.807
 4831TIP3    H235985   0.159   4.306  11.768
 4832TIP3   OH235986   3.676   5.755  15.488
 4832TIP3    H135987   3.741   5.704  15.439
 4832TIP3    H235988   3.592   5.714  15.466
 4833TIP3   OH235989   0.873   0.553  13.194
 4833TIP3    H135990   0.852   0.461  13.176
 4833TIP3    H235991   0.864   0.597  13.110
 4834TIP3   OH235992   1.703   2.219  14.850
 4834TIP3    H135993   1.679   2.268  14.928
 4834TIP3    H235994   1.745   2.139  14.882
 4835TIP3   OH235995   4.334   6.531   4.271
 4835TIP3    H135996   4.304   6.622   4.275
 4835TIP3    H235997   4.419   6.535   4.228
 4836TIP3   OH235998   4.391   4.646  13.514
 4836TIP3    H135999   4.331   4.659  13.587
 4836TIP3    H236000   4.360   4.565  13.472
 4837TIP3   OH236001   1.001   3.036   5.257
 4837TIP3    H136002   1.031   3.079   5.337
 4837TIP3    H236003   1.044   3.084   5.186
 4838TIP3   OH236004   2.829   6.559   4.639
 4838TIP3    H136005   2.805   6.640   4.595
 4838TIP3    H236006   2.853   6.499   4.569
 4839TIP3   OH236007   5.120   4.022  11.850
 4839TIP3    H136008   5.169   4.060  11.777
 4839TIP3    H236009   5.058   3.962  11.809
 4840TIP3   OH236010   6.109   1.814   1.414
 4840TIP3    H136011   6.067   1.845   1.334
 4840TIP3    H236012   6.113   1.719   1.403
 4841TIP3   OH236013   3.416   3.610  15.116
 4841TIP3    H136014   3.505   3.637  15.138
 4841TIP3    H236015   3.397   3.658  15.035
 4842TIP3   OH236016   1.161   3.311   2.182
 4842TIP3    H136017   1.215   3.233   2.190
 4842TIP3    H236018   1.220   3.384   2.201
 4843TIP3   OH236019   3.413   3.888   4.156
 4843TIP3    H136020   3.341   3.945   4.185
 4843TIP3    H236021   3.492   3.937   4.178
 4844TIP3   OH236022   5.213   3.936   5.504
 4844TIP3    H136023   5.145   3.983   5.455
 4844TIP3    H236024   5.200   3.844   5.481
 4845TIP3   OH236025   3.929   2.499  12.852
 4845TIP3    H136026   3.965   2.562  12.790
 4845TIP3    H236027   3.835   2.500  12.835
 4846TIP3   OH236028   1.041   4.650   2.142
 4846TIP3    H136029   1.003   4.598   2.212
 4846TIP3    H236030   1.095   4.715   2.187
 4847TIP3   OH236031   6.060   2.265   1.819
 4847TIP3    H136032   6.127   2.206   1.784
 4847TIP3    H236033   5.993   2.207   1.855
 4848TIP3   OH236034   0.530   1.591   3.594
 4848TIP3    H136035   0.624   1.599   3.610
 4848TIP3    H236036   0.496   1.680   3.607
 4849TIP3   OH236037   1.179   5.710  10.931
 4849TIP3    H136038   1.188   5.620  10.900
 4849TIP3    H236039   1.088   5.733  10.910
 4850TIP3   OH236040   6.286   2.164  15.928
 4850TIP3    H136041   6.196   2.163  15.960
 4850TIP3    H236042   6.278   2.138  15.836
 4851TIP3   OH236043   1.528   0.219   1.084
 4851TIP3    H136044   1.448   0.204   1.134
 4851TIP3    H236045   1.571   0.292   1.128
 4852TIP3   OH236046   3.814   4.914  16.934
 4852TIP3    H136047   3.776   4.982  16.878
 4852TIP3    H236048   3.902   4.946  16.953
 4853TIP3   OH236049   3.754   0.263   2.525
 4853TIP3    H136050   3.704   0.260   2.606
 4853TIP3    H236051   3.833   0.313   2.548
 4854TIP3   OH236052   4.378   6.807  15.298
 4854TIP3    H136053   4.303   6.859  15.271
 4854TIP3    H236054   4.347   6.716  15.296
 4855TIP3   OH236055   3.124   3.382   4.184
 4855TIP3    H136056   3.031   3.359   4.181
 4855TIP3    H236057   3.168   3.303   4.152
 4856TIP3   OH236058   2.864   3.565   0.557
 4856TIP3    H136059   2.835   3.617   0.482
 4856TIP3    H236060   2.784   3.539   0.601
 4857TIP3   OH236061   6.297   5.924   4.090
 4857TIP3    H136062   6.376   5.871   4.094
 4857TIP3    H236063   6.328   6.014   4.096
 4858TIP3   OH236064   4.051   2.668   5.434
 4858TIP3    H136065   4.000   2.599   5.478
 4858TIP3    H236066   4.138   2.629   5.422
 4859TIP3   OH236067   0.698   3.831  16.159
 4859TIP3    H136068   0.605   3.842  16.179
 4859TIP3    H236069   0.723   3.751  16.205
 4860TIP3   OH236070   5.640   2.948   4.905
 4860TIP3    H136071   5.694   2.870   4.902
 4860TIP3    H236072   5.554   2.917   4.935
 4861TIP3   OH236073   4.094   4.499  16.090
 4861TIP3    H136074   4.036   4.440  16.043
 4861TIP3    H236075   4.159   4.442  16.131
 4862TIP3   OH236076   5.432   0.174  11.145
 4862TIP3    H136077   5.470   0.098  11.102
 4862TIP3    H236078   5.493   0.245  11.125
 4863TIP3   OH236079   3.039   6.394  12.954
 4863TIP3    H136080   2.960   6.389  13.008
 4863TIP3    H236081   3.010   6.437  12.873
 4864TIP3   OH236082   3.885   4.134   1.689
 4864TIP3    H136083   3.899   4.173   1.775
 4864TIP3    H236084   3.789   4.129   1.680
 4865TIP3   OH236085   3.691   0.116  11.996
 4865TIP3    H136086   3.693   0.188  11.933
 4865TIP3    H236087   3.600   0.112  12.025
 4866TIP3   OH236088   3.667   3.864   0.553
 4866TIP3    H136089   3.678   3.865   0.458
 4866TIP3    H236090   3.751   3.830   0.585
 4867TIP3   OH236091   4.007   6.767   2.674
 4867TIP3    H136092   3.995   6.813   2.758
 4867TIP3    H236093   4.067   6.695   2.694
 4868TIP3   OH236094   3.546   4.876  10.430
 4868TIP3    H136095   3.522   4.937  10.500
 4868TIP3    H236096   3.625   4.914  10.391
 4869TIP3   OH236097   1.012   4.785  12.311
 4869TIP3    H136098   1.075   4.830  12.366
 4869TIP3    H236099   0.941   4.761  12.370
 4870TIP3   OH236100   6.531   1.323  15.228
 4870TIP3    H136101   6.606   1.296  15.281
 4870TIP3    H236102   6.565   1.393  15.172
 4871TIP3   OH236103   3.838   2.382   4.067
 4871TIP3    H136104   3.877   2.409   3.983
 4871TIP3    H236105   3.881   2.437   4.132
 4872TIP3   OH236106   0.011   0.462   2.304
 4872TIP3    H136107   0.043   0.517   2.233
 4872TIP3    H236108  -0.043   0.395   2.260
 4873TIP3   OH236109   4.197   2.486   3.682
 4873TIP3    H136110   4.274   2.431   3.665
 4873TIP3    H236111   4.233   2.569   3.712
 4874TIP3   OH236112   3.821   3.756   4.221
 4874TIP3    H136113   3.872   3.682   4.188
 4874TIP3    H236114   3.809   3.814   4.146
 4875TIP3   OH236115   2.959   1.662   2.605
 4875TIP3    H136116   2.981   1.718   2.531
 4875TIP3    H236117   3.027   1.595   2.606
 4876TIP3   OH236118   6.406   0.251  17.079
 4876TIP3    H136119   6.329   0.306  17.079
 4876TIP3    H236120   6.372   0.162  17.092
 4877TIP3   OH236121   5.481   5.076  11.995
 4877TIP3    H136122   5.523   5.053  12.078
 4877TIP3    H236123   5.442   4.995  11.965
 4878TIP3   OH236124   5.287   0.579   2.254
 4878TIP3    H136125   5.317   0.537   2.173
 4878TIP3    H236126   5.192   0.582   2.245
 4879TIP3   OH236127   6.472   3.769   2.273
 4879TIP3    H136128   6.401   3.708   2.250
 4879TIP3    H236129   6.490   3.751   2.365
 4880TIP3   OH236130   2.767   0.195  10.807
 4880TIP3    H136131   2.818   0.248  10.746
 4880TIP3    H236132   2.811   0.109  10.806
 4881TIP3   OH236133   5.686   5.997  14.016
 4881TIP3    H136134   5.623   6.046  13.962
 4881TIP3    H236135   5.758   6.058  14.030
 4882TIP3   OH236136   2.443   0.363   2.679
 4882TIP3    H136137   2.506   0.434   2.668
 4882TIP3    H236138   2.367   0.390   2.629
 4883TIP3   OH236139   0.162   2.888  17.286
 4883TIP3    H136140   0.196   2.806  17.320
 4883TIP3    H236141   0.101   2.919  17.354
 4884TIP3   OH236142   2.591   0.578  13.814
 4884TIP3    H136143   2.557   0.552  13.728
 4884TIP3    H236144   2.575   0.672  13.818
 4885TIP3   OH236145   4.449   0.642  10.659
 4885TIP3    H136146   4.361   0.677  10.669
 4885TIP3    H236147   4.452   0.567  10.719
 4886TIP3   OH236148   0.418   2.028   5.708
 4886TIP3    H136149   0.463   2.106   5.739
 4886TIP3    H236150   0.326   2.043   5.729
 4887TIP3   OH236151   3.661   5.697  16.178
 4887TIP3    H136152   3.755   5.713  16.171
 4887TIP3    H236153   3.620   5.776  16.142
 4888TIP3   OH236154   4.681   1.781  16.178
 4888TIP3    H136155   4.617   1.774  16.250
 4888TIP3    H236156   4.766   1.784  16.222
 4889TIP3   OH236157   6.342   2.175   6.243
 4889TIP3    H136158   6.312   2.259   6.210
 4889TIP3    H236159   6.438   2.179   6.235
 4890TIP3   OH236160   4.957   0.078   0.588
 4890TIP3    H136161   4.960   0.154   0.647
 4890TIP3    H236162   5.040   0.079   0.542
 4891TIP3   OH236163   5.734   5.142   2.859
 4891TIP3    H136164   5.773   5.103   2.780
 4891TIP3    H236165   5.665   5.199   2.826
 4892TIP3   OH236166   2.172   5.850   5.020
 4892TIP3    H136167   2.165   5.917   4.952
 4892TIP3    H236168   2.266   5.842   5.037
 4893TIP3   OH236169   6.391   1.276   1.054
 4893TIP3    H136170   6.362   1.363   1.026
 4893TIP3    H236171   6.486   1.281   1.054
 4894TIP3   OH236172   5.078   4.033   3.505
 4894TIP3    H136173   5.024   4.108   3.529
 4894TIP3    H236174   5.027   3.988   3.437
 4895TIP3   OH236175   6.628   5.520   4.412
 4895TIP3    H136176   6.658   5.430   4.401
 4895TIP3    H236177   6.595   5.523   4.502
 4896TIP3   OH236178   3.540   2.182   3.093
 4896TIP3    H136179   3.610   2.238   3.060
 4896TIP3    H236180   3.467   2.197   3.033
 4897TIP3   OH236181   2.426   4.072   4.623
 4897TIP3    H136182   2.360   4.052   4.557
 4897TIP3    H236183   2.379   4.124   4.689
 4898TIP3   OH236184   2.620   4.476  11.409
 4898TIP3    H136185   2.577   4.415  11.469
 4898TIP3    H236186   2.558   4.547  11.397
 4899TIP3   OH236187   3.462   0.626  15.592
 4899TIP3    H136188   3.386   0.680  15.611
 4899TIP3    H236189   3.517   0.680  15.535
 4900TIP3   OH236190   6.734   6.573   4.255
 4900TIP3    H136191   6.700   6.526   4.332
 4900TIP3    H236192   6.671   6.555   4.186
 4901TIP3   OH236193   6.289   5.140   4.901
 4901TIP3    H136194   6.369   5.103   4.862
 4901TIP3    H236195   6.283   5.098   4.987
 4902TIP3   OH236196   0.623   2.457   2.272
 4902TIP3    H136197   0.652   2.548   2.273
 4902TIP3    H236198   0.584   2.444   2.359
 4903TIP3   OH236199   4.581   1.668   5.595
 4903TIP3    H136200   4.499   1.715   5.612
 4903TIP3    H236201   4.584   1.600   5.662
 4904TIP3   OH236202   6.498   5.730   1.525
 4904TIP3    H136203   6.477   5.697   1.612
 4904TIP3    H236204   6.513   5.652   1.472
 4905TIP3   OH236205   5.065   5.723   4.129
 4905TIP3    H136206   5.073   5.749   4.037
 4905TIP3    H236207   5.149   5.682   4.150
 4906TIP3   OH236208   3.197   2.032   5.909
 4906TIP3    H136209   3.173   2.090   5.981
 4906TIP3    H236210   3.123   1.973   5.899
 4907TIP3   OH236211   4.736   6.010  14.855
 4907TIP3    H136212   4.698   6.095  14.880
 4907TIP3    H236213   4.704   5.994  14.766
 4908TIP3   OH236214   3.420   1.733  12.264
 4908TIP3    H136215   3.493   1.795  12.275
 4908TIP3    H236216   3.416   1.718  12.170
 4909TIP3   OH236217   1.450   6.121  14.802
 4909TIP3    H136218   1.398   6.069  14.740
 4909TIP3    H236219   1.403   6.113  14.885
 4910TIP3   OH236220   1.074   6.510  12.516
 4910TIP3    H136221   1.002   6.456  12.548
 4910TIP3    H236222   1.132   6.520  12.592
 4911TIP3   OH236223   2.483   0.765  12.862
 4911TIP3    H136224   2.515   0.676  12.879
 4911TIP3    H236225   2.473   0.804  12.950
 4912TIP3   OH236226   1.824   5.608   5.086
 4912TIP3    H136227   1.749   5.627   5.029
 4912TIP3    H236228   1.812   5.517   5.112
 4913TIP3   OH236229   0.850   5.813  14.069
 4913TIP3    H136230   0.795   5.869  14.014
 4913TIP3    H236231   0.833   5.724  14.038
 4914TIP3   OH236232   3.958   6.796  11.597
 4914TIP3    H136233   4.050   6.775  11.611
 4914TIP3    H236234   3.910   6.725  11.641
 4915TIP3   OH236235   5.667   6.297   2.635
 4915TIP3    H136236   5.576   6.266   2.638
 4915TIP3    H236237   5.659   6.392   2.623
 4916TIP3   OH236238   4.580   3.359  11.191
 4916TIP3    H136239   4.506   3.342  11.134
 4916TIP3    H236240   4.614   3.272  11.213
 4917TIP3   OH236241   0.623   3.007   4.181
 4917TIP3    H136242   0.661   2.936   4.232
 4917TIP3    H236243   0.633   3.084   4.237
 4918TIP3   OH236244   4.517   6.402  10.235
 4918TIP3    H136245   4.430   6.401  10.195
 4918TIP3    H236246   4.528   6.314  10.271
 4919TIP3   OH236247   5.682   3.548  13.719
 4919TIP3    H136248   5.735   3.470  13.732
 4919TIP3    H236249   5.682   3.592  13.804
 4920TIP3   OH236250   0.758   3.480   1.466
 4920TIP3    H136251   0.764   3.506   1.558
 4920TIP3    H236252   0.753   3.563   1.418
 4921TIP3   OH236253   6.372   4.510  16.677
 4921TIP3    H136254   6.440   4.447  16.700
 4921TIP3    H236255   6.343   4.546  16.760
 4922TIP3   OH236256   5.230   5.812  12.938
 4922TIP3    H136257   5.314   5.858  12.935
 4922TIP3    H236258   5.247   5.734  12.990
 4923TIP3   OH236259   0.732   4.816  16.573
 4923TIP3    H136260   0.736   4.854  16.485
 4923TIP3    H236261   0.639   4.809  16.592
 4924TIP3   OH236262   4.883   2.152   5.165
 4924TIP3    H136263   4.869   2.240   5.200
 4924TIP3    H236264   4.929   2.105   5.235
 4925TIP3   OH236265   3.825   1.454   6.782
 4925TIP3    H136266   3.903   1.495   6.819
 4925TIP3    H236267   3.772   1.528   6.752
 4926TIP3   OH236268   6.285   2.192  11.321
 4926TIP3    H136269   6.226   2.144  11.263
 4926TIP3    H236270   6.292   2.279  11.282
 4927TIP3   OH236271   6.347   5.132   2.027
 4927TIP3    H136272   6.367   5.045   1.991
 4927TIP3    H236273   6.377   5.128   2.118
 4928TIP3   OH236274   5.417   3.553   3.941
 4928TIP3    H136275   5.388   3.586   3.856
 4928TIP3    H236276   5.390   3.620   4.004
 4929TIP3   OH236277   6.535   1.761   1.520
 4929TIP3    H136278   6.621   1.772   1.480
 4929TIP3    H236279   6.506   1.675   1.489
 4930TIP3   OH236280   6.330   1.737   6.219
 4930TIP3    H136281   6.325   1.711   6.127
 4930TIP3    H236282   6.415   1.705   6.249
 4931TIP3   OH236283   1.866   1.482  12.094
 4931TIP3    H136284   1.885   1.395  12.129
 4931TIP3    H236285   1.782   1.505  12.132
 4932TIP3   OH236286   6.052   4.178  13.742
 4932TIP3    H136287   5.958   4.181  13.728
 4932TIP3    H236288   6.089   4.227  13.668
 4933TIP3   OH236289   2.384   3.802  15.657
 4933TIP3    H136290   2.380   3.714  15.695
 4933TIP3    H236291   2.470   3.805  15.613
 4934TIP3   OH236292   3.041   6.280  11.267
 4934TIP3    H136293   3.001   6.331  11.196
 4934TIP3    H236294   3.083   6.345  11.323
 4935TIP3   OH236295   2.823   4.972   5.455
 4935TIP3    H136296   2.874   5.051   5.436
 4935TIP3    H236297   2.852   4.946   5.542
 4936TIP3   OH236298   3.782   3.220   3.635
 4936TIP3    H136299   3.773   3.288   3.702
 4936TIP3    H236300   3.875   3.221   3.612
 4937TIP3   OH236301   3.558   2.755  13.102
 4937TIP3    H136302   3.462   2.749  13.097
 4937TIP3    H236303   3.583   2.681  13.157
 4938TIP3   OH236304   5.473   2.435   1.231
 4938TIP3    H136305   5.411   2.486   1.179
 4938TIP3    H236306   5.482   2.352   1.183
 4939TIP3   OH236307   3.277   4.328   4.024
 4939TIP3    H136308   3.231   4.384   3.961
 4939TIP3    H236309   3.263   4.371   4.109
 4940TIP3   OH236310   6.172   6.785  15.684
 4940TIP3    H136311   6.171   6.691  15.670
 4940TIP3    H236312   6.084   6.814  15.661
 4941TIP3   OH236313   0.379   6.810  11.795
 4941TIP3    H136314   0.439   6.771  11.732
 4941TIP3    H236315   0.368   6.743  11.863
 4942TIP3   OH236316   5.009   1.951   0.278
 4942TIP3    H136317   5.050   1.958   0.364
 4942TIP3    H236318   5.072   1.990   0.218
 4943TIP3   OH236319   2.829   1.889  13.620
 4943TIP3    H136320   2.797   1.868  13.532
 4943TIP3    H236321   2.780   1.968  13.645
 4944TIP3   OH236322   4.755   3.392  15.847
 4944TIP3    H136323   4.700   3.457  15.889
 4944TIP3    H236324   4.810   3.358  15.917
 4945TIP3   OH236325   0.066   3.755  14.503
 4945TIP3    H136326   0.009   3.825  14.470
 4945TIP3    H236327   0.128   3.739  14.432
 4946TIP3   OH236328   6.565   0.584   7.234
 4946TIP3    H136329   6.606   0.648   7.292
 4946TIP3    H236330   6.472   0.587   7.258
 4947TIP3   OH236331   5.139   6.151   2.568
 4947TIP3    H136332   5.123   6.062   2.600
 4947TIP3    H236333   5.055   6.180   2.534
 4948TIP3   OH236334   6.067   6.114  11.684
 4948TIP3    H136335   6.058   6.177  11.613
 4948TIP3    H236336   6.155   6.078  11.673
 4949TIP3   OH236337   1.222   1.308  13.896
 4949TIP3    H136338   1.134   1.275  13.910
 4949TIP3    H236339   1.223   1.337  13.805
 4950TIP3   OH236340   2.123   2.540  14.496
 4950TIP3    H136341   2.035   2.568  14.518
 4950TIP3    H236342   2.153   2.604  14.431
 4951TIP3   OH236343   0.105   5.458  14.519
 4951TIP3    H136344   0.155   5.400  14.577
 4951TIP3    H236345   0.078   5.402  14.446
 4952TIP3   OH236346   0.438   3.251   3.721
 4952TIP3    H136347   0.487   3.326   3.755
 4952TIP3    H236348   0.484   3.227   3.640
 4953TIP3   OH236349   0.294   2.241  13.993
 4953TIP3    H136350   0.366   2.227  14.055
 4953TIP3    H236351   0.266   2.153  13.968
 4954TIP3   OH236352   1.186   3.529  12.862
 4954TIP3    H136353   1.197   3.561  12.951
 4954TIP3    H236354   1.126   3.592  12.820
 4955TIP3   OH236355   0.125   0.803   5.366
 4955TIP3    H136356   0.147   0.829   5.455
 4955TIP3    H236357   0.113   0.885   5.319
 4956TIP3   OH236358   3.975   2.029   2.295
 4956TIP3    H136359   3.993   1.975   2.372
 4956TIP3    H236360   3.949   2.114   2.331
 4957TIP3   OH236361   4.586   5.369  10.722
 4957TIP3    H136362   4.553   5.429  10.789
 4957TIP3    H236363   4.509   5.318  10.697
 4958TIP3   OH236364   4.118   0.402  12.797
 4958TIP3    H136365   4.152   0.327  12.846
 4958TIP3    H236366   4.195   0.455  12.778
 4959TIP3   OH236367   4.258   1.601   2.010
 4959TIP3    H136368   4.197   1.667   1.980
 4959TIP3    H236369   4.284   1.554   1.931
 4960TIP3   OH236370   1.084   2.354   2.990
 4960TIP3    H136371   1.175   2.356   3.018
 4960TIP3    H236372   1.036   2.322   3.066
 4961TIP3   OH236373   3.720   2.672  17.077
 4961TIP3    H136374   3.763   2.730  17.140
 4961TIP3    H236375   3.627   2.691  17.086
 4962TIP3   OH236376   5.240   6.016   0.832
 4962TIP3    H136377   5.173   5.983   0.892
 4962TIP3    H236378   5.197   6.088   0.785
 4963TIP3   OH236379   6.036   0.041   3.566
 4963TIP3    H136380   6.004   0.129   3.547
 4963TIP3    H236381   6.113   0.031   3.510
 4964TIP3   OH236382   0.464   0.864   1.101
 4964TIP3    H136383   0.495   0.949   1.070
 4964TIP3    H236384   0.536   0.804   1.085
 4965TIP3   OH236385   4.234   0.800   2.950
 4965TIP3    H136386   4.294   0.743   2.902
 4965TIP3    H236387   4.269   0.802   3.039
 4966TIP3   OH236388   6.299   5.936  15.460
 4966TIP3    H136389   6.325   5.865  15.519
 4966TIP3    H236390   6.374   5.995  15.459
 4967TIP3   OH236391   0.037   0.973  11.471
 4967TIP3    H136392   0.031   0.978  11.376
 4967TIP3    H236393   0.069   0.884  11.488
 4968TIP3   OH236394   6.702   4.630  17.055
 4968TIP3    H136395   6.667   4.665  16.973
 4968TIP3    H236396   6.787   4.673  17.065
 4969TIP3   OH236397   5.660   3.801  12.258
 4969TIP3    H136398   5.703   3.788  12.173
 4969TIP3    H236399   5.659   3.714  12.298
 4970TIP3   OH236400   0.867   1.180   3.850
 4970TIP3    H136401   0.817   1.213   3.924
 4970TIP3    H236402   0.954   1.161   3.885
 4971TIP3   OH236403   4.576   6.656   5.637
 4971TIP3    H136404   4.595   6.730   5.696
 4971TIP3    H236405   4.581   6.694   5.549
 4972TIP3   OH236406   1.025   0.092  12.915
 4972TIP3    H136407   1.110   0.083  12.959
 4972TIP3    H236408   0.965   0.037  12.966
 4973TIP3   OH236409   0.224   1.463  15.767
 4973TIP3    H136410   0.284   1.522  15.722
 4973TIP3    H236411   0.279   1.417  15.831
 4974TIP3   OH236412   0.129   0.530  13.576
 4974TIP3    H136413   0.116   0.542  13.670
 4974TIP3    H236414   0.081   0.450  13.555
 4975TIP3   OH236415   0.905   6.606   3.675
 4975TIP3    H136416   0.823   6.567   3.704
 4975TIP3    H236417   0.969   6.535   3.685
 4976TIP3   OH236418   2.202   1.269  15.485
 4976TIP3    H136419   2.178   1.192  15.537
 4976TIP3    H236420   2.121   1.295  15.442
 4977TIP3   OH236421   4.558   6.027   1.625
 4977TIP3    H136422   4.494   5.997   1.689
 4977TIP3    H236423   4.596   6.106   1.665
 4978TIP3   OH236424   4.958   6.430   4.851
 4978TIP3    H136425   4.880   6.475   4.820
 4978TIP3    H236426   4.933   6.338   4.857
 4979TIP3   OH236427   4.757   1.209  15.405
 4979TIP3    H136428   4.705   1.282  15.438
 4979TIP3    H236429   4.846   1.244  15.398
 4980TIP3   OH236430   2.367   6.159   2.388
 4980TIP3    H136431   2.342   6.187   2.476
 4980TIP3    H236432   2.428   6.086   2.403
 4981TIP3   OH236433   4.700   1.134  11.825
 4981TIP3    H136434   4.725   1.130  11.917
 4981TIP3    H236435   4.611   1.170  11.826
 4982TIP3   OH236436   6.057   2.208   0.222
 4982TIP3    H136437   6.051   2.151   0.299
 4982TIP3    H236438   5.998   2.169   0.158
 4983TIP3   OH236439   4.636   1.822  13.627
 4983TIP3    H136440   4.646   1.740  13.579
 4983TIP3    H236441   4.681   1.807  13.710
 4984TIP3   OH236442   6.401   0.387   0.063
 4984TIP3    H136443   6.467   0.457   0.067
 4984TIP3    H236444   6.431   0.330  -0.008
 4985TIP3   OH236445   6.679   3.189  10.783
 4985TIP3    H136446   6.760   3.239  10.779
 4985TIP3    H236447   6.610   3.252  10.761
 4986TIP3   OH236448   4.783   2.665  15.561
 4986TIP3    H136449   4.712   2.720  15.528
 4986TIP3    H236450   4.791   2.688  15.653
 4987TIP3   OH236451   4.331   6.604  16.771
 4987TIP3    H136452   4.240   6.607  16.800
 4987TIP3    H236453   4.351   6.693  16.741
 4988TIP3   OH236454   0.264   5.473  14.975
 4988TIP3    H136455   0.323   5.531  14.926
 4988TIP3    H236456   0.203   5.441  14.909
 4989TIP3   OH236457   3.581   6.709  14.299
 4989TIP3    H136458   3.671   6.723  14.270
 4989TIP3    H236459   3.558   6.623  14.266
 4990TIP3   OH236460   1.866   2.195  17.053
 4990TIP3    H136461   1.936   2.153  17.104
 4990TIP3    H236462   1.788   2.184  17.107
 4991TIP3   OH236463   2.419   6.668   5.698
 4991TIP3    H136464   2.497   6.718   5.675
 4991TIP3    H236465   2.452   6.592   5.746
 4992TIP3   OH236466   5.356   0.380   0.277
 4992TIP3    H136467   5.404   0.463   0.277
 4992TIP3    H236468   5.348   0.358   0.370
 4993TIP3   OH236469   5.049   3.528   0.021
 4993TIP3    H136470   5.099   3.597  -0.023
 4993TIP3    H236471   5.111   3.490   0.084
 4994TIP3   OH236472   1.637   2.576  14.693
 4994TIP3    H136473   1.632   2.605  14.784
 4994TIP3    H236474   1.570   2.508  14.686
 4995TIP3   OH236475   1.881   3.740   1.695
 4995TIP3    H136476   1.863   3.648   1.675
 4995TIP3    H236477   1.798   3.785   1.680
 4996TIP3   OH236478   4.386   5.643  13.758
 4996TIP3    H136479   4.301   5.608  13.783
 4996TIP3    H236480   4.442   5.566  13.749
 4997TIP3   OH236481   3.448   1.226  15.022
 4997TIP3    H136482   3.397   1.211  15.102
 4997TIP3    H236483   3.508   1.297  15.045
 4998TIP3   OH236484   0.135   2.347   5.303
 4998TIP3    H136485   0.084   2.277   5.263
 4998TIP3    H236486   0.206   2.364   5.240
 4999TIP3   OH236487   3.952   3.759  16.428
 4999TIP3    H136488   3.919   3.694  16.490
 4999TIP3    H236489   4.041   3.778  16.458
 5000TIP3   OH236490   6.501   6.419  16.470
 5000TIP3    H136491   6.492   6.324  16.461
 5000TIP3    H236492   6.436   6.455  16.410
 5001TIP3   OH236493   1.465   1.545   3.884
 5001TIP3    H136494   1.511   1.523   3.803
 5001TIP3    H236495   1.396   1.605   3.857
 5002TIP3   OH236496   1.325   0.621   6.258
 5002TIP3    H136497   1.354   0.703   6.297
 5002TIP3    H236498   1.393   0.557   6.282
 5003TIP3   OH236499   4.397   0.836  16.065
 5003TIP3    H136500   4.399   0.878  15.979
 5003TIP3    H236501   4.384   0.744  16.046
 5004TIP3   OH236502   0.739   1.971  15.458
 5004TIP3    H136503   0.798   1.920  15.513
 5004TIP3    H236504   0.685   2.021  15.521
 5005TIP3   OH236505   6.601   2.305  14.957
 5005TIP3    H136506   6.521   2.334  15.002
 5005TIP3    H236507   6.672   2.329  15.015
 5006TIP3   OH236508   3.841   6.562  15.020
 5006TIP3    H136509   3.806   6.625  15.083
 5006TIP3    H236510   3.801   6.479  15.045
 5007TIP3   OH236511   6.497   4.462   3.413
 5007TIP3    H136512   6.470   4.517   3.340
 5007TIP3    H236513   6.545   4.389   3.372
 5008TIP3   OH236514   4.367   0.905  16.330
 5008TIP3    H136515   4.344   0.820  16.366
 5008TIP3    H236516   4.364   0.893  16.235
 5009TIP3   OH236517   0.334   1.052  14.740
 5009TIP3    H136518   0.365   1.098  14.817
 5009TIP3    H236519   0.330   0.960  14.766
 5010TIP3   OH236520   1.322   4.294  16.965
 5010TIP3    H136521   1.241   4.248  16.987
 5010TIP3    H236522   1.388   4.256  17.023
 5011TIP3   OH236523   4.538   6.625  14.897
 5011TIP3    H136524   4.520   6.646  14.806
 5011TIP3    H236525   4.482   6.549  14.916
 5012TIP3   OH236526   2.064   4.557   1.802
 5012TIP3    H136527   2.131   4.568   1.735
 5012TIP3    H236528   2.028   4.644   1.814
 5013TIP3   OH236529   0.077   1.407   3.040
 5013TIP3    H136530   0.057   1.411   3.133
 5013TIP3    H236531   0.027   1.478   3.001
 5014TIP3   OH236532   0.191   6.086   1.885
 5014TIP3    H136533   0.193   6.007   1.940
 5014TIP3    H236534   0.142   6.150   1.937
 5015TIP3   OH236535   1.224   0.946  13.056
 5015TIP3    H136536   1.210   0.860  13.014
 5015TIP3    H236537   1.194   1.009  12.990
 5016TIP3   OH236538   4.475   0.165   4.291
 5016TIP3    H136539   4.473   0.236   4.355
 5016TIP3    H236540   4.418   0.196   4.220
 5017TIP3   OH236541   2.321   5.790  14.316
 5017TIP3    H136542   2.240   5.784  14.266
 5017TIP3    H236543   2.357   5.876  14.291
 5018TIP3   OH236544   6.085   1.400   0.582
 5018TIP3    H136545   6.030   1.376   0.657
 5018TIP3    H236546   6.149   1.330   0.575
 5019TIP3   OH236547   4.906   4.166   5.092
 5019TIP3    H136548   4.912   4.177   4.997
 5019TIP3    H236549   4.957   4.238   5.128
 5020TIP3   OH236550   1.801   5.720  13.110
 5020TIP3    H136551   1.787   5.814  13.096
 5020TIP3    H236552   1.774   5.705  13.200
 5021TIP3   OH236553   0.686   0.505  16.422
 5021TIP3    H136554   0.710   0.493  16.330
 5021TIP3    H236555   0.616   0.442  16.437
 5022TIP3   OH236556   6.321   6.357   0.623
 5022TIP3    H136557   6.385   6.423   0.652
 5022TIP3    H236558   6.372   6.276   0.617
 5023TIP3   OH236559   3.885   1.693   5.281
 5023TIP3    H136560   3.884   1.738   5.366
 5023TIP3    H236561   3.801   1.716   5.241
 5024TIP3   OH236562   0.842   3.188   1.128
 5024TIP3    H136563   0.918   3.243   1.149
 5024TIP3    H236564   0.875   3.099   1.137
 5025TIP3   OH236565   2.484   2.784   5.235
 5025TIP3    H136566   2.449   2.854   5.290
 5025TIP3    H236567   2.406   2.745   5.194
 5026TIP3   OH236568   4.947   0.423  13.259
 5026TIP3    H136569   4.854   0.420  13.282
 5026TIP3    H236570   4.948   0.435  13.164
 5027TIP3   OH236571   0.983   0.194  14.674
 5027TIP3    H136572   0.907   0.157  14.627
 5027TIP3    H236573   0.976   0.288  14.659
 5028TIP3   OH236574   6.585   5.004   4.243
 5028TIP3    H136575   6.508   5.005   4.187
 5028TIP3    H236576   6.595   4.912   4.268
 5029TIP3   OH236577   3.453   6.291  16.759
 5029TIP3    H136578   3.533   6.254  16.797
 5029TIP3    H236579   3.395   6.306  16.834
 5030TIP3   OH236580   4.837   3.161  14.829
 5030TIP3    H136581   4.805   3.075  14.803
 5030TIP3    H236582   4.791   3.223  14.773
 5031TIP3   OH236583   3.625   5.660   6.162
 5031TIP3    H136584   3.572   5.637   6.239
 5031TIP3    H236585   3.652   5.575   6.127
 5032TIP3   OH236586   4.286   6.689   1.882
 5032TIP3    H136587   4.346   6.616   1.898
 5032TIP3    H236588   4.339   6.767   1.897
 5033TIP3   OH236589   1.061   1.204  12.088
 5033TIP3    H136590   1.048   1.200  12.183
 5033TIP3    H236591   1.093   1.117  12.064
 5034TIP3   OH236592   6.287   5.410   4.840
 5034TIP3    H136593   6.284   5.317   4.863
 5034TIP3    H236594   6.195   5.437   4.840
 5035TIP3   OH236595   0.905   2.771   6.877
 5035TIP3    H136596   0.944   2.695   6.919
 5035TIP3    H236597   0.816   2.743   6.854
 5036TIP3   OH236598   0.437   4.473  15.073
 5036TIP3    H136599   0.378   4.409  15.034
 5036TIP3    H236600   0.429   4.459  15.168
 5037TIP3   OH236601   2.326   3.946  11.939
 5037TIP3    H136602   2.328   3.862  11.984
 5037TIP3    H236603   2.249   3.991  11.975
 5038TIP3   OH236604   3.274   5.088  10.436
 5038TIP3    H136605   3.307   5.127  10.518
 5038TIP3    H236606   3.350   5.043  10.400
 5039TIP3   OH236607   4.824   4.577   5.537
 5039TIP3    H136608   4.806   4.651   5.480
 5039TIP3    H236609   4.794   4.605   5.624
 5040TIP3   OH236610   5.319   2.644  12.591
 5040TIP3    H136611   5.402   2.597  12.591
 5040TIP3    H236612   5.272   2.611  12.515
 5041TIP3   OH236613   1.323   2.417   1.672
 5041TIP3    H136614   1.320   2.409   1.576
 5041TIP3    H236615   1.304   2.509   1.689
 5042TIP3   OH236616   2.170   1.526  13.554
 5042TIP3    H136617   2.103   1.582  13.514
 5042TIP3    H236618   2.230   1.587  13.597
 5043TIP3   OH236619   1.683   5.190   4.175
 5043TIP3    H136620   1.723   5.139   4.244
 5043TIP3    H236621   1.714   5.280   4.190
 5044TIP3   OH236622   4.641   0.142   1.412
 5044TIP3    H136623   4.687   0.224   1.426
 5044TIP3    H236624   4.548   0.166   1.406
 5045TIP3   OH236625   6.502   4.395  11.479
 5045TIP3    H136626   6.563   4.372  11.408
 5045TIP3    H236627   6.526   4.485  11.502
 5046TIP3   OH236628   6.251   4.915   5.124
 5046TIP3    H136629   6.250   4.824   5.094
 5046TIP3    H236630   6.212   4.912   5.211
 5047TIP3   OH236631   3.682   3.930   3.733
 5047TIP3    H136632   3.704   4.021   3.715
 5047TIP3    H236633   3.591   3.932   3.763
 5048TIP3   OH236634   4.700   5.931   1.384
 5048TIP3    H136635   4.644   5.926   1.307
 5048TIP3    H236636   4.653   5.987   1.445
 5049TIP3   OH236637   3.050   1.257  14.533
 5049TIP3    H136638   3.125   1.209  14.568
 5049TIP3    H236639   3.008   1.295  14.609
 5050TIP3   OH236640   5.212   6.426  13.606
 5050TIP3    H136641   5.184   6.379  13.685
 5050TIP3    H236642   5.178   6.515  13.617
 5051TIP3   OH236643   3.658   5.375  13.684
 5051TIP3    H136644   3.626   5.448  13.630
 5051TIP3    H236645   3.579   5.334  13.718
 5052TIP3   OH236646   5.236   0.498  16.641
 5052TIP3    H136647   5.309   0.445  16.673
 5052TIP3    H236648   5.159   0.443  16.656
 5053TIP3   OH236649   6.128   2.991  12.447
 5053TIP3    H136650   6.054   3.044  12.415
 5053TIP3    H236651   6.088   2.911  12.478
 5054TIP3   OH236652   0.379   0.472   4.947
 5054TIP3    H136653   0.426   0.549   4.980
 5054TIP3    H236654   0.304   0.509   4.899
 5055TIP3   OH236655   2.257   3.657   3.181
 5055TIP3    H136656   2.267   3.693   3.093
 5055TIP3    H236657   2.165   3.633   3.188
 5056TIP3   OH236658   6.281   3.639   3.247
 5056TIP3    H136659   6.366   3.681   3.230
 5056TIP3    H236660   6.225   3.670   3.176
 5057TIP3   OH236661   1.352   0.153   4.550
 5057TIP3    H136662   1.423   0.210   4.522
 5057TIP3    H236663   1.355   0.156   4.646
 5058TIP3   OH236664   3.616   2.387   4.975
 5058TIP3    H136665   3.557   2.331   4.925
 5058TIP3    H236666   3.688   2.329   5.000
 5059TIP3   OH236667   1.772   6.753  15.041
 5059TIP3    H136668   1.847   6.697  15.057
 5059TIP3    H236669   1.699   6.692  15.030
 5060TIP3   OH236670   3.745   1.769   6.053
 5060TIP3    H136671   3.765   1.675   6.058
 5060TIP3    H236672   3.829   1.810   6.033
 5061TIP3   OH236673   5.455   4.649  15.098
 5061TIP3    H136674   5.531   4.647  15.156
 5061TIP3    H236675   5.489   4.620  15.014
 5062TIP3   OH236676   0.983   3.732   0.321
 5062TIP3    H136677   1.030   3.735   0.238
 5062TIP3    H236678   1.052   3.720   0.387
 5063TIP3   OH236679   3.528   4.916   3.657
 5063TIP3    H136680   3.481   4.990   3.619
 5063TIP3    H236681   3.493   4.839   3.613
 5064TIP3   OH236682   1.066   0.929   2.375
 5064TIP3    H136683   0.998   0.950   2.438
 5064TIP3    H236684   1.117   0.859   2.416
 5065TIP3   OH236685   3.599   2.842   1.608
 5065TIP3    H136686   3.515   2.889   1.612
 5065TIP3    H236687   3.665   2.911   1.610
 5066TIP3   OH236688   0.400   4.885  12.224
 5066TIP3    H136689   0.355   4.805  12.199
 5066TIP3    H236690   0.440   4.865  12.309
 5067TIP3   OH236691   0.236   2.033  13.214
 5067TIP3    H136692   0.291   1.961  13.244
 5067TIP3    H236693   0.286   2.072  13.142
 5068TIP3   OH236694   3.573   0.224   0.261
 5068TIP3    H136695   3.519   0.303   0.264
 5068TIP3    H236696   3.511   0.152   0.274
 5069TIP3   OH236697   1.549   1.179  13.580
 5069TIP3    H136698   1.486   1.107  13.578
 5069TIP3    H236699   1.565   1.194  13.673
 5070TIP3   OH236700   0.250   6.178   0.066
 5070TIP3    H136701   0.294   6.258   0.038
 5070TIP3    H236702   0.313   6.136   0.125
 5071TIP3   OH236703   2.879   3.736   2.102
 5071TIP3    H136704   2.935   3.813   2.104
 5071TIP3    H236705   2.859   3.719   2.195
 5072TIP3   OH236706   5.617   3.681  12.880
 5072TIP3    H136707   5.594   3.666  12.972
 5072TIP3    H236708   5.693   3.738  12.883
 5073TIP3   OH236709   6.280   0.160   0.758
 5073TIP3    H136710   6.313   0.246   0.731
 5073TIP3    H236711   6.304   0.102   0.685
 5074TIP3   OH236712   6.639   3.523   5.384
 5074TIP3    H136713   6.672   3.562   5.302
 5074TIP3    H236714   6.672   3.581   5.453
 5075TIP3   OH236715   3.185   3.967   1.654
 5075TIP3    H136716   3.119   4.022   1.611
 5075TIP3    H236717   3.183   3.995   1.746
 5076TIP3   OH236718   1.618   0.583   2.192
 5076TIP3    H136719   1.558   0.512   2.213
 5076TIP3    H236720   1.563   0.662   2.191
 5077TIP3   OH236721   2.031   5.575   0.177
 5077TIP3    H136722   1.981   5.644   0.133
 5077TIP3    H236723   2.111   5.620   0.208
 5078TIP3   OH236724   0.588   1.266  11.443
 5078TIP3    H136725   0.667   1.297  11.486
 5078TIP3    H236726   0.526   1.338  11.451
 5079TIP3   OH236727   6.726   0.134   3.643
 5079TIP3    H136728   6.733   0.039   3.655
 5079TIP3    H236729   6.634   0.153   3.662
 5080TIP3   OH236730   3.289   5.251  13.367
 5080TIP3    H136731   3.296   5.327  13.309
 5080TIP3    H236732   3.331   5.180  13.319
 5081TIP3   OH236733   3.257   2.398   5.085
 5081TIP3    H136734   3.170   2.358   5.080
 5081TIP3    H236735   3.277   2.426   4.996
 5082TIP3   OH236736   4.557   2.049   2.212
 5082TIP3    H136737   4.477   2.038   2.160
 5082TIP3    H236738   4.527   2.093   2.292
 5083TIP3   OH236739   0.845   2.142  14.567
 5083TIP3    H136740   0.755   2.157  14.596
 5083TIP3    H236741   0.891   2.223  14.586
 5084TIP3   OH236742   6.118   2.538  13.241
 5084TIP3    H136743   6.200   2.554  13.194
 5084TIP3    H236744   6.146   2.507  13.327
 5085TIP3   OH236745   5.801   5.757  13.188
 5085TIP3    H136746   5.733   5.792  13.130
 5085TIP3    H236747   5.874   5.736  13.130
 5086TIP3   OH236748   2.343   3.880   6.512
 5086TIP3    H136749   2.325   3.934   6.588
 5086TIP3    H236750   2.438   3.871   6.510
 5087TIP3   OH236751   6.677   2.100   5.058
 5087TIP3    H136752   6.623   2.023   5.044
 5087TIP3    H236753   6.761   2.066   5.090
 5088TIP3   OH236754   5.130   4.072   3.119
 5088TIP3    H136755   5.125   4.042   3.028
 5088TIP3    H236756   5.175   4.002   3.165
 5089TIP3   OH236757   6.126   2.905   5.155
 5089TIP3    H136758   6.049   2.895   5.099
 5089TIP3    H236759   6.099   2.967   5.223
 5090TIP3   OH236760   2.905   1.449  15.371
 5090TIP3    H136761   2.835   1.384  15.361
 5090TIP3    H236762   2.863   1.522  15.417
 5091TIP3   OH236763   4.850   6.581  14.350
 5091TIP3    H136764   4.883   6.570  14.439
 5091TIP3    H236765   4.922   6.554  14.294
 5092TIP3   OH236766   3.684   6.543   2.385
 5092TIP3    H136767   3.739   6.575   2.313
 5092TIP3    H236768   3.716   6.588   2.462
 5093TIP3   OH236769   1.950   1.319  11.725
 5093TIP3    H136770   2.003   1.289  11.651
 5093TIP3    H236771   1.914   1.239  11.763
 5094TIP3   OH236772   6.722   3.323  14.558
 5094TIP3    H136773   6.738   3.337  14.465
 5094TIP3    H236774   6.789   3.261  14.585
 5095TIP3   OH236775   5.307   4.141   4.027
 5095TIP3    H136776   5.400   4.148   4.008
 5095TIP3    H236777   5.266   4.211   3.975
 5096TIP3   OH236778   2.315   1.723   4.133
 5096TIP3    H136779   2.267   1.791   4.180
 5096TIP3    H236780   2.357   1.671   4.202
 5097TIP3   OH236781   2.298   3.043  13.024
 5097TIP3    H136782   2.293   3.002  13.111
 5097TIP3    H236783   2.332   3.131  13.041
 5098TIP3   OH236784   4.446   3.450  11.960
 5098TIP3    H136785   4.366   3.443  11.909
 5098TIP3    H236786   4.508   3.495  11.903
 5099TIP3   OH236787   4.133   5.305  14.286
 5099TIP3    H136788   4.135   5.331  14.378
 5099TIP3    H236789   4.051   5.343  14.253
 5100TIP3   OH236790   4.729   1.638  17.005
 5100TIP3    H136791   4.737   1.721  17.053
 5100TIP3    H236792   4.739   1.663  16.913
 5101TIP3   OH236793   2.964   0.979   6.558
 5101TIP3    H136794   2.891   1.039   6.546
 5101TIP3    H236795   2.989   0.989   6.650
 5102TIP3   OH236796   0.089   1.918  16.892
 5102TIP3    H136797   0.131   1.832  16.900
 5102TIP3    H236798   0.141   1.965  16.827
 5103TIP3   OH236799   3.960   1.206   4.568
 5103TIP3    H136800   3.932   1.131   4.516
 5103TIP3    H236801   3.880   1.256   4.583
 5104TIP3   OH236802   6.325   2.958  13.654
 5104TIP3    H136803   6.343   3.014  13.730
 5104TIP3    H236804   6.236   2.983  13.628
 5105TIP3   OH236805   3.831   5.618   0.593
 5105TIP3    H136806   3.771   5.603   0.521
 5105TIP3    H236807   3.810   5.707   0.624
 5106TIP3   OH236808   0.982   0.646   5.354
 5106TIP3    H136809   1.011   0.621   5.267
 5106TIP3    H236810   1.018   0.579   5.412
 5107TIP3   OH236811   5.234   2.138  13.941
 5107TIP3    H136812   5.152   2.155  13.988
 5107TIP3    H236813   5.211   2.152  13.849
 5108TIP3   OH236814   6.089   4.405  11.851
 5108TIP3    H136815   6.006   4.374  11.887
 5108TIP3    H236816   6.072   4.417  11.758
 5109TIP3   OH236817   1.579   4.180  14.146
 5109TIP3    H136818   1.503   4.139  14.187
 5109TIP3    H236819   1.590   4.263  14.194
 5110TIP3   OH236820   3.795   6.732   1.500
 5110TIP3    H136821   3.734   6.661   1.520
 5110TIP3    H236822   3.881   6.691   1.504
 5111TIP3   OH236823   1.565   2.843   2.111
 5111TIP3    H136824   1.489   2.825   2.055
 5111TIP3    H236825   1.622   2.767   2.098
 5112TIP3   OH236826   1.159   4.552  12.103
 5112TIP3    H136827   1.228   4.615  12.123
 5112TIP3    H236828   1.160   4.491  12.177
 5113TIP3   OH236829   3.991   2.188   1.473
 5113TIP3    H136830   4.032   2.142   1.547
 5113TIP3    H236831   3.913   2.136   1.453
 5114TIP3   OH236832   1.509   0.374   0.307
 5114TIP3    H136833   1.490   0.280   0.304
 5114TIP3    H236834   1.461   0.406   0.383
 5115TIP3   OH236835   3.338   6.294   5.565
 5115TIP3    H136836   3.245   6.311   5.554
 5115TIP3    H236837   3.343   6.205   5.601
 5116TIP3   OH236838   0.966   2.199   1.315
 5116TIP3    H136839   0.907   2.142   1.365
 5116TIP3    H236840   0.964   2.282   1.363
 5117TIP3   OH236841   3.659   3.076  12.938
 5117TIP3    H136842   3.748   3.060  12.906
 5117TIP3    H236843   3.606   3.084  12.858
 5118TIP3   OH236844   5.174   0.620   5.401
 5118TIP3    H136845   5.182   0.535   5.357
 5118TIP3    H236846   5.218   0.681   5.342
 5119TIP3   OH236847   4.313   3.855  12.479
 5119TIP3    H136848   4.225   3.852  12.516
 5119TIP3    H236849   4.357   3.777  12.515
 5120TIP3   OH236850   4.384   1.598  11.221
 5120TIP3    H136851   4.428   1.534  11.165
 5120TIP3    H236852   4.418   1.683  11.192
 5121TIP3   OH236853   1.633   3.946   4.915
 5121TIP3    H136854   1.608   3.914   4.828
 5121TIP3    H236855   1.684   3.875   4.953
 5122TIP3   OH236856   3.257   2.607   0.186
 5122TIP3    H136857   3.342   2.629   0.224
 5122TIP3    H236858   3.242   2.677   0.122
 5123TIP3   OH236859   4.167   5.963  16.379
 5123TIP3    H136860   4.188   5.989  16.290
 5123TIP3    H236861   4.106   6.030  16.410
 5124TIP3   OH236862   3.621   2.739  14.201
 5124TIP3    H136863   3.640   2.824  14.161
 5124TIP3    H236864   3.568   2.694  14.135
 5125TIP3   OH236865   0.465   0.271  14.587
 5125TIP3    H136866   0.550   0.229  14.576
 5125TIP3    H236867   0.470   0.311  14.674
 5126TIP3   OH236868   2.051   2.200   1.893
 5126TIP3    H136869   2.051   2.292   1.919
 5126TIP3    H236870   2.143   2.177   1.884
 5127TIP3   OH236871   5.684   4.327  10.609
 5127TIP3    H136872   5.721   4.269  10.542
 5127TIP3    H236873   5.607   4.280  10.642
 5128TIP3   OH236874   1.223   5.655   3.668
 5128TIP3    H136875   1.256   5.712   3.599
 5128TIP3    H236876   1.156   5.707   3.713
 5129TIP3   OH236877   2.545   5.201   3.561
 5129TIP3    H136878   2.505   5.247   3.635
 5129TIP3    H236879   2.636   5.188   3.587
 5130TIP3   OH236880   3.647   3.741  11.241
 5130TIP3    H136881   3.624   3.832  11.221
 5130TIP3    H236882   3.741   3.744  11.259
 5131TIP3   OH236883   1.014   6.386   0.148
 5131TIP3    H136884   1.019   6.423   0.237
 5131TIP3    H236885   0.922   6.392   0.124
 5132TIP3   OH236886   6.818   1.215  11.241
 5132TIP3    H136887   6.911   1.228  11.223
 5132TIP3    H236888   6.795   1.135  11.192
 5133TIP3   OH236889   5.630   4.254  16.198
 5133TIP3    H136890   5.646   4.347  16.211
 5133TIP3    H236891   5.597   4.247  16.109
 5134TIP3   OH236892   1.118   6.197  14.454
 5134TIP3    H136893   1.051   6.129  14.459
 5134TIP3    H236894   1.103   6.238  14.369
 5135TIP3   OH236895   1.746   0.402   6.493
 5135TIP3    H136896   1.788   0.317   6.502
 5135TIP3    H236897   1.677   0.402   6.560
 5136TIP3   OH236898   5.718   6.306   0.895
 5136TIP3    H136899   5.654   6.256   0.845
 5136TIP3    H236900   5.667   6.378   0.934
 5137TIP3   OH236901   3.580   4.232  14.286
 5137TIP3    H136902   3.589   4.172  14.360
 5137TIP3    H236903   3.539   4.180  14.217
 5138TIP3   OH236904   1.249   6.548  17.224
 5138TIP3    H136905   1.177   6.580  17.170
 5138TIP3    H236906   1.239   6.453  17.225
 5139TIP3   OH236907   5.782   2.855  16.579
 5139TIP3    H136908   5.707   2.813  16.536
 5139TIP3    H236909   5.802   2.799  16.653
 5140TIP3   OH236910   4.030   2.114  16.667
 5140TIP3    H136911   4.114   2.125  16.712
 5140TIP3    H236912   4.053   2.096  16.576
 5141TIP3   OH236913   1.689   1.950   2.637
 5141TIP3    H136914   1.652   2.009   2.571
 5141TIP3    H236915   1.760   2.000   2.676
 5142TIP3   OH236916   3.747   1.455   1.482
 5142TIP3    H136917   3.775   1.410   1.561
 5142TIP3    H236918   3.770   1.547   1.496
 5143TIP3   OH236919   2.769   5.077   2.706
 5143TIP3    H136920   2.677   5.083   2.680
 5143TIP3    H236921   2.771   5.114   2.795
 5144TIP3   OH236922   6.137   1.154   4.817
 5144TIP3    H136923   6.136   1.230   4.875
 5144TIP3    H236924   6.218   1.162   4.768
 5145TIP3   OH236925   0.698   5.848   6.708
 5145TIP3    H136926   0.640   5.924   6.706
 5145TIP3    H236927   0.708   5.823   6.616
 5146TIP3   OH236928   3.466   3.694  12.837
 5146TIP3    H136929   3.429   3.751  12.770
 5146TIP3    H236930   3.489   3.614  12.791
 5147TIP3   OH236931   3.622   0.214   6.365
 5147TIP3    H136932   3.638   0.124   6.393
 5147TIP3    H236933   3.535   0.211   6.325
 5148TIP3   OH236934   2.949   0.510   3.682
 5148TIP3    H136935   2.965   0.562   3.761
 5148TIP3    H236936   2.982   0.423   3.704
 5149TIP3   OH236937   6.139   3.236  13.211
 5149TIP3    H136938   6.132   3.211  13.118
 5149TIP3    H236939   6.091   3.319  13.217
 5150TIP3   OH236940   6.659   3.340   3.822
 5150TIP3    H136941   6.743   3.383   3.838
 5150TIP3    H236942   6.673   3.291   3.741
 5151TIP3   OH236943   5.768   0.769   1.065
 5151TIP3    H136944   5.778   0.863   1.081
 5151TIP3    H236945   5.679   0.760   1.032
 5152TIP3   OH236946   0.824   4.585  12.167
 5152TIP3    H136947   0.886   4.654  12.190
 5152TIP3    H236948   0.836   4.518  12.234
 5153TIP3   OH236949   2.251   5.493   1.913
 5153TIP3    H136950   2.216   5.522   1.829
 5153TIP3    H236951   2.174   5.485   1.970
 5154TIP3   OH236952   4.762   3.564   2.795
 5154TIP3    H136953   4.810   3.499   2.847
 5154TIP3    H236954   4.805   3.647   2.814
 5155TIP3   OH236955   5.627   4.799   0.607
 5155TIP3    H136956   5.609   4.705   0.605
 5155TIP3    H236957   5.542   4.839   0.628
 5156TIP3   OH236958   1.830   2.176   0.957
 5156TIP3    H136959   1.759   2.176   1.022
 5156TIP3    H236960   1.887   2.104   0.984
 5157TIP3   OH236961   0.540   1.656  11.233
 5157TIP3    H136962   0.610   1.713  11.203
 5157TIP3    H236963   0.505   1.617  11.153
 5158TIP3   OH236964   3.478   4.798   5.185
 5158TIP3    H136965   3.459   4.707   5.204
 5158TIP3    H236966   3.409   4.848   5.228
 5159TIP3   OH236967   4.803   0.179  13.630
 5159TIP3    H136968   4.708   0.188  13.630
 5159TIP3    H236969   4.826   0.154  13.541
 5160TIP3   OH236970   6.462   2.633   1.131
 5160TIP3    H136971   6.525   2.562   1.122
 5160TIP3    H236972   6.513   2.712   1.117
 5161TIP3   OH236973   5.581   0.224  15.601
 5161TIP3    H136974   5.538   0.310  15.605
 5161TIP3    H236975   5.598   0.210  15.507
 5162TIP3   OH236976   6.411   4.639  13.549
 5162TIP3    H136977   6.407   4.730  13.520
 5162TIP3    H236978   6.459   4.594  13.480
 5163TIP3   OH236979   6.699   0.599  17.055
 5163TIP3    H136980   6.651   0.637  17.129
 5163TIP3    H236981   6.640   0.607  16.981
 5164TIP3   OH236982   5.059   1.136  15.696
 5164TIP3    H136983   4.967   1.145  15.720
 5164TIP3    H236984   5.058   1.102  15.606
 5165TIP3   OH236985   6.377   4.281   4.056
 5165TIP3    H136986   6.354   4.215   3.990
 5165TIP3    H236987   6.466   4.258   4.083
 5166TIP3   OH236988   3.682   2.145   6.015
 5166TIP3    H136989   3.691   2.228   6.062
 5166TIP3    H236990   3.600   2.109   6.047
 5167TIP3   OH236991   4.740   5.739   3.234
 5167TIP3    H136992   4.663   5.793   3.250
 5167TIP3    H236993   4.717   5.653   3.271
 5168TIP3   OH236994   4.814   4.699   4.105
 5168TIP3    H136995   4.824   4.791   4.080
 5168TIP3    H236996   4.721   4.689   4.123
 5169TIP3   OH236997   4.824   3.954  15.719
 5169TIP3    H136998   4.901   3.978  15.669
 5169TIP3    H236999   4.753   3.953  15.655
 5170TIP3   OH237000   2.484   3.597   0.538
 5170TIP3    H137001   2.427   3.522   0.521
 5170TIP3    H237002   2.528   3.613   0.455
 5171TIP3   OH237003   1.340   1.482   2.785
 5171TIP3    H137004   1.343   1.458   2.692
 5171TIP3    H237005   1.310   1.573   2.786
 5172TIP3   OH237006   3.657   5.965   5.683
 5172TIP3    H137007   3.695   6.043   5.644
 5172TIP3    H237008   3.572   5.955   5.639
 5173TIP3   OH237009   5.146   5.245   1.150
 5173TIP3    H137010   5.052   5.230   1.165
 5173TIP3    H237011   5.152   5.265   1.056
 5174TIP3   OH237012   6.389   1.002  12.973
 5174TIP3    H137013   6.426   1.074  12.921
 5174TIP3    H237014   6.323   0.963  12.914
 5175TIP3   OH237015   2.285   6.724   1.034
 5175TIP3    H137016   2.206   6.693   1.079
 5175TIP3    H237017   2.334   6.645   1.014
 5176TIP3   OH237018   5.861   4.203  15.965
 5176TIP3    H137019   5.850   4.294  15.992
 5176TIP3    H237020   5.796   4.154  16.016
 5177TIP3   OH237021   2.915   4.173  16.191
 5177TIP3    H137022   2.978   4.222  16.244
 5177TIP3    H237023   2.942   4.082  16.200
 5178TIP3   OH237024   4.391   5.354  14.257
 5178TIP3    H137025   4.306   5.316  14.279
 5178TIP3    H237026   4.440   5.283  14.216
 5179TIP3   OH237027   0.598   6.765   2.477
 5179TIP3    H137028   0.526   6.707   2.452
 5179TIP3    H237029   0.651   6.712   2.537
 5180TIP3   OH237030   4.292   4.305  16.225
 5180TIP3    H137031   4.231   4.261  16.285
 5180TIP3    H237032   4.379   4.273  16.251
 5181TIP3   OH237033   3.748   3.254   1.023
 5181TIP3    H137034   3.758   3.287   1.112
 5181TIP3    H237035   3.819   3.190   1.014
 5182TIP3   OH237036   5.550   3.853  10.597
 5182TIP3    H137037   5.472   3.815  10.637
 5182TIP3    H237038   5.517   3.911  10.529
 5183TIP3   OH237039   0.071   5.449  12.233
 5183TIP3    H137040   0.104   5.434  12.321
 5183TIP3    H237041   0.054   5.362  12.197
 5184TIP3   OH237042   2.061   2.672   0.060
 5184TIP3    H137043   2.124   2.681   0.132
 5184TIP3    H237044   2.050   2.578   0.050
 5185TIP3   OH237045   3.548   5.296   3.265
 5185TIP3    H137046   3.471   5.325   3.314
 5185TIP3    H237047   3.565   5.208   3.298
 5186TIP3   OH237048   2.009   1.129   1.644
 5186TIP3    H137049   1.974   1.189   1.710
 5186TIP3    H237050   1.932   1.093   1.601
 5187TIP3   OH237051   0.988   2.264  15.275
 5187TIP3    H137052   1.052   2.198  15.250
 5187TIP3    H237053   0.975   2.316  15.196
 5188TIP3   OH237054   4.894   1.728  15.341
 5188TIP3    H137055   4.977   1.680  15.343
 5188TIP3    H237056   4.881   1.757  15.431
 5189TIP3   OH237057   6.661   2.848   5.198
 5189TIP3    H137058   6.692   2.840   5.108
 5189TIP3    H237059   6.573   2.885   5.190
 5190TIP3   OH237060   0.054   5.507   2.829
 5190TIP3    H137061  -0.021   5.447   2.832
 5190TIP3    H237062   0.104   5.486   2.907
 5191TIP3   OH237063   3.889   2.735   4.971
 5191TIP3    H137064   3.960   2.688   5.016
 5191TIP3    H237065   3.908   2.724   4.878
 5192TIP3   OH237066   0.671   5.492   2.654
 5192TIP3    H137067   0.588   5.516   2.696
 5192TIP3    H237068   0.736   5.496   2.724
 5193TIP3   OH237069   3.038   0.405  12.659
 5193TIP3    H137070   3.066   0.399  12.750
 5193TIP3    H237071   3.072   0.326  12.617
 5194TIP3   OH237072   3.086   3.070   1.329
 5194TIP3    H137073   3.157   3.073   1.394
 5194TIP3    H237074   3.127   3.100   1.248
 5195TIP3   OH237075   3.563   5.062  16.196
 5195TIP3    H137076   3.565   4.967  16.184
 5195TIP3    H237077   3.540   5.074  16.288
 5196TIP3   OH237078   4.077   6.672  10.422
 5196TIP3    H137079   4.113   6.720  10.348
 5196TIP3    H237080   4.092   6.580  10.401
 5197TIP3   OH237081   1.438   5.821  15.323
 5197TIP3    H137082   1.419   5.728  15.312
 5197TIP3    H237083   1.352   5.862  15.335
 5198TIP3   OH237084   6.233   0.682  12.669
 5198TIP3    H137085   6.278   0.706  12.589
 5198TIP3    H237086   6.263   0.593  12.689
 5199TIP3   OH237087   1.581   5.471  13.519
 5199TIP3    H137088   1.539   5.497  13.436
 5199TIP3    H237089   1.541   5.387  13.541
 5200TIP3   OH237090   2.762   1.076   2.773
 5200TIP3    H137091   2.840   1.111   2.730
 5200TIP3    H237092   2.778   0.982   2.779
 5201TIP3   OH237093   0.737   2.237   5.380
 5201TIP3    H137094   0.829   2.243   5.406
 5201TIP3    H237095   0.735   2.273   5.292
 5202TIP3   OH237096   5.179   5.863  15.387
 5202TIP3    H137097   5.190   5.955  15.362
 5202TIP3    H237098   5.099   5.862  15.439
 5203TIP3   OH237099   6.605   4.924   3.809
 5203TIP3    H137100   6.681   4.912   3.866
 5203TIP3    H237101   6.548   4.983   3.858
 5204TIP3   OH237102   1.502   5.676   3.758
 5204TIP3    H137103   1.597   5.686   3.764
 5204TIP3    H237104   1.470   5.705   3.844
 5205TIP3   OH237105   1.635   5.133   0.053
 5205TIP3    H137106   1.564   5.137   0.117
 5205TIP3    H237107   1.714   5.153   0.104
 5206TIP3   OH237108   5.501   1.610   3.111
 5206TIP3    H137109   5.440   1.643   3.177
 5206TIP3    H237110   5.493   1.671   3.037
 5207TIP3   OH237111   2.490   5.486   3.377
 5207TIP3    H137112   2.407   5.532   3.389
 5207TIP3    H237113   2.464   5.395   3.359
 5208TIP3   OH237114   2.819   6.264  13.960
 5208TIP3    H137115   2.780   6.192  13.909
 5208TIP3    H237116   2.867   6.316  13.896
 5209TIP3   OH237117   6.431   2.902  11.882
 5209TIP3    H137118   6.503   2.867  11.934
 5209TIP3    H237119   6.359   2.910  11.944
 5210TIP3   OH237120   3.578   3.160  14.955
 5210TIP3    H137121   3.504   3.183  14.899
 5210TIP3    H237122   3.615   3.082  14.914
 5211TIP3   OH237123   6.123   2.679   0.127
 5211TIP3    H137124   6.118   2.598   0.178
 5211TIP3    H237125   6.033   2.697   0.100
 5212TIP3   OH237126   6.220   2.847  10.472
 5212TIP3    H137127   6.125   2.833  10.473
 5212TIP3    H237128   6.254   2.774  10.420
 5213TIP3   OH237129   1.161   0.941  14.565
 5213TIP3    H137130   1.229   1.008  14.576
 5213TIP3    H237131   1.193   0.886  14.493
 5214TIP3   OH237132   0.736   5.269  15.455
 5214TIP3    H137133   0.698   5.300  15.373
 5214TIP3    H237134   0.795   5.340  15.482
 5215TIP3   OH237135   3.129   6.133  12.945
 5215TIP3    H137136   3.065   6.124  12.874
 5215TIP3    H237137   3.136   6.227  12.960
 5216TIP3   OH237138   1.414   0.162  13.171
 5216TIP3    H137139   1.465   0.122  13.241
 5216TIP3    H237140   1.479   0.188  13.106
 5217TIP3   OH237141   2.351   4.236  15.706
 5217TIP3    H137142   2.441   4.204  15.716
 5217TIP3    H237143   2.304   4.163  15.666
 5218TIP3   OH237144   5.572   4.643  13.821
 5218TIP3    H137145   5.557   4.670  13.731
 5218TIP3    H237146   5.588   4.548  13.815
 5219TIP3   OH237147   0.024   4.906  12.750
 5219TIP3    H137148   0.087   4.949  12.692
 5219TIP3    H237149  -0.031   4.855  12.691
 5220TIP3   OH237150   4.158   3.996   2.464
 5220TIP3    H137151   4.110   3.953   2.393
 5220TIP3    H237152   4.090   4.026   2.525
 5221TIP3   OH237153   1.595   0.681  13.499
 5221TIP3    H137154   1.682   0.713  13.522
 5221TIP3    H237155   1.535   0.746  13.535
 5222TIP3   OH237156   6.689   6.809  13.194
 5222TIP3    H137157   6.598   6.821  13.169
 5222TIP3    H237158   6.728   6.896  13.186
 5223TIP3   OH237159   3.367   2.383   0.822
 5223TIP3    H137160   3.421   2.380   0.742
 5223TIP3    H237161   3.279   2.360   0.791
 5224TIP3   OH237162   4.348   5.535   4.679
 5224TIP3    H137163   4.295   5.511   4.604
 5224TIP3    H237164   4.422   5.475   4.677
 5225TIP3   OH237165   1.712   1.920  17.062
 5225TIP3    H137166   1.804   1.932  17.035
 5225TIP3    H237167   1.714   1.845  17.120
 5226TIP3   OH237168   0.111   0.489   6.008
 5226TIP3    H137169   0.053   0.556   5.972
 5226TIP3    H237170   0.095   0.492   6.103
 5227TIP3   OH237171   4.052   4.929  11.454
 5227TIP3    H137172   4.107   4.950  11.530
 5227TIP3    H237173   4.046   5.011  11.405
 5228TIP3   OH237174   5.762   2.678   4.114
 5228TIP3    H137175   5.831   2.656   4.051
 5228TIP3    H237176   5.753   2.773   4.106
 5229TIP3   OH237177   0.254   2.905   0.464
 5229TIP3    H137178   0.237   2.861   0.547
 5229TIP3    H237179   0.171   2.948   0.443
 5230TIP3   OH237180   4.899   0.773   4.106
 5230TIP3    H137181   4.909   0.861   4.068
 5230TIP3    H237182   4.885   0.716   4.031
 5231TIP3   OH237183   3.529   6.656   5.194
 5231TIP3    H137184   3.565   6.726   5.140
 5231TIP3    H237185   3.605   6.611   5.229
 5232TIP3   OH237186   4.739   6.506   5.439
 5232TIP3    H137187   4.709   6.469   5.521
 5232TIP3    H237188   4.708   6.445   5.372
 5233TIP3   OH237189   3.859   5.438  12.998
 5233TIP3    H137190   3.858   5.499  13.072
 5233TIP3    H237191   3.767   5.429  12.974
 5234TIP3   OH237192   3.958   2.888   1.467
 5234TIP3    H137193   3.989   2.816   1.522
 5234TIP3    H237194   3.895   2.935   1.521
 5235TIP3   OH237195   6.629   1.106  14.486
 5235TIP3    H137196   6.607   1.180  14.542
 5235TIP3    H237197   6.677   1.046  14.543
 5236TIP3   OH237198   6.130   2.725   2.250
 5236TIP3    H137199   6.044   2.711   2.211
 5236TIP3    H237200   6.185   2.753   2.176
 5237TIP3   OH237201   0.933   4.350   5.783
 5237TIP3    H137202   1.029   4.343   5.778
 5237TIP3    H237203   0.915   4.441   5.760
 5238TIP3   OH237204   6.223   6.081  16.663
 5238TIP3    H137205   6.213   5.992  16.698
 5238TIP3    H237206   6.144   6.127  16.691
 5239TIP3   OH237207   5.310   3.884   0.836
 5239TIP3    H137208   5.400   3.854   0.850
 5239TIP3    H237209   5.260   3.805   0.820
 5240TIP3   OH237210   3.353   3.538  11.960
 5240TIP3    H137211   3.418   3.474  11.930
 5240TIP3    H237212   3.394   3.623  11.943
 5241TIP3   OH237213   0.613   0.288  12.532
 5241TIP3    H137214   0.700   0.253  12.509
 5241TIP3    H237215   0.630   0.378  12.561
 5242TIP3   OH237216   1.008   1.124  12.344
 5242TIP3    H137217   1.057   1.175  12.409
 5242TIP3    H237218   0.936   1.085  12.393
 5243TIP3   OH237219   1.161   6.612  12.286
 5243TIP3    H137220   1.089   6.572  12.238
 5243TIP3    H237221   1.145   6.590  12.378
 5244TIP3   OH237222   6.443   1.819   5.466
 5244TIP3    H137223   6.424   1.730   5.436
 5244TIP3    H237224   6.359   1.863   5.467
 5245TIP3   OH237225   6.254   3.203   2.231
 5245TIP3    H137226   6.177   3.145   2.239
 5245TIP3    H237227   6.328   3.145   2.248
 5246TIP3   OH237228   6.467   2.766  16.232
 5246TIP3    H137229   6.437   2.755  16.142
 5246TIP3    H237230   6.508   2.852  16.234
 5247TIP3   OH237231   5.568   3.291  13.565
 5247TIP3    H137232   5.584   3.205  13.526
 5247TIP3    H237233   5.638   3.301  13.629
 5248TIP3   OH237234   0.345   6.657  11.360
 5248TIP3    H137235   0.391   6.578  11.389
 5248TIP3    H237236   0.395   6.686  11.283
 5249TIP3   OH237237   3.821   5.705   4.632
 5249TIP3    H137238   3.885   5.732   4.699
 5249TIP3    H237239   3.797   5.616   4.657
 5250TIP3   OH237240   1.971   4.090   2.991
 5250TIP3    H137241   2.028   4.062   3.063
 5250TIP3    H237242   1.886   4.049   3.010
 5251TIP3   OH237243   6.072   4.253   3.629
 5251TIP3    H137244   6.092   4.260   3.535
 5251TIP3    H237245   5.978   4.236   3.632
 5252TIP3   OH237246   4.521   1.591  12.690
 5252TIP3    H137247   4.599   1.569  12.639
 5252TIP3    H237248   4.522   1.529  12.763
 5253TIP3   OH237249   4.129   2.970   3.095
 5253TIP3    H137250   4.188   2.971   3.170
 5253TIP3    H237251   4.182   3.001   3.021
 5254TIP3   OH237252   5.139   6.616   4.813
 5254TIP3    H137253   5.154   6.587   4.723
 5254TIP3    H237254   5.060   6.571   4.841
 5255TIP3   OH237255   4.914   4.800   6.106
 5255TIP3    H137256   4.850   4.871   6.107
 5255TIP3    H237257   4.862   4.720   6.099
 5256TIP3   OH237258   6.713   3.312  12.250
 5256TIP3    H137259   6.785   3.313  12.313
 5256TIP3    H237260   6.667   3.395  12.263
 5257TIP3   OH237261   1.744   0.191   2.074
 5257TIP3    H137262   1.756   0.097   2.084
 5257TIP3    H237263   1.831   0.225   2.052
 5258TIP3   OH237264   0.266   3.480  16.273
 5258TIP3    H137265   0.225   3.438  16.348
 5258TIP3    H237266   0.296   3.408  16.218
 5259TIP3   OH237267   2.127   4.212   3.614
 5259TIP3    H137268   2.106   4.283   3.675
 5259TIP3    H237269   2.203   4.170   3.653
 5260TIP3   OH237270   4.344   3.073  11.542
 5260TIP3    H137271   4.382   2.994  11.503
 5260TIP3    H237272   4.354   3.140  11.475
 5261TIP3   OH237273   6.548   0.232  16.748
 5261TIP3    H137274   6.541   0.156  16.806
 5261TIP3    H237275   6.606   0.202  16.677
 5262TIP3   OH237276   5.569   4.406   3.510
 5262TIP3    H137277   5.599   4.393   3.420
 5262TIP3    H237278   5.480   4.372   3.510
 5263TIP3   OH237279   2.505   5.131   4.816
 5263TIP3    H137280   2.420   5.170   4.801
 5263TIP3    H237281   2.486   5.042   4.847
 5264TIP3   OH237282   1.357   5.774   5.889
 5264TIP3    H137283   1.316   5.734   5.967
 5264TIP3    H237284   1.339   5.711   5.819
 5265TIP3   OH237285   2.895   0.276   2.248
 5265TIP3    H137286   2.850   0.337   2.190
 5265TIP3    H237287   2.940   0.331   2.311
 5266TIP3   OH237288   5.386   4.395   2.544
 5266TIP3    H137289   5.350   4.483   2.552
 5266TIP3    H237290   5.398   4.382   2.450
 5267TIP3   OH237291   0.804   6.733   5.478
 5267TIP3    H137292   0.742   6.676   5.433
 5267TIP3    H237293   0.778   6.730   5.570
 5268TIP3   OH237294   2.022   2.450   5.293
 5268TIP3    H137295   2.090   2.502   5.251
 5268TIP3    H237296   2.040   2.456   5.387
 5269TIP3   OH237297   0.314   4.175  14.448
 5269TIP3    H137298   0.349   4.127  14.523
 5269TIP3    H237299   0.325   4.115  14.375
 5270TIP3   OH237300   3.106   6.261   6.137
 5270TIP3    H137301   3.185   6.312   6.155
 5270TIP3    H237302   3.081   6.224   6.222
 5271TIP3   OH237303   4.958   3.925  13.485
 5271TIP3    H137304   4.864   3.914  13.499
 5271TIP3    H237305   4.990   3.961  13.568
 5272TIP3   OH237306   4.090   5.871  12.362
 5272TIP3    H137307   4.081   5.794  12.305
 5272TIP3    H237308   4.033   5.937  12.323
 5273TIP3   OH237309   4.944   2.444  14.322
 5273TIP3    H137310   4.974   2.487  14.242
 5273TIP3    H237311   5.018   2.392  14.350
 5274TIP3   OH237312   4.718   5.103  15.553
 5274TIP3    H137313   4.657   5.032  15.573
 5274TIP3    H237314   4.789   5.091  15.616
 5275TIP3   OH237315   0.191   1.790   3.734
 5275TIP3    H137316   0.129   1.798   3.807
 5275TIP3    H237317   0.172   1.705   3.695
 5276TIP3   OH237318   0.284   3.774  14.317
 5276TIP3    H137319   0.319   3.720  14.246
 5276TIP3    H237320   0.358   3.828  14.346
 5277TIP3   OH237321   1.168   6.453   4.978
 5277TIP3    H137322   1.244   6.456   5.036
 5277TIP3    H237323   1.093   6.456   5.037
 5278TIP3   OH237324   1.142   3.816   2.853
 5278TIP3    H137325   1.173   3.788   2.939
 5278TIP3    H237326   1.217   3.860   2.814
 5279TIP3   OH237327   6.291   4.002   2.727
 5279TIP3    H137328   6.249   4.039   2.805
 5279TIP3    H237329   6.335   3.923   2.759
 5280TIP3   OH237330   6.066   1.614   6.460
 5280TIP3    H137331   5.995   1.583   6.517
 5280TIP3    H237332   6.123   1.538   6.449
 5281TIP3   OH237333   5.117   6.403  15.258
 5281TIP3    H137334   5.151   6.490  15.276
 5281TIP3    H237335   5.180   6.364  15.197
 5282TIP3   OH237336   4.854   4.372  17.100
 5282TIP3    H137337   4.841   4.287  17.058
 5282TIP3    H237338   4.900   4.425  17.034
 5283TIP3   OH237339   5.605   4.149   0.838
 5283TIP3    H137340   5.563   4.196   0.910
 5283TIP3    H237341   5.677   4.206   0.811
 5284TIP3   OH237342   2.234   0.016  16.036
 5284TIP3    H137343   2.319   0.005  15.993
 5284TIP3    H237344   2.252  -0.004  16.128
 5285TIP3   OH237345   4.307   4.159   4.128
 5285TIP3    H137346   4.290   4.188   4.218
 5285TIP3    H237347   4.266   4.073   4.123
 5286TIP3   OH237348   3.448   3.158  13.457
 5286TIP3    H137349   3.436   3.240  13.506
 5286TIP3    H237350   3.477   3.095  13.523
 5287TIP3   OH237351   3.882   4.336   1.380
 5287TIP3    H137352   3.877   4.311   1.472
 5287TIP3    H237353   3.799   4.307   1.342
 5288TIP3   OH237354   6.621   1.428  14.426
 5288TIP3    H137355   6.638   1.519  14.402
 5288TIP3    H237356   6.701   1.400  14.472
 5289TIP3   OH237357   4.908   1.763  14.113
 5289TIP3    H137358   4.976   1.709  14.154
 5289TIP3    H237359   4.891   1.833  14.176
 5290TIP3   OH237360   3.946   1.041   1.252
 5290TIP3    H137361   3.915   0.962   1.209
 5290TIP3    H237362   3.902   1.112   1.206
 5291TIP3   OH237363   0.304   4.792   4.980
 5291TIP3    H137364   0.279   4.798   4.888
 5291TIP3    H237365   0.222   4.803   5.029
 5292TIP3   OH237366   4.332   2.048   5.446
 5292TIP3    H137367   4.428   2.052   5.446
 5292TIP3    H237368   4.305   2.119   5.388
 5293TIP3   OH237369   5.870   6.314   3.551
 5293TIP3    H137370   5.774   6.314   3.544
 5293TIP3    H237371   5.887   6.316   3.645
 5294TIP3   OH237372   2.357   0.720  13.553
 5294TIP3    H137373   2.290   0.697  13.617
 5294TIP3    H237374   2.415   0.780  13.599
 5295TIP3   OH237375   5.794   1.242   1.092
 5295TIP3    H137376   5.873   1.280   1.053
 5295TIP3    H237377   5.750   1.316   1.134
 5296TIP3   OH237378   3.134   4.754  13.228
 5296TIP3    H137379   3.198   4.685  13.247
 5296TIP3    H237380   3.065   4.741  13.293
 5297TIP3   OH237381   0.856   2.122   2.759
 5297TIP3    H137382   0.840   2.214   2.777
 5297TIP3    H237383   0.935   2.121   2.705
 5298TIP3   OH237384   6.596   4.750  17.288
 5298TIP3    H137385   6.522   4.694  17.310
 5298TIP3    H237386   6.634   4.710  17.210
 5299TIP3   OH237387   4.110   5.949   1.966
 5299TIP3    H137388   4.137   6.041   1.963
 5299TIP3    H237389   4.051   5.944   2.042
 5300TIP3   OH237390   0.226   0.884   6.054
 5300TIP3    H137391   0.160   0.861   5.988
 5300TIP3    H237392   0.206   0.827   6.129
 5301TIP3   OH237393   5.929   6.118   2.274
 5301TIP3    H137394   5.857   6.062   2.245
 5301TIP3    H237395   5.997   6.057   2.304
 5302TIP3   OH237396   3.974   1.553  15.001
 5302TIP3    H137397   3.895   1.562  14.948
 5302TIP3    H237398   4.044   1.585  14.945
 5303TIP3   OH237399   1.948   5.768   0.373
 5303TIP3    H137400   2.007   5.744   0.444
 5303TIP3    H237401   1.941   5.689   0.320
 5304TIP3   OH237402   6.131   0.543   0.433
 5304TIP3    H137403   6.063   0.495   0.479
 5304TIP3    H237404   6.128   0.509   0.343
 5305TIP3   OH237405   4.051   2.254  13.630
 5305TIP3    H137406   3.959   2.277  13.638
 5305TIP3    H237407   4.086   2.265  13.718
 5306TIP3   OH237408   2.561   0.030   4.813
 5306TIP3    H137409   2.652   0.012   4.787
 5306TIP3    H237410   2.563   0.120   4.846
 5307TIP3   OH237411   3.410   4.023  16.719
 5307TIP3    H137412   3.472   4.084  16.681
 5307TIP3    H237413   3.324   4.057  16.696
 5308TIP3   OH237414   3.721   3.592   3.641
 5308TIP3    H137415   3.752   3.508   3.676
 5308TIP3    H237416   3.679   3.635   3.716
 5309TIP3   OH237417   0.412   2.795   4.247
 5309TIP3    H137418   0.508   2.797   4.247
 5309TIP3    H237419   0.388   2.797   4.339
 5310TIP3   OH237420   1.416   2.052  12.256
 5310TIP3    H137421   1.349   1.994  12.219
 5310TIP3    H237422   1.419   2.126  12.196
 5311TIP3   OH237423   0.762   4.519   4.424
 5311TIP3    H137424   0.799   4.430   4.427
 5311TIP3    H237425   0.680   4.513   4.473
 5312TIP3   OH237426   4.751   5.645  15.800
 5312TIP3    H137427   4.671   5.594  15.790
 5312TIP3    H237428   4.751   5.673  15.891
 5313TIP3   OH237429   6.041   1.852   4.350
 5313TIP3    H137430   6.112   1.789   4.360
 5313TIP3    H237431   5.972   1.820   4.408
 5314TIP3   OH237432   0.162   1.366   1.048
 5314TIP3    H137433   0.083   1.315   1.063
 5314TIP3    H237434   0.132   1.443   1.000
 5315TIP3   OH237435   1.152   4.394  12.354
 5315TIP3    H137436   1.056   4.398  12.360
 5315TIP3    H237437   1.176   4.319  12.409
 5316TIP3   OH237438   4.999   1.292  11.503
 5316TIP3    H137439   4.907   1.266  11.497
 5316TIP3    H237440   5.005   1.341  11.585
 5317TIP3   OH237441   3.778   1.704   4.291
 5317TIP3    H137442   3.739   1.697   4.379
 5317TIP3    H237443   3.741   1.785   4.255
 5318TIP3   OH237444   2.257   4.032  15.589
 5318TIP3    H137445   2.300   3.949  15.607
 5318TIP3    H237446   2.294   4.061  15.506
 5319TIP3   OH237447   5.463   4.936   2.624
 5319TIP3    H137448   5.388   4.885   2.656
 5319TIP3    H237449   5.426   4.999   2.563
 5320TIP3   OH237450   5.508   0.280  16.513
 5320TIP3    H137451   5.482   0.310  16.600
 5320TIP3    H237452   5.505   0.185  16.518
 5321TIP3   OH237453   1.690   4.220  15.756
 5321TIP3    H137454   1.785   4.208  15.757
 5321TIP3    H237455   1.659   4.180  15.837
 5322TIP3   OH237456   5.094   2.744   0.921
 5322TIP3    H137457   5.184   2.773   0.939
 5322TIP3    H237458   5.081   2.670   0.980
 5323TIP3   OH237459   0.112   0.044  11.662
 5323TIP3    H137460   0.089   0.042  11.569
 5323TIP3    H237461   0.132  -0.047  11.684
 5324TIP3   OH237462   6.393   6.335   2.647
 5324TIP3    H137463   6.353   6.359   2.730
 5324TIP3    H237464   6.368   6.244   2.634
 5325TIP3   OH237465   5.642   5.645  15.511
 5325TIP3    H137466   5.622   5.590  15.587
 5325TIP3    H237467   5.556   5.662  15.471
 5326TIP3   OH237468   3.217   3.972  16.077
 5326TIP3    H137469   3.225   3.926  15.994
 5326TIP3    H237470   3.128   3.955  16.106
 5327TIP3   OH237471   4.703   5.891  15.646
 5327TIP3    H137472   4.696   5.825  15.716
 5327TIP3    H237473   4.684   5.842  15.566
 5328TIP3   OH237474   2.798   1.019  12.982
 5328TIP3    H137475   2.703   1.021  12.996
 5328TIP3    H237476   2.810   0.958  12.909
 5329TIP3   OH237477   0.645   1.976   5.435
 5329TIP3    H137478   0.694   2.058   5.432
 5329TIP3    H237479   0.571   1.989   5.375
 5330TIP3   OH237480   3.291   1.100   1.409
 5330TIP3    H137481   3.225   1.047   1.365
 5330TIP3    H237482   3.256   1.115   1.497
 5331TIP3   OH237483   2.964   0.615  16.895
 5331TIP3    H137484   2.927   0.533  16.862
 5331TIP3    H237485   2.902   0.682  16.866
 5332TIP3   OH237486   0.192   1.757   1.248
 5332TIP3    H137487   0.199   1.662   1.240
 5332TIP3    H237488   0.230   1.778   1.333
 5333TIP3   OH237489   4.752   3.952   2.801
 5333TIP3    H137490   4.778   3.886   2.865
 5333TIP3    H237491   4.813   3.940   2.728
 5334TIP3   OH237492   4.705   4.281  14.280
 5334TIP3    H137493   4.707   4.214  14.211
 5334TIP3    H237494   4.794   4.315  14.282
 5335TIP3   OH237495   4.801   6.658  15.350
 5335TIP3    H137496   4.776   6.677  15.440
 5335TIP3    H237497   4.724   6.683  15.298
 5336TIP3   OH237498   4.601   3.651   3.621
 5336TIP3    H137499   4.590   3.699   3.539
 5336TIP3    H237500   4.514   3.617   3.642
 5337TIP3   OH237501   1.239   4.790  17.285
 5337TIP3    H137502   1.246   4.707  17.238
 5337TIP3    H237503   1.276   4.773  17.371
 5338TIP3   OH237504   1.630   4.057   1.250
 5338TIP3    H137505   1.581   3.993   1.300
 5338TIP3    H237506   1.631   4.135   1.305
 5339TIP3   OH237507   4.734   0.394   1.441
 5339TIP3    H137508   4.724   0.465   1.377
 5339TIP3    H237509   4.667   0.413   1.508
 5340TIP3   OH237510   3.837   6.814  11.344
 5340TIP3    H137511   3.881   6.797  11.427
 5340TIP3    H237512   3.881   6.756  11.281
 5341TIP3   OH237513   3.788   3.331   4.416
 5341TIP3    H137514   3.832   3.275   4.481
 5341TIP3    H237515   3.703   3.351   4.457
 5342TIP3   OH237516   0.862   4.278   3.269
 5342TIP3    H137517   0.825   4.359   3.305
 5342TIP3    H237518   0.949   4.303   3.239
 5343TIP3   OH237519   1.160   5.485   0.407
 5343TIP3    H137520   1.104   5.562   0.417
 5343TIP3    H237521   1.155   5.464   0.314
 5344TIP3   OH237522   2.470   5.039  16.235
 5344TIP3    H137523   2.492   5.096  16.308
 5344TIP3    H237524   2.508   5.083  16.159
 5345TIP3   OH237525   2.351   0.208   6.602
 5345TIP3    H137526   2.417   0.213   6.672
 5345TIP3    H237527   2.268   0.203   6.648
 5346TIP3   OH237528   5.977   0.300  14.622
 5346TIP3    H137529   6.040   0.372  14.619
 5346TIP3    H237530   6.028   0.225  14.653
 5347TIP3   OH237531   1.705   5.980  13.152
 5347TIP3    H137532   1.674   6.015  13.236
 5347TIP3    H237533   1.641   6.012  13.088
 5348TIP3   OH237534   6.468   3.610   6.568
 5348TIP3    H137535   6.409   3.655   6.507
 5348TIP3    H237536   6.458   3.517   6.547
 5349TIP3   OH237537   3.099   6.706  11.669
 5349TIP3    H137538   3.182   6.718  11.623
 5349TIP3    H237539   3.068   6.795  11.686
 5350TIP3   OH237540   3.510   3.486  10.742
 5350TIP3    H137541   3.567   3.422  10.701
 5350TIP3    H237542   3.470   3.534  10.670
 5351TIP3   OH237543   2.138   6.352  15.249
 5351TIP3    H137544   2.046   6.335  15.269
 5351TIP3    H237545   2.147   6.447  15.260
 5352TIP3   OH237546   1.169   1.485  17.108
 5352TIP3    H137547   1.239   1.501  17.171
 5352TIP3    H237548   1.097   1.539  17.138
 5353TIP3   OH237549   2.363   1.124  12.227
 5353TIP3    H137550   2.405   1.084  12.303
 5353TIP3    H237551   2.342   1.050  12.170
 5354TIP3   OH237552   3.658   4.918  10.908
 5354TIP3    H137553   3.675   4.958  10.993
 5354TIP3    H237554   3.587   4.971  10.870
 5355TIP3   OH237555   4.532   0.506  13.128
 5355TIP3    H137556   4.514   0.600  13.124
 5355TIP3    H237557   4.545   0.488  13.221
 5356TIP3   OH237558   3.808   4.969   2.467
 5356TIP3    H137559   3.730   4.931   2.427
 5356TIP3    H237560   3.776   5.015   2.545
 5357TIP3   OH237561   3.406   2.946   1.377
 5357TIP3    H137562   3.408   2.867   1.323
 5357TIP3    H237563   3.374   2.917   1.462
 5358TIP3   OH237564   3.100   0.607  13.168
 5358TIP3    H137565   3.139   0.686  13.206
 5358TIP3    H237566   3.034   0.639  13.107
 5359TIP3   OH237567   5.029   0.839  13.731
 5359TIP3    H137568   5.089   0.778  13.688
 5359TIP3    H237569   5.006   0.902  13.663
 5360TIP3   OH237570   4.529   5.378   4.925
 5360TIP3    H137571   4.505   5.425   5.005
 5360TIP3    H237572   4.458   5.397   4.864
 5361TIP3   OH237573   1.082   6.487   2.171
 5361TIP3    H137574   1.118   6.561   2.220
 5361TIP3    H237575   0.987   6.493   2.185
 5362TIP3   OH237576   3.848   1.741   5.751
 5362TIP3    H137577   3.872   1.659   5.795
 5362TIP3    H237578   3.756   1.754   5.772
 5363TIP3   OH237579   0.826   4.062  13.852
 5363TIP3    H137580   0.893   4.088  13.916
 5363TIP3    H237581   0.776   4.142  13.836
 5364TIP3   OH237582   4.106   1.057  15.155
 5364TIP3    H137583   4.036   1.120  15.140
 5364TIP3    H237584   4.133   1.072  15.246
 5365TIP3   OH237585   0.301   2.298  16.948
 5365TIP3    H137586   0.373   2.260  16.999
 5365TIP3    H237587   0.282   2.232  16.881
 5366TIP3   OH237588   6.362   0.117   2.781
 5366TIP3    H137589   6.404   0.127   2.866
 5366TIP3    H237590   6.397   0.188   2.728
 5367TIP3   OH237591   2.498   5.357  15.022
 5367TIP3    H137592   2.417   5.389  15.062
 5367TIP3    H237593   2.549   5.436  15.005
 5368TIP3   OH237594   2.505   5.723   0.504
 5368TIP3    H137595   2.455   5.794   0.466
 5368TIP3    H237596   2.540   5.759   0.586
 5369TIP3   OH237597   2.089   2.784  11.740
 5369TIP3    H137598   2.030   2.836  11.794
 5369TIP3    H237599   2.039   2.705  11.719
 5370TIP3   OH237600   5.314   5.139   3.804
 5370TIP3    H137601   5.225   5.173   3.801
 5370TIP3    H237602   5.321   5.082   3.727
 5371TIP3   OH237603   2.738   0.307   3.832
 5371TIP3    H137604   2.721   0.341   3.744
 5371TIP3    H237605   2.833   0.307   3.839
 5372TIP3   OH237606   5.184   3.348   5.055
 5372TIP3    H137607   5.178   3.291   5.132
 5372TIP3    H237608   5.241   3.420   5.083
 5373TIP3   OH237609   3.752   1.404   4.703
 5373TIP3    H137610   3.704   1.482   4.729
 5373TIP3    H237611   3.815   1.389   4.774
 5374TIP3   OH237612   3.601   1.160   3.098
 5374TIP3    H137613   3.574   1.188   3.186
 5374TIP3    H237614   3.626   1.242   3.055
 5375TIP3   OH237615   0.057   4.104   5.128
 5375TIP3    H137616   0.056   4.069   5.217
 5375TIP3    H237617   0.069   4.027   5.073
 5376TIP3   OH237618   1.879   3.293  14.961
 5376TIP3    H137619   1.931   3.222  14.925
 5376TIP3    H237620   1.788   3.265  14.948
 5377TIP3   OH237621   1.127   1.870   1.468
 5377TIP3    H137622   1.102   1.847   1.557
 5377TIP3    H237623   1.158   1.960   1.474
 5378TIP3   OH237624   4.025   0.678  12.552
 5378TIP3    H137625   4.078   0.644  12.480
 5378TIP3    H237626   4.089   0.710  12.616
 5379TIP3   OH237627   5.298   2.318  14.500
 5379TIP3    H137628   5.336   2.230  14.504
 5379TIP3    H237629   5.273   2.338  14.590
 5380TIP3   OH237630   2.526   0.034   4.409
 5380TIP3    H137631   2.515   0.119   4.451
 5380TIP3    H237632   2.452  -0.019   4.439
 5381TIP3   OH237633   4.478   4.874   1.759
 5381TIP3    H137634   4.435   4.816   1.822
 5381TIP3    H237635   4.570   4.849   1.763
 5382TIP3   OH237636   5.142   1.527   6.188
 5382TIP3    H137637   5.112   1.613   6.217
 5382TIP3    H237638   5.096   1.465   6.245
 5383TIP3   OH237639   6.751   2.541   5.099
 5383TIP3    H137640   6.695   2.515   5.172
 5383TIP3    H237641   6.761   2.635   5.108
 5384TIP3   OH237642   5.553   0.778   0.884
 5384TIP3    H137643   5.533   0.732   0.803
 5384TIP3    H237644   5.555   0.871   0.859
 5385TIP3   OH237645   4.370   2.091  14.742
 5385TIP3    H137646   4.283   2.133  14.740
 5385TIP3    H237647   4.411   2.117  14.659
 5386TIP3   OH237648   2.354   3.688   2.018
 5386TIP3    H137649   2.393   3.603   2.037
 5386TIP3    H237650   2.422   3.752   2.041
 5387TIP3   OH237651   1.994   5.515   1.259
 5387TIP3    H137652   1.917   5.531   1.204
 5387TIP3    H237653   1.980   5.571   1.336
 5388TIP3   OH237654   5.260   4.286   1.444
 5388TIP3    H137655   5.195   4.317   1.381
 5388TIP3    H237656   5.219   4.212   1.488
 5389TIP3   OH237657   6.242   2.511  12.905
 5389TIP3    H137658   6.308   2.456  12.947
 5389TIP3    H237659   6.283   2.597  12.897
 5390TIP3   OH237660   4.226   2.442  12.171
 5390TIP3    H137661   4.278   2.403  12.241
 5390TIP3    H237662   4.289   2.489  12.116
 5391TIP3   OH237663   0.569   5.473   1.277
 5391TIP3    H137664   0.508   5.447   1.207
 5391TIP3    H237665   0.513   5.498   1.350
 5392TIP3   OH237666   6.765   0.143   1.438
 5392TIP3    H137667   6.859   0.156   1.452
 5392TIP3    H237668   6.728   0.143   1.526
 5393TIP3   OH237669   1.300   0.488   0.105
 5393TIP3    H137670   1.359   0.429   0.151
 5393TIP3    H237671   1.225   0.434   0.082
 5394TIP3   OH237672   2.890   5.136  16.817
 5394TIP3    H137673   2.846   5.057  16.848
 5394TIP3    H237674   2.854   5.206  16.872
 5395TIP3   OH237675   0.982   2.911   2.272
 5395TIP3    H137676   0.921   2.842   2.250
 5395TIP3    H237677   1.069   2.872   2.260
 5396TIP3   OH237678   5.063   6.057  11.335
 5396TIP3    H137679   4.998   6.119  11.302
 5396TIP3    H237680   5.011   5.986  11.374
 5397TIP3   OH237681   4.148   1.815   3.112
 5397TIP3    H137682   4.236   1.851   3.111
 5397TIP3    H237683   4.160   1.721   3.127
 5398TIP3   OH237684   6.560   5.924  15.109
 5398TIP3    H137685   6.572   5.830  15.123
 5398TIP3    H237686   6.534   5.958  15.195
 5399TIP3   OH237687   5.565   3.180   4.499
 5399TIP3    H137688   5.619   3.189   4.420
 5399TIP3    H237689   5.629   3.178   4.571
 5400TIP3   OH237690   2.156   6.657  15.283
 5400TIP3    H137691   2.240   6.683  15.245
 5400TIP3    H237692   2.120   6.738  15.319
 5401TIP3   OH237693   1.576   5.235   5.463
 5401TIP3    H137694   1.672   5.234   5.462
 5401TIP3    H237695   1.554   5.318   5.505
 5402TIP3   OH237696   6.760   6.281  11.204
 5402TIP3    H137697   6.829   6.305  11.266
 5402TIP3    H237698   6.802   6.284  11.118
 5403TIP3   OH237699   3.165   3.881  11.438
 5403TIP3    H137700   3.192   3.790  11.441
 5403TIP3    H237701   3.070   3.879  11.454
 5404TIP3   OH237702   1.127   5.702  12.584
 5404TIP3    H137703   1.143   5.790  12.551
 5404TIP3    H237704   1.183   5.645  12.531
 5405TIP3   OH237705   5.638   0.299  14.278
 5405TIP3    H137706   5.604   0.257  14.199
 5405TIP3    H237707   5.562   0.306  14.336
 5406TIP3   OH237708   0.525   2.231  11.130
 5406TIP3    H137709   0.447   2.275  11.165
 5406TIP3    H237710   0.559   2.291  11.063
 5407TIP3   OH237711   2.159   3.193   3.759
 5407TIP3    H137712   2.215   3.254   3.711
 5407TIP3    H237713   2.186   3.202   3.850
 5408TIP3   OH237714   4.385   0.230   2.891
 5408TIP3    H137715   4.470   0.266   2.866
 5408TIP3    H237716   4.331   0.306   2.911
 5409TIP3   OH237717   2.255   4.965  13.140
 5409TIP3    H137718   2.262   4.920  13.224
 5409TIP3    H237719   2.161   4.979  13.129
 5410TIP3   OH237720   3.462   2.102  11.779
 5410TIP3    H137721   3.421   2.016  11.771
 5410TIP3    H237722   3.396   2.163  11.745
 5411TIP3   OH237723   5.645   1.106  16.517
 5411TIP3    H137724   5.667   1.024  16.472
 5411TIP3    H237725   5.703   1.108  16.593
 5412TIP3   OH237726   3.007   0.516  17.205
 5412TIP3    H137727   3.030   0.525  17.112
 5412TIP3    H237728   2.913   0.532  17.208
 5413TIP3   OH237729   0.308   4.314   4.398
 5413TIP3    H137730   0.387   4.319   4.345
 5413TIP3    H237731   0.328   4.250   4.466
 5414TIP3   OH237732   2.900   2.627   6.576
 5414TIP3    H137733   2.906   2.532   6.590
 5414TIP3    H237734   2.811   2.641   6.543
 5415TIP3   OH237735   5.490   2.352   2.355
 5415TIP3    H137736   5.435   2.338   2.279
 5415TIP3    H237737   5.460   2.436   2.391
 5416TIP3   OH237738   2.571   6.510   4.983
 5416TIP3    H137739   2.555   6.601   5.008
 5416TIP3    H237740   2.556   6.460   5.063
 5417TIP3   OH237741   0.557   2.830   3.131
 5417TIP3    H137742   0.538   2.837   3.037
 5417TIP3    H237743   0.504   2.898   3.171
 5418TIP3   OH237744   0.235   6.452  11.837
 5418TIP3    H137745   0.316   6.409  11.809
 5418TIP3    H237746   0.215   6.514  11.766
 5419TIP3   OH237747   1.789   2.531   1.209
 5419TIP3    H137748   1.698   2.513   1.187
 5419TIP3    H237749   1.796   2.626   1.206
 5420TIP3   OH237750   5.750   6.509   4.776
 5420TIP3    H137751   5.834   6.464   4.768
 5420TIP3    H237752   5.735   6.548   4.689
 5421TIP3   OH237753   6.820   1.835  14.253
 5421TIP3    H137754   6.834   1.928  14.270
 5421TIP3    H237755   6.741   1.832  14.198
 5422TIP3   OH237756   6.418   0.243   0.307
 5422TIP3    H137757   6.503   0.252   0.350
 5422TIP3    H237758   6.422   0.304   0.233
 5423TIP3   OH237759   4.124   5.767  13.212
 5423TIP3    H137760   4.211   5.733  13.193
 5423TIP3    H237761   4.090   5.793  13.126
 5424TIP3   OH237762   0.182   0.445   0.340
 5424TIP3    H137763   0.253   0.443   0.277
 5424TIP3    H237764   0.153   0.354   0.347
 5425TIP3   OH237765   2.944   2.675   4.498
 5425TIP3    H137766   2.992   2.645   4.421
 5425TIP3    H237767   2.865   2.620   4.500
 5426TIP3   OH237768   4.425   4.033   0.780
 5426TIP3    H137769   4.452   3.969   0.715
 5426TIP3    H237770   4.363   3.986   0.837
 5427TIP3   OH237771   5.985   5.315   1.676
 5427TIP3    H137772   5.963   5.223   1.660
 5427TIP3    H237773   6.080   5.316   1.684
 5428TIP3   OH237774   0.309   0.913   6.710
 5428TIP3    H137775   0.314   0.820   6.732
 5428TIP3    H237776   0.307   0.957   6.795
 5429TIP3   OH237777   2.853   2.206   0.235
 5429TIP3    H137778   2.911   2.239   0.167
 5429TIP3    H237779   2.790   2.277   0.249
 5430TIP3   OH237780   6.594   0.934   4.535
 5430TIP3    H137781   6.619   0.903   4.623
 5430TIP3    H237782   6.501   0.913   4.528
 5431TIP3   OH237783   5.364   0.006  14.912
 5431TIP3    H137784   5.333   0.070  14.976
 5431TIP3    H237785   5.287  -0.017  14.860
 5432TIP3   OH237786   3.611   1.929   3.197
 5432TIP3    H137787   3.569   1.954   3.279
 5432TIP3    H237788   3.631   2.013   3.154
 5433TIP3   OH237789   3.769   6.490  13.964
 5433TIP3    H137790   3.742   6.425  13.899
 5433TIP3    H237791   3.713   6.566  13.948
 5434TIP3   OH237792   6.200   3.606  12.071
 5434TIP3    H137793   6.272   3.598  12.008
 5434TIP3    H237794   6.166   3.517  12.079
 5435TIP3   OH237795   3.291   4.601  15.418
 5435TIP3    H137796   3.373   4.602  15.368
 5435TIP3    H237797   3.224   4.623  15.353
 5436TIP3   OH237798   3.989   2.788  15.419
 5436TIP3    H137799   4.037   2.779  15.337
 5436TIP3    H237800   4.051   2.828  15.480
 5437TIP3   OH237801   4.170   5.307   4.916
 5437TIP3    H137802   4.134   5.233   4.964
 5437TIP3    H237803   4.230   5.268   4.852
 5438TIP3   OH237804   3.496   3.996   5.164
 5438TIP3    H137805   3.546   3.922   5.131
 5438TIP3    H237806   3.446   3.960   5.238
 5439TIP3   OH237807   1.058   6.167   2.573
 5439TIP3    H137808   1.079   6.111   2.498
 5439TIP3    H237809   1.051   6.255   2.536
 5440TIP3   OH237810   1.510   4.149  16.368
 5440TIP3    H137811   1.444   4.217  16.384
 5440TIP3    H237812   1.476   4.100  16.293
 5441TIP3   OH237813   3.976   3.124  14.087
 5441TIP3    H137814   3.987   3.031  14.070
 5441TIP3    H237815   3.883   3.134  14.110
 5442TIP3   OH237816   0.028   4.395  11.469
 5442TIP3    H137817  -0.046   4.374  11.411
 5442TIP3    H237818   0.104   4.395  11.412
 5443TIP3   OH237819   4.089   4.548   5.261
 5443TIP3    H137820   4.043   4.571   5.180
 5443TIP3    H237821   4.181   4.568   5.241
 5444TIP3   OH237822   2.466   2.279  11.946
 5444TIP3    H137823   2.416   2.302  11.867
 5444TIP3    H237824   2.551   2.251  11.913
 5445TIP3   OH237825   3.474   2.773  13.709
 5445TIP3    H137826   3.558   2.807  13.677
 5445TIP3    H237827   3.415   2.779  13.633
 5446TIP3   OH237828   4.294   0.184  10.922
 5446TIP3    H137829   4.388   0.203  10.928
 5446TIP3    H237830   4.257   0.261  10.878
 5447TIP3   OH237831   4.592   3.052   5.481
 5447TIP3    H137832   4.665   3.091   5.529
 5447TIP3    H237833   4.538   3.010   5.548
 5448TIP3   OH237834   3.038   2.234  11.863
 5448TIP3    H137835   3.037   2.144  11.895
 5448TIP3    H237836   3.007   2.287  11.936
 5449TIP3   OH237837   4.772   0.222  16.626
 5449TIP3    H137838   4.710   0.191  16.691
 5449TIP3    H237839   4.721   0.282  16.571
 5450TIP3   OH237840   2.463   1.867   5.432
 5450TIP3    H137841   2.370   1.869   5.455
 5450TIP3    H237842   2.496   1.787   5.473
 5451TIP3   OH237843   1.818   4.883   4.196
 5451TIP3    H137844   1.808   4.808   4.138
 5451TIP3    H237845   1.730   4.902   4.227
 5452TIP3   OH237846   0.733   4.088  14.496
 5452TIP3    H137847   0.766   4.178  14.498
 5452TIP3    H237848   0.810   4.035  14.479
 5453TIP3   OH237849   5.725   2.281  16.683
 5453TIP3    H137850   5.637   2.299  16.717
 5453TIP3    H237851   5.714   2.282  16.588
 5454TIP3   OH237852   2.838   2.776  11.515
 5454TIP3    H137853   2.746   2.800  11.504
 5454TIP3    H237854   2.854   2.785  11.609
 5455TIP3   OH237855   5.923   0.304  11.846
 5455TIP3    H137856   5.885   0.384  11.810
 5455TIP3    H237857   6.012   0.302  11.812
 5456TIP3   OH237858   4.592   6.804   1.631
 5456TIP3    H137859   4.526   6.743   1.597
 5456TIP3    H237860   4.626   6.848   1.553
 5457TIP3   OH237861   6.368   3.862  13.821
 5457TIP3    H137862   6.394   3.813  13.743
 5457TIP3    H237863   6.423   3.826  13.891
 5458TIP3   OH237864   6.112   6.392  13.649
 5458TIP3    H137865   6.151   6.416  13.566
 5458TIP3    H237866   6.097   6.475  13.694
 5459TIP3   OH237867   2.426   2.592  13.129
 5459TIP3    H137868   2.392   2.652  13.196
 5459TIP3    H237869   2.418   2.640  13.047
 5460TIP3   OH237870   1.652   4.474   4.296
 5460TIP3    H137871   1.599   4.448   4.371
 5460TIP3    H237872   1.702   4.395   4.273
 5461TIP3   OH237873   1.800   5.871  10.644
 5461TIP3    H137874   1.847   5.897  10.564
 5461TIP3    H237875   1.771   5.953  10.682
 5462TIP3   OH237876   4.462   4.309   5.773
 5462TIP3    H137877   4.425   4.279   5.690
 5462TIP3    H237878   4.401   4.277   5.839
 5463TIP3   OH237879   0.135   0.791  11.843
 5463TIP3    H137880   0.153   0.755  11.756
 5463TIP3    H237881   0.206   0.759  11.898
 5464TIP3   OH237882   0.380   1.911   0.902
 5464TIP3    H137883   0.337   1.842   0.851
 5464TIP3    H237884   0.464   1.924   0.859
 5465TIP3   OH237885   0.917   6.494  15.950
 5465TIP3    H137886   0.873   6.524  16.029
 5465TIP3    H237887   0.847   6.480  15.887
 5466TIP3   OH237888   1.114   2.340   5.160
 5466TIP3    H137889   1.200   2.376   5.139
 5466TIP3    H237890   1.063   2.349   5.079
 5467TIP3   OH237891   5.336   1.386  16.833
 5467TIP3    H137892   5.386   1.339  16.899
 5467TIP3    H237893   5.344   1.332  16.754
 5468TIP3   OH237894   3.141   1.211   0.994
 5468TIP3    H137895   3.208   1.253   1.048
 5468TIP3    H237896   3.132   1.123   1.030
 5469TIP3   OH237897   5.787   1.060   3.890
 5469TIP3    H137898   5.829   1.056   3.976
 5469TIP3    H237899   5.751   0.973   3.876
 5470TIP3   OH237900   0.730   0.471   1.904
 5470TIP3    H137901   0.798   0.424   1.855
 5470TIP3    H237902   0.745   0.448   1.995
 5471TIP3   OH237903   0.382   5.604  14.069
 5471TIP3    H137904   0.405   5.665  14.139
 5471TIP3    H237905   0.400   5.652  13.988
 5472TIP3   OH237906   2.166   0.104  13.425
 5472TIP3    H137907   2.098   0.112  13.492
 5472TIP3    H237908   2.119   0.100  13.342
 5473TIP3   OH237909   6.506   4.593  11.797
 5473TIP3    H137910   6.412   4.612  11.798
 5473TIP3    H237911   6.531   4.604  11.705
 5474TIP3   OH237912   3.744   4.016   4.964
 5474TIP3    H137913   3.807   4.085   4.942
 5474TIP3    H237914   3.754   4.003   5.059
 5475TIP3   OH237915   6.196   6.240   5.294
 5475TIP3    H137916   6.189   6.305   5.224
 5475TIP3    H237917   6.106   6.216   5.314
 5476TIP3   OH237918   4.324   0.303   5.349
 5476TIP3    H137919   4.274   0.383   5.365
 5476TIP3    H237920   4.262   0.233   5.365
 5477TIP3   OH237921   1.994   0.057  17.175
 5477TIP3    H137922   2.027   0.112  17.104
 5477TIP3    H237923   2.039   0.090  17.253
 5478TIP3   OH237924   5.279   5.517   0.566
 5478TIP3    H137925   5.307   5.495   0.655
 5478TIP3    H237926   5.200   5.569   0.579
 5479TIP3   OH237927   2.929   1.211   5.146
 5479TIP3    H137928   2.993   1.186   5.213
 5479TIP3    H237929   2.949   1.303   5.128
 5480TIP3   OH237930   0.803   4.638  13.297
 5480TIP3    H137931   0.775   4.665  13.385
 5480TIP3    H237932   0.895   4.614  13.308
 5481TIP3   OH237933   3.127   1.890   6.243
 5481TIP3    H137934   3.168   1.816   6.198
 5481TIP3    H237935   3.086   1.851   6.321
 5482TIP3   OH237936   2.072   4.334   1.500
 5482TIP3    H137937   1.999   4.289   1.458
 5482TIP3    H237938   2.097   4.278   1.574
 5483TIP3   OH237939   1.516   4.898  14.491
 5483TIP3    H137940   1.487   4.964  14.555
 5483TIP3    H237941   1.611   4.899  14.497
 5484TIP3   OH237942   6.756   4.022   2.906
 5484TIP3    H137943   6.684   4.078   2.877
 5484TIP3    H237944   6.809   4.008   2.827
 5485TIP3   OH237945   2.469   0.028  15.894
 5485TIP3    H137946   2.506  -0.059  15.900
 5485TIP3    H237947   2.481   0.053  15.802
 5486TIP3   OH237948   5.063   5.168  15.944
 5486TIP3    H137949   5.144   5.119  15.958
 5486TIP3    H237950   5.042   5.205  16.030
 5487TIP3   OH237951   2.817   0.866  11.350
 5487TIP3    H137952   2.735   0.901  11.314
 5487TIP3    H237953   2.850   0.936  11.406
 5488TIP3   OH237954   0.826   2.290  13.333
 5488TIP3    H137955   0.768   2.250  13.267
 5488TIP3    H237956   0.817   2.384  13.317
 5489TIP3   OH237957   4.271   1.974   6.581
 5489TIP3    H137958   4.242   2.058   6.618
 5489TIP3    H237959   4.238   1.908   6.642
 5490TIP3   OH237960   4.631   3.492  11.412
 5490TIP3    H137961   4.636   3.436  11.335
 5490TIP3    H237962   4.670   3.440  11.483
 5491TIP3   OH237963   5.425   4.730  16.868
 5491TIP3    H137964   5.443   4.713  16.775
 5491TIP3    H237965   5.367   4.659  16.894
 5492TIP3   OH237966   3.446   0.211   1.427
 5492TIP3    H137967   3.468   0.303   1.445
 5492TIP3    H237968   3.361   0.198   1.470
 5493TIP3   OH237969   4.133   5.903   5.826
 5493TIP3    H137970   4.201   5.963   5.796
 5493TIP3    H237971   4.145   5.824   5.773
 5494TIP3   OH237972   4.868   4.641  16.675
 5494TIP3    H137973   4.889   4.568  16.733
 5494TIP3    H237974   4.953   4.677  16.650
 5495TIP3   OH237975   2.501   4.713   3.251
 5495TIP3    H137976   2.431   4.738   3.190
 5495TIP3    H237977   2.581   4.740   3.206
 5496TIP3   OH237978   3.449   2.739  13.991
 5496TIP3    H137979   3.395   2.661  13.985
 5496TIP3    H237980   3.458   2.769  13.901
 5497TIP3   OH237981   1.607   0.771  16.371
 5497TIP3    H137982   1.573   0.857  16.347
 5497TIP3    H237983   1.529   0.714  16.371
 5498TIP3   OH237984   0.842   2.085   2.064
 5498TIP3    H137985   0.877   1.998   2.086
 5498TIP3    H237986   0.770   2.067   2.004
 5499TIP3   OH237987   0.627   6.294   4.615
 5499TIP3    H137988   0.648   6.202   4.597
 5499TIP3    H237989   0.555   6.289   4.678
 5500TIP3   OH237990   5.460   6.425  16.594
 5500TIP3    H137991   5.489   6.378  16.515
 5500TIP3    H237992   5.455   6.358  16.662
 5501TIP3   OH237993   2.651   3.075  14.642
 5501TIP3    H137994   2.627   3.118  14.724
 5501TIP3    H237995   2.705   3.001  14.670
 5502TIP3   OH237996   4.285   0.095  13.341
 5502TIP3    H137997   4.302   0.150  13.264
 5502TIP3    H237998   4.192   0.108  13.360
 5503TIP3   OH237999   6.080   1.628  13.677
 5503TIP3    H138000   6.152   1.641  13.739
 5503TIP3    H238001   6.018   1.572  13.723
 5504TIP3   OH238002   3.733   6.679   4.955
 5504TIP3    H138003   3.810   6.677   4.898
 5504TIP3    H238004   3.768   6.695   5.042
 5505TIP3   OH238005   3.681   1.934   4.192
 5505TIP3    H138006   3.641   1.998   4.250
 5505TIP3    H238007   3.738   1.985   4.135
 5506TIP3   OH238008   2.272   4.115  11.497
 5506TIP3    H138009   2.266   4.055  11.422
 5506TIP3    H238010   2.238   4.064  11.571
 5507TIP3   OH238011   4.330   4.521  14.770
 5507TIP3    H138012   4.258   4.501  14.709
 5507TIP3    H238013   4.362   4.607  14.743
 5508TIP3   OH238014   3.541   5.054  12.117
 5508TIP3    H138015   3.469   5.109  12.086
 5508TIP3    H238016   3.620   5.104  12.099
 5509TIP3   OH238017   3.862   0.566   5.314
 5509TIP3    H138018   3.776   0.603   5.335
 5509TIP3    H238019   3.901   0.628   5.253
 5510TIP3   OH238020   1.589   5.882  15.088
 5510TIP3    H138021   1.651   5.809  15.080
 5510TIP3    H238022   1.545   5.867  15.171
 5511TIP3   OH238023   5.485   6.046   5.378
 5511TIP3    H138024   5.562   6.103   5.384
 5511TIP3    H238025   5.487   6.015   5.287
 5512TIP3   OH238026   2.113   1.542   4.058
 5512TIP3    H138027   2.073   1.564   4.142
 5512TIP3    H238028   2.163   1.620   4.035
 5513TIP3   OH238029   1.330   6.181   5.468
 5513TIP3    H138030   1.400   6.147   5.412
 5513TIP3    H238031   1.264   6.112   5.470
 5514TIP3   OH238032   3.755   5.575   4.124
 5514TIP3    H138033   3.831   5.597   4.071
 5514TIP3    H238034   3.776   5.610   4.211
 5515TIP3   OH238035   2.052   4.133   2.082
 5515TIP3    H138036   2.003   4.148   2.001
 5515TIP3    H238037   2.110   4.210   2.089
 5516TIP3   OH238038   0.421   0.851   2.273
 5516TIP3    H138039   0.459   0.871   2.188
 5516TIP3    H238040   0.327   0.865   2.261
 5517TIP3   OH238041   4.965   4.335  12.262
 5517TIP3    H138042   4.911   4.366  12.335
 5517TIP3    H238043   4.909   4.347  12.184
 5518TIP3   OH238044   6.089   4.495  16.543
 5518TIP3    H138045   6.051   4.517  16.458
 5518TIP3    H238046   6.114   4.579  16.581
 5519TIP3   OH238047   3.169   1.126   4.634
 5519TIP3    H138048   3.080   1.149   4.609
 5519TIP3    H238049   3.158   1.071   4.712
 5520TIP3   OH238050   2.268   4.266   0.424
 5520TIP3    H138051   2.182   4.268   0.380
 5520TIP3    H238052   2.328   4.237   0.356
 5521TIP3   OH238053   6.345   5.470   4.576
 5521TIP3    H138054   6.343   5.418   4.656
 5521TIP3    H238055   6.402   5.544   4.596
 5522TIP3   OH238056   3.851   0.501   5.671
 5522TIP3    H138057   3.834   0.595   5.672
 5522TIP3    H238058   3.764   0.462   5.684
 5523TIP3   OH238059   2.791   4.023  12.610
 5523TIP3    H138060   2.830   3.945  12.649
 5523TIP3    H238061   2.862   4.087  12.608
 5524TIP3   OH238062   6.466   3.021   6.022
 5524TIP3    H138063   6.371   3.020   6.036
 5524TIP3    H238064   6.501   2.960   6.086
 5525TIP3   OH238065   0.891   3.016  15.900
 5525TIP3    H138066   0.851   3.061  15.825
 5525TIP3    H238067   0.820   2.964  15.937
 5526TIP3   OH238068   0.382   3.423  12.394
 5526TIP3    H138069   0.304   3.379  12.361
 5526TIP3    H238070   0.452   3.358  12.382
 5527TIP3   OH238071   3.607   5.938  16.051
 5527TIP3    H138072   3.654   5.920  15.970
 5527TIP3    H238073   3.617   6.032  16.064
 5528TIP3   OH238074   5.720   3.937  12.592
 5528TIP3    H138075   5.628   3.914  12.603
 5528TIP3    H238076   5.756   3.865  12.539
 5529TIP3   OH238077   4.916   5.634  11.421
 5529TIP3    H138078   4.888   5.552  11.380
 5529TIP3    H238079   4.989   5.663  11.367
 5530TIP3   OH238080   0.045   6.220  15.053
 5530TIP3    H138081   0.018   6.268  15.132
 5530TIP3    H238082  -0.037   6.206  15.005
 5531TIP3   OH238083   4.761   0.202  17.235
 5531TIP3    H138084   4.689   0.180  17.294
 5531TIP3    H238085   4.756   0.297  17.226
 5532TIP3   OH238086   4.148   5.500  13.817
 5532TIP3    H138087   4.072   5.539  13.775
 5532TIP3    H238088   4.161   5.553  13.896
 5533TIP3   OH238089   3.763   3.182  13.199
 5533TIP3    H138090   3.711   3.251  13.158
 5533TIP3    H238091   3.853   3.212  13.191
 5534TIP3   OH238092   6.627   0.502  11.324
 5534TIP3    H138093   6.671   0.560  11.262
 5534TIP3    H238094   6.690   0.491  11.395
 5535TIP3   OH238095   1.216   1.217  13.489
 5535TIP3    H138096   1.228   1.165  13.569
 5535TIP3    H238097   1.122   1.210  13.471
 5536TIP3   OH238098   2.088   5.878  15.896
 5536TIP3    H138099   2.066   5.934  15.971
 5536TIP3    H238100   2.164   5.829  15.925
 5537TIP3   OH238101   2.369   4.808   2.213
 5537TIP3    H138102   2.434   4.741   2.196
 5537TIP3    H238103   2.285   4.765   2.197
 5538TIP3   OH238104   2.620   4.173  10.678
 5538TIP3    H138105   2.704   4.194  10.720
 5538TIP3    H238106   2.576   4.115  10.739
 5539TIP3   OH238107   3.115   6.076   4.684
 5539TIP3    H138108   3.141   6.042   4.598
 5539TIP3    H238109   3.114   6.171   4.673
 5540TIP3   OH238110   0.918   2.152  12.320
 5540TIP3    H138111   0.888   2.207  12.393
 5540TIP3    H238112   0.852   2.083  12.313
 5541TIP3   OH238113   2.135   2.215   5.183
 5541TIP3    H138114   2.079   2.152   5.137
 5541TIP3    H238115   2.073   2.271   5.230
 5542TIP3   OH238116   3.345   5.896   5.892
 5542TIP3    H138117   3.337   5.802   5.908
 5542TIP3    H238118   3.291   5.937   5.960
 5543TIP3   OH238119   0.211   3.808   0.151
 5543TIP3    H138120   0.264   3.732   0.174
 5543TIP3    H238121   0.161   3.826   0.230
 5544TIP3   OH238122   2.620   0.652   5.885
 5544TIP3    H138123   2.532   0.639   5.921
 5544TIP3    H238124   2.660   0.717   5.943
 5545TIP3   OH238125   1.432   3.873  10.724
 5545TIP3    H138126   1.387   3.819  10.659
 5545TIP3    H238127   1.386   3.957  10.722
 5546TIP3   OH238128   2.848   0.467  16.402
 5546TIP3    H138129   2.834   0.554  16.441
 5546TIP3    H238130   2.796   0.408  16.457
 5547TIP3   OH238131   0.162   2.328   0.458
 5547TIP3    H138132   0.225   2.256   0.449
 5547TIP3    H238133   0.215   2.403   0.482
 5548TIP3   OH238134   1.657   1.725  12.028
 5548TIP3    H138135   1.737   1.772  12.052
 5548TIP3    H238136   1.607   1.788  11.975
 5549TIP3   OH238137   6.543   0.860  13.900
 5549TIP3    H138138   6.577   0.949  13.911
 5549TIP3    H238139   6.477   0.868  13.832
 5550TIP3   OH238140   5.444   4.424   3.064
 5550TIP3    H138141   5.431   4.355   2.999
 5550TIP3    H238142   5.356   4.443   3.097
 5551TIP3   OH238143   1.977   3.776   2.579
 5551TIP3    H138144   2.068   3.790   2.550
 5551TIP3    H238145   1.983   3.702   2.639
 5552TIP3   OH238146   1.420   0.834   4.748
 5552TIP3    H138147   1.458   0.838   4.835
 5552TIP3    H238148   1.347   0.895   4.750
 5553TIP3   OH238149   6.316   1.467  17.234
 5553TIP3    H138150   6.355   1.533  17.177
 5553TIP3    H238151   6.320   1.506  17.321
 5554TIP3   OH238152   3.920   4.894   6.188
 5554TIP3    H138153   3.937   4.986   6.166
 5554TIP3    H238154   4.006   4.852   6.184
 5555TIP3   OH238155   0.616   4.758   5.307
 5555TIP3    H138156   0.658   4.716   5.382
 5555TIP3    H238157   0.670   4.835   5.290
 5556TIP3   OH238158   2.397   2.961   2.016
 5556TIP3    H138159   2.331   3.030   2.010
 5556TIP3    H238160   2.406   2.927   1.927
 5557TIP3   OH238161   3.052   1.291   0.066
 5557TIP3    H138162   3.106   1.354   0.113
 5557TIP3    H238163   2.962   1.317   0.085
 5558TIP3   OH238164   4.510   2.477  11.297
 5558TIP3    H138165   4.502   2.388  11.332
 5558TIP3    H238166   4.432   2.487  11.242
 5559TIP3   OH238167   6.317   3.880  14.788
 5559TIP3    H138168   6.273   3.959  14.820
 5559TIP3    H238169   6.274   3.809  14.835
 5560TIP3   OH238170   1.761   5.384   6.299
 5560TIP3    H138171   1.752   5.318   6.368
 5560TIP3    H238172   1.852   5.375   6.268
 5561TIP3   OH238173   3.274   1.947   2.063
 5561TIP3    H138174   3.180   1.965   2.072
 5561TIP3    H238175   3.308   2.021   2.013
 5562TIP3   OH238176   4.885   1.365  12.960
 5562TIP3    H138177   4.967   1.319  12.945
 5562TIP3    H238178   4.864   1.348  13.052
 5563TIP3   OH238179   3.038   2.075  17.167
 5563TIP3    H138180   3.127   2.110  17.177
 5563TIP3    H238181   3.050   1.980  17.163
 5564TIP3   OH238182   5.436   5.823  11.990
 5564TIP3    H138183   5.377   5.868  12.051
 5564TIP3    H238184   5.384   5.810  11.911
 5565TIP3   OH238185   6.253   3.237  11.855
 5565TIP3    H138186   6.193   3.281  11.916
 5565TIP3    H238187   6.340   3.251  11.892
 5566TIP3   OH238188   5.048   1.510   2.772
 5566TIP3    H138189   5.031   1.427   2.729
 5566TIP3    H238190   5.091   1.564   2.706
 5567TIP3   OH238191   3.729   3.236   1.848
 5567TIP3    H138192   3.638   3.211   1.864
 5567TIP3    H238193   3.779   3.186   1.914
 5568TIP3   OH238194   0.773   4.786   1.569
 5568TIP3    H138195   0.712   4.852   1.538
 5568TIP3    H238196   0.841   4.782   1.502
 5569TIP3   OH238197   0.532   3.647  15.949
 5569TIP3    H138198   0.611   3.699  15.931
 5569TIP3    H238199   0.561   3.556  15.945
 5570TIP3   OH238200   2.792   2.563  12.819
 5570TIP3    H138201   2.863   2.501  12.833
 5570TIP3    H238202   2.762   2.546  12.730
 5571TIP3   OH238203   3.577   5.107  15.680
 5571TIP3    H138204   3.667   5.087  15.706
 5571TIP3    H238205   3.527   5.030  15.708
 5572TIP3   OH238206   1.951   3.550  16.547
 5572TIP3    H138207   2.025   3.553  16.487
 5572TIP3    H238208   1.908   3.635  16.535
 5573TIP3   OH238209   2.555   0.550  12.307
 5573TIP3    H138210   2.541   0.534  12.213
 5573TIP3    H238211   2.650   0.559  12.315
 5574TIP3   OH238212   3.992   5.540   0.834
 5574TIP3    H138213   4.015   5.504   0.748
 5574TIP3    H238214   3.904   5.576   0.822
 5575TIP3   OH238215   1.703   4.575   5.641
 5575TIP3    H138216   1.664   4.657   5.611
 5575TIP3    H238217   1.758   4.546   5.568
 5576TIP3   OH238218   2.049   4.835   0.019
 5576TIP3    H138219   2.122   4.785   0.056
 5576TIP3    H238220   2.006   4.873   0.095
 5577TIP3   OH238221   5.244   1.551  16.533
 5577TIP3    H138222   5.314   1.584  16.589
 5577TIP3    H238223   5.289   1.521  16.454
 5578TIP3   OH238224   2.732   5.241  14.269
 5578TIP3    H138225   2.795   5.309  14.246
 5578TIP3    H238226   2.785   5.169  14.301
 5579TIP3   OH238227   1.716   6.111  15.128
 5579TIP3    H138228   1.666   6.030  15.120
 5579TIP3    H238229   1.782   6.106  15.059
 5580TIP3   OH238230   4.292   2.146  13.555
 5580TIP3    H138231   4.222   2.188  13.605
 5580TIP3    H238232   4.270   2.163  13.463
 5581TIP3   OH238233   0.730   5.113   3.458
 5581TIP3    H138234   0.701   5.073   3.376
 5581TIP3    H238235   0.823   5.131   3.443
 5582TIP3   OH238236   1.785   3.318   1.918
 5582TIP3    H138237   1.690   3.317   1.931
 5582TIP3    H238238   1.802   3.244   1.860
 5583TIP3   OH238239   5.125   3.642  14.875
 5583TIP3    H138240   5.036   3.640  14.909
 5583TIP3    H238241   5.130   3.566  14.817
 5584TIP3   OH238242   4.973   3.636  11.867
 5584TIP3    H138243   4.964   3.542  11.853
 5584TIP3    H238244   4.997   3.645  11.959
 5585TIP3   OH238245   0.969   6.268   0.592
 5585TIP3    H138246   0.910   6.212   0.643
 5585TIP3    H238247   0.920   6.349   0.579
 5586TIP3   OH238248   0.193   5.141   0.277
 5586TIP3    H138249   0.272   5.087   0.265
 5586TIP3    H238250   0.202   5.179   0.364
 5587TIP3   OH238251   4.017   0.854  14.697
 5587TIP3    H138252   3.937   0.869  14.748
 5587TIP3    H238253   4.069   0.934  14.710
 5588TIP3   OH238254   0.846   2.080  17.232
 5588TIP3    H138255   0.868   1.991  17.204
 5588TIP3    H238256   0.874   2.135  17.160
 5589TIP3   OH238257   6.010   5.705   0.882
 5589TIP3    H138258   5.984   5.765   0.952
 5589TIP3    H238259   6.014   5.760   0.804
 5590TIP3   OH238260   6.752   1.629   2.974
 5590TIP3    H138261   6.670   1.654   3.016
 5590TIP3    H238262   6.792   1.712   2.949
 5591TIP3   OH238263   5.083   3.749  12.929
 5591TIP3    H138264   4.989   3.741  12.919
 5591TIP3    H238265   5.101   3.842  12.914
 5592TIP3   OH238266   6.200   5.879   3.599
 5592TIP3    H138267   6.219   5.881   3.505
 5592TIP3    H238268   6.230   5.964   3.631
 5593TIP3   OH238269   0.937   4.990   4.212
 5593TIP3    H138270   0.860   4.970   4.265
 5593TIP3    H238271   0.971   5.072   4.248
 5594TIP3   OH238272   5.632   3.905   0.961
 5594TIP3    H138273   5.593   3.976   0.910
 5594TIP3    H238274   5.604   3.923   1.051
 5595TIP3   OH238275   5.782   3.443  14.473
 5595TIP3    H138276   5.764   3.412  14.562
 5595TIP3    H238277   5.735   3.382  14.416
 5596TIP3   OH238278   2.053   1.112   4.143
 5596TIP3    H138279   2.007   1.037   4.181
 5596TIP3    H238280   2.005   1.130   4.062
 5597TIP3   OH238281   5.656   2.862  15.434
 5597TIP3    H138282   5.677   2.782  15.483
 5597TIP3    H238283   5.563   2.877  15.451
 5598TIP3   OH238284   5.970   3.198   4.863
 5598TIP3    H138285   6.020   3.278   4.876
 5598TIP3    H238286   6.034   3.127   4.873
 5599TIP3   OH238287   5.241   4.139   0.173
 5599TIP3    H138288   5.246   4.137   0.077
 5599TIP3    H238289   5.213   4.228   0.194
 5600TIP3   OH238290   4.031   2.513   0.023
 5600TIP3    H138291   4.011   2.573  -0.050
 5600TIP3    H238292   4.119   2.537   0.050
 5601TIP3   OH238293   1.700   1.618   0.103
 5601TIP3    H138294   1.701   1.710   0.078
 5601TIP3    H238295   1.610   1.601   0.131
 5602TIP3   OH238296   2.092   6.056  16.096
 5602TIP3    H138297   2.160   6.067  16.163
 5602TIP3    H238298   2.011   6.079  16.140
 5603TIP3   OH238299   5.635   0.951   0.159
 5603TIP3    H138300   5.631   0.956   0.063
 5603TIP3    H238301   5.564   1.008   0.189
 5604TIP3   OH238302   6.629   3.829   5.908
 5604TIP3    H138303   6.695   3.872   5.962
 5604TIP3    H238304   6.583   3.769   5.967
 5605TIP3   OH238305   4.364   1.771   1.527
 5605TIP3    H138306   4.393   1.858   1.555
 5605TIP3    H238307   4.442   1.715   1.536
 5606TIP3   OH238308   1.804   2.355  14.038
 5606TIP3    H138309   1.758   2.425  14.083
 5606TIP3    H238310   1.846   2.304  14.108
 5607TIP3   OH238311   1.778   5.297  15.921
 5607TIP3    H138312   1.766   5.391  15.937
 5607TIP3    H238313   1.694   5.258  15.942
 5608TIP3   OH238314   2.126   6.246   3.153
 5608TIP3    H138315   2.037   6.279   3.139
 5608TIP3    H238316   2.163   6.305   3.219
 5609TIP3   OH238317   0.107   0.968   2.294
 5609TIP3    H138318   0.083   1.026   2.222
 5609TIP3    H238319   0.045   0.895   2.288
 5610TIP3   OH238320   2.255   2.340  11.133
 5610TIP3    H138321   2.234   2.371  11.221
 5610TIP3    H238322   2.252   2.244  11.140
 5611TIP3   OH238323   2.353   2.355  13.397
 5611TIP3    H138324   2.388   2.282  13.346
 5611TIP3    H238325   2.377   2.433  13.346
 5612TIP3   OH238326   4.121   6.484  13.663
 5612TIP3    H138327   4.069   6.409  13.634
 5612TIP3    H238328   4.068   6.560  13.638
 5613TIP3   OH238329   1.762   2.009  15.036
 5613TIP3    H138330   1.713   2.020  15.118
 5613TIP3    H238331   1.846   1.974  15.064
 5614TIP3   OH238332   0.293   5.435  13.852
 5614TIP3    H138333   0.307   5.452  13.945
 5614TIP3    H238334   0.221   5.373  13.849
 5615TIP3   OH238335   6.352   4.554   4.582
 5615TIP3    H138336   6.317   4.508   4.658
 5615TIP3    H238337   6.365   4.486   4.516
 5616TIP3   OH238338   1.505   1.349  14.563
 5616TIP3    H138339   1.480   1.439  14.585
 5616TIP3    H238340   1.575   1.328  14.624
 5617TIP3   OH238341   2.710   5.691  14.182
 5617TIP3    H138342   2.725   5.731  14.267
 5617TIP3    H238343   2.628   5.644  14.191
 5618TIP3   OH238344   4.404   2.825   0.119
 5618TIP3    H138345   4.372   2.911   0.092
 5618TIP3    H238346   4.497   2.838   0.134
 5619TIP3   OH238347   0.668   3.756   4.018
 5619TIP3    H138348   0.746   3.775   3.967
 5619TIP3    H238349   0.619   3.838   4.020
 5620TIP3   OH238350   4.065   3.213  13.857
 5620TIP3    H138351   4.159   3.234  13.860
 5620TIP3    H238352   4.041   3.200  13.949
 5621TIP3   OH238353   4.082   5.792  17.197
 5621TIP3    H138354   4.065   5.885  17.182
 5621TIP3    H238355   4.080   5.782  17.292
 5622TIP3   OH238356   3.080   4.353  14.018
 5622TIP3    H138357   3.015   4.410  13.978
 5622TIP3    H238358   3.065   4.361  14.112
 5623TIP3   OH238359   0.594   4.608   5.730
 5623TIP3    H138360   0.632   4.605   5.819
 5623TIP3    H238361   0.520   4.548   5.734
 5624TIP3   OH238362   5.111   5.276   5.269
 5624TIP3    H138363   5.075   5.354   5.227
 5624TIP3    H238364   5.061   5.267   5.350
 5625TIP3   OH238365   2.435   3.500  15.493
 5625TIP3    H138366   2.358   3.505  15.549
 5625TIP3    H238367   2.505   3.541  15.545
 5626TIP3   OH238368   6.750   0.915  13.277
 5626TIP3    H138369   6.783   1.005  13.273
 5626TIP3    H238370   6.815   0.868  13.330
 5627TIP3   OH238371   3.024   3.287   2.175
 5627TIP3    H138372   3.042   3.292   2.269
 5627TIP3    H238373   3.093   3.230   2.141
 5628TIP3   OH238374   0.418   3.126  17.246
 5628TIP3    H138375   0.355   3.175  17.299
 5628TIP3    H238376   0.463   3.193  17.194
 5629TIP3   OH238377   5.418   0.359   0.716
 5629TIP3    H138378   5.395   0.266   0.711
 5629TIP3    H238379   5.343   0.399   0.761
 5630TIP3   OH238380   1.531   5.212  15.962
 5630TIP3    H138381   1.445   5.186  15.930
 5630TIP3    H238382   1.537   5.174  16.050
 5631TIP3   OH238383   3.469   2.366   6.252
 5631TIP3    H138384   3.462   2.404   6.339
 5631TIP3    H238385   3.396   2.304   6.247
 5632TIP3   OH238386   0.520   4.884   4.182
 5632TIP3    H138387   0.540   4.932   4.101
 5632TIP3    H238388   0.578   4.808   4.179
 5633TIP3   OH238389   4.211   1.463  15.894
 5633TIP3    H138390   4.213   1.373  15.928
 5633TIP3    H238391   4.212   1.518  15.972
 5634TIP3   OH238392   4.292   5.698   6.639
 5634TIP3    H138393   4.204   5.672   6.612
 5634TIP3    H238394   4.296   5.792   6.621
 5635TIP3   OH238395   5.191   4.157  16.814
 5635TIP3    H138396   5.139   4.123  16.887
 5635TIP3    H238397   5.278   4.171  16.851
 5636TIP3   OH238398   3.128   0.554   2.175
 5636TIP3    H138399   3.113   0.531   2.266
 5636TIP3    H238400   3.053   0.609   2.151
 5637TIP3   OH238401   0.305   2.717   3.450
 5637TIP3    H138402   0.295   2.734   3.356
 5637TIP3    H238403   0.242   2.774   3.492
 5638TIP3   OH238404   2.766   6.068  13.745
 5638TIP3    H138405   2.704   6.135  13.715
 5638TIP3    H238406   2.793   6.023  13.665
 5639TIP3   OH238407   5.336   5.981  17.263
 5639TIP3    H138408   5.406   5.967  17.326
 5639TIP3    H238409   5.315   5.893  17.231
 5640TIP3   OH238410   1.132   2.896  14.722
 5640TIP3    H138411   1.141   2.975  14.776
 5640TIP3    H238412   1.180   2.916  14.641
 5641TIP3   OH238413   5.023   2.947   2.847
 5641TIP3    H138414   5.071   2.865   2.859
 5641TIP3    H238415   4.942   2.920   2.804
 5642TIP3   OH238416   4.251   5.102  13.995
 5642TIP3    H138417   4.283   5.174  13.940
 5642TIP3    H238418   4.268   5.023  13.944
 5643TIP3   OH238419   5.401   2.014   1.743
 5643TIP3    H138420   5.337   2.056   1.801
 5643TIP3    H238421   5.373   1.923   1.738
 5644TIP3   OH238422   2.571   2.009   4.453
 5644TIP3    H138423   2.554   1.954   4.530
 5644TIP3    H238424   2.490   2.007   4.403
 5645TIP3   OH238425   4.244   1.333  14.824
 5645TIP3    H138426   4.236   1.395  14.897
 5645TIP3    H238427   4.338   1.318  14.816
 5646TIP3   OH238428   2.536   5.945   4.670
 5646TIP3    H138429   2.621   5.980   4.697
 5646TIP3    H238430   2.474   5.984   4.731
 5647TIP3   OH238431   2.620   3.778   6.569
 5647TIP3    H138432   2.679   3.847   6.539
 5647TIP3    H238433   2.634   3.706   6.506
 5648TIP3   OH238434   0.170   6.600  11.619
 5648TIP3    H138435   0.238   6.560  11.565
 5648TIP3    H238436   0.088   6.585  11.571
 5649TIP3   OH238437   3.752   4.190   3.674
 5649TIP3    H138438   3.816   4.202   3.604
 5649TIP3    H238439   3.721   4.278   3.694
 5650TIP3   OH238440   5.719   5.046  14.647
 5650TIP3    H138441   5.729   4.966  14.597
 5650TIP3    H238442   5.653   5.024  14.714
 5651TIP3   OH238443   5.014   2.109  13.420
 5651TIP3    H138444   4.981   2.070  13.338
 5651TIP3    H238445   5.003   2.040  13.485
 5652TIP3   OH238446   5.040   1.783   2.891
 5652TIP3    H138447   4.964   1.725   2.891
 5652TIP3    H238448   5.105   1.738   2.838
 5653TIP3   OH238449   4.300   4.396  10.568
 5653TIP3    H138450   4.214   4.412  10.607
 5653TIP3    H238451   4.304   4.455  10.492
 5654TIP3   OH238452   5.280   5.602  13.135
 5654TIP3    H138453   5.368   5.629  13.160
 5654TIP3    H238454   5.291   5.514  13.100
 5655TIP3   OH238455   5.455   3.011   4.278
 5655TIP3    H138456   5.519   3.022   4.348
 5655TIP3    H238457   5.428   2.919   4.284
 5656TIP3   OH238458   0.857   3.005  12.147
 5656TIP3    H138459   0.896   2.950  12.079
 5656TIP3    H238460   0.839   3.088  12.104
 5657TIP3   OH238461   6.399   0.951  13.684
 5657TIP3    H138462   6.355   1.024  13.642
 5657TIP3    H238463   6.484   0.946  13.641
 5658TIP3   OH238464   2.885   2.218  10.960
 5658TIP3    H138465   2.908   2.204  11.052
 5658TIP3    H238466   2.921   2.303  10.938
 5659TIP3   OH238467   5.445   1.238   2.263
 5659TIP3    H138468   5.398   1.259   2.182
 5659TIP3    H238469   5.537   1.258   2.244
 5660TIP3   OH238470   5.230   5.755  11.752
 5660TIP3    H138471   5.137   5.733  11.752
 5660TIP3    H238472   5.238   5.826  11.689
 5661TIP3   OH238473   3.032   3.595  11.376
 5661TIP3    H138474   3.000   3.506  11.388
 5661TIP3    H238475   2.969   3.650  11.424
 5662TIP3   OH238476   4.089   6.721  15.824
 5662TIP3    H138477   3.995   6.715  15.839
 5662TIP3    H238478   4.120   6.785  15.888
 5663TIP3   OH238479   5.393   0.427   4.873
 5663TIP3    H138480   5.452   0.379   4.931
 5663TIP3    H238481   5.307   0.390   4.891
 5664TIP3   OH238482   1.347   6.592   3.656
 5664TIP3    H138483   1.259   6.607   3.692
 5664TIP3    H238484   1.401   6.661   3.695
 5665TIP3   OH238485   4.026   5.684   4.039
 5665TIP3    H138486   4.055   5.731   4.117
 5665TIP3    H238487   4.074   5.724   3.967
 5666TIP3   OH238488   3.022   2.067   2.101
 5666TIP3    H138489   3.001   2.136   2.164
 5666TIP3    H238490   2.962   2.082   2.028
 5667TIP3   OH238491   4.784   4.490  12.416
 5667TIP3    H138492   4.744   4.422  12.470
 5667TIP3    H238493   4.747   4.572  12.450
 5668TIP3   OH238494   0.482   6.354   1.015
 5668TIP3    H138495   0.478   6.446   1.039
 5668TIP3    H238496   0.507   6.309   1.096
 5669TIP3   OH238497   2.944   3.782   2.437
 5669TIP3    H138498   2.964   3.697   2.398
 5669TIP3    H238499   2.931   3.762   2.530
 5670TIP3   OH238500   6.675   2.573  14.234
 5670TIP3    H138501   6.715   2.583  14.147
 5670TIP3    H238502   6.596   2.627  14.230
 5671TIP3   OH238503   6.654   3.441   5.870
 5671TIP3    H138504   6.701   3.455   5.952
 5671TIP3    H238505   6.718   3.458   5.801
 5672TIP3   OH238506   1.313   3.978   3.524
 5672TIP3    H138507   1.382   3.932   3.477
 5672TIP3    H238508   1.274   4.036   3.459
 5673TIP3   OH238509   5.423   1.006   6.259
 5673TIP3    H138510   5.351   1.062   6.288
 5673TIP3    H238511   5.400   0.919   6.290
 5674TIP3   OH238512   3.922   3.802   3.142
 5674TIP3    H138513   4.008   3.818   3.104
 5674TIP3    H238514   3.864   3.864   3.099
 5675TIP3   OH238515   1.302   4.032   3.796
 5675TIP3    H138516   1.301   3.997   3.706
 5675TIP3    H238517   1.210   4.050   3.815
 5676TIP3   OH238518   6.477   1.723  12.945
 5676TIP3    H138519   6.424   1.647  12.971
 5676TIP3    H238520   6.480   1.778  13.023
 5677TIP3   OH238521   3.793   5.516  12.386
 5677TIP3    H138522   3.856   5.557  12.445
 5677TIP3    H238523   3.749   5.590  12.344
 5678TIP3   OH238524   5.311   0.247  12.597
 5678TIP3    H138525   5.312   0.159  12.635
 5678TIP3    H238526   5.303   0.306  12.672
 5679TIP3   OH238527   5.918   6.798   2.311
 5679TIP3    H138528   5.918   6.752   2.227
 5679TIP3    H238529   6.010   6.821   2.325
 5680TIP3   OH238530   6.771   0.327   6.821
 5680TIP3    H138531   6.748   0.419   6.838
 5680TIP3    H238532   6.691   0.278   6.839
 5681TIP3   OH238533   0.769   1.379  14.785
 5681TIP3    H138534   0.726   1.416  14.862
 5681TIP3    H238535   0.831   1.315  14.820
 5682TIP3   OH238536   4.457   2.398  17.257
 5682TIP3    H138537   4.468   2.393  17.351
 5682TIP3    H238538   4.489   2.314  17.224
 5683TIP3   OH238539   3.768   1.512   2.694
 5683TIP3    H138540   3.766   1.579   2.626
 5683TIP3    H238541   3.860   1.487   2.699
 5684TIP3   OH238542   1.989   2.924   1.845
 5684TIP3    H138543   1.962   2.834   1.860
 5684TIP3    H238544   2.079   2.917   1.811
 5685TIP3   OH238545   1.002   0.056  17.158
 5685TIP3    H138546   0.933  -0.005  17.183
 5685TIP3    H238547   1.036   0.089  17.241
 5686TIP3   OH238548   2.350   1.505   3.148
 5686TIP3    H138549   2.355   1.597   3.176
 5686TIP3    H238550   2.344   1.456   3.230
 5687TIP3   OH238551   6.722   3.130   5.160
 5687TIP3    H138552   6.761   3.117   5.247
 5687TIP3    H238553   6.739   3.048   5.114
 5688TIP3   OH238554   6.793   2.862   0.186
 5688TIP3    H138555   6.774   2.779   0.229
 5688TIP3    H238556   6.712   2.884   0.139
 5689TIP3   OH238557   1.282   4.181   5.453
 5689TIP3    H138558   1.231   4.225   5.385
 5689TIP3    H238559   1.364   4.158   5.409
 5690TIP3   OH238560   2.260   0.845   6.384
 5690TIP3    H138561   2.208   0.795   6.448
 5690TIP3    H238562   2.222   0.822   6.300
 5691TIP3   OH238563   0.712   2.356   5.123
 5691TIP3    H138564   0.691   2.293   5.055
 5691TIP3    H238565   0.663   2.435   5.099
 5692TIP3   OH238566   2.216   4.709   0.182
 5692TIP3    H138567   2.274   4.711   0.106
 5692TIP3    H238568   2.274   4.722   0.257
 5693TIP3   OH238569   1.824   6.108  15.806
 5693TIP3    H138570   1.849   6.119  15.714
 5693TIP3    H238571   1.834   6.194  15.845
 5694TIP3   OH238572   5.291   5.845  15.103
 5694TIP3    H138573   5.248   5.776  15.153
 5694TIP3    H238574   5.233   5.920  15.110
 5695TIP3   OH238575   3.243   5.811  11.496
 5695TIP3    H138576   3.338   5.817  11.504
 5695TIP3    H238577   3.211   5.891  11.538
 5696TIP3   OH238578   4.638   5.158  14.395
 5696TIP3    H138579   4.576   5.204  14.337
 5696TIP3    H238580   4.712   5.137  14.339
 5697TIP3   OH238581   6.520   5.981  17.113
 5697TIP3    H138582   6.557   6.064  17.144
 5697TIP3    H238583   6.431   6.002  17.087
 5698TIP3   OH238584   1.342   2.850  12.208
 5698TIP3    H138585   1.392   2.840  12.289
 5698TIP3    H238586   1.264   2.901  12.234
 5699TIP3   OH238587   2.668   4.121  17.096
 5699TIP3    H138588   2.634   4.202  17.136
 5699TIP3    H238589   2.755   4.145  17.064
 5700TIP3   OH238590   0.830   4.794   4.027
 5700TIP3    H138591   0.911   4.774   3.979
 5700TIP3    H238592   0.854   4.782   4.119
 5701TIP3   OH238593   2.910   4.770   2.853
 5701TIP3    H138594   2.914   4.697   2.792
 5701TIP3    H238595   2.831   4.754   2.905
 5702TIP3   OH238596   5.060   1.375   4.049
 5702TIP3    H138597   5.093   1.463   4.067
 5702TIP3    H238598   5.073   1.328   4.131
 5703TIP3   OH238599   3.627   0.994   2.102
 5703TIP3    H138600   3.722   0.986   2.107
 5703TIP3    H238601   3.609   1.004   2.008
 5704TIP3   OH238602   0.202   4.704  14.628
 5704TIP3    H138603   0.282   4.691  14.678
 5704TIP3    H238604   0.210   4.792  14.592
 5705TIP3   OH238605   2.277   2.067  12.903
 5705TIP3    H138606   2.290   2.151  12.861
 5705TIP3    H238607   2.365   2.034  12.921
 5706TIP3   OH238608   5.044   5.183  16.244
 5706TIP3    H138609   5.068   5.252  16.306
 5706TIP3    H238610   4.950   5.169  16.258
 5707TIP3   OH238611   5.815   5.824  12.831
 5707TIP3    H138612   5.791   5.899  12.776
 5707TIP3    H238613   5.737   5.769  12.831
 5708TIP3   OH238614   6.011   3.281  14.861
 5708TIP3    H138615   5.952   3.205  14.860
 5708TIP3    H238616   6.042   3.287  14.951
 5709TIP3   OH238617   5.478   3.537  10.829
 5709TIP3    H138618   5.551   3.497  10.783
 5709TIP3    H238619   5.518   3.602  10.886
 5710TIP3   OH238620   5.965   6.104   4.533
 5710TIP3    H138621   6.047   6.107   4.485
 5710TIP3    H238622   5.962   6.016   4.570
 5711TIP3   OH238623   3.870   0.954  16.947
 5711TIP3    H138624   3.823   0.924  16.870
 5711TIP3    H238625   3.890   1.046  16.928
 5712TIP3   OH238626   3.056   5.142   0.529
 5712TIP3    H138627   3.112   5.148   0.452
 5712TIP3    H238628   3.058   5.230   0.568
 5713TIP3   OH238629   1.928   4.610   4.747
 5713TIP3    H138630   1.960   4.536   4.798
 5713TIP3    H238631   1.892   4.570   4.667
 5714TIP3   OH238632   6.578   6.026  14.690
 5714TIP3    H138633   6.597   5.972  14.613
 5714TIP3    H238634   6.486   6.050  14.680
 5715TIP3   OH238635   6.517   5.662  15.156
 5715TIP3    H138636   6.486   5.583  15.201
 5715TIP3    H238637   6.478   5.657  15.069
 5716TIP3   OH238638   6.061   5.484  14.071
 5716TIP3    H138639   6.124   5.418  14.041
 5716TIP3    H238640   6.074   5.558  14.013
 5717TIP3   OH238641   4.318   1.180  16.879
 5717TIP3    H138642   4.318   1.140  16.965
 5717TIP3    H238643   4.383   1.250  16.885
 5718TIP3   OH238644   3.917   6.638   4.371
 5718TIP3    H138645   3.986   6.687   4.416
 5718TIP3    H238646   3.838   6.658   4.420
 5719TIP3   OH238647   3.067   0.818  11.230
 5719TIP3    H138648   3.010   0.891  11.253
 5719TIP3    H238649   3.078   0.825  11.136
 5720TIP3   OH238650   1.120   4.763   1.748
 5720TIP3    H138651   1.076   4.707   1.685
 5720TIP3    H238652   1.055   4.830   1.770
 5721TIP3   OH238653   4.506   0.068   3.363
 5721TIP3    H138654   4.590   0.064   3.409
 5721TIP3    H238655   4.446   0.016   3.417
 5722TIP3   OH238656   6.469   4.553  12.337
 5722TIP3    H138657   6.480   4.470  12.291
 5722TIP3    H238658   6.556   4.593  12.334
 5723TIP3   OH238659   0.236   5.715  16.621
 5723TIP3    H138660   0.251   5.621  16.632
 5723TIP3    H238661   0.221   5.747  16.710
 5724TIP3   OH238662   5.606   1.096   4.223
 5724TIP3    H138663   5.553   1.038   4.169
 5724TIP3    H238664   5.582   1.185   4.195
 5725TIP3   OH238665   4.913   4.311   5.462
 5725TIP3    H138666   4.848   4.247   5.490
 5725TIP3    H238667   4.874   4.396   5.485
 5726TIP3   OH238668   5.717   3.461   4.880
 5726TIP3    H138669   5.640   3.480   4.934
 5726TIP3    H238670   5.781   3.426   4.943
 5727TIP3   OH238671   1.259   3.905  11.950
 5727TIP3    H138672   1.331   3.959  11.917
 5727TIP3    H238673   1.181   3.959  11.937
 5728TIP3   OH238674   4.485   1.411   4.403
 5728TIP3    H138675   4.469   1.329   4.356
 5728TIP3    H238676   4.579   1.410   4.422
 5729TIP3   OH238677   6.754   0.913   2.621
 5729TIP3    H138678   6.705   0.847   2.571
 5729TIP3    H238679   6.840   0.914   2.580
 5730TIP3   OH238680   5.479   1.564  14.733
 5730TIP3    H138681   5.479   1.620  14.811
 5730TIP3    H238682   5.568   1.573  14.697
 5731TIP3   OH238683   1.825   0.430  13.513
 5731TIP3    H138684   1.904   0.406  13.465
 5731TIP3    H238685   1.769   0.353  13.508
 5732TIP3   OH238686   6.648   1.541  16.204
 5732TIP3    H138687   6.601   1.623  16.217
 5732TIP3    H238688   6.715   1.562  16.139
 5733TIP3   OH238689   0.896   4.307   0.616
 5733TIP3    H138690   0.928   4.392   0.646
 5733TIP3    H238691   0.806   4.325   0.587
 5734TIP3   OH238692   0.944   4.638   3.575
 5734TIP3    H138693   1.024   4.654   3.625
 5734TIP3    H238694   0.940   4.712   3.514
 5735TIP3   OH238695   5.317   5.141   2.509
 5735TIP3    H138696   5.324   5.186   2.425
 5735TIP3    H238697   5.223   5.132   2.524
 5736TIP3   OH238698   5.009   5.874   0.938
 5736TIP3    H138699   4.989   5.795   0.887
 5736TIP3    H238700   4.924   5.912   0.959
 5737TIP3   OH238701   0.707   5.826   0.615
 5737TIP3    H138702   0.773   5.867   0.559
 5737TIP3    H238703   0.654   5.773   0.556
 5738TIP3   OH238704   4.507   1.949   6.102
 5738TIP3    H138705   4.497   1.936   6.196
 5738TIP3    H238706   4.582   2.009   6.094
 5739TIP3   OH238707   1.074   1.945  13.122
 5739TIP3    H138708   1.007   1.877  13.108
 5739TIP3    H238709   1.156   1.896  13.129
 5740TIP3   OH238710   6.411   6.803   4.839
 5740TIP3    H138711   6.355   6.870   4.876
 5740TIP3    H238712   6.498   6.821   4.875
 5741TIP3   OH238713   1.277   1.761   2.577
 5741TIP3    H138714   1.243   1.844   2.543
 5741TIP3    H238715   1.345   1.788   2.639
 5742TIP3   OH238716   5.399   2.133   3.478
 5742TIP3    H138717   5.341   2.196   3.522
 5742TIP3    H238718   5.485   2.149   3.518
 5743TIP3   OH238719   5.832   3.698   4.767
 5743TIP3    H138720   5.773   3.773   4.771
 5743TIP3    H238721   5.782   3.626   4.806
 5744TIP3   OH238722   3.165   6.072  12.141
 5744TIP3    H138723   3.172   6.167  12.152
 5744TIP3    H238724   3.072   6.055  12.131
 5745TIP3   OH238725   1.682   2.922   3.412
 5745TIP3    H138726   1.612   2.912   3.347
 5745TIP3    H238727   1.636   2.941   3.494
 5746TIP3   OH238728   0.712   4.736  16.994
 5746TIP3    H138729   0.644   4.796  16.962
 5746TIP3    H238730   0.745   4.693  16.916
 5747TIP3   OH238731   1.944   3.893  14.430
 5747TIP3    H138732   1.984   3.864  14.512
 5747TIP3    H238733   1.901   3.815  14.395
 5748TIP3   OH238734   0.654   1.984   3.269
 5748TIP3    H138735   0.680   1.893   3.256
 5748TIP3    H238736   0.689   2.030   3.193
 5749TIP3   OH238737   2.638   4.863   5.240
 5749TIP3    H138738   2.587   4.941   5.218
 5749TIP3    H238739   2.690   4.888   5.316
 5750TIP3   OH238740   6.275   4.326   2.996
 5750TIP3    H138741   6.250   4.234   2.985
 5750TIP3    H238742   6.329   4.346   2.920
 5751TIP3   OH238743   4.134   3.557   5.037
 5751TIP3    H138744   4.227   3.533   5.035
 5751TIP3    H238745   4.116   3.575   5.129
 5752TIP3   OH238746   4.515   6.306  14.188
 5752TIP3    H138747   4.441   6.334  14.134
 5752TIP3    H238748   4.502   6.211  14.198
 5753TIP3   OH238749   5.915   3.037   5.716
 5753TIP3    H138750   5.838   3.073   5.760
 5753TIP3    H238751   5.927   3.093   5.640
 5754TIP3   OH238752   0.762   4.537  11.004
 5754TIP3    H138753   0.800   4.460  10.962
 5754TIP3    H238754   0.743   4.509  11.094
 5755TIP3   OH238755   0.805   5.037   2.525
 5755TIP3    H138756   0.748   5.096   2.476
 5755TIP3    H238757   0.873   5.094   2.561
 5756TIP3   OH238758   2.439   4.991  15.885
 5756TIP3    H138759   2.491   4.922  15.926
 5756TIP3    H238760   2.425   4.961  15.795
 5757TIP3   OH238761   2.446   1.115  15.222
 5757TIP3    H138762   2.443   1.066  15.304
 5757TIP3    H238763   2.429   1.050  15.154
 5758TIP3   OH238764   6.155   6.293   3.467
 5758TIP3    H138765   6.105   6.227   3.419
 5758TIP3    H238766   6.155   6.262   3.557
 5759TIP3   OH238767   0.073   1.064  14.585
 5759TIP3    H138768   0.047   1.156  14.583
 5759TIP3    H238769   0.144   1.060  14.649
 5760TIP3   OH238770   2.850   5.943  11.089
 5760TIP3    H138771   2.830   6.025  11.044
 5760TIP3    H238772   2.861   5.968  11.180
 5761TIP3   OH238773   3.459   1.410  16.653
 5761TIP3    H138774   3.483   1.480  16.591
 5761TIP3    H238775   3.370   1.385  16.628
 5762TIP3   OH238776   5.561   1.878  12.286
 5762TIP3    H138777   5.476   1.844  12.258
 5762TIP3    H238778   5.558   1.876  12.381
 5763TIP3   OH238779   0.969   0.693   3.398
 5763TIP3    H138780   1.030   0.754   3.356
 5763TIP3    H238781   1.010   0.672   3.482
 5764TIP3   OH238782   0.822   1.002  14.713
 5764TIP3    H138783   0.732   1.026  14.689
 5764TIP3    H238784   0.852   1.073  14.769
 5765TIP3   OH238785   0.423   1.346   5.544
 5765TIP3    H138786   0.475   1.413   5.588
 5765TIP3    H238787   0.452   1.263   5.581
 5766TIP3   OH238788   4.483   3.609  12.493
 5766TIP3    H138789   4.407   3.552  12.504
 5766TIP3    H238790   4.493   3.618  12.399
 5767TIP3   OH238791   4.846   3.635  11.263
 5767TIP3    H138792   4.942   3.635  11.272
 5767TIP3    H238793   4.818   3.720  11.296
 5768TIP3   OH238794   1.019   1.459   3.388
 5768TIP3    H138795   0.988   1.506   3.465
 5768TIP3    H238796   1.113   1.476   3.386
 5769TIP3   OH238797   2.019   0.148  13.661
 5769TIP3    H138798   1.996   0.187  13.745
 5769TIP3    H238799   1.945   0.091  13.640
 5770TIP3   OH238800   2.527   5.202  13.504
 5770TIP3    H138801   2.591   5.245  13.562
 5770TIP3    H238802   2.556   5.111  13.500
 5771TIP3   OH238803   0.662   4.959   4.580
 5771TIP3    H138804   0.608   4.933   4.654
 5771TIP3    H238805   0.713   5.033   4.612
 5772TIP3   OH238806   2.225   2.770  16.349
 5772TIP3    H138807   2.271   2.704  16.401
 5772TIP3    H238808   2.189   2.722  16.274
 5773TIP3   OH238809   4.686   6.228   1.737
 5773TIP3    H138810   4.781   6.241   1.734
 5773TIP3    H238811   4.654   6.297   1.796
 5774TIP3   OH238812   1.486   2.382  14.810
 5774TIP3    H138813   1.555   2.317  14.825
 5774TIP3    H238814   1.429   2.375  14.886
 5775TIP3   OH238815   2.690   4.907  16.680
 5775TIP3    H138816   2.620   4.883  16.619
 5775TIP3    H238817   2.746   4.966  16.630
 5776TIP3   OH238818   4.872   1.084  13.626
 5776TIP3    H138819   4.842   1.053  13.541
 5776TIP3    H238820   4.960   1.117  13.610
 5777TIP3   OH238821   2.199   6.594  12.465
 5777TIP3    H138822   2.200   6.500  12.445
 5777TIP3    H238823   2.149   6.601  12.546
 5778TIP3   OH238824   2.703   2.874   3.661
 5778TIP3    H138825   2.649   2.953   3.666
 5778TIP3    H238826   2.793   2.906   3.661
 5779TIP3   OH238827   0.012   1.256   5.068
 5779TIP3    H138828  -0.070   1.303   5.084
 5779TIP3    H238829  -0.010   1.190   5.003
 5780TIP3   OH238830   0.959   2.415   1.460
 5780TIP3    H138831   1.029   2.444   1.518
 5780TIP3    H238832   0.881   2.461   1.491
 5781TIP3   OH238833   6.102   0.280   4.167
 5781TIP3    H138834   6.192   0.249   4.160
 5781TIP3    H238835   6.053   0.204   4.196
 5782TIP3   OH238836   0.609   1.247  14.297
 5782TIP3    H138837   0.688   1.236  14.246
 5782TIP3    H238838   0.639   1.285  14.380
 5783TIP3   OH238839   3.590   3.792  12.209
 5783TIP3    H138840   3.649   3.861  12.240
 5783TIP3    H238841   3.637   3.711  12.229
 5784TIP3   OH238842   6.791   6.568  16.012
 5784TIP3    H138843   6.723   6.582  16.079
 5784TIP3    H238844   6.859   6.632  16.033
 5785TIP3   OH238845   6.665   4.805   4.469
 5785TIP3    H138846   6.732   4.779   4.406
 5785TIP3    H238847   6.651   4.727   4.522
 5786TIP3   OH238848   4.076   0.197  15.746
 5786TIP3    H138849   4.085   0.128  15.812
 5786TIP3    H238850   4.000   0.248  15.774
 5787TIP3   OH238851   2.169   2.394   2.959
 5787TIP3    H138852   2.233   2.388   3.031
 5787TIP3    H238853   2.212   2.448   2.893
 5788TIP3   OH238854   2.120   1.354  11.127
 5788TIP3    H138855   2.101   1.260  11.120
 5788TIP3    H238856   2.213   1.358  11.148
 5789TIP3   OH238857   1.044   5.446  15.148
 5789TIP3    H138858   0.991   5.418  15.223
 5789TIP3    H238859   0.984   5.440  15.073
 5790TIP3   OH238860   1.240   1.681   0.490
 5790TIP3    H138861   1.189   1.627   0.429
 5790TIP3    H238862   1.187   1.759   0.503
 5791TIP3   OH238863   6.178   5.286  17.015
 5791TIP3    H138864   6.153   5.243  17.097
 5791TIP3    H238865   6.180   5.215  16.950
 5792TIP3   OH238866   2.442   5.044   3.097
 5792TIP3    H138867   2.403   5.073   3.180
 5792TIP3    H238868   2.435   4.949   3.100
 5793TIP3   OH238869   5.215   1.713  13.201
 5793TIP3    H138870   5.265   1.789  13.171
 5793TIP3    H238871   5.226   1.648  13.132
 5794TIP3   OH238872   5.076   1.066  16.716
 5794TIP3    H138873   5.000   1.009  16.723
 5794TIP3    H238874   5.055   1.125  16.642
 5795TIP3   OH238875   5.047   2.920  13.768
 5795TIP3    H138876   5.068   2.934  13.675
 5795TIP3    H238877   5.072   3.002  13.810
 5796TIP3   OH238878   0.465   3.669  16.221
 5796TIP3    H138879   0.411   3.605  16.266
 5796TIP3    H238880   0.475   3.634  16.132
 5797TIP3   OH238881   2.051   4.315   4.557
 5797TIP3    H138882   2.019   4.402   4.532
 5797TIP3    H238883   1.994   4.288   4.629
 5798TIP3   OH238884   0.019   6.343  14.221
 5798TIP3    H138885   0.017   6.264  14.167
 5798TIP3    H238886  -0.070   6.378  14.216
 5799TIP3   OH238887   1.014   6.430   4.623
 5799TIP3    H138888   0.981   6.409   4.711
 5799TIP3    H238889   0.986   6.357   4.569
 5800TIP3   OH238890   0.856   1.636  14.672
 5800TIP3    H138891   0.809   1.565  14.717
 5800TIP3    H238892   0.881   1.599  14.588
 5801TIP3   OH238893   1.482   5.130   6.805
 5801TIP3    H138894   1.492   5.224   6.820
 5801TIP3    H238895   1.422   5.123   6.731
 5802TIP3   OH238896   5.809   6.720   4.133
 5802TIP3    H138897   5.796   6.710   4.039
 5802TIP3    H238898   5.859   6.642   4.158
 5803TIP3   OH238899   4.579   4.328   4.337
 5803TIP3    H138900   4.498   4.280   4.353
 5803TIP3    H238901   4.642   4.262   4.309
 5804TIP3   OH238902   6.066   0.073   6.218
 5804TIP3    H138903   6.123   0.143   6.186
 5804TIP3    H238904   6.058   0.089   6.312
 5805TIP3   OH238905   4.978   5.159   4.442
 5805TIP3    H138906   5.070   5.132   4.437
 5805TIP3    H238907   4.934   5.087   4.487
 5806TIP3   OH238908   3.598   6.618  13.163
 5806TIP3    H138909   3.541   6.588  13.092
 5806TIP3    H238910   3.674   6.560  13.159
 5807TIP3   OH238911   3.825   3.019   3.362
 5807TIP3    H138912   3.754   2.956   3.369
 5807TIP3    H238913   3.850   3.017   3.269
 5808TIP3   OH238914   3.709   2.941  14.844
 5808TIP3    H138915   3.785   2.964  14.790
 5808TIP3    H238916   3.733   2.860  14.887
 5809TIP3   OH238917   1.444   5.885   5.054
 5809TIP3    H138918   1.487   5.814   5.006
 5809TIP3    H238919   1.462   5.964   5.001
 5810TIP3   OH238920   3.877   0.444  12.642
 5810TIP3    H138921   3.858   0.517  12.582
 5810TIP3    H238922   3.966   0.460  12.671
 5811TIP3   OH238923   1.574   3.128  17.189
 5811TIP3    H138924   1.517   3.051  17.193
 5811TIP3    H238925   1.603   3.132  17.098
 5812TIP3   OH238926   3.949   5.451   2.870
 5812TIP3    H138927   4.008   5.483   2.938
 5812TIP3    H238928   3.960   5.511   2.797
 5813TIP3   OH238929   5.154   5.001  12.104
 5813TIP3    H138930   5.231   4.992  12.160
 5813TIP3    H238931   5.150   4.920  12.054
 5814TIP3   OH238932   6.198   2.812  14.046
 5814TIP3    H138933   6.195   2.889  13.989
 5814TIP3    H238934   6.219   2.848  14.133
 5815TIP3   OH238935   4.704   5.921   0.792
 5815TIP3    H138936   4.751   5.970   0.725
 5815TIP3    H238937   4.749   5.942   0.874
 5816TIP3   OH238938   6.529   5.710  16.072
 5816TIP3    H138939   6.500   5.756  16.151
 5816TIP3    H238940   6.595   5.768  16.034
 5817TIP3   OH238941   5.606   5.757   2.850
 5817TIP3    H138942   5.525   5.708   2.864
 5817TIP3    H238943   5.600   5.788   2.759
 5818TIP3   OH238944   6.742   1.292  11.745
 5818TIP3    H138945   6.751   1.197  11.752
 5818TIP3    H238946   6.823   1.327  11.783
 5819TIP3   OH238947   1.241   5.891   3.508
 5819TIP3    H138948   1.281   5.893   3.421
 5819TIP3    H238949   1.148   5.877   3.491
 5820TIP3   OH238950   4.744   1.322  14.515
 5820TIP3    H138951   4.772   1.374  14.590
 5820TIP3    H238952   4.802   1.351  14.444
 5821TIP3   OH238953   1.533   4.350  10.963
 5821TIP3    H138954   1.550   4.443  10.976
 5821TIP3    H238955   1.511   4.343  10.870
 5822TIP3   OH238956   0.237   2.999  15.926
 5822TIP3    H138957   0.208   3.066  15.864
 5822TIP3    H238958   0.322   3.029  15.957
 5823TIP3   OH238959   1.912   5.485   0.528
 5823TIP3    H138960   1.887   5.571   0.561
 5823TIP3    H238961   1.838   5.428   0.550
 5824TIP3   OH238962   5.089   6.027  12.777
 5824TIP3    H138963   5.016   6.033  12.715
 5824TIP3    H238964   5.166   6.010  12.721
 5825TIP3   OH238965   6.513   1.885  12.187
 5825TIP3    H138966   6.511   1.981  12.189
 5825TIP3    H238967   6.539   1.860  12.276
 5826TIP3   OH238968   2.269   3.833   5.426
 5826TIP3    H138969   2.212   3.767   5.464
 5826TIP3    H238970   2.335   3.784   5.377
 5827TIP3   OH238971   2.144   0.203  16.584
 5827TIP3    H138972   2.111   0.229  16.669
 5827TIP3    H238973   2.115   0.272  16.524
 5828TIP3   OH238974   0.308   3.060   3.494
 5828TIP3    H138975   0.328   3.021   3.579
 5828TIP3    H238976   0.313   3.154   3.509
 5829TIP3   OH238977   1.117   3.782  13.485
 5829TIP3    H138978   1.209   3.795  13.508
 5829TIP3    H238979   1.076   3.754  13.566
 5830TIP3   OH238980   5.420   2.737   3.471
 5830TIP3    H138981   5.413   2.722   3.377
 5830TIP3    H238982   5.462   2.658   3.505
 5831TIP3   OH238983   5.126   5.812   3.400
 5831TIP3    H138984   5.055   5.875   3.401
 5831TIP3    H238985   5.124   5.772   3.487
 5832TIP3   OH238986   6.606   2.217   1.578
 5832TIP3    H138987   6.589   2.130   1.612
 5832TIP3    H238988   6.533   2.270   1.610
 5833TIP3   OH238989   3.820   4.716  14.459
 5833TIP3    H138990   3.755   4.778  14.427
 5833TIP3    H238991   3.770   4.637  14.479
 5834TIP3   OH238992   0.357   3.095  12.185
 5834TIP3    H138993   0.356   3.173  12.131
 5834TIP3    H238994   0.372   3.023  12.124
 5835TIP3   OH238995   6.093   2.696   4.389
 5835TIP3    H138996   6.165   2.736   4.437
 5835TIP3    H238997   6.065   2.622   4.444
 5836TIP3   OH238998   6.518   4.105   0.507
 5836TIP3    H138999   6.506   4.139   0.418
 5836TIP3    H239000   6.529   4.184   0.560
 5837TIP3   OH239001   4.305   5.076  13.176
 5837TIP3    H139002   4.278   5.157  13.219
 5837TIP3    H239003   4.345   5.024  13.246
 5838TIP3   OH239004   0.421   5.583   2.741
 5838TIP3    H139005   0.350   5.639   2.773
 5838TIP3    H239006   0.432   5.608   2.650
 5839TIP3   OH239007   1.927   2.152  11.032
 5839TIP3    H139008   1.856   2.213  11.013
 5839TIP3    H239009   1.990   2.166  10.961
 5840TIP3   OH239010   3.787   5.425  15.648
 5840TIP3    H139011   3.743   5.392  15.726
 5840TIP3    H239012   3.720   5.424  15.580
 5841TIP3   OH239013   4.018   0.536   0.130
 5841TIP3    H139014   4.011   0.451   0.085
 5841TIP3    H239015   3.935   0.579   0.113
 5842TIP3   OH239016   4.141   1.402  13.822
 5842TIP3    H139017   4.192   1.404  13.740
 5842TIP3    H239018   4.130   1.310  13.841
 5843TIP3   OH239019   6.227   5.455   0.245
 5843TIP3    H139020   6.191   5.408   0.170
 5843TIP3    H239021   6.156   5.459   0.309
 5844TIP3   OH239022   4.791   1.758   1.103
 5844TIP3    H139023   4.796   1.795   1.191
 5844TIP3    H239024   4.795   1.834   1.045
 5845TIP3   OH239025   4.736   0.982   5.025
 5845TIP3    H139026   4.728   1.003   5.118
 5845TIP3    H239027   4.804   1.040   4.993
 5846TIP3   OH239028   0.516   3.517   5.191
 5846TIP3    H139029   0.536   3.424   5.197
 5846TIP3    H239030   0.555   3.544   5.108
 5847TIP3   OH239031   1.649   3.064  15.250
 5847TIP3    H139032   1.738   3.032  15.269
 5847TIP3    H239033   1.648   3.154  15.281
 5848TIP3   OH239034   2.643   5.916   4.424
 5848TIP3    H139035   2.645   5.823   4.401
 5848TIP3    H239036   2.588   5.920   4.502
 5849TIP3   OH239037   0.882   6.163   5.750
 5849TIP3    H139038   0.811   6.219   5.780
 5849TIP3    H239039   0.840   6.104   5.687
 5850TIP3   OH239040   4.463   1.922   6.386
 5850TIP3    H139041   4.477   1.828   6.400
 5850TIP3    H239042   4.405   1.948   6.458
 5851TIP3   OH239043   5.866   2.660   2.770
 5851TIP3    H139044   5.925   2.588   2.792
 5851TIP3    H239045   5.787   2.617   2.736
 5852TIP3   OH239046   1.184   2.411  15.804
 5852TIP3    H139047   1.140   2.397  15.720
 5852TIP3    H239048   1.231   2.329  15.820
 5853TIP3   OH239049   5.194   0.440  12.129
 5853TIP3    H139050   5.132   0.367  12.125
 5853TIP3    H239051   5.266   0.414  12.071
 5854TIP3   OH239052   3.066   2.381  14.521
 5854TIP3    H139053   2.984   2.379  14.471
 5854TIP3    H239054   3.111   2.460  14.490
 5855TIP3   OH239055   0.100   4.033   5.378
 5855TIP3    H139056   0.135   3.979   5.448
 5855TIP3    H239057   0.177   4.056   5.325
 5856TIP3   OH239058   1.751   1.937  12.758
 5856TIP3    H139059   1.736   1.870  12.691
 5856TIP3    H239060   1.846   1.950  12.758
 5857TIP3   OH239061   3.546   4.175  10.967
 5857TIP3    H139062   3.458   4.210  10.983
 5857TIP3    H239063   3.572   4.214  10.883
 5858TIP3   OH239064   4.977   4.990  15.406
 5858TIP3    H139065   4.949   4.912  15.453
 5858TIP3    H239066   4.945   5.063  15.459
 5859TIP3   OH239067   0.656   4.991   1.397
 5859TIP3    H139068   0.615   5.010   1.312
 5859TIP3    H239069   0.582   4.977   1.456
 5860TIP3   OH239070   6.200   4.586  13.917
 5860TIP3    H139071   6.110   4.565  13.894
 5860TIP3    H239072   6.194   4.667  13.967
 5861TIP3   OH239073   0.919   3.303  15.300
 5861TIP3    H139074   0.965   3.219  15.303
 5861TIP3    H239075   0.969   3.360  15.358
 5862TIP3   OH239076   5.053   4.231   1.663
 5862TIP3    H139077   4.976   4.278   1.629
 5862TIP3    H239078   5.016   4.158   1.712
 5863TIP3   OH239079   2.031   2.104   3.712
 5863TIP3    H139080   2.050   2.141   3.798
 5863TIP3    H239081   2.115   2.071   3.681
 5864TIP3   OH239082   0.179   5.486  12.890
 5864TIP3    H139083   0.174   5.517  12.980
 5864TIP3    H239084   0.145   5.396  12.894
 5865TIP3   OH239085   4.713   3.594   1.412
 5865TIP3    H139086   4.746   3.680   1.435
 5865TIP3    H239087   4.671   3.606   1.327
 5866TIP3   OH239088   3.805   2.155  11.198
 5866TIP3    H139089   3.843   2.116  11.119
 5866TIP3    H239090   3.877   2.160  11.260
 5867TIP3   OH239091   6.674   3.601  15.976
 5867TIP3    H139092   6.718   3.612  16.061
 5867TIP3    H239093   6.700   3.513  15.947
 5868TIP3   OH239094   3.443   3.380   3.873
 5868TIP3    H139095   3.484   3.295   3.858
 5868TIP3    H239096   3.438   3.387   3.969
 5869TIP3   OH239097   1.197   2.049  12.893
 5869TIP3    H139098   1.279   2.066  12.939
 5869TIP3    H239099   1.138   2.018  12.961
 5870TIP3   OH239100   2.199   4.362  15.260
 5870TIP3    H139101   2.142   4.408  15.322
 5870TIP3    H239102   2.143   4.341  15.186
 5871TIP3   OH239103   6.059   6.771   2.036
 5871TIP3    H139104   6.051   6.865   2.050
 5871TIP3    H239105   6.115   6.740   2.107
 5872TIP3   OH239106   2.606   6.080   0.065
 5872TIP3    H139107   2.574   6.170   0.058
 5872TIP3    H239108   2.532   6.026   0.038
 5873TIP3   OH239109   1.707   2.295   2.481
 5873TIP3    H139110   1.681   2.285   2.389
 5873TIP3    H239111   1.757   2.377   2.483
 5874TIP3   OH239112   3.733   5.708   5.749
 5874TIP3    H139113   3.698   5.791   5.716
 5874TIP3    H239114   3.656   5.655   5.767
 5875TIP3   OH239115   5.932   5.237  16.280
 5875TIP3    H139116   5.939   5.238  16.376
 5875TIP3    H239117   5.838   5.243  16.264
 5876TIP3   OH239118   4.228   4.015  13.406
 5876TIP3    H139119   4.235   4.072  13.483
 5876TIP3    H239120   4.146   3.967  13.419
 5877TIP3   OH239121   3.058   3.858   1.078
 5877TIP3    H139122   2.996   3.818   1.017
 5877TIP3    H239123   3.055   3.951   1.058
 5878TIP3   OH239124   5.022   0.939  12.216
 5878TIP3    H139125   5.036   0.865  12.156
 5878TIP3    H239126   4.994   0.898  12.298
 5879TIP3   OH239127   0.667   3.995   5.872
 5879TIP3    H139128   0.642   4.082   5.840
 5879TIP3    H239129   0.583   3.950   5.885
 5880TIP3   OH239130   0.031   1.875  15.003
 5880TIP3    H139131  -0.063   1.860  14.999
 5880TIP3    H239132   0.055   1.855  15.094
 5881TIP3   OH239133   0.463   3.833   0.735
 5881TIP3    H139134   0.399   3.769   0.704
 5881TIP3    H239135   0.470   3.897   0.664
 5882TIP3   OH239136   5.520   1.025  12.084
 5882TIP3    H139137   5.436   1.055  12.119
 5882TIP3    H239138   5.533   1.077  12.005
 5883TIP3   OH239139   1.279   5.329  11.638
 5883TIP3    H139140   1.314   5.266  11.575
 5883TIP3    H239141   1.278   5.282  11.722
 5884TIP3   OH239142   0.483   6.265   5.722
 5884TIP3    H139143   0.521   6.344   5.683
 5884TIP3    H239144   0.442   6.296   5.803
 5885TIP3   OH239145   4.512   1.631   4.154
 5885TIP3    H139146   4.489   1.599   4.241
 5885TIP3    H239147   4.608   1.626   4.152
 5886TIP3   OH239148   5.647   1.879   1.159
 5886TIP3    H139149   5.574   1.843   1.108
 5886TIP3    H239150   5.699   1.803   1.183
 5887TIP3   OH239151   1.249   5.681  10.601
 5887TIP3    H139152   1.186   5.634  10.656
 5887TIP3    H239153   1.276   5.617  10.536
 5888TIP3   OH239154   2.920   4.335   5.259
 5888TIP3    H139155   2.883   4.272   5.198
 5888TIP3    H239156   2.935   4.285   5.339
 5889TIP3   OH239157   2.112   5.630   2.890
 5889TIP3    H139158   2.105   5.709   2.836
 5889TIP3    H239159   2.064   5.564   2.841
 5890TIP3   OH239160   3.906   6.446   5.229
 5890TIP3    H139161   3.935   6.525   5.183
 5890TIP3    H239162   3.985   6.411   5.270
 5891TIP3   OH239163   2.497   3.239   0.738
 5891TIP3    H139164   2.470   3.161   0.689
 5891TIP3    H239165   2.423   3.257   0.797
 5892TIP3   OH239166   6.340   6.084   2.566
 5892TIP3    H139167   6.288   6.008   2.592
 5892TIP3    H239168   6.397   6.052   2.496
 5893TIP3   OH239169   5.359   4.374   0.570
 5893TIP3    H139170   5.345   4.280   0.568
 5893TIP3    H239171   5.278   4.409   0.608
 5894TIP3   OH239172   3.385   2.780   4.215
 5894TIP3    H139173   3.292   2.789   4.196
 5894TIP3    H239174   3.426   2.853   4.168
 5895TIP3   OH239175   0.073   0.769  12.654
 5895TIP3    H139176   0.159   0.728  12.663
 5895TIP3    H239177   0.015   0.699  12.623
 5896TIP3   OH239178   3.673   1.970  14.176
 5896TIP3    H139179   3.690   1.991  14.084
 5896TIP3    H239180   3.721   2.038  14.225
 5897TIP3   OH239181   0.050   2.336   1.688
 5897TIP3    H139182   0.023   2.354   1.598
 5897TIP3    H239183  -0.027   2.296   1.729
 5898TIP3   OH239184   6.691   2.712  16.421
 5898TIP3    H139185   6.618   2.655  16.444
 5898TIP3    H239186   6.685   2.722  16.326
 5899TIP3   OH239187   4.396   6.319   1.166
 5899TIP3    H139188   4.474   6.297   1.116
 5899TIP3    H239189   4.429   6.351   1.250
 5900TIP3   OH239190   4.671   0.483  15.203
 5900TIP3    H139191   4.639   0.437  15.281
 5900TIP3    H239192   4.765   0.464  15.202
 5901TIP3   OH239193   2.872   3.783  12.191
 5901TIP3    H139194   2.788   3.745  12.216
 5901TIP3    H239195   2.863   3.876  12.211
 5902TIP3   OH239196   3.033   0.527  15.446
 5902TIP3    H139197   2.954   0.492  15.486
 5902TIP3    H239198   3.104   0.495  15.502
 5903TIP3   OH239199   2.630   4.421   0.780
 5903TIP3    H139200   2.699   4.370   0.737
 5903TIP3    H239201   2.551   4.367   0.770
 5904TIP3   OH239202   6.219   4.377  15.695
 5904TIP3    H139203   6.194   4.286  15.677
 5904TIP3    H239204   6.280   4.371  15.768
 5905TIP3   OH239205   4.202   0.901  14.120
 5905TIP3    H139206   4.151   0.822  14.100
 5905TIP3    H239207   4.247   0.880  14.202
 5906TIP3   OH239208   5.048   0.220  12.864
 5906TIP3    H139209   5.103   0.181  12.931
 5906TIP3    H239210   5.002   0.292  12.909
 5907TIP3   OH239211   1.820   4.118   5.936
 5907TIP3    H139212   1.884   4.188   5.949
 5907TIP3    H239213   1.844   4.051   6.000
 5908TIP3   OH239214   3.696   4.941   5.079
 5908TIP3    H139215   3.652   4.865   5.118
 5908TIP3    H239216   3.628   5.008   5.073
 5909TIP3   OH239217   4.540   6.249  17.026
 5909TIP3    H139218   4.501   6.305  17.093
 5909TIP3    H239219   4.633   6.273  17.025
 5910TIP3   OH239220   3.068   6.776   5.929
 5910TIP3    H139221   3.099   6.699   5.881
 5910TIP3    H239222   3.105   6.765   6.017
 5911TIP3   OH239223   4.516   3.871   2.023
 5911TIP3    H139224   4.474   3.854   1.938
 5911TIP3    H239225   4.534   3.965   2.022
 5912TIP3   OH239226   4.551   2.623   1.135
 5912TIP3    H139227   4.635   2.597   1.172
 5912TIP3    H239228   4.518   2.543   1.093
 5913TIP3   OH239229   6.811   3.257   0.724
 5913TIP3    H139230   6.720   3.285   0.718
 5913TIP3    H239231   6.844   3.301   0.803
 5914TIP3   OH239232   6.185   0.842   3.958
 5914TIP3    H139233   6.253   0.892   4.005
 5914TIP3    H239234   6.229   0.809   3.880
 5915TIP3   OH239235   0.600   2.281  14.607
 5915TIP3    H139236   0.654   2.359  14.597
 5915TIP3    H239237   0.544   2.299  14.682
 5916TIP3   OH239238   3.480   0.503  11.294
 5916TIP3    H139239   3.396   0.550  11.291
 5916TIP3    H239240   3.459   0.417  11.330
 5917TIP3   OH239241   0.966   6.348  13.279
 5917TIP3    H139242   1.036   6.356  13.344
 5917TIP3    H239243   0.946   6.255  13.277
 5918TIP3   OH239244   0.147   0.808   1.620
 5918TIP3    H139245   0.225   0.789   1.567
 5918TIP3    H239246   0.123   0.724   1.659
 5919TIP3   OH239247   0.044   3.398   3.553
 5919TIP3    H139248   0.053   3.310   3.589
 5919TIP3    H239249   0.124   3.411   3.502
 5920TIP3   OH239250   5.130   1.872  15.504
 5920TIP3    H139251   5.144   1.779  15.484
 5920TIP3    H239252   5.218   1.909  15.511
 5921TIP3   OH239253   1.674   3.868   3.476
 5921TIP3    H139254   1.618   3.834   3.546
 5921TIP3    H239255   1.645   3.959   3.465
 5922TIP3   OH239256   0.262   3.506   4.711
 5922TIP3    H139257   0.314   3.585   4.698
 5922TIP3    H239258   0.171   3.537   4.710
 5923TIP3   OH239259   3.954   0.228   4.336
 5923TIP3    H139260   3.909   0.312   4.344
 5923TIP3    H239261   3.925   0.194   4.251
 5924TIP3   OH239262   2.313   6.787   1.572
 5924TIP3    H139263   2.300   6.694   1.556
 5924TIP3    H239264   2.227   6.819   1.600
 5925TIP3   OH239265   3.663   4.890   6.132
 5925TIP3    H139266   3.758   4.880   6.131
 5925TIP3    H239267   3.646   4.970   6.083
 5926TIP3   OH239268   6.347   1.676   0.136
 5926TIP3    H139269   6.442   1.684   0.139
 5926TIP3    H239270   6.315   1.766   0.142
 5927TIP3   OH239271   1.474   2.809  14.632
 5927TIP3    H139272   1.444   2.826  14.721
 5927TIP3    H239273   1.534   2.735  14.640
 5928TIP3   OH239274   4.496   6.444  16.593
 5928TIP3    H139275   4.549   6.510  16.550
 5928TIP3    H239276   4.447   6.493  16.660
 5929TIP3   OH239277   2.484   5.297   0.187
 5929TIP3    H139278   2.468   5.274   0.279
 5929TIP3    H239279   2.396   5.306   0.150
 5930TIP3   OH239280   4.438   4.530  12.572
 5930TIP3    H139281   4.374   4.548  12.642
 5930TIP3    H239282   4.487   4.612  12.563
 5931TIP3   OH239283   3.069   1.061  12.139
 5931TIP3    H139284   3.012   1.000  12.187
 5931TIP3    H239285   3.145   1.008  12.114
 5932TIP3   OH239286   4.149   2.924  12.271
 5932TIP3    H139287   4.125   2.862  12.203
 5932TIP3    H239288   4.069   2.975  12.287
 5933TIP3   OH239289   2.651   0.670  16.482
 5933TIP3    H139290   2.643   0.740  16.547
 5933TIP3    H239291   2.563   0.661  16.446
 5934TIP3   OH239292   0.809   6.647   2.800
 5934TIP3    H139293   0.863   6.611   2.870
 5934TIP3    H239294   0.760   6.573   2.766
 5935TIP3   OH239295   1.279   2.662  13.093
 5935TIP3    H139296   1.189   2.691  13.110
 5935TIP3    H239297   1.268   2.579  13.045
 5936TIP3   OH239298   6.236   5.284   2.414
 5936TIP3    H139299   6.234   5.257   2.506
 5936TIP3    H239300   6.146   5.272   2.384
 5937TIP3   OH239301   2.798   1.905  16.488
 5937TIP3    H139302   2.818   1.987  16.443
 5937TIP3    H239303   2.795   1.840  16.418
 5938TIP3   OH239304   5.966   5.227   3.590
 5938TIP3    H139305   5.990   5.316   3.565
 5938TIP3    H239306   5.995   5.218   3.680
 5939TIP3   OH239307   1.307   1.758   3.060
 5939TIP3    H139308   1.257   1.731   2.984
 5939TIP3    H239309   1.398   1.756   3.031
 5940TIP3   OH239310   0.874   1.377   4.876
 5940TIP3    H139311   0.820   1.394   4.953
 5940TIP3    H239312   0.963   1.402   4.902
 5941TIP3   OH239313   1.856   6.093  15.521
 5941TIP3    H139314   1.924   6.026  15.526
 5941TIP3    H239315   1.775   6.043  15.504
 5942TIP3   OH239316   4.224   2.239  13.293
 5942TIP3    H139317   4.230   2.331  13.265
 5942TIP3    H239318   4.135   2.213  13.272
 5943TIP3   OH239319   2.004   4.391   2.871
 5943TIP3    H139320   1.999   4.451   2.945
 5943TIP3    H239321   1.984   4.305   2.910
 5944TIP3   OH239322   4.264   2.400  10.642
 5944TIP3    H139323   4.225   2.476  10.598
 5944TIP3    H239324   4.222   2.325  10.601
 5945TIP3   OH239325   1.063   3.572  15.288
 5945TIP3    H139326   0.980   3.618  15.295
 5945TIP3    H239327   1.109   3.615  15.216
 5946TIP3   OH239328   6.107   2.000  14.304
 5946TIP3    H139329   6.082   2.056  14.377
 5946TIP3    H239330   6.133   2.060  14.235
 5947TIP3   OH239331   2.001   0.181  12.875
 5947TIP3    H139332   2.005   0.142  12.963
 5947TIP3    H239333   1.965   0.268  12.889
 5948TIP3   OH239334   3.802   1.047   0.325
 5948TIP3    H139335   3.733   1.086   0.379
 5948TIP3    H239336   3.798   1.096   0.243
 5949TIP3   OH239337   4.986   2.863   5.164
 5949TIP3    H139338   4.898   2.831   5.183
 5949TIP3    H239339   4.972   2.939   5.108
 5950TIP3   OH239340   6.112   6.148   2.084
 5950TIP3    H139341   6.140   6.238   2.066
 5950TIP3    H239342   6.021   6.157   2.113
 5951TIP3   OH239343   5.617   1.862  14.816
 5951TIP3    H139344   5.706   1.886  14.840
 5951TIP3    H239345   5.611   1.881  14.722
 5952TIP3   OH239346   6.391   2.050  13.911
 5952TIP3    H139347   6.436   2.038  13.827
 5952TIP3    H239348   6.385   2.145  13.922
 5953TIP3   OH239349   6.528   4.531  14.115
 5953TIP3    H139350   6.518   4.552  14.022
 5953TIP3    H239351   6.609   4.574  14.141
 5954TIP3   OH239352   6.690   3.239   4.143
 5954TIP3    H139353   6.746   3.308   4.106
 5954TIP3    H239354   6.720   3.231   4.234
 5955TIP3   OH239355   2.653   5.861  16.698
 5955TIP3    H139356   2.618   5.871  16.786
 5955TIP3    H239357   2.740   5.823  16.711
 5956TIP3   OH239358   1.137   0.965  16.315
 5956TIP3    H139359   1.073   0.901  16.348
 5956TIP3    H239360   1.123   1.043  16.370
 5957TIP3   OH239361   2.216   4.701   4.309
 5957TIP3    H139362   2.296   4.712   4.360
 5957TIP3    H239363   2.145   4.721   4.371
 5958TIP3   OH239364   3.308   3.398   4.383
 5958TIP3    H139365   3.264   3.380   4.300
 5958TIP3    H239366   3.242   3.380   4.449
 5959TIP3   OH239367   2.113   0.286  14.406
 5959TIP3    H139368   2.064   0.238  14.474
 5959TIP3    H239369   2.196   0.239  14.399
 5960TIP3   OH239370   0.037   3.987  14.998
 5960TIP3    H139371   0.034   3.920  14.929
 5960TIP3    H239372   0.046   4.070  14.951
 5961TIP3   OH239373   4.368   1.678  14.673
 5961TIP3    H139374   4.272   1.681  14.683
 5961TIP3    H239375   4.401   1.692  14.761
 5962TIP3   OH239376   1.527   3.601  15.705
 5962TIP3    H139377   1.519   3.552  15.623
 5962TIP3    H239378   1.561   3.686  15.678
 5963TIP3   OH239379   0.116   3.294   2.644
 5963TIP3    H139380   0.159   3.327   2.722
 5963TIP3    H239381   0.109   3.200   2.658
 5964TIP3   OH239382   4.613   4.589   0.297
 5964TIP3    H139383   4.540   4.577   0.358
 5964TIP3    H239384   4.604   4.517   0.234
 5965TIP3   OH239385   4.058   5.166  11.320
 5965TIP3    H139386   4.128   5.229  11.340
 5965TIP3    H239387   3.996   5.216  11.267
 5966TIP3   OH239388   1.828   5.737   0.051
 5966TIP3    H139389   1.777   5.657   0.036
 5966TIP3    H239390   1.762   5.806   0.060
 5967TIP3   OH239391   1.723   1.673   3.958
 5967TIP3    H139392   1.797   1.614   3.944
 5967TIP3    H239393   1.646   1.615   3.956
 5968TIP3   OH239394   2.546   3.319   1.998
 5968TIP3    H139395   2.635   3.352   1.987
 5968TIP3    H239396   2.510   3.372   2.069
 5969TIP3   OH239397   3.345   2.223  15.202
 5969TIP3    H139398   3.332   2.224  15.107
 5969TIP3    H239399   3.388   2.306  15.222
 5970TIP3   OH239400   3.924   2.654   5.693
 5970TIP3    H139401   3.934   2.745   5.664
 5970TIP3    H239402   3.929   2.659   5.788
 5971TIP3   OH239403   5.807   4.630  13.240
 5971TIP3    H139404   5.788   4.660  13.151
 5971TIP3    H239405   5.892   4.669  13.261
 5972TIP3   OH239406   0.121   1.388   4.570
 5972TIP3    H139407   0.170   1.317   4.610
 5972TIP3    H239408   0.101   1.357   4.482
 5973TIP3   OH239409   6.404   0.736   3.767
 5973TIP3    H139410   6.472   0.720   3.702
 5973TIP3    H239411   6.441   0.702   3.849
 5974TIP3   OH239412   2.515   5.707  15.764
 5974TIP3    H139413   2.555   5.679  15.846
 5974TIP3    H239414   2.474   5.791  15.785
 5975TIP3   OH239415   4.352   3.908  14.487
 5975TIP3    H139416   4.302   3.898  14.406
 5975TIP3    H239417   4.302   3.971  14.539
 5976TIP3   OH239418   4.067   0.837  15.511
 5976TIP3    H139419   3.996   0.901  15.509
 5976TIP3    H239420   4.145   0.886  15.486
 5977TIP3   OH239421   1.488   3.562   1.812
 5977TIP3    H139422   1.483   3.657   1.803
 5977TIP3    H239423   1.538   3.547   1.892
 5978TIP3   OH239424   0.770   2.525   3.127
 5978TIP3    H139425   0.815   2.489   3.203
 5978TIP3    H239426   0.832   2.588   3.090
 5979TIP3   OH239427   4.467   3.806   5.976
 5979TIP3    H139428   4.417   3.846   5.906
 5979TIP3    H239429   4.551   3.782   5.936
 5980TIP3   OH239430   2.352   6.522  15.738
 5980TIP3    H139431   2.344   6.562  15.651
 5980TIP3    H239432   2.276   6.555  15.786
 5981TIP3   OH239433   4.252   0.688  16.431
 5981TIP3    H139434   4.268   0.623  16.499
 5981TIP3    H239435   4.164   0.721  16.449
 5982TIP3   OH239436   5.856   3.022   1.029
 5982TIP3    H139437   5.904   3.083   0.973
 5982TIP3    H239438   5.885   3.042   1.118
 5983TIP3   OH239439   0.098   5.458  12.499
 5983TIP3    H139440   0.097   5.529  12.563
 5983TIP3    H239441   0.045   5.389  12.538
 5984TIP3   OH239442   6.305   1.445   0.808
 5984TIP3    H139443   6.246   1.422   0.737
 5984TIP3    H239444   6.391   1.413   0.781
 5985TIP3   OH239445   2.069   5.714  16.543
 5985TIP3    H139446   2.132   5.667  16.488
 5985TIP3    H239447   2.048   5.652  16.613
 5986TIP3   OH239448   4.987   3.964   3.807
 5986TIP3    H139449   4.961   4.055   3.826
 5986TIP3    H239450   4.964   3.951   3.715
 5987TIP3   OH239451   2.957   3.760   2.723
 5987TIP3    H139452   3.042   3.801   2.739
 5987TIP3    H239453   2.942   3.704   2.800
 5988TIP3   OH239454   2.068   0.302   5.869
 5988TIP3    H139455   2.044   0.225   5.920
 5988TIP3    H239456   1.991   0.359   5.872
 5989TIP3   OH239457   5.499   0.335   4.068
 5989TIP3    H139458   5.458   0.336   4.155
 5989TIP3    H239459   5.574   0.276   4.077
 5990TIP3   OH239460   0.411   2.952   4.008
 5990TIP3    H139461   0.403   2.870   4.056
 5990TIP3    H239462   0.466   3.008   4.064
 5991TIP3   OH239463   2.194   3.203   4.301
 5991TIP3    H139464   2.139   3.214   4.379
 5991TIP3    H239465   2.274   3.253   4.320
 5992TIP3   OH239466   4.958   6.364  16.084
 5992TIP3    H139467   4.889   6.302  16.110
 5992TIP3    H239468   4.932   6.394  15.997
 5993TIP3   OH239469   0.660   2.027  12.404
 5993TIP3    H139470   0.589   2.090  12.394
 5993TIP3    H239471   0.634   1.953  12.350
 5994TIP3   OH239472   1.494   6.732  15.688
 5994TIP3    H139473   1.570   6.676  15.704
 5994TIP3    H239474   1.531   6.818  15.671
 5995TIP3   OH239475   1.201   3.095   1.907
 5995TIP3    H139476   1.276   3.131   1.859
 5995TIP3    H239477   1.171   3.022   1.853
 5996TIP3   OH239478   3.747   3.449  13.990
 5996TIP3    H139479   3.749   3.509  13.916
 5996TIP3    H239480   3.834   3.456  14.029
 5997TIP3   OH239481   2.026   6.772   0.193
 5997TIP3    H139482   2.018   6.677   0.200
 5997TIP3    H239483   1.945   6.806   0.229
 5998TIP3   OH239484   6.339   6.108  12.645
 5998TIP3    H139485   6.366   6.185  12.596
 5998TIP3    H239486   6.421   6.064  12.668
 5999TIP3   OH239487   4.918   5.392   2.450
 5999TIP3    H139488   4.988   5.370   2.388
 5999TIP3    H239489   4.941   5.480   2.481
 6000TIP3   OH239490   6.425   5.811  16.286
 6000TIP3    H139491   6.443   5.820  16.380
 6000TIP3    H239492   6.331   5.793  16.281
 6001TIP3   OH239493   1.411   4.826  16.963
 6001TIP3    H139494   1.353   4.750  16.956
 6001TIP3    H239495   1.489   4.793  17.009
 6002TIP3   OH239496   2.856   2.338   1.908
 6002TIP3    H139497   2.885   2.403   1.844
 6002TIP3    H239498   2.838   2.389   1.987
 6003TIP3   OH239499   1.907   1.070   0.486
 6003TIP3    H139500   1.895   1.131   0.559
 6003TIP3    H239501   1.820   1.033   0.472
 6004TIP3   OH239502   2.424   3.833  11.496
 6004TIP3    H139503   2.423   3.739  11.510
 6004TIP3    H239504   2.514   3.853  11.472
 6005TIP3   OH239505   2.210   5.435  17.185
 6005TIP3    H139506   2.118   5.457  17.172
 6005TIP3    H239507   2.250   5.516  17.215
 6006TIP3   OH239508   6.378   6.493  15.879
 6006TIP3    H139509   6.358   6.521  15.789
 6006TIP3    H239510   6.373   6.398  15.876
 6007TIP3   OH239511   5.630   3.438  14.198
 6007TIP3    H139512   5.556   3.406  14.250
 6007TIP3    H239513   5.685   3.361  14.185
 6008TIP3   OH239514   3.538   2.887  12.596
 6008TIP3    H139515   3.512   2.847  12.513
 6008TIP3    H239516   3.629   2.915  12.582
 6009TIP3   OH239517   4.449   0.517   1.240
 6009TIP3    H139518   4.538   0.548   1.256
 6009TIP3    H239519   4.394   0.572   1.296
 6010TIP3   OH239520   0.368   5.395   4.250
 6010TIP3    H139521   0.429   5.443   4.194
 6010TIP3    H239522   0.374   5.304   4.219
 6011TIP3   OH239523   6.584   2.388  16.894
 6011TIP3    H139524   6.545   2.302  16.911
 6011TIP3    H239525   6.665   2.370  16.847
 6012TIP3   OH239526   5.631   2.779   5.726
 6012TIP3    H139527   5.662   2.694   5.755
 6012TIP3    H239528   5.592   2.819   5.804
 6013TIP3   OH239529   5.265   3.881  14.923
 6013TIP3    H139530   5.229   3.798  14.892
 6013TIP3    H239531   5.244   3.944  14.854
 6014TIP3   OH239532   1.708   6.386  16.265
 6014TIP3    H139533   1.792   6.342  16.253
 6014TIP3    H239534   1.729   6.463  16.319
 6015TIP3   OH239535   1.677   3.193  15.850
 6015TIP3    H139536   1.583   3.205  15.865
 6015TIP3    H239537   1.697   3.252  15.777
 6016TIP3   OH239538   4.083   2.902  16.247
 6016TIP3    H139539   4.162   2.886  16.299
 6016TIP3    H239540   4.068   2.996  16.254
 6017TIP3   OH239541   0.299   4.828  13.472
 6017TIP3    H139542   0.251   4.911  13.480
 6017TIP3    H239543   0.352   4.822  13.551
 6018TIP3   OH239544   0.702   1.478   5.065
 6018TIP3    H139545   0.685   1.559   5.112
 6018TIP3    H239546   0.653   1.411   5.112
 6019TIP3   OH239547   5.531   6.027  17.052
 6019TIP3    H139548   5.543   5.958  16.987
 6019TIP3    H239549   5.473   5.988  17.118
 6020TIP3   OH239550   4.168   5.039  15.514
 6020TIP3    H139551   4.156   5.128  15.482
 6020TIP3    H239552   4.086   4.995  15.493
 6021TIP3   OH239553   1.174   1.632  14.650
 6021TIP3    H139554   1.156   1.668  14.563
 6021TIP3    H239555   1.097   1.579  14.670
 6022TIP3   OH239556   2.431   4.766   3.517
 6022TIP3    H139557   2.466   4.743   3.431
 6022TIP3    H239558   2.362   4.702   3.533
 6023TIP3   OH239559   3.789   4.638  12.165
 6023TIP3    H139560   3.819   4.728  12.179
 6023TIP3    H239561   3.698   4.648  12.136
 6024TIP3   OH239562   5.766   3.959  15.100
 6024TIP3    H139563   5.765   4.028  15.034
 6024TIP3    H239564   5.689   3.906  15.081
 6025TIP3   OH239565   2.807   3.617   4.714
 6025TIP3    H139566   2.821   3.526   4.739
 6025TIP3    H239567   2.849   3.668   4.783
 6026TIP3   OH239568   2.773   4.766   0.471
 6026TIP3    H139569   2.787   4.840   0.412
 6026TIP3    H239570   2.754   4.806   0.556
 6027TIP3   OH239571   6.269   1.204   4.012
 6027TIP3    H139572   6.364   1.211   4.006
 6027TIP3    H239573   6.241   1.179   3.924
 6028TIP3   OH239574   6.057   5.743   0.595
 6028TIP3    H139575   6.030   5.651   0.600
 6028TIP3    H239576   6.139   5.741   0.546
 6029TIP3   OH239577   1.052   1.442  13.701
 6029TIP3    H139578   1.004   1.481  13.628
 6029TIP3    H239579   1.013   1.355  13.712
 6030TIP3   OH239580   4.221   3.840  15.888
 6030TIP3    H139581   4.149   3.797  15.933
 6030TIP3    H239582   4.208   3.933  15.905
 6031TIP3   OH239583   5.996   5.879  16.554
 6031TIP3    H139584   5.965   5.895  16.643
 6031TIP3    H239585   5.920   5.844  16.508
 6032TIP3   OH239586   3.624   1.134  12.950
 6032TIP3    H139587   3.574   1.195  12.897
 6032TIP3    H239588   3.561   1.100  13.014
 6033TIP3   OH239589   5.158   2.459  16.640
 6033TIP3    H139590   5.169   2.397  16.712
 6033TIP3    H239591   5.247   2.475  16.608
 6034TIP3   OH239592   0.853   2.340  13.597
 6034TIP3    H139593   0.848   2.320  13.504
 6034TIP3    H239594   0.812   2.427  13.605
 6035TIP3   OH239595   0.096   3.811   1.861
 6035TIP3    H139596   0.075   3.849   1.775
 6035TIP3    H239597   0.191   3.818   1.867
 6036TIP3   OH239598   2.267   1.786  15.797
 6036TIP3    H139599   2.228   1.711  15.753
 6036TIP3    H239600   2.300   1.842  15.726
 6037TIP3   OH239601   4.362   3.102   0.592
 6037TIP3    H139602   4.399   3.132   0.674
 6037TIP3    H239603   4.345   3.182   0.542
 6038TIP3   OH239604   5.060   4.995   5.995
 6038TIP3    H139605   5.030   4.917   6.042
 6038TIP3    H239606   4.980   5.031   5.956
 6039TIP3   OH239607   5.167   1.702   1.247
 6039TIP3    H139608   5.182   1.725   1.155
 6039TIP3    H239609   5.142   1.609   1.244
 6040TIP3   OH239610   0.154   6.603  13.219
 6040TIP3    H139611   0.243   6.637  13.218
 6040TIP3    H239612   0.102   6.667  13.171
 6041TIP3   OH239613   3.943   4.741   5.398
 6041TIP3    H139614   3.868   4.686   5.372
 6041TIP3    H239615   4.018   4.699   5.357
 6042TIP3   OH239616   2.678   3.542   3.083
 6042TIP3    H139617   2.693   3.637   3.091
 6042TIP3    H239618   2.736   3.504   3.149
 6043TIP3   OH239619   6.405   2.517   0.204
 6043TIP3    H139620   6.320   2.497   0.165
 6043TIP3    H239621   6.469   2.473   0.148
 6044TIP3   OH239622   1.916   2.359   6.296
 6044TIP3    H139623   1.851   2.301   6.337
 6044TIP3    H239624   1.865   2.421   6.245
 6045TIP3   OH239625   4.114   6.409   2.877
 6045TIP3    H139626   4.095   6.503   2.881
 6045TIP3    H239627   4.049   6.368   2.934
 6046TIP3   OH239628   0.874   3.804   2.954
 6046TIP3    H139629   0.892   3.730   3.013
 6046TIP3    H239630   0.959   3.826   2.916
 6047TIP3   OH239631   5.804   1.953   1.651
 6047TIP3    H139632   5.739   1.996   1.707
 6047TIP3    H239633   5.836   2.022   1.593
 6048TIP3   OH239634   6.266   2.110  13.556
 6048TIP3    H139635   6.216   2.077  13.630
 6048TIP3    H239636   6.236   2.058  13.481
 6049TIP3   OH239637   5.581   6.349  15.707
 6049TIP3    H139638   5.507   6.409  15.711
 6049TIP3    H239639   5.638   6.375  15.780
 6050TIP3   OH239640   1.109   4.851   4.001
 6050TIP3    H139641   1.076   4.901   4.075
 6050TIP3    H239642   1.204   4.849   4.013
 6051TIP3   OH239643   0.105   5.025  13.540
 6051TIP3    H139644   0.048   5.086  13.493
 6051TIP3    H239645   0.046   4.977  13.598
 6052TIP3   OH239646   2.744   4.631  16.877
 6052TIP3    H139647   2.714   4.646  16.788
 6052TIP3    H239648   2.669   4.652  16.932
 6053TIP3   OH239649   6.234   3.821   4.898
 6053TIP3    H139650   6.265   3.885   4.834
 6053TIP3    H239651   6.193   3.752   4.846
 6054TIP3   OH239652   1.273   2.380   4.355
 6054TIP3    H139653   1.358   2.337   4.361
 6054TIP3    H239654   1.209   2.309   4.364
 6055TIP3   OH239655   1.204   2.644   2.900
 6055TIP3    H139656   1.151   2.567   2.919
 6055TIP3    H239657   1.163   2.684   2.824
 6056TIP3   OH239658   2.955   2.409  14.267
 6056TIP3    H139659   3.020   2.341  14.254
 6056TIP3    H239660   2.931   2.438  14.179
 6057TIP3   OH239661   3.523   6.305   0.380
 6057TIP3    H139662   3.565   6.338   0.300
 6057TIP3    H239663   3.430   6.320   0.367
 6058TIP3   OH239664   2.936   4.587  16.139
 6058TIP3    H139665   2.935   4.678  16.167
 6058TIP3    H239666   2.929   4.537  16.221
 6059TIP3   OH239667   3.265   0.655  14.297
 6059TIP3    H139668   3.217   0.648  14.379
 6059TIP3    H239669   3.350   0.616  14.316
 6060TIP3   OH239670   4.656   1.635  14.550
 6060TIP3    H139671   4.566   1.603  14.561
 6060TIP3    H239672   4.667   1.643  14.456
 6061TIP3   OH239673   3.419   2.982  10.838
 6061TIP3    H139674   3.419   3.042  10.764
 6061TIP3    H239675   3.420   2.895  10.799
 6062TIP3   OH239676   5.850   4.069  12.349
 6062TIP3    H139677   5.826   4.125  12.275
 6062TIP3    H239678   5.774   4.013  12.362
 6063TIP3   OH239679   1.257   5.584   1.869
 6063TIP3    H139680   1.209   5.555   1.791
 6063TIP3    H239681   1.243   5.679   1.872
 6064TIP3   OH239682   1.288   6.518   3.357
 6064TIP3    H139683   1.330   6.508   3.442
 6064TIP3    H239684   1.291   6.431   3.318
 6065TIP3   OH239685   3.601   1.755  16.840
 6065TIP3    H139686   3.673   1.707  16.800
 6065TIP3    H239687   3.603   1.841  16.798
 6066TIP3   OH239688   1.823   2.069   1.395
 6066TIP3    H139689   1.857   1.983   1.370
 6066TIP3    H239690   1.873   2.131   1.343
 6067TIP3   OH239691   1.612   3.700  14.419
 6067TIP3    H139692   1.695   3.748  14.416
 6067TIP3    H239693   1.630   3.624  14.473
 6068TIP3   OH239694   5.183   2.009   0.049
 6068TIP3    H139695   5.161   2.025  -0.043
 6068TIP3    H239696   5.270   2.047   0.059
 6069TIP3   OH239697   5.794   6.217  16.539
 6069TIP3    H139698   5.733   6.144  16.550
 6069TIP3    H239699   5.745   6.280  16.486
 6070TIP3   OH239700   1.466   6.502   4.540
 6070TIP3    H139701   1.483   6.504   4.634
 6070TIP3    H239702   1.400   6.570   4.526
 6071TIP3   OH239703   3.279   3.284  12.882
 6071TIP3    H139704   3.349   3.276  12.818
 6071TIP3    H239705   3.265   3.194  12.914
 6072TIP3   OH239706   0.212   2.213  13.652
 6072TIP3    H139707   0.231   2.294  13.700
 6072TIP3    H239708   0.291   2.160  13.661
 6073TIP3   OH239709   3.560   0.785   2.936
 6073TIP3    H139710   3.582   0.875   2.915
 6073TIP3    H239711   3.526   0.789   3.026
 6074TIP3   OH239712   1.412   4.890  13.327
 6074TIP3    H139713   1.427   4.984  13.325
 6074TIP3    H239714   1.406   4.868  13.420
 6075TIP3   OH239715   1.046   4.463  17.121
 6075TIP3    H139716   1.099   4.449  17.200
 6075TIP3    H239717   0.979   4.395  17.124
 6076TIP3   OH239718   1.157   1.525   3.952
 6076TIP3    H139719   1.080   1.552   4.004
 6076TIP3    H239720   1.185   1.605   3.907
 6077TIP3   OH239721   1.208   0.384   6.127
 6077TIP3    H139722   1.302   0.367   6.138
 6077TIP3    H239723   1.191   0.457   6.186
 6078TIP3   OH239724   2.564   4.397  14.696
 6078TIP3    H139725   2.504   4.464  14.664
 6078TIP3    H239726   2.511   4.317  14.698
 6079TIP3   OH239727   2.994   1.203   5.815
 6079TIP3    H139728   3.039   1.147   5.878
 6079TIP3    H239729   3.034   1.181   5.730
 6080TIP3   OH239730   1.104   4.821   4.567
 6080TIP3    H139731   1.072   4.736   4.598
 6080TIP3    H239732   1.125   4.869   4.647
 6081TIP3   OH239733   4.919   1.689   0.318
 6081TIP3    H139734   5.011   1.664   0.326
 6081TIP3    H239735   4.921   1.783   0.303
 6082TIP3   OH239736   2.784   3.767  12.741
 6082TIP3    H139737   2.707   3.780  12.796
 6082TIP3    H239738   2.858   3.794  12.795
 6083TIP3   OH239739   1.092   3.641   5.368
 6083TIP3    H139740   1.139   3.685   5.439
 6083TIP3    H239741   1.003   3.675   5.374
 6084TIP3   OH239742   5.821   5.702   2.294
 6084TIP3    H139743   5.872   5.717   2.374
 6084TIP3    H239744   5.794   5.789   2.266
 6085TIP3   OH239745   4.410   5.538   5.134
 6085TIP3    H139746   4.344   5.606   5.122
 6085TIP3    H239747   4.414   5.525   5.228
 6086TIP3   OH239748   2.921   3.017  15.650
 6086TIP3    H139749   3.011   3.051  15.658
 6086TIP3    H239750   2.869   3.073  15.707
 6087TIP3   OH239751   0.137   2.781  11.434
 6087TIP3    H139752   0.155   2.743  11.520
 6087TIP3    H239753   0.222   2.816  11.406
 6088TIP3   OH239754   6.793   1.463   0.630
 6088TIP3    H139755   6.775   1.554   0.606
 6088TIP3    H239756   6.833   1.425   0.552
 6089TIP3   OH239757   5.791   6.248   0.573
 6089TIP3    H139758   5.839   6.309   0.518
 6089TIP3    H239759   5.842   6.167   0.570
 6090TIP3   OH239760   1.973   2.736  13.357
 6090TIP3    H139761   2.033   2.667  13.387
 6090TIP3    H239762   1.965   2.794  13.433
 6091TIP3   OH239763   5.861   2.250  12.275
 6091TIP3    H139764   5.808   2.200  12.212
 6091TIP3    H239765   5.878   2.188  12.346
 6092TIP3   OH239766   0.077   5.129  11.947
 6092TIP3    H139767   0.121   5.190  11.887
 6092TIP3    H239768   0.126   5.047  11.936
 6093TIP3   OH239769   1.109   5.392  14.031
 6093TIP3    H139770   1.150   5.464  13.984
 6093TIP3    H239771   1.062   5.342  13.964
 6094TIP3   OH239772   5.267   1.046   3.039
 6094TIP3    H139773   5.339   0.996   3.078
 6094TIP3    H239774   5.265   1.017   2.948
 6095TIP3   OH239775   4.894   2.358  12.974
 6095TIP3    H139776   4.826   2.385  13.036
 6095TIP3    H239777   4.895   2.263  12.979
 6096TIP3   OH239778   4.742   3.388   4.869
 6096TIP3    H139779   4.764   3.416   4.780
 6096TIP3    H239780   4.686   3.312   4.857
 6097TIP3   OH239781   4.169   1.545   3.203
 6097TIP3    H139782   4.252   1.533   3.250
 6097TIP3    H239783   4.102   1.517   3.265
 6098TIP3   OH239784   1.523   3.054  13.179
 6098TIP3    H139785   1.506   3.145  13.155
 6098TIP3    H239786   1.458   3.034  13.246
 6099TIP3   OH239787   0.534   6.432  14.850
 6099TIP3    H139788   0.628   6.427  14.834
 6099TIP3    H239789   0.508   6.342  14.868
 6100TIP3   OH239790   1.884   3.643   1.082
 6100TIP3    H139791   1.968   3.601   1.062
 6100TIP3    H239792   1.896   3.677   1.171
 6101TIP3   OH239793   6.803   0.836   0.359
 6101TIP3    H139794   6.791   0.824   0.265
 6101TIP3    H239795   6.715   0.833   0.395
 6102TIP3   OH239796   3.629   3.216   2.771
 6102TIP3    H139797   3.647   3.297   2.820
 6102TIP3    H239798   3.542   3.230   2.733
 6103TIP3   OH239799   1.076   4.768  13.658
 6103TIP3    H139800   1.158   4.771  13.610
 6103TIP3    H239801   1.100   4.740  13.746
 6104TIP3   OH239802   6.649   6.299  12.135
 6104TIP3    H139803   6.572   6.287  12.081
 6104TIP3    H239804   6.714   6.337  12.076
 6105TIP3   OH239805   6.617   0.646   0.970
 6105TIP3    H139806   6.554   0.716   0.985
 6105TIP3    H239807   6.563   0.570   0.947
 6106TIP3   OH239808   0.109   0.392  16.232
 6106TIP3    H139809   0.119   0.340  16.153
 6106TIP3    H239810   0.187   0.447  16.234
 6107TIP3   OH239811   0.632   3.624   2.845
 6107TIP3    H139812   0.576   3.549   2.865
 6107TIP3    H239813   0.719   3.587   2.834
 6108TIP3   OH239814   3.790   4.956   0.166
 6108TIP3    H139815   3.813   4.942   0.074
 6108TIP3    H239816   3.804   5.050   0.179
 6109TIP3   OH239817   3.472   1.241  13.271
 6109TIP3    H139818   3.564   1.219  13.286
 6109TIP3    H239819   3.423   1.167  13.305
 6110TIP3   OH239820   3.004   1.129  11.256
 6110TIP3    H139821   3.089   1.140  11.298
 6110TIP3    H239822   2.941   1.133  11.327
 6111TIP3   OH239823   0.060   1.753  17.261
 6111TIP3    H139824   0.014   1.810  17.200
 6111TIP3    H239825   0.035   1.784  17.348
 6112TIP3   OH239826   0.774   4.452   2.401
 6112TIP3    H139827   0.856   4.438   2.355
 6112TIP3    H239828   0.761   4.547   2.399
 6113TIP3   OH239829   6.564   4.168  10.303
 6113TIP3    H139830   6.544   4.081  10.336
 6113TIP3    H239831   6.658   4.177  10.316
 6114TIP3   OH239832   5.121   2.504   1.096
 6114TIP3    H139833   5.084   2.534   1.178
 6114TIP3    H239834   5.115   2.409   1.100
 6115TIP3   OH239835   3.733   0.065   1.086
 6115TIP3    H139836   3.676   0.027   1.153
 6115TIP3    H239837   3.682   0.059   1.005
 6116TIP3   OH239838   2.260   5.254  11.283
 6116TIP3    H139839   2.182   5.203  11.261
 6116TIP3    H239840   2.323   5.188  11.314
 6117TIP3   OH239841   6.448   5.413   0.458
 6117TIP3    H139842   6.361   5.429   0.420
 6117TIP3    H239843   6.504   5.481   0.420
 6118TIP3   OH239844   5.402   4.353  14.600
 6118TIP3    H139845   5.452   4.314  14.671
 6118TIP3    H239846   5.376   4.278  14.545
 6119TIP3   OH239847   3.076   6.453  11.810
 6119TIP3    H139848   3.081   6.376  11.755
 6119TIP3    H239849   3.103   6.525  11.753
 6120TIP3   OH239850   2.090   5.503  10.311
 6120TIP3    H139851   2.048   5.569  10.367
 6120TIP3    H239852   2.018   5.447  10.282
 6121TIP3   OH239853   4.794   3.962   0.192
 6121TIP3    H139854   4.882   3.981   0.159
 6121TIP3    H239855   4.744   3.935   0.115
 6122TIP3   OH239856   3.137   5.684   4.235
 6122TIP3    H139857   3.198   5.631   4.287
 6122TIP3    H239858   3.190   5.758   4.204
 6123TIP3   OH239859   1.248   1.985  14.982
 6123TIP3    H139860   1.215   1.948  14.900
 6123TIP3    H239861   1.312   1.922  15.014
 6124TIP3   OH239862   6.246   0.582   3.153
 6124TIP3    H139863   6.331   0.544   3.171
 6124TIP3    H239864   6.238   0.654   3.216
 6125TIP3   OH239865   0.026   4.708   4.294
 6125TIP3    H139866   0.106   4.685   4.248
 6125TIP3    H239867  -0.042   4.707   4.226
 6126TIP3   OH239868   6.674   0.328  17.125
 6126TIP3    H139869   6.583   0.304  17.110
 6126TIP3    H239870   6.677   0.422  17.111
 6127TIP3   OH239871   5.201   3.184  13.871
 6127TIP3    H139872   5.260   3.247  13.913
 6127TIP3    H239873   5.120   3.190  13.922
 6128TIP3   OH239874   5.753   3.493   5.801
 6128TIP3    H139875   5.762   3.531   5.889
 6128TIP3    H239876   5.711   3.562   5.749
 6129TIP3   OH239877   3.610   5.354  14.981
 6129TIP3    H139878   3.667   5.300  14.926
 6129TIP3    H239879   3.554   5.400  14.918
 6130TIP3   OH239880   5.340   6.788  13.833
 6130TIP3    H139881   5.413   6.760  13.777
 6130TIP3    H239882   5.267   6.800  13.772
 6131TIP3   OH239883   0.424   2.733   2.002
 6131TIP3    H139884   0.409   2.796   1.931
 6131TIP3    H239885   0.384   2.652   1.971
 6132TIP3   OH239886   2.970   1.396  14.782
 6132TIP3    H139887   3.006   1.328  14.839
 6132TIP3    H239888   3.023   1.473  14.802
 6133TIP3   OH239889   3.243   0.205   2.834
 6133TIP3    H139890   3.298   0.205   2.755
 6133TIP3    H239891   3.172   0.266   2.812
 6134TIP3   OH239892   2.963   5.332   0.277
 6134TIP3    H139893   2.888   5.353   0.221
 6134TIP3    H239894   2.947   5.382   0.357
 6135TIP3   OH239895   4.158   6.497  11.433
 6135TIP3    H139896   4.173   6.543  11.515
 6135TIP3    H239897   4.217   6.421  11.437
 6136TIP3   OH239898   1.766   3.398  11.886
 6136TIP3    H139899   1.781   3.368  11.975
 6136TIP3    H239900   1.677   3.432  11.886
 6137TIP3   OH239901   0.997   0.370  15.363
 6137TIP3    H139902   1.080   0.382  15.316
 6137TIP3    H239903   0.946   0.448  15.340
 6138TIP3   OH239904   1.795   0.424  12.953
 6138TIP3    H139905   1.762   0.347  12.999
 6138TIP3    H239906   1.720   0.454  12.901
 6139TIP3   OH239907   4.521   4.298   5.257
 6139TIP3    H139908   4.428   4.275   5.256
 6139TIP3    H239909   4.551   4.269   5.343
 6140TIP3   OH239910   1.465   0.747  12.189
 6140TIP3    H139911   1.526   0.800  12.239
 6140TIP3    H239912   1.380   0.791  12.200
 6141TIP3   OH239913   3.855   0.588   4.071
 6141TIP3    H139914   3.851   0.681   4.095
 6141TIP3    H239915   3.942   0.578   4.032
 6142TIP3   OH239916   5.683   1.784  11.637
 6142TIP3    H139917   5.622   1.710  11.638
 6142TIP3    H239918   5.674   1.821  11.549
 6143TIP3   OH239919   0.058   6.571  11.189
 6143TIP3    H139920   0.036   6.619  11.110
 6143TIP3    H239921   0.152   6.584  11.200
 6144TIP3   OH239922   2.002   1.006   4.898
 6144TIP3    H139923   1.920   1.052   4.915
 6144TIP3    H239924   1.980   0.943   4.829
 6145TIP3   OH239925   4.030   1.888  17.044
 6145TIP3    H139926   4.033   1.836  16.964
 6145TIP3    H239927   4.045   1.825  17.115
 6146TIP3   OH239928   5.575   2.540   0.259
 6146TIP3    H139929   5.627   2.535   0.339
 6146TIP3    H239930   5.485   2.522   0.288
 6147TIP3   OH239931   5.403   4.857   4.448
 6147TIP3    H139932   5.442   4.898   4.371
 6147TIP3    H239933   5.334   4.918   4.476
 6148TIP3   OH239934   2.866   5.190   4.600
 6148TIP3    H139935   2.941   5.140   4.568
 6148TIP3    H239936   2.880   5.278   4.565
 6149TIP3   OH239937   3.723   0.095  16.983
 6149TIP3    H139938   3.665   0.057  16.917
 6149TIP3    H239939   3.705   0.189  16.980
 6150TIP3   OH239940   4.141   5.320   0.725
 6150TIP3    H139941   4.099   5.234   0.713
 6150TIP3    H239942   4.190   5.311   0.807
 6151TIP3   OH239943   4.031   4.396  12.597
 6151TIP3    H139944   4.002   4.482  12.567
 6151TIP3    H239945   4.013   4.396  12.691
 6152TIP3   OH239946   1.395   3.453   2.473
 6152TIP3    H139947   1.304   3.423   2.472
 6152TIP3    H239948   1.413   3.473   2.565
 6153TIP3   OH239949   2.494   3.474  15.929
 6153TIP3    H139950   2.526   3.431  15.849
 6153TIP3    H239951   2.512   3.411  15.999
 6154TIP3   OH239952   0.462   1.395   3.752
 6154TIP3    H139953   0.387   1.439   3.793
 6154TIP3    H239954   0.490   1.456   3.684
 6155TIP3   OH239955   1.807   3.843   0.397
 6155TIP3    H139956   1.769   3.891   0.470
 6155TIP3    H239957   1.899   3.868   0.397
 6156TIP3   OH239958   0.501   0.077   4.768
 6156TIP3    H139959   0.574   0.021   4.794
 6156TIP3    H239960   0.519   0.160   4.811
 6157TIP3   OH239961   1.189   5.000  15.435
 6157TIP3    H139962   1.247   5.045  15.374
 6157TIP3    H239963   1.105   4.995  15.390
 6158TIP3   OH239964   1.489   3.711   2.909
 6158TIP3    H139965   1.425   3.748   2.970
 6158TIP3    H239966   1.527   3.787   2.864
 6159TIP3   OH239967   0.642   0.712  12.212
 6159TIP3    H139968   0.596   0.753  12.139
 6159TIP3    H239969   0.726   0.757  12.215
 6160TIP3   OH239970   6.232   3.613   0.864
 6160TIP3    H139971   6.192   3.561   0.795
 6160TIP3    H239972   6.166   3.678   0.886
 6161TIP3   OH239973   0.856   0.099  14.211
 6161TIP3    H139974   0.830   0.162  14.277
 6161TIP3    H239975   0.833   0.014  14.248
 6162TIP3   OH239976   2.988   0.007  14.765
 6162TIP3    H139977   3.075  -0.030  14.755
 6162TIP3    H239978   2.999   0.081  14.824
 6163TIP3   OH239979   0.215   4.958  12.998
 6163TIP3    H139980   0.135   4.957  13.049
 6163TIP3    H239981   0.281   4.920  13.056
 6164TIP3   OH239982   5.845   0.119  16.707
 6164TIP3    H139983   5.885   0.135  16.793
 6164TIP3    H239984   5.784   0.047  16.723
 6165TIP3   OH239985   3.131   1.011   5.955
 6165TIP3    H139986   3.219   1.017   5.990
 6165TIP3    H239987   3.134   0.938   5.893
 6166TIP3   OH239988   4.772   2.993  16.205
 6166TIP3    H139989   4.734   2.905  16.214
 6166TIP3    H239990   4.786   3.022  16.295
 6167TIP3   OH239991   1.269   6.710   4.447
 6167TIP3    H139992   1.245   6.743   4.360
 6167TIP3    H239993   1.291   6.788   4.497
 6168TIP3   OH239994   3.677   2.504   1.874
 6168TIP3    H139995   3.766   2.475   1.892
 6168TIP3    H239996   3.681   2.599   1.877
 6169TIP3   OH239997   2.308   4.599  13.036
 6169TIP3    H139998   2.281   4.683  13.072
 6169TIP3    H239999   2.260   4.592  12.953
 6170TIP3   OH240000   4.715   2.006  11.986
 6170TIP3    H140001   4.801   2.012  11.943
 6170TIP3    H240002   4.652   2.003  11.915
 6171TIP3   OH240003   6.433   1.133   1.730
 6171TIP3    H140004   6.393   1.207   1.776
 6171TIP3    H240005   6.389   1.131   1.645
 6172TIP3   OH240006   4.592   4.281   4.888
 6172TIP3    H140007   4.580   4.190   4.914
 6172TIP3    H240008   4.637   4.277   4.804
 6173TIP3   OH240009   4.557   5.193   3.250
 6173TIP3    H140010   4.544   5.213   3.343
 6173TIP3    H240011   4.650   5.212   3.235
 6174TIP3   OH240012   5.341   0.970  17.135
 6174TIP3    H140013   5.305   0.951  17.048
 6174TIP3    H240014   5.435   0.979  17.121
 6175TIP3   OH240015   6.250   4.119   0.516
 6175TIP3    H140016   6.209   4.081   0.594
 6175TIP3    H240017   6.339   4.085   0.516
 6176TIP3   OH240018   4.067   0.878   4.536
 6176TIP3    H140019   4.161   0.893   4.549
 6176TIP3    H240020   4.053   0.788   4.564
 6177TIP3   OH240021   2.567   0.928  14.990
 6177TIP3    H140022   2.542   0.840  14.960
 6177TIP3    H240023   2.497   0.985  14.958
 6178TIP3   OH240024   4.056   6.389  15.618
 6178TIP3    H140025   3.978   6.444  15.618
 6178TIP3    H240026   4.041   6.328  15.691
 6179TIP3   OH240027   6.081   4.446   2.283
 6179TIP3    H140028   6.064   4.540   2.280
 6179TIP3    H240029   6.060   4.421   2.373
 6180TIP3   OH240030   0.073   0.787  17.054
 6180TIP3    H140031   0.055   0.856  16.989
 6180TIP3    H240032   0.010   0.718  17.034
 6181TIP3   OH240033   3.249   1.505  14.008
 6181TIP3    H140034   3.186   1.549  14.065
 6181TIP3    H240035   3.265   1.421  14.050
 6182TIP3   OH240036   5.822   1.223  11.686
 6182TIP3    H140037   5.862   1.309  11.698
 6182TIP3    H240038   5.819   1.212  11.591
 6183TIP3   OH240039   4.863   4.308  16.458
 6183TIP3    H140040   4.934   4.326  16.520
 6183TIP3    H240041   4.783   4.319  16.510
 6184TIP3   OH240042   6.724   3.210   1.771
 6184TIP3    H140043   6.730   3.122   1.809
 6184TIP3    H240044   6.707   3.267   1.846
 6185TIP3   OH240045   6.324   2.192   5.615
 6185TIP3    H140046   6.362   2.210   5.529
 6185TIP3    H240047   6.279   2.108   5.604
 6186TIP3   OH240048   4.416   4.785  12.285
 6186TIP3    H140049   4.435   4.714  12.223
 6186TIP3    H240050   4.501   4.825  12.302
 6187TIP3   OH240051   3.050   3.853   4.734
 6187TIP3    H140052   3.074   3.761   4.740
 6187TIP3    H240053   3.118   3.898   4.785
 6188TIP3   OH240054   6.261   5.469  16.712
 6188TIP3    H140055   6.203   5.409  16.757
 6188TIP3    H240056   6.346   5.458  16.755
 6189TIP3   OH240057   6.509   3.666  15.450
 6189TIP3    H140058   6.601   3.649  15.430
 6189TIP3    H240059   6.469   3.684  15.365
 6190TIP3   OH240060   2.956   0.532  12.012
 6190TIP3    H140061   3.023   0.475  11.976
 6190TIP3    H240062   2.892   0.542  11.941
 6191TIP3   OH240063   0.705   5.527   1.951
 6191TIP3    H140064   0.648   5.597   1.983
 6191TIP3    H240065   0.791   5.547   1.987
 6192TIP3   OH240066   3.453   6.275  11.403
 6192TIP3    H140067   3.503   6.200  11.437
 6192TIP3    H240068   3.366   6.239  11.386
 6193TIP3   OH240069   2.665   4.042  13.975
 6193TIP3    H140070   2.620   3.957  13.969
 6193TIP3    H240071   2.745   4.029  13.925
 6194TIP3   OH240072   5.821   5.673  10.522
 6194TIP3    H140073   5.826   5.766  10.502
 6194TIP3    H240074   5.903   5.654  10.569
 6195TIP3   OH240075   3.423   0.070  14.092
 6195TIP3    H140076   3.450   0.047  14.181
 6195TIP3    H240077   3.373   0.151  14.103
 6196TIP3   OH240078   1.946   4.421   3.984
 6196TIP3    H140079   1.956   4.430   4.079
 6196TIP3    H240080   1.990   4.339   3.963
 6197TIP3   OH240081   4.424   0.970  13.199
 6197TIP3    H140082   4.486   0.924  13.256
 6197TIP3    H240083   4.369   1.019  13.259
 6198TIP3   OH240084   0.448   4.764  16.074
 6198TIP3    H140085   0.364   4.793  16.110
 6198TIP3    H240086   0.508   4.836  16.093
 6199TIP3   OH240087   3.199   6.674  17.043
 6199TIP3    H140088   3.192   6.581  17.068
 6199TIP3    H240089   3.245   6.715  17.116
 6200TIP3   OH240090   4.693   2.722  10.813
 6200TIP3    H140091   4.674   2.637  10.773
 6200TIP3    H240092   4.606   2.759  10.830
 6201TIP3   OH240093   3.867   1.818  12.614
 6201TIP3    H140094   3.821   1.760  12.554
 6201TIP3    H240095   3.959   1.790  12.609
 6202TIP3   OH240096   1.022   4.400  15.309
 6202TIP3    H140097   0.979   4.316  15.326
 6202TIP3    H240098   0.957   4.465  15.334
 6203TIP3   OH240099   1.455   3.487   2.759
 6203TIP3    H140100   1.487   3.575   2.779
 6203TIP3    H240101   1.365   3.486   2.790
 6204TIP3   OH240102   0.488   2.753   2.880
 6204TIP3    H140103   0.556   2.716   2.825
 6204TIP3    H240104   0.408   2.707   2.855
 6205TIP3   OH240105   5.149   3.169   1.130
 6205TIP3    H140106   5.076   3.145   1.072
 6205TIP3    H240107   5.215   3.206   1.072
 6206TIP3   OH240108   2.119   0.193   0.150
 6206TIP3    H140109   2.122   0.242   0.232
 6206TIP3    H240110   2.096   0.104   0.177
 6207TIP3   OH240111   6.206   2.290  10.325
 6207TIP3    H140112   6.248   2.363  10.278
 6207TIP3    H240113   6.278   2.231  10.346
 6208TIP3   OH240114   2.701   1.512  13.885
 6208TIP3    H140115   2.740   1.502  13.972
 6208TIP3    H240116   2.768   1.557  13.834
 6209TIP3   OH240117   2.885   4.176   3.657
 6209TIP3    H140118   2.796   4.171   3.692
 6209TIP3    H240119   2.908   4.269   3.664
 6210TIP3   OH240120   5.308   0.079  11.850
 6210TIP3    H140121   5.360   0.065  11.772
 6210TIP3    H240122   5.305   0.175  11.860
 6211TIP3   OH240123   3.265   5.919  16.683
 6211TIP3    H140124   3.229   5.859  16.618
 6211TIP3    H240125   3.213   5.999  16.673
 6212TIP3   OH240126   1.576   4.631   0.566
 6212TIP3    H140127   1.542   4.652   0.653
 6212TIP3    H240128   1.543   4.543   0.548
 6213TIP3   OH240129   4.423   3.746  12.859
 6213TIP3    H140130   4.372   3.669  12.834
 6213TIP3    H240131   4.358   3.815  12.872
 6214TIP3   OH240132   1.687   1.720  16.376
 6214TIP3    H140133   1.598   1.741  16.403
 6214TIP3    H240134   1.678   1.641  16.323
 6215TIP3   OH240135   0.377   0.971  15.813
 6215TIP3    H140136   0.321   1.047  15.795
 6215TIP3    H240137   0.461   0.995  15.773
 6216TIP3   OH240138   2.260   3.153  16.655
 6216TIP3    H140139   2.318   3.099  16.601
 6216TIP3    H240140   2.235   3.095  16.727
 6217TIP3   OH240141   0.352   1.219  14.213
 6217TIP3    H140142   0.439   1.226  14.250
 6217TIP3    H240143   0.345   1.129  14.183
 6218TIP3   OH240144   2.418   4.266   0.655
 6218TIP3    H140145   2.386   4.187   0.699
 6218TIP3    H240146   2.361   4.276   0.579
 6219TIP3   OH240147   1.269   5.969  14.668
 6219TIP3    H140148   1.193   5.963  14.610
 6219TIP3    H240149   1.232   5.976  14.756
 6220TIP3   OH240150   5.115   4.670  16.306
 6220TIP3    H140151   5.151   4.654  16.218
 6220TIP3    H240152   5.150   4.755  16.331
 6221TIP3   OH240153   0.515   3.562  12.608
 6221TIP3    H140154   0.470   3.493  12.559
 6221TIP3    H240155   0.446   3.625  12.629
 6222TIP3   OH240156   0.159   1.728  16.546
 6222TIP3    H140157   0.160   1.670  16.470
 6222TIP3    H240158   0.085   1.787  16.530
 6223TIP3   OH240159   2.885   2.203   3.822
 6223TIP3    H140160   2.852   2.247   3.744
 6223TIP3    H240161   2.977   2.229   3.827
 6224TIP3   OH240162   3.973   6.587  11.110
 6224TIP3    H140163   3.966   6.519  11.043
 6224TIP3    H240164   3.972   6.670  11.062
 6225TIP3   OH240165   2.388   1.525   5.680
 6225TIP3    H140166   2.435   1.478   5.611
 6225TIP3    H240167   2.419   1.615   5.674
 6226TIP3   OH240168   2.192   6.473   3.352
 6226TIP3    H140169   2.271   6.460   3.404
 6226TIP3    H240170   2.163   6.561   3.376
 6227TIP3   OH240171   0.057   5.816  12.482
 6227TIP3    H140172   0.021   5.754  12.545
 6227TIP3    H240173   0.129   5.859  12.529
 6228TIP3   OH240174   6.691   0.540   4.566
 6228TIP3    H140175   6.729   0.577   4.647
 6228TIP3    H240176   6.723   0.450   4.564
 6229TIP3   OH240177   6.671   0.113   0.272
 6229TIP3    H140178   6.690   0.036   0.218
 6229TIP3    H240179   6.667   0.080   0.361
 6230TIP3   OH240180   1.801   4.721  12.365
 6230TIP3    H140181   1.765   4.654  12.423
 6230TIP3    H240182   1.849   4.780  12.424
 6231TIP3   OH240183   0.324   4.185   1.958
 6231TIP3    H140184   0.390   4.116   1.964
 6231TIP3    H240185   0.325   4.210   1.865
 6232TIP3   OH240186   0.805   5.758  16.344
 6232TIP3    H140187   0.724   5.809  16.342
 6232TIP3    H240188   0.871   5.818  16.378
 6233TIP3   OH240189   1.805   1.371   4.403
 6233TIP3    H140190   1.772   1.355   4.314
 6233TIP3    H240191   1.896   1.397   4.391
 6234TIP3   OH240192   2.646   1.219  12.149
 6234TIP3    H140193   2.570   1.162  12.160
 6234TIP3    H240194   2.712   1.162  12.109
 6235TIP3   OH240195   4.898   3.930  14.177
 6235TIP3    H140196   4.974   3.938  14.119
 6235TIP3    H240197   4.899   3.839  14.206
 6236TIP3   OH240198   1.076   0.150   6.518
 6236TIP3    H140199   1.055   0.118   6.606
 6236TIP3    H240200   1.124   0.077   6.477
 6237TIP3   OH240201   1.433   4.128   1.995
 6237TIP3    H140202   1.408   4.037   1.976
 6237TIP3    H240203   1.529   4.125   2.002
 6238TIP3   OH240204   3.036   4.995  15.930
 6238TIP3    H140205   2.964   4.958  15.880
 6238TIP3    H240206   3.066   4.923  15.986
 6239TIP3   OH240207   0.846   5.491  14.246
 6239TIP3    H140208   0.805   5.508  14.331
 6239TIP3    H240209   0.939   5.484  14.265
 6240TIP3   OH240210   1.850   0.942   3.188
 6240TIP3    H140211   1.774   0.985   3.229
 6240TIP3    H240212   1.910   1.014   3.168
 6241TIP3   OH240213   6.583   0.003  17.008
 6241TIP3    H140214   6.554   0.069  17.071
 6241TIP3    H240215   6.503  -0.046  16.988
 6242TIP3   OH240216   1.905   6.307   4.846
 6242TIP3    H140217   1.950   6.230   4.881
 6242TIP3    H240218   1.847   6.271   4.778
 6243TIP3   OH240219   1.551   3.267  13.638
 6243TIP3    H140220   1.499   3.316  13.574
 6243TIP3    H240221   1.503   3.185  13.650
 6244TIP3   OH240222   3.551   0.971  14.472
 6244TIP3    H140223   3.476   1.004  14.422
 6244TIP3    H240224   3.542   0.875  14.467
 6245TIP3   OH240225   0.907   2.393  14.638
 6245TIP3    H140226   0.993   2.433  14.624
 6245TIP3    H240227   0.900   2.386  14.733
 6246TIP3   OH240228   6.142   2.917   5.826
 6246TIP3    H140229   6.136   2.843   5.765
 6246TIP3    H240230   6.071   2.975   5.801
 6247TIP3   OH240231   3.872   1.760  14.109
 6247TIP3    H140232   3.820   1.835  14.137
 6247TIP3    H240233   3.897   1.781  14.019
 6248TIP3   OH240234   3.687   3.451  11.642
 6248TIP3    H140235   3.625   3.415  11.578
 6248TIP3    H240236   3.764   3.395  11.635
 6249TIP3   OH240237   2.559   4.282   3.955
 6249TIP3    H140238   2.588   4.306   4.043
 6249TIP3    H240239   2.518   4.361   3.920
 6250TIP3   OH240240   4.171   5.761  11.478
 6250TIP3    H140241   4.185   5.697  11.547
 6250TIP3    H240242   4.149   5.842  11.525
 6251TIP3   OH240243   0.110   2.748   5.691
 6251TIP3    H140244   0.065   2.699   5.622
 6251TIP3    H240245   0.109   2.691   5.767
 6252TIP3   OH240246   1.628   2.215   5.250
 6252TIP3    H140247   1.572   2.240   5.176
 6252TIP3    H240248   1.635   2.294   5.303
 6253TIP3   OH240249   3.911   5.168   1.207
 6253TIP3    H140250   3.879   5.091   1.160
 6253TIP3    H240251   3.926   5.234   1.138
 6254TIP3   OH240252   5.687   1.210   6.432
 6254TIP3    H140253   5.672   1.304   6.427
 6254TIP3    H240254   5.624   1.178   6.496
 6255TIP3   OH240255   2.015   2.142   5.720
 6255TIP3    H140256   2.029   2.106   5.808
 6255TIP3    H240257   2.101   2.177   5.695
 6256TIP3   OH240258   6.746   5.606  11.140
 6256TIP3    H140259   6.740   5.606  11.236
 6256TIP3    H240260   6.659   5.580  11.110
 6257TIP3   OH240261   5.181   6.546   5.415
 6257TIP3    H140262   5.253   6.495   5.379
 6257TIP3    H240263   5.213   6.575   5.501
 6258TIP3   OH240264   3.194   4.813  12.444
 6258TIP3    H140265   3.238   4.733  12.470
 6258TIP3    H240266   3.265   4.876  12.428
 6259TIP3   OH240267   6.613   2.882  14.673
 6259TIP3    H140268   6.700   2.908  14.703
 6259TIP3    H240269   6.562   2.871  14.754
 6260TIP3   OH240270   4.819   6.685   2.062
 6260TIP3    H140271   4.770   6.768   2.067
 6260TIP3    H240272   4.807   6.646   2.149
 6261TIP3   OH240273   3.119   0.054  15.687
 6261TIP3    H140274   3.162   0.121  15.739
 6261TIP3    H240275   3.176   0.041  15.611
 6262TIP3   OH240276   1.913   0.416  14.234
 6262TIP3    H140277   1.996   0.392  14.273
 6262TIP3    H240278   1.932   0.498  14.187
 6263TIP3   OH240279   4.130   2.551   4.615
 6263TIP3    H140280   4.078   2.630   4.625
 6263TIP3    H240281   4.200   2.575   4.555
 6264TIP3   OH240282   3.538   3.031   4.736
 6264TIP3    H140283   3.580   3.014   4.651
 6264TIP3    H240284   3.488   2.951   4.754
 6265TIP3   OH240285   4.482   4.900  10.941
 6265TIP3    H140286   4.418   4.966  10.917
 6265TIP3    H240287   4.565   4.933  10.905
 6266TIP3   OH240288   3.933   2.396   5.611
 6266TIP3    H140289   3.924   2.484   5.648
 6266TIP3    H240290   3.849   2.379   5.568
 6267TIP3   OH240291   0.640   1.995  16.201
 6267TIP3    H140292   0.688   2.050  16.139
 6267TIP3    H240293   0.682   1.909  16.194
 6268TIP3   OH240294   3.187   3.231  12.167
 6268TIP3    H140295   3.124   3.296  12.197
 6268TIP3    H240296   3.217   3.264  12.083
 6269TIP3   OH240297   6.593   5.436  14.283
 6269TIP3    H140298   6.545   5.354  14.298
 6269TIP3    H240299   6.685   5.412  14.291
 6270TIP3   OH240300   6.017   3.083   2.280
 6270TIP3    H140301   5.934   3.128   2.297
 6270TIP3    H240302   6.005   2.996   2.316
 6271TIP3   OH240303   0.939   0.576  16.272
 6271TIP3    H140304   0.945   0.547  16.363
 6271TIP3    H240305   0.948   0.495  16.221
 6272TIP3   OH240306   0.780   3.353  14.775
 6272TIP3    H140307   0.699   3.404  14.778
 6272TIP3    H240308   0.846   3.408  14.817
 6273TIP3   OH240309   2.905   5.285  15.615
 6273TIP3    H140310   2.936   5.253  15.530
 6273TIP3    H240311   2.986   5.309  15.662
 6274TIP3   OH240312   2.025   2.362   4.614
 6274TIP3    H140313   1.955   2.339   4.675
 6274TIP3    H240314   2.094   2.297   4.630
 6275TIP3   OH240315   1.370   4.942  13.024
 6275TIP3    H140316   1.350   4.920  13.115
 6275TIP3    H240317   1.403   5.032  13.028
 6276TIP3   OH240318   5.233   6.608   0.562
 6276TIP3    H140319   5.205   6.520   0.588
 6276TIP3    H240320   5.151   6.658   0.557
 6277TIP3   OH240321   5.449   2.750   6.387
 6277TIP3    H140322   5.460   2.829   6.439
 6277TIP3    H240323   5.392   2.694   6.441
 6278TIP3   OH240324   1.260   0.260   2.364
 6278TIP3    H140325   1.274   0.192   2.299
 6278TIP3    H240326   1.166   0.259   2.381
 6279TIP3   OH240327   6.394   2.615  13.177
 6279TIP3    H140328   6.424   2.705  13.180
 6279TIP3    H240329   6.430   2.581  13.095
 6280TIP3   OH240330   5.185   3.027  15.790
 6280TIP3    H140331   5.154   3.117  15.806
 6280TIP3    H240332   5.117   2.989  15.734
 6281TIP3   OH240333   5.140   5.793   4.624
 6281TIP3    H140334   5.159   5.741   4.702
 6281TIP3    H240335   5.076   5.858   4.652
 6282TIP3   OH240336   4.460   4.202   1.651
 6282TIP3    H140337   4.525   4.244   1.707
 6282TIP3    H240338   4.456   4.257   1.573
 6283TIP3   OH240339   2.461   3.708   5.248
 6283TIP3    H140340   2.478   3.614   5.258
 6283TIP3    H240341   2.525   3.737   5.183
 6284TIP3   OH240342   3.969   1.306  15.938
 6284TIP3    H140343   3.977   1.304  16.033
 6284TIP3    H240344   3.956   1.398  15.917
 6285TIP3   OH240345   6.811   0.765  15.643
 6285TIP3    H140346   6.745   0.806  15.587
 6285TIP3    H240347   6.827   0.829  15.712
 6286TIP3   OH240348   0.803   0.228   3.992
 6286TIP3    H140349   0.825   0.320   4.010
 6286TIP3    H240350   0.774   0.193   4.076
 6287TIP3   OH240351   2.519   0.864  14.653
 6287TIP3    H140352   2.469   0.943  14.674
 6287TIP3    H240353   2.467   0.820  14.586
 6288TIP3   OH240354   5.285   5.088   1.960
 6288TIP3    H140355   5.213   5.112   2.018
 6288TIP3    H240356   5.292   5.162   1.899
 6289TIP3   OH240357   1.563   1.410  15.210
 6289TIP3    H140358   1.648   1.445  15.237
 6289TIP3    H240359   1.500   1.473  15.246
 6290TIP3   OH240360   5.637   0.065  12.754
 6290TIP3    H140361   5.607   0.079  12.664
 6290TIP3    H240362   5.702   0.134  12.768
 6291TIP3   OH240363   1.145   0.608   7.129
 6291TIP3    H140364   1.142   0.513   7.138
 6291TIP3    H240365   1.197   0.623   7.050
 6292TIP3   OH240366   3.727   5.106  11.530
 6292TIP3    H140367   3.762   5.179  11.479
 6292TIP3    H240368   3.633   5.106  11.509
 6293TIP3   OH240369   0.204   2.231  16.683
 6293TIP3    H140370   0.246   2.314  16.663
 6293TIP3    H240371   0.125   2.230  16.628
 6294TIP3   OH240372   0.100   4.881  15.661
 6294TIP3    H140373   0.164   4.921  15.603
 6294TIP3    H240374   0.030   4.851  15.602
 6295TIP3   OH240375   2.744   4.458  15.747
 6295TIP3    H140376   2.665   4.477  15.799
 6295TIP3    H240377   2.801   4.410  15.807
 6296TIP3   OH240378   0.369   1.631  16.931
 6296TIP3    H140379   0.394   1.655  16.842
 6296TIP3    H240380   0.422   1.554  16.952
 6297TIP3   OH240381   5.989   3.055  14.188
 6297TIP3    H140382   5.929   2.985  14.162
 6297TIP3    H240383   5.983   3.058  14.283
 6298TIP3   OH240384   5.378   0.228   5.568
 6298TIP3    H140385   5.321   0.155   5.540
 6298TIP3    H240386   5.317   0.296   5.596
 6299TIP3   OH240387   6.768   2.057  12.175
 6299TIP3    H140388   6.773   1.979  12.120
 6299TIP3    H240389   6.687   2.100  12.149
 6300TIP3   OH240390   0.721   1.585  16.966
 6300TIP3    H140391   0.643   1.528  16.967
 6300TIP3    H240392   0.759   1.576  17.053
 6301TIP3   OH240393   1.509   6.620   2.717
 6301TIP3    H140394   1.498   6.540   2.665
 6301TIP3    H240395   1.475   6.597   2.803
 6302TIP3   OH240396   1.483   6.512  12.945
 6302TIP3    H140397   1.447   6.439  12.994
 6302TIP3    H240398   1.518   6.473  12.865
 6303TIP3   OH240399   1.397   5.466  15.982
 6303TIP3    H140400   1.357   5.523  15.916
 6303TIP3    H240401   1.491   5.469  15.961
 6304TIP3   OH240402   3.890   6.108   3.783
 6304TIP3    H140403   3.935   6.156   3.715
 6304TIP3    H240404   3.819   6.062   3.737
 6305TIP3   OH240405   2.197   5.262  10.903
 6305TIP3    H140406   2.281   5.288  10.941
 6305TIP3    H240407   2.206   5.280  10.809
 6306TIP3   OH240408   0.312   0.680  12.559
 6306TIP3    H140409   0.334   0.732  12.482
 6306TIP3    H240410   0.349   0.593  12.540
 6307TIP3   OH240411   2.463   4.796  11.886
 6307TIP3    H140412   2.543   4.835  11.920
 6307TIP3    H240413   2.417   4.764  11.964
 6308TIP3   OH240414   4.049   1.032   3.738
 6308TIP3    H140415   4.024   0.976   3.811
 6308TIP3    H240416   4.051   1.120   3.775
 6309TIP3   OH240417   2.267   2.461   0.162
 6309TIP3    H140418   2.326   2.449   0.089
 6309TIP3    H240419   2.231   2.374   0.179
 6310TIP3   OH240420   6.370   5.259   6.129
 6310TIP3    H140421   6.297   5.260   6.191
 6310TIP3    H240422   6.437   5.204   6.171
 6311TIP3   OH240423   2.365   2.600  15.003
 6311TIP3    H140424   2.306   2.635  14.936
 6311TIP3    H240425   2.416   2.533  14.957
 6312TIP3   OH240426   4.173   0.746  11.570
 6312TIP3    H140427   4.145   0.678  11.508
 6312TIP3    H240428   4.255   0.780  11.533
 6313TIP3   OH240429   2.395   0.795  15.676
 6313TIP3    H140430   2.483   0.831  15.682
 6313TIP3    H240431   2.347   0.836  15.748
 6314TIP3   OH240432   0.346   2.766   0.711
 6314TIP3    H140433   0.394   2.840   0.748
 6314TIP3    H240434   0.339   2.704   0.783
 6315TIP3   OH240435   3.308   0.724  11.393
 6315TIP3    H140436   3.267   0.746  11.309
 6315TIP3    H240437   3.361   0.800  11.415
 6316TIP3   OH240438   5.621   3.767  10.964
 6316TIP3    H140439   5.707   3.792  10.931
 6316TIP3    H240440   5.564   3.840  10.940
 6317TIP3   OH240441   3.594   1.140  13.581
 6317TIP3    H140442   3.655   1.186  13.524
 6317TIP3    H240443   3.636   1.143  13.667
 6318TIP3   OH240444   4.745   3.596   1.691
 6318TIP3    H140445   4.777   3.683   1.716
 6318TIP3    H240446   4.687   3.612   1.617
 6319TIP3   OH240447   0.408   3.819   4.414
 6319TIP3    H140448   0.365   3.896   4.453
 6319TIP3    H240449   0.409   3.754   4.485
 6320TIP3   OH240450   4.973   2.095  12.927
 6320TIP3    H140451   5.041   2.105  12.860
 6320TIP3    H240452   4.992   2.011  12.968
 6321TIP3   OH240453   2.418   1.304   0.772
 6321TIP3    H140454   2.422   1.281   0.679
 6321TIP3    H240455   2.325   1.322   0.788
 6322TIP3   OH240456   0.712   0.722  10.681
 6322TIP3    H140457   0.705   0.703  10.775
 6322TIP3    H240458   0.771   0.796  10.675
 6323TIP3   OH240459   2.307   4.561   2.490
 6323TIP3    H140460   2.281   4.591   2.577
 6323TIP3    H240461   2.403   4.563   2.492
 6324TIP3   OH240462   1.277   5.180  15.894
 6324TIP3    H140463   1.257   5.242  15.963
 6324TIP3    H240464   1.216   5.107  15.908
 6325TIP3   OH240465   4.425   4.614  16.368
 6325TIP3    H140466   4.465   4.559  16.301
 6325TIP3    H240467   4.414   4.556  16.443
 6326TIP3   OH240468   6.339   3.385  12.670
 6326TIP3    H140469   6.264   3.435  12.704
 6326TIP3    H240470   6.395   3.452  12.629
 6327TIP3   OH240471   1.432   1.640  15.273
 6327TIP3    H140472   1.353   1.592  15.298
 6327TIP3    H240473   1.405   1.732  15.273
 6328TIP3   OH240474   6.593   3.735  11.994
 6328TIP3    H140475   6.549   3.776  11.919
 6328TIP3    H240476   6.622   3.650  11.961
 6329TIP3   OH240477   0.894   6.116  15.481
 6329TIP3    H140478   0.809   6.159  15.475
 6329TIP3    H240479   0.957   6.188  15.489
 6330TIP3   OH240480   0.742   3.090  11.726
 6330TIP3    H140481   0.836   3.093  11.708
 6330TIP3    H240482   0.707   3.167  11.683
 6331TIP3   OH240483   5.862   2.382  13.230
 6331TIP3    H140484   5.885   2.367  13.139
 6331TIP3    H240485   5.923   2.328  13.280
 6332TIP3   OH240486   3.275   2.199   1.953
 6332TIP3    H140487   3.205   2.252   1.990
 6332TIP3    H240488   3.351   2.256   1.954
 6333TIP3   OH240489   4.685   4.946   3.003
 6333TIP3    H140490   4.591   4.951   3.023
 6333TIP3    H240491   4.691   4.890   2.926
 6334TIP3   OH240492   2.301   6.643  16.563
 6334TIP3    H140493   2.233   6.576  16.564
 6334TIP3    H240494   2.347   6.632  16.646
 6335TIP3   OH240495   0.574   0.445  12.150
 6335TIP3    H140496   0.623   0.523  12.173
 6335TIP3    H240497   0.561   0.451  12.056
 6336TIP3   OH240498   5.670   6.175   4.768
 6336TIP3    H140499   5.634   6.238   4.830
 6336TIP3    H240500   5.594   6.129   4.733
 6337TIP3   OH240501   5.206   1.977   3.418
 6337TIP3    H140502   5.260   1.906   3.383
 6337TIP3    H240503   5.269   2.039   3.455
 6338TIP3   OH240504   0.673   0.537   3.730
 6338TIP3    H140505   0.655   0.631   3.736
 6338TIP3    H240506   0.691   0.523   3.637
 6339TIP3   OH240507   3.032   6.801  13.993
 6339TIP3    H140508   3.021   6.873  14.055
 6339TIP3    H240509   2.969   6.819  13.924
 6340TIP3   OH240510   5.536   5.462   3.289
 6340TIP3    H140511   5.616   5.502   3.255
 6340TIP3    H240512   5.500   5.527   3.349
 6341TIP3   OH240513   1.436   1.364   3.181
 6341TIP3    H140514   1.509   1.372   3.118
 6341TIP3    H240515   1.449   1.437   3.242
 6342TIP3   OH240516   2.798   4.650  15.571
 6342TIP3    H140517   2.775   4.585  15.637
 6342TIP3    H240518   2.766   4.613  15.489
 6343TIP3   OH240519   0.226   5.182   3.103
 6343TIP3    H140520   0.218   5.126   3.026
 6343TIP3    H240521   0.251   5.123   3.174
 6344TIP3   OH240522   1.442   1.743  16.258
 6344TIP3    H140523   1.403   1.819  16.215
 6344TIP3    H240524   1.430   1.671  16.195
 6345TIP3   OH240525   6.794   4.813   1.716
 6345TIP3    H140526   6.713   4.771   1.687
 6345TIP3    H240527   6.772   4.851   1.801
 6346TIP3   OH240528   1.840   4.951  12.037
 6346TIP3    H140529   1.777   4.884  12.011
 6346TIP3    H240530   1.786   5.024  12.070
 6347TIP3   OH240531   6.759   2.074   1.423
 6347TIP3    H140532   6.701   2.134   1.470
 6347TIP3    H240533   6.797   2.019   1.492
 6348TIP3   OH240534   3.696   4.253  12.672
 6348TIP3    H140535   3.778   4.253  12.722
 6348TIP3    H240536   3.725   4.252  12.580
 6349TIP3   OH240537   2.970   3.825  15.667
 6349TIP3    H140538   3.008   3.761  15.727
 6349TIP3    H240539   2.931   3.773  15.597
 6350TIP3   OH240540   3.817   0.595  11.421
 6350TIP3    H140541   3.826   0.552  11.336
 6350TIP3    H240542   3.725   0.619  11.426
 6351TIP3   OH240543   6.296   3.400  16.797
 6351TIP3    H140544   6.283   3.306  16.785
 6351TIP3    H240545   6.210   3.433  16.823
 6352TIP3   OH240546   3.117   5.117  10.712
 6352TIP3    H140547   3.094   5.074  10.794
 6352TIP3    H240548   3.079   5.062  10.644
 6353TIP3   OH240549   4.023   3.961   2.739
 6353TIP3    H140550   3.944   3.995   2.781
 6353TIP3    H240551   4.095   4.001   2.787
 6354TIP3   OH240552   0.448   0.408  16.844
 6354TIP3    H140553   0.379   0.373  16.788
 6354TIP3    H240554   0.410   0.411  16.931
 6355TIP3   OH240555   0.170   3.673  12.445
 6355TIP3    H140556   0.097   3.723  12.409
 6355TIP3    H240557   0.134   3.586  12.461
 6356TIP3   OH240558   5.846   4.274  11.652
 6356TIP3    H140559   5.908   4.317  11.593
 6356TIP3    H240560   5.805   4.346  11.700
 6357TIP3   OH240561   4.241   3.473   3.862
 6357TIP3    H140562   4.221   3.418   3.787
 6357TIP3    H240563   4.335   3.461   3.876
 6358TIP3   OH240564   5.538   3.102   4.049
 6358TIP3    H140565   5.610   3.042   4.031
 6358TIP3    H240566   5.492   3.063   4.123
 6359TIP3   OH240567   2.168   0.290   5.198
 6359TIP3    H140568   2.123   0.315   5.117
 6359TIP3    H240569   2.139   0.355   5.262
 6360TIP3   OH240570   1.390   0.361  14.380
 6360TIP3    H140571   1.485   0.351  14.382
 6360TIP3    H240572   1.363   0.323  14.296
 6361TIP3   OH240573   2.475   5.424  11.320
 6361TIP3    H140574   2.550   5.365  11.327
 6361TIP3    H240575   2.403   5.368  11.290
 6362TIP3   OH240576   4.450   0.697   2.821
 6362TIP3    H140577   4.476   0.652   2.741
 6362TIP3    H240578   4.514   0.768   2.830
 6363TIP3   OH240579   1.463   1.890  11.906
 6363TIP3    H140580   1.390   1.863  11.963
 6363TIP3    H240581   1.477   1.982  11.928
 6364TIP3   OH240582   0.262   2.971  17.029
 6364TIP3    H140583   0.241   2.917  17.105
 6364TIP3    H240584   0.311   3.044  17.064
 6365TIP3   OH240585   2.733   1.759  16.247
 6365TIP3    H140586   2.700   1.809  16.172
 6365TIP3    H240587   2.770   1.680  16.208
 6366TIP3   OH240588   1.817   3.584  12.661
 6366TIP3    H140589   1.808   3.489  12.668
 6366TIP3    H240590   1.812   3.601  12.567
 6367TIP3   OH240591   1.841   4.126   5.225
 6367TIP3    H140592   1.900   4.201   5.220
 6367TIP3    H240593   1.900   4.050   5.228
 6368TIP3   OH240594   3.315   6.550   3.299
 6368TIP3    H140595   3.255   6.496   3.350
 6368TIP3    H240596   3.283   6.639   3.311
 6369TIP3   OH240597   3.391   1.578   0.938
 6369TIP3    H140598   3.432   1.555   1.022
 6369TIP3    H240599   3.307   1.616   0.962
 6370TIP3   OH240600   4.577   5.599  16.183
 6370TIP3    H140601   4.603   5.519  16.227
 6370TIP3    H240602   4.521   5.645  16.247
 6371TIP3   OH240603   1.385   5.747  12.143
 6371TIP3    H140604   1.296   5.751  12.177
 6371TIP3    H240605   1.439   5.734  12.221
 6372TIP3   OH240606   0.997   4.555   4.712
 6372TIP3    H140607   0.968   4.465   4.699
 6372TIP3    H240608   0.922   4.600   4.750
 6373TIP3   OH240609   0.775   3.333  13.067
 6373TIP3    H140610   0.795   3.265  13.131
 6373TIP3    H240611   0.680   3.341  13.070
 6374TIP3   OH240612   0.339   0.341  17.105
 6374TIP3    H140613   0.265   0.386  17.145
 6374TIP3    H240614   0.364   0.274  17.169
 6375TIP3   OH240615   1.295   5.660  16.674
 6375TIP3    H140616   1.322   5.706  16.753
 6375TIP3    H240617   1.214   5.615  16.700
 6376TIP3   OH240618   5.175   4.588   1.579
 6376TIP3    H140619   5.189   4.498   1.606
 6376TIP3    H240620   5.097   4.616   1.627
 6377TIP3   OH240621   4.150   5.767  11.922
 6377TIP3    H140622   4.115   5.856  11.930
 6377TIP3    H240623   4.233   5.770  11.969
 6378TIP3   OH240624   4.607   2.125   3.292
 6378TIP3    H140625   4.680   2.181   3.265
 6378TIP3    H240626   4.529   2.171   3.260
 6379TIP3   OH240627   3.981   1.521  14.215
 6379TIP3    H140628   3.942   1.478  14.291
 6379TIP3    H240629   3.934   1.604  14.207
 6380TIP3   OH240630   5.644   5.466   5.476
 6380TIP3    H140631   5.648   5.499   5.565
 6380TIP3    H240632   5.566   5.410   5.474
 6381TIP3   OH240633   6.270   6.072   3.168
 6381TIP3    H140634   6.227   5.989   3.189
 6381TIP3    H240635   6.224   6.136   3.222
 6382TIP3   OH240636   6.363   2.055   3.239
 6382TIP3    H140637   6.451   2.018   3.231
 6382TIP3    H240638   6.339   2.080   3.149
 6383TIP3   OH240639   1.350   5.815   0.561
 6383TIP3    H140640   1.404   5.892   0.576
 6383TIP3    H240641   1.292   5.839   0.489
 6384TIP3   OH240642   6.816   3.956   3.430
 6384TIP3    H140643   6.859   4.030   3.473
 6384TIP3    H240644   6.803   3.985   3.339
 6385TIP3   OH240645   2.701   0.414   3.586
 6385TIP3    H140646   2.639   0.437   3.518
 6385TIP3    H240647   2.780   0.463   3.565
 6386TIP3   OH240648   3.115   1.859   1.242
 6386TIP3    H140649   3.054   1.849   1.315
 6386TIP3    H240650   3.127   1.953   1.233
 6387TIP3   OH240651   3.387   1.732   4.794
 6387TIP3    H140652   3.460   1.676   4.767
 6387TIP3    H240653   3.427   1.812   4.826
 6388TIP3   OH240654   4.744   3.883   0.446
 6388TIP3    H140655   4.836   3.873   0.470
 6388TIP3    H240656   4.747   3.916   0.356
 6389TIP3   OH240657   2.872   4.591   5.691
 6389TIP3    H140658   2.865   4.497   5.710
 6389TIP3    H240659   2.822   4.603   5.610
 6390TIP3   OH240660   6.192   1.553   1.286
 6390TIP3    H140661   6.265   1.576   1.229
 6390TIP3    H240662   6.156   1.473   1.249
 6391TIP3   OH240663   0.389   1.406   0.369
 6391TIP3    H140664   0.455   1.339   0.354
 6391TIP3    H240665   0.358   1.430   0.282
 6392TIP3   OH240666   3.970   6.220   5.776
 6392TIP3    H140667   4.026   6.166   5.721
 6392TIP3    H240668   3.935   6.287   5.717
 6393TIP3   OH240669   4.773   1.902  14.545
 6393TIP3    H140670   4.719   1.966  14.591
 6393TIP3    H240671   4.732   1.818  14.565
 6394TIP3   OH240672   3.685   5.093   2.761
 6394TIP3    H140673   3.780   5.108   2.766
 6394TIP3    H240674   3.647   5.168   2.807
 6395TIP3   OH240675   3.605   6.738  14.900
 6395TIP3    H140676   3.555   6.749  14.981
 6395TIP3    H240677   3.663   6.664  14.918
 6396TIP3   OH240678   0.301   2.548   4.160
 6396TIP3    H140679   0.362   2.531   4.088
 6396TIP3    H240680   0.338   2.624   4.205
 6397TIP3   OH240681   5.725   6.749  14.369
 6397TIP3    H140682   5.697   6.751  14.460
 6397TIP3    H240683   5.654   6.705  14.323
 6398TIP3   OH240684   4.330   4.814   2.897
 6398TIP3    H140685   4.309   4.862   2.977
 6398TIP3    H240686   4.249   4.770   2.873
 6399TIP3   OH240687   4.813   0.627   5.042
 6399TIP3    H140688   4.904   0.648   5.064
 6399TIP3    H240689   4.796   0.675   4.961
 6400TIP3   OH240690   4.733   3.379   4.295
 6400TIP3    H140691   4.671   3.306   4.286
 6400TIP3    H240692   4.686   3.454   4.258
 6401TIP3   OH240693   0.972   1.276   1.752
 6401TIP3    H140694   1.055   1.274   1.704
 6401TIP3    H240695   0.907   1.300   1.686
 6402TIP3   OH240696   5.855   4.165   6.096
 6402TIP3    H140697   5.824   4.207   6.177
 6402TIP3    H240698   5.867   4.073   6.120
 6403TIP3   OH240699   5.433   3.757   3.747
 6403TIP3    H140700   5.352   3.802   3.771
 6403TIP3    H240701   5.490   3.767   3.823
 6404TIP3   OH240702   2.172   1.946   4.228
 6404TIP3    H140703   2.130   2.004   4.291
 6404TIP3    H240704   2.184   2.001   4.150
 6405TIP3   OH240705   4.329   6.003   5.140
 6405TIP3    H140706   4.417   6.023   5.172
 6405TIP3    H240707   4.336   5.915   5.102
 6406TIP3   OH240708   0.639   2.058  16.477
 6406TIP3    H140709   0.650   1.972  16.518
 6406TIP3    H240710   0.639   2.040  16.383
 6407TIP3   OH240711   1.272   4.415   0.361
 6407TIP3    H140712   1.267   4.506   0.393
 6407TIP3    H240713   1.345   4.377   0.410
 6408TIP3   OH240714   4.638   0.475   6.214
 6408TIP3    H140715   4.586   0.532   6.271
 6408TIP3    H240716   4.701   0.433   6.273
 6409TIP3   OH240717   0.049   6.023  11.393
 6409TIP3    H140718   0.084   6.093  11.339
 6409TIP3    H240719   0.089   5.943  11.359
 6410TIP3   OH240720   2.394   0.780   6.650
 6410TIP3    H140721   2.320   0.728   6.620
 6410TIP3    H240722   2.401   0.851   6.586
 6411TIP3   OH240723   0.782   3.189  16.802
 6411TIP3    H140724   0.814   3.128  16.735
 6411TIP3    H240725   0.861   3.214  16.850
 6412TIP3   OH240726   0.189   6.171   3.660
 6412TIP3    H140727   0.247   6.117   3.715
 6412TIP3    H240728   0.218   6.260   3.676
 6413TIP3   OH240729   2.703   3.440   0.739
 6413TIP3    H140730   2.630   3.383   0.713
 6413TIP3    H240731   2.760   3.385   0.791
 6414TIP3   OH240732   0.245   0.054   6.413
 6414TIP3    H140733   0.317   0.084   6.470
 6414TIP3    H240734   0.175   0.030   6.473
 6415TIP3   OH240735   6.534   0.809  15.847
 6415TIP3    H140736   6.593   0.815  15.922
 6415TIP3    H240737   6.592   0.793  15.772
 6416TIP3   OH240738   3.992   4.744  14.717
 6416TIP3    H140739   3.959   4.753  14.806
 6416TIP3    H240740   3.919   4.770  14.661
 6417TIP3   OH240741   2.477   5.924   1.816
 6417TIP3    H140742   2.421   5.990   1.858
 6417TIP3    H240743   2.424   5.845   1.814
 6418TIP3   OH240744   0.841   1.398  11.819
 6418TIP3    H140745   0.772   1.389  11.885
 6418TIP3    H240746   0.802   1.362  11.739
 6419TIP3   OH240747   4.487   2.375   5.935
 6419TIP3    H140748   4.433   2.441   5.890
 6419TIP3    H240749   4.489   2.301   5.874
 6420TIP3   OH240750   4.071   0.608  14.808
 6420TIP3    H140751   4.037   0.681  14.757
 6420TIP3    H240752   4.102   0.649  14.889
 6421TIP3   OH240753   0.633   0.804  16.046
 6421TIP3    H140754   0.596   0.876  16.097
 6421TIP3    H240755   0.604   0.821  15.956
 6422TIP3   OH240756   4.460   3.362   1.977
 6422TIP3    H140757   4.510   3.439   1.947
 6422TIP3    H240758   4.503   3.288   1.933
 6423TIP3   OH240759   2.137   4.701  10.270
 6423TIP3    H140760   2.216   4.736  10.229
 6423TIP3    H240761   2.169   4.650  10.344
 6424TIP3   OH240762   6.407   3.960  16.174
 6424TIP3    H140763   6.338   3.966  16.239
 6424TIP3    H240764   6.397   3.872  16.136
 6425TIP3   OH240765   4.781   1.281  14.153
 6425TIP3    H140766   4.821   1.302  14.069
 6425TIP3    H240767   4.848   1.231  14.200
 6426TIP3   OH240768   5.247   1.808  11.970
 6426TIP3    H140769   5.212   1.816  11.881
 6426TIP3    H240770   5.192   1.866  12.023
 6427TIP3   OH240771   2.487   0.682   3.360
 6427TIP3    H140772   2.522   0.675   3.449
 6427TIP3    H240773   2.426   0.609   3.353
 6428TIP3   OH240774   1.603   1.266  14.965
 6428TIP3    H140775   1.584   1.335  15.029
 6428TIP3    H240776   1.548   1.192  14.993
 6429TIP3   OH240777   5.233   1.691  13.474
 6429TIP3    H140778   5.153   1.679  13.525
 6429TIP3    H240779   5.203   1.689  13.383
 6430TIP3   OH240780   1.424   4.199   4.001
 6430TIP3    H140781   1.404   4.130   3.937
 6430TIP3    H240782   1.344   4.207   4.053
 6431TIP3   OH240783   6.257   5.815  12.143
 6431TIP3    H140784   6.167   5.792  12.165
 6431TIP3    H240785   6.278   5.888  12.201
 6432TIP3   OH240786   4.118   1.742   6.165
 6432TIP3    H140787   4.106   1.647   6.167
 6432TIP3    H240788   4.194   1.756   6.109
 6433TIP3   OH240789   1.065   0.456   4.557
 6433TIP3    H140790   0.988   0.499   4.595
 6433TIP3    H240791   1.134   0.523   4.559
 6434TIP3   OH240792   3.222   2.130   0.351
 6434TIP3    H140793   3.147   2.153   0.406
 6434TIP3    H240794   3.298   2.155   0.403
 6435TIP3   OH240795   4.748   2.398   4.009
 6435TIP3    H140796   4.752   2.364   3.920
 6435TIP3    H240797   4.822   2.359   4.054
 6436TIP3   OH240798   6.738   1.792  12.857
 6436TIP3    H140799   6.746   1.750  12.771
 6436TIP3    H240800   6.655   1.758  12.891
 6437TIP3   OH240801   0.844   5.497   2.874
 6437TIP3    H140802   0.901   5.433   2.916
 6437TIP3    H240803   0.904   5.556   2.829
 6438TIP3   OH240804   4.543   0.840   3.943
 6438TIP3    H140805   4.550   0.892   4.022
 6438TIP3    H240806   4.567   0.751   3.970
 6439TIP3   OH240807   3.194   2.936  11.008
 6439TIP3    H140808   3.112   2.910  10.967
 6439TIP3    H240809   3.256   2.942  10.935
 6440TIP3   OH240810   3.121   1.837  15.944
 6440TIP3    H140811   3.178   1.908  15.914
 6440TIP3    H240812   3.090   1.795  15.864
 6441TIP3   OH240813   0.509   4.328   5.982
 6441TIP3    H140814   0.568   4.307   5.910
 6441TIP3    H240815   0.443   4.259   5.981
 6442TIP3   OH240816   0.585   5.723   6.137
 6442TIP3    H140817   0.669   5.679   6.146
 6442TIP3    H240818   0.534   5.692   6.212
 6443TIP3   OH240819   1.415   4.607   3.232
 6443TIP3    H140820   1.333   4.641   3.198
 6443TIP3    H240821   1.457   4.682   3.273
 6444TIP3   OH240822   5.406   2.870  10.935
 6444TIP3    H140823   5.327   2.859  10.882
 6444TIP3    H240824   5.380   2.930  11.005
 6445TIP3   OH240825   6.339   1.570   1.048
 6445TIP3    H140826   6.303   1.527   0.970
 6445TIP3    H240827   6.335   1.664   1.028
 6446TIP3   OH240828   4.670   0.555  16.120
 6446TIP3    H140829   4.693   0.480  16.065
 6446TIP3    H240830   4.753   0.580  16.162
 6447TIP3   OH240831   3.366   0.035   3.514
 6447TIP3    H140832   3.417   0.042   3.594
 6447TIP3    H240833   3.348  -0.059   3.505
 6448TIP3   OH240834   0.469   4.652  16.696
 6448TIP3    H140835   0.387   4.672  16.651
 6448TIP3    H240836   0.514   4.589  16.638
 6449TIP3   OH240837   4.536   3.372   1.062
 6449TIP3    H140838   4.554   3.466   1.065
 6449TIP3    H240839   4.544   3.349   0.970
 6450TIP3   OH240840   0.613   4.381   2.797
 6450TIP3    H140841   0.676   4.423   2.739
 6450TIP3    H240842   0.667   4.329   2.857
 6451TIP3   OH240843   5.690   4.364   4.336
 6451TIP3    H140844   5.730   4.417   4.267
 6451TIP3    H240845   5.732   4.394   4.417
 6452TIP3   OH240846   2.763   0.600  11.832
 6452TIP3    H140847   2.763   0.640  11.745
 6452TIP3    H240848   2.692   0.536  11.829
 6453TIP3   OH240849   6.302   6.246  15.498
 6453TIP3    H140850   6.372   6.216  15.556
 6453TIP3    H240851   6.347   6.276  15.419
 6454TIP3   OH240852   2.472   6.022  14.490
 6454TIP3    H140853   2.491   5.929  14.496
 6454TIP3    H240854   2.432   6.044  14.574
 6455TIP3   OH240855   6.421   2.309  13.029
 6455TIP3    H140856   6.492   2.284  12.970
 6455TIP3    H240857   6.438   2.261  13.109
 6456TIP3   OH240858   3.156   2.562  15.908
 6456TIP3    H140859   3.096   2.553  15.834
 6456TIP3    H240860   3.099   2.587  15.981
 6457TIP3   OH240861   4.512   3.410   3.891
 6457TIP3    H140862   4.598   3.426   3.852
 6457TIP3    H240863   4.514   3.317   3.917
 6458TIP3   OH240864   6.811   4.712   1.395
 6458TIP3    H140865   6.735   4.672   1.437
 6458TIP3    H240866   6.801   4.692   1.302
 6459TIP3   OH240867   4.017   6.303  16.082
 6459TIP3    H140868   3.963   6.278  16.007
 6459TIP3    H240869   3.992   6.394  16.099
 6460TIP3   OH240870   4.912   2.655  12.079
 6460TIP3    H140871   4.971   2.687  12.148
 6460TIP3    H240872   4.968   2.601  12.023
 6461TIP3   OH240873   3.876   4.339  12.032
 6461TIP3    H140874   3.867   4.426  11.994
 6461TIP3    H240875   3.952   4.346  12.091
 6462TIP3   OH240876   4.154   0.155  12.985
 6462TIP3    H140877   4.242   0.143  13.021
 6462TIP3    H240878   4.118   0.066  12.983
 6463TIP3   OH240879   6.758   4.265  13.293
 6463TIP3    H140880   6.702   4.216  13.353
 6463TIP3    H240881   6.725   4.242  13.206
 6464TIP3   OH240882   2.713   2.589   5.660
 6464TIP3    H140883   2.632   2.577   5.710
 6464TIP3    H240884   2.765   2.512   5.680
 6465TIP3   OH240885   5.614   4.163  11.709
 6465TIP3    H140886   5.698   4.168  11.663
 6465TIP3    H240887   5.616   4.080  11.755
 6466TIP3   OH240888   1.447   5.353   0.908
 6466TIP3    H140889   1.382   5.423   0.907
 6466TIP3    H240890   1.445   5.319   0.997
 6467TIP3   OH240891   1.028   0.484  14.910
 6467TIP3    H140892   0.948   0.492  14.961
 6467TIP3    H240893   1.048   0.390  14.909
 6468TIP3   OH240894   4.265   5.346  16.725
 6468TIP3    H140895   4.248   5.253  16.737
 6468TIP3    H240896   4.309   5.373  16.806
 6469TIP3   OH240897   6.231   5.201   3.440
 6469TIP3    H140898   6.202   5.273   3.496
 6469TIP3    H240899   6.165   5.133   3.454
 6470TIP3   OH240900   0.979   3.331   3.272
 6470TIP3    H140901   1.037   3.257   3.291
 6470TIP3    H240902   0.985   3.387   3.350
 6471TIP3   OH240903   1.831   4.638  12.948
 6471TIP3    H140904   1.805   4.549  12.924
 6471TIP3    H240905   1.896   4.626  13.017
 6472TIP3   OH240906   4.221   3.148  16.736
 6472TIP3    H140907   4.149   3.192  16.783
 6472TIP3    H240908   4.190   3.058  16.725
 6473TIP3   OH240909   4.510   2.418  15.851
 6473TIP3    H140910   4.575   2.412  15.921
 6473TIP3    H240911   4.514   2.334  15.807
 6474TIP3   OH240912   1.768   0.427  15.782
 6474TIP3    H140913   1.673   0.430  15.773
 6474TIP3    H240914   1.787   0.477  15.861
 6475TIP3   OH240915   0.206   3.343   5.569
 6475TIP3    H140916   0.113   3.359   5.553
 6475TIP3    H240917   0.208   3.276   5.637
 6476TIP3   OH240918   1.650   1.491  13.453
 6476TIP3    H140919   1.668   1.504  13.546
 6476TIP3    H240920   1.624   1.399  13.446
 6477TIP3   OH240921   0.449   0.675   6.478
 6477TIP3    H140922   0.542   0.693   6.490
 6477TIP3    H240923   0.435   0.590   6.521
 6478TIP3   OH240924   6.785   2.027  11.128
 6478TIP3    H140925   6.842   2.084  11.077
 6478TIP3    H240926   6.753   1.963  11.065
 6479TIP3   OH240927   0.669   3.367   0.502
 6479TIP3    H140928   0.672   3.298   0.436
 6479TIP3    H240929   0.690   3.447   0.454
 6480TIP3   OH240930   1.775   5.331  12.837
 6480TIP3    H140931   1.794   5.278  12.914
 6480TIP3    H240932   1.857   5.331  12.787
 6481TIP3   OH240933   5.667   1.756   0.657
 6481TIP3    H140934   5.588   1.726   0.612
 6481TIP3    H240935   5.712   1.676   0.683
 6482TIP3   OH240936   3.290   4.941   1.838
 6482TIP3    H140937   3.233   4.871   1.870
 6482TIP3    H240938   3.339   4.902   1.766
 6483TIP3   OH240939   5.714   3.973  11.167
 6483TIP3    H140940   5.698   4.009  11.080
 6483TIP3    H240941   5.744   3.884  11.151
 6484TIP3   OH240942   1.031   5.575  16.711
 6484TIP3    H140943   0.974   5.630  16.765
 6484TIP3    H240944   1.007   5.597  16.621
 6485TIP3   OH240945   1.378   4.200  15.690
 6485TIP3    H140946   1.449   4.264  15.679
 6485TIP3    H240947   1.349   4.212  15.781
 6486TIP3   OH240948   2.439   0.090   6.023
 6486TIP3    H140949   2.483   0.033   6.086
 6486TIP3    H240950   2.348   0.059   6.022
 6487TIP3   OH240951   2.651   6.145   1.149
 6487TIP3    H140952   2.620   6.073   1.204
 6487TIP3    H240953   2.611   6.128   1.063
 6488TIP3   OH240954   1.090   3.477   1.971
 6488TIP3    H140955   1.044   3.527   2.039
 6488TIP3    H240956   1.123   3.400   2.016
 6489TIP3   OH240957   4.303   2.890  13.656
 6489TIP3    H140958   4.292   2.931  13.570
 6489TIP3    H240959   4.396   2.898  13.674
 6490TIP3   OH240960   6.068   3.654  16.818
 6490TIP3    H140961   6.071   3.583  16.882
 6490TIP3    H240962   6.066   3.734  16.872
 6491TIP3   OH240963   6.433   2.699  14.326
 6491TIP3    H140964   6.469   2.675  14.411
 6491TIP3    H240965   6.363   2.761  14.346
 6492TIP3   OH240966   4.581   5.800  12.964
 6492TIP3    H140967   4.580   5.809  12.868
 6492TIP3    H240968   4.637   5.871  12.994
 6493TIP3   OH240969   3.369   5.704  14.663
 6493TIP3    H140970   3.327   5.727  14.580
 6493TIP3    H240971   3.462   5.697  14.642
 6494TIP3   OH240972   5.010   4.418  13.852
 6494TIP3    H140973   5.100   4.386  13.862
 6494TIP3    H240974   4.956   4.350  13.893
 6495TIP3   OH240975   0.672   0.466   4.629
 6495TIP3    H140976   0.640   0.412   4.557
 6495TIP3    H240977   0.684   0.404   4.701
 6496TIP3   OH240978   2.462   5.615   4.018
 6496TIP3    H140979   2.433   5.700   3.984
 6496TIP3    H240980   2.522   5.582   3.952
 6497TIP3   OH240981   2.689   6.233  12.443
 6497TIP3    H140982   2.634   6.252  12.519
 6497TIP3    H240983   2.671   6.303  12.381
 6498TIP3   OH240984   3.755   6.231  11.332
 6498TIP3    H140985   3.754   6.145  11.374
 6498TIP3    H240986   3.835   6.273  11.365
 6499TIP3   OH240987   5.627   3.939  14.364
 6499TIP3    H140988   5.664   3.977  14.284
 6499TIP3    H240989   5.595   3.853  14.337
 6500TIP3   OH240990   0.187   0.557   1.087
 6500TIP3    H140991   0.101   0.526   1.116
 6500TIP3    H240992   0.169   0.645   1.052
 6501TIP3   OH240993   1.642   5.536  15.879
 6501TIP3    H140994   1.710   5.597  15.909
 6501TIP3    H240995   1.610   5.574  15.797
 6502TIP3   OH240996   1.001   2.412   0.186
 6502TIP3    H140997   1.010   2.317   0.185
 6502TIP3    H240998   1.088   2.445   0.163
 6503TIP3   OH240999   6.440   2.536   6.351
 6503TIP3    H141000   6.496   2.459   6.361
 6503TIP3    H241001   6.408   2.530   6.261
 6504TIP3   OH241002   0.793   6.493  15.460
 6504TIP3    H141003   0.812   6.528  15.373
 6504TIP3    H241004   0.753   6.408  15.443
 6505TIP3   OH241005   2.712   4.162  16.774
 6505TIP3    H141006   2.657   4.231  16.811
 6505TIP3    H241007   2.655   4.085  16.773
 6506TIP3   OH241008   2.830   5.832  13.959
 6506TIP3    H141009   2.778   5.890  13.902
 6506TIP3    H241010   2.765   5.787  14.012
 6507TIP3   OH241011   3.545   2.979  16.992
 6507TIP3    H141012   3.523   2.903  17.046
 6507TIP3    H241013   3.462   3.027  16.983
 6508TIP3   OH241014   1.200   4.948  12.450
 6508TIP3    H141015   1.270   4.957  12.385
 6508TIP3    H241016   1.245   4.917  12.529
 6509TIP3   OH241017   5.563   4.822  11.491
 6509TIP3    H141018   5.491   4.871  11.450
 6509TIP3    H241019   5.628   4.889  11.511
 6510TIP3   OH241020   5.275   5.522   2.461
 6510TIP3    H141021   5.239   5.513   2.549
 6510TIP3    H241022   5.204   5.562   2.410
 6511TIP3   OH241023   2.179   5.075   1.783
 6511TIP3    H141024   2.228   5.016   1.726
 6511TIP3    H241025   2.126   5.127   1.723
 6512TIP3   OH241026   1.307   6.485   1.983
 6512TIP3    H141027   1.278   6.553   1.922
 6512TIP3    H241028   1.240   6.484   2.052
 6513TIP3   OH241029   1.812   0.602  12.349
 6513TIP3    H141030   1.847   0.642  12.429
 6513TIP3    H241031   1.862   0.643  12.278
 6514TIP3   OH241032   3.866   2.312   6.590
 6514TIP3    H141033   3.859   2.250   6.517
 6514TIP3    H241034   3.864   2.398   6.548
 6515TIP3   OH241035   3.297   5.109  16.121
 6515TIP3    H141036   3.384   5.123  16.084
 6515TIP3    H241037   3.250   5.191  16.106
 6516TIP3   OH241038   1.665   2.165   4.205
 6516TIP3    H141039   1.587   2.172   4.149
 6516TIP3    H241040   1.633   2.182   4.294
 6517TIP3   OH241041   6.068   2.458   4.538
 6517TIP3    H141042   6.034   2.374   4.569
 6517TIP3    H241043   6.132   2.436   4.471
 6518TIP3   OH241044   5.864   3.075  12.359
 6518TIP3    H141045   5.781   3.069  12.406
 6518TIP3    H241046   5.882   3.169  12.355
 6519TIP3   OH241047   2.595   4.279  13.705
 6519TIP3    H141048   2.564   4.190  13.686
 6519TIP3    H241049   2.623   4.313  13.620
 6520TIP3   OH241050   0.547   3.293  11.503
 6520TIP3    H141051   0.507   3.367  11.458
 6520TIP3    H241052   0.631   3.279  11.458
 6521TIP3   OH241053   1.491   6.664  17.151
 6521TIP3    H141054   1.545   6.605  17.205
 6521TIP3    H241055   1.401   6.636  17.168
 6522TIP3   OH241056   4.577   0.711  15.097
 6522TIP3    H141057   4.553   0.740  15.185
 6522TIP3    H241058   4.586   0.616  15.104
 6523TIP3   OH241059   4.901   1.831  16.563
 6523TIP3    H141060   4.969   1.827  16.630
 6523TIP3    H241061   4.918   1.755  16.507
 6524TIP3   OH241062   4.101   5.028   3.511
 6524TIP3    H141063   4.035   5.017   3.443
 6524TIP3    H241064   4.185   5.016   3.465
 6525TIP3   OH241065   4.305   2.369  14.404
 6525TIP3    H141066   4.309   2.273  14.414
 6525TIP3    H241067   4.396   2.397  14.413
 6526TIP3   OH241068   3.843   6.440   5.645
 6526TIP3    H141069   3.756   6.399   5.650
 6526TIP3    H241070   3.839   6.512   5.707
 6527TIP3   OH241071   4.953   5.994   3.461
 6527TIP3    H141072   4.975   6.064   3.523
 6527TIP3    H241073   4.859   6.002   3.447
 6528TIP3   OH241074   3.245   0.717   1.332
 6528TIP3    H141075   3.257   0.693   1.424
 6528TIP3    H241076   3.263   0.636   1.284
 6529TIP3   OH241077   0.468   3.542  17.164
 6529TIP3    H141078   0.489   3.510  17.252
 6529TIP3    H241079   0.379   3.577  17.171
 6530TIP3   OH241080   6.769   5.732   2.452
 6530TIP3    H141081   6.847   5.780   2.480
 6530TIP3    H241082   6.710   5.735   2.527
 6531TIP3   OH241083   0.526   5.043   2.400
 6531TIP3    H141084   0.451   5.060   2.343
 6531TIP3    H241085   0.507   5.092   2.480
 6532TIP3   OH241086   1.918   0.961   3.544
 6532TIP3    H141087   1.973   1.032   3.575
 6532TIP3    H241088   1.917   0.971   3.449
 6533TIP3   OH241089   0.501   0.781  15.363
 6533TIP3    H141090   0.484   0.718  15.434
 6533TIP3    H241091   0.448   0.857  15.387
 6534TIP3   OH241092   6.688   1.525   5.284
 6534TIP3    H141093   6.777   1.522   5.321
 6534TIP3    H241094   6.678   1.441   5.238
 6535TIP3   OH241095   1.295   1.560   3.390
 6535TIP3    H141096   1.388   1.560   3.367
 6535TIP3    H241097   1.262   1.643   3.356
 6536TIP3   OH241098   5.182   4.104  14.793
 6536TIP3    H141099   5.131   4.085  14.714
 6536TIP3    H241100   5.117   4.130  14.858
 6537TIP3   OH241101   3.941   3.110  12.276
 6537TIP3    H141102   3.914   3.168  12.347
 6537TIP3    H241103   3.860   3.065  12.251
 6538TIP3   OH241104   6.686   5.261   2.837
 6538TIP3    H141105   6.605   5.264   2.887
 6538TIP3    H241106   6.698   5.168   2.816
 6539TIP3   OH241107   2.414   1.902   0.214
 6539TIP3    H141108   2.358   1.861   0.147
 6539TIP3    H241109   2.470   1.962   0.164
 6540TIP3   OH241110   3.058   2.150   4.754
 6540TIP3    H141111   3.104   2.073   4.788
 6540TIP3    H241112   2.978   2.115   4.714
 6541TIP3   OH241113   2.032   6.462  11.717
 6541TIP3    H141114   1.949   6.487  11.676
 6541TIP3    H241115   2.092   6.448  11.644
 6542TIP3   OH241116   1.086   3.403   1.699
 6542TIP3    H141117   1.089   3.448   1.783
 6542TIP3    H241118   1.177   3.397   1.671
 6543TIP3   OH241119   1.088   1.244   4.041
 6543TIP3    H141120   1.167   1.208   4.081
 6543TIP3    H241121   1.109   1.336   4.025
 6544TIP3   OH241122   5.491   6.524   2.582
 6544TIP3    H141123   5.439   6.496   2.658
 6544TIP3    H241124   5.540   6.600   2.613
 6545TIP3   OH241125   4.168   5.903  11.012
 6545TIP3    H141126   4.213   5.818  11.010
 6545TIP3    H241127   4.075   5.881  11.000
 6546TIP3   OH241128   5.101   4.575  11.125
 6546TIP3    H141129   5.013   4.543  11.106
 6546TIP3    H241130   5.115   4.557  11.218
 6547TIP3   OH241131   6.259   6.404   2.113
 6547TIP3    H141132   6.233   6.496   2.107
 6547TIP3    H241133   6.266   6.387   2.206
 6548TIP3   OH241134   1.066   5.120   4.458
 6548TIP3    H141135   1.088   5.027   4.460
 6548TIP3    H241136   0.998   5.130   4.525
 6549TIP3   OH241137   0.636   2.655  17.169
 6549TIP3    H141138   0.573   2.725  17.190
 6549TIP3    H241139   0.597   2.576  17.205
 6550TIP3   OH241140   3.370   0.239  14.911
 6550TIP3    H141141   3.443   0.271  14.858
 6550TIP3    H241142   3.345   0.313  14.966
 6551TIP3   OH241143   1.499   5.037  15.614
 6551TIP3    H141144   1.416   5.040  15.660
 6551TIP3    H241145   1.535   5.125  15.624
 6552TIP3   OH241146   6.548   3.901  11.300
 6552TIP3    H141147   6.464   3.896  11.345
 6552TIP3    H241148   6.584   3.986  11.326
 6553TIP3   OH241149   4.831   1.970  15.758
 6553TIP3    H141150   4.838   2.063  15.735
 6553TIP3    H241151   4.786   1.970  15.843
 6554TIP3   OH241152   3.151   1.656   1.022
 6554TIP3    H141153   3.135   1.722   1.090
 6554TIP3    H241154   3.119   1.696   0.941
 6555TIP3   OH241155   2.966   4.821  12.591
 6555TIP3    H141156   3.047   4.837  12.543
 6555TIP3    H241157   2.994   4.800  12.680
 6556TIP3   OH241158   2.145   4.607  12.487
 6556TIP3    H141159   2.087   4.648  12.423
 6556TIP3    H241160   2.209   4.558  12.435
 6557TIP3   OH241161   2.505   5.127   2.628
 6557TIP3    H141162   2.428   5.175   2.659
 6557TIP3    H241163   2.472   5.039   2.608
 6558TIP3   OH241164   2.540   2.856   2.586
 6558TIP3    H141165   2.539   2.809   2.502
 6558TIP3    H241166   2.572   2.943   2.565
 6559TIP3   OH241167   1.469   5.192  11.104
 6559TIP3    H141168   1.435   5.158  11.022
 6559TIP3    H241169   1.465   5.118  11.164
 6560TIP3   OH241170   3.624   1.807  12.002
 6560TIP3    H141171   3.621   1.807  12.097
 6560TIP3    H241172   3.598   1.719  11.977
 6561TIP3   OH241173   2.767   6.189   5.368
 6561TIP3    H141174   2.836   6.225   5.423
 6561TIP3    H241175   2.798   6.102   5.343
 6562TIP3   OH241176   2.353   6.257  10.537
 6562TIP3    H141177   2.364   6.342  10.495
 6562TIP3    H241178   2.418   6.255  10.606
 6563TIP3   OH241179   5.481   0.295  15.855
 6563TIP3    H141180   5.522   0.240  15.788
 6563TIP3    H241181   5.505   0.253  15.938
 6564TIP3   OH241182   3.167   0.192   5.833
 6564TIP3    H141183   3.149   0.100   5.853
 6564TIP3    H241184   3.084   0.237   5.853
 6565TIP3   OH241185   2.740   5.546  16.316
 6565TIP3    H141186   2.723   5.637  16.339
 6565TIP3    H241187   2.835   5.541  16.306
 6566TIP3   OH241188   1.755   1.425   1.554
 6566TIP3    H141189   1.741   1.400   1.462
 6566TIP3    H241190   1.850   1.433   1.562
 6567TIP3   OH241191   4.254   6.565   2.289
 6567TIP3    H141192   4.344   6.567   2.321
 6567TIP3    H241193   4.262   6.561   2.194
 6568TIP3   OH241194   6.400   4.711   6.346
 6568TIP3    H141195   6.353   4.786   6.384
 6568TIP3    H241196   6.461   4.684   6.414
 6569TIP3   OH241197   5.839   3.131  17.007
 6569TIP3    H141198   5.932   3.113  16.997
 6569TIP3    H241199   5.811   3.073  17.078
 6570TIP3   OH241200   4.588   1.126   4.552
 6570TIP3    H141201   4.674   1.159   4.524
 6570TIP3    H241202   4.564   1.182   4.626
 6571TIP3   OH241203   4.303   3.807  14.915
 6571TIP3    H141204   4.315   3.817  14.821
 6571TIP3    H241205   4.239   3.736  14.924
 6572TIP3   OH241206   4.024   0.030   1.894
 6572TIP3    H141207   4.094  -0.035   1.897
 6572TIP3    H241208   4.003   0.047   1.986
 6573TIP3   OH241209   0.142   1.918   2.435
 6573TIP3    H141210   0.224   1.966   2.446
 6573TIP3    H241211   0.092   1.970   2.371
 6574TIP3   OH241212   5.223   2.457   1.445
 6574TIP3    H141213   5.264   2.370   1.445
 6574TIP3    H241214   5.190   2.468   1.534
 6575TIP3   OH241215   6.096   1.656   5.261
 6575TIP3    H141216   6.130   1.573   5.294
 6575TIP3    H241217   6.082   1.709   5.339
 6576TIP3   OH241218   5.135   4.842  15.691
 6576TIP3    H141219   5.159   4.823  15.600
 6576TIP3    H241220   5.130   4.757  15.733
 6577TIP3   OH241221   5.662   4.092   5.433
 6577TIP3    H141222   5.700   4.149   5.367
 6577TIP3    H241223   5.622   4.151   5.497
 6578TIP3   OH241224   4.470   1.230   1.262
 6578TIP3    H141225   4.406   1.159   1.264
 6578TIP3    H241226   4.524   1.211   1.185
 6579TIP3   OH241227   5.152   3.580   1.305
 6579TIP3    H141228   5.100   3.595   1.226
 6579TIP3    H241229   5.165   3.485   1.308
 6580TIP3   OH241230   5.065   2.897   0.389
 6580TIP3    H141231   5.002   2.888   0.318
 6580TIP3    H241232   5.013   2.895   0.469
 6581TIP3   OH241233   5.348   0.580  14.647
 6581TIP3    H141234   5.326   0.503  14.698
 6581TIP3    H241235   5.429   0.557  14.602
 6582TIP3   OH241236   4.898   1.866   3.092
 6582TIP3    H141237   4.927   1.858   3.001
 6582TIP3    H241238   4.879   1.959   3.103
 6583TIP3   OH241239   3.629   4.044   6.701
 6583TIP3    H141240   3.675   4.128   6.698
 6583TIP3    H241241   3.697   3.978   6.691
 6584TIP3   OH241242   2.717   2.740  13.228
 6584TIP3    H141243   2.674   2.798  13.291
 6584TIP3    H241244   2.687   2.771  13.143
 6585TIP3   OH241245   0.408   4.125   0.658
 6585TIP3    H141246   0.421   4.060   0.589
 6585TIP3    H241247   0.454   4.203   0.627
 6586TIP3   OH241248   3.869   4.718   2.593
 6586TIP3    H141249   3.867   4.801   2.545
 6586TIP3    H241250   3.779   4.687   2.592
 6587TIP3   OH241251   2.343   3.364   2.858
 6587TIP3    H141252   2.347   3.410   2.942
 6587TIP3    H241253   2.332   3.272   2.882
 6588TIP3   OH241254   0.932   3.604   2.164
 6588TIP3    H141255   0.973   3.668   2.222
 6588TIP3    H241256   0.848   3.644   2.141
 6589TIP3   OH241257   3.240   2.148   6.198
 6589TIP3    H141258   3.178   2.205   6.244
 6589TIP3    H241259   3.209   2.060   6.216
 6590TIP3   OH241260   6.139   3.452   2.763
 6590TIP3    H141261   6.049   3.453   2.730
 6590TIP3    H241262   6.176   3.536   2.733
 6591TIP3   OH241263   0.017   2.027  13.792
 6591TIP3    H141264   0.077   2.079  13.738
 6591TIP3    H241265   0.074   1.985  13.857
 6592TIP3   OH241266   1.080   3.936  13.215
 6592TIP3    H141267   0.994   3.935  13.255
 6592TIP3    H241268   1.141   3.935  13.289
 6593TIP3   OH241269   4.329   2.677  16.310
 6593TIP3    H141270   4.342   2.680  16.404
 6593TIP3    H241271   4.414   2.698  16.272
 6594TIP3   OH241272   5.702   6.555  13.730
 6594TIP3    H141273   5.702   6.498  13.653
 6594TIP3    H241274   5.787   6.540  13.771
 6595TIP3   OH241275   5.769   6.353  14.611
 6595TIP3    H141276   5.815   6.393  14.536
 6595TIP3    H241277   5.693   6.409  14.626
 6596TIP3   OH241278   3.265   5.648   5.939
 6596TIP3    H141279   3.202   5.594   5.892
 6596TIP3    H241280   3.236   5.646   6.030
 6597TIP3   OH241281   4.911   3.369  15.604
 6597TIP3    H141282   4.895   3.462  15.618
 6597TIP3    H241283   4.870   3.326  15.680
 6598TIP3   OH241284   0.481   3.722  14.536
 6598TIP3    H141285   0.454   3.653  14.475
 6598TIP3    H241286   0.510   3.675  14.614
 6599TIP3   OH241287   0.859   1.890   2.465
 6599TIP3    H141288   0.847   1.797   2.447
 6599TIP3    H241289   0.776   1.930   2.440
 6600TIP3   OH241290   4.899   1.150   0.265
 6600TIP3    H141291   4.986   1.121   0.290
 6600TIP3    H241292   4.886   1.114   0.177
 6601TIP3   OH241293   4.498   3.165   0.817
 6601TIP3    H141294   4.559   3.145   0.746
 6601TIP3    H241295   4.544   3.139   0.896
 6602TIP3   OH241296   4.539   5.878   5.016
 6602TIP3    H141297   4.569   5.941   4.949
 6602TIP3    H241298   4.577   5.795   4.989
 6603TIP3   OH241299   2.091   3.902   3.265
 6603TIP3    H141300   2.024   3.834   3.266
 6603TIP3    H241301   2.122   3.907   3.355
 6604TIP3   OH241302   2.865   3.970  17.249
 6604TIP3    H141303   2.777   3.966  17.210
 6604TIP3    H241304   2.901   4.053  17.217
 6605TIP3   OH241305   2.301   2.186  17.253
 6605TIP3    H141306   2.300   2.172  17.348
 6605TIP3    H241307   2.384   2.148  17.224
 6606TIP3   OH241308   1.731   2.642  15.228
 6606TIP3    H141309   1.651   2.679  15.265
 6606TIP3    H241310   1.749   2.565  15.281
 6607TIP3   OH241311   1.900   3.899  13.494
 6607TIP3    H141312   1.847   3.909  13.573
 6607TIP3    H241313   1.903   3.986  13.455
 6608TIP3   OH241314   5.843   4.523  16.698
 6608TIP3    H141315   5.926   4.564  16.724
 6608TIP3    H241316   5.776   4.579  16.738
 6609TIP3   OH241317   6.412   1.737   2.209
 6609TIP3    H141318   6.415   1.660   2.265
 6609TIP3    H241319   6.401   1.810   2.270
 6610TIP3   OH241320   1.527   3.959  12.198
 6610TIP3    H141321   1.435   3.970  12.222
 6610TIP3    H241322   1.540   3.864  12.193
 6611TIP3   OH241323   3.952   1.636  15.885
 6611TIP3    H141324   3.958   1.590  15.801
 6611TIP3    H241325   4.024   1.698  15.884
 6612TIP3   OH241326   1.104   6.462   0.414
 6612TIP3    H141327   1.164   6.408   0.466
 6612TIP3    H241328   1.159   6.501   0.346
 6613TIP3   OH241329   6.635   5.761   6.688
 6613TIP3    H141330   6.542   5.772   6.709
 6613TIP3    H241331   6.662   5.847   6.656
 6614TIP3   OH241332   3.083   5.433   0.627
 6614TIP3    H141333   3.065   5.473   0.712
 6614TIP3    H241334   3.102   5.508   0.570
 6615TIP3   OH241335   4.624   3.948   1.361
 6615TIP3    H141336   4.599   4.039   1.350
 6615TIP3    H241337   4.570   3.900   1.299
 6616TIP3   OH241338   5.047   5.316  16.726
 6616TIP3    H141339   5.081   5.402  16.750
 6616TIP3    H241340   4.953   5.321  16.745
 6617TIP3   OH241341   6.520   2.186  11.037
 6617TIP3    H141342   6.574   2.113  11.069
 6617TIP3    H241343   6.508   2.167  10.944
 6618TIP3   OH241344   2.250   0.088  13.837
 6618TIP3    H141345   2.180   0.037  13.795
 6618TIP3    H241346   2.217   0.178  13.837
 6619TIP3   OH241347   0.644   6.595   6.502
 6619TIP3    H141348   0.649   6.691   6.499
 6619TIP3    H241349   0.735   6.567   6.507
 6620TIP3   OH241350   3.913   0.057  15.063
 6620TIP3    H141351   3.842   0.028  15.120
 6620TIP3    H241352   3.966   0.115  15.117
 6621TIP3   OH241353   6.645   3.915  16.799
 6621TIP3    H141354   6.554   3.920  16.828
 6621TIP3    H241355   6.697   3.935  16.876
 6622TIP3   OH241356   4.248   4.621   3.193
 6622TIP3    H141357   4.274   4.572   3.115
 6622TIP3    H241358   4.196   4.694   3.160
 6623TIP3   OH241359   2.420   3.840   1.484
 6623TIP3    H141360   2.424   3.820   1.577
 6623TIP3    H241361   2.365   3.919   1.479
 6624TIP3   OH241362   5.202   3.165   5.772
 6624TIP3    H141363   5.121   3.184   5.819
 6624TIP3    H241364   5.220   3.073   5.791
 6625TIP3   OH241365   6.006   1.935   1.192
 6625TIP3    H141366   6.038   1.912   1.105
 6625TIP3    H241367   5.916   1.965   1.178
 6626TIP3   OH241368   6.215   0.226  15.480
 6626TIP3    H141369   6.189   0.318  15.474
 6626TIP3    H241370   6.296   0.221  15.428
 6627TIP3   OH241371   4.291   1.690   3.893
 6627TIP3    H141372   4.200   1.719   3.900
 6627TIP3    H241373   4.336   1.761   3.848
 6628TIP3   OH241374   5.542   2.392  13.245
 6628TIP3    H141375   5.551   2.415  13.337
 6628TIP3    H241376   5.609   2.325  13.230
 6629TIP3   OH241377   1.578   5.648   4.151
 6629TIP3    H141378   1.625   5.657   4.068
 6629TIP3    H241379   1.627   5.581   4.199
 6630TIP3   OH241380   5.710   1.154   0.745
 6630TIP3    H141381   5.633   1.135   0.798
 6630TIP3    H241382   5.703   1.095   0.670
 6631TIP3   OH241383   2.945   3.635  13.521
 6631TIP3    H141384   2.980   3.608  13.606
 6631TIP3    H241385   3.002   3.706  13.492
 6632TIP3   OH241386   0.454   2.422   2.496
 6632TIP3    H141387   0.440   2.330   2.473
 6632TIP3    H241388   0.366   2.454   2.518
 6633TIP3   OH241389   0.456   2.289  16.228
 6633TIP3    H141390   0.533   2.314  16.177
 6633TIP3    H241391   0.481   2.305  16.319
 6634TIP3   OH241392   3.869   5.343   5.903
 6634TIP3    H141393   3.963   5.325   5.909
 6634TIP3    H241394   3.853   5.357   5.810
 6635TIP3   OH241395   2.663   6.333  11.725
 6635TIP3    H141396   2.656   6.317  11.631
 6635TIP3    H241397   2.573   6.344  11.755
 6636TIP3   OH241398   3.834   4.689   3.478
 6636TIP3    H141399   3.774   4.688   3.552
 6636TIP3    H241400   3.778   4.690   3.400
 6637TIP3   OH241401   3.996   2.834   4.205
 6637TIP3    H141402   4.037   2.818   4.119
 6637TIP3    H241403   3.917   2.884   4.185
 6638TIP3   OH241404   2.171   4.696  13.342
 6638TIP3    H141405   2.262   4.686  13.316
 6638TIP3    H241406   2.164   4.649  13.425
 6639TIP3   OH241407   2.339   6.172  15.342
 6639TIP3    H141408   2.361   6.257  15.379
 6639TIP3    H241409   2.264   6.189  15.284
 6640TIP3   OH241410   1.313   3.047  11.856
 6640TIP3    H141411   1.290   3.133  11.820
 6640TIP3    H241412   1.286   3.051  11.948
 6641TIP3   OH241413   3.796   4.026   5.251
 6641TIP3    H141414   3.796   4.121   5.247
 6641TIP3    H241415   3.802   4.005   5.344
 6642TIP3   OH241416   1.160   4.612  11.400
 6642TIP3    H141417   1.071   4.580  11.398
 6642TIP3    H241418   1.153   4.701  11.435
 6643TIP3   OH241419   2.759   1.317   5.883
 6643TIP3    H141420   2.776   1.343   5.974
 6643TIP3    H241421   2.843   1.284   5.852
 6644TIP3   OH241422   5.354   0.691   1.374
 6644TIP3    H141423   5.384   0.650   1.293
 6644TIP3    H241424   5.430   0.689   1.432
 6645TIP3   OH241425   1.845   2.367   5.649
 6645TIP3    H141426   1.817   2.374   5.740
 6645TIP3    H241427   1.898   2.287   5.646
 6646TIP3   OH241428   1.283   4.552  17.004
 6646TIP3    H141429   1.299   4.459  16.987
 6646TIP3    H241430   1.194   4.556  17.037
 6647TIP3   OH241431   0.915   1.998   4.194
 6647TIP3    H141432   0.937   1.906   4.182
 6647TIP3    H241433   0.987   2.034   4.245
 6648TIP3   OH241434   6.789   4.516   4.547
 6648TIP3    H141435   6.796   4.454   4.474
 6648TIP3    H241436   6.833   4.595   4.515
 6649TIP3   OH241437   5.084   3.950  15.100
 6649TIP3    H141438   5.104   3.963  15.192
 6649TIP3    H241439   5.167   3.923  15.061
 6650TIP3   OH241440   2.920   3.059   2.612
 6650TIP3    H141441   2.989   2.999   2.583
 6650TIP3    H241442   2.904   3.034   2.703
 6651TIP3   OH241443   3.803   2.379  10.918
 6651TIP3    H141444   3.897   2.382  10.930
 6651TIP3    H241445   3.788   2.419  10.832
 6652TIP3   OH241446   6.780   5.205  12.550
 6652TIP3    H141447   6.758   5.116  12.523
 6652TIP3    H241448   6.695   5.248  12.560
 6653TIP3   OH241449   1.778   2.848  16.972
 6653TIP3    H141450   1.799   2.868  16.881
 6653TIP3    H241451   1.693   2.889  16.987
 6654TIP3   OH241452   6.587   5.178  14.515
 6654TIP3    H141453   6.682   5.171  14.521
 6654TIP3    H241454   6.555   5.093  14.545
 6655TIP3   OH241455   4.188   1.716  10.466
 6655TIP3    H141456   4.169   1.638  10.414
 6655TIP3    H241457   4.106   1.733  10.513
 6656TIP3   OH241458   2.846   3.733  14.152
 6656TIP3    H141459   2.861   3.639  14.152
 6656TIP3    H241460   2.810   3.752  14.065
 6657TIP3   OH241461   3.483   0.845   5.015
 6657TIP3    H141462   3.412   0.902   4.986
 6657TIP3    H241463   3.563   0.894   4.994
 6658TIP3   OH241464   0.879   1.383   6.003
 6658TIP3    H141465   0.820   1.322   6.047
 6658TIP3    H241466   0.827   1.421   5.932
 6659TIP3   OH241467   0.956   1.443  15.383
 6659TIP3    H141468   0.969   1.459  15.289
 6659TIP3    H241469   0.912   1.521  15.415
 6660TIP3   OH241470   5.082   2.375  13.382
 6660TIP3    H141471   5.078   2.382  13.286
 6660TIP3    H241472   5.091   2.282  13.399
 6661TIP3   OH241473   0.270   0.077   4.150
 6661TIP3    H141474   0.242  -0.011   4.176
 6661TIP3    H241475   0.327   0.106   4.221
 6662TIP3   OH241476   1.689   4.867  15.722
 6662TIP3    H141477   1.658   4.841  15.808
 6662TIP3    H241478   1.617   4.918  15.685
 6663TIP3   OH241479   6.401   6.322   4.320
 6663TIP3    H141480   6.372   6.274   4.242
 6663TIP3    H241481   6.496   6.327   4.311
 6664TIP3   OH241482   5.974   3.932   4.603
 6664TIP3    H141483   5.938   3.977   4.527
 6664TIP3    H241484   6.016   3.854   4.567
 6665TIP3   OH241485   1.972   0.610  14.047
 6665TIP3    H141486   1.916   0.626  13.971
 6665TIP3    H241487   2.038   0.680  14.042
 6666TIP3   OH241488   0.218   0.317  15.962
 6666TIP3    H141489   0.257   0.339  15.877
 6666TIP3    H241490   0.284   0.262  16.005
 6667TIP3   OH241491   0.837   1.232  14.149
 6667TIP3    H141492   0.889   1.161  14.112
 6667TIP3    H241493   0.831   1.296  14.079
 6668TIP3   OH241494   4.049   4.044  10.995
 6668TIP3    H141495   3.967   4.033  10.948
 6668TIP3    H241496   4.075   4.135  10.979
 6669TIP3   OH241497   3.427   0.510   1.245
 6669TIP3    H141498   3.388   0.433   1.205
 6669TIP3    H241499   3.514   0.482   1.273
 6670TIP3   OH241500   3.351   5.287  14.137
 6670TIP3    H141501   3.315   5.290  14.225
 6670TIP3    H241502   3.361   5.193  14.118
 6671TIP3   OH241503   3.067   1.981   0.646
 6671TIP3    H141504   3.015   1.947   0.718
 6671TIP3    H241505   3.017   2.055   0.611
 6672TIP3   OH241506   0.536   4.582  12.118
 6672TIP3    H141507   0.630   4.590  12.134
 6672TIP3    H241508   0.515   4.654  12.058
 6673TIP3   OH241509   4.352   2.127  15.500
 6673TIP3    H141510   4.299   2.102  15.423
 6673TIP3    H241511   4.332   2.220  15.513
 6674TIP3   OH241512   0.639   1.103  11.215
 6674TIP3    H141513   0.663   1.029  11.271
 6674TIP3    H241514   0.630   1.176  11.275
 6675TIP3   OH241515   3.867   3.924   5.508
 6675TIP3    H141516   3.846   3.886   5.593
 6675TIP3    H241517   3.886   3.849   5.452
 6676TIP3   OH241518   1.972   2.117   4.060
 6676TIP3    H141519   2.024   2.080   3.988
 6676TIP3    H241520   1.900   2.162   4.016
 6677TIP3   OH241521   6.274   6.481  12.343
 6677TIP3    H141522   6.251   6.572  12.326
 6677TIP3    H241523   6.191   6.434  12.341
 6678TIP3   OH241524   5.576   6.142   4.004
 6678TIP3    H141525   5.653   6.198   3.994
 6678TIP3    H241526   5.534   6.173   4.084
 6679TIP3   OH241527   2.705   1.370   6.976
 6679TIP3    H141528   2.774   1.312   7.007
 6679TIP3    H241529   2.747   1.421   6.907
 6680TIP3   OH241530   6.606   0.357   0.449
 6680TIP3    H141531   6.674   0.420   0.429
 6680TIP3    H241532   6.645   0.298   0.514
 6681TIP3   OH241533   2.201   6.804   1.945
 6681TIP3    H141534   2.241   6.726   1.984
 6681TIP3    H241535   2.235   6.877   1.996
 6682TIP3   OH241536   4.468   2.101  16.241
 6682TIP3    H141537   4.447   2.008  16.229
 6682TIP3    H241538   4.383   2.144  16.249
 6683TIP3   OH241539   4.077   4.741  14.420
 6683TIP3    H141540   3.985   4.720  14.435
 6683TIP3    H241541   4.076   4.826  14.377
 6684TIP3   OH241542   2.749   0.942  15.199
 6684TIP3    H141543   2.685   0.958  15.130
 6684TIP3    H241544   2.821   1.003  15.180
 6685TIP3   OH241545   0.026   5.977   5.587
 6685TIP3    H141546   0.064   5.913   5.528
 6685TIP3    H241547  -0.068   5.973   5.570
 6686TIP3   OH241548   1.588   1.536  13.061
 6686TIP3    H141549   1.592   1.629  13.038
 6686TIP3    H241550   1.572   1.492  12.978
 6687TIP3   OH241551   3.355   6.502  11.630
 6687TIP3    H141552   3.422   6.434  11.620
 6687TIP3    H241553   3.398   6.569  11.684
 6688TIP3   OH241554   4.268   4.978   1.190
 6688TIP3    H141555   4.353   4.987   1.233
 6688TIP3    H241556   4.209   4.950   1.259
 6689TIP3   OH241557   3.816   4.030  10.841
 6689TIP3    H141558   3.757   4.102  10.819
 6689TIP3    H241559   3.838   3.991  10.757
 6690TIP3   OH241560   2.142   1.490   2.547
 6690TIP3    H141561   2.212   1.429   2.521
 6690TIP3    H241562   2.063   1.454   2.508
 6691TIP3   OH241563   3.135   3.583   4.771
 6691TIP3    H141564   3.188   3.513   4.734
 6691TIP3    H241565   3.076   3.538   4.832
 6692TIP3   OH241566   0.947   5.792   0.871
 6692TIP3    H141567   0.962   5.702   0.841
 6692TIP3    H241568   0.933   5.843   0.792
 6693TIP3   OH241569   4.557   0.077   3.926
 6693TIP3    H141570   4.585   0.139   3.857
 6693TIP3    H241571   4.462   0.085   3.927
 6694TIP3   OH241572   3.448   0.962  11.699
 6694TIP3    H141573   3.542   0.969  11.683
 6694TIP3    H241574   3.438   0.885  11.755
 6695TIP3   OH241575   2.045   4.136   3.982
 6695TIP3    H141576   2.108   4.150   4.053
 6695TIP3    H241577   1.989   4.065   4.013
 6696TIP3   OH241578   5.392   4.887  11.811
 6696TIP3    H141579   5.340   4.808  11.794
 6696TIP3    H241580   5.396   4.931  11.726
 6697TIP3   OH241581   2.050   0.933  15.314
 6697TIP3    H141582   1.987   0.893  15.255
 6697TIP3    H241583   2.000   0.953  15.393
 6698TIP3   OH241584   6.684   2.341   4.942
 6698TIP3    H141585   6.700   2.262   4.993
 6698TIP3    H241586   6.710   2.413   5.000
 6699TIP3   OH241587   0.415   6.550   1.777
 6699TIP3    H141588   0.339   6.551   1.836
 6699TIP3    H241589   0.457   6.465   1.793
 6700TIP3   OH241590   3.623   1.471  12.887
 6700TIP3    H141591   3.626   1.518  12.804
 6700TIP3    H241592   3.531   1.474  12.912
 6701TIP3   OH241593   4.785   1.018   2.991
 6701TIP3    H141594   4.791   0.924   2.977
 6701TIP3    H241595   4.751   1.027   3.080
 6702TIP3   OH241596   6.284   6.304  14.372
 6702TIP3    H141597   6.262   6.345  14.456
 6702TIP3    H241598   6.255   6.214  14.380
 6703TIP3   OH241599   2.289   6.495   2.997
 6703TIP3    H141600   2.206   6.513   3.041
 6703TIP3    H241601   2.354   6.501   3.066
 6704TIP3   OH241602   3.408   6.799  11.231
 6704TIP3    H141603   3.474   6.869  11.233
 6704TIP3    H241604   3.326   6.845  11.213
 6705TIP3   OH241605   2.154   1.933  15.456
 6705TIP3    H141606   2.087   1.984  15.409
 6705TIP3    H241607   2.105   1.886  15.524
 6706TIP3   OH241608   0.133   0.467  17.248
 6706TIP3    H141609   0.080   0.413  17.307
 6706TIP3    H241610   0.070   0.503  17.185
 6707TIP3   OH241611   0.902   2.082   6.702
 6707TIP3    H141612   0.995   2.102   6.706
 6707TIP3    H241613   0.894   1.998   6.747
 6708TIP3   OH241614   1.553   3.796   1.461
 6708TIP3    H141615   1.465   3.791   1.499
 6708TIP3    H241616   1.600   3.856   1.519
 6709TIP3   OH241617   5.569   4.665  17.265
 6709TIP3    H141618   5.571   4.736  17.201
 6709TIP3    H241619   5.610   4.591  17.220
 6710TIP3   OH241620   6.179   4.240   5.619
 6710TIP3    H141621   6.144   4.324   5.648
 6710TIP3    H241622   6.206   4.196   5.700
 6711TIP3   OH241623   3.081   0.013   3.684
 6711TIP3    H141624   3.079  -0.070   3.636
 6711TIP3    H241625   3.152   0.002   3.747
 6712TIP3   OH241626   3.453   0.408  14.397
 6712TIP3    H141627   3.515   0.368  14.335
 6712TIP3    H241628   3.391   0.338  14.416
 6713TIP3   OH241629   3.474   0.576  13.993
 6713TIP3    H141630   3.457   0.647  13.930
 6713TIP3    H241631   3.510   0.620  14.070
 6714TIP3   OH241632   4.609   1.981  15.088
 6714TIP3    H141633   4.604   1.903  15.142
 6714TIP3    H241634   4.518   2.006  15.073
 6715TIP3   OH241635   3.214   0.111   4.840
 6715TIP3    H141636   3.154   0.073   4.776
 6715TIP3    H241637   3.289   0.051   4.842
 6716TIP3   OH241638   4.638   6.768  15.125
 6716TIP3    H141639   4.625   6.721  15.043
 6716TIP3    H241640   4.550   6.788  15.155
 6717TIP3   OH241641   1.160   1.971   2.185
 6717TIP3    H141642   1.166   1.960   2.280
 6717TIP3    H241643   1.245   2.006   2.159
 6718TIP3   OH241644   1.004   2.090  14.142
 6718TIP3    H141645   0.967   2.055  14.223
 6718TIP3    H241646   0.972   2.032  14.073
 6719TIP3   OH241647   1.707   2.936  10.845
 6719TIP3    H141648   1.640   2.989  10.803
 6719TIP3    H241649   1.788   2.960  10.800
 6720TIP3   OH241650   4.121   1.677  16.874
 6720TIP3    H141651   4.212   1.654  16.859
 6720TIP3    H241652   4.087   1.607  16.930
 6721TIP3   OH241653   6.122   6.574   2.506
 6721TIP3    H141654   6.038   6.601   2.543
 6721TIP3    H241655   6.188   6.606   2.568
 6722TIP3   OH241656   3.548   5.712  12.550
 6722TIP3    H141657   3.506   5.657  12.483
 6722TIP3    H241658   3.582   5.650  12.614
 6723TIP3   OH241659   0.692   1.332  16.240
 6723TIP3    H141660   0.751   1.388  16.290
 6723TIP3    H241661   0.624   1.306  16.303
 6724TIP3   OH241662   4.717   3.788  11.926
 6724TIP3    H141663   4.701   3.693  11.925
 6724TIP3    H241664   4.812   3.796  11.935
 6725TIP3   OH241665   0.675   5.033   0.615
 6725TIP3    H141666   0.749   4.976   0.597
 6725TIP3    H241667   0.613   4.978   0.663
 6726TIP3   OH241668   1.273   3.512  15.493
 6726TIP3    H141669   1.188   3.471  15.475
 6726TIP3    H241670   1.262   3.553  15.578
 6727TIP3   OH241671   4.067   2.306   5.061
 6727TIP3    H141672   4.028   2.250   4.993
 6727TIP3    H241673   4.114   2.374   5.013
 6728TIP3   OH241674   1.200   2.117  16.477
 6728TIP3    H141675   1.194   2.200  16.429
 6728TIP3    H241676   1.265   2.135  16.546
 6729TIP3   OH241677   5.925   5.354   3.300
 6729TIP3    H141678   5.921   5.294   3.375
 6729TIP3    H241679   5.835   5.358   3.268
 6730TIP3   OH241680   6.414   2.640  13.980
 6730TIP3    H141681   6.448   2.690  13.906
 6730TIP3    H241682   6.357   2.701  14.026
 6731TIP3   OH241683   3.611   1.849   5.827
 6731TIP3    H141684   3.628   1.829   5.919
 6731TIP3    H241685   3.516   1.837   5.817
 6732TIP3   OH241686   6.749   2.965  15.092
 6732TIP3    H141687   6.828   2.921  15.062
 6732TIP3    H241688   6.766   3.058  15.078
 6733TIP3   OH241689   0.458   2.090  13.686
 6733TIP3    H141690   0.534   2.078  13.742
 6733TIP3    H241691   0.487   2.065  13.598
 6734TIP3   OH241692   3.324   5.802   4.626
 6734TIP3    H141693   3.300   5.862   4.555
 6734TIP3    H241694   3.419   5.801   4.625
 6735TIP3   OH241695   4.829   0.127  15.219
 6735TIP3    H141696   4.802   0.036  15.215
 6735TIP3    H241697   4.751   0.175  15.248
 6736TIP3   OH241698   1.824   2.278   4.820
 6736TIP3    H141699   1.855   2.351   4.872
 6736TIP3    H241700   1.745   2.247   4.866
 6737TIP3   OH241701   6.122   4.126  16.057
 6737TIP3    H141702   6.114   4.037  16.092
 6737TIP3    H241703   6.034   4.147  16.023
 6738TIP3   OH241704   3.104   4.862   2.026
 6738TIP3    H141705   3.059   4.799   1.971
 6738TIP3    H241706   3.038   4.929   2.045
 6739TIP3   OH241707   0.715   5.569   1.076
 6739TIP3    H141708   0.709   5.661   1.101
 6739TIP3    H241709   0.662   5.523   1.141
 6740TIP3   OH241710   6.338   4.208  14.596
 6740TIP3    H141711   6.346   4.136  14.534
 6740TIP3    H241712   6.383   4.177  14.674
 6741TIP3   OH241713   4.203   5.917   6.456
 6741TIP3    H141714   4.210   5.986   6.390
 6741TIP3    H241715   4.118   5.876   6.439
 6742TIP3   OH241716   0.657   1.278   4.687
 6742TIP3    H141717   0.716   1.331   4.739
 6742TIP3    H241718   0.648   1.196   4.736
 6743TIP3   OH241719   6.582   4.156   1.402
 6743TIP3    H141720   6.598   4.118   1.488
 6743TIP3    H241721   6.495   4.124   1.377
 6744TIP3   OH241722   4.576   2.398  15.160
 6744TIP3    H141723   4.582   2.475  15.217
 6744TIP3    H241724   4.481   2.385  15.148
 6745TIP3   OH241725   4.143   4.701  12.327
 6745TIP3    H141726   4.237   4.715  12.336
 6745TIP3    H241727   4.134   4.646  12.249
 6746TIP3   OH241728   0.478   3.781   3.382
 6746TIP3    H141729   0.553   3.784   3.442
 6746TIP3    H241730   0.494   3.853   3.321
 6747TIP3   OH241731   3.938   5.455  11.343
 6747TIP3    H141732   3.874   5.520  11.369
 6747TIP3    H241733   3.979   5.492  11.265
 6748TIP3   OH241734   0.257   4.078   4.858
 6748TIP3    H141735   0.181   4.022   4.850
 6748TIP3    H241736   0.285   4.068   4.949
 6749TIP3   OH241737   5.844   0.714   4.198
 6749TIP3    H141738   5.752   0.702   4.220
 6749TIP3    H241739   5.860   0.808   4.208
 6750TIP3   OH241740   4.274   5.786  15.986
 6750TIP3    H141741   4.216   5.778  16.062
 6750TIP3    H241742   4.265   5.702  15.940
 6751TIP3   OH241743   4.904   3.394   5.093
 6751TIP3    H141744   4.865   3.402   5.005
 6751TIP3    H241745   4.998   3.383   5.076
 6752TIP3   OH241746   6.464   2.899   3.743
 6752TIP3    H141747   6.474   2.897   3.838
 6752TIP3    H241748   6.526   2.965   3.714
 6753TIP3   OH241749   1.176   6.328  15.585
 6753TIP3    H141750   1.208   6.239  15.597
 6753TIP3    H241751   1.255   6.382  15.577
 6754TIP3   OH241752   5.946   2.110  16.538
 6754TIP3    H141753   5.875   2.140  16.594
 6754TIP3    H241754   5.905   2.094  16.453
 6755TIP3   OH241755   5.206   6.220   3.388
 6755TIP3    H141756   5.220   6.276   3.311
 6755TIP3    H241757   5.194   6.132   3.351
 6756TIP3   OH241758   2.434   6.292  16.409
 6756TIP3    H141759   2.382   6.273  16.487
 6756TIP3    H241760   2.507   6.345  16.441
 6757TIP3   OH241761   6.082   4.639   5.140
 6757TIP3    H141762   6.102   4.661   5.231
 6757TIP3    H241763   6.139   4.565   5.120
 6758TIP3   OH241764   0.024   0.226   1.949
 6758TIP3    H141765   0.046   0.262   1.863
 6758TIP3    H241766   0.097   0.167   1.970
 6759TIP3   OH241767   1.497   4.349   4.506
 6759TIP3    H141768   1.404   4.363   4.523
 6759TIP3    H241769   1.514   4.260   4.539
 6760TIP3   OH241770   2.824   6.136  15.979
 6760TIP3    H141771   2.827   6.144  15.884
 6760TIP3    H241772   2.852   6.046  15.997
 6761TIP3   OH241773   1.000   3.237   0.263
 6761TIP3    H141774   1.039   3.244   0.176
 6761TIP3    H241775   1.052   3.297   0.317
 6762TIP3   OH241776   1.372   6.277   2.361
 6762TIP3    H141777   1.419   6.194   2.360
 6762TIP3    H241778   1.417   6.330   2.426
 6763TIP3   OH241779   6.758   6.579  13.409
 6763TIP3    H141780   6.844   6.568  13.369
 6763TIP3    H241781   6.729   6.665  13.380
 6764TIP3   OH241782   6.667   5.016   0.338
 6764TIP3    H141783   6.694   5.081   0.403
 6764TIP3    H241784   6.743   4.958   0.329
 6765TIP3   OH241785   5.963   1.331  16.919
 6765TIP3    H141786   6.037   1.389  16.900
 6765TIP3    H241787   5.949   1.282  16.838
 6766TIP3   OH241788   4.713   5.746  11.771
 6766TIP3    H141789   4.646   5.694  11.727
 6766TIP3    H241790   4.670   5.829  11.791
 6767TIP3   OH241791   4.244   4.061   0.152
 6767TIP3    H141792   4.269   4.008   0.228
 6767TIP3    H241793   4.242   4.151   0.185
 6768TIP3   OH241794   6.056   4.661   2.549
 6768TIP3    H141795   5.982   4.607   2.579
 6768TIP3    H241796   6.015   4.730   2.497
 6769TIP3   OH241797   4.806   3.538  14.193
 6769TIP3    H141798   4.852   3.601  14.248
 6769TIP3    H241799   4.843   3.453  14.218
 6770TIP3   OH241800   6.696   2.822   2.996
 6770TIP3    H141801   6.673   2.849   2.907
 6770TIP3    H241802   6.716   2.904   3.041
 6771TIP3   OH241803   1.482   3.621  14.169
 6771TIP3    H141804   1.565   3.656  14.199
 6771TIP3    H241805   1.437   3.694  14.127
 6772TIP3   OH241806   6.554   0.297   4.796
 6772TIP3    H141807   6.559   0.204   4.774
 6772TIP3    H241808   6.500   0.335   4.727
 6773TIP3   OH241809   6.445   4.175  14.132
 6773TIP3    H141810   6.397   4.218  14.061
 6773TIP3    H241811   6.380   4.162  14.201
 6774TIP3   OH241812   4.569   0.886  11.746
 6774TIP3    H141813   4.544   0.917  11.659
 6774TIP3    H241814   4.638   0.946  11.775
 6775TIP3   OH241815   4.295   0.968  15.827
 6775TIP3    H141816   4.313   1.060  15.848
 6775TIP3    H241817   4.200   0.960  15.833
 6776TIP3   OH241818   3.389   2.806   4.808
 6776TIP3    H141819   3.325   2.737   4.790
 6776TIP3    H241820   3.473   2.760   4.816
 6777TIP3   OH241821   6.680   6.167  16.627
 6777TIP3    H141822   6.743   6.148  16.697
 6777TIP3    H241823   6.687   6.093  16.568
 6778TIP3   OH241824   4.399   6.658   1.506
 6778TIP3    H141825   4.358   6.685   1.424
 6778TIP3    H241826   4.334   6.604   1.549
 6779TIP3   OH241827   1.659   2.667  11.884
 6779TIP3    H141828   1.593   2.734  11.870
 6779TIP3    H241829   1.610   2.591  11.915
 6780TIP3   OH241830   1.802   2.578   2.406
 6780TIP3    H141831   1.718   2.598   2.447
 6780TIP3    H241832   1.847   2.662   2.400
 6781TIP3   OH241833   4.238   1.151  13.765
 6781TIP3    H141834   4.222   1.068  13.721
 6781TIP3    H241835   4.330   1.170  13.748
 6782TIP3   OH241836   1.973   4.474   1.211
 6782TIP3    H141837   1.983   4.410   1.141
 6782TIP3    H241838   2.022   4.550   1.182
 6783TIP3   OH241839   3.132   4.963   4.839
 6783TIP3    H141840   3.161   5.053   4.835
 6783TIP3    H241841   3.180   4.918   4.769
 6784TIP3   OH241842   5.594   6.048  11.926
 6784TIP3    H141843   5.685   6.022  11.913
 6784TIP3    H241844   5.554   5.973  11.969
 6785TIP3   OH241845   2.098   6.738   2.526
 6785TIP3    H141846   2.105   6.769   2.436
 6785TIP3    H241847   2.140   6.652   2.525
 6786TIP3   OH241848   1.960   0.861  15.906
 6786TIP3    H141849   2.053   0.839  15.914
 6786TIP3    H241850   1.914   0.783  15.935
 6787TIP3   OH241851   5.701   5.770   3.789
 6787TIP3    H141852   5.689   5.680   3.820
 6787TIP3    H241853   5.785   5.768   3.742
 6788TIP3   OH241854   6.344   6.525  12.972
 6788TIP3    H141855   6.287   6.509  13.047
 6788TIP3    H241856   6.305   6.474  12.901
 6789TIP3   OH241857   0.547   2.151  15.530
 6789TIP3    H141858   0.537   2.170  15.623
 6789TIP3    H241859   0.473   2.196  15.489
 6790TIP3   OH241860   4.580   2.871   3.264
 6790TIP3    H141861   4.608   2.813   3.193
 6790TIP3    H241862   4.489   2.892   3.243
 6791TIP3   OH241863   3.839   0.047  13.149
 6791TIP3    H141864   3.767   0.051  13.212
 6791TIP3    H241865   3.817   0.115  13.084
 6792TIP3   OH241866   6.182   0.120  14.714
 6792TIP3    H141867   6.209   0.053  14.777
 6792TIP3    H241868   6.258   0.179  14.709
 6793TIP3   OH241869   2.464   4.312  10.502
 6793TIP3    H141870   2.453   4.388  10.559
 6793TIP3    H241871   2.511   4.249  10.555
 6794TIP3   OH241872   0.838   5.543  15.735
 6794TIP3    H141873   0.785   5.571  15.810
 6794TIP3    H241874   0.926   5.533  15.772
 6795TIP3   OH241875   2.000   3.825  14.698
 6795TIP3    H141876   1.935   3.756  14.712
 6795TIP3    H241877   1.991   3.882  14.775
 6796TIP3   OH241878   4.401   1.362  16.299
 6796TIP3    H141879   4.349   1.294  16.256
 6796TIP3    H241880   4.421   1.326  16.386
 6797TIP3   OH241881   2.324   3.953   2.126
 6797TIP3    H141882   2.237   3.982   2.097
 6797TIP3    H241883   2.379   3.960   2.047
 6798TIP3   OH241884   6.408   3.527  11.885
 6798TIP3    H141885   6.358   3.556  11.808
 6798TIP3    H241886   6.500   3.541  11.860
 6799TIP3   OH241887   3.566   6.791  12.595
 6799TIP3    H141888   3.531   6.843  12.667
 6799TIP3    H241889   3.616   6.721  12.638
 6800TIP3   OH241890   1.232   3.327  13.679
 6800TIP3    H141891   1.243   3.391  13.749
 6800TIP3    H241892   1.297   3.351  13.613
 6801TIP3   OH241893   5.937   2.989  11.310
 6801TIP3    H141894   6.029   2.995  11.338
 6801TIP3    H241895   5.926   3.060  11.247
 6802TIP3   OH241896   4.954   6.062   0.241
 6802TIP3    H141897   5.010   6.101   0.173
 6802TIP3    H241898   5.010   5.997   0.283
 6803TIP3   OH241899   5.446   5.987  14.157
 6803TIP3    H141900   5.446   5.976  14.252
 6803TIP3    H241901   5.535   5.963  14.131
 6804TIP3   OH241902   4.948   6.569  15.114
 6804TIP3    H141903   4.923   6.629  15.185
 6804TIP3    H241904   4.977   6.490  15.159
 6805TIP3   OH241905   5.278   5.790   1.698
 6805TIP3    H141906   5.199   5.737   1.697
 6805TIP3    H241907   5.299   5.804   1.606
 6806TIP3   OH241908   3.773   0.928  12.722
 6806TIP3    H141909   3.684   0.954  12.700
 6806TIP3    H241910   3.814   0.910  12.637
 6807TIP3   OH241911   6.384   4.963  11.762
 6807TIP3    H141912   6.458   4.907  11.787
 6807TIP3    H241913   6.368   5.017  11.839
 6808TIP3   OH241914   3.887   1.311  11.880
 6808TIP3    H141915   3.889   1.277  11.969
 6808TIP3    H241916   3.882   1.234  11.825
 6809TIP3   OH241917   1.881   5.700   0.668
 6809TIP3    H141918   1.877   5.795   0.681
 6809TIP3    H241919   1.953   5.672   0.725
 6810TIP3   OH241920   4.722   2.047   5.409
 6810TIP3    H141921   4.707   2.137   5.381
 6810TIP3    H241922   4.662   1.995   5.355
 6811TIP3   OH241923   2.329   4.658   1.127
 6811TIP3    H141924   2.412   4.648   1.080
 6811TIP3    H241925   2.299   4.568   1.142
 6812TIP3   OH241926   3.121   1.326  12.229
 6812TIP3    H141927   3.216   1.339  12.219
 6812TIP3    H241928   3.107   1.234  12.205
 6813TIP3   OH241929   4.307   1.946   0.500
 6813TIP3    H141930   4.218   1.925   0.528
 6813TIP3    H241931   4.332   1.872   0.444
 6814TIP3   OH241932   4.334   0.721  14.656
 6814TIP3    H141933   4.287   0.729  14.739
 6814TIP3    H241934   4.400   0.790  14.658
 6815TIP3   OH241935   4.218   1.262   4.633
 6815TIP3    H141936   4.133   1.235   4.597
 6815TIP3    H241937   4.203   1.270   4.727
 6816TIP3   OH241938   5.325   2.101   4.844
 6816TIP3    H141939   5.244   2.052   4.846
 6816TIP3    H241940   5.299   2.189   4.815
 6817TIP3   OH241941   1.268   1.640   5.899
 6817TIP3    H141942   1.235   1.729   5.914
 6817TIP3    H241943   1.198   1.597   5.850
 6818TIP3   OH241944   0.748   4.386  11.660
 6818TIP3    H141945   0.756   4.326  11.734
 6818TIP3    H241946   0.691   4.340  11.598
 6819TIP3   OH241947   4.709   6.261   1.258
 6819TIP3    H141948   4.703   6.284   1.165
 6819TIP3    H241949   4.785   6.204   1.264
 6820TIP3   OH241950   2.456   6.333  11.244
 6820TIP3    H141951   2.410   6.324  11.327
 6820TIP3    H241952   2.443   6.425  11.219
 6821TIP3   OH241953   1.088   5.931  12.986
 6821TIP3    H141954   1.028   5.974  13.046
 6821TIP3    H241955   1.037   5.859  12.948
 6822TIP3   OH241956   6.314   1.057  15.552
 6822TIP3    H141957   6.262   0.979  15.530
 6822TIP3    H241958   6.311   1.111  15.473
 6823TIP3   OH241959   2.882   3.226   5.383
 6823TIP3    H141960   2.951   3.160   5.376
 6823TIP3    H241961   2.800   3.177   5.383
 6824TIP3   OH241962   6.033   3.294  11.353
 6824TIP3    H141963   6.028   3.384  11.386
 6824TIP3    H241964   6.083   3.247  11.419
 6825TIP3   OH241965   4.691   5.660   3.980
 6825TIP3    H141966   4.783   5.677   3.958
 6825TIP3    H241967   4.642   5.718   3.921
 6826TIP3   OH241968   6.074   4.185   1.297
 6826TIP3    H141969   6.042   4.109   1.345
 6826TIP3    H241970   6.004   4.206   1.235
 6827TIP3   OH241971   0.800   1.110  13.365
 6827TIP3    H141972   0.749   1.188  13.388
 6827TIP3    H241973   0.793   1.054  13.442
 6828TIP3   OH241974   0.510   0.008   6.793
 6828TIP3    H141975   0.439  -0.055   6.803
 6828TIP3    H241976   0.475   0.074   6.733
 6829TIP3   OH241977   6.299   2.780   2.731
 6829TIP3    H141978   6.338   2.865   2.749
 6829TIP3    H241979   6.290   2.777   2.636
 6830TIP3   OH241980   6.423   1.860   1.072
 6830TIP3    H141981   6.329   1.852   1.062
 6830TIP3    H241982   6.437   1.864   1.166
 6831TIP3   OH241983   1.270   6.589  16.871
 6831TIP3    H141984   1.258   6.524  16.801
 6831TIP3    H241985   1.183   6.625  16.885
 6832TIP3   OH241986   6.419   6.337  11.994
 6832TIP3    H141987   6.329   6.339  12.025
 6832TIP3    H241988   6.441   6.429  11.979
 6833TIP3   OH241989   5.288   3.625  13.071
 6833TIP3    H141990   5.213   3.658  13.020
 6833TIP3    H241991   5.254   3.546  13.114
 6834TIP3   OH241992   0.270   0.011   3.524
 6834TIP3    H141993   0.230   0.010   3.611
 6834TIP3    H241994   0.209   0.061   3.470
 6835TIP3   OH241995   3.981   1.547   2.477
 6835TIP3    H141996   4.031   1.509   2.405
 6835TIP3    H241997   3.962   1.472   2.534
 6836TIP3   OH241998   3.326   2.748  16.107
 6836TIP3    H141999   3.237   2.733  16.075
 6836TIP3    H242000   3.314   2.781  16.196
 6837TIP3   OH242001   0.799   3.867  16.658
 6837TIP3    H142002   0.728   3.813  16.623
 6837TIP3    H242003   0.786   3.952  16.615
 6838TIP3   OH242004   5.639   2.853   0.981
 6838TIP3    H142005   5.665   2.945   0.970
 6838TIP3    H242006   5.708   2.815   1.035
 6839TIP3   OH242007   3.712   0.437   1.110
 6839TIP3    H142008   3.690   0.511   1.054
 6839TIP3    H242009   3.730   0.365   1.050
 6840TIP3   OH242010   2.017   6.792  16.502
 6840TIP3    H142011   2.030   6.885  16.520
 6840TIP3    H242012   2.104   6.754  16.511
 6841TIP3   OH242013   4.367   6.581  12.174
 6841TIP3    H142014   4.439   6.643  12.179
 6841TIP3    H242015   4.292   6.632  12.143
 6842TIP3   OH242016   4.289   3.498  16.846
 6842TIP3    H142017   4.316   3.563  16.781
 6842TIP3    H242018   4.203   3.529  16.876
 6843TIP3   OH242019   4.648   2.253   4.471
 6843TIP3    H142020   4.628   2.160   4.488
 6843TIP3    H242021   4.722   2.251   4.411
 6844TIP3   OH242022   0.637   0.424   6.293
 6844TIP3    H142023   0.643   0.496   6.355
 6844TIP3    H242024   0.712   0.368   6.313
 6845TIP3   OH242025   5.033   1.844   2.561
 6845TIP3    H142026   5.051   1.928   2.520
 6845TIP3    H242027   5.119   1.802   2.568
 6846TIP3   OH242028   1.555   3.123   2.129
 6846TIP3    H142029   1.460   3.128   2.118
 6846TIP3    H242030   1.578   3.034   2.101
 6847TIP3   OH242031   5.098   6.517   4.051
 6847TIP3    H142032   5.155   6.440   4.058
 6847TIP3    H242033   5.156   6.587   4.022
 6848TIP3   OH242034   4.870   3.455   5.881
 6848TIP3    H142035   4.855   3.360   5.876
 6848TIP3    H242036   4.855   3.477   5.973
 6849TIP3   OH242037   5.339   6.293  15.131
 6849TIP3    H142038   5.417   6.245  15.161
 6849TIP3    H242039   5.374   6.376  15.098
 6850TIP3   OH242040   2.495   1.943  13.784
 6850TIP3    H142041   2.426   2.006  13.804
 6850TIP3    H242042   2.516   1.958  13.692
 6851TIP3   OH242043   6.041   0.750  13.801
 6851TIP3    H142044   6.117   0.693  13.795
 6851TIP3    H242045   5.972   0.695  13.838
 6852TIP3   OH242046   1.210   5.547  13.829
 6852TIP3    H142047   1.302   5.525  13.812
 6852TIP3    H242048   1.175   5.568  13.742
 6853TIP3   OH242049   1.014   1.821   4.412
 6853TIP3    H142050   1.025   1.915   4.399
 6853TIP3    H242051   1.092   1.794   4.458
 6854TIP3   OH242052   6.187   0.270  11.776
 6854TIP3    H142053   6.226   0.319  11.849
 6854TIP3    H242054   6.184   0.332  11.704
 6855TIP3   OH242055   4.173   1.418   5.134
 6855TIP3    H142056   4.256   1.446   5.096
 6855TIP3    H242057   4.132   1.366   5.065
 6856TIP3   OH242058   2.443   0.245  14.176
 6856TIP3    H142059   2.380   0.203  14.117
 6856TIP3    H242060   2.502   0.293  14.118
 6857TIP3   OH242061   6.607   4.898   5.195
 6857TIP3    H142062   6.541   4.901   5.265
 6857TIP3    H242063   6.558   4.917   5.115
 6858TIP3   OH242064   6.441   2.316  15.232
 6858TIP3    H142065   6.456   2.222  15.242
 6858TIP3    H242066   6.506   2.357  15.289
 6859TIP3   OH242067   6.350   2.776   5.643
 6859TIP3    H142068   6.370   2.812   5.556
 6859TIP3    H242069   6.255   2.768   5.645
 6860TIP3   OH242070   2.396   6.126  13.411
 6860TIP3    H142071   2.414   6.190  13.480
 6860TIP3    H242072   2.303   6.105  13.422
 6861TIP3   OH242073   3.622   3.539   2.142
 6861TIP3    H142074   3.582   3.523   2.227
 6861TIP3    H242075   3.693   3.474   2.137
 6862TIP3   OH242076   1.621   1.055   3.305
 6862TIP3    H142077   1.617   1.137   3.355
 6862TIP3    H242078   1.577   0.990   3.360
 6863TIP3   OH242079   6.038   2.693  11.825
 6863TIP3    H142080   6.125   2.685  11.784
 6863TIP3    H242081   6.055   2.682  11.919
 6864TIP3   OH242082   0.044   4.647   5.357
 6864TIP3    H142083   0.123   4.699   5.343
 6864TIP3    H242084  -0.022   4.710   5.386
 6865TIP3   OH242085   4.899   3.325   3.253
 6865TIP3    H142086   4.847   3.247   3.231
 6865TIP3    H242087   4.982   3.290   3.285
 6866TIP3   OH242088   1.156   0.306  12.401
 6866TIP3    H142089   1.247   0.335  12.396
 6866TIP3    H242090   1.154   0.223  12.355
 6867TIP3   OH242091   0.409   6.400  15.452
 6867TIP3    H142092   0.357   6.388  15.531
 6867TIP3    H242093   0.370   6.339  15.388
 6868TIP3   OH242094   0.886   3.454   3.758
 6868TIP3    H142095   0.910   3.374   3.805
 6868TIP3    H242096   0.970   3.499   3.743
 6869TIP3   OH242097   0.141   6.757  14.161
 6869TIP3    H142098   0.090   6.837  14.165
 6869TIP3    H242099   0.209   6.775  14.096
 6870TIP3   OH242100   0.108   2.484  13.338
 6870TIP3    H142101   0.087   2.547  13.408
 6870TIP3    H242102   0.199   2.462  13.353
 6871TIP3   OH242103   1.056   0.765  13.607
 6871TIP3    H142104   1.029   0.833  13.545
 6871TIP3    H242105   1.040   0.683  13.560
 6872TIP3   OH242106   5.142   5.962   4.333
 6872TIP3    H142107   5.176   6.037   4.383
 6872TIP3    H242108   5.214   5.936   4.276
 6873TIP3   OH242109   3.255   4.662  16.112
 6873TIP3    H142110   3.210   4.732  16.160
 6873TIP3    H242111   3.203   4.651  16.032
 6874TIP3   OH242112   3.234   3.830   2.773
 6874TIP3    H142113   3.311   3.836   2.831
 6874TIP3    H242114   3.256   3.885   2.698
 6875TIP3   OH242115   1.556   2.994   4.436
 6875TIP3    H142116   1.606   3.026   4.361
 6875TIP3    H242117   1.533   2.904   4.413
 6876TIP3   OH242118   4.669   2.307  16.040
 6876TIP3    H142119   4.617   2.240  16.085
 6876TIP3    H242120   4.755   2.302  16.082
 6877TIP3   OH242121   1.500   0.851   3.760
 6877TIP3    H142122   1.478   0.759   3.744
 6877TIP3    H242123   1.435   0.881   3.824
 6878TIP3   OH242124   6.189   2.025  16.432
 6878TIP3    H142125   6.220   2.107  16.395
 6878TIP3    H242126   6.114   2.050  16.487
 6879TIP3   OH242127   5.396   2.889   0.082
 6879TIP3    H142128   5.450   2.847   0.015
 6879TIP3    H242129   5.339   2.820   0.114
 6880TIP3   OH242130   1.167   3.306   2.505
 6880TIP3    H142131   1.104   3.240   2.477
 6880TIP3    H242132   1.116   3.366   2.559
 6881TIP3   OH242133   4.087   1.512   1.547
 6881TIP3    H142134   4.087   1.417   1.561
 6881TIP3    H242135   4.166   1.529   1.496
 6882TIP3   OH242136   0.358   3.295   3.997
 6882TIP3    H142137   0.282   3.242   4.023
 6882TIP3    H242138   0.369   3.276   3.903
 6883TIP3   OH242139   6.812   6.077   4.749
 6883TIP3    H142140   6.851   6.149   4.700
 6883TIP3    H242141   6.856   6.080   4.834
 6884TIP3   OH242142   2.787   6.302  14.919
 6884TIP3    H142143   2.774   6.251  14.839
 6884TIP3    H242144   2.786   6.393  14.890
 6885TIP3   OH242145   2.911   6.175   2.718
 6885TIP3    H142146   3.003   6.160   2.696
 6885TIP3    H242147   2.867   6.179   2.634
 6886TIP3   OH242148   2.671   2.207  13.045
 6886TIP3    H142149   2.761   2.175  13.043
 6886TIP3    H242150   2.679   2.299  13.019
 6887TIP3   OH242151   3.301   0.314  11.919
 6887TIP3    H142152   3.323   0.228  11.882
 6887TIP3    H242153   3.373   0.371  11.892
 6888TIP3   OH242154   4.373   5.525  16.012
 6888TIP3    H142155   4.457   5.532  16.058
 6888TIP3    H242156   4.321   5.467  16.066
 6889TIP3   OH242157   1.506   4.233  11.745
 6889TIP3    H142158   1.560   4.273  11.676
 6889TIP3    H242159   1.463   4.306  11.788
 6890TIP3   OH242160   6.170   5.613  13.569
 6890TIP3    H142161   6.213   5.604  13.655
 6890TIP3    H242162   6.096   5.670  13.586
 6891TIP3   OH242163   2.376   3.167   4.672
 6891TIP3    H142164   2.365   3.141   4.764
 6891TIP3    H242165   2.471   3.169   4.659
 6892TIP3   OH242166   5.176   2.663   5.154
 6892TIP3    H142167   5.141   2.608   5.083
 6892TIP3    H242168   5.116   2.737   5.158
 6893TIP3   OH242169   1.128   1.737  13.499
 6893TIP3    H142170   1.203   1.677  13.497
 6893TIP3    H242171   1.167   1.824  13.498
 6894TIP3   OH242172   0.986   5.044  14.273
 6894TIP3    H142173   0.898   5.064  14.242
 6894TIP3    H242174   1.010   5.119  14.327
 6895TIP3   OH242175   5.586   4.992   4.244
 6895TIP3    H142176   5.668   4.954   4.212
 6895TIP3    H242177   5.610   5.078   4.278
 6896TIP3   OH242178   4.030   6.572   1.719
 6896TIP3    H142179   4.041   6.647   1.777
 6896TIP3    H242180   4.118   6.555   1.685
 6897TIP3   OH242181   2.338   4.212  16.818
 6897TIP3    H142182   2.268   4.217  16.754
 6897TIP3    H242183   2.374   4.124  16.807
 6898TIP3   OH242184   5.910   1.204  16.348
 6898TIP3    H142185   5.914   1.226  16.255
 6898TIP3    H242186   5.853   1.127  16.352
 6899TIP3   OH242187   0.804   6.593  15.221
 6899TIP3    H142188   0.875   6.552  15.172
 6899TIP3    H242189   0.820   6.687  15.213
 6900TIP3   OH242190   5.678   3.409   1.626
 6900TIP3    H142191   5.637   3.323   1.616
 6900TIP3    H242192   5.649   3.459   1.549
 6901TIP3   OH242193   4.145   5.377  13.002
 6901TIP3    H142194   4.054   5.407  12.993
 6901TIP3    H242195   4.152   5.348  13.092
 6902TIP3   OH242196   4.378   0.249  12.499
 6902TIP3    H142197   4.451   0.300  12.463
 6902TIP3    H242198   4.330   0.219  12.422
 6903TIP3   OH242199   1.615   4.613   1.837
 6903TIP3    H142200   1.552   4.606   1.766
 6903TIP3    H242201   1.670   4.688   1.814
 6904TIP3   OH242202   5.903   3.557  14.817
 6904TIP3    H142203   5.963   3.486  14.795
 6904TIP3    H242204   5.818   3.515  14.829
 6905TIP3   OH242205   0.870   1.271   5.584
 6905TIP3    H142206   0.934   1.204   5.560
 6905TIP3    H242207   0.914   1.325   5.649
 6906TIP3   OH242208   2.450   1.536   5.122
 6906TIP3    H142209   2.540   1.557   5.149
 6906TIP3    H242210   2.396   1.560   5.197
 6907TIP3   OH242211   5.514   4.320  12.254
 6907TIP3    H142212   5.571   4.378  12.304
 6907TIP3    H242213   5.573   4.270  12.198
 6908TIP3   OH242214   5.705   6.273   1.711
 6908TIP3    H142215   5.669   6.192   1.747
 6908TIP3    H242216   5.794   6.250   1.685
 6909TIP3   OH242217   3.246   2.031   5.644
 6909TIP3    H142218   3.284   1.944   5.657
 6909TIP3    H242219   3.227   2.062   5.732
 6910TIP3   OH242220   4.241   1.458  15.412
 6910TIP3    H142221   4.281   1.454  15.499
 6910TIP3    H242222   4.245   1.550  15.388
 6911TIP3   OH242223   3.561   6.325   6.534
 6911TIP3    H142224   3.587   6.412   6.504
 6911TIP3    H242225   3.548   6.335   6.629
 6912TIP3   OH242226   6.355   4.602   0.030
 6912TIP3    H142227   6.315   4.621   0.115
 6912TIP3    H242228   6.281   4.586  -0.028
 6913TIP3   OH242229   1.892   3.925   4.074
 6913TIP3    H142230   1.805   3.961   4.055
 6913TIP3    H242231   1.881   3.830   4.071
 6914TIP3   OH242232   2.801   2.191  13.500
 6914TIP3    H142233   2.735   2.150  13.445
 6914TIP3    H242234   2.871   2.215  13.439
 6915TIP3   OH242235   4.251   3.885   4.967
 6915TIP3    H142236   4.318   3.827   4.931
 6915TIP3    H242237   4.263   3.880   5.062
 6916TIP3   OH242238   3.357   6.296  17.051
 6916TIP3    H142239   3.354   6.201  17.058
 6916TIP3    H242240   3.283   6.326  17.103
 6917TIP3   OH242241   5.639   0.797   6.417
 6917TIP3    H142242   5.558   0.761   6.381
 6917TIP3    H242243   5.613   0.878   6.460
 6918TIP3   OH242244   4.771   4.786   1.563
 6918TIP3    H142245   4.814   4.870   1.546
 6918TIP3    H242246   4.691   4.789   1.511
 6919TIP3   OH242247   4.775   3.174   2.326
 6919TIP3    H142248   4.834   3.182   2.250
 6919TIP3    H242249   4.732   3.259   2.332
 6920TIP3   OH242250   6.255   2.906  14.385
 6920TIP3    H142251   6.208   2.897  14.468
 6920TIP3    H242252   6.330   2.961  14.406
 6921TIP3   OH242253   4.125   0.741   3.661
 6921TIP3    H142254   4.076   0.812   3.620
 6921TIP3    H242255   4.182   0.708   3.592
 6922TIP3   OH242256   5.707   2.916  11.458
 6922TIP3    H142257   5.794   2.940  11.425
 6922TIP3    H242258   5.646   2.959  11.398
 6923TIP3   OH242259   3.437   0.770  17.150
 6923TIP3    H142260   3.403   0.820  17.224
 6923TIP3    H242261   3.400   0.813  17.072
 6924TIP3   OH242262   2.195   2.401   4.925
 6924TIP3    H142263   2.263   2.375   4.864
 6924TIP3    H242264   2.191   2.330   4.989
 6925TIP3   OH242265   4.573   0.533  12.068
 6925TIP3    H142266   4.546   0.545  11.978
 6925TIP3    H242267   4.546   0.444  12.090
 6926TIP3   OH242268   1.659   1.855   3.508
 6926TIP3    H142269   1.636   1.879   3.419
 6926TIP3    H242270   1.657   1.937   3.557
 6927TIP3   OH242271   6.732   0.768   3.273
 6927TIP3    H142272   6.759   0.683   3.236
 6927TIP3    H242273   6.776   0.772   3.358
 6928TIP3   OH242274   4.552   3.643  11.077
 6928TIP3    H142275   4.519   3.556  11.095
 6928TIP3    H242276   4.636   3.647  11.123
 6929TIP3   OH242277   0.852   0.186   0.311
 6929TIP3    H142278   0.870   0.274   0.344
 6929TIP3    H242279   0.775   0.157   0.360
 6930TIP3   OH242280   5.521   6.766  13.645
 6930TIP3    H142281   5.591   6.706  13.673
 6930TIP3    H242282   5.517   6.753  13.550
 6931TIP3   OH242283   6.722   1.257   1.046
 6931TIP3    H142284   6.717   1.219   0.958
 6931TIP3    H242285   6.744   1.183   1.103
 6932TIP3   OH242286   3.587   3.520   0.414
 6932TIP3    H142287   3.625   3.548   0.498
 6932TIP3    H242288   3.570   3.601   0.367
 6933TIP3   OH242289   4.321   6.578   5.818
 6933TIP3    H142290   4.250   6.525   5.856
 6933TIP3    H242291   4.284   6.666   5.812
 6934TIP3   OH242292   3.984   4.428  13.197
 6934TIP3    H142293   3.975   4.333  13.194
 6934TIP3    H242294   4.009   4.446  13.288
 6935TIP3   OH242295   6.323   0.881  14.561
 6935TIP3    H142296   6.344   0.969  14.532
 6935TIP3    H242297   6.319   0.829  14.481
 6936TIP3   OH242298   5.802   2.137   4.986
 6936TIP3    H142299   5.893   2.155   4.962
 6936TIP3    H242300   5.806   2.054   5.033
 6937TIP3   OH242301   4.809   2.189   0.107
 6937TIP3    H142302   4.716   2.168   0.107
 6937TIP3    H242303   4.838   2.170   0.196
 6938TIP3   OH242304   3.083   5.324   4.346
 6938TIP3    H142305   3.020   5.369   4.291
 6938TIP3    H242306   3.119   5.392   4.403
 6939TIP3   OH242307   4.559   3.890   3.113
 6939TIP3    H142308   4.464   3.893   3.100
 6939TIP3    H242309   4.589   3.977   3.089
 6940TIP3   OH242310   5.893   0.647  10.863
 6940TIP3    H142311   5.825   0.607  10.917
 6940TIP3    H242312   5.931   0.715  10.918
 6941TIP3   OH242313   3.912   3.599  10.969
 6941TIP3    H142314   3.829   3.646  10.955
 6941TIP3    H242315   3.975   3.646  10.915
 6942TIP3   OH242316   0.183   5.140  15.764
 6942TIP3    H142317   0.199   5.055  15.723
 6942TIP3    H242318   0.215   5.204  15.701
 6943TIP3   OH242319   1.770   3.340  15.283
 6943TIP3    H142320   1.784   3.383  15.199
 6943TIP3    H242321   1.855   3.344  15.327
 6944TIP3   OH242322   3.525   2.594   0.179
 6944TIP3    H142323   3.600   2.580   0.121
 6944TIP3    H242324   3.544   2.676   0.223
 6945TIP3   OH242325   4.793   5.078   0.786
 6945TIP3    H142326   4.721   5.086   0.724
 6945TIP3    H242327   4.758   5.023   0.856
 6946TIP3   OH242328   4.936   1.237  11.020
 6946TIP3    H142329   4.904   1.296  10.952
 6946TIP3    H242330   4.999   1.181  10.976
 6947TIP3   OH242331   4.267   2.285  16.447
 6947TIP3    H142332   4.231   2.365  16.408
 6947TIP3    H242333   4.211   2.215  16.412
 6948TIP3   OH242334   1.002   1.940   0.825
 6948TIP3    H142335   1.023   1.951   0.732
 6948TIP3    H242336   1.072   1.884   0.859
 6949TIP3   OH242337   3.381   2.025   2.859
 6949TIP3    H142338   3.449   2.001   2.922
 6949TIP3    H242339   3.368   1.946   2.807
 6950TIP3   OH242340   4.174   0.580  12.181
 6950TIP3    H142341   4.158   0.674  12.188
 6950TIP3    H242342   4.181   0.550  12.271
 6951TIP3   OH242343   1.787   0.724  10.819
 6951TIP3    H142344   1.837   0.673  10.756
 6951TIP3    H242345   1.698   0.725  10.784
 6952TIP3   OH242346   2.562   5.261   0.490
 6952TIP3    H142347   2.646   5.259   0.535
 6952TIP3    H242348   2.536   5.169   0.483
 6953TIP3   OH242349   4.572   2.027  12.622
 6953TIP3    H142350   4.629   1.980  12.560
 6953TIP3    H242351   4.520   1.959  12.664
 6954TIP3   OH242352   4.160   4.732   1.824
 6954TIP3    H142353   4.216   4.710   1.898
 6954TIP3    H242354   4.161   4.828   1.822
 6955TIP3   OH242355   1.742   6.531  14.138
 6955TIP3    H142356   1.766   6.622  14.154
 6955TIP3    H242357   1.648   6.532  14.122
 6956TIP3   OH242358   3.313   5.684  16.860
 6956TIP3    H142359   3.402   5.675  16.826
 6956TIP3    H242360   3.275   5.757  16.811
 6957TIP3   OH242361   0.634   1.694   0.438
 6957TIP3    H142362   0.682   1.616   0.411
 6957TIP3    H242363   0.625   1.685   0.533
 6958TIP3   OH242364   6.072   6.175  13.205
 6958TIP3    H142365   6.055   6.148  13.115
 6958TIP3    H242366   6.167   6.175  13.213
 6959TIP3   OH242367   1.205   1.007  12.014
 6959TIP3    H142368   1.203   0.928  12.067
 6959TIP3    H242369   1.295   1.013  11.983
 6960TIP3   OH242370   0.795   1.242   6.327
 6960TIP3    H142371   0.878   1.261   6.283
 6960TIP3    H242372   0.772   1.324   6.370
 6961TIP3   OH242373   3.383   0.510   5.565
 6961TIP3    H142374   3.319   0.476   5.627
 6961TIP3    H242375   3.349   0.484   5.479
 6962TIP3   OH242376   2.422   3.182  15.453
 6962TIP3    H142377   2.472   3.185  15.372
 6962TIP3    H242378   2.381   3.268  15.460
 6963TIP3   OH242379   3.025   3.534  10.727
 6963TIP3    H142380   3.051   3.523  10.818
 6963TIP3    H242381   3.024   3.628  10.713
 6964TIP3   OH242382   0.386   2.303  14.815
 6964TIP3    H142383   0.308   2.251  14.795
 6964TIP3    H242384   0.434   2.250  14.879
 6965TIP3   OH242385   2.242   2.658  12.222
 6965TIP3    H142386   2.320   2.692  12.267
 6965TIP3    H242387   2.218   2.728  12.161
 6966TIP3   OH242388   3.891   3.372   4.885
 6966TIP3    H142389   3.822   3.429   4.918
 6966TIP3    H242390   3.970   3.427   4.885
 6967TIP3   OH242391   1.101   3.609  16.691
 6967TIP3    H142392   1.020   3.578  16.651
 6967TIP3    H242393   1.129   3.682  16.637
 6968TIP3   OH242394   1.319   2.103   5.227
 6968TIP3    H142395   1.372   2.036   5.183
 6968TIP3    H242396   1.240   2.110   5.172
 6969TIP3   OH242397   0.796   0.599   4.360
 6969TIP3    H142398   0.877   0.621   4.313
 6969TIP3    H242399   0.818   0.616   4.452
 6970TIP3   OH242400   1.351   0.809  13.566
 6970TIP3    H142401   1.264   0.780  13.593
 6970TIP3    H242402   1.336   0.854  13.482
 6971TIP3   OH242403   3.847   6.258   2.159
 6971TIP3    H142404   3.789   6.215   2.096
 6971TIP3    H242405   3.796   6.262   2.240
 6972TIP3   OH242406   3.742   0.281   0.850
 6972TIP3    H142407   3.647   0.271   0.856
 6972TIP3    H242408   3.772   0.198   0.813
 6973TIP3   OH242409   1.992   0.536   1.046
 6973TIP3    H142410   1.999   0.628   1.070
 6973TIP3    H242411   2.074   0.517   1.000
 6974TIP3   OH242412   1.249   5.067  13.648
 6974TIP3    H142413   1.314   4.997  13.653
 6974TIP3    H242414   1.183   5.034  13.588
 6975TIP3   OH242415   6.082   5.622   6.110
 6975TIP3    H142416   6.103   5.540   6.157
 6975TIP3    H242417   6.076   5.688   6.180
 6976TIP3   OH242418   4.810   3.360  10.534
 6976TIP3    H142419   4.723   3.399  10.525
 6976TIP3    H242420   4.817   3.338  10.627
 6977TIP3   OH242421   4.482   3.137   3.422
 6977TIP3    H142422   4.462   3.157   3.514
 6977TIP3    H242423   4.561   3.083   3.426
 6978TIP3   OH242424   4.744   3.624  13.627
 6978TIP3    H142425   4.730   3.609  13.534
 6978TIP3    H242426   4.658   3.648  13.661
 6979TIP3   OH242427   3.183   0.545  14.052
 6979TIP3    H142428   3.250   0.566  13.986
 6979TIP3    H242429   3.207   0.597  14.129
 6980TIP3   OH242430   2.276   5.857  15.064
 6980TIP3    H142431   2.315   5.817  15.142
 6980TIP3    H242432   2.235   5.937  15.096
 6981TIP3   OH242433   0.743   2.050   1.420
 6981TIP3    H142434   0.771   1.959   1.409
 6981TIP3    H242435   0.669   2.059   1.360
 6982TIP3   OH242436   0.716   2.389   5.664
 6982TIP3    H142437   0.638   2.425   5.620
 6982TIP3    H242438   0.776   2.367   5.592
 6983TIP3   OH242439   2.298   6.067  14.702
 6983TIP3    H142440   2.271   6.122  14.776
 6983TIP3    H242441   2.249   5.986  14.713
 6984TIP3   OH242442   1.790   0.414   0.418
 6984TIP3    H142443   1.800   0.494   0.470
 6984TIP3    H242444   1.697   0.411   0.396
 6985TIP3   OH242445   1.743   2.890   5.147
 6985TIP3    H142446   1.786   2.829   5.206
 6985TIP3    H242447   1.708   2.958   5.205
 6986TIP3   OH242448   2.236   5.273   0.491
 6986TIP3    H142449   2.250   5.302   0.581
 6986TIP3    H242450   2.294   5.198   0.481
 6987TIP3   OH242451   0.369   5.017   4.337
 6987TIP3    H142452   0.407   5.101   4.309
 6987TIP3    H242453   0.415   4.952   4.285
 6988TIP3   OH242454   3.974   5.220   3.814
 6988TIP3    H142455   3.892   5.247   3.773
 6988TIP3    H242456   4.003   5.296   3.864
 6989TIP3   OH242457   4.440   2.653  11.788
 6989TIP3    H142458   4.463   2.576  11.735
 6989TIP3    H242459   4.442   2.622  11.878
 6990TIP3   OH242460   2.469   2.119  13.277
 6990TIP3    H142461   2.529   2.153  13.210
 6990TIP3    H242462   2.392   2.090  13.228
 6991TIP3   OH242463   1.881   3.914  15.181
 6991TIP3    H142464   1.974   3.934  15.177
 6991TIP3    H242465   1.863   3.864  15.101
 6992TIP3   OH242466   0.754   5.895  12.457
 6992TIP3    H142467   0.728   5.936  12.540
 6992TIP3    H242468   0.741   5.964  12.392
 6993TIP3   OH242469   3.280   0.753  11.844
 6993TIP3    H142470   3.275   0.672  11.793
 6993TIP3    H242471   3.195   0.758  11.888
 6994TIP3   OH242472   4.482   1.399  14.355
 6994TIP3    H142473   4.554   1.351  14.397
 6994TIP3    H242474   4.421   1.331  14.327
 6995TIP3   OH242475   3.673   4.446  11.129
 6995TIP3    H142476   3.758   4.447  11.085
 6995TIP3    H242477   3.632   4.364  11.101
 6996TIP3   OH242478   4.940   3.215  14.422
 6996TIP3    H142479   4.869   3.246  14.478
 6996TIP3    H242480   4.927   3.120  14.416
 6997TIP3   OH242481   0.883   3.797   3.852
 6997TIP3    H142482   0.942   3.815   3.925
 6997TIP3    H242483   0.919   3.847   3.779
 6998TIP3   OH242484   5.300   1.284  13.987
 6998TIP3    H142485   5.327   1.192  13.995
 6998TIP3    H242486   5.371   1.333  14.027
 6999TIP3   OH242487   5.353   3.494  14.973
 6999TIP3    H142488   5.316   3.582  14.978
 6999TIP3    H242489   5.294   3.440  15.026
 7000TIP3   OH242490   2.775   1.567  12.347
 7000TIP3    H142491   2.800   1.503  12.414
 7000TIP3    H242492   2.790   1.652  12.388
 7001TIP3   OH242493   5.997   4.417   1.945
 7001TIP3    H142494   6.037   4.337   1.912
 7001TIP3    H242495   5.904   4.408   1.924
 7002TIP3   OH242496   3.283   4.426   3.512
 7002TIP3    H142497   3.242   4.476   3.442
 7002TIP3    H242498   3.265   4.334   3.490
 7003TIP3   OH242499   3.214   0.612   4.949
 7003TIP3    H142500   3.237   0.569   4.867
 7003TIP3    H242501   3.217   0.705   4.929
 7004TIP3   OH242502   5.626   0.379   0.546
 7004TIP3    H142503   5.631   0.463   0.499
 7004TIP3    H242504   5.552   0.389   0.606
 7005TIP3   OH242505   0.714   1.547   4.426
 7005TIP3    H142506   0.625   1.535   4.459
 7005TIP3    H242507   0.765   1.476   4.465
 7006TIP3   OH242508   5.247   6.091   4.051
 7006TIP3    H142509   5.296   6.133   4.122
 7006TIP3    H242510   5.155   6.106   4.073
 7007TIP3   OH242511   0.866   4.598  12.659
 7007TIP3    H142512   0.866   4.561  12.570
 7007TIP3    H242513   0.909   4.531  12.712
 7008TIP3   OH242514   4.357   5.637  14.378
 7008TIP3    H142515   4.343   5.551  14.417
 7008TIP3    H242516   4.363   5.620  14.284
 7009TIP3   OH242517   4.171   3.891  16.237
 7009TIP3    H142518   4.232   3.830  16.279
 7009TIP3    H242519   4.113   3.835  16.186
 7010TIP3   OH242520   2.374   5.886   3.965
 7010TIP3    H142521   2.347   5.937   4.041
 7010TIP3    H242522   2.430   5.946   3.915
 7011TIP3   OH242523   0.032   3.582   0.341
 7011TIP3    H142524  -0.001   3.493   0.332
 7011TIP3    H242525  -0.046   3.638   0.338
 7012TIP3   OH242526   5.362   6.597  11.352
 7012TIP3    H142527   5.394   6.591  11.262
 7012TIP3    H242528   5.352   6.507  11.381
 7013TIP3   OH242529   3.692   6.093   1.991
 7013TIP3    H142530   3.606   6.068   2.023
 7013TIP3    H242531   3.733   6.010   1.965
 7014TIP3   OH242532   2.511   4.892   2.455
 7014TIP3    H142533   2.590   4.912   2.406
 7014TIP3    H242534   2.442   4.886   2.389
 7015TIP3   OH242535   4.629   6.350   0.227
 7015TIP3    H142536   4.572   6.326   0.300
 7015TIP3    H242537   4.674   6.269   0.204
 7016TIP3   OH242538   1.769   4.948   5.631
 7016TIP3    H142539   1.821   4.896   5.693
 7016TIP3    H242540   1.684   4.957   5.674
 7017TIP3   OH242541   0.218   6.800   5.398
 7017TIP3    H142542   0.230   6.731   5.463
 7017TIP3    H242543   0.302   6.846   5.396
 7018TIP3   OH242544   2.644   2.226  14.454
 7018TIP3    H142545   2.666   2.133  14.454
 7018TIP3    H242546   2.611   2.243  14.366
 7019TIP3   OH242547   3.792   2.009  14.673
 7019TIP3    H142548   3.868   1.984  14.621
 7019TIP3    H242549   3.717   1.986  14.619
 7020TIP3   OH242550   3.938   6.147  14.412
 7020TIP3    H142551   3.950   6.052  14.409
 7020TIP3    H242552   3.848   6.158  14.444
 7021TIP3   OH242553   2.130   2.433  14.192
 7021TIP3    H142554   2.070   2.378  14.241
 7021TIP3    H242555   2.083   2.516  14.179
 7022TIP3   OH242556   4.670   0.015   3.576
 7022TIP3    H142557   4.732  -0.050   3.542
 7022TIP3    H242558   4.627  -0.029   3.650
 7023TIP3   OH242559   6.491   4.766  14.759
 7023TIP3    H142560   6.459   4.676  14.744
 7023TIP3    H242561   6.455   4.790  14.844
 7024TIP3   OH242562   5.198   6.367   2.225
 7024TIP3    H142563   5.165   6.437   2.281
 7024TIP3    H242564   5.293   6.375   2.229
 7025TIP3   OH242565   0.873   2.977   0.258
 7025TIP3    H142566   0.898   3.069   0.259
 7025TIP3    H242567   0.888   2.949   0.168
 7026TIP3   OH242568   1.860   2.966  11.528
 7026TIP3    H142569   1.897   2.938  11.444
 7026TIP3    H242570   1.803   2.893  11.554
 7027TIP3   OH242571   1.606   2.150   1.119
 7027TIP3    H142572   1.572   2.121   1.034
 7027TIP3    H242573   1.576   2.084   1.181
 7028TIP3   OH242574   0.133   5.675   4.257
 7028TIP3    H142575   0.144   5.671   4.162
 7028TIP3    H242576   0.200   5.618   4.293
 7029TIP3   OH242577   2.554   2.119   0.386
 7029TIP3    H142578   2.583   2.137   0.297
 7029TIP3    H242579   2.592   2.034   0.407
 7030TIP3   OH242580   2.431   2.330  16.125
 7030TIP3    H142581   2.466   2.246  16.153
 7030TIP3    H242582   2.392   2.368  16.204
 7031TIP3   OH242583   0.171   1.674  14.385
 7031TIP3    H142584   0.199   1.604  14.326
 7031TIP3    H242585   0.118   1.732  14.330
 7032TIP3   OH242586   2.873   2.021   1.093
 7032TIP3    H142587   2.961   2.015   1.129
 7032TIP3    H242588   2.846   2.112   1.108
 7033TIP3   OH242589   2.190   0.303  12.075
 7033TIP3    H142590   2.174   0.371  12.141
 7033TIP3    H242591   2.123   0.319  12.008
 7034TIP3   OH242592   5.100   4.304   2.914
 7034TIP3    H142593   5.086   4.397   2.900
 7034TIP3    H242594   5.192   4.290   2.893
 7035TIP3   OH242595   3.679   4.487   3.761
 7035TIP3    H142596   3.714   4.455   3.844
 7035TIP3    H242597   3.694   4.581   3.764
 7036TIP3   OH242598   1.627   4.043  15.976
 7036TIP3    H142599   1.692   3.982  16.012
 7036TIP3    H242600   1.546   4.022  16.023
 7037TIP3   OH242601   6.112   1.827   5.812
 7037TIP3    H142602   6.034   1.772   5.814
 7037TIP3    H242603   6.081   1.913   5.840
 7038TIP3   OH242604   4.189   3.216  14.270
 7038TIP3    H142605   4.271   3.175  14.241
 7038TIP3    H242606   4.125   3.145  14.270
 7039TIP3   OH242607   5.783   3.321   2.427
 7039TIP3    H142608   5.783   3.225   2.436
 7039TIP3    H242609   5.875   3.342   2.409
 7040TIP3   OH242610   6.524   2.711  15.608
 7040TIP3    H142611   6.487   2.793  15.641
 7040TIP3    H242612   6.611   2.707  15.647
 7041TIP3   OH242613   1.076   3.255   1.333
 7041TIP3    H142614   1.159   3.263   1.380
 7041TIP3    H242615   1.021   3.202   1.391
 7042TIP3   OH242616   2.622   5.415  13.067
 7042TIP3    H142617   2.611   5.425  13.162
 7042TIP3    H242618   2.542   5.370  13.039
 7043TIP3   OH242619   3.176   2.254   3.318
 7043TIP3    H142620   3.144   2.315   3.385
 7043TIP3    H242621   3.101   2.242   3.260
 7044TIP3   OH242622   4.693   4.864  11.455
 7044TIP3    H142623   4.635   4.870  11.379
 7044TIP3    H242624   4.656   4.926  11.518
 7045TIP3   OH242625   0.381   1.046   2.645
 7045TIP3    H142626   0.464   1.015   2.680
 7045TIP3    H242627   0.405   1.125   2.595
 7046TIP3   OH242628   1.825   6.508  11.435
 7046TIP3    H142629   1.853   6.583  11.383
 7046TIP3    H242630   1.778   6.546  11.509
 7047TIP3   OH242631   4.005   4.338  15.656
 7047TIP3    H142632   3.952   4.306  15.584
 7047TIP3    H242633   3.952   4.323  15.734
 7048TIP3   OH242634   3.989   4.126  13.180
 7048TIP3    H142635   3.931   4.081  13.118
 7048TIP3    H242636   3.968   4.088  13.265
 7049TIP3   OH242637   1.391   2.374   5.415
 7049TIP3    H142638   1.395   2.303   5.480
 7049TIP3    H242639   1.437   2.447   5.457
 7050TIP3   OH242640   2.003   3.549  12.082
 7050TIP3    H142641   1.983   3.518  11.994
 7050TIP3    H242642   1.981   3.642  12.082
 7051TIP3   OH242643   3.819   1.337   0.964
 7051TIP3    H142644   3.867   1.420   0.961
 7051TIP3    H242645   3.802   1.323   1.057
 7052TIP3   OH242646   4.591   6.808  13.227
 7052TIP3    H142647   4.513   6.763  13.260
 7052TIP3    H242648   4.620   6.754  13.154
 7053TIP3   OH242649   6.543   0.596   3.950
 7053TIP3    H142650   6.615   0.534   3.945
 7053TIP3    H242651   6.586   0.682   3.957
 7054TIP3   OH242652   5.688   3.398   3.366
 7054TIP3    H142653   5.763   3.456   3.380
 7054TIP3    H242654   5.614   3.445   3.403
 7055TIP3   OH242655   4.935   2.943  12.607
 7055TIP3    H142656   4.981   2.863  12.632
 7055TIP3    H242657   4.901   2.978  12.689
 7056TIP3   OH242658   3.893   0.790   5.161
 7056TIP3    H142659   3.885   0.878   5.197
 7056TIP3    H242660   3.837   0.790   5.083
 7057TIP3   OH242661   3.016   0.350  13.946
 7057TIP3    H142662   3.080   0.411  13.983
 7057TIP3    H242663   2.934   0.400  13.945
 7058TIP3   OH242664   5.985   4.163   4.143
 7058TIP3    H142665   5.998   4.091   4.081
 7058TIP3    H242666   5.959   4.119   4.224
 7059TIP3   OH242667   2.039   1.606  16.319
 7059TIP3    H142668   1.971   1.553  16.361
 7059TIP3    H242669   2.029   1.693  16.359
 7060TIP3   OH242670   2.451   0.508  16.365
 7060TIP3    H142671   2.496   0.428  16.338
 7060TIP3    H242672   2.424   0.550  16.283
 7061TIP3   OH242673   1.599   1.785   4.306
 7061TIP3    H142674   1.692   1.795   4.328
 7061TIP3    H242675   1.574   1.702   4.346
 7062TIP3   OH242676   1.445   0.678   1.239
 7062TIP3    H142677   1.500   0.732   1.296
 7062TIP3    H242678   1.493   0.674   1.156
 7063TIP3   OH242679   4.222   3.735   1.500
 7063TIP3    H142680   4.162   3.679   1.450
 7063TIP3    H242681   4.169   3.767   1.573
 7064TIP3   OH242682   4.618   4.301  12.943
 7064TIP3    H142683   4.610   4.395  12.957
 7064TIP3    H242684   4.551   4.262  13.000
 7065TIP3   OH242685   3.570   2.494   4.610
 7065TIP3    H142686   3.475   2.490   4.597
 7065TIP3    H242687   3.580   2.545   4.691
 7066TIP3   OH242688   3.117   1.238   0.540
 7066TIP3    H142689   3.165   1.283   0.470
 7066TIP3    H242690   3.170   1.252   0.618
 7067TIP3   OH242691   6.066   6.630  11.767
 7067TIP3    H142692   6.002   6.702  11.773
 7067TIP3    H242693   6.047   6.589  11.683
 7068TIP3   OH242694   3.110   0.439  11.792
 7068TIP3    H142695   3.161   0.487  11.726
 7068TIP3    H242696   3.172   0.376  11.829
 7069TIP3   OH242697   3.115   0.332   6.330
 7069TIP3    H142698   3.088   0.241   6.319
 7069TIP3    H242699   3.033   0.381   6.330
 7070TIP3   OH242700   1.148   2.982   4.836
 7070TIP3    H142701   1.242   2.983   4.821
 7070TIP3    H242702   1.132   2.900   4.882
 7071TIP3   OH242703   4.947   1.812  10.831
 7071TIP3    H142704   4.926   1.757  10.906
 7071TIP3    H242705   4.876   1.796  10.769
 7072TIP3   OH242706   1.796   2.840  13.904
 7072TIP3    H142707   1.798   2.750  13.870
 7072TIP3    H242708   1.889   2.861  13.920
 7073TIP3   OH242709   5.328   2.185  13.135
 7073TIP3    H142710   5.255   2.241  13.108
 7073TIP3    H242711   5.382   2.241  13.191
 7074TIP3   OH242712   6.338   0.558   2.844
 7074TIP3    H142713   6.373   0.646   2.860
 7074TIP3    H242714   6.288   0.537   2.923
 7075TIP3   OH242715   2.731   1.854  11.594
 7075TIP3    H142716   2.638   1.865  11.614
 7075TIP3    H242717   2.747   1.915  11.522
 7076TIP3   OH242718   0.442   3.133   1.141
 7076TIP3    H142719   0.408   3.219   1.163
 7076TIP3    H242720   0.530   3.149   1.106
 7077TIP3   OH242721   1.625   0.739  15.996
 7077TIP3    H142722   1.636   0.833  15.990
 7077TIP3    H242723   1.531   0.725  15.983
 7078TIP3   OH242724   3.446   1.307  11.631
 7078TIP3    H142725   3.392   1.331  11.556
 7078TIP3    H242726   3.501   1.235  11.600
 7079TIP3   OH242727   1.991   5.100  11.434
 7079TIP3    H142728   2.058   5.046  11.476
 7079TIP3    H242729   1.933   5.038  11.390
 7080TIP3   OH242730   5.213   5.068   0.102
 7080TIP3    H142731   5.164   5.117   0.036
 7080TIP3    H242732   5.179   5.100   0.185
 7081TIP3   OH242733   6.730   2.688   4.612
 7081TIP3    H142734   6.791   2.639   4.668
 7081TIP3    H242735   6.687   2.622   4.558
 7082TIP3   OH242736   4.699   5.197  14.662
 7082TIP3    H142737   4.738   5.110  14.673
 7082TIP3    H242738   4.652   5.191  14.578
 7083TIP3   OH242739   3.254   2.778  15.407
 7083TIP3    H142740   3.294   2.695  15.382
 7083TIP3    H242741   3.326   2.841  15.401
 7084TIP3   OH242742   1.118   5.793   2.060
 7084TIP3    H142743   1.171   5.871   2.045
 7084TIP3    H242744   1.171   5.739   2.119
 7085TIP3   OH242745   1.427   5.928  12.681
 7085TIP3    H142746   1.404   5.835  12.688
 7085TIP3    H242747   1.357   5.974  12.728
 7086TIP3   OH242748   2.719   1.037   1.337
 7086TIP3    H142749   2.757   1.122   1.315
 7086TIP3    H242750   2.640   1.058   1.386
 7087TIP3   OH242751   3.448   4.399  13.505
 7087TIP3    H142752   3.514   4.466  13.523
 7087TIP3    H242753   3.457   4.336  13.577
 7088TIP3   OH242754   2.679   3.718   2.643
 7088TIP3    H142755   2.771   3.734   2.666
 7088TIP3    H242756   2.650   3.650   2.704
 7089TIP3   OH242757   5.931   0.794  17.162
 7089TIP3    H142758   5.865   0.735  17.125
 7089TIP3    H242759   6.010   0.741  17.168
 7090TIP3   OH242760   3.056   6.546   4.439
 7090TIP3    H142761   3.085   6.638   4.436
 7090TIP3    H242762   3.000   6.536   4.362
 7091TIP3   OH242763   2.100   6.731   4.728
 7091TIP3    H142764   2.154   6.739   4.806
 7091TIP3    H242765   2.092   6.820   4.695
 7092TIP3   OH242766   5.540   6.192  13.556
 7092TIP3    H142767   5.522   6.160  13.468
 7092TIP3    H242768   5.597   6.268  13.543
 7093TIP3   OH242769   1.356   0.763  15.940
 7093TIP3    H142770   1.323   0.731  15.856
 7093TIP3    H242771   1.297   0.727  16.005
 7094TIP3   OH242772   3.958   0.623  13.511
 7094TIP3    H142773   3.925   0.537  13.486
 7094TIP3    H242774   3.953   0.674  13.430
 7095TIP3   OH242775   4.492   5.250  16.523
 7095TIP3    H142776   4.413   5.199  16.504
 7095TIP3    H242777   4.475   5.289  16.609
 7096TIP3   OH242778   1.643   1.229   2.290
 7096TIP3    H142779   1.596   1.285   2.229
 7096TIP3    H242780   1.648   1.144   2.247
 7097TIP3   OH242781   0.229   5.287  13.561
 7097TIP3    H142782   0.171   5.241  13.622
 7097TIP3    H242783   0.271   5.218  13.511
 7098TIP3   OH242784   4.659   2.766   3.020
 7098TIP3    H142785   4.593   2.752   2.953
 7098TIP3    H242786   4.724   2.697   3.004
 7099TIP3   OH242787   3.696   5.254  12.386
 7099TIP3    H142788   3.709   5.348  12.399
 7099TIP3    H242789   3.725   5.238  12.296
 7100TIP3   OH242790   5.576   0.123  16.938
 7100TIP3    H142791   5.645   0.173  16.982
 7100TIP3    H242792   5.511   0.107  17.007
 7101TIP3   OH242793   0.978   5.911  16.179
 7101TIP3    H142794   0.956   5.824  16.144
 7101TIP3    H242795   0.928   5.972  16.125
 7102TIP3   OH242796   4.243   2.929  10.527
 7102TIP3    H142797   4.323   2.890  10.491
 7102TIP3    H242798   4.232   3.010  10.478
 7103TIP3   OH242799   5.058   1.631  14.805
 7103TIP3    H142800   5.007   1.710  14.823
 7103TIP3    H242801   5.081   1.639  14.713
 7104TIP3   OH242802   5.177   4.706   0.512
 7104TIP3    H142803   5.213   4.708   0.423
 7104TIP3    H242804   5.086   4.735   0.502
 7105TIP3   OH242805   1.548   1.319   2.906
 7105TIP3    H142806   1.487   1.393   2.911
 7105TIP3    H242807   1.537   1.286   2.817
 7106TIP3   OH242808   5.411   3.189   5.976
 7106TIP3    H142809   5.441   3.273   6.011
 7106TIP3    H242810   5.350   3.213   5.906
 7107TIP3   OH242811   2.179   6.131  11.809
 7107TIP3    H142812   2.149   6.143  11.899
 7107TIP3    H242813   2.212   6.042  11.806
 7108TIP3   OH242814   1.142   0.219   3.697
 7108TIP3    H142815   1.055   0.181   3.683
 7108TIP3    H242816   1.175   0.237   3.609
 7109TIP3   OH242817   0.867   6.498  12.912
 7109TIP3    H142818   0.939   6.442  12.940
 7109TIP3    H242819   0.909   6.582  12.894
 7110TIP3   OH242820   0.531   3.283   5.974
 7110TIP3    H142821   0.480   3.312   6.050
 7110TIP3    H242822   0.603   3.233   6.011
 7111TIP3   OH242823   6.005   3.711  11.649
 7111TIP3    H142824   5.925   3.754  11.618
 7111TIP3    H242825   6.055   3.782  11.688
 7112TIP3   OH242826   5.826   5.378   6.422
 7112TIP3    H142827   5.809   5.442   6.353
 7112TIP3    H242828   5.768   5.305   6.401
 7113TIP3   OH242829   6.483   0.274  15.354
 7113TIP3    H142830   6.521   0.362  15.361
 7113TIP3    H242831   6.543   0.227  15.296
 7114TIP3   OH242832   1.594   1.299   1.294
 7114TIP3    H142833   1.659   1.253   1.240
 7114TIP3    H242834   1.516   1.303   1.239
 7115TIP3   OH242835   2.012   2.969  16.377
 7115TIP3    H142836   1.981   2.977  16.287
 7115TIP3    H242837   2.082   2.904  16.374
 7116TIP3   OH242838   3.693   1.120  11.489
 7116TIP3    H142839   3.737   1.108  11.573
 7116TIP3    H242840   3.693   1.214  11.475
 7117TIP3   OH242841   1.585   3.474  16.185
 7117TIP3    H142842   1.565   3.541  16.120
 7117TIP3    H242843   1.628   3.522  16.256
 7118TIP3   OH242844   5.180   2.898   4.197
 7118TIP3    H142845   5.090   2.929   4.204
 7118TIP3    H242846   5.228   2.945   4.265
 7119TIP3   OH242847   4.483   2.758  13.976
 7119TIP3    H142848   4.470   2.847  13.944
 7119TIP3    H242849   4.429   2.704  13.919
 7120TIP3   OH242850   0.967   4.366  11.987
 7120TIP3    H142851   0.890   4.355  12.043
 7120TIP3    H242852   1.003   4.451  12.012
 7121TIP3   OH242853   6.272   2.967   3.310
 7121TIP3    H142854   6.366   2.958   3.324
 7121TIP3    H242855   6.246   3.040   3.367
 7122TIP3   OH242856   5.463   5.960  14.445
 7122TIP3    H142857   5.513   5.879  14.451
 7122TIP3    H242858   5.373   5.934  14.465
 7123TIP3   OH242859   1.515   1.308  11.981
 7123TIP3    H142860   1.497   1.277  11.892
 7123TIP3    H242861   1.586   1.253  12.012
 7124TIP3   OH242862   0.357   0.110   5.966
 7124TIP3    H142863   0.329   0.166   5.893
 7124TIP3    H242864   0.364   0.170   6.040
 7125TIP3   OH242865   6.378   3.385  13.935
 7125TIP3    H142866   6.300   3.393  13.991
 7125TIP3    H242867   6.343   3.371  13.847
 7126TIP3   OH242868   6.428   2.856   6.548
 7126TIP3    H142869   6.366   2.830   6.616
 7126TIP3    H242870   6.455   2.945   6.573
 7127TIP3   OH242871   6.780   5.431  15.192
 7127TIP3    H142872   6.762   5.525  15.200
 7127TIP3    H242873   6.870   5.421  15.223
 7128TIP3   OH242874   6.136   3.960  12.936
 7128TIP3    H142875   6.133   3.917  12.851
 7128TIP3    H242876   6.178   3.897  12.994
 7129TIP3   OH242877   6.042   4.546   0.449
 7129TIP3    H142878   6.049   4.640   0.465
 7129TIP3    H242879   6.039   4.507   0.536
 7130TIP3   OH242880   2.633   6.450  15.609
 7130TIP3    H142881   2.560   6.439  15.548
 7130TIP3    H242882   2.681   6.526  15.575
 7131TIP3   OH242883   2.855   4.409   1.514
 7131TIP3    H142884   2.806   4.349   1.571
 7131TIP3    H242885   2.884   4.354   1.442
 7132TIP3   OH242886   1.569   1.524   4.380
 7132TIP3    H142887   1.653   1.491   4.412
 7132TIP3    H242888   1.563   1.491   4.291
 7133TIP3   OH242889   1.013   5.157   3.390
 7133TIP3    H142890   1.039   5.065   3.380
 7133TIP3    H242891   1.091   5.207   3.368
 7134TIP3   OH242892   3.397   4.360  12.945
 7134TIP3    H142893   3.454   4.374  13.020
 7134TIP3    H242894   3.401   4.441  12.895
 7135TIP3   OH242895   2.318   2.001   5.714
 7135TIP3    H142896   2.260   1.964   5.648
 7135TIP3    H242897   2.322   2.095   5.693
 7136TIP3   OH242898   6.575   4.294  16.779
 7136TIP3    H142899   6.594   4.264  16.690
 7136TIP3    H242900   6.661   4.310  16.817
 7137TIP3   OH242901   2.339   2.602   1.669
 7137TIP3    H142902   2.411   2.593   1.606
 7137TIP3    H242903   2.272   2.541   1.638
 7138TIP3   OH242904   1.097   6.663  16.044
 7138TIP3    H142905   1.050   6.603  15.985
 7138TIP3    H242906   1.180   6.681  15.999
 7139TIP3   OH242907   4.876   1.013  13.346
 7139TIP3    H142908   4.971   1.024  13.344
 7139TIP3    H242909   4.860   0.935  13.293
 7140TIP3   OH242910   4.312   4.419  16.542
 7140TIP3    H142911   4.319   4.328  16.513
 7140TIP3    H242912   4.249   4.417  16.613
 7141TIP3   OH242913   0.370   0.458  15.416
 7141TIP3    H142914   0.340   0.442  15.505
 7141TIP3    H242915   0.451   0.406  15.408
 7142TIP3   OH242916   5.328   2.922  12.259
 7142TIP3    H142917   5.308   2.844  12.207
 7142TIP3    H242918   5.401   2.964  12.213
 7143TIP3   OH242919   1.483   4.154   5.256
 7143TIP3    H142920   1.547   4.220   5.230
 7143TIP3    H242921   1.453   4.116   5.173
 7144TIP3   OH242922   2.711   0.080  12.346
 7144TIP3    H142923   2.624   0.057  12.313
 7144TIP3    H242924   2.742   0.147  12.285
 7145TIP3   OH242925   6.552   2.943   3.310
 7145TIP3    H142926   6.621   3.002   3.340
 7145TIP3    H242927   6.559   2.866   3.367
 7146TIP3   OH242928   4.174   6.163  16.920
 7146TIP3    H142929   4.096   6.215  16.902
 7146TIP3    H242930   4.235   6.187  16.851
 7147TIP3   OH242931   3.972   2.831   1.782
 7147TIP3    H142932   3.948   2.761   1.722
 7147TIP3    H242933   4.059   2.806   1.814
 7148TIP3   OH242934   2.792   3.465  11.568
 7148TIP3    H142935   2.732   3.464  11.642
 7148TIP3    H242936   2.742   3.506  11.497
 7149TIP3   OH242937   2.486   4.543  10.351
 7149TIP3    H142938   2.496   4.448  10.341
 7149TIP3    H242939   2.408   4.552  10.406
 7150TIP3   OH242940   1.253   2.572  13.612
 7150TIP3    H142941   1.224   2.484  13.591
 7150TIP3    H242942   1.270   2.570  13.706
 7151TIP3   OH242943   6.636   1.890   2.903
 7151TIP3    H142944   6.705   1.942   2.943
 7151TIP3    H242945   6.663   1.880   2.812
 7152TIP3   OH242946   0.726   2.540  13.246
 7152TIP3    H142947   0.650   2.511  13.195
 7152TIP3    H242948   0.800   2.531  13.185
 7153TIP3   OH242949   1.338   3.973  13.965
 7153TIP3    H142950   1.308   4.028  13.893
 7153TIP3    H242951   1.271   3.904  13.970
 7154TIP3   OH242952   5.352   1.002   0.561
 7154TIP3    H142953   5.275   0.981   0.508
 7154TIP3    H242954   5.334   0.961   0.646
 7155TIP3   OH242955   2.180   3.176   4.935
 7155TIP3    H142956   2.196   3.265   4.903
 7155TIP3    H242957   2.097   3.151   4.895
 7156TIP3   OH242958   1.015   0.186   6.155
 7156TIP3    H142959   1.081   0.255   6.156
 7156TIP3    H242960   1.058   0.111   6.197
 7157TIP3   OH242961   6.439   0.256   5.052
 7157TIP3    H142962   6.485   0.282   4.972
 7157TIP3    H242963   6.385   0.333   5.074
 7158TIP3   OH242964   1.015   1.604   0.350
 7158TIP3    H142965   0.929   1.569   0.374
 7158TIP3    H242966   1.012   1.613   0.254
 7159TIP3   OH242967   3.955   6.392  10.648
 7159TIP3    H142968   3.900   6.460  10.688
 7159TIP3    H242969   3.945   6.316  10.706
 7160TIP3   OH242970   1.672   4.028  10.689
 7160TIP3    H142971   1.681   4.033  10.594
 7160TIP3    H242972   1.591   3.978  10.702
 7161TIP3   OH242973   4.973   1.003   1.028
 7161TIP3    H142974   4.925   0.929   0.990
 7161TIP3    H242975   4.926   1.024   1.109
 7162TIP3   OH242976   4.174   1.620   1.113
 7162TIP3    H142977   4.244   1.643   1.173
 7162TIP3    H242978   4.101   1.595   1.170
 7163TIP3   OH242979   5.919   2.030   2.888
 7163TIP3    H142980   5.945   2.114   2.848
 7163TIP3    H242981   5.909   2.051   2.981
 7164TIP3   OH242982   6.757   2.002   0.440
 7164TIP3    H142983   6.710   1.970   0.517
 7164TIP3    H242984   6.694   2.058   0.395
 7165TIP3   OH242985   3.583   3.640   3.869
 7165TIP3    H142986   3.538   3.724   3.881
 7165TIP3    H242987   3.515   3.575   3.879
 7166TIP3   OH242988   1.217   4.905  11.187
 7166TIP3    H142989   1.170   4.985  11.163
 7166TIP3    H242990   1.152   4.835  11.175
 7167TIP3   OH242991   1.318   4.941   6.028
 7167TIP3    H142992   1.348   5.029   6.048
 7167TIP3    H242993   1.224   4.951   6.011
 7168TIP3   OH242994   4.595   3.708  10.807
 7168TIP3    H142995   4.553   3.706  10.893
 7168TIP3    H242996   4.688   3.708  10.826
 7169TIP3   OH242997   6.424   3.708   5.090
 7169TIP3    H142998   6.384   3.768   5.027
 7169TIP3    H242999   6.365   3.632   5.090
 7170TIP3   OH243000   1.539   4.646   4.492
 7170TIP3    H143001   1.454   4.603   4.499
 7170TIP3    H243002   1.528   4.710   4.422
 7171TIP3   OH243003   4.539   4.381   0.155
 7171TIP3    H143004   4.584   4.333   0.085
 7171TIP3    H243005   4.446   4.372   0.135
 7172TIP3   OH243006   4.322   3.782   3.636
 7172TIP3    H143007   4.314   3.863   3.585
 7172TIP3    H243008   4.360   3.811   3.719
 7173TIP3   OH243009   4.554   1.631   2.366
 7173TIP3    H143010   4.542   1.703   2.428
 7173TIP3    H243011   4.518   1.555   2.411
 7174TIP3   OH243012   4.893   6.785  12.311
 7174TIP3    H143013   4.946   6.710  12.336
 7174TIP3    H243014   4.815   6.779  12.367
 7175TIP3   OH243015   3.697   1.256   3.999
 7175TIP3    H143016   3.704   1.351   4.013
 7175TIP3    H243017   3.768   1.219   4.051
 7176TIP3   OH243018   4.498   0.576   2.574
 7176TIP3    H143019   4.466   0.487   2.583
 7176TIP3    H243020   4.470   0.604   2.487
 7177TIP3   OH243021   2.882   5.811  12.999
 7177TIP3    H143022   2.890   5.799  13.094
 7177TIP3    H243023   2.874   5.905  12.987
 7178TIP3   OH243024   3.439   6.190   2.908
 7178TIP3    H143025   3.525   6.232   2.900
 7178TIP3    H243026   3.448   6.109   2.857
 7179TIP3   OH243027   1.860   5.193   1.724
 7179TIP3    H143028   1.811   5.148   1.655
 7179TIP3    H243029   1.901   5.267   1.679
 7180TIP3   OH243030   3.120   2.450  13.555
 7180TIP3    H143031   3.211   2.427  13.536
 7180TIP3    H243032   3.095   2.391  13.627
 7181TIP3   OH243033   6.050   1.635  12.536
 7181TIP3    H143034   5.986   1.699  12.506
 7181TIP3    H243035   6.130   1.686  12.550
 7182TIP3   OH243036   3.963   4.405  15.048
 7182TIP3    H143037   3.964   4.404  15.144
 7182TIP3    H243038   4.039   4.458  15.024
 7183TIP3   OH243039   4.972   0.024   4.644
 7183TIP3    H143040   5.067   0.038   4.641
 7183TIP3    H243041   4.962  -0.069   4.664
 7184TIP3   OH243042   6.135   3.645   4.722
 7184TIP3    H143043   6.046   3.673   4.702
 7184TIP3    H243044   6.166   3.605   4.640
 7185TIP3   OH243045   2.498   4.115   1.879
 7185TIP3    H143046   2.566   4.048   1.878
 7185TIP3    H243047   2.517   4.168   1.956
 7186TIP3   OH243048   2.538   6.271  12.672
 7186TIP3    H143049   2.557   6.177  12.675
 7186TIP3    H243050   2.446   6.278  12.698
 7187TIP3   OH243051   4.975   2.603   5.567
 7187TIP3    H143052   5.034   2.677   5.581
 7187TIP3    H243053   5.000   2.567   5.482
 7188TIP3   OH243054   4.263   1.019  14.469
 7188TIP3    H143055   4.312   1.050  14.393
 7188TIP3    H243056   4.276   0.924  14.468
 7189TIP3   OH243057   2.890   1.071  11.505
 7189TIP3    H143058   2.804   1.106  11.530
 7189TIP3    H243059   2.953   1.127  11.550
 7190TIP3   OH243060   5.132   2.055   2.439
 7190TIP3    H143061   5.123   2.139   2.394
 7190TIP3    H243062   5.224   2.053   2.468
 7191TIP3   OH243063   3.601   0.365   5.658
 7191TIP3    H143064   3.562   0.285   5.623
 7191TIP3    H243065   3.536   0.433   5.640
 7192TIP3   OH243066   5.982   0.985   4.512
 7192TIP3    H143067   5.892   0.978   4.480
 7192TIP3    H243068   6.017   1.063   4.470
 7193TIP3   OH243069   6.111   1.757  15.079
 7193TIP3    H143070   6.140   1.666  15.071
 7193TIP3    H243071   6.191   1.807  15.092
 7194TIP3   OH243072   5.750   3.747  14.588
 7194TIP3    H143073   5.722   3.691  14.516
 7194TIP3    H243074   5.844   3.731  14.595
 7195TIP3   OH243075   3.609   1.423  12.186
 7195TIP3    H143076   3.699   1.393  12.179
 7195TIP3    H243077   3.604   1.499  12.128
 7196TIP3   OH243078   6.572   0.207   0.799
 7196TIP3    H143079   6.494   0.217   0.854
 7196TIP3    H243080   6.634   0.271   0.834
 7197TIP3   OH243081   1.607   4.524   2.492
 7197TIP3    H143082   1.662   4.589   2.536
 7197TIP3    H243083   1.590   4.458   2.559
 7198TIP3   OH243084   1.526   1.492   6.382
 7198TIP3    H143085   1.520   1.587   6.370
 7198TIP3    H243086   1.457   1.471   6.444
 7199TIP3   OH243087   1.678   4.614   0.260
 7199TIP3    H143088   1.679   4.647   0.349
 7199TIP3    H243089   1.763   4.570   0.250
 7200TIP3   OH243090   4.257   5.085  16.464
 7200TIP3    H143091   4.167   5.055  16.471
 7200TIP3    H243092   4.273   5.093  16.370
 7201TIP3   OH243093   4.606   3.052  15.103
 7201TIP3    H143094   4.544   3.111  15.061
 7201TIP3    H243095   4.670   3.111  15.144
 7202TIP3   OH243096   4.866   2.497  16.710
 7202TIP3    H143097   4.861   2.539  16.796
 7202TIP3    H243098   4.948   2.447  16.713
 7203TIP3   OH243099   1.393   4.522  11.238
 7203TIP3    H143100   1.325   4.556  11.296
 7203TIP3    H243101   1.357   4.533  11.150
 7204TIP3   OH243102   1.244   6.594  16.277
 7204TIP3    H143103   1.193   6.633  16.206
 7204TIP3    H243104   1.210   6.635  16.357
 7205TIP3   OH243105   0.459   2.612  10.668
 7205TIP3    H143106   0.489   2.560  10.593
 7205TIP3    H243107   0.366   2.592  10.675
 7206TIP3   OH243108   5.487   2.363   0.514
 7206TIP3    H143109   5.416   2.417   0.479
 7206TIP3    H243110   5.513   2.408   0.595
 7207TIP3   OH243111   1.113   4.751  13.204
 7207TIP3    H143112   1.069   4.713  13.128
 7207TIP3    H243113   1.205   4.730  13.191
 7208TIP3   OH243114   5.383   0.867  14.614
 7208TIP3    H143115   5.415   0.793  14.666
 7208TIP3    H243116   5.336   0.826  14.541
 7209TIP3   OH243117   4.000   0.931  11.967
 7209TIP3    H143118   4.033   1.005  11.915
 7209TIP3    H243119   3.969   0.869  11.901
 7210TIP3   OH243120   3.363   3.177   2.474
 7210TIP3    H143121   3.395   3.249   2.529
 7210TIP3    H243122   3.381   3.098   2.526
 7211TIP3   OH243123   4.752   6.238   2.103
 7211TIP3    H143124   4.783   6.269   2.189
 7211TIP3    H243125   4.825   6.257   2.044
 7212TIP3   OH243126   2.176   6.097  13.620
 7212TIP3    H143127   2.199   6.012  13.658
 7212TIP3    H243128   2.217   6.161  13.677
 7213TIP3   OH243129   2.404   2.705   2.172
 7213TIP3    H143130   2.376   2.644   2.104
 7213TIP3    H243131   2.399   2.791   2.130
 7214TIP3   OH243132   5.871   0.494   0.020
 7214TIP3    H143133   5.885   0.443   0.099
 7214TIP3    H243134   5.957   0.534   0.002
 7215TIP3   OH243135   1.700   4.471  11.748
 7215TIP3    H143136   1.735   4.440  11.665
 7215TIP3    H243137   1.706   4.395  11.806
 7216TIP3   OH243138   4.521   6.127  15.671
 7216TIP3    H143139   4.558   6.042  15.644
 7216TIP3    H243140   4.594   6.188  15.663
 7217TIP3   OH243141   6.237   1.177  16.893
 7217TIP3    H143142   6.212   1.258  16.848
 7217TIP3    H243143   6.188   1.180  16.976
 7218TIP3   OH243144   6.170   5.095   0.219
 7218TIP3    H143145   6.086   5.125   0.254
 7218TIP3    H243146   6.189   5.015   0.269
 7219TIP3   OH243147   4.692   1.779  13.903
 7219TIP3    H143148   4.753   1.732  13.961
 7219TIP3    H243149   4.711   1.872  13.918
 7220TIP3   OH243150   2.160   2.735   5.644
 7220TIP3    H143151   2.170   2.731   5.549
 7220TIP3    H243152   2.237   2.784   5.674
 7221TIP3   OH243153   2.605   6.132   0.802
 7221TIP3    H143154   2.536   6.193   0.777
 7221TIP3    H243155   2.687   6.176   0.778
 7222TIP3   OH243156   0.946   0.461  15.802
 7222TIP3    H143157   0.965   0.425  15.889
 7222TIP3    H243158   1.026   0.445  15.751
 7223TIP3   OH243159   0.531   5.268   0.103
 7223TIP3    H143160   0.578   5.270   0.186
 7223TIP3    H243161   0.501   5.177   0.095
 7224TIP3   OH243162   3.219   0.583  10.427
 7224TIP3    H143163   3.135   0.606  10.466
 7224TIP3    H243164   3.273   0.662  10.436
 7225TIP3   OH243165   2.871   0.564   5.802
 7225TIP3    H143166   2.908   0.555   5.891
 7225TIP3    H243167   2.782   0.595   5.816
 7226TIP3   OH243168   2.154   1.181  14.107
 7226TIP3    H143169   2.237   1.180  14.059
 7226TIP3    H243170   2.126   1.272  14.105
 7227TIP3   OH243171   2.988   0.075  12.072
 7227TIP3    H143172   3.012  -0.014  12.099
 7227TIP3    H243173   3.051   0.132  12.117
 7228TIP3   OH243174   3.694   5.155  15.437
 7228TIP3    H143175   3.755   5.086  15.464
 7228TIP3    H243176   3.653   5.185  15.519
 7229TIP3   OH243177   2.464   5.717   0.915
 7229TIP3    H143178   2.390   5.662   0.942
 7229TIP3    H243179   2.530   5.654   0.886
 7230TIP3   OH243180   2.279   3.708  13.021
 7230TIP3    H143181   2.301   3.786  13.073
 7230TIP3    H243182   2.308   3.635  13.075
 7231TIP3   OH243183   6.139   6.018   0.562
 7231TIP3    H143184   6.095   5.936   0.539
 7231TIP3    H243185   6.126   6.027   0.656
 7232TIP3   OH243186   5.512   5.965   0.168
 7232TIP3    H143187   5.595   5.917   0.160
 7232TIP3    H243188   5.460   5.913   0.229
 7233TIP3   OH243189   2.139   4.496   5.821
 7233TIP3    H143190   2.218   4.464   5.776
 7233TIP3    H243191   2.172   4.563   5.881
 7234TIP3   OH243192   4.753   5.851   4.698
 7234TIP3    H143193   4.672   5.897   4.677
 7234TIP3    H243194   4.733   5.759   4.683
 7235TIP3   OH243195   2.381   5.241  13.775
 7235TIP3    H143196   2.432   5.191  13.712
 7235TIP3    H243197   2.420   5.219  13.860
 7236TIP3   OH243198   2.947   0.906   1.982
 7236TIP3    H143199   3.003   0.904   1.904
 7236TIP3    H243200   2.983   0.978   2.034
 7237TIP3   OH243201   3.093   1.799  12.146
 7237TIP3    H143202   3.030   1.736  12.180
 7237TIP3    H243203   3.178   1.757  12.159
 7238TIP3   OH243204   2.042   4.889  14.415
 7238TIP3    H143205   2.062   4.798  14.434
 7238TIP3    H243206   2.093   4.939  14.478
 7239TIP3   OH243207   0.409   3.588   6.013
 7239TIP3    H143208   0.479   3.541   6.058
 7239TIP3    H243209   0.337   3.591   6.076
 7240TIP3   OH243210   2.430   4.336   2.603
 7240TIP3    H143211   2.420   4.430   2.613
 7240TIP3    H243212   2.362   4.311   2.540
 7241TIP3   OH243213   2.926   3.839   5.118
 7241TIP3    H143214   2.917   3.807   5.208
 7241TIP3    H243215   2.867   3.914   5.113
 7242TIP3   OH243216   5.217   6.254   4.322
 7242TIP3    H143217   5.221   6.273   4.416
 7242TIP3    H243218   5.160   6.322   4.286
 7243TIP3   OH243219   2.050   4.207   0.285
 7243TIP3    H143220   2.052   4.223   0.191
 7243TIP3    H243221   1.974   4.256   0.316
 7244TIP3   OH243222   3.142   3.657  15.820
 7244TIP3    H143223   3.158   3.604  15.742
 7244TIP3    H243224   3.150   3.595  15.893
 7245TIP3   OH243225   3.797   3.715  12.669
 7245TIP3    H143226   3.757   3.710  12.755
 7245TIP3    H243227   3.744   3.778  12.621
 7246TIP3   OH243228   0.340   2.501   1.858
 7246TIP3    H143229   0.387   2.471   1.781
 7246TIP3    H243230   0.348   2.429   1.921
 7247TIP3   OH243231   4.466   6.333   0.504
 7247TIP3    H143232   4.396   6.349   0.567
 7247TIP3    H243233   4.456   6.241   0.479
 7248TIP3   OH243234   2.740   2.372  15.260
 7248TIP3    H143235   2.829   2.338  15.247
 7248TIP3    H243236   2.721   2.422  15.181
 7249TIP3   OH243237   4.866   4.555   4.923
 7249TIP3    H143238   4.949   4.597   4.945
 7249TIP3    H243239   4.802   4.627   4.921
 7250TIP3   OH243240   2.715   4.577  17.171
 7250TIP3    H143241   2.761   4.619  17.243
 7250TIP3    H243242   2.782   4.560  17.105
 7251TIP3   OH243243   4.321   1.081  16.541
 7251TIP3    H143244   4.320   1.015  16.610
 7251TIP3    H243245   4.322   1.030  16.459
 7252TIP3   OH243246   2.459   2.021   2.622
 7252TIP3    H143247   2.472   2.086   2.691
 7252TIP3    H243248   2.377   2.048   2.579
 7253TIP3   OH243249   6.450   3.318  14.506
 7253TIP3    H143250   6.526   3.340  14.559
 7253TIP3    H243251   6.437   3.395  14.449
 7254TIP3   OH243252   1.250   3.020  15.069
 7254TIP3    H143253   1.289   3.108  15.070
 7254TIP3    H243254   1.181   3.025  15.004
 7255TIP3   OH243255   2.260   6.556  13.957
 7255TIP3    H143256   2.266   6.570  14.051
 7255TIP3    H243257   2.193   6.617  13.927
 7256TIP3   OH243258   2.070   1.556  16.052
 7256TIP3    H143259   1.984   1.570  16.013
 7256TIP3    H243260   2.060   1.583  16.144
 7257TIP3   OH243261   2.265   0.877  17.160
 7257TIP3    H143262   2.309   0.958  17.138
 7257TIP3    H243263   2.177   0.886  17.124
 7258TIP3   OH243264   5.075   1.534   0.749
 7258TIP3    H143265   5.128   1.582   0.685
 7258TIP3    H243266   5.030   1.467   0.698
 7259TIP3   OH243267   5.971   1.063  11.085
 7259TIP3    H143268   6.007   1.141  11.044
 7259TIP3    H243269   6.036   0.995  11.067
 7260TIP3   OH243270   2.364   2.318   3.173
 7260TIP3    H143271   2.388   2.310   3.265
 7260TIP3    H243272   2.321   2.235   3.152
 7261TIP3   OH243273   4.897   2.742   2.168
 7261TIP3    H143274   4.959   2.679   2.133
 7261TIP3    H243275   4.825   2.744   2.104
 7262TIP3   OH243276   4.892   3.384   2.596
 7262TIP3    H143277   4.877   3.477   2.577
 7262TIP3    H243278   4.929   3.349   2.515
 7263TIP3   OH243279   2.854   4.201   1.818
 7263TIP3    H143280   2.921   4.216   1.885
 7263TIP3    H243281   2.794   4.274   1.828
 7264TIP3   OH243282   3.765   2.964   3.770
 7264TIP3    H143283   3.849   2.918   3.764
 7264TIP3    H243284   3.779   3.044   3.719
 7265TIP3   OH243285   1.270   4.944   3.402
 7265TIP3    H143286   1.348   4.914   3.354
 7265TIP3    H243287   1.299   4.950   3.493
 7266TIP3   OH243288   3.585   5.687   3.623
 7266TIP3    H143289   3.630   5.620   3.572
 7266TIP3    H243290   3.551   5.640   3.699
 7267TIP3   OH243291   1.566   5.575   3.458
 7267TIP3    H143292   1.516   5.521   3.518
 7267TIP3    H243293   1.657   5.548   3.470
 7268TIP3   OH243294   1.503   0.369  11.961
 7268TIP3    H143295   1.531   0.434  12.025
 7268TIP3    H243296   1.494   0.288  12.011
 7269TIP3   OH243297   4.946   6.500   1.396
 7269TIP3    H143298   4.851   6.488   1.396
 7269TIP3    H243299   4.959   6.589   1.365
 7270TIP3   OH243300   2.369   2.946  14.609
 7270TIP3    H143301   2.455   2.986  14.618
 7270TIP3    H243302   2.375   2.891  14.531
 7271TIP3   OH243303   6.348   6.295  11.540
 7271TIP3    H143304   6.305   6.380  11.529
 7271TIP3    H243305   6.335   6.250  11.457
 7272TIP3   OH243306   3.535   0.022  16.341
 7272TIP3    H143307   3.449   0.038  16.380
 7272TIP3    H243308   3.546  -0.073  16.345
 7273TIP3   OH243309   5.417   5.655   3.973
 7273TIP3    H143310   5.490   5.609   3.931
 7273TIP3    H243311   5.448   5.746   3.981
 7274TIP3   OH243312   0.935   4.874   4.955
 7274TIP3    H143313   1.017   4.895   5.000
 7274TIP3    H243314   0.889   4.815   5.015
 7275TIP3   OH243315   5.073   1.821   1.457
 7275TIP3    H143316   5.153   1.842   1.506
 7275TIP3    H243317   5.104   1.800   1.369
 7276TIP3   OH243318   2.626   4.226   4.513
 7276TIP3    H143319   2.607   4.313   4.548
 7276TIP3    H243320   2.553   4.172   4.542
 7277TIP3   OH243321   4.362   1.723   1.260
 7277TIP3    H143322   4.358   1.757   1.350
 7277TIP3    H243323   4.390   1.797   1.207
 7278TIP3   OH243324   1.601   5.506   1.624
 7278TIP3    H143325   1.692   5.482   1.608
 7278TIP3    H243326   1.567   5.436   1.679
 7279TIP3   OH243327   2.285   4.279   4.414
 7279TIP3    H143328   2.347   4.330   4.467
 7279TIP3    H243329   2.204   4.279   4.466
 7280TIP3   OH243330   4.732   3.141  11.272
 7280TIP3    H143331   4.787   3.118  11.197
 7280TIP3    H243332   4.754   3.078  11.340
 7281TIP3   OH243333   0.190   2.672   5.193
 7281TIP3    H143334   0.253   2.628   5.250
 7281TIP3    H243335   0.122   2.704   5.253
 7282TIP3   OH243336   5.767   5.203  12.583
 7282TIP3    H143337   5.856   5.234  12.564
 7282TIP3    H243338   5.780   5.134  12.648
 7283TIP3   OH243339   5.741   5.170   3.944
 7283TIP3    H143340   5.834   5.172   3.921
 7283TIP3    H243341   5.725   5.080   3.973
 7284TIP3   OH243342   5.266   0.899  16.807
 7284TIP3    H143343   5.204   0.967  16.782
 7284TIP3    H243344   5.343   0.915  16.752
 7285TIP3   OH243345   3.655   2.028  12.525
 7285TIP3    H143346   3.694   2.105  12.483
 7285TIP3    H243347   3.719   2.002  12.591
 7286TIP3   OH243348   5.306   0.529  15.815
 7286TIP3    H143349   5.317   0.589  15.741
 7286TIP3    H243350   5.368   0.458  15.797
 7287TIP3   OH243351   5.055   4.986   4.181
 7287TIP3    H143352   4.972   5.009   4.222
 7287TIP3    H243353   5.084   4.908   4.228
 7288TIP3   OH243354   5.435   5.352  12.909
 7288TIP3    H143355   5.371   5.367  12.839
 7288TIP3    H243356   5.500   5.295  12.870
 7289TIP3   OH243357   1.510   3.804  12.843
 7289TIP3    H143358   1.566   3.729  12.865
 7289TIP3    H243359   1.462   3.823  12.923
 7290TIP3   OH243360   2.529   4.921   5.958
 7290TIP3    H143361   2.502   4.994   5.902
 7290TIP3    H243362   2.612   4.950   5.996
 7291TIP3   OH243363   0.948   1.926   5.529
 7291TIP3    H143364   0.867   1.945   5.577
 7291TIP3    H243365   0.940   1.975   5.447
 7292TIP3   OH243366   1.943   2.004   6.011
 7292TIP3    H143367   2.016   2.064   6.023
 7292TIP3    H243368   1.947   1.947   6.088
 7293TIP3   OH243369   4.454   1.425   2.512
 7293TIP3    H143370   4.372   1.417   2.559
 7293TIP3    H243371   4.521   1.401   2.576
 7294TIP3   OH243372   2.982   6.259  11.571
 7294TIP3    H143373   2.923   6.332  11.552
 7294TIP3    H243374   2.923   6.186  11.592
 7295TIP3   OH243375   6.507   4.122   6.064
 7295TIP3    H143376   6.479   4.052   6.123
 7295TIP3    H243377   6.502   4.084   5.977
 7296TIP3   OH243378   6.738   0.397   0.907
 7296TIP3    H143379   6.819   0.437   0.873
 7296TIP3    H243380   6.705   0.460   0.970
 7297TIP3   OH243381   2.081   2.563  15.636
 7297TIP3    H143382   2.066   2.477  15.675
 7297TIP3    H243383   2.044   2.624  15.700
 7298TIP3   OH243384   0.955   2.029  14.808
 7298TIP3    H143385   1.040   2.063  14.782
 7298TIP3    H243386   0.898   2.107  14.811
 7299TIP3   OH243387   0.524   3.516  13.809
 7299TIP3    H143388   0.488   3.583  13.751
 7299TIP3    H243389   0.541   3.440  13.752
 7300TIP3   OH243390   6.321   6.327   6.155
 7300TIP3    H143391   6.401   6.375   6.131
 7300TIP3    H243392   6.353   6.250   6.202
 7301TIP3   OH243393   4.350   1.267   0.962
 7301TIP3    H143394   4.354   1.362   0.961
 7301TIP3    H243395   4.256   1.247   0.959
 7302TIP3   OH243396   4.289   4.080   1.477
 7302TIP3    H143397   4.326   4.080   1.565
 7302TIP3    H243398   4.360   4.110   1.420
 7303TIP3   OH243399   4.066   2.133  12.686
 7303TIP3    H143400   4.114   2.196  12.634
 7303TIP3    H243401   4.071   2.166  12.776
 7304TIP3   OH243402   5.435   5.526  15.759
 7304TIP3    H143403   5.359   5.580  15.739
 7304TIP3    H243404   5.483   5.575  15.826
 7305TIP3   OH243405   5.598   0.598   4.271
 7305TIP3    H143406   5.561   0.607   4.359
 7305TIP3    H243407   5.528   0.627   4.213
 7306TIP3   OH243408   4.906   1.082   1.294
 7306TIP3    H143409   4.836   1.143   1.316
 7306TIP3    H243410   4.977   1.104   1.354
 7307TIP3   OH243411   3.757   6.526  10.810
 7307TIP3    H143412   3.796   6.601  10.855
 7307TIP3    H243413   3.669   6.555  10.788
 7308TIP3   OH243414   4.878   3.108   5.070
 7308TIP3    H143415   4.906   3.199   5.060
 7308TIP3    H243416   4.789   3.115   5.105
 7309TIP3   OH243417   0.065   3.015  12.696
 7309TIP3    H143418   0.002   2.984  12.631
 7309TIP3    H243419   0.149   2.984  12.663
 7310TIP3   OH243420   6.566   2.029  14.949
 7310TIP3    H143421   6.579   2.029  14.855
 7310TIP3    H243422   6.565   2.122  14.974
 7311TIP3   OH243423   3.459   4.585   4.718
 7311TIP3    H143424   3.443   4.672   4.754
 7311TIP3    H243425   3.505   4.602   4.636
 7312TIP3   OH243426   2.623   2.101  12.513
 7312TIP3    H143427   2.595   2.028  12.568
 7312TIP3    H243428   2.545   2.154  12.502
 7313TIP3   OH243429   4.394   0.565  12.710
 7313TIP3    H143430   4.450   0.523  12.775
 7313TIP3    H243431   4.448   0.636  12.675
 7314TIP3   OH243432   0.618   1.014  15.726
 7314TIP3    H143433   0.689   1.042  15.784
 7314TIP3    H243434   0.661   0.963  15.657
 7315TIP3   OH243435   6.197   3.194   4.524
 7315TIP3    H143436   6.184   3.171   4.432
 7315TIP3    H243437   6.292   3.189   4.536
 7316TIP3   OH243438   1.058   1.147  13.241
 7316TIP3    H143439   0.970   1.118  13.264
 7316TIP3    H243440   1.063   1.136  13.146
 7317TIP3   OH243441   1.258   6.272   4.628
 7317TIP3    H143442   1.191   6.340   4.619
 7317TIP3    H243443   1.316   6.286   4.553
 7318TIP3   OH243444   3.708   0.202  12.556
 7318TIP3    H143445   3.671   0.114  12.553
 7318TIP3    H243446   3.760   0.209  12.476
 7319TIP3   OH243447   0.257   6.474  17.187
 7319TIP3    H143448   0.230   6.494  17.098
 7319TIP3    H243449   0.326   6.409  17.178
 7320TIP3   OH243450   4.531   3.327  17.180
 7320TIP3    H143451   4.494   3.326  17.092
 7320TIP3    H243452   4.616   3.284  17.171
 7321TIP3   OH243453   4.458   6.457  17.184
 7321TIP3    H143454   4.444   6.529  17.122
 7321TIP3    H243455   4.515   6.495  17.252
 7322TIP3   OH243456   0.811   4.678   5.494
 7322TIP3    H143457   0.817   4.706   5.585
 7322TIP3    H243458   0.848   4.589   5.494
 7323TIP3   OH243459   3.477   0.633  14.995
 7323TIP3    H143460   3.531   0.625  15.074
 7323TIP3    H243461   3.521   0.579  14.930
 7324TIP3   OH243462   6.381   1.600  13.716
 7324TIP3    H143463   6.455   1.589  13.657
 7324TIP3    H243464   6.410   1.664  13.781
 7325TIP3   OH243465   1.124   4.925  12.101
 7325TIP3    H143466   1.084   5.004  12.136
 7325TIP3    H243467   1.104   4.857  12.166
 7326TIP3   OH243468   0.662   6.432   2.812
 7326TIP3    H143469   0.575   6.460   2.783
 7326TIP3    H243470   0.678   6.351   2.763
 7327TIP3   OH243471   0.057   5.405  16.543
 7327TIP3    H143472   0.140   5.378  16.582
 7327TIP3    H243473   0.008   5.443  16.615
 7328TIP3   OH243474   2.347   2.793  11.639
 7328TIP3    H143475   2.328   2.878  11.599
 7328TIP3    H243476   2.274   2.778  11.699
 7329TIP3   OH243477   4.787   6.336  12.633
 7329TIP3    H143478   4.718   6.298  12.687
 7329TIP3    H243479   4.741   6.398  12.576
 7330TIP3   OH243480   1.701   0.477   4.675
 7330TIP3    H143481   1.607   0.490   4.660
 7330TIP3    H243482   1.708   0.386   4.705
 7331TIP3   OH243483   6.353   1.963   2.379
 7331TIP3    H143484   6.392   1.926   2.459
 7331TIP3    H243485   6.298   2.034   2.409
 7332TIP3   OH243486   1.753   3.899   3.022
 7332TIP3    H143487   1.690   3.932   2.959
 7332TIP3    H243488   1.789   3.820   2.982
 7333TIP3   OH243489   4.110   0.343   1.830
 7333TIP3    H143490   4.151   0.318   1.747
 7333TIP3    H243491   4.084   0.259   1.869
 7334TIP3   OH243492   2.388   4.860  15.638
 7334TIP3    H143493   2.294   4.844  15.633
 7334TIP3    H243494   2.414   4.878  15.548
 7335TIP3   OH243495   4.446   0.728   3.676
 7335TIP3    H143496   4.410   0.814   3.653
 7335TIP3    H243497   4.505   0.745   3.749
 7336TIP3   OH243498   5.255   5.522   4.169
 7336TIP3    H143499   5.337   5.525   4.119
 7336TIP3    H243500   5.215   5.438   4.145
 7337TIP3   OH243501   4.822   4.961   3.301
 7337TIP3    H143502   4.845   5.042   3.255
 7337TIP3    H243503   4.754   4.921   3.247
 7338TIP3   OH243504   5.759   6.521   0.707
 7338TIP3    H143505   5.767   6.522   0.611
 7338TIP3    H243506   5.777   6.431   0.732
 7339TIP3   OH243507   4.407   1.373  13.649
 7339TIP3    H143508   4.467   1.412  13.712
 7339TIP3    H243509   4.461   1.312  13.598
 7340TIP3   OH243510   2.329   4.341   5.239
 7340TIP3    H143511   2.397   4.403   5.213
 7340TIP3    H243512   2.373   4.279   5.297
 7341TIP3   OH243513   3.434   1.172   3.751
 7341TIP3    H143514   3.348   1.190   3.788
 7341TIP3    H243515   3.478   1.258   3.751
 7342TIP3   OH243516   5.776   3.172   3.711
 7342TIP3    H143517   5.739   3.236   3.771
 7342TIP3    H243518   5.832   3.224   3.652
 7343TIP3   OH243519   1.620   5.658   6.015
 7343TIP3    H143520   1.572   5.707   5.948
 7343TIP3    H243521   1.557   5.594   6.048
 7344TIP3   OH243522   4.494   3.147  11.744
 7344TIP3    H143523   4.439   3.140  11.665
 7344TIP3    H243524   4.467   3.072  11.798
 7345TIP3   OH243525   5.360   0.239  16.273
 7345TIP3    H143526   5.409   0.271  16.349
 7345TIP3    H243527   5.326   0.318  16.231
 7346TIP3   OH243528   2.672   6.591   4.289
 7346TIP3    H143529   2.628   6.603   4.205
 7346TIP3    H243530   2.601   6.577   4.352
 7347TIP3   OH243531   6.674   4.634  14.499
 7347TIP3    H143532   6.692   4.550  14.458
 7347TIP3    H243533   6.708   4.625  14.588
 7348TIP3   OH243534   2.781   5.159  12.121
 7348TIP3    H143535   2.780   5.252  12.145
 7348TIP3    H243536   2.870   5.143  12.089
 7349TIP3   OH243537   4.409   0.344   0.999
 7349TIP3    H143538   4.348   0.285   1.042
 7349TIP3    H243539   4.407   0.424   1.052
 7350TIP3   OH243540   6.009   2.041   0.442
 7350TIP3    H143541   6.002   1.980   0.515
 7350TIP3    H243542   5.922   2.042   0.403
 7351TIP3   OH243543   1.555   3.311   2.944
 7351TIP3    H143544   1.513   3.369   2.881
 7351TIP3    H243545   1.571   3.230   2.895
 7352TIP3   OH243546   2.490   5.276  16.764
 7352TIP3    H143547   2.457   5.192  16.734
 7352TIP3    H243548   2.433   5.300  16.837
 7353TIP3   OH243549   5.084   2.720  12.704
 7353TIP3    H143550   5.056   2.634  12.736
 7353TIP3    H243551   5.179   2.715  12.704
 7354TIP3   OH243552   1.871   0.194   0.864
 7354TIP3    H143553   1.805   0.260   0.843
 7354TIP3    H243554   1.836   0.150   0.942
 7355TIP3   OH243555   3.366   4.052  15.182
 7355TIP3    H143556   3.317   4.133  15.201
 7355TIP3    H243557   3.381   4.055  15.088
 7356TIP3   OH243558   1.842   6.374   4.224
 7356TIP3    H143559   1.899   6.445   4.253
 7356TIP3    H243560   1.820   6.326   4.304
 7357TIP3   OH243561   6.784   3.726   3.557
 7357TIP3    H143562   6.875   3.715   3.585
 7357TIP3    H243563   6.774   3.820   3.543
 7358TIP3   OH243564   4.925   5.791   1.520
 7358TIP3    H143565   4.849   5.792   1.578
 7358TIP3    H243566   4.894   5.832   1.439
 7359TIP3   OH243567   2.502   0.360   2.992
 7359TIP3    H143568   2.597   0.366   3.005
 7359TIP3    H243569   2.489   0.384   2.900
 7360TIP3   OH243570   2.918   2.185  12.968
 7360TIP3    H143571   3.003   2.147  12.989
 7360TIP3    H243572   2.935   2.242  12.893
 7361TIP3   OH243573   0.336   4.424  12.744
 7361TIP3    H143574   0.410   4.456  12.692
 7361TIP3    H243575   0.369   4.420  12.833
 7362TIP3   OH243576   1.612   3.163  14.948
 7362TIP3    H143577   1.531   3.172  14.998
 7362TIP3    H243578   1.597   3.211  14.867
 7363TIP3   OH243579   2.846   3.166  13.760
 7363TIP3    H143580   2.860   3.112  13.682
 7363TIP3    H243581   2.767   3.217  13.740
 7364TIP3   OH243582   1.301   1.243   2.373
 7364TIP3    H143583   1.266   1.254   2.285
 7364TIP3    H243584   1.317   1.332   2.404
 7365TIP3   OH243585   4.349   0.850   0.473
 7365TIP3    H143586   4.420   0.805   0.519
 7365TIP3    H243587   4.307   0.782   0.420
 7366TIP3   OH243588   3.125   0.907  15.213
 7366TIP3    H143589   3.090   0.818  15.214
 7366TIP3    H243590   3.118   0.935  15.121
 7367TIP3   OH243591   6.491   3.692   6.094
 7367TIP3    H143592   6.555   3.660   6.158
 7367TIP3    H243593   6.439   3.756   6.143
 7368TIP3   OH243594   4.143   2.105  14.202
 7368TIP3    H143595   4.194   2.097  14.122
 7368TIP3    H243596   4.130   2.015  14.231
 7369TIP3   OH243597   1.776   0.214   4.626
 7369TIP3    H143598   1.765   0.243   4.535
 7369TIP3    H243599   1.722   0.136   4.632
 7370TIP3   OH243600   0.406   6.143  11.892
 7370TIP3    H143601   0.326   6.092  11.882
 7370TIP3    H243602   0.399   6.212  11.826
 7371TIP3   OH243603   2.411   4.828  15.353
 7371TIP3    H143604   2.327   4.818  15.308
 7371TIP3    H243605   2.447   4.739  15.356
 7372TIP3   OH243606   0.438   0.088  12.579
 7372TIP3    H143607   0.473   0.001  12.602
 7372TIP3    H243608   0.511   0.148  12.596
 7373TIP3   OH243609   4.116   2.560  14.499
 7373TIP3    H143610   4.171   2.633  14.472
 7373TIP3    H243611   4.176   2.486  14.507
 7374TIP3   OH243612   4.295   6.577  16.375
 7374TIP3    H143613   4.225   6.532  16.422
 7374TIP3    H243614   4.303   6.529  16.293
 7375TIP3   OH243615   3.541   6.094  13.948
 7375TIP3    H143616   3.614   6.154  13.933
 7375TIP3    H243617   3.578   6.007  13.933
 7376TIP3   OH243618   2.422   0.638   1.794
 7376TIP3    H143619   2.363   0.635   1.870
 7376TIP3    H243620   2.506   0.668   1.830
 7377TIP3   OH243621   1.937   6.453  16.115
 7377TIP3    H143622   2.014   6.433  16.169
 7377TIP3    H243623   1.952   6.542  16.084
 7378TIP3   OH243624   0.656   1.935  14.859
 7378TIP3    H143625   0.740   1.945  14.815
 7378TIP3    H243626   0.635   2.022  14.892
 7379TIP3   OH243627   1.593   1.303  13.220
 7379TIP3    H143628   1.600   1.377  13.159
 7379TIP3    H243629   1.510   1.261  13.197
 7380TIP3   OH243630   1.842   4.828  15.488
 7380TIP3    H143631   1.792   4.845  15.568
 7380TIP3    H243632   1.901   4.903  15.480
 7381TIP3   OH243633   5.605   6.606  12.788
 7381TIP3    H143634   5.636   6.694  12.766
 7381TIP3    H243635   5.625   6.553  12.711
 7382TIP3   OH243636   6.345   2.662   6.098
 7382TIP3    H143637   6.263   2.712   6.105
 7382TIP3    H243638   6.405   2.706   6.158
 7383TIP3   OH243639   3.875   0.512   2.659
 7383TIP3    H143640   3.871   0.526   2.564
 7383TIP3    H243641   3.802   0.563   2.694
 7384TIP3   OH243642   6.173   0.442  17.034
 7384TIP3    H143643   6.088   0.476  17.007
 7384TIP3    H243644   6.228   0.448  16.955
 7385TIP3   OH243645   5.339   3.445  15.883
 7385TIP3    H143646   5.407   3.512  15.891
 7385TIP3    H243647   5.257   3.493  15.894
 7386TIP3   OH243648   0.362   3.163   0.381
 7386TIP3    H143649   0.332   3.077   0.411
 7386TIP3    H243650   0.457   3.161   0.394
 7387TIP3   OH243651   6.335   5.707  14.199
 7387TIP3    H143652   6.410   5.747  14.245
 7387TIP3    H243653   6.314   5.629  14.249
 7388TIP3   OH243654   1.724   0.492   0.977
 7388TIP3    H143655   1.685   0.578   0.991
 7388TIP3    H243656   1.818   0.509   0.972
 7389TIP3   OH243657   2.083   6.314   1.442
 7389TIP3    H143658   2.088   6.238   1.384
 7389TIP3    H243659   1.994   6.312   1.476
 7390TIP3   OH243660   6.276   4.291  13.914
 7390TIP3    H143661   6.216   4.256  13.848
 7390TIP3    H243662   6.260   4.385  13.914
 7391TIP3   OH243663   6.705   2.906   4.456
 7391TIP3    H143664   6.612   2.890   4.441
 7391TIP3    H243665   6.732   2.834   4.514
 7392TIP3   OH243666   2.966   6.314   1.787
 7392TIP3    H143667   2.875   6.320   1.757
 7392TIP3    H243668   2.986   6.401   1.820
 7393TIP3   OH243669   2.018   5.065  13.939
 7393TIP3    H143670   1.924   5.084  13.942
 7393TIP3    H243671   2.026   4.994  13.875
 7394TIP3   OH243672   1.940   3.676   0.781
 7394TIP3    H143673   1.928   3.676   0.876
 7394TIP3    H243674   1.961   3.767   0.760
 7395TIP3   OH243675   6.401   1.463  12.906
 7395TIP3    H143676   6.342   1.419  12.844
 7395TIP3    H243677   6.385   1.419  12.989
 7396TIP3   OH243678   5.050   4.209  14.096
 7396TIP3    H143679   5.039   4.268  14.171
 7396TIP3    H243680   5.132   4.163  14.114
 7397TIP3   OH243681   0.793   3.560   0.316
 7397TIP3    H143682   0.885   3.586   0.312
 7397TIP3    H243683   0.775   3.517   0.233
 7398TIP3   OH243684   0.036   1.799  15.512
 7398TIP3    H143685   0.113   1.760  15.472
 7398TIP3    H243686   0.015   1.874  15.456
 7399TIP3   OH243687   3.531   3.018  14.611
 7399TIP3    H143688   3.624   3.041  14.615
 7399TIP3    H243689   3.521   2.951  14.679
 7400TIP3   OH243690   4.969   5.635  11.739
 7400TIP3    H143691   5.000   5.556  11.696
 7400TIP3    H243692   4.873   5.629  11.733
 7401TIP3   OH243693   0.099   4.252  12.529
 7401TIP3    H143694   0.094   4.245  12.434
 7401TIP3    H243695   0.014   4.290  12.555
 7402TIP3   OH243696   4.370   3.423   0.430
 7402TIP3    H143697   4.364   3.470   0.347
 7402TIP3    H243698   4.461   3.432   0.456
 7403TIP3   OH243699   5.587   2.464  16.244
 7403TIP3    H143700   5.572   2.536  16.183
 7403TIP3    H243701   5.579   2.385  16.191
 7404TIP3   OH243702   4.164   1.449  11.852
 7404TIP3    H143703   4.198   1.414  11.769
 7404TIP3    H243704   4.186   1.382  11.917
 7405TIP3   OH243705   1.574   0.555   3.743
 7405TIP3    H143706   1.642   0.575   3.807
 7405TIP3    H243707   1.542   0.469   3.768
 7406TIP3   OH243708   3.108   0.276   3.462
 7406TIP3    H143709   3.113   0.282   3.366
 7406TIP3    H243710   3.078   0.187   3.478
 7407TIP3   OH243711   6.068   2.193   4.930
 7407TIP3    H143712   6.143   2.155   4.977
 7407TIP3    H243713   6.085   2.287   4.929
 7408TIP3   OH243714   0.376   1.551  13.412
 7408TIP3    H143715   0.348   1.642  13.403
 7408TIP3    H243716   0.312   1.501  13.362
 7409TIP3   OH243717   6.629   5.665  13.701
 7409TIP3    H143718   6.544   5.655  13.659
 7409TIP3    H243719   6.631   5.596  13.768
 7410TIP3   OH243720   4.332   2.994   1.681
 7410TIP3    H143721   4.298   3.082   1.698
 7410TIP3    H243722   4.393   3.006   1.609
 7411TIP3   OH243723   3.016   6.169   5.113
 7411TIP3    H143724   2.981   6.257   5.131
 7411TIP3    H243725   3.077   6.153   5.185
 7412TIP3   OH243726   5.508   1.978  11.909
 7412TIP3    H143727   5.431   2.008  11.957
 7412TIP3    H243728   5.473   1.927  11.836
 7413TIP3   OH243729   4.472   0.472   0.105
 7413TIP3    H143730   4.497   0.381   0.088
 7413TIP3    H243731   4.476   0.514   0.019
 7414TIP3   OH243732   1.366   1.563   1.013
 7414TIP3    H143733   1.429   1.623   1.051
 7414TIP3    H243734   1.413   1.520   0.941
 7415TIP3   OH243735   0.978   6.245   3.890
 7415TIP3    H143736   1.057   6.192   3.902
 7415TIP3    H243737   0.966   6.249   3.795
 7416TIP3   OH243738   1.170   4.002  12.954
 7416TIP3    H143739   1.249   3.957  12.984
 7416TIP3    H243740   1.099   3.965  13.007
 7417TIP3   OH243741   1.518   3.165   3.240
 7417TIP3    H143742   1.541   3.075   3.264
 7417TIP3    H243743   1.522   3.166   3.145
 7418TIP3   OH243744   0.783   5.486  13.221
 7418TIP3    H143745   0.689   5.504  13.217
 7418TIP3    H243746   0.813   5.490  13.131
 7419TIP3   OH243747   2.961   6.598   1.870
 7419TIP3    H143748   3.026   6.662   1.843
 7419TIP3    H243749   2.939   6.623   1.960
 7420TIP3   OH243750   6.029   4.506   0.978
 7420TIP3    H143751   6.021   4.537   1.069
 7420TIP3    H243752   6.097   4.562   0.940
 7421TIP3   OH243753   3.259   2.026  16.720
 7421TIP3    H143754   3.166   2.025  16.697
 7421TIP3    H243755   3.290   1.938  16.697
 7422TIP3   OH243756   1.613   1.013  15.922
 7422TIP3    H143757   1.571   0.966  15.851
 7422TIP3    H243758   1.565   1.096  15.929
 7423TIP3   OH243759   4.416   1.242   1.711
 7423TIP3    H143760   4.385   1.201   1.792
 7423TIP3    H243761   4.463   1.173   1.665
 7424TIP3   OH243762   2.131   0.501  12.255
 7424TIP3    H143763   2.205   0.561  12.268
 7424TIP3    H243764   2.104   0.477  12.344
 7425TIP3   OH243765   0.780   3.663  15.829
 7425TIP3    H143766   0.733   3.667  15.746
 7425TIP3    H243767   0.799   3.754  15.851
 7426TIP3   OH243768   1.300   1.304  12.204
 7426TIP3    H143769   1.344   1.322  12.121
 7426TIP3    H243770   1.207   1.304  12.182
 7427TIP3   OH243771   1.984   6.542  15.671
 7427TIP3    H143772   1.999   6.450  15.649
 7427TIP3    H243773   2.025   6.554  15.756
 7428TIP3   OH243774   0.124   6.063  13.036
 7428TIP3    H143775   0.198   6.114  13.068
 7428TIP3    H243776   0.067   6.128  12.993
 7429TIP3   OH243777   1.638   1.730  11.684
 7429TIP3    H143778   1.706   1.678  11.726
 7429TIP3    H243779   1.572   1.744  11.752
 7430TIP3   OH243780   0.373   6.575   0.329
 7430TIP3    H143781   0.300   6.632   0.352
 7430TIP3    H243782   0.451   6.626   0.351
 7431TIP3   OH243783   6.004   4.720  11.471
 7431TIP3    H143784   5.958   4.777  11.410
 7431TIP3    H243785   6.082   4.770  11.496
 7432TIP3   OH243786   1.145   5.444   1.592
 7432TIP3    H143787   1.066   5.449   1.646
 7432TIP3    H243788   1.129   5.368   1.535
 7433TIP3   OH243789   4.451   0.985  13.748
 7433TIP3    H143790   4.541   0.998  13.780
 7433TIP3    H243791   4.420   0.907  13.796
 7434TIP3   OH243792   2.619   4.905   3.702
 7434TIP3    H143793   2.566   4.848   3.647
 7434TIP3    H243794   2.629   4.857   3.784
 7435TIP3   OH243795   0.284   5.253   2.794
 7435TIP3    H143796   0.223   5.281   2.725
 7435TIP3    H243797   0.266   5.160   2.805
 7436TIP3   OH243798   4.467   4.358   2.100
 7436TIP3    H143799   4.481   4.444   2.138
 7436TIP3    H243800   4.376   4.337   2.120
 7437TIP3   OH243801   5.373   0.464  12.363
 7437TIP3    H143802   5.305   0.497  12.305
 7437TIP3    H243803   5.431   0.414  12.306
 7438TIP3   OH243804   4.776   6.530  13.902
 7438TIP3    H143805   4.774   6.463  13.971
 7438TIP3    H243806   4.703   6.508  13.844
 7439TIP3   OH243807   2.702   4.599  14.466
 7439TIP3    H143808   2.696   4.504  14.451
 7439TIP3    H243809   2.640   4.616  14.537
 7440TIP3   OH243810   1.999   1.493   3.594
 7440TIP3    H143811   2.069   1.496   3.658
 7440TIP3    H243812   2.043   1.497   3.509
 7441TIP3   OH243813   3.709   2.018   5.621
 7441TIP3    H143814   3.648   2.091   5.633
 7441TIP3    H243815   3.671   1.947   5.673
 7442TIP3   OH243816   4.819   1.708   4.941
 7442TIP3    H143817   4.859   1.656   4.871
 7442TIP3    H243818   4.769   1.775   4.895
 7443TIP3   OH243819   1.268   1.121   1.397
 7443TIP3    H143820   1.216   1.147   1.321
 7443TIP3    H243821   1.222   1.046   1.433
 7444TIP3   OH243822   6.167   2.411  14.664
 7444TIP3    H143823   6.204   2.364  14.739
 7444TIP3    H243824   6.200   2.500  14.673
 7445TIP3   OH243825   4.008   1.443   0.610
 7445TIP3    H143826   4.074   1.374   0.611
 7445TIP3    H243827   4.059   1.524   0.602
 7446TIP3   OH243828   2.801   0.835  16.850
 7446TIP3    H143829   2.743   0.826  16.774
 7446TIP3    H243830   2.742   0.846  16.924
 7447TIP3   OH243831   4.416   3.959  16.080
 7447TIP3    H143832   4.477   3.895  16.117
 7447TIP3    H243833   4.395   3.925  15.993
 7448TIP3   OH243834   1.848   6.698  15.463
 7448TIP3    H143835   1.860   6.661  15.551
 7448TIP3    H243836   1.911   6.769  15.459
 7449TIP3   OH243837   0.867   3.215  10.831
 7449TIP3    H143838   0.894   3.149  10.767
 7449TIP3    H243839   0.804   3.270  10.784
 7450TIP3   OH243840   6.502   0.237   6.786
 7450TIP3    H143841   6.410   0.262   6.796
 7450TIP3    H243842   6.512   0.161   6.843
 7451TIP3   OH243843   4.650   4.912   5.600
 7451TIP3    H143844   4.730   4.909   5.653
 7451TIP3    H243845   4.579   4.913   5.665
 7452TIP3   OH243846   5.546   6.800   0.094
 7452TIP3    H143847   5.461   6.772   0.129
 7452TIP3    H243848   5.566   6.881   0.141
 7453TIP3   OH243849   3.557   2.990  11.074
 7453TIP3    H143850   3.520   2.979  10.987
 7453TIP3    H243851   3.481   2.991  11.133
 7454TIP3   OH243852   2.244   5.889   2.930
 7454TIP3    H143853   2.247   5.833   3.007
 7454TIP3    H243854   2.152   5.889   2.904
 7455TIP3   OH243855   1.457   3.748   2.219
 7455TIP3    H143856   1.499   3.825   2.181
 7455TIP3    H243857   1.434   3.775   2.308
 7456TIP3   OH243858   3.384   3.156   3.015
 7456TIP3    H143859   3.330   3.158   2.936
 7456TIP3    H243860   3.397   3.062   3.032
 7457TIP3   OH243861   6.508   5.702  13.225
 7457TIP3    H143862   6.581   5.669  13.173
 7457TIP3    H243863   6.538   5.787  13.257
 7458TIP3   OH243864   2.024   5.354   0.963
 7458TIP3    H143865   1.956   5.297   0.999
 7458TIP3    H243866   2.068   5.390   1.040
 7459TIP3   OH243867   2.598   2.917  11.954
 7459TIP3    H143868   2.631   2.827  11.960
 7459TIP3    H243869   2.608   2.940  11.862
 7460TIP3   OH243870   0.850   5.554  16.176
 7460TIP3    H143871   0.819   5.625  16.231
 7460TIP3    H243872   0.789   5.553  16.102
 7461TIP3   OH243873   0.717   2.194   4.239
 7461TIP3    H143874   0.745   2.283   4.218
 7461TIP3    H243875   0.766   2.139   4.177
 7462TIP3   OH243876   6.737   2.317   4.346
 7462TIP3    H143877   6.758   2.283   4.259
 7462TIP3    H243878   6.820   2.348   4.380
 7463TIP3   OH243879   1.458   4.063  12.489
 7463TIP3    H143880   1.389   4.024  12.543
 7463TIP3    H243881   1.538   4.021  12.519
 7464TIP3   OH243882   4.279   5.321  13.673
 7464TIP3    H143883   4.238   5.376  13.740
 7464TIP3    H243884   4.212   5.256  13.650
 7465TIP3   OH243885   4.339   1.869   0.063
 7465TIP3    H143886   4.288   1.789   0.077
 7465TIP3    H243887   4.378   1.857  -0.024
 7466TIP3   OH243888   5.691   5.838   0.500
 7466TIP3    H143889   5.778   5.799   0.510
 7466TIP3    H243890   5.631   5.763   0.500
 7467TIP3   OH243891   5.705   2.949   3.390
 7467TIP3    H143892   5.744   2.962   3.304
 7467TIP3    H243893   5.737   2.864   3.419
 7468TIP3   OH243894   4.881   1.920   0.012
 7468TIP3    H143895   4.968   1.895   0.043
 7468TIP3    H243896   4.880   2.015   0.014
 7469TIP3   OH243897   1.436   4.537  11.855
 7469TIP3    H143898   1.373   4.510  11.789
 7469TIP3    H243899   1.519   4.502  11.824
 7470TIP3   OH243900   2.045   3.909  14.103
 7470TIP3    H143901   2.049   3.935  14.196
 7470TIP3    H243902   1.956   3.929  14.077
 7471TIP3   OH243903   3.699   3.362   5.608
 7471TIP3    H143904   3.617   3.313   5.611
 7471TIP3    H243905   3.714   3.379   5.515
 7472TIP3   OH243906   1.395   3.979   4.413
 7472TIP3    H143907   1.458   4.045   4.387
 7472TIP3    H243908   1.343   4.020   4.482
 7473TIP3   OH243909   5.626   1.318   3.794
 7473TIP3    H143910   5.692   1.253   3.772
 7473TIP3    H243911   5.616   1.311   3.889
 7474TIP3   OH243912   5.624   5.860  13.759
 7474TIP3    H143913   5.572   5.938  13.779
 7474TIP3    H243914   5.715   5.891  13.760
 7475TIP3   OH243915   2.552   6.595   2.473
 7475TIP3    H143916   2.616   6.540   2.518
 7475TIP3    H243917   2.574   6.684   2.498
 7476TIP3   OH243918   1.927   1.954   0.739
 7476TIP3    H143919   1.984   1.880   0.718
 7476TIP3    H243920   1.965   1.991   0.819
 7477TIP3   OH243921   5.383   5.805   4.252
 7477TIP3    H143922   5.393   5.718   4.215
 7477TIP3    H243923   5.452   5.857   4.209
 7478TIP3   OH243924   5.565   4.689   5.089
 7478TIP3    H143925   5.523   4.672   5.005
 7478TIP3    H243926   5.555   4.607   5.138
 7479TIP3   OH243927   2.943   0.262   5.051
 7479TIP3    H143928   2.901   0.331   4.999
 7479TIP3    H243929   3.001   0.218   4.989
 7480TIP3   OH243930   2.568   3.677   4.915
 7480TIP3    H143931   2.625   3.601   4.905
 7480TIP3    H243932   2.626   3.752   4.903
 7481TIP3   OH243933   2.572   3.692  13.235
 7481TIP3    H143934   2.656   3.663  13.271
 7481TIP3    H243935   2.521   3.612  13.226
 7482TIP3   OH243936   1.722   1.017   3.757
 7482TIP3    H143937   1.672   0.937   3.742
 7482TIP3    H243938   1.779   1.024   3.681
 7483TIP3   OH243939   2.999   0.781   4.732
 7483TIP3    H143940   2.949   0.862   4.737
 7483TIP3    H243941   3.075   0.796   4.789
 7484TIP3   OH243942   4.341   6.228   1.761
 7484TIP3    H143943   4.339   6.169   1.836
 7484TIP3    H243944   4.434   6.236   1.740
 7485TIP3   OH243945   0.765   2.094   3.032
 7485TIP3    H143946   0.787   2.063   2.944
 7485TIP3    H243947   0.847   2.133   3.064
 7486TIP3   OH243948   5.735   3.782   3.869
 7486TIP3    H143949   5.730   3.851   3.802
 7486TIP3    H243950   5.748   3.701   3.820
 7487TIP3   OH243951   3.167   0.434  11.233
 7487TIP3    H143952   3.198   0.452  11.144
 7487TIP3    H243953   3.182   0.340  11.245
 7488TIP3   OH243954   5.533   3.067  14.857
 7488TIP3    H143955   5.577   3.055  14.941
 7488TIP3    H243956   5.498   2.980  14.835
 7489TIP3   OH243957   0.374   5.498  13.284
 7489TIP3    H143958   0.369   5.412  13.242
 7489TIP3    H243959   0.347   5.481  13.375
 7490TIP3   OH243960   6.668   4.033   6.791
 7490TIP3    H143961   6.668   3.948   6.746
 7490TIP3    H243962   6.703   4.095   6.727
 7491TIP3   OH243963   1.329   3.591   4.194
 7491TIP3    H143964   1.390   3.520   4.173
 7491TIP3    H243965   1.340   3.605   4.288
 7492TIP3   OH243966   4.921   0.462  11.255
 7492TIP3    H143967   4.898   0.448  11.347
 7492TIP3    H243968   5.013   0.437  11.249
 7493TIP3   OH243969   3.961   6.386  12.687
 7493TIP3    H143970   3.929   6.467  12.647
 7493TIP3    H243971   4.027   6.353  12.626
 7494TIP3   OH243972   4.566   1.951  16.748
 7494TIP3    H143973   4.553   1.964  16.654
 7494TIP3    H243974   4.478   1.940  16.783
 7495TIP3   OH243975   3.028   3.553   2.966
 7495TIP3    H143976   2.984   3.623   3.014
 7495TIP3    H243977   3.098   3.524   3.025
 7496TIP3   OH243978   0.872   3.373   4.576
 7496TIP3    H143979   0.842   3.464   4.588
 7496TIP3    H243980   0.927   3.355   4.652
 7497TIP3   OH243981   1.032   5.158  16.257
 7497TIP3    H143982   0.995   5.083  16.210
 7497TIP3    H243983   1.074   5.119  16.334
 7498TIP3   OH243984   3.870   4.859  10.776
 7498TIP3    H143985   3.784   4.868  10.815
 7498TIP3    H243986   3.886   4.765  10.771
 7499TIP3   OH243987   0.478   5.101   0.975
 7499TIP3    H143988   0.505   5.189   1.000
 7499TIP3    H243989   0.559   5.050   0.976
 7500TIP3   OH243990   6.202   3.068   3.723
 7500TIP3    H143991   6.206   3.105   3.635
 7500TIP3    H243992   6.281   3.014   3.729
 7501TIP3   OH243993   6.784   0.500  15.166
 7501TIP3    H143994   6.792   0.587  15.129
 7501TIP3    H243995   6.864   0.488  15.218
 7502TIP3   OH243996   5.303   6.663   1.614
 7502TIP3    H143997   5.297   6.568   1.607
 7502TIP3    H243998   5.374   6.679   1.676
 7503TIP3   OH243999   0.189   6.134  16.595
 7503TIP3    H144000   0.268   6.147  16.542
 7503TIP3    H244001   0.212   6.064  16.656
 7504TIP3   OH244002   4.629   5.302   4.102
 7504TIP3    H144003   4.575   5.250   4.162
 7504TIP3    H244004   4.709   5.319   4.151
 7505TIP3   OH244005   3.453   5.465   1.013
 7505TIP3    H144006   3.439   5.468   1.108
 7505TIP3    H244007   3.533   5.414   1.002
 7506TIP3   OH244008   1.336   6.753   6.102
 7506TIP3    H144009   1.359   6.775   6.011
 7506TIP3    H244010   1.409   6.788   6.154
 7507TIP3   OH244011   1.618   2.656  16.028
 7507TIP3    H144012   1.578   2.673  16.114
 7507TIP3    H244013   1.544   2.642  15.970
 7508TIP3   OH244014   4.025   2.278  14.382
 7508TIP3    H144015   4.093   2.342  14.403
 7508TIP3    H244016   4.060   2.229  14.308
 7509TIP3   OH244017   0.000   0.267   5.878
 7509TIP3    H144018   0.050   0.317   5.943
 7509TIP3    H244019  -0.017   0.330   5.807
 7510TIP3   OH244020   3.596   4.021  11.233
 7510TIP3    H144021   3.575   4.103  11.279
 7510TIP3    H244022   3.576   4.040  11.141
 7511TIP3   OH244023   4.632   5.603   1.032
 7511TIP3    H144024   4.625   5.522   0.982
 7511TIP3    H244025   4.574   5.665   0.987
 7512TIP3   OH244026   4.795   6.475   1.886
 7512TIP3    H144027   4.805   6.537   1.959
 7512TIP3    H244028   4.885   6.450   1.864
 7513TIP3   OH244029   1.308   4.022   5.844
 7513TIP3    H144030   1.395   4.061   5.849
 7513TIP3    H244031   1.300   3.971   5.925
 7514TIP3   OH244032   6.388   1.697   0.638
 7514TIP3    H144033   6.389   1.643   0.716
 7514TIP3    H244034   6.302   1.739   0.638
 7515TIP3   OH244035   3.514   4.288  14.822
 7515TIP3    H144036   3.549   4.338  14.749
 7515TIP3    H244037   3.566   4.317  14.898
 7516TIP3   OH244038   5.678   1.515   5.498
 7516TIP3    H144039   5.595   1.468   5.513
 7516TIP3    H244040   5.742   1.468   5.552
 7517TIP3   OH244041   5.606   3.103   2.137
 7517TIP3    H144042   5.635   3.194   2.141
 7517TIP3    H244043   5.559   3.097   2.053
 7518TIP3   OH244044   0.709   5.616   1.596
 7518TIP3    H144045   0.621   5.601   1.563
 7518TIP3    H244046   0.698   5.683   1.664
 7519TIP3   OH244047   4.375   4.302   2.832
 7519TIP3    H144048   4.338   4.365   2.770
 7519TIP3    H244049   4.463   4.336   2.851
 7520TIP3   OH244050   6.655   0.944  13.592
 7520TIP3    H144051   6.663   1.031  13.553
 7520TIP3    H244052   6.743   0.907  13.586
 7521TIP3   OH244053   6.285   2.559   2.928
 7521TIP3    H144054   6.201   2.561   2.974
 7521TIP3    H244055   6.331   2.637   2.959
 7522TIP3   OH244056   3.791   3.049  13.818
 7522TIP3    H144057   3.787   3.087  13.906
 7522TIP3    H244058   3.845   3.111  13.768
 7523TIP3   OH244059   1.080   2.652  16.830
 7523TIP3    H144060   1.167   2.651  16.790
 7523TIP3    H244061   1.087   2.716  16.901
 7524TIP3   OH244062   5.801   2.227   5.795
 7524TIP3    H144063   5.809   2.207   5.889
 7524TIP3    H244064   5.890   2.252   5.768
 7525TIP3   OH244065   1.389   5.266  12.446
 7525TIP3    H144066   1.458   5.209  12.477
 7525TIP3    H244067   1.315   5.207  12.427
 7526TIP3   OH244068   3.216   2.847   5.291
 7526TIP3    H144069   3.221   2.751   5.289
 7526TIP3    H244070   3.273   2.876   5.220
 7527TIP3   OH244071   1.321   1.656   5.498
 7527TIP3    H144072   1.369   1.737   5.516
 7527TIP3    H244073   1.232   1.684   5.480
 7528TIP3   OH244074   6.066   3.930   1.083
 7528TIP3    H144075   6.104   4.008   1.123
 7528TIP3    H244076   6.119   3.858   1.117
 7529TIP3   OH244077   6.349   0.493   0.636
 7529TIP3    H144078   6.398   0.456   0.563
 7529TIP3    H244079   6.263   0.513   0.599
 7530TIP3   OH244080   1.708   3.120   3.828
 7530TIP3    H144081   1.682   3.195   3.881
 7530TIP3    H244082   1.753   3.159   3.753
 7531TIP3   OH244083   1.521   0.513   4.923
 7531TIP3    H144084   1.520   0.536   5.016
 7531TIP3    H244085   1.613   0.517   4.898
 7532TIP3   OH244086   6.314   1.528   3.998
 7532TIP3    H144087   6.374   1.453   4.007
 7532TIP3    H244088   6.366   1.604   4.023
 7533TIP3   OH244089   0.632   4.563   1.113
 7533TIP3    H144090   0.560   4.549   1.051
 7533TIP3    H244091   0.627   4.489   1.173
 7534TIP3   OH244092   0.986   0.030   2.213
 7534TIP3    H144093   0.934   0.075   2.146
 7534TIP3    H244094   1.077   0.044   2.186
 7535TIP3   OH244095   2.515   5.772  13.905
 7535TIP3    H144096   2.528   5.679  13.887
 7535TIP3    H244097   2.423   5.779  13.928
 7536TIP3   OH244098   1.139   5.438  14.818
 7536TIP3    H144099   1.191   5.440  14.899
 7536TIP3    H244100   1.203   5.424  14.748
 7537TIP3   OH244101   6.474   2.795   4.323
 7537TIP3    H144102   6.427   2.729   4.374
 7537TIP3    H244103   6.405   2.841   4.275
 7538TIP3   OH244104   0.223   3.958   5.800
 7538TIP3    H144105   0.156   3.913   5.851
 7538TIP3    H244106   0.178   4.033   5.761
 7539TIP3   OH244107   5.979   2.470  12.985
 7539TIP3    H144108   5.928   2.549  12.968
 7539TIP3    H244109   6.070   2.499  12.980
 7540TIP3   OH244110   6.758   4.999  16.974
 7540TIP3    H144111   6.709   5.010  17.055
 7540TIP3    H244112   6.804   5.082  16.962
 7541TIP3   OH244113   5.468   2.973   2.945
 7541TIP3    H144114   5.376   2.951   2.931
 7541TIP3    H244115   5.466   3.063   2.977
 7542TIP3   OH244116   0.329   3.665   1.169
 7542TIP3    H144117   0.387   3.734   1.135
 7542TIP3    H244118   0.269   3.711   1.228
 7543TIP3   OH244119   1.974   4.988  12.732
 7543TIP3    H144120   1.889   4.948  12.748
 7543TIP3    H244121   2.037   4.924  12.766
 7544TIP3   OH244122   2.892   0.022   3.933
 7544TIP3    H144123   2.834  -0.014   3.865
 7544TIP3    H244124   2.884   0.117   3.924
 7545TIP3   OH244125   6.368   1.810  14.819
 7545TIP3    H144126   6.400   1.852  14.899
 7545TIP3    H244127   6.386   1.717  14.831
 7546TIP3   OH244128   1.164   5.327   6.171
 7546TIP3    H144129   1.073   5.347   6.193
 7546TIP3    H244130   1.215   5.397   6.213
 7547TIP3   OH244131   3.287   5.149  15.487
 7547TIP3    H144132   3.223   5.078  15.495
 7547TIP3    H244133   3.347   5.135  15.560
 7548TIP3   OH244134   3.468   5.249  17.046
 7548TIP3    H144135   3.489   5.176  17.105
 7548TIP3    H244136   3.456   5.207  16.961
 7549TIP3   OH244137   0.199   4.470   6.840
 7549TIP3    H144138   0.247   4.531   6.784
 7549TIP3    H244139   0.229   4.491   6.929
 7550TIP3   OH244140   2.555   0.094   0.883
 7550TIP3    H144141   2.597   0.164   0.833
 7550TIP3    H244142   2.601   0.014   0.855
 7551TIP3   OH244143   6.000   4.854   5.651
 7551TIP3    H144144   5.933   4.787   5.643
 7551TIP3    H244145   6.055   4.842   5.574
 7552TIP3   OH244146   0.293   5.513   5.883
 7552TIP3    H144147   0.250   5.495   5.967
 7552TIP3    H244148   0.231   5.570   5.836
 7553TIP3   OH244149   0.120   1.588   5.431
 7553TIP3    H144150   0.169   1.634   5.500
 7553TIP3    H244151   0.186   1.532   5.389
 7554TIP3   OH244152   5.598   0.916  12.897
 7554TIP3    H144153   5.537   0.922  12.824
 7554TIP3    H244154   5.548   0.873  12.966
 7555TIP3   OH244155   5.461   4.136   2.162
 7555TIP3    H144156   5.549   4.099   2.167
 7555TIP3    H244157   5.442   4.139   2.068
 7556TIP3   OH244158   0.419   5.047  10.865
 7556TIP3    H144159   0.407   5.126  10.917
 7556TIP3    H244160   0.403   5.076  10.775
 7557TIP3   OH244161   0.124   5.946   6.746
 7557TIP3    H144162   0.109   5.856   6.774
 7557TIP3    H244163   0.165   5.988   6.822
 7558TIP3   OH244164   2.368   4.932   6.244
 7558TIP3    H144165   2.300   4.998   6.250
 7558TIP3    H244166   2.449   4.982   6.234
 7559TIP3   OH244167   5.466   2.717  14.126
 7559TIP3    H144168   5.449   2.624  14.112
 7559TIP3    H244169   5.465   2.755  14.038
 7560TIP3   OH244170   5.887   1.846   5.017
 7560TIP3    H144171   5.822   1.827   4.950
 7560TIP3    H244172   5.954   1.779   5.005
 7561TIP3   OH244173   2.019   6.533   1.991
 7561TIP3    H144174   2.030   6.504   1.900
 7561TIP3    H244175   2.086   6.485   2.040
 7562TIP3   OH244176   5.933   2.850  13.845
 7562TIP3    H144177   5.964   2.895  13.923
 7562TIP3    H244178   5.841   2.873  13.838
 7563TIP3   OH244179   1.805   2.725   0.634
 7563TIP3    H144180   1.741   2.790   0.665
 7563TIP3    H244181   1.865   2.713   0.708
 7564TIP3   OH244182   4.092   3.802  12.669
 7564TIP3    H144183   4.060   3.720  12.707
 7564TIP3    H244184   4.013   3.852  12.650
 7565TIP3   OH244185   5.025   3.786   5.131
 7565TIP3    H144186   5.062   3.874   5.123
 7565TIP3    H244187   5.060   3.738   5.056
 7566TIP3   OH244188   0.944   3.372  11.470
 7566TIP3    H144189   1.013   3.342  11.411
 7566TIP3    H244190   0.990   3.426  11.534
 7567TIP3   OH244191   5.593   5.274  11.205
 7567TIP3    H144192   5.541   5.326  11.143
 7567TIP3    H244193   5.588   5.324  11.287
 7568TIP3   OH244194   2.179   1.979  16.205
 7568TIP3    H144195   2.271   2.002  16.220
 7568TIP3    H244196   2.146   1.956  16.292
 7569TIP3   OH244197   3.983   6.657  17.163
 7569TIP3    H144198   4.049   6.594  17.191
 7569TIP3    H244199   3.924   6.666  17.238
 7570TIP3   OH244200   5.311   5.952  13.876
 7570TIP3    H144201   5.318   5.857  13.872
 7570TIP3    H244202   5.394   5.984  13.841
 7571TIP3   OH244203   4.086   5.371  14.558
 7571TIP3    H144204   4.042   5.453  14.579
 7571TIP3    H244205   4.022   5.303  14.582
 7572TIP3   OH244206   3.668   5.421   1.443
 7572TIP3    H144207   3.763   5.405   1.445
 7572TIP3    H244208   3.657   5.502   1.494
 7573TIP3   OH244209   6.144   3.405  16.250
 7573TIP3    H144210   6.200   3.384  16.324
 7573TIP3    H244211   6.066   3.351  16.262
 7574TIP3   OH244212   0.775   0.190   2.356
 7574TIP3    H144213   0.783   0.109   2.406
 7574TIP3    H244214   0.688   0.185   2.315
 7575TIP3   OH244215   1.693   5.683  13.723
 7575TIP3    H144216   1.720   5.769  13.756
 7575TIP3    H244217   1.680   5.697  13.629
 7576TIP3   OH244218   6.490   5.022   6.519
 7576TIP3    H144219   6.446   5.064   6.592
 7576TIP3    H244220   6.423   5.016   6.451
 7577TIP3   OH244221   0.295   1.865  11.747
 7577TIP3    H144222   0.244   1.839  11.670
 7577TIP3    H244223   0.239   1.929  11.791
 7578TIP3   OH244224   6.186   6.738  12.285
 7578TIP3    H144225   6.197   6.754  12.191
 7578TIP3    H244226   6.202   6.823  12.326
 7579TIP3   OH244227   5.931   1.816  13.551
 7579TIP3    H144228   5.838   1.810  13.572
 7579TIP3    H244229   5.965   1.729  13.569
 7580TIP3   OH244230   4.360   6.621   6.124
 7580TIP3    H144231   4.389   6.691   6.066
 7580TIP3    H244232   4.416   6.629   6.201
 7581TIP3   OH244233   4.188   3.159  16.274
 7581TIP3    H144234   4.169   3.221  16.204
 7581TIP3    H244235   4.276   3.181  16.303
 7582TIP3   OH244236   3.629   2.237  15.301
 7582TIP3    H144237   3.639   2.211  15.393
 7582TIP3    H244238   3.551   2.191  15.271
 7583TIP3   OH244239   2.984   6.533   3.768
 7583TIP3    H144240   2.987   6.452   3.717
 7583TIP3    H244241   3.076   6.553   3.786
 7584TIP3   OH244242   5.027   6.157   2.114
 7584TIP3    H144243   5.093   6.217   2.149
 7584TIP3    H244244   5.067   6.121   2.035
 7585TIP3   OH244245   6.080   1.954  15.797
 7585TIP3    H144246   6.151   1.936  15.858
 7585TIP3    H244247   6.001   1.949  15.851
 7586TIP3   OH244248   0.469   6.125  12.782
 7586TIP3    H144249   0.379   6.117  12.752
 7586TIP3    H244250   0.462   6.146  12.875
 7587TIP3   OH244251   3.362   1.522   4.497
 7587TIP3    H144252   3.324   1.497   4.413
 7587TIP3    H244253   3.442   1.570   4.474
 7588TIP3   OH244254   6.568   5.933   1.222
 7588TIP3    H144255   6.522   5.849   1.230
 7588TIP3    H244256   6.501   5.999   1.238
 7589TIP3   OH244257   1.088   5.029   3.663
 7589TIP3    H144258   1.048   5.056   3.746
 7589TIP3    H244259   1.158   5.093   3.649
 7590TIP3   OH244260   0.783   1.248   1.324
 7590TIP3    H144261   0.819   1.214   1.242
 7590TIP3    H244262   0.690   1.229   1.319
 7591TIP3   OH244263   6.688   2.522   0.837
 7591TIP3    H144264   6.656   2.490   0.922
 7591TIP3    H244265   6.780   2.543   0.852
 7592TIP3   OH244266   6.298   2.821   2.000
 7592TIP3    H144267   6.225   2.793   1.946
 7592TIP3    H244268   6.369   2.761   1.977
 7593TIP3   OH244269   1.985   5.826   3.431
 7593TIP3    H144270   2.011   5.905   3.383
 7593TIP3    H244271   1.948   5.769   3.364
 7594TIP3   OH244272   5.537   2.646   1.447
 7594TIP3    H144273   5.539   2.622   1.355
 7594TIP3    H244274   5.445   2.639   1.472
 7595TIP3   OH244275   0.658   2.575  10.853
 7595TIP3    H144276   0.685   2.662  10.881
 7595TIP3    H244277   0.591   2.591  10.786
 7596TIP3   OH244278   5.606   6.672  16.687
 7596TIP3    H144279   5.541   6.605  16.667
 7596TIP3    H244280   5.598   6.735  16.615
 7597TIP3   OH244281   0.282   0.360  12.248
 7597TIP3    H144282   0.374   0.388  12.245
 7597TIP3    H244283   0.286   0.266  12.229
 7598TIP3   OH244284   2.428   1.876  15.379
 7598TIP3    H144285   2.334   1.892  15.383
 7598TIP3    H244286   2.437   1.795  15.328
 7599TIP3   OH244287   0.480   4.003  14.609
 7599TIP3    H144288   0.490   3.908  14.601
 7599TIP3    H244289   0.570   4.037  14.603
 7600TIP3   OH244290   6.377   4.863   2.716
 7600TIP3    H144291   6.383   4.767   2.720
 7600TIP3    H244292   6.351   4.889   2.805
 7601TIP3   OH244293   0.360   2.892  11.970
 7601TIP3    H144294   0.306   2.913  11.894
 7601TIP3    H244295   0.314   2.818  12.012
 7602TIP3   OH244296   3.463   3.577   1.918
 7602TIP3    H144297   3.512   3.569   2.000
 7602TIP3    H244298   3.401   3.504   1.920
 7603TIP3   OH244299   4.325   4.062  15.019
 7603TIP3    H144300   4.237   4.066  15.055
 7603TIP3    H244301   4.324   3.984  14.963
 7604TIP3   OH244302   0.916   0.770  16.080
 7604TIP3    H144303   0.824   0.788  16.060
 7604TIP3    H244304   0.913   0.706  16.151
 7605TIP3   OH244305   1.576   0.554   5.185
 7605TIP3    H144306   1.620   0.639   5.181
 7605TIP3    H244307   1.540   0.551   5.274
 7606TIP3   OH244308   5.327   0.905  15.474
 7606TIP3    H144309   5.339   0.846  15.400
 7606TIP3    H244310   5.413   0.945  15.487
 7607TIP3   OH244311   5.197   4.654  15.450
 7607TIP3    H144312   5.102   4.653  15.451
 7607TIP3    H244313   5.220   4.668  15.358
 7608TIP3   OH244314   3.631   0.417  13.828
 7608TIP3    H144315   3.600   0.446  13.742
 7608TIP3    H244316   3.567   0.453  13.890
 7609TIP3   OH244317   4.147   0.836   2.371
 7609TIP3    H144318   4.173   0.770   2.307
 7609TIP3    H244319   4.202   0.819   2.447
 7610TIP3   OH244320   3.072   4.896  12.197
 7610TIP3    H144321   3.121   4.978  12.198
 7610TIP3    H244322   3.110   4.845  12.269
 7611TIP3   OH244323   6.247   0.491  15.358
 7611TIP3    H144324   6.317   0.463  15.300
 7611TIP3    H244325   6.194   0.550  15.304
 7612TIP3   OH244326   6.374   1.870   3.736
 7612TIP3    H144327   6.309   1.800   3.739
 7612TIP3    H244328   6.454   1.831   3.771
 7613TIP3   OH244329   0.259   5.101   2.052
 7613TIP3    H144330   0.312   5.073   1.977
 7613TIP3    H244331   0.180   5.048   2.048
 7614TIP3   OH244332   2.259   4.000   3.075
 7614TIP3    H144333   2.331   4.023   3.133
 7614TIP3    H244334   2.201   3.946   3.128
 7615TIP3   OH244335   3.501   6.388   2.659
 7615TIP3    H144336   3.518   6.298   2.632
 7615TIP3    H244337   3.491   6.436   2.576
 7616TIP3   OH244338   5.045   0.421   2.112
 7616TIP3    H144339   4.989   0.438   2.187
 7616TIP3    H244340   4.992   0.365   2.055
 7617TIP3   OH244341   2.098   4.248  14.198
 7617TIP3    H144342   2.115   4.316  14.133
 7617TIP3    H244343   2.025   4.197  14.162
 7618TIP3   OH244344   0.612   5.451  15.633
 7618TIP3    H144345   0.699   5.488  15.641
 7618TIP3    H244346   0.621   5.382  15.567
 7619TIP3   OH244347   4.523   3.280  13.283
 7619TIP3    H144348   4.500   3.370  13.306
 7619TIP3    H244349   4.533   3.281  13.188
 7620TIP3   OH244350   0.530   3.052   1.632
 7620TIP3    H144351   0.485   3.023   1.552
 7620TIP3    H244352   0.562   2.971   1.672
 7621TIP3   OH244353   4.401   4.097  17.003
 7621TIP3    H144354   4.420   4.024  17.062
 7621TIP3    H244355   4.449   4.078  16.923
 7622TIP3   OH244356   5.960   5.841  11.229
 7622TIP3    H144357   5.994   5.787  11.158
 7622TIP3    H244358   6.021   5.915  11.235
 7623TIP3   OH244359   4.060   3.104   3.482
 7623TIP3    H144360   3.977   3.089   3.437
 7623TIP3    H244361   4.057   3.045   3.557
 7624TIP3   OH244362   2.127   2.116  14.789
 7624TIP3    H144363   2.040   2.133  14.752
 7624TIP3    H244364   2.178   2.194  14.766
 7625TIP3   OH244365   3.148   6.760   3.948
 7625TIP3    H144366   3.147   6.665   3.935
 7625TIP3    H244367   3.056   6.783   3.959
 7626TIP3   OH244368   0.565   6.549   4.501
 7626TIP3    H144369   0.622   6.578   4.430
 7626TIP3    H244370   0.585   6.456   4.512
 7627TIP3   OH244371   4.264   6.797   2.852
 7627TIP3    H144372   4.181   6.835   2.882
 7627TIP3    H244373   4.327   6.869   2.856
 7628TIP3   OH244374   5.955   6.502   4.204
 7628TIP3    H144375   6.037   6.551   4.203
 7628TIP3    H244376   5.951   6.464   4.292
 7629TIP3   OH244377   1.294   4.278  15.983
 7629TIP3    H144378   1.226   4.335  16.020
 7629TIP3    H244379   1.286   4.196  16.032
 7630TIP3   OH244380   4.746   2.332  13.575
 7630TIP3    H144381   4.746   2.340  13.670
 7630TIP3    H244382   4.744   2.238  13.559
 7631TIP3   OH244383   5.553   1.146   4.779
 7631TIP3    H144384   5.489   1.216   4.791
 7631TIP3    H244385   5.638   1.190   4.785
 7632TIP3   OH244386   4.328   2.932  11.878
 7632TIP3    H144387   4.354   2.840  11.891
 7632TIP3    H244388   4.293   2.935  11.789
 7633TIP3   OH244389   6.533   3.086  16.499
 7633TIP3    H144390   6.583   3.056  16.423
 7633TIP3    H244391   6.447   3.046  16.489
 7634TIP3   OH244392   3.099   0.465   4.032
 7634TIP3    H144393   3.158   0.461   3.957
 7634TIP3    H244394   3.065   0.555   4.031
 7635TIP3   OH244395   3.056   5.627   0.003
 7635TIP3    H144396   3.000   5.622   0.081
 7635TIP3    H244397   3.014   5.695  -0.051
 7636TIP3   OH244398   1.153   4.028  15.157
 7636TIP3    H144399   1.128   3.945  15.116
 7636TIP3    H244400   1.167   4.006  15.249
 7637TIP3   OH244401   2.156   2.665   6.239
 7637TIP3    H144402   2.249   2.689   6.248
 7637TIP3    H244403   2.109   2.748   6.246
 7638TIP3   OH244404   1.491   3.277   5.270
 7638TIP3    H144405   1.417   3.338   5.278
 7638TIP3    H244406   1.457   3.194   5.303
 7639TIP3   OH244407   6.540   5.897   0.798
 7639TIP3    H144408   6.605   5.930   0.860
 7639TIP3    H244409   6.592   5.865   0.724
 7640TIP3   OH244410   3.189   0.143  11.240
 7640TIP3    H144411   3.119   0.133  11.304
 7640TIP3    H244412   3.144   0.176  11.161
 7641TIP3   OH244413   6.605   3.332  13.380
 7641TIP3    H144414   6.535   3.302  13.322
 7641TIP3    H244415   6.647   3.252  13.411
 7642TIP3   OH244416   1.037   4.206   3.655
 7642TIP3    H144417   0.964   4.250   3.698
 7642TIP3    H244418   1.073   4.271   3.594
 7643TIP3   OH244419   1.619   2.873  14.133
 7643TIP3    H144420   1.683   2.831  14.077
 7643TIP3    H244421   1.535   2.835  14.107
 7644TIP3   OH244422   1.751   6.117   5.066
 7644TIP3    H144423   1.807   6.048   5.030
 7644TIP3    H244424   1.813   6.179   5.105
 7645TIP3   OH244425   5.581   6.381  14.897
 7645TIP3    H144426   5.671   6.361  14.925
 7645TIP3    H244427   5.544   6.431  14.970
 7646TIP3   OH244428   3.619   6.137  15.481
 7646TIP3    H144429   3.600   6.197  15.553
 7646TIP3    H244430   3.678   6.186  15.423
 7647TIP3   OH244431   3.469   5.269  11.678
 7647TIP3    H144432   3.479   5.331  11.605
 7647TIP3    H244433   3.552   5.222  11.681
 7648TIP3   OH244434   5.521   0.528  13.388
 7648TIP3    H144435   5.487   0.439  13.385
 7648TIP3    H244436   5.443   0.583  13.385
 7649TIP3   OH244437   4.549   2.980  10.934
 7649TIP3    H144438   4.484   2.909  10.939
 7649TIP3    H244439   4.505   3.049  10.885
 7650TIP3   OH244440   1.372   1.123   4.031
 7650TIP3    H144441   1.377   1.057   4.100
 7650TIP3    H244442   1.463   1.144   4.011
 7651TIP3   OH244443   0.612   2.014  13.958
 7651TIP3    H144444   0.593   2.085  14.019
 7651TIP3    H244445   0.659   2.057  13.886
 7652TIP3   OH244446   5.966   1.550  15.476
 7652TIP3    H144447   6.028   1.623  15.484
 7652TIP3    H244448   5.894   1.574  15.534
 7653TIP3   OH244449   3.382   6.319   1.216
 7653TIP3    H144450   3.439   6.293   1.144
 7653TIP3    H244451   3.419   6.275   1.293
 7654TIP3   OH244452   4.182   1.519  11.404
 7654TIP3    H144453   4.156   1.597  11.453
 7654TIP3    H244454   4.248   1.551  11.343
 7655TIP3   OH244455   0.640   4.989  15.286
 7655TIP3    H144456   0.566   5.013  15.230
 7655TIP3    H244457   0.605   4.990  15.375
 7656TIP3   OH244458   6.219   1.159  16.424
 7656TIP3    H144459   6.254   1.087  16.371
 7656TIP3    H244460   6.132   1.176  16.388
 7657TIP3   OH244461   3.331   0.317   2.183
 7657TIP3    H144462   3.409   0.365   2.210
 7657TIP3    H244463   3.262   0.384   2.175
 7658TIP3   OH244464   1.956   2.396  17.275
 7658TIP3    H144465   1.896   2.349  17.218
 7658TIP3    H244466   1.903   2.423  17.350
 7659TIP3   OH244467   2.483   6.510  14.266
 7659TIP3    H144468   2.578   6.519  14.260
 7659TIP3    H244469   2.465   6.426  14.225
 7660TIP3   OH244470   5.656   6.428   5.319
 7660TIP3    H144471   5.596   6.470   5.381
 7660TIP3    H244472   5.737   6.477   5.326
 7661TIP3   OH244473   3.505   4.033  14.466
 7661TIP3    H144474   3.472   3.948  14.438
 7661TIP3    H244475   3.428   4.090  14.466
 7662TIP3   OH244476   0.862   4.067  12.389
 7662TIP3    H144477   0.857   4.041  12.297
 7662TIP3    H244478   0.826   4.156  12.391
 7663TIP3   OH244479   2.695   3.760  13.912
 7663TIP3    H144480   2.775   3.771  13.860
 7663TIP3    H244481   2.625   3.784  13.852
 7664TIP3   OH244482   6.237   0.200  10.956
 7664TIP3    H144483   6.196   0.232  11.036
 7664TIP3    H244484   6.222   0.269  10.891
 7665TIP3   OH244485   2.232   2.553  12.507
 7665TIP3    H144486   2.256   2.634  12.553
 7665TIP3    H244487   2.237   2.577  12.414
 7666TIP3   OH244488   0.629   0.921   4.529
 7666TIP3    H144489   0.684   0.908   4.606
 7666TIP3    H244490   0.584   0.837   4.517
 7667TIP3   OH244491   3.896   3.344   4.166
 7667TIP3    H144492   3.928   3.427   4.132
 7667TIP3    H244493   3.880   3.360   4.259
 7668TIP3   OH244494   2.333   0.834  14.424
 7668TIP3    H144495   2.319   0.919  14.464
 7668TIP3    H244496   2.355   0.853  14.333
 7669TIP3   OH244497   0.060   2.249   4.622
 7669TIP3    H144498   0.075   2.343   4.630
 7669TIP3    H244499   0.086   2.227   4.533
 7670TIP3   OH244500   4.876   6.789  16.757
 7670TIP3    H144501   4.876   6.853  16.685
 7670TIP3    H244502   4.889   6.842  16.836
 7671TIP3   OH244503   1.586   5.349  16.206
 7671TIP3    H144504   1.591   5.443  16.187
 7671TIP3    H244505   1.499   5.337  16.243
 7672TIP3   OH244506   3.651   1.629   4.835
 7672TIP3    H144507   3.728   1.687   4.833
 7672TIP3    H244508   3.656   1.587   4.921
 7673TIP3   OH244509   1.364   2.296   5.758
 7673TIP3    H144510   1.391   2.387   5.770
 7673TIP3    H244511   1.442   2.252   5.724
 7674TIP3   OH244512   1.202   2.677  12.678
 7674TIP3    H144513   1.145   2.678  12.600
 7674TIP3    H244514   1.271   2.614  12.656
 7675TIP3   OH244515   0.921   4.783  15.736
 7675TIP3    H144516   1.011   4.786  15.705
 7675TIP3    H244517   0.927   4.748  15.825
 7676TIP3   OH244518   5.946   3.537  10.972
 7676TIP3    H144519   6.009   3.589  10.922
 7676TIP3    H244520   5.989   3.452  10.981
 7677TIP3   OH244521   2.043   1.016  14.334
 7677TIP3    H144522   2.069   1.083  14.271
 7677TIP3    H244523   1.965   1.052  14.377
 7678TIP3   OH244524   3.034   6.418  10.962
 7678TIP3    H144525   3.011   6.384  10.875
 7678TIP3    H244526   3.090   6.493  10.944
 7679TIP3   OH244527   5.227   4.491   5.001
 7679TIP3    H144528   5.294   4.545   4.958
 7679TIP3    H244529   5.226   4.410   4.949
 7680TIP3   OH244530   5.739   0.247  13.006
 7680TIP3    H144531   5.819   0.243  13.059
 7680TIP3    H244532   5.721   0.340  12.996
 7681TIP3   OH244533   2.430   1.640  15.269
 7681TIP3    H144534   2.457   1.588  15.194
 7681TIP3    H244535   2.439   1.581  15.344
 7682TIP3   OH244536   6.071   3.846  13.790
 7682TIP3    H144537   6.121   3.910  13.739
 7682TIP3    H244538   6.133   3.773  13.804
 7683TIP3   OH244539   1.489   4.176   2.669
 7683TIP3    H144540   1.544   4.235   2.721
 7683TIP3    H244541   1.496   4.091   2.713
 7684TIP3   OH244542   4.162   0.541  11.368
 7684TIP3    H144543   4.219   0.475  11.329
 7684TIP3    H244544   4.080   0.534  11.319
 7685TIP3   OH244545   3.282   1.729  10.646
 7685TIP3    H144546   3.377   1.719  10.650
 7685TIP3    H244547   3.263   1.800  10.708
 7686TIP3   OH244548   3.058   0.215  11.010
 7686TIP3    H144549   3.015   0.253  10.933
 7686TIP3    H244550   3.004   0.140  11.032
 7687TIP3   OH244551   6.441   0.745  15.276
 7687TIP3    H144552   6.474   0.721  15.190
 7687TIP3    H244553   6.358   0.789  15.258
 7688TIP3   OH244554   4.406   6.315   2.248
 7688TIP3    H144555   4.486   6.314   2.300
 7688TIP3    H244556   4.430   6.359   2.167
 7689TIP3   OH244557   1.038   1.528   5.079
 7689TIP3    H144558   1.011   1.615   5.048
 7689TIP3    H244559   0.972   1.503   5.143
 7690TIP3   OH244560   1.434   4.950   0.385
 7690TIP3    H144561   1.431   5.027   0.327
 7690TIP3    H244562   1.526   4.944   0.411
 7691TIP3   OH244563   4.399   6.619  13.593
 7691TIP3    H144564   4.310   6.594  13.616
 7691TIP3    H244565   4.445   6.536  13.582
 7692TIP3   OH244566   4.957   2.719  14.729
 7692TIP3    H144567   4.938   2.645  14.672
 7692TIP3    H244568   4.874   2.766  14.735
 7693TIP3   OH244569   2.154   1.130  16.018
 7693TIP3    H144570   2.061   1.147  16.003
 7693TIP3    H244571   2.179   1.190  16.088
 7694TIP3   OH244572   0.089   1.076   3.237
 7694TIP3    H144573   0.122   0.993   3.271
 7694TIP3    H244574   0.014   1.096   3.293
 7695TIP3   OH244575   1.342   3.263   6.214
 7695TIP3    H144576   1.268   3.295   6.266
 7695TIP3    H244577   1.320   3.171   6.196
 7696TIP3   OH244578   1.157   0.439   4.911
 7696TIP3    H144579   1.215   0.387   4.854
 7696TIP3    H244580   1.132   0.379   4.981
 7697TIP3   OH244581   3.582   4.528  16.532
 7697TIP3    H144582   3.565   4.611  16.487
 7697TIP3    H244583   3.630   4.475  16.468
 7698TIP3   OH244584   2.720   3.755   6.129
 7698TIP3    H144585   2.634   3.715   6.140
 7698TIP3    H244586   2.774   3.685   6.094
 7699TIP3   OH244587   5.338   3.770  10.754
 7699TIP3    H144588   5.331   3.706  10.824
 7699TIP3    H244589   5.330   3.855  10.798
 7700TIP3   OH244590   5.324   2.985   1.526
 7700TIP3    H144591   5.298   3.058   1.583
 7700TIP3    H244592   5.267   2.913   1.552
 7701TIP3   OH244593   5.243   3.414   4.375
 7701TIP3    H144594   5.172   3.420   4.312
 7701TIP3    H244595   5.203   3.441   4.458
 7702TIP3   OH244596   5.515   3.101  12.321
 7702TIP3    H144597   5.435   3.056  12.347
 7702TIP3    H244598   5.572   3.095  12.398
 7703TIP3   OH244599   2.878   5.101  10.896
 7703TIP3    H144600   2.828   5.030  10.855
 7703TIP3    H244601   2.882   5.169  10.829
 7704TIP3   OH244602   3.419   6.450   2.384
 7704TIP3    H144603   3.390   6.500   2.307
 7704TIP3    H244604   3.514   6.446   2.374
 7705TIP3   OH244605   1.560   0.132  15.988
 7705TIP3    H144606   1.614   0.120  15.910
 7705TIP3    H244607   1.552   0.044  16.025
 7706TIP3   OH244608   3.723   2.755  11.764
 7706TIP3    H144609   3.790   2.775  11.698
 7706TIP3    H244610   3.710   2.838  11.810
 7707TIP3   OH244611   5.683   2.948  13.757
 7707TIP3    H144612   5.616   3.011  13.784
 7707TIP3    H244613   5.706   2.973  13.668
 7708TIP3   OH244614   1.608   3.926   2.071
 7708TIP3    H144615   1.682   3.877   2.036
 7708TIP3    H244616   1.648   4.005   2.110
 7709TIP3   OH244617   0.394   4.078   5.484
 7709TIP3    H144618   0.358   3.992   5.504
 7709TIP3    H244619   0.489   4.068   5.497
 7710TIP3   OH244620   5.400   4.906   4.026
 7710TIP3    H144621   5.345   4.975   3.989
 7710TIP3    H244622   5.447   4.948   4.097
 7711TIP3   OH244623   1.061   0.443  14.287
 7711TIP3    H144624   0.975   0.406  14.305
 7711TIP3    H244625   1.111   0.371  14.250
 7712TIP3   OH244626   6.414   2.994   0.843
 7712TIP3    H144627   6.420   3.048   0.764
 7712TIP3    H244628   6.441   2.907   0.815
 7713TIP3   OH244629   1.216   5.641  16.283
 7713TIP3    H144630   1.253   5.712  16.336
 7713TIP3    H244631   1.145   5.607  16.337
 7714TIP3   OH244632   6.075   4.463  11.584
 7714TIP3    H144633   6.048   4.554  11.593
 7714TIP3    H244634   6.129   4.461  11.505
 7715TIP3   OH244635   3.437   6.653   5.572
 7715TIP3    H144636   3.452   6.559   5.581
 7715TIP3    H244637   3.444   6.670   5.478
 7716TIP3   OH244638   6.240   1.717   4.477
 7716TIP3    H144639   6.314   1.681   4.428
 7716TIP3    H244640   6.261   1.811   4.485
 7717TIP3   OH244641   2.791   2.470   5.955
 7717TIP3    H144642   2.844   2.541   5.917
 7717TIP3    H244643   2.819   2.467   6.047
 7718TIP3   OH244644   3.685   6.130  15.781
 7718TIP3    H144645   3.751   6.129  15.851
 7718TIP3    H244646   3.660   6.222  15.774
 7719TIP3   OH244647   2.121   5.304   6.433
 7719TIP3    H144648   2.110   5.373   6.499
 7719TIP3    H244649   2.082   5.226   6.474
 7720TIP3   OH244650   4.869   5.951  16.536
 7720TIP3    H144651   4.959   5.978  16.518
 7720TIP3    H244652   4.821   6.033  16.544
 7721TIP3   OH244653   0.449   6.335   0.226
 7721TIP3    H144654   0.417   6.418   0.263
 7721TIP3    H244655   0.420   6.269   0.289
 7722TIP3   OH244656   0.232   4.053   2.737
 7722TIP3    H144657   0.279   4.092   2.663
 7722TIP3    H244658   0.146   4.031   2.702
 7723TIP3   OH244659   5.905   0.068   0.703
 7723TIP3    H144660   5.971   0.007   0.671
 7723TIP3    H244661   5.931   0.087   0.793
 7724TIP3   OH244662   2.644   3.157  14.388
 7724TIP3    H144663   2.553   3.178  14.367
 7724TIP3    H244664   2.644   3.138  14.481
 7725TIP3   OH244665   1.083   4.236  14.259
 7725TIP3    H144666   1.107   4.318  14.301
 7725TIP3    H244667   1.163   4.184  14.260
 7726TIP3   OH244668   5.762   6.102  12.245
 7726TIP3    H144669   5.842   6.119  12.195
 7726TIP3    H244670   5.768   6.010  12.269
 7727TIP3   OH244671   5.555   4.296   5.600
 7727TIP3    H144672   5.648   4.296   5.621
 7727TIP3    H244673   5.514   4.338   5.676
 7728TIP3   OH244674   4.021   6.147  13.764
 7728TIP3    H144675   4.027   6.165  13.670
 7728TIP3    H244676   4.111   6.153  13.796
 7729TIP3   OH244677   1.510   5.037   2.810
 7729TIP3    H144678   1.548   4.984   2.740
 7729TIP3    H244679   1.585   5.083   2.848
 7730TIP3   OH244680   4.116   5.513  11.132
 7730TIP3    H144681   4.184   5.447  11.146
 7730TIP3    H244682   4.158   5.580  11.078
 7731TIP3   OH244683   5.322   1.642   3.355
 7731TIP3    H144684   5.364   1.564   3.391
 7731TIP3    H244685   5.231   1.635   3.384
 7732TIP3   OH244686   2.280   4.608   1.653
 7732TIP3    H144687   2.332   4.575   1.726
 7732TIP3    H244688   2.304   4.553   1.579
 7733TIP3   OH244689   6.007   4.548   5.824
 7733TIP3    H144690   5.968   4.535   5.737
 7733TIP3    H244691   6.099   4.566   5.807
 7734TIP3   OH244692   1.838   3.068  14.224
 7734TIP3    H144693   1.814   2.985  14.265
 7734TIP3    H244694   1.754   3.109  14.203
 7735TIP3   OH244695   6.356   4.658   4.917
 7735TIP3    H144696   6.361   4.563   4.919
 7735TIP3    H244697   6.440   4.686   4.881
 7736TIP3   OH244698   4.693   0.544  16.580
 7736TIP3    H144699   4.775   0.539  16.531
 7736TIP3    H244700   4.641   0.609  16.533
 7737TIP3   OH244701   0.354   2.592   5.817
 7737TIP3    H144702   0.368   2.519   5.757
 7737TIP3    H244703   0.274   2.569   5.865
 7738TIP3   OH244704   0.174   2.177  11.051
 7738TIP3    H144705   0.156   2.256  11.000
 7738TIP3    H244706   0.208   2.114  10.988
 7739TIP3   OH244707   5.399   6.108   4.860
 7739TIP3    H144708   5.419   6.040   4.924
 7739TIP3    H244709   5.338   6.167   4.905
 7740TIP3   OH244710   4.226   3.055  10.987
 7740TIP3    H144711   4.281   3.075  11.063
 7740TIP3    H244712   4.156   3.000  11.022
 7741TIP3   OH244713   3.162   5.977  14.357
 7741TIP3    H144714   3.163   6.066  14.390
 7741TIP3    H244715   3.153   5.986  14.263
 7742TIP3   OH244716   6.605   6.573   1.916
 7742TIP3    H144717   6.684   6.623   1.896
 7742TIP3    H244718   6.613   6.550   2.008
 7743TIP3   OH244719   4.653   0.500   4.482
 7743TIP3    H144720   4.565   0.509   4.444
 7743TIP3    H244721   4.700   0.578   4.451
 7744TIP3   OH244722   2.306   2.716  13.389
 7744TIP3    H144723   2.238   2.655  13.416
 7744TIP3    H244724   2.311   2.780  13.460
 7745TIP3   OH244725   5.641   0.410   2.937
 7745TIP3    H144726   5.690   0.329   2.929
 7745TIP3    H244727   5.631   0.442   2.847
 7746TIP3   OH244728   3.695   5.304   1.019
 7746TIP3    H144729   3.762   5.355   1.063
 7746TIP3    H244730   3.708   5.321   0.926
 7747TIP3   OH244731   6.750   1.402   2.077
 7747TIP3    H144732   6.659   1.387   2.100
 7747TIP3    H244733   6.747   1.452   1.996
 7748TIP3   OH244734   0.093   2.518   5.872
 7748TIP3    H144735   0.078   2.424   5.859
 7748TIP3    H244736   0.013   2.549   5.913
 7749TIP3   OH244737   3.605   1.634  12.666
 7749TIP3    H144738   3.590   1.711  12.721
 7749TIP3    H244739   3.535   1.638  12.601
 7750TIP3   OH244740   4.986   1.016  11.513
 7750TIP3    H144741   5.007   0.975  11.597
 7750TIP3    H244742   5.005   1.109  11.526
 7751TIP3   OH244743   5.353   6.356  12.761
 7751TIP3    H144744   5.301   6.311  12.694
 7751TIP3    H244745   5.345   6.448  12.738
 7752TIP3   OH244746   4.636   4.205  11.232
 7752TIP3    H144747   4.697   4.266  11.274
 7752TIP3    H244748   4.678   4.183  11.149
 7753TIP3   OH244749   2.581   6.106   4.962
 7753TIP3    H144750   2.609   6.197   4.972
 7753TIP3    H244751   2.488   6.112   4.943
 7754TIP3   OH244752   3.682   2.653   5.496
 7754TIP3    H144753   3.613   2.586   5.499
 7754TIP3    H244754   3.760   2.609   5.530
 7755TIP3   OH244755   2.978   1.307  16.389
 7755TIP3    H144756   2.929   1.317  16.308
 7755TIP3    H244757   3.070   1.308  16.362
 7756TIP3   OH244758   3.408   2.510  15.233
 7756TIP3    H144759   3.447   2.528  15.148
 7756TIP3    H244760   3.462   2.560  15.295
 7757TIP3   OH244761   2.930   3.455   3.910
 7757TIP3    H144762   2.852   3.508   3.929
 7757TIP3    H244763   2.896   3.366   3.899
 7758TIP3   OH244764   1.612   2.699  12.467
 7758TIP3    H144765   1.686   2.641  12.452
 7758TIP3    H244766   1.650   2.786  12.475
 7759TIP3   OH244767   5.025   3.689  14.313
 7759TIP3    H144768   5.104   3.739  14.293
 7759TIP3    H244769   5.057   3.616  14.366
 7760TIP3   OH244770   0.333   3.326   2.059
 7760TIP3    H144771   0.407   3.279   2.022
 7760TIP3    H244772   0.310   3.278   2.139
 7761TIP3   OH244773   0.102   4.457  15.221
 7761TIP3    H144774   0.076   4.428  15.308
 7761TIP3    H244775   0.175   4.400  15.197
 7762TIP3   OH244776   1.690   6.054  13.447
 7762TIP3    H144777   1.755   6.078  13.513
 7762TIP3    H244778   1.619   6.116  13.459
 7763TIP3   OH244779   4.235   2.271   1.357
 7763TIP3    H144780   4.202   2.190   1.394
 7763TIP3    H244781   4.202   2.340   1.415
 7764TIP3   OH244782   1.309   5.597   0.700
 7764TIP3    H144783   1.355   5.526   0.655
 7764TIP3    H244784   1.329   5.675   0.649
 7765TIP3   OH244785   0.089   0.490  14.825
 7765TIP3    H144786   0.068   0.462  14.914
 7765TIP3    H244787   0.123   0.579  14.835
 7766TIP3   OH244788   0.790   6.331  17.095
 7766TIP3    H144789   0.737   6.306  17.171
 7766TIP3    H244790   0.726   6.363  17.031
 7767TIP3   OH244791   5.958   2.240   3.728
 7767TIP3    H144792   5.939   2.149   3.706
 7767TIP3    H244793   6.032   2.236   3.789
 7768TIP3   OH244794   5.424   1.239  16.554
 7768TIP3    H144795   5.505   1.188  16.545
 7768TIP3    H244796   5.357   1.187  16.510
 7769TIP3   OH244797   0.312   1.977  16.419
 7769TIP3    H144798   0.242   1.927  16.460
 7769TIP3    H244799   0.357   2.019  16.492
 7770TIP3   OH244800   2.661   2.718   4.358
 7770TIP3    H144801   2.579   2.712   4.406
 7770TIP3    H244802   2.717   2.651   4.397
 7771TIP3   OH244803   3.157   5.688   6.211
 7771TIP3    H144804   3.138   5.770   6.257
 7771TIP3    H244805   3.071   5.648   6.197
 7772TIP3   OH244806   5.423   4.260  16.965
 7772TIP3    H144807   5.509   4.276  16.926
 7772TIP3    H244808   5.410   4.334  17.024
 7773TIP3   OH244809   3.849   6.214  10.821
 7773TIP3    H144810   3.881   6.125  10.837
 7773TIP3    H244811   3.767   6.201  10.774
 7774TIP3   OH244812   1.035   2.265   6.138
 7774TIP3    H144813   1.043   2.229   6.050
 7774TIP3    H244814   1.044   2.359   6.127
 7775TIP3   OH244815   6.237   6.055   4.868
 7775TIP3    H144816   6.264   6.147   4.862
 7775TIP3    H244817   6.141   6.058   4.858
 7776TIP3   OH244818   4.077   1.751   5.080
 7776TIP3    H144819   4.123   1.822   5.124
 7776TIP3    H244820   4.050   1.692   5.151
 7777TIP3   OH244821   2.001   2.092  12.759
 7777TIP3    H144822   2.079   2.089  12.815
 7777TIP3    H244823   2.019   2.163  12.697
 7778TIP3   OH244824   2.706   1.921  10.860
 7778TIP3    H144825   2.711   1.935  10.765
 7778TIP3    H244826   2.789   1.877  10.882
 7779TIP3   OH244827   6.674   6.627  16.306
 7779TIP3    H144828   6.593   6.612  16.258
 7779TIP3    H244829   6.650   6.617  16.398
 7780TIP3   OH244830   5.710   0.405   3.236
 7780TIP3    H144831   5.638   0.364   3.187
 7780TIP3    H244832   5.684   0.397   3.327
 7781TIP3   OH244833   5.871   3.790   5.842
 7781TIP3    H144834   5.911   3.864   5.796
 7781TIP3    H244835   5.901   3.799   5.933
 7782TIP3   OH244836   2.809   2.005   4.228
 7782TIP3    H144837   2.769   1.988   4.143
 7782TIP3    H244838   2.764   2.082   4.262
 7783TIP3   OH244839   1.818   6.422   0.908
 7783TIP3    H144840   1.894   6.431   0.852
 7783TIP3    H244841   1.770   6.504   0.897
 7784TIP3   OH244842   1.003   2.146  11.423
 7784TIP3    H144843   0.993   2.055  11.395
 7784TIP3    H244844   0.922   2.189  11.395
 7785TIP3   OH244845   0.861   1.779  10.701
 7785TIP3    H144846   0.828   1.858  10.658
 7785TIP3    H244847   0.895   1.810  10.785
 7786TIP3   OH244848   3.311   5.560   3.678
 7786TIP3    H144849   3.323   5.632   3.616
 7786TIP3    H244850   3.256   5.597   3.747
 7787TIP3   OH244851   0.876   5.677  12.313
 7787TIP3    H144852   0.846   5.679  12.223
 7787TIP3    H244853   0.860   5.766  12.346
 7788TIP3   OH244854   4.533   3.879   5.338
 7788TIP3    H144855   4.570   3.874   5.426
 7788TIP3    H244856   4.607   3.901   5.282
 7789TIP3   OH244857   2.280   5.319  16.919
 7789TIP3    H144858   2.185   5.307  16.911
 7789TIP3    H244859   2.294   5.351  17.008
 7790TIP3   OH244860   1.811   3.398   4.958
 7790TIP3    H144861   1.816   3.430   4.868
 7790TIP3    H244862   1.766   3.313   4.950
 7791TIP3   OH244863   3.607   0.350  12.859
 7791TIP3    H144864   3.631   0.443  12.853
 7791TIP3    H244865   3.645   0.321  12.942
 7792TIP3   OH244866   2.154   0.628   2.790
 7792TIP3    H144867   2.141   0.534   2.797
 7792TIP3    H244868   2.219   0.649   2.857
 7793TIP3   OH244869   0.247   5.019   3.325
 7793TIP3    H144870   0.274   5.083   3.391
 7793TIP3    H244871   0.250   4.935   3.370
 7794TIP3   OH244872   1.292   3.809   4.777
 7794TIP3    H144873   1.277   3.718   4.751
 7794TIP3    H244874   1.325   3.803   4.866
 7795TIP3   OH244875   2.633   3.781  12.971
 7795TIP3    H144876   2.627   3.807  13.063
 7795TIP3    H244877   2.627   3.685  12.973
 7796TIP3   OH244878   3.652   4.494   0.359
 7796TIP3    H144879   3.624   4.494   0.450
 7796TIP3    H244880   3.601   4.563   0.317
 7797TIP3   OH244881   0.537   6.626  12.032
 7797TIP3    H144882   0.574   6.559  11.974
 7797TIP3    H244883   0.609   6.689  12.044
 7798TIP3   OH244884   2.577   2.385   6.744
 7798TIP3    H144885   2.510   2.386   6.812
 7798TIP3    H244886   2.553   2.457   6.685
 7799TIP3   OH244887   4.815   2.855   1.297
 7799TIP3    H144888   4.746   2.911   1.335
 7799TIP3    H244889   4.768   2.793   1.242
 7800TIP3   OH244890   4.591   0.754  16.469
 7800TIP3    H144891   4.550   0.768  16.554
 7800TIP3    H244892   4.605   0.842  16.434
 7801TIP3   OH244893   2.388   3.133  11.792
 7801TIP3    H144894   2.309   3.185  11.781
 7801TIP3    H244895   2.388   3.072  11.719
 7802TIP3   OH244896   3.926   3.925  11.197
 7802TIP3    H144897   3.988   3.970  11.140
 7802TIP3    H244898   3.840   3.945  11.160
 7803TIP3   OH244899   4.845   4.227   0.576
 7803TIP3    H144900   4.842   4.178   0.494
 7803TIP3    H244901   4.835   4.318   0.550
 7804TIP3   OH244902   1.851   3.416   3.868
 7804TIP3    H144903   1.756   3.429   3.878
 7804TIP3    H244904   1.875   3.364   3.944
 7805TIP3   OH244905   4.362   2.407  15.521
 7805TIP3    H144906   4.438   2.387  15.467
 7805TIP3    H244907   4.386   2.486  15.569
 7806TIP3   OH244908   2.073   3.339  16.748
 7806TIP3    H144909   2.139   3.274  16.723
 7806TIP3    H244910   2.123   3.419  16.764
 7807TIP3   OH244911   2.261   5.907  12.587
 7807TIP3    H144912   2.296   5.819  12.576
 7807TIP3    H244913   2.323   5.963  12.541
 7808TIP3   OH244914   2.551   3.111   4.902
 7808TIP3    H144915   2.518   3.029   4.939
 7808TIP3    H244916   2.616   3.084   4.837
 7809TIP3   OH244917   2.972   3.122  16.670
 7809TIP3    H144918   2.930   3.208  16.669
 7809TIP3    H244919   2.970   3.094  16.579
 7810TIP3   OH244920   4.488   3.583  15.065
 7810TIP3    H144921   4.569   3.540  15.093
 7810TIP3    H244922   4.460   3.632  15.142
 7811TIP3   OH244923   3.597   6.122  14.225
 7811TIP3    H144924   3.585   6.091  14.315
 7811TIP3    H244925   3.509   6.126  14.189
 7812TIP3   OH244926   2.170   5.860   0.771
 7812TIP3    H144927   2.086   5.901   0.750
 7812TIP3    H244928   2.153   5.766   0.769
 7813TIP3   OH244929   4.768   1.144  15.916
 7813TIP3    H144930   4.750   1.050  15.921
 7813TIP3    H244931   4.828   1.160  15.989
 7814TIP3   OH244932   3.013   0.561   6.035
 7814TIP3    H144933   3.082   0.497   6.052
 7814TIP3    H244934   3.055   0.629   5.982
 7815TIP3   OH244935   5.287   3.033   4.848
 7815TIP3    H144936   5.294   3.043   4.943
 7815TIP3    H244937   5.294   3.122   4.814
 7816TIP3   OH244938   0.735   4.634   5.963
 7816TIP3    H144939   0.756   4.726   5.972
 7816TIP3    H244940   0.819   4.589   5.966
 7817TIP3   OH244941   6.651   6.562   3.496
 7817TIP3    H144942   6.608   6.491   3.448
 7817TIP3    H244943   6.629   6.641   3.446
 7818TIP3   OH244944   4.656   4.105  14.072
 7818TIP3    H144945   4.569   4.072  14.094
 7818TIP3    H244946   4.714   4.030  14.088
 7819TIP3   OH244947   6.510   0.539   3.241
 7819TIP3    H144948   6.603   0.538   3.217
 7819TIP3    H244949   6.499   0.620   3.289
 7820TIP3   OH244950   5.652   0.616   0.156
 7820TIP3    H144951   5.601   0.651   0.083
 7820TIP3    H244952   5.735   0.590   0.118
 7821TIP3   OH244953   1.769   5.377  14.155
 7821TIP3    H144954   1.706   5.439  14.192
 7821TIP3    H244955   1.761   5.390  14.060
 7822TIP3   OH244956   4.754   4.230   0.270
 7822TIP3    H144957   4.722   4.247   0.182
 7822TIP3    H244958   4.808   4.152   0.261
 7823TIP3   OH244959   2.373   5.509   6.374
 7823TIP3    H144960   2.300   5.507   6.436
 7823TIP3    H244961   2.337   5.471   6.294
 7824TIP3   OH244962   5.631   2.720   2.501
 7824TIP3    H144963   5.678   2.637   2.495
 7824TIP3    H244964   5.672   2.776   2.436
 7825TIP3   OH244965   5.564   5.105   2.068
 7825TIP3    H144966   5.469   5.094   2.063
 7825TIP3    H244967   5.579   5.142   2.155
 7826TIP3   OH244968   1.702   4.328  15.188
 7826TIP3    H144969   1.640   4.349  15.259
 7826TIP3    H244970   1.673   4.382  15.115
 7827TIP3   OH244971   5.831   0.835   0.323
 7827TIP3    H144972   5.915   0.846   0.277
 7827TIP3    H244973   5.766   0.875   0.265
 7828TIP3   OH244974   3.052   4.709  15.901
 7828TIP3    H144975   2.990   4.758  15.847
 7828TIP3    H244976   2.997   4.656  15.959
 7829TIP3   OH244977   1.335   3.150  11.194
 7829TIP3    H144978   1.356   3.166  11.102
 7829TIP3    H244979   1.300   3.061  11.195
 7830TIP3   OH244980   0.080   4.892  11.311
 7830TIP3    H144981   0.091   4.891  11.216
 7830TIP3    H244982   0.155   4.844  11.345
 7831TIP3   OH244983   5.969   0.458   6.832
 7831TIP3    H144984   5.937   0.369   6.816
 7831TIP3    H244985   6.037   0.446   6.899
 7832TIP3   OH244986   6.697   0.712  11.788
 7832TIP3    H144987   6.657   0.783  11.737
 7832TIP3    H244988   6.780   0.747  11.818
 7833TIP3   OH244989   6.681   4.257  12.865
 7833TIP3    H144990   6.666   4.351  12.861
 7833TIP3    H244991   6.776   4.247  12.851
 7834TIP3   OH244992   0.281   1.994  12.303
 7834TIP3    H144993   0.253   2.063  12.364
 7834TIP3    H244994   0.243   1.914  12.338
 7835TIP3   OH244995   6.372   1.836   5.105
 7835TIP3    H144996   6.309   1.778   5.147
 7835TIP3    H244997   6.458   1.798   5.126
 7836TIP3   OH244998   0.562   1.644  12.842
 7836TIP3    H144999   0.608   1.584  12.900
 7836TIP3    H245000   0.479   1.600  12.821
 7837TIP3   OH245001   3.007   4.090  12.130
 7837TIP3    H145002   2.976   4.106  12.041
 7837TIP3    H245003   3.047   4.173  12.157
 7838TIP3   OH245004   6.215   5.865   1.300
 7838TIP3    H145005   6.159   5.917   1.242
 7838TIP3    H245006   6.176   5.777   1.298
 7839TIP3   OH245007   3.382   0.199   2.604
 7839TIP3    H145008   3.418   0.110   2.597
 7839TIP3    H245009   3.398   0.238   2.518
 7840TIP3   OH245010   5.258   1.910  13.757
 7840TIP3    H145011   5.172   1.918  13.799
 7840TIP3    H245012   5.260   1.980  13.693
 7841TIP3   OH245013   4.113   4.989  14.312
 7841TIP3    H145014   4.071   5.058  14.261
 7841TIP3    H245015   4.186   5.032  14.355
 7842TIP3   OH245016   4.664   2.423  15.519
 7842TIP3    H145017   4.687   2.513  15.500
 7842TIP3    H245018   4.743   2.386  15.560
 7843TIP3   OH245019   1.797   4.953  11.292
 7843TIP3    H145020   1.788   4.862  11.263
 7843TIP3    H245021   1.772   5.005  11.216
 7844TIP3   OH245022   6.672   0.491  15.639
 7844TIP3    H145023   6.652   0.479  15.546
 7844TIP3    H245024   6.739   0.559  15.641
 7845TIP3   OH245025   2.117   1.863   6.947
 7845TIP3    H145026   2.115   1.768   6.951
 7845TIP3    H245027   2.122   1.883   6.853
 7846TIP3   OH245028   4.650   2.346  13.111
 7846TIP3    H145029   4.578   2.338  13.174
 7846TIP3    H245030   4.676   2.256  13.094
 7847TIP3   OH245031   3.200   0.776   0.810
 7847TIP3    H145032   3.219   0.763   0.903
 7847TIP3    H245033   3.167   0.865   0.804
 7848TIP3   OH245034   6.702   2.615   1.420
 7848TIP3    H145035   6.617   2.571   1.421
 7848TIP3    H245036   6.687   2.695   1.370
 7849TIP3   OH245037   5.558   3.823  16.703
 7849TIP3    H145038   5.577   3.908  16.663
 7849TIP3    H245039   5.470   3.833  16.739
 7850TIP3   OH245040   0.611   3.145   3.494
 7850TIP3    H145041   0.683   3.208   3.487
 7850TIP3    H245042   0.653   3.060   3.500
 7851TIP3   OH245043   4.855   4.221   2.863
 7851TIP3    H145044   4.949   4.236   2.874
 7851TIP3    H245045   4.845   4.126   2.869
 7852TIP3   OH245046   6.023   3.895  15.159
 7852TIP3    H145047   5.940   3.913  15.116
 7852TIP3    H245048   6.066   3.831  15.101
 7853TIP3   OH245049   3.407   1.872   4.449
 7853TIP3    H145050   3.446   1.952   4.414
 7853TIP3    H245051   3.347   1.901   4.517
 7854TIP3   OH245052   0.221   0.328  12.604
 7854TIP3    H145053   0.170   0.355  12.528
 7854TIP3    H245054   0.256   0.242  12.580
 7855TIP3   OH245055   4.366   1.509   6.116
 7855TIP3    H145056   4.368   1.585   6.057
 7855TIP3    H245057   4.275   1.504   6.145
 7856TIP3   OH245058   5.082   6.010   5.646
 7856TIP3    H145059   5.044   5.982   5.729
 7856TIP3    H245060   5.060   6.103   5.640
 7857TIP3   OH245061   6.702   4.006  13.624
 7857TIP3    H145062   6.693   3.918  13.587
 7857TIP3    H245063   6.795   4.025  13.621
 7858TIP3   OH245064   0.422   6.254   5.307
 7858TIP3    H145065   0.366   6.257   5.384
 7858TIP3    H245066   0.451   6.163   5.301
 7859TIP3   OH245067   1.654   4.969  14.953
 7859TIP3    H145068   1.617   4.900  14.898
 7859TIP3    H245069   1.703   5.025  14.892
 7860TIP3   OH245070   4.989   6.280   3.712
 7860TIP3    H145071   4.987   6.374   3.729
 7860TIP3    H245072   4.909   6.246   3.752
 7861TIP3   OH245073   4.266   3.550   1.793
 7861TIP3    H145074   4.260   3.541   1.698
 7861TIP3    H245075   4.310   3.634   1.807
 7862TIP3   OH245076   3.317   5.912   4.141
 7862TIP3    H145077   3.316   6.004   4.168
 7862TIP3    H245078   3.370   5.911   4.061
 7863TIP3   OH245079   2.373   1.657  16.274
 7863TIP3    H145080   2.401   1.698  16.192
 7863TIP3    H245081   2.293   1.704  16.298
 7864TIP3   OH245082   2.954   2.984  12.030
 7864TIP3    H145083   2.904   3.043  11.974
 7864TIP3    H245084   3.038   3.028  12.042
 7865TIP3   OH245085   4.967   0.825  14.226
 7865TIP3    H145086   4.972   0.884  14.302
 7865TIP3    H245087   4.959   0.737  14.264
 7866TIP3   OH245088   1.025   0.875  11.762
 7866TIP3    H145089   1.081   0.939  11.805
 7866TIP3    H245090   0.985   0.826  11.834
 7867TIP3   OH245091   4.976   5.989   4.687
 7867TIP3    H145092   4.947   6.073   4.651
 7867TIP3    H245093   4.895   5.938   4.695
 7868TIP3   OH245094   3.682   5.978   3.139
 7868TIP3    H145095   3.716   5.986   3.228
 7868TIP3    H245096   3.640   5.892   3.137
 7869TIP3   OH245097   1.762   3.023   4.637
 7869TIP3    H145098   1.686   3.011   4.579
 7869TIP3    H245099   1.808   2.939   4.634
 7870TIP3   OH245100   1.029   2.559  14.032
 7870TIP3    H145101   1.073   2.531  14.112
 7870TIP3    H245102   0.958   2.616  14.063
 7871TIP3   OH245103   0.964   5.983  14.609
 7871TIP3    H145104   0.914   5.916  14.563
 7871TIP3    H245105   0.909   6.061  14.604
 7872TIP3   OH245106   3.693   6.464  16.660
 7872TIP3    H145107   3.750   6.530  16.622
 7872TIP3    H245108   3.694   6.483  16.754
 7873TIP3   OH245109   6.606   2.898   0.542
 7873TIP3    H145110   6.553   2.977   0.552
 7873TIP3    H245111   6.583   2.865   0.455
 7874TIP3   OH245112   6.803   1.118   5.962
 7874TIP3    H145113   6.803   1.022   5.955
 7874TIP3    H245114   6.715   1.144   5.933
 7875TIP3   OH245115   0.163   4.502  17.272
 7875TIP3    H145116   0.255   4.480  17.253
 7875TIP3    H245117   0.156   4.595  17.248
 7876TIP3   OH245118   5.525   3.131   2.717
 7876TIP3    H145119   5.444   3.080   2.723
 7876TIP3    H245120   5.550   3.148   2.808
 7877TIP3   OH245121   0.272   2.508   6.228
 7877TIP3    H145122   0.254   2.445   6.159
 7877TIP3    H245123   0.190   2.557   6.237
 7878TIP3   OH245124   3.351   1.493   2.825
 7878TIP3    H145125   3.435   1.537   2.831
 7878TIP3    H245126   3.340   1.448   2.908
 7879TIP3   OH245127   3.744   2.504   0.586
 7879TIP3    H145128   3.806   2.512   0.659
 7879TIP3    H245129   3.685   2.434   0.613
 7880TIP3   OH245130   6.554   0.287   5.394
 7880TIP3    H145131   6.494   0.360   5.379
 7880TIP3    H245132   6.531   0.224   5.326
 7881TIP3   OH245133   0.258   5.327  16.206
 7881TIP3    H145134   0.288   5.318  16.115
 7881TIP3    H245135   0.174   5.280  16.208
 7882TIP3   OH245136   1.775   1.530   0.381
 7882TIP3    H145137   1.800   1.442   0.353
 7882TIP3    H245138   1.810   1.587   0.312
 7883TIP3   OH245139   5.086   4.575   2.913
 7883TIP3    H145140   5.005   4.620   2.890
 7883TIP3    H245141   5.125   4.629   2.982
 7884TIP3   OH245142   5.375   6.720  12.081
 7884TIP3    H145143   5.323   6.639  12.073
 7884TIP3    H245144   5.352   6.771  12.004
 7885TIP3   OH245145   0.514   6.813  16.957
 7885TIP3    H145146   0.486   6.832  17.046
 7885TIP3    H245147   0.434   6.819  16.904
 7886TIP3   OH245148   6.793   2.359   3.345
 7886TIP3    H145149   6.872   2.395   3.386
 7886TIP3    H245150   6.785   2.406   3.262
 7887TIP3   OH245151   5.595   1.499  16.456
 7887TIP3    H145152   5.686   1.503  16.428
 7887TIP3    H245153   5.599   1.489  16.551
 7888TIP3   OH245154   5.877   0.483   1.779
 7888TIP3    H145155   5.782   0.479   1.791
 7888TIP3    H245156   5.913   0.452   1.863
 7889TIP3   OH245157   1.398   3.560   1.166
 7889TIP3    H145158   1.482   3.601   1.143
 7889TIP3    H245159   1.336   3.633   1.168
 7890TIP3   OH245160   1.898   2.558   0.431
 7890TIP3    H145161   1.966   2.616   0.396
 7890TIP3    H245162   1.881   2.591   0.519
 7891TIP3   OH245163   3.493   0.664   3.543
 7891TIP3    H145164   3.425   0.707   3.596
 7891TIP3    H245165   3.444   0.614   3.478
 7892TIP3   OH245166   6.668   0.744   1.507
 7892TIP3    H145167   6.581   0.706   1.502
 7892TIP3    H245168   6.722   0.673   1.543
 7893TIP3   OH245169   5.140   1.608  15.427
 7893TIP3    H145170   5.146   1.545  15.499
 7893TIP3    H245171   5.220   1.594  15.376
 7894TIP3   OH245172   1.337   6.025   2.964
 7894TIP3    H145173   1.252   6.002   2.926
 7894TIP3    H245174   1.342   6.120   2.955
 7895TIP3   OH245175   2.793   5.784   0.949
 7895TIP3    H145176   2.706   5.798   0.986
 7895TIP3    H245177   2.839   5.866   0.966
 7896TIP3   OH245178   3.375   2.712   1.207
 7896TIP3    H145179   3.310   2.657   1.163
 7896TIP3    H245180   3.456   2.696   1.159
 7897TIP3   OH245181   4.762   1.329   1.374
 7897TIP3    H145182   4.668   1.315   1.388
 7897TIP3    H245183   4.773   1.424   1.382
 7898TIP3   OH245184   6.157   1.495   6.145
 7898TIP3    H145185   6.235   1.484   6.199
 7898TIP3    H245186   6.084   1.479   6.205
 7899TIP3   OH245187   1.515   1.912   4.051
 7899TIP3    H145188   1.494   1.934   4.142
 7899TIP3    H245189   1.588   1.850   4.057
 7900TIP3   OH245190   1.215   2.170  16.128
 7900TIP3    H145191   1.265   2.195  16.050
 7900TIP3    H245192   1.245   2.229  16.197
 7901TIP3   OH245193   2.337   5.753  12.295
 7901TIP3    H145194   2.321   5.661  12.273
 7901TIP3    H245195   2.402   5.782  12.231
 7902TIP3   OH245196   4.541   3.195   4.855
 7902TIP3    H145197   4.485   3.155   4.788
 7902TIP3    H245198   4.567   3.122   4.911
 7903TIP3   OH245199   5.669   4.638  12.152
 7903TIP3    H145200   5.694   4.594  12.233
 7903TIP3    H245201   5.752   4.662  12.110
 7904TIP3   OH245202   2.167   6.486   3.695
 7904TIP3    H145203   2.164   6.391   3.709
 7904TIP3    H245204   2.245   6.500   3.641
 7905TIP3   OH245205   2.230   0.167   6.956
 7905TIP3    H145206   2.169   0.190   6.885
 7905TIP3    H245207   2.173   0.148   7.031
 7906TIP3   OH245208   4.686   0.905  11.445
 7906TIP3    H145209   4.724   0.819  11.462
 7906TIP3    H245210   4.756   0.967  11.468
 7907TIP3   OH245211   2.394   4.172  14.618
 7907TIP3    H145212   2.328   4.112  14.652
 7907TIP3    H245213   2.406   4.144  14.527
 7908TIP3   OH245214   6.596   1.096   2.769
 7908TIP3    H145215   6.568   1.158   2.701
 7908TIP3    H245216   6.649   1.031   2.722
 7909TIP3   OH245217   1.798   2.628  13.148
 7909TIP3    H145218   1.856   2.645  13.222
 7909TIP3    H245219   1.710   2.645  13.181
 7910TIP3   OH245220   6.520   2.159  14.199
 7910TIP3    H145221   6.546   2.192  14.113
 7910TIP3    H245222   6.435   2.198  14.215
 7911TIP3   OH245223   5.284   2.824  16.283
 7911TIP3    H145224   5.295   2.825  16.378
 7911TIP3    H245225   5.298   2.732  16.258
 7912TIP3   OH245226   0.268   1.979  13.919
 7912TIP3    H145227   0.360   1.997  13.899
 7912TIP3    H245228   0.270   1.896  13.967
 7913TIP3   OH245229   4.931   5.770  12.919
 7913TIP3    H145230   4.878   5.849  12.909
 7913TIP3    H245231   5.021   5.801  12.915
 7914TIP3   OH245232   4.401   2.788   0.959
 7914TIP3    H145233   4.455   2.720   0.999
 7914TIP3    H245234   4.406   2.769   0.865
 7915TIP3   OH245235   6.058   0.551   5.421
 7915TIP3    H145236   6.066   0.568   5.327
 7915TIP3    H245237   5.964   0.546   5.437
 7916TIP3   OH245238   2.365   6.123   0.661
 7916TIP3    H145239   2.380   6.069   0.583
 7916TIP3    H245240   2.326   6.063   0.725
 7917TIP3   OH245241   5.080   2.897   1.335
 7917TIP3    H145242   5.087   2.972   1.276
 7917TIP3    H245243   4.987   2.874   1.334
 7918TIP3   OH245244   0.640   0.101  15.621
 7918TIP3    H145245   0.733   0.115  15.638
 7918TIP3    H245246   0.620   0.019  15.666
 7919TIP3   OH245247   1.230   4.695  16.618
 7919TIP3    H145248   1.174   4.669  16.690
 7919TIP3    H245249   1.172   4.746  16.560
 7920TIP3   OH245250   2.822   0.200   1.342
 7920TIP3    H145251   2.893   0.183   1.280
 7920TIP3    H245252   2.864   0.200   1.428
 7921TIP3   OH245253   2.821   2.366   6.658
 7921TIP3    H145254   2.805   2.306   6.586
 7921TIP3    H245255   2.742   2.360   6.712
 7922TIP3   OH245256   5.184   2.920  12.874
 7922TIP3    H145257   5.118   2.883  12.815
 7922TIP3    H245258   5.250   2.852  12.881
 7923TIP3   OH245259   1.799   2.281   3.936
 7923TIP3    H145260   1.704   2.290   3.948
 7923TIP3    H245261   1.836   2.352   3.988
 7924TIP3   OH245262   2.232   2.352   1.594
 7924TIP3    H145263   2.322   2.360   1.564
 7924TIP3    H245264   2.232   2.277   1.654
 7925TIP3   OH245265   5.425   5.540  11.627
 7925TIP3    H145266   5.351   5.478  11.625
 7925TIP3    H245267   5.398   5.607  11.689
 7926TIP3   OH245268   2.708   5.210  16.526
 7926TIP3    H145269   2.656   5.270  16.474
 7926TIP3    H245270   2.756   5.267  16.587
 7927TIP3   OH245271   0.756   0.696  15.383
 7927TIP3    H145272   0.748   0.616  15.331
 7927TIP3    H245273   0.666   0.725  15.397
 7928TIP3   OH245274   5.165   6.109  13.053
 7928TIP3    H145275   5.140   6.053  12.980
 7928TIP3    H245276   5.088   6.165  13.067
 7929TIP3   OH245277   4.405   3.664  15.798
 7929TIP3    H145278   4.354   3.734  15.839
 7929TIP3    H245279   4.427   3.698  15.711
 7930TIP3   OH245280   3.614   2.274   3.365
 7930TIP3    H145281   3.592   2.357   3.408
 7930TIP3    H245282   3.582   2.284   3.276
 7931TIP3   OH245283   1.354   5.770  11.694
 7931TIP3    H145284   1.278   5.713  11.683
 7931TIP3    H245285   1.426   5.710  11.714
 7932TIP3   OH245286   6.338   2.699   3.581
 7932TIP3    H145287   6.373   2.771   3.634
 7932TIP3    H245288   6.412   2.640   3.570
 7933TIP3   OH245289   5.471   6.402   4.696
 7933TIP3    H145290   5.519   6.480   4.722
 7933TIP3    H245291   5.417   6.381   4.773
 7934TIP3   OH245292   6.241   0.519  14.453
 7934TIP3    H145293   6.228   0.467  14.373
 7934TIP3    H245294   6.329   0.555  14.444
 7935TIP3   OH245295   0.407   0.968   0.536
 7935TIP3    H145296   0.386   0.893   0.481
 7935TIP3    H245297   0.502   0.981   0.524
 7936TIP3   OH245298   3.048   0.946  16.855
 7936TIP3    H145299   2.963   0.902  16.850
 7936TIP3    H245300   3.043   1.000  16.934
 7937TIP3   OH245301   1.741   2.894  15.583
 7937TIP3    H145302   1.829   2.911  15.615
 7937TIP3    H245303   1.718   2.808  15.619
 7938TIP3   OH245304   0.618   4.972  16.122
 7938TIP3    H145305   0.582   5.031  16.056
 7938TIP3    H245306   0.563   4.987  16.199
 7939TIP3   OH245307   4.667   5.961   2.484
 7939TIP3    H145308   4.700   5.919   2.563
 7939TIP3    H245309   4.574   5.975   2.502
 7940TIP3   OH245310   6.756   0.421  11.882
 7940TIP3    H145311   6.758   0.501  11.831
 7940TIP3    H245312   6.819   0.437  11.953
 7941TIP3   OH245313   4.301   3.931   5.779
 7941TIP3    H145314   4.208   3.941   5.756
 7941TIP3    H245315   4.326   4.016   5.815
 7942TIP3   OH245316   4.406   2.230   1.145
 7942TIP3    H145317   4.362   2.267   1.221
 7942TIP3    H245318   4.352   2.155   1.120
 7943TIP3   OH245319   2.015   6.508   5.976
 7943TIP3    H145320   2.059   6.497   5.891
 7943TIP3    H245321   1.977   6.595   5.972
 7944TIP3   OH245322   1.861   3.129   2.176
 7944TIP3    H145323   1.775   3.117   2.136
 7944TIP3    H245324   1.891   3.214   2.145
 7945TIP3   OH245325   4.775   1.942   2.007
 7945TIP3    H145326   4.694   1.945   2.058
 7945TIP3    H245327   4.790   1.849   1.991
 7946TIP3   OH245328   5.031   1.808  12.983
 7946TIP3    H145329   5.107   1.750  12.988
 7946TIP3    H245330   4.968   1.760  12.929
 7947TIP3   OH245331   6.317   4.406   5.445
 7947TIP3    H145332   6.264   4.477   5.479
 7947TIP3    H245333   6.272   4.326   5.472
 7948TIP3   OH245334   3.863   5.878   0.405
 7948TIP3    H145335   3.801   5.950   0.407
 7948TIP3    H245336   3.852   5.838   0.319
 7949TIP3   OH245337   4.402   1.080   5.678
 7949TIP3    H145338   4.385   1.104   5.770
 7949TIP3    H245339   4.405   1.163   5.632
 7950TIP3   OH245340   0.998   4.850  14.910
 7950TIP3    H145341   1.010   4.892  14.995
 7950TIP3    H245342   1.021   4.918  14.846
 7951TIP3   OH245343   1.779   6.183  12.070
 7951TIP3    H145344   1.731   6.100  12.069
 7951TIP3    H245345   1.760   6.223  11.984
 7952TIP3   OH245346   3.016   5.374  14.576
 7952TIP3    H145347   3.068   5.316  14.632
 7952TIP3    H245348   2.946   5.405  14.633
 7953TIP3   OH245349   2.119   0.985  13.829
 7953TIP3    H145350   2.029   0.986  13.861
 7953TIP3    H245351   2.123   0.907  13.773
 7954TIP3   OH245352   3.148   4.403   2.882
 7954TIP3    H145353   3.210   4.375   2.815
 7954TIP3    H245354   3.114   4.321   2.918
 7955TIP3   OH245355   1.697   5.631  14.966
 7955TIP3    H145356   1.763   5.586  14.913
 7955TIP3    H245357   1.618   5.577  14.957
 7956TIP3   OH245358   3.377   6.527   4.464
 7956TIP3    H145359   3.397   6.549   4.555
 7956TIP3    H245360   3.461   6.503   4.426
 7957TIP3   OH245361   1.107   4.180   4.391
 7957TIP3    H145362   1.067   4.225   4.465
 7957TIP3    H245363   1.078   4.090   4.399
 7958TIP3   OH245364   1.240   2.687   4.036
 7958TIP3    H145365   1.222   2.624   3.966
 7958TIP3    H245366   1.216   2.772   3.999
 7959TIP3   OH245367   5.301   3.739   2.841
 7959TIP3    H145368   5.380   3.792   2.832
 7959TIP3    H245369   5.328   3.665   2.895
 7960TIP3   OH245370   1.641   4.883   2.613
 7960TIP3    H145371   1.733   4.902   2.599
 7960TIP3    H245372   1.604   4.879   2.525
 7961TIP3   OH245373   0.181   3.277  13.840
 7961TIP3    H145374   0.211   3.268  13.750
 7961TIP3    H245375   0.257   3.311  13.887
 7962TIP3   OH245376   0.063   1.425  13.585
 7962TIP3    H145377   0.122   1.497  13.565
 7962TIP3    H245378   0.118   1.361  13.631
 7963TIP3   OH245379   1.545   2.098  16.214
 7963TIP3    H145380   1.516   2.173  16.162
 7963TIP3    H245381   1.606   2.051  16.156
 7964TIP3   OH245382   0.644   1.891   4.883
 7964TIP3    H145383   0.678   1.812   4.841
 7964TIP3    H245384   0.557   1.867   4.913
 7965TIP3   OH245385   3.015   0.771  12.110
 7965TIP3    H145386   3.106   0.765  12.139
 7965TIP3    H245387   2.991   0.681  12.086
 7966TIP3   OH245388   1.774   6.737   6.155
 7966TIP3    H145389   1.773   6.724   6.061
 7966TIP3    H245390   1.741   6.655   6.191
 7967TIP3   OH245391   1.220   5.173  17.275
 7967TIP3    H145392   1.288   5.129  17.224
 7967TIP3    H245393   1.140   5.160  17.225
 7968TIP3   OH245394   5.820   1.683   2.246
 7968TIP3    H145395   5.914   1.665   2.243
 7968TIP3    H245396   5.801   1.696   2.339
 7969TIP3   OH245397   0.547   1.327  15.615
 7969TIP3    H145398   0.529   1.284  15.699
 7969TIP3    H245399   0.639   1.351  15.619
 7970TIP3   OH245400   0.771   6.115   1.595
 7970TIP3    H145401   0.819   6.033   1.604
 7970TIP3    H245402   0.760   6.126   1.500
 7971TIP3   OH245403   1.373   6.432  12.312
 7971TIP3    H145404   1.399   6.356  12.260
 7971TIP3    H245405   1.303   6.473  12.261
 7972TIP3   OH245406   0.288   4.747  16.526
 7972TIP3    H145407   0.292   4.730  16.432
 7972TIP3    H245408   0.350   4.818  16.540
 7973TIP3   OH245409   6.011   0.426  11.487
 7973TIP3    H145410   5.970   0.450  11.405
 7973TIP3    H245411   6.055   0.343  11.468
 7974TIP3   OH245412   1.362   4.386  14.891
 7974TIP3    H145413   1.360   4.300  14.931
 7974TIP3    H245414   1.343   4.446  14.964
 7975TIP3   OH245415   6.223   3.550   5.145
 7975TIP3    H145416   6.198   3.486   5.212
 7975TIP3    H245417   6.169   3.627   5.164
 7976TIP3   OH245418   6.374   5.688  12.749
 7976TIP3    H145419   6.391   5.768  12.800
 7976TIP3    H245420   6.406   5.617  12.804
 7977TIP3   OH245421   0.599   5.808  15.803
 7977TIP3    H145422   0.550   5.756  15.866
 7977TIP3    H245423   0.536   5.874  15.772
 7978TIP3   OH245424   2.541   3.130   4.304
 7978TIP3    H145425   2.465   3.072   4.299
 7978TIP3    H245426   2.562   3.149   4.213
 7979TIP3   OH245427   6.244   5.686  11.885
 7979TIP3    H145428   6.266   5.732  11.966
 7979TIP3    H245429   6.287   5.737  11.817
 7980TIP3   OH245430   4.677   3.680   1.111
 7980TIP3    H145431   4.749   3.632   1.070
 7980TIP3    H245432   4.699   3.772   1.098
 7981TIP3   OH245433   6.710   1.860   5.658
 7981TIP3    H145434   6.682   1.768   5.660
 7981TIP3    H245435   6.629   1.909   5.643
 7982TIP3   OH245436   5.990   3.097   6.455
 7982TIP3    H145437   6.029   3.099   6.367
 7982TIP3    H245438   5.958   3.186   6.468
 7983TIP3   OH245439   0.781   1.263  12.895
 7983TIP3    H145440   0.700   1.309  12.873
 7983TIP3    H245441   0.760   1.216  12.976
 7984TIP3   OH245442   2.259   4.166   1.197
 7984TIP3    H145443   2.258   4.260   1.218
 7984TIP3    H245444   2.252   4.123   1.282
 7985TIP3   OH245445   0.884   6.052   0.446
 7985TIP3    H145446   0.796   6.063   0.412
 7985TIP3    H245447   0.914   6.140   0.467
 7986TIP3   OH245448   3.229   2.395  16.499
 7986TIP3    H145449   3.279   2.476  16.508
 7986TIP3    H245450   3.210   2.388  16.405
 7987TIP3   OH245451   1.777   3.944  13.769
 7987TIP3    H145452   1.728   3.919  13.848
 7987TIP3    H245453   1.722   4.010  13.727
 7988TIP3   OH245454   6.518   3.909  14.188
 7988TIP3    H145455   6.442   3.896  14.244
 7988TIP3    H245456   6.514   4.000  14.161
 7989TIP3   OH245457   4.239   3.443   4.143
 7989TIP3    H145458   4.220   3.536   4.158
 7989TIP3    H245459   4.210   3.426   4.054
 7990TIP3   OH245460   4.884   1.683  11.074
 7990TIP3    H145461   4.878   1.759  11.131
 7990TIP3    H245462   4.794   1.649  11.070
 7991TIP3   OH245463   1.234   3.872  12.666
 7991TIP3    H145464   1.200   3.857  12.754
 7991TIP3    H245465   1.225   3.967  12.653
 7992TIP3   OH245466   4.048   0.039   0.881
 7992TIP3    H145467   4.081   0.128   0.877
 7992TIP3    H245468   3.974   0.037   0.819
 7993TIP3   OH245469   4.670   3.120  17.059
 7993TIP3    H145470   4.750   3.068  17.070
 7993TIP3    H245471   4.599   3.062  17.087
 7994TIP3   OH245472   1.623   3.995   4.079
 7994TIP3    H145473   1.590   3.911   4.111
 7994TIP3    H245474   1.545   4.048   4.065
 7995TIP3   OH245475   3.439   0.700   1.063
 7995TIP3    H145476   3.518   0.669   1.017
 7995TIP3    H245477   3.418   0.629   1.124
 7996TIP3   OH245478   4.468   3.103  13.484
 7996TIP3    H145479   4.496   3.159  13.412
 7996TIP3    H245480   4.547   3.056  13.511
 7997TIP3   OH245481   1.004   4.411  15.807
 7997TIP3    H145482   0.952   4.476  15.854
 7997TIP3    H245483   1.081   4.458  15.776
 7998TIP3   OH245484   2.658   2.702   2.863
 7998TIP3    H145485   2.651   2.625   2.919
 7998TIP3    H245486   2.570   2.740   2.864
 7999TIP3   OH245487   6.448   2.263   4.840
 7999TIP3    H145488   6.538   2.278   4.869
 7999TIP3    H245489   6.414   2.199   4.902
 8000TIP3   OH245490   4.968   1.031   4.669
 8000TIP3    H145491   4.921   0.966   4.616
 8000TIP3    H245492   5.044   0.984   4.703
 8001TIP3   OH245493   6.408   1.015  11.288
 8001TIP3    H145494   6.470   1.087  11.283
 8001TIP3    H245495   6.326   1.050  11.253
 8002TIP3   OH245496   6.121   6.787  13.209
 8002TIP3    H145497   6.030   6.813  13.195
 8002TIP3    H245498   6.121   6.691  13.199
 8003TIP3   OH245499   2.138   0.721  13.361
 8003TIP3    H145500   2.192   0.708  13.439
 8003TIP3    H245501   2.153   0.813  13.338
 8004TIP3   OH245502   3.399   4.464   1.420
 8004TIP3    H145503   3.324   4.413   1.449
 8004TIP3    H245504   3.461   4.400   1.386
 8005TIP3   OH245505   2.798   6.686  15.601
 8005TIP3    H145506   2.735   6.724  15.664
 8005TIP3    H245507   2.877   6.670  15.653
 8006TIP3   OH245508   6.072   1.614   4.104
 8006TIP3    H145509   6.163   1.601   4.079
 8006TIP3    H245510   6.034   1.526   4.104
 8007TIP3   OH245511   1.796   4.535  16.900
 8007TIP3    H145512   1.755   4.508  16.818
 8007TIP3    H245513   1.740   4.500  16.969
 8008TIP3   OH245514   2.808   2.048  16.140
 8008TIP3    H145515   2.785   2.101  16.216
 8008TIP3    H245516   2.850   2.109  16.080
 8009TIP3   OH245517   0.089   0.827  13.590
 8009TIP3    H145518   0.148   0.862  13.524
 8009TIP3    H245519   0.125   0.741  13.612
 8010TIP3   OH245520   3.037   2.053  14.680
 8010TIP3    H145521   2.995   2.060  14.594
 8010TIP3    H245522   3.085   1.970  14.677
 8011TIP3   OH245523   1.987   1.694   2.071
 8011TIP3    H145524   2.056   1.744   2.026
 8011TIP3    H245525   2.033   1.621   2.111
 8012TIP3   OH245526   5.594   2.044   1.390
 8012TIP3    H145527   5.673   2.062   1.440
 8012TIP3    H245528   5.623   1.994   1.314
 8013TIP3   OH245529   5.831   2.802  16.853
 8013TIP3    H145530   5.829   2.897  16.837
 8013TIP3    H245531   5.919   2.786  16.888
 8014TIP3   OH245532   4.978   4.130  13.301
 8014TIP3    H145533   4.965   4.047  13.348
 8014TIP3    H245534   4.890   4.159  13.278
 8015TIP3   OH245535   4.844   4.025  14.435
 8015TIP3    H145536   4.877   4.021  14.345
 8015TIP3    H245537   4.793   3.945  14.446
 8016TIP3   OH245538   1.643   5.629  16.216
 8016TIP3    H145539   1.587   5.703  16.240
 8016TIP3    H245540   1.677   5.652  16.129
 8017TIP3   OH245541   4.126   1.770   1.655
 8017TIP3    H145542   4.197   1.782   1.591
 8017TIP3    H245543   4.099   1.679   1.644
 8018TIP3   OH245544   3.081   2.590  17.239
 8018TIP3    H145545   3.163   2.541  17.243
 8018TIP3    H245546   3.046   2.572  17.152
 8019TIP3   OH245547   0.329   1.847  17.113
 8019TIP3    H145548   0.240   1.846  17.149
 8019TIP3    H245549   0.336   1.765  17.064
 8020TIP3   OH245550   2.244   5.587  13.689
 8020TIP3    H145551   2.210   5.519  13.747
 8020TIP3    H245552   2.309   5.634  13.742
 8021TIP3   OH245553   3.898   2.467   5.233
 8021TIP3    H145554   3.951   2.546   5.224
 8021TIP3    H245555   3.951   2.398   5.193
 8022TIP3   OH245556   2.757   2.932  17.134
 8022TIP3    H145557   2.799   2.904  17.053
 8022TIP3    H245558   2.664   2.914  17.120
 8023TIP3   OH245559   4.186   3.819  10.961
 8023TIP3    H145560   4.142   3.780  10.885
 8023TIP3    H245561   4.131   3.893  10.985
 8024TIP3   OH245562   5.673   1.032   1.544
 8024TIP3    H145563   5.590   1.069   1.513
 8024TIP3    H245564   5.699   1.089   1.616
 8025TIP3   OH245565   0.900   6.136   0.170
 8025TIP3    H145566   0.872   6.147   0.261
 8025TIP3    H245567   0.966   6.203   0.156
 8026TIP3   OH245568   1.639   3.941   1.705
 8026TIP3    H145569   1.562   3.912   1.754
 8026TIP3    H245570   1.638   4.037   1.714
 8027TIP3   OH245571   0.616   0.398  15.819
 8027TIP3    H145572   0.541   0.350  15.784
 8027TIP3    H245573   0.689   0.371  15.764
 8028TIP3   OH245574   5.081   5.611   1.640
 8028TIP3    H145575   5.027   5.539   1.672
 8028TIP3    H245576   5.018   5.674   1.604
 8029TIP3   OH245577   3.053   3.368  12.398
 8029TIP3    H145578   2.967   3.370  12.440
 8029TIP3    H245579   3.060   3.452  12.352
 8030TIP3   OH245580   1.343   4.591   3.653
 8030TIP3    H145581   1.263   4.636   3.681
 8030TIP3    H245582   1.411   4.659   3.655
 8031TIP3   OH245583   1.475   6.505   4.805
 8031TIP3    H145584   1.541   6.464   4.862
 8031TIP3    H245585   1.391   6.474   4.839
 8032TIP3   OH245586   4.067   2.093  16.395
 8032TIP3    H145587   4.073   2.012  16.345
 8032TIP3    H245588   3.988   2.136  16.363
 8033TIP3   OH245589   5.202   5.250  13.039
 8033TIP3    H145590   5.233   5.248  13.129
 8033TIP3    H245591   5.276   5.284  12.989
 8034TIP3   OH245592   2.984   2.044  12.456
 8034TIP3    H145593   3.060   2.089  12.418
 8034TIP3    H245594   2.909   2.095  12.425
 8035TIP3   OH245595   4.786   6.733   0.742
 8035TIP3    H145596   4.830   6.790   0.678
 8035TIP3    H245597   4.792   6.781   0.824
 8036TIP3   OH245598   0.607   2.608  14.445
 8036TIP3    H145599   0.515   2.581  14.436
 8036TIP3    H245600   0.610   2.697  14.411
 8037TIP3   OH245601   0.189   2.465   1.055
 8037TIP3    H145602   0.177   2.425   0.969
 8037TIP3    H245603   0.222   2.395   1.110
 8038TIP3   OH245604   0.567   4.460  12.592
 8038TIP3    H145605   0.537   4.505  12.513
 8038TIP3    H245606   0.655   4.429  12.571
 8039TIP3   OH245607   0.435   5.767   1.360
 8039TIP3    H145608   0.400   5.749   1.447
 8039TIP3    H245609   0.453   5.861   1.361
 8040TIP3   OH245610   2.058   6.086  16.706
 8040TIP3    H145611   2.101   6.054  16.627
 8040TIP3    H245612   1.985   6.025  16.720
 8041TIP3   OH245613   5.245   2.749  16.566
 8041TIP3    H145614   5.210   2.661  16.579
 8041TIP3    H245615   5.168   2.806  16.561
 8042TIP3   OH245616   0.579   3.892   2.673
 8042TIP3    H145617   0.600   3.802   2.700
 8042TIP3    H245618   0.661   3.927   2.641
 8043TIP3   OH245619   6.792   2.749   5.413
 8043TIP3    H145620   6.731   2.766   5.484
 8043TIP3    H245621   6.746   2.776   5.334
 8044TIP3   OH245622   0.048   0.933  11.172
 8044TIP3    H145623   0.141   0.933  11.196
 8044TIP3    H245624   0.043   0.881  11.092
 8045TIP3   OH245625   2.815   6.113  13.194
 8045TIP3    H145626   2.826   6.177  13.123
 8045TIP3    H245627   2.722   6.115  13.215
 8046TIP3   OH245628   6.338   4.549   1.460
 8046TIP3    H145629   6.271   4.616   1.468
 8046TIP3    H245630   6.330   4.498   1.541
 8047TIP3   OH245631   6.553   1.279   5.346
 8047TIP3    H145632   6.492   1.209   5.367
 8047TIP3    H245633   6.611   1.284   5.422
 8048TIP3   OH245634   1.267   3.131   2.964
 8048TIP3    H145635   1.252   3.118   3.058
 8048TIP3    H245636   1.251   3.224   2.950
 8049TIP3   OH245637   2.416   1.808   3.579
 8049TIP3    H145638   2.496   1.807   3.632
 8049TIP3    H245639   2.433   1.747   3.507
 8050TIP3   OH245640   0.927   5.045   2.195
 8050TIP3    H145641   0.934   5.004   2.109
 8050TIP3    H245642   0.838   5.027   2.224
 8051TIP3   OH245643   5.565   5.321  14.457
 8051TIP3    H145644   5.476   5.356  14.452
 8051TIP3    H245645   5.561   5.238  14.409
 8052TIP3   OH245646   1.682   5.668  16.781
 8052TIP3    H145647   1.649   5.592  16.829
 8052TIP3    H245648   1.615   5.735  16.793
 8053TIP3   OH245649   6.048   2.104   4.230
 8053TIP3    H145650   6.052   2.021   4.276
 8053TIP3    H245651   5.957   2.132   4.240
 8054TIP3   OH245652   0.042   0.261   0.655
 8054TIP3    H145653   0.066   0.222   0.571
 8054TIP3    H245654  -0.021   0.199   0.692
 8055TIP3   OH245655   0.514   2.894  15.254
 8055TIP3    H145656   0.466   2.846  15.187
 8055TIP3    H245657   0.602   2.858  15.252
 8056TIP3   OH245658   5.542   1.281  12.751
 8056TIP3    H145659   5.596   1.215  12.708
 8056TIP3    H245660   5.584   1.296  12.836
 8057TIP3   OH245661   1.353   5.165  15.311
 8057TIP3    H145662   1.447   5.151  15.313
 8057TIP3    H245663   1.332   5.173  15.218
 8058TIP3   OH245664   6.360   6.313   0.289
 8058TIP3    H145665   6.310   6.246   0.242
 8058TIP3    H245666   6.416   6.353   0.222
 8059TIP3   OH245667   1.140   1.837  12.332
 8059TIP3    H145668   1.046   1.822  12.320
 8059TIP3    H245669   1.146   1.889  12.412
 8060TIP3   OH245670   1.639   3.569  12.967
 8060TIP3    H145671   1.713   3.519  13.002
 8060TIP3    H245672   1.605   3.515  12.896
 8061TIP3   OH245673   5.389   4.123  12.516
 8061TIP3    H145674   5.322   4.087  12.574
 8061TIP3    H245675   5.453   4.053  12.506
 8062TIP3   OH245676   2.982   5.976   0.984
 8062TIP3    H145677   3.062   5.994   0.933
 8062TIP3    H245678   3.014   5.954   1.072
 8063TIP3   OH245679   1.295   2.168   6.217
 8063TIP3    H145680   1.230   2.234   6.191
 8063TIP3    H245681   1.257   2.129   6.296
 8064TIP3   OH245682   6.698   1.437   2.758
 8064TIP3    H145683   6.793   1.425   2.758
 8064TIP3    H245684   6.684   1.514   2.813
 8065TIP3   OH245685   3.822   1.159  11.230
 8065TIP3    H145686   3.898   1.202  11.269
 8065TIP3    H245687   3.777   1.117  11.304
 8066TIP3   OH245688   4.928   4.818  13.430
 8066TIP3    H145689   4.835   4.804  13.411
 8066TIP3    H245690   4.950   4.750  13.494
 8067TIP3   OH245691   6.096   4.265   4.533
 8067TIP3    H145692   6.048   4.332   4.581
 8067TIP3    H245693   6.034   4.192   4.527
 8068TIP3   OH245694   4.828   2.568   2.910
 8068TIP3    H145695   4.845   2.544   2.819
 8068TIP3    H245696   4.893   2.519   2.960
 8069TIP3   OH245697   2.702   0.332   4.555
 8069TIP3    H145698   2.746   0.281   4.487
 8069TIP3    H245699   2.751   0.414   4.559
 8070TIP3   OH245700   0.535   1.561  16.496
 8070TIP3    H145701   0.500   1.623  16.559
 8070TIP3    H245702   0.521   1.475  16.535
 8071TIP3   OH245703   6.133   5.465  16.441
 8071TIP3    H145704   6.121   5.371  16.448
 8071TIP3    H245705   6.182   5.490  16.519
 8072TIP3   OH245706   6.362   2.225  11.590
 8072TIP3    H145707   6.356   2.315  11.621
 8072TIP3    H245708   6.318   2.226  11.505
 8073TIP3   OH245709   2.332   6.608   2.748
 8073TIP3    H145710   2.324   6.575   2.837
 8073TIP3    H245711   2.426   6.623   2.736
 8074TIP3   OH245712   5.831   3.889  13.997
 8074TIP3    H145713   5.835   3.903  13.903
 8074TIP3    H245714   5.805   3.797  14.007
 8075TIP3   OH245715   5.679   0.524  13.013
 8075TIP3    H145716   5.714   0.545  12.927
 8075TIP3    H245717   5.595   0.569  13.018
 8076TIP3   OH245718   2.489   1.323   4.967
 8076TIP3    H145719   2.479   1.397   5.027
 8076TIP3    H245720   2.399   1.291   4.954
 8077TIP3   OH245721   0.922   6.767   2.464
 8077TIP3    H145722   0.948   6.789   2.375
 8077TIP3    H245723   0.883   6.680   2.457
 8078TIP3   OH245724   6.503   5.410  16.827
 8078TIP3    H145725   6.532   5.378  16.913
 8078TIP3    H245726   6.548   5.494  16.817
 8079TIP3   OH245727   2.352   6.152   1.235
 8079TIP3    H145728   2.394   6.077   1.192
 8079TIP3    H245729   2.259   6.130   1.234
 8080TIP3   OH245730   5.359   5.184  16.369
 8080TIP3    H145731   5.299   5.253  16.338
 8080TIP3    H245732   5.445   5.212  16.338
 8081TIP3   OH245733   5.126   1.685  12.468
 8081TIP3    H145734   5.126   1.645  12.380
 8081TIP3    H245735   5.067   1.630  12.519
 8082TIP3   OH245736   4.944   4.887  11.662
 8082TIP3    H145737   4.877   4.821  11.642
 8082TIP3    H245738   5.024   4.852  11.622
 8083TIP3   OH245739   4.339   3.689  13.184
 8083TIP3    H145740   4.261   3.719  13.136
 8083TIP3    H245741   4.408   3.688  13.118
 8084TIP3   OH245742   1.808   2.816  16.459
 8084TIP3    H145743   1.856   2.737  16.483
 8084TIP3    H245744   1.873   2.872  16.418
 8085TIP3   OH245745   5.437   2.216  13.505
 8085TIP3    H145746   5.412   2.130  13.472
 8085TIP3    H245747   5.525   2.230  13.469
 8086TIP3   OH245748   6.764   4.948  13.297
 8086TIP3    H145749   6.671   4.970  13.295
 8086TIP3    H245750   6.766   4.858  13.329
 8087TIP3   OH245751   5.632   0.253   0.159
 8087TIP3    H145752   5.726   0.262   0.174
 8087TIP3    H245753   5.595   0.234   0.245
 8088TIP3   OH245754   1.292   4.562  15.744
 8088TIP3    H145755   1.296   4.553  15.649
 8088TIP3    H245756   1.362   4.505  15.776
 8089TIP3   OH245757   1.094   5.552   4.804
 8089TIP3    H145758   1.166   5.612   4.787
 8089TIP3    H245759   1.057   5.534   4.718
 8090TIP3   OH245760   6.790   4.239   1.672
 8090TIP3    H145761   6.797   4.152   1.633
 8090TIP3    H245762   6.724   4.230   1.741
 8091TIP3   OH245763   1.760   5.882  12.369
 8091TIP3    H145764   1.855   5.893  12.378
 8091TIP3    H245765   1.747   5.788  12.370
 8092TIP3   OH245766   2.945   2.060   3.453
 8092TIP3    H145767   2.996   2.019   3.523
 8092TIP3    H245768   2.952   2.154   3.470
 8093TIP3   OH245769   5.914   1.419   6.544
 8093TIP3    H145770   5.931   1.371   6.625
 8093TIP3    H245771   5.830   1.384   6.513
 8094TIP3   OH245772   6.461   3.910   1.607
 8094TIP3    H145773   6.456   3.821   1.570
 8094TIP3    H245774   6.454   3.897   1.701
 8095TIP3   OH245775   5.037   2.165  10.232
 8095TIP3    H145776   5.118   2.209  10.260
 8095TIP3    H245777   5.065   2.077  10.206
 8096TIP3   OH245778   0.118   2.517  13.792
 8096TIP3    H145779   0.061   2.552  13.861
 8096TIP3    H245780   0.123   2.588  13.728
 8097TIP3   OH245781   2.667   6.407  16.253
 8097TIP3    H145782   2.678   6.488  16.202
 8097TIP3    H245783   2.579   6.377  16.230
 8098TIP3   OH245784   2.621   0.003   3.756
 8098TIP3    H145785   2.630   0.096   3.734
 8098TIP3    H245786   2.536  -0.003   3.800
 8099TIP3   OH245787   4.291   4.634   4.814
 8099TIP3    H145788   4.233   4.616   4.740
 8099TIP3    H245789   4.307   4.549   4.853
 8100TIP3   OH245790   6.354   3.727  11.424
 8100TIP3    H145791   6.420   3.683  11.477
 8100TIP3    H245792   6.372   3.699  11.335
 8101TIP3   OH245793   5.539   3.884   2.546
 8101TIP3    H145794   5.592   3.804   2.544
 8101TIP3    H245795   5.494   3.884   2.461
 8102TIP3   OH245796   2.650   3.066   2.030
 8102TIP3    H145797   2.586   3.005   1.995
 8102TIP3    H245798   2.610   3.152   2.019
 8103TIP3   OH245799   5.312   5.990   2.373
 8103TIP3    H145800   5.405   5.998   2.391
 8103TIP3    H245801   5.269   6.030   2.448
 8104TIP3   OH245802   0.306   2.717  13.133
 8104TIP3    H145803   0.290   2.624  13.115
 8104TIP3    H245804   0.382   2.718  13.190
 8105TIP3   OH245805   3.835   2.596   2.120
 8105TIP3    H145806   3.757   2.649   2.138
 8105TIP3    H245807   3.908   2.651   2.151
 8106TIP3   OH245808   6.261   4.249  15.103
 8106TIP3    H145809   6.325   4.183  15.128
 8106TIP3    H245810   6.312   4.330  15.098
 8107TIP3   OH245811   4.423   1.524   1.770
 8107TIP3    H145812   4.395   1.554   1.683
 8107TIP3    H245813   4.406   1.429   1.769
 8108TIP3   OH245814   3.189   6.046   3.077
 8108TIP3    H145815   3.244   5.994   3.019
 8108TIP3    H245816   3.227   6.133   3.075
 8109TIP3   OH245817   1.901   5.712   2.073
 8109TIP3    H145818   1.876   5.747   1.988
 8109TIP3    H245819   1.826   5.731   2.130
 8110TIP3   OH245820   2.902   4.567   1.089
 8110TIP3    H145821   2.878   4.648   1.044
 8110TIP3    H245822   2.821   4.538   1.131
 8111TIP3   OH245823   4.248   2.248  12.523
 8111TIP3    H145824   4.304   2.251  12.600
 8111TIP3    H245825   4.271   2.327  12.473
 8112TIP3   OH245826   1.597   6.253   0.385
 8112TIP3    H145827   1.558   6.331   0.423
 8112TIP3    H245828   1.609   6.275   0.292
 8113TIP3   OH245829   2.152   2.356   2.567
 8113TIP3    H145830   2.134   2.270   2.530
 8113TIP3    H245831   2.126   2.418   2.499
 8114TIP3   OH245832   4.649   3.834  14.418
 8114TIP3    H145833   4.580   3.900  14.426
 8114TIP3    H245834   4.640   3.801  14.328
 8115TIP3   OH245835   6.759   2.194   2.824
 8115TIP3    H145836   6.701   2.266   2.848
 8115TIP3    H245837   6.712   2.147   2.755
 8116TIP3   OH245838   1.015   3.123  16.516
 8116TIP3    H145839   0.992   3.174  16.438
 8116TIP3    H245840   1.010   3.032  16.487
 8117TIP3   OH245841   6.424   0.447  16.509
 8117TIP3    H145842   6.374   0.390  16.568
 8117TIP3    H245843   6.408   0.535  16.541
 8118TIP3   OH245844   5.365   0.732   5.672
 8118TIP3    H145845   5.312   0.671   5.723
 8118TIP3    H245846   5.408   0.676   5.607
 8119TIP3   OH245847   5.646   6.425   5.003
 8119TIP3    H145848   5.650   6.503   5.057
 8119TIP3    H245849   5.703   6.443   4.928
 8120TIP3   OH245850   5.776   1.141   5.735
 8120TIP3    H145851   5.685   1.111   5.727
 8120TIP3    H245852   5.828   1.060   5.736
 8121TIP3   OH245853   1.969   1.651  14.133
 8121TIP3    H145854   1.912   1.654  14.210
 8121TIP3    H245855   2.045   1.600  14.161
 8122TIP3   OH245856   6.489   4.312   3.686
 8122TIP3    H145857   6.552   4.268   3.630
 8122TIP3    H245858   6.430   4.242   3.716
 8123TIP3   OH245859   3.699   1.043  13.825
 8123TIP3    H145860   3.698   0.955  13.787
 8123TIP3    H245861   3.619   1.047  13.877
 8124TIP3   OH245862   0.893   4.539   0.773
 8124TIP3    H145863   0.811   4.495   0.796
 8124TIP3    H245864   0.871   4.632   0.771
 8125TIP3   OH245865   2.046   3.241  12.141
 8125TIP3    H145866   1.987   3.174  12.105
 8125TIP3    H245867   2.003   3.324  12.122
 8126TIP3   OH245868   4.110   3.993   2.188
 8126TIP3    H145869   4.129   3.929   2.120
 8126TIP3    H245870   4.019   3.976   2.213
 8127TIP3   OH245871   3.451   4.627  14.882
 8127TIP3    H145872   3.474   4.574  14.958
 8127TIP3    H245873   3.522   4.691  14.875
 8128TIP3   OH245874   4.115   1.536   3.595
 8128TIP3    H145875   4.105   1.614   3.539
 8128TIP3    H245876   4.146   1.468   3.535
 8129TIP3   OH245877   0.585   1.459   5.997
 8129TIP3    H145878   0.590   1.548   5.960
 8129TIP3    H245879   0.581   1.472   6.091
 8130TIP3   OH245880   2.545   2.169   2.986
 8130TIP3    H145881   2.604   2.164   3.062
 8130TIP3    H245882   2.471   2.113   3.010
 8131TIP3   OH245883   1.956   1.557   6.126
 8131TIP3    H145884   1.993   1.637   6.163
 8131TIP3    H245885   1.982   1.488   6.188
 8132TIP3   OH245886   2.333   5.428  11.763
 8132TIP3    H145887   2.428   5.412  11.761
 8132TIP3    H245888   2.296   5.361  11.706
 8133TIP3   OH245889   4.577   2.606  17.093
 8133TIP3    H145890   4.549   2.529  17.143
 8133TIP3    H245891   4.504   2.624  17.034
 8134TIP3   OH245892   5.565   1.666   3.539
 8134TIP3    H145893   5.564   1.573   3.516
 8134TIP3    H245894   5.538   1.711   3.459
 8135TIP3   OH245895   2.609   5.611  16.001
 8135TIP3    H145896   2.608   5.642  16.092
 8135TIP3    H245897   2.550   5.535  16.001
 8136TIP3   OH245898   6.068   3.119  16.729
 8136TIP3    H145899   6.157   3.144  16.703
 8136TIP3    H245900   6.080   3.076  16.814
 8137TIP3   OH245901   1.687   4.748   1.429
 8137TIP3    H145902   1.759   4.804   1.460
 8137TIP3    H245903   1.654   4.792   1.351
 8138TIP3   OH245904   1.722   4.193   1.004
 8138TIP3    H145905   1.699   4.141   1.081
 8138TIP3    H245906   1.803   4.238   1.028
 8139TIP3   OH245907   2.303   5.799  13.405
 8139TIP3    H145908   2.332   5.779  13.316
 8139TIP3    H245909   2.363   5.867  13.435
 8140TIP3   OH245910   0.188   0.353   3.966
 8140TIP3    H145911   0.275   0.381   3.938
 8140TIP3    H245912   0.201   0.268   4.008
 8141TIP3   OH245913   4.008   0.970   6.282
 8141TIP3    H145914   4.024   1.064   6.272
 8141TIP3    H245915   3.913   0.961   6.285
 8142TIP3   OH245916   4.280   6.071  14.794
 8142TIP3    H145917   4.317   5.995  14.748
 8142TIP3    H245918   4.271   6.138  14.726
 8143TIP3   OH245919   2.849   0.566  13.929
 8143TIP3    H145920   2.847   0.597  14.019
 8143TIP3    H245921   2.757   0.557  13.904
 8144TIP3   OH245922   2.282   6.376  12.753
 8144TIP3    H145923   2.236   6.362  12.670
 8144TIP3    H245924   2.211   6.389  12.817
 8145TIP3   OH245925   0.544   0.980   5.380
 8145TIP3    H145926   0.504   0.972   5.467
 8145TIP3    H245927   0.628   0.934   5.389
 8146TIP3   OH245928   6.563   3.095   3.029
 8146TIP3    H145929   6.544   3.071   3.120
 8146TIP3    H245930   6.589   3.187   3.034
 8147TIP3   OH245931   0.842   2.180   4.548
 8147TIP3    H145932   0.782   2.155   4.478
 8147TIP3    H245933   0.928   2.154   4.516
 8148TIP3   OH245934   1.533   6.216  14.280
 8148TIP3    H145935   1.472   6.289  14.293
 8148TIP3    H245936   1.609   6.239  14.335
 8149TIP3   OH245937   4.255   6.522  16.104
 8149TIP3    H145938   4.292   6.454  16.048
 8149TIP3    H245939   4.162   6.500  16.112
 8150TIP3   OH245940   6.466   0.038  15.615
 8150TIP3    H145941   6.522   0.027  15.692
 8150TIP3    H245942   6.526   0.032  15.540
 8151TIP3   OH245943   3.087   3.229   2.437
 8151TIP3    H145944   3.013   3.194   2.487
 8151TIP3    H245945   3.162   3.178   2.467
 8152TIP3   OH245946   2.480   1.572   4.354
 8152TIP3    H145947   2.425   1.599   4.428
 8152TIP3    H245948   2.514   1.486   4.379
 8153TIP3   OH245949   1.869   3.364   2.880
 8153TIP3    H145950   1.895   3.455   2.868
 8153TIP3    H245951   1.779   3.368   2.910
 8154TIP3   OH245952   1.437   1.338  14.082
 8154TIP3    H145953   1.366   1.287  14.043
 8154TIP3    H245954   1.487   1.275  14.134
 8155TIP3   OH245955   0.343   1.370  10.331
 8155TIP3    H145956   0.274   1.417  10.284
 8155TIP3    H245957   0.421   1.380  10.277
 8156TIP3   OH245958   4.394   0.060  11.523
 8156TIP3    H145959   4.474   0.113  11.517
 8156TIP3    H245960   4.343   0.100  11.593
 8157TIP3   OH245961   6.429   4.424  14.360
 8157TIP3    H145962   6.470   4.459  14.281
 8157TIP3    H245963   6.337   4.447  14.351
 8158TIP3   OH245964   5.818   1.229  17.186
 8158TIP3    H145965   5.780   1.235  17.274
 8158TIP3    H245966   5.862   1.313  17.174
 8159TIP3   OH245967   1.391   2.907  12.483
 8159TIP3    H145968   1.452   2.852  12.531
 8159TIP3    H245969   1.315   2.915  12.540
 8160TIP3   OH245970   4.221   5.035  11.656
 8160TIP3    H145971   4.286   5.017  11.725
 8160TIP3    H245972   4.171   5.109  11.691
 8161TIP3   OH245973   2.044   5.777  14.485
 8161TIP3    H145974   1.980   5.841  14.453
 8161TIP3    H245975   2.125   5.799  14.439
 8162TIP3   OH245976   0.381   5.460  12.404
 8162TIP3    H145977   0.344   5.537  12.448
 8162TIP3    H245978   0.307   5.401  12.392
 8163TIP3   OH245979   2.277   3.084   3.438
 8163TIP3    H145980   2.216   3.016   3.466
 8163TIP3    H245981   2.237   3.123   3.361
 8164TIP3   OH245982   5.867   3.195  10.854
 8164TIP3    H145983   5.896   3.125  10.795
 8164TIP3    H245984   5.942   3.210  10.912
 8165TIP3   OH245985   6.418   0.948   4.102
 8165TIP3    H145986   6.481   0.987   4.040
 8165TIP3    H245987   6.462   0.952   4.187
 8166TIP3   OH245988   5.999   6.527  11.503
 8166TIP3    H145989   5.925   6.582  11.477
 8166TIP3    H245990   5.986   6.445  11.455
 8167TIP3   OH245991   1.065   4.614   4.377
 8167TIP3    H145992   0.976   4.590   4.401
 8167TIP3    H245993   1.079   4.700   4.417
 8168TIP3   OH245994   3.600   0.182   1.758
 8168TIP3    H145995   3.514   0.144   1.740
 8168TIP3    H245996   3.598   0.202   1.852
 8169TIP3   OH245997   6.728   3.363   1.018
 8169TIP3    H145998   6.689   3.321   1.094
 8169TIP3    H245999   6.655   3.403   0.971
 8170TIP3   OH246000   2.967   5.004   2.950
 8170TIP3    H146001   2.986   5.067   2.881
 8170TIP3    H246002   2.947   4.922   2.904
 8171TIP3   OH246003   1.590   1.256   5.256
 8171TIP3    H146004   1.519   1.197   5.282
 8171TIP3    H246005   1.564   1.342   5.291
 8172TIP3   OH246006   3.866   1.589  12.068
 8172TIP3    H146007   3.869   1.506  12.114
 8172TIP3    H246008   3.857   1.655  12.137
 8173TIP3   OH246009   3.137   3.035   4.549
 8173TIP3    H146010   3.185   2.962   4.588
 8173TIP3    H246011   3.093   2.997   4.473
 8174TIP3   OH246012   3.439   3.864   5.892
 8174TIP3    H146013   3.449   3.890   5.984
 8174TIP3    H246014   3.429   3.769   5.894
 8175TIP3   OH246015   3.061   2.631  15.623
 8175TIP3    H146016   2.971   2.641  15.656
 8175TIP3    H246017   3.089   2.720  15.604
 8176TIP3   OH246018   5.740   4.460   6.535
 8176TIP3    H146019   5.659   4.506   6.558
 8176TIP3    H246020   5.742   4.384   6.593
 8177TIP3   OH246021   6.555   0.439   6.571
 8177TIP3    H146022   6.498   0.484   6.509
 8177TIP3    H246023   6.496   0.396   6.632
 8178TIP3   OH246024   6.235   0.450  12.455
 8178TIP3    H146025   6.172   0.450  12.384
 8178TIP3    H246026   6.206   0.382  12.515
 8179TIP3   OH246027   2.572   2.758  14.932
 8179TIP3    H146028   2.493   2.709  14.957
 8179TIP3    H246029   2.632   2.744  15.004
 8180TIP3   OH246030   6.412   4.757   3.686
 8180TIP3    H146031   6.353   4.817   3.641
 8180TIP3    H246032   6.467   4.814   3.740
 8181TIP3   OH246033   4.567   1.478  12.938
 8181TIP3    H146034   4.553   1.399  12.990
 8181TIP3    H246035   4.647   1.516  12.975
 8182TIP3   OH246036   0.174   5.803   4.619
 8182TIP3    H146037   0.214   5.873   4.567
 8182TIP3    H246038   0.094   5.780   4.572
 8183TIP3   OH246039   2.640   0.355   5.965
 8183TIP3    H146040   2.637   0.441   6.007
 8183TIP3    H246041   2.713   0.310   6.008
 8184TIP3   OH246042   3.383   4.499  11.987
 8184TIP3    H146043   3.306   4.485  11.932
 8184TIP3    H246044   3.451   4.445  11.948
 8185TIP3   OH246045   1.466   6.234  13.570
 8185TIP3    H146046   1.403   6.219  13.641
 8185TIP3    H246047   1.518   6.308  13.600
 8186TIP3   OH246048   5.238   0.432  13.531
 8186TIP3    H146049   5.169   0.392  13.584
 8186TIP3    H246050   5.196   0.508  13.491
 8187TIP3   OH246051   5.559   6.785  14.653
 8187TIP3    H146052   5.465   6.801  14.647
 8187TIP3    H246053   5.566   6.690  14.666
 8188TIP3   OH246054   2.761   0.753  14.446
 8188TIP3    H146055   2.821   0.777  14.375
 8188TIP3    H246056   2.741   0.836  14.490
 8189TIP3   OH246057   3.278   1.561   5.858
 8189TIP3    H146058   3.305   1.476   5.823
 8189TIP3    H246059   3.218   1.539   5.930
 8190TIP3   OH246060   6.274   5.369  16.208
 8190TIP3    H146061   6.232   5.299  16.158
 8190TIP3    H246062   6.200   5.417  16.247
 8191TIP3   OH246063   3.633   2.918   0.934
 8191TIP3    H146064   3.723   2.944   0.915
 8191TIP3    H246065   3.629   2.826   0.910
 8192TIP3   OH246066   5.333   6.278   5.399
 8192TIP3    H146067   5.244   6.252   5.377
 8192TIP3    H246068   5.383   6.197   5.398
 8193TIP3   OH246069   1.641   2.832   4.872
 8193TIP3    H146070   1.553   2.869   4.874
 8193TIP3    H246071   1.684   2.869   4.949
 8194TIP3   OH246072   4.915   6.656  12.706
 8194TIP3    H146073   4.910   6.749  12.683
 8194TIP3    H246074   4.914   6.611  12.622
 8195TIP3   OH246075   5.913   4.264   1.022
 8195TIP3    H146076   5.833   4.285   1.070
 8195TIP3    H246077   5.943   4.348   0.987
 8196TIP3   OH246078   6.223   0.382   3.463
 8196TIP3    H146079   6.138   0.395   3.505
 8196TIP3    H246080   6.273   0.329   3.525
 8197TIP3   OH246081   3.215   2.280   6.520
 8197TIP3    H146082   3.275   2.354   6.528
 8197TIP3    H246083   3.144   2.312   6.465
 8198TIP3   OH246084   6.357   6.025   2.074
 8198TIP3    H146085   6.386   6.104   2.028
 8198TIP3    H246086   6.274   6.052   2.115
 8199TIP3   OH246087   3.006   2.769   6.380
 8199TIP3    H146088   2.923   2.764   6.332
 8199TIP3    H246089   2.989   2.727   6.464
 8200TIP3   OH246090   5.028   4.575   3.655
 8200TIP3    H146091   4.941   4.570   3.616
 8200TIP3    H246092   5.013   4.601   3.746
 8201TIP3   OH246093   4.505   0.824   4.969
 8201TIP3    H146094   4.480   0.902   4.918
 8201TIP3    H246095   4.580   0.852   5.020
 8202TIP3   OH246096   0.185   0.594   2.606
 8202TIP3    H146097   0.115   0.588   2.671
 8202TIP3    H246098   0.193   0.688   2.588
 8203TIP3   OH246099   1.990   5.553   4.026
 8203TIP3    H146100   1.911   5.538   4.078
 8203TIP3    H246101   1.974   5.636   3.981
 8204TIP3   OH246102   4.484   4.495   0.879
 8204TIP3    H146103   4.541   4.531   0.811
 8204TIP3    H246104   4.421   4.441   0.832
 8205TIP3   OH246105   0.635   1.669   3.239
 8205TIP3    H146106   0.544   1.649   3.220
 8205TIP3    H246107   0.685   1.601   3.195
 8206TIP3   OH246108   2.240   0.228   0.600
 8206TIP3    H146109   2.310   0.212   0.537
 8206TIP3    H246110   2.160   0.225   0.547
 8207TIP3   OH246111   1.642   6.635   1.351
 8207TIP3    H146112   1.622   6.719   1.391
 8207TIP3    H246113   1.569   6.618   1.292
 8208TIP3   OH246114   4.596   5.444   0.715
 8208TIP3    H146115   4.516   5.496   0.707
 8208TIP3    H246116   4.665   5.509   0.724
 8209TIP3   OH246117   2.359   2.749   0.941
 8209TIP3    H146118   2.268   2.778   0.937
 8209TIP3    H246119   2.352   2.654   0.955
 8210TIP3   OH246120   5.431   4.318   4.278
 8210TIP3    H146121   5.512   4.362   4.305
 8210TIP3    H246122   5.394   4.375   4.211
 8211TIP3   OH246123   2.570   1.122   0.968
 8211TIP3    H146124   2.598   1.157   1.053
 8211TIP3    H246125   2.528   1.196   0.924
 8212TIP3   OH246126   5.094   4.124   0.418
 8212TIP3    H146127   5.128   4.105   0.331
 8212TIP3    H246128   5.172   4.128   0.474
 8213TIP3   OH246129   6.018   5.024   4.172
 8213TIP3    H146130   6.027   4.932   4.148
 8213TIP3    H246131   6.064   5.032   4.256
 8214TIP3   OH246132   6.228   2.674  14.970
 8214TIP3    H146133   6.254   2.584  14.949
 8214TIP3    H246134   6.163   2.664  15.039
 8215TIP3   OH246135   4.821   2.452   1.544
 8215TIP3    H146136   4.905   2.483   1.579
 8215TIP3    H246137   4.763   2.527   1.551
 8216TIP3   OH246138   4.539   1.276   3.250
 8216TIP3    H146139   4.516   1.330   3.175
 8216TIP3    H246140   4.519   1.186   3.222
 8217TIP3   OH246141   5.113   0.097  13.700
 8217TIP3    H146142   5.192   0.136  13.662
 8217TIP3    H246143   5.052   0.170  13.711
 8218TIP3   OH246144   1.655   2.163  11.617
 8218TIP3    H146145   1.593   2.148  11.545
 8218TIP3    H246146   1.720   2.094  11.606
 8219TIP3   OH246147   0.463   3.888   4.817
 8219TIP3    H146148   0.552   3.921   4.830
 8219TIP3    H246149   0.407   3.956   4.854
 8220TIP3   OH246150   0.739   5.929  13.266
 8220TIP3    H146151   0.711   5.930  13.358
 8220TIP3    H246152   0.767   5.839  13.251
 8221TIP3   OH246153   5.533   3.162  13.867
 8221TIP3    H146154   5.532   3.129  13.957
 8221TIP3    H246155   5.531   3.257  13.876
 8222TIP3   OH246156   5.291   2.031  16.823
 8222TIP3    H146157   5.310   2.053  16.732
 8222TIP3    H246158   5.375   2.037  16.867
 8223TIP3   OH246159   2.525   1.757  15.678
 8223TIP3    H146160   2.597   1.819  15.687
 8223TIP3    H246161   2.495   1.768  15.588
 8224TIP3   OH246162   5.648   4.050   0.134
 8224TIP3    H146163   5.640   4.136   0.095
 8224TIP3    H246164   5.703   4.001   0.073
 8225TIP3   OH246165   3.801   2.401  17.016
 8225TIP3    H146166   3.738   2.469  16.994
 8225TIP3    H246167   3.754   2.319  17.001
 8226TIP3   OH246168   4.973   4.771  16.004
 8226TIP3    H146169   4.981   4.849  16.058
 8226TIP3    H246170   5.059   4.764  15.961
 8227TIP3   OH246171   4.840   1.583  11.343
 8227TIP3    H146172   4.889   1.575  11.261
 8227TIP3    H246173   4.803   1.496  11.357
 8228TIP3   OH246174   3.014   5.534  16.166
 8228TIP3    H146175   2.961   5.556  16.089
 8228TIP3    H246176   3.020   5.616  16.216
 8229TIP3   OH246177   0.388   3.559  14.101
 8229TIP3    H146178   0.381   3.572  14.006
 8229TIP3    H246179   0.433   3.474  14.110
 8230TIP3   OH246180   4.307   6.154   0.175
 8230TIP3    H146181   4.330   6.201   0.095
 8230TIP3    H246182   4.365   6.190   0.242
 8231TIP3   OH246183   4.216   4.981  12.215
 8231TIP3    H146184   4.175   4.954  12.133
 8231TIP3    H246185   4.292   4.925  12.224
 8232TIP3   OH246186   2.607   1.593  11.684
 8232TIP3    H146187   2.675   1.592  11.616
 8232TIP3    H246188   2.627   1.518  11.739
 8233TIP3   OH246189   4.897   0.701   1.688
 8233TIP3    H146190   4.830   0.633   1.699
 8233TIP3    H246191   4.975   0.653   1.661
 8234TIP3   OH246192   1.707   0.872  11.591
 8234TIP3    H146193   1.616   0.862  11.619
 8234TIP3    H246194   1.746   0.786  11.603
 8235TIP3   OH246195   3.073   2.610  12.920
 8235TIP3    H146196   3.005   2.677  12.927
 8235TIP3    H246197   3.094   2.588  13.011
 8236TIP3   OH246198   0.742   4.645   4.806
 8236TIP3    H146199   0.723   4.617   4.717
 8236TIP3    H246200   0.685   4.721   4.821
 8237TIP3   OH246201   1.498   5.138  13.845
 8237TIP3    H146202   1.546   5.164  13.766
 8237TIP3    H246203   1.444   5.064  13.817
 8238TIP3   OH246204   4.405   2.148   3.059
 8238TIP3    H146205   4.455   2.184   2.986
 8238TIP3    H246206   4.355   2.223   3.093
 8239TIP3   OH246207   0.800   4.049   3.444
 8239TIP3    H146208   0.776   3.995   3.369
 8239TIP3    H246209   0.851   4.121   3.407
 8240TIP3   OH246210   5.272   4.607  14.054
 8240TIP3    H146211   5.293   4.520  14.021
 8240TIP3    H246212   5.280   4.598  14.149
 8241TIP3   OH246213   6.493   2.225   1.210
 8241TIP3    H146214   6.401   2.230   1.186
 8241TIP3    H246215   6.502   2.141   1.254
 8242TIP3   OH246216   4.925   2.364   1.966
 8242TIP3    H146217   4.946   2.288   1.911
 8242TIP3    H246218   4.834   2.351   1.991
 8243TIP3   OH246219   3.027   4.579  12.386
 8243TIP3    H146220   2.947   4.606  12.429
 8243TIP3    H246221   3.071   4.521  12.449
 8244TIP3   OH246222   5.748   0.657  12.088
 8244TIP3    H146223   5.728   0.732  12.032
 8244TIP3    H246224   5.836   0.675  12.121
 8245TIP3   OH246225   0.528   1.756  13.157
 8245TIP3    H146226   0.602   1.717  13.110
 8245TIP3    H246227   0.555   1.755  13.249
 8246TIP3   OH246228   6.661   4.594  16.778
 8246TIP3    H146229   6.721   4.524  16.804
 8246TIP3    H246230   6.620   4.562  16.698
 8247TIP3   OH246231   1.546   3.925   0.894
 8247TIP3    H146232   1.478   3.920   0.827
 8247TIP3    H246233   1.499   3.911   0.976
 8248TIP3   OH246234   0.914   3.590  13.392
 8248TIP3    H146235   0.916   3.605  13.297
 8248TIP3    H246236   0.948   3.671  13.430
 8249TIP3   OH246237   2.185   5.082   3.738
 8249TIP3    H146238   2.163   5.032   3.817
 8249TIP3    H246239   2.271   5.120   3.758
 8250TIP3   OH246240   5.238   1.257  15.309
 8250TIP3    H146241   5.219   1.240  15.401
 8250TIP3    H246242   5.160   1.229  15.262
 8251TIP3   OH246243   5.212   2.408   5.461
 8251TIP3    H146244   5.263   2.416   5.381
 8251TIP3    H246245   5.269   2.444   5.529
 8252TIP3   OH246246   6.773   0.309  13.559
 8252TIP3    H146247   6.714   0.383  13.574
 8252TIP3    H246248   6.760   0.287  13.466
 8253TIP3   OH246249   4.154   3.151   4.261
 8253TIP3    H146250   4.145   3.217   4.192
 8253TIP3    H246251   4.206   3.081   4.222
 8254TIP3   OH246252   0.794   0.364  14.393
 8254TIP3    H146253   0.714   0.415  14.401
 8254TIP3    H246254   0.856   0.409  14.451
 8255TIP3   OH246255   4.182   3.546   2.894
 8255TIP3    H146256   4.262   3.544   2.947
 8255TIP3    H246257   4.209   3.589   2.812
 8256TIP3   OH246258   1.866   5.910  12.695
 8256TIP3    H146259   1.887   5.832  12.745
 8256TIP3    H246260   1.787   5.887  12.646
 8257TIP3   OH246261   2.572   6.758  14.060
 8257TIP3    H146262   2.606   6.721  13.979
 8257TIP3    H246263   2.633   6.730  14.128
 8258TIP3   OH246264   0.539   0.188   3.089
 8258TIP3    H146265   0.511   0.106   3.130
 8258TIP3    H246266   0.460   0.222   3.047
 8259TIP3   OH246267   1.566   1.391   0.892
 8259TIP3    H146268   1.581   1.416   0.800
 8259TIP3    H246269   1.646   1.417   0.937
 8260TIP3   OH246270   1.566   2.703  16.340
 8260TIP3    H146271   1.559   2.797  16.324
 8260TIP3    H246272   1.648   2.693  16.390
 8261TIP3   OH246273   1.347   3.346  12.526
 8261TIP3    H146274   1.387   3.390  12.601
 8261TIP3    H246275   1.261   3.386  12.518
 8262TIP3   OH246276   6.669   2.442   2.709
 8262TIP3    H146277   6.608   2.509   2.740
 8262TIP3    H246278   6.616   2.384   2.656
 8263TIP3   OH246279   1.184   3.206  13.408
 8263TIP3    H146280   1.191   3.111  13.412
 8263TIP3    H246281   1.140   3.230  13.490
 8264TIP3   OH246282   3.376   3.901   3.058
 8264TIP3    H146283   3.313   3.881   3.127
 8264TIP3    H246284   3.369   3.995   3.046
 8265TIP3   OH246285   3.715   6.254   2.404
 8265TIP3    H146286   3.722   6.216   2.491
 8265TIP3    H246287   3.727   6.348   2.417
 8266TIP3   OH246288   1.960   3.469   2.097
 8266TIP3    H146289   1.894   3.457   2.030
 8266TIP3    H246290   2.044   3.462   2.051
 8267TIP3   OH246291   2.728   4.925  15.523
 8267TIP3    H146292   2.758   4.835  15.514
 8267TIP3    H246293   2.727   4.959  15.434
 8268TIP3   OH246294   6.744   3.429  11.368
 8268TIP3    H146295   6.764   3.371  11.295
 8268TIP3    H246296   6.789   3.511  11.347
 8269TIP3   OH246297   5.261   2.382   2.861
 8269TIP3    H146298   5.247   2.287   2.857
 8269TIP3    H246299   5.288   2.399   2.951
 8270TIP3   OH246300   3.313   2.588  11.466
 8270TIP3    H146301   3.396   2.594  11.514
 8270TIP3    H246302   3.258   2.656  11.505
 8271TIP3   OH246303   5.832   2.695   3.433
 8271TIP3    H146304   5.864   2.607   3.454
 8271TIP3    H246305   5.857   2.748   3.509
 8272TIP3   OH246306   2.008   4.886  12.469
 8272TIP3    H146307   1.994   4.932  12.552
 8272TIP3    H246308   2.023   4.956  12.406
 8273TIP3   OH246309   5.894   3.388  16.753
 8273TIP3    H146310   5.915   3.371  16.845
 8273TIP3    H246311   5.930   3.313  16.706
 8274TIP3   OH246312   0.968   3.695   6.387
 8274TIP3    H146313   1.027   3.620   6.397
 8274TIP3    H246314   1.007   3.746   6.316
 8275TIP3   OH246315   4.526   5.472   4.453
 8275TIP3    H146316   4.501   5.468   4.361
 8275TIP3    H246317   4.606   5.419   4.458
 8276TIP3   OH246318   3.736   1.750  15.500
 8276TIP3    H146319   3.787   1.822  15.537
 8276TIP3    H246320   3.705   1.701  15.575
 8277TIP3   OH246321   1.997   2.493   1.603
 8277TIP3    H146322   2.076   2.443   1.624
 8277TIP3    H246323   1.927   2.428   1.601
 8278TIP3   OH246324   4.337   5.713   4.011
 8278TIP3    H146325   4.362   5.621   4.022
 8278TIP3    H246326   4.308   5.719   3.920
 8279TIP3   OH246327   5.788   4.896  15.518
 8279TIP3    H146328   5.761   4.977  15.562
 8279TIP3    H246329   5.732   4.892  15.440
 8280TIP3   OH246330   4.113   1.289   5.381
 8280TIP3    H146331   4.105   1.315   5.289
 8280TIP3    H246332   4.040   1.332   5.424
 8281TIP3   OH246333   6.703   6.056   3.635
 8281TIP3    H146334   6.741   6.128   3.686
 8281TIP3    H246335   6.673   6.098   3.554
 8282TIP3   OH246336   5.941   1.819  14.193
 8282TIP3    H146337   6.014   1.866  14.234
 8282TIP3    H246338   5.869   1.883  14.192
 8283TIP3   OH246339   1.912   6.656   6.804
 8283TIP3    H146340   1.905   6.705   6.886
 8283TIP3    H246341   1.949   6.719   6.742
 8284TIP3   OH246342   4.742   2.975  12.034
 8284TIP3    H146343   4.716   2.899  11.981
 8284TIP3    H246344   4.669   2.987  12.095
 8285TIP3   OH246345   3.150   1.447   1.638
 8285TIP3    H146346   3.199   1.398   1.703
 8285TIP3    H246347   3.136   1.533   1.678
 8286TIP3   OH246348   4.798   2.821   0.344
 8286TIP3    H146349   4.721   2.765   0.354
 8286TIP3    H246350   4.769   2.908   0.371
 8287TIP3   OH246351   1.906   5.798  12.051
 8287TIP3    H146352   1.892   5.722  12.107
 8287TIP3    H246353   1.970   5.852  12.099
 8288TIP3   OH246354   3.578   0.213  11.718
 8288TIP3    H146355   3.550   0.303  11.736
 8288TIP3    H246356   3.502   0.159  11.740
 8289TIP3   OH246357   6.341   4.840  15.605
 8289TIP3    H146358   6.369   4.794  15.685
 8289TIP3    H246359   6.320   4.770  15.543
 8290TIP3   OH246360   0.505   2.717   3.636
 8290TIP3    H146361   0.577   2.757   3.589
 8290TIP3    H246362   0.447   2.684   3.567
 8291TIP3   OH246363   6.150   0.083   4.969
 8291TIP3    H146364   6.095   0.023   4.919
 8291TIP3    H246365   6.147   0.049   5.059
 8292TIP3   OH246366   5.429   0.924   2.193
 8292TIP3    H146367   5.376   0.932   2.113
 8292TIP3    H246368   5.518   0.944   2.165
 8293TIP3   OH246369   0.187   5.686   6.203
 8293TIP3    H146370   0.193   5.729   6.118
 8293TIP3    H246371   0.178   5.593   6.182
 8294TIP3   OH246372   0.001   5.199   4.259
 8294TIP3    H146373   0.030   5.210   4.350
 8294TIP3    H246374  -0.076   5.142   4.265
 8295TIP3   OH246375   6.766   3.100   2.400
 8295TIP3    H146376   6.735   3.011   2.415
 8295TIP3    H246377   6.698   3.156   2.438
 8296TIP3   OH246378   4.313   0.520  12.984
 8296TIP3    H146379   4.401   0.506  13.019
 8296TIP3    H246380   4.325   0.587  12.917
 8297TIP3   OH246381   1.883   5.479   2.802
 8297TIP3    H146382   1.900   5.386   2.787
 8297TIP3    H246383   1.913   5.522   2.722
 8298TIP3   OH246384   4.324   2.145  11.686
 8298TIP3    H146385   4.299   2.235  11.665
 8298TIP3    H246386   4.246   2.108  11.728
 8299TIP3   OH246387   2.894   6.034   4.448
 8299TIP3    H146388   2.874   6.113   4.497
 8299TIP3    H246389   2.815   5.981   4.455
 8300TIP3   OH246390   5.166   6.820  16.948
 8300TIP3    H146391   5.120   6.856  17.024
 8300TIP3    H246392   5.186   6.730  16.973
 8301TIP3   OH246393   0.136   0.394   3.687
 8301TIP3    H146394   0.056   0.349   3.659
 8301TIP3    H246395   0.142   0.377   3.781
 8302TIP3   OH246396   3.487   3.861  13.694
 8302TIP3    H146397   3.434   3.907  13.628
 8302TIP3    H246398   3.453   3.772  13.694
 8303TIP3   OH246399   5.858   4.744   3.328
 8303TIP3    H146400   5.868   4.705   3.242
 8303TIP3    H246401   5.903   4.828   3.322
 8304TIP3   OH246402   6.666   5.789   3.556
 8304TIP3    H146403   6.638   5.795   3.465
 8304TIP3    H246404   6.683   5.880   3.582
 8305TIP3   OH246405   2.081   5.510  14.632
 8305TIP3    H146406   2.084   5.601  14.604
 8305TIP3    H246407   2.000   5.502  14.681
 8306TIP3   OH246408   6.791   5.973   5.274
 8306TIP3    H146409   6.726   6.027   5.318
 8306TIP3    H246410   6.742   5.899   5.239
 8307TIP3   OH246411   2.154   3.266  11.708
 8307TIP3    H146412   2.165   3.284  11.615
 8307TIP3    H246413   2.071   3.218  11.713
 8308TIP3   OH246414   5.986   4.470   5.538
 8308TIP3    H146415   6.014   4.558   5.514
 8308TIP3    H246416   5.981   4.422   5.455
 8309TIP3   OH246417   1.432   2.326   4.696
 8309TIP3    H146418   1.343   2.296   4.718
 8309TIP3    H246419   1.464   2.261   4.633
 8310TIP3   OH246420   6.241   0.453   5.086
 8310TIP3    H146421   6.174   0.398   5.046
 8310TIP3    H246422   6.214   0.542   5.066
 8311TIP3   OH246423   5.747   1.983   3.396
 8311TIP3    H146424   5.813   1.925   3.359
 8311TIP3    H246425   5.776   1.999   3.486
 8312TIP3   OH246426   0.243   6.110  13.692
 8312TIP3    H146427   0.320   6.058  13.671
 8312TIP3    H246428   0.193   6.114  13.611
 8313TIP3   OH246429   6.145   5.978   5.122
 8313TIP3    H146430   6.168   5.978   5.029
 8313TIP3    H246431   6.228   5.993   5.167
 8314TIP3   OH246432   4.343   0.365   2.345
 8314TIP3    H146433   4.326   0.281   2.301
 8314TIP3    H246434   4.359   0.342   2.436
 8315TIP3   OH246435   2.305   2.046   3.111
 8315TIP3    H146436   2.275   1.956   3.101
 8315TIP3    H246437   2.337   2.052   3.201
 8316TIP3   OH246438   5.339   3.525   6.823
 8316TIP3    H146439   5.257   3.574   6.820
 8316TIP3    H246440   5.407   3.593   6.824
 8317TIP3   OH246441   5.190   2.179  13.656
 8317TIP3    H146442   5.133   2.183  13.579
 8317TIP3    H246443   5.276   2.205  13.623
 8318TIP3   OH246444   5.043   3.708  10.683
 8318TIP3    H146445   5.083   3.737  10.601
 8318TIP3    H246446   5.113   3.661  10.729
 8319TIP3   OH246447   1.696   5.065   1.503
 8319TIP3    H146448   1.756   4.997   1.471
 8319TIP3    H246449   1.683   5.123   1.427
 8320TIP3   OH246450   3.374   1.677  12.010
 8320TIP3    H146451   3.319   1.718  11.943
 8320TIP3    H246452   3.403   1.595  11.969
 8321TIP3   OH246453   2.266   1.611  16.784
 8321TIP3    H146454   2.351   1.572  16.761
 8321TIP3    H246455   2.216   1.610  16.703
 8322TIP3   OH246456   2.380   5.415  12.273
 8322TIP3    H146457   2.445   5.364  12.320
 8322TIP3    H246458   2.416   5.426  12.185
 8323TIP3   OH246459   4.485   4.422   1.136
 8323TIP3    H146460   4.491   4.469   1.052
 8323TIP3    H246461   4.477   4.330   1.111
 8324TIP3   OH246462   3.267   3.596  12.215
 8324TIP3    H146463   3.192   3.607  12.157
 8324TIP3    H246464   3.342   3.584  12.156
 8325TIP3   OH246465   3.741   4.457  12.439
 8325TIP3    H146466   3.767   4.513  12.512
 8325TIP3    H246467   3.795   4.487  12.365
 8326TIP3   OH246468   3.271   0.599   2.878
 8326TIP3    H146469   3.211   0.528   2.854
 8326TIP3    H246470   3.339   0.596   2.810
 8327TIP3   OH246471   3.437   0.666   4.735
 8327TIP3    H146472   3.392   0.702   4.658
 8327TIP3    H246473   3.414   0.727   4.806
 8328TIP3   OH246474   6.501   5.098   1.672
 8328TIP3    H146475   6.560   5.048   1.616
 8328TIP3    H246476   6.558   5.139   1.737
 8329TIP3   OH246477   0.433   1.182  10.928
 8329TIP3    H146478   0.343   1.148  10.921
 8329TIP3    H246479   0.437   1.252  10.862
 8330TIP3   OH246480   5.506   2.933  14.253
 8330TIP3    H146481   5.505   2.839  14.232
 8330TIP3    H246482   5.471   2.975  14.175
 8331TIP3   OH246483   2.655   0.836   2.516
 8331TIP3    H146484   2.597   0.809   2.587
 8331TIP3    H246485   2.732   0.780   2.525
 8332TIP3   OH246486   1.020   0.964   5.186
 8332TIP3    H146487   0.944   0.920   5.224
 8332TIP3    H246488   1.094   0.930   5.235
 8333TIP3   OH246489   0.424   2.378   2.814
 8333TIP3    H146490   0.494   2.436   2.783
 8333TIP3    H246491   0.375   2.432   2.876
 8334TIP3   OH246492   2.825   2.554  13.807
 8334TIP3    H146493   2.777   2.483  13.764
 8334TIP3    H246494   2.766   2.584  13.876
 8335TIP3   OH246495   2.576   5.314   5.212
 8335TIP3    H146496   2.637   5.340   5.143
 8335TIP3    H246497   2.491   5.305   5.168
 8336TIP3   OH246498   4.505   2.337  13.344
 8336TIP3    H146499   4.414   2.333  13.374
 8336TIP3    H246500   4.557   2.340  13.424
 8337TIP3   OH246501   3.201   1.740   0.507
 8337TIP3    H146502   3.241   1.687   0.576
 8337TIP3    H246503   3.155   1.809   0.554
 8338TIP3   OH246504   6.433   6.555   0.396
 8338TIP3    H146505   6.388   6.471   0.403
 8338TIP3    H246506   6.366   6.617   0.368
 8339TIP3   OH246507   2.429   0.021  12.283
 8339TIP3    H146508   2.457  -0.014  12.199
 8339TIP3    H246509   2.334   0.023  12.278
 8340TIP3   OH246510   4.455   3.044  13.925
 8340TIP3    H146511   4.549   3.047  13.906
 8340TIP3    H246512   4.416   3.108  13.866
 8341TIP3   OH246513   0.812   3.144  14.441
 8341TIP3    H146514   0.868   3.215  14.409
 8341TIP3    H246515   0.817   3.151  14.537
 8342TIP3   OH246516   2.127   2.480   3.406
 8342TIP3    H146517   2.127   2.498   3.312
 8342TIP3    H246518   2.176   2.552   3.444
 8343TIP3   OH246519   5.866   5.336  13.546
 8343TIP3    H146520   5.930   5.288  13.493
 8343TIP3    H246521   5.861   5.422  13.505
 8344TIP3   OH246522   3.354   3.129  11.813
 8344TIP3    H146523   3.321   3.039  11.820
 8344TIP3    H246524   3.276   3.183  11.800
 8345TIP3   OH246525   5.252   0.133   3.789
 8345TIP3    H146526   5.314   0.155   3.719
 8345TIP3    H246527   5.167   0.132   3.746
 8346TIP3   OH246528   0.947   3.840   1.988
 8346TIP3    H146529   0.868   3.788   1.972
 8346TIP3    H246530   0.917   3.913   2.042
 8347TIP3   OH246531   0.783   0.816   5.403
 8347TIP3    H146532   0.860   0.763   5.378
 8347TIP3    H246533   0.804   0.849   5.490
 8348TIP3   OH246534   0.500   3.264  13.229
 8348TIP3    H146535   0.468   3.354  13.222
 8348TIP3    H246536   0.573   3.269  13.291
 8349TIP3   OH246537   6.260   3.421   4.218
 8349TIP3    H146538   6.178   3.379   4.191
 8349TIP3    H246539   6.300   3.449   4.135
 8350TIP3   OH246540   5.394   2.481  16.477
 8350TIP3    H146541   5.362   2.391  16.487
 8350TIP3    H246542   5.452   2.478  16.402
 8351TIP3   OH246543   5.099   5.963  14.078
 8351TIP3    H146544   5.094   5.869  14.099
 8351TIP3    H246545   5.181   5.973  14.031
 8352TIP3   OH246546   5.339   0.162  13.568
 8352TIP3    H146547   5.416   0.113  13.599
 8352TIP3    H246548   5.375   0.244  13.536
 8353TIP3   OH246549   1.249   4.661   5.748
 8353TIP3    H146550   1.232   4.568   5.763
 8353TIP3    H246551   1.342   4.672   5.767
 8354TIP3   OH246552   5.287   5.402   3.503
 8354TIP3    H146553   5.319   5.488   3.477
 8354TIP3    H246554   5.361   5.343   3.485
 8355TIP3   OH246555   3.457   1.351  15.740
 8355TIP3    H146556   3.383   1.290  15.738
 8355TIP3    H246557   3.447   1.405  15.662
 8356TIP3   OH246558   3.918   4.716  16.244
 8356TIP3    H146559   3.930   4.698  16.338
 8356TIP3    H246560   3.998   4.681  16.204
 8357TIP3   OH246561   2.073   1.539  14.536
 8357TIP3    H146562   2.068   1.514  14.628
 8357TIP3    H246563   2.072   1.635  14.537
 8358TIP3   OH246564   4.179   3.309   0.002
 8358TIP3    H146565   4.117   3.348  -0.058
 8358TIP3    H246566   4.132   3.303   0.085
 8359TIP3   OH246567   5.420   3.604   0.192
 8359TIP3    H146568   5.495   3.583   0.136
 8359TIP3    H246569   5.399   3.695   0.170
 8360TIP3   OH246570   0.235   6.526  14.270
 8360TIP3    H146571   0.162   6.465  14.278
 8360TIP3    H246572   0.193   6.612  14.265
 8361TIP3   OH246573   2.204   3.966  11.701
 8361TIP3    H146574   2.271   3.954  11.768
 8361TIP3    H246575   2.187   3.877  11.668
 8362TIP3   OH246576   5.290   1.627   2.667
 8362TIP3    H146577   5.348   1.671   2.604
 8362TIP3    H246578   5.326   1.648   2.752
 8363TIP3   OH246579   6.599   3.210  13.915
 8363TIP3    H146580   6.536   3.274  13.949
 8363TIP3    H246581   6.665   3.202  13.983
 8364TIP3   OH246582   2.148   5.893  11.311
 8364TIP3    H146583   2.207   5.884  11.386
 8364TIP3    H246584   2.205   5.885  11.235
 8365TIP3   OH246585   4.586   0.453  11.385
 8365TIP3    H146586   4.524   0.462  11.312
 8365TIP3    H246587   4.531   0.452  11.463
 8366TIP3   OH246588   3.429   2.723  17.069
 8366TIP3    H146589   3.392   2.649  17.116
 8366TIP3    H246590   3.406   2.708  16.978
 8367TIP3   OH246591   2.969   0.964  13.266
 8367TIP3    H146592   2.966   0.917  13.183
 8367TIP3    H246593   2.923   0.907  13.328
 8368TIP3   OH246594   2.086   5.911  10.757
 8368TIP3    H146595   2.094   5.937  10.848
 8368TIP3    H246596   2.068   5.993  10.710
 8369TIP3   OH246597   2.588   5.282  14.504
 8369TIP3    H146598   2.621   5.253  14.419
 8369TIP3    H246599   2.632   5.366  14.520
 8370TIP3   OH246600   3.550   6.651  14.616
 8370TIP3    H146601   3.523   6.687  14.701
 8370TIP3    H246602   3.641   6.623  14.629
 8371TIP3   OH246603   4.655   3.500   6.176
 8371TIP3    H146604   4.749   3.508   6.157
 8371TIP3    H246605   4.626   3.589   6.196
 8372TIP3   OH246606   4.677   4.518   1.622
 8372TIP3    H146607   4.686   4.596   1.676
 8372TIP3    H246608   4.627   4.457   1.676
 8373TIP3   OH246609   2.266   3.529   1.526
 8373TIP3    H146610   2.344   3.514   1.578
 8373TIP3    H246611   2.198   3.477   1.568
 8374TIP3   OH246612   2.854   3.175  12.886
 8374TIP3    H146613   2.932   3.203  12.837
 8374TIP3    H246614   2.841   3.243  12.952
 8375TIP3   OH246615   2.086   3.883   0.477
 8375TIP3    H146616   2.137   3.822   0.530
 8375TIP3    H246617   2.140   3.962   0.472
 8376TIP3   OH246618   2.820   3.784   3.019
 8376TIP3    H146619   2.785   3.832   2.944
 8376TIP3    H246620   2.856   3.851   3.076
 8377TIP3   OH246621   1.711   3.752   5.469
 8377TIP3    H146622   1.806   3.751   5.458
 8377TIP3    H246623   1.698   3.745   5.563
 8378TIP3   OH246624   1.163   2.019  12.599
 8378TIP3    H146625   1.178   2.044  12.691
 8378TIP3    H246626   1.248   2.031  12.557
 8379TIP3   OH246627   4.008   1.879  15.115
 8379TIP3    H146628   3.995   1.814  15.184
 8379TIP3    H246629   3.949   1.852  15.045
 8380TIP3   OH246630   5.709   2.194   0.509
 8380TIP3    H146631   5.649   2.267   0.494
 8380TIP3    H246632   5.792   2.236   0.533
 8381TIP3   OH246633   5.437   6.634   4.845
 8381TIP3    H146634   5.476   6.625   4.932
 8381TIP3    H246635   5.343   6.627   4.860
 8382TIP3   OH246636   0.658   5.185   4.144
 8382TIP3    H146637   0.700   5.270   4.129
 8382TIP3    H246638   0.684   5.132   4.068
 8383TIP3   OH246639   6.797   5.746   2.032
 8383TIP3    H146640   6.865   5.697   1.986
 8383TIP3    H246641   6.748   5.790   1.962
 8384TIP3   OH246642   3.038   5.620  14.033
 8384TIP3    H146643   2.975   5.683  14.000
 8384TIP3    H246644   3.122   5.648  13.998
 8385TIP3   OH246645   2.286   3.501   6.462
 8385TIP3    H146646   2.340   3.468   6.390
 8385TIP3    H246647   2.319   3.589   6.478
 8386TIP3   OH246648   1.836   5.636  15.221
 8386TIP3    H146649   1.784   5.633  15.141
 8386TIP3    H246650   1.835   5.546  15.254
 8387TIP3   OH246651   1.182   2.740   5.167
 8387TIP3    H146652   1.133   2.699   5.239
 8387TIP3    H246653   1.213   2.823   5.204
 8388TIP3   OH246654   1.360   5.930  17.215
 8388TIP3    H146655   1.365   6.007  17.159
 8388TIP3    H246656   1.285   5.880  17.181
 8389TIP3   OH246657   6.103   5.776  14.819
 8389TIP3    H146658   6.061   5.731  14.745
 8389TIP3    H246659   6.123   5.863  14.785
 8390TIP3   OH246660   4.269   2.513  16.840
 8390TIP3    H146661   4.193   2.481  16.888
 8390TIP3    H246662   4.291   2.596  16.881
 8391TIP3   OH246663   5.786   6.034   0.343
 8391TIP3    H146664   5.779   5.963   0.406
 8391TIP3    H246665   5.758   5.996   0.260
 8392TIP3   OH246666   6.376   4.251  11.689
 8392TIP3    H146667   6.394   4.325  11.631
 8392TIP3    H246668   6.407   4.174  11.642
 8393TIP3   OH246669   2.628   5.372   4.745
 8393TIP3    H146670   2.586   5.286   4.756
 8393TIP3    H246671   2.682   5.362   4.666
 8394TIP3   OH246672   0.136   1.497  14.779
 8394TIP3    H146673   0.231   1.491  14.788
 8394TIP3    H246674   0.119   1.590  14.764
 8395TIP3   OH246675   4.389   4.137  16.558
 8395TIP3    H146676   4.480   4.118  16.535
 8395TIP3    H246677   4.389   4.144  16.653
 8396TIP3   OH246678   3.607   1.937  14.496
 8396TIP3    H146679   3.578   2.028  14.498
 8396TIP3    H246680   3.599   1.912  14.404
 8397TIP3   OH246681   5.104   5.616   0.256
 8397TIP3    H146682   5.009   5.619   0.241
 8397TIP3    H246683   5.131   5.708   0.254
 8398TIP3   OH246684   6.124   3.446   3.943
 8398TIP3    H146685   6.197   3.388   3.923
 8398TIP3    H246686   6.146   3.528   3.897
 8399TIP3   OH246687   2.013   2.801  12.547
 8399TIP3    H146688   2.048   2.839  12.466
 8399TIP3    H246689   1.952   2.734  12.517
 8400TIP3   OH246690   2.663   3.632  12.530
 8400TIP3    H146691   2.717   3.696  12.576
 8400TIP3    H246692   2.584   3.624  12.583
 8401TIP3   OH246693   4.975   1.710  12.062
 8401TIP3    H146694   5.001   1.792  12.103
 8401TIP3    H246695   4.904   1.735  12.002
 8402TIP3   OH246696   1.679   6.691  12.260
 8402TIP3    H146697   1.734   6.636  12.203
 8402TIP3    H246698   1.596   6.697  12.214
 8403TIP3   OH246699   1.698   0.623  14.507
 8403TIP3    H146700   1.679   0.531  14.491
 8403TIP3    H246701   1.721   0.659  14.421
 8404TIP3   OH246702   6.137   6.430   0.825
 8404TIP3    H146703   6.194   6.485   0.878
 8404TIP3    H246704   6.196   6.379   0.769
 8405TIP3   OH246705   2.663   4.330  13.981
 8405TIP3    H146706   2.635   4.320  13.890
 8405TIP3    H246707   2.652   4.243  14.020
 8406TIP3   OH246708   4.050   3.753   3.400
 8406TIP3    H146709   3.971   3.739   3.453
 8406TIP3    H246710   4.022   3.735   3.310
 8407TIP3   OH246711   4.167   2.375   2.883
 8407TIP3    H146712   4.145   2.397   2.973
 8407TIP3    H246713   4.246   2.427   2.864
 8408TIP3   OH246714   3.612   2.104  14.889
 8408TIP3    H146715   3.617   2.058  14.973
 8408TIP3    H246716   3.659   2.047  14.828
 8409TIP3   OH246717   2.566   1.220  17.217
 8409TIP3    H146718   2.659   1.221  17.193
 8409TIP3    H246719   2.562   1.167  17.296
 8410TIP3   OH246720   3.001   0.337   4.762
 8410TIP3    H146721   3.075   0.286   4.794
 8410TIP3    H246722   3.021   0.354   4.670
 8411TIP3   OH246723   2.718   4.480   2.805
 8411TIP3    H146724   2.677   4.415   2.863
 8411TIP3    H246725   2.699   4.564   2.847
 8412TIP3   OH246726   3.992   3.169  15.675
 8412TIP3    H146727   3.958   3.250  15.713
 8412TIP3    H246728   4.029   3.121  15.749
 8413TIP3   OH246729   4.355   3.536  14.091
 8413TIP3    H146730   4.376   3.629  14.089
 8413TIP3    H246731   4.422   3.497  14.147
 8414TIP3   OH246732   0.761   0.691  13.478
 8414TIP3    H146733   0.679   0.705  13.431
 8414TIP3    H246734   0.829   0.713  13.414
 8415TIP3   OH246735   3.484   1.836   3.823
 8415TIP3    H146736   3.441   1.787   3.754
 8415TIP3    H246737   3.537   1.901   3.777
 8416TIP3   OH246738   4.985   2.450  12.729
 8416TIP3    H146739   4.937   2.407  12.799
 8416TIP3    H246740   4.918   2.497  12.679
 8417TIP3   OH246741   1.839   2.793   4.040
 8417TIP3    H146742   1.759   2.799   3.987
 8417TIP3    H246743   1.910   2.789   3.976
 8418TIP3   OH246744   5.222   1.483  14.565
 8418TIP3    H146745   5.286   1.553  14.580
 8418TIP3    H246746   5.204   1.487  14.471
 8419TIP3   OH246747   3.744   0.912  14.093
 8419TIP3    H146748   3.728   1.000  14.125
 8419TIP3    H246749   3.824   0.919  14.040
 8420TIP3   OH246750   0.216   5.356  15.552
 8420TIP3    H146751   0.155   5.405  15.498
 8420TIP3    H246752   0.256   5.293  15.492
 8421TIP3   OH246753   3.699   4.683  11.244
 8421TIP3    H146754   3.688   4.607  11.185
 8421TIP3    H246755   3.732   4.752  11.187
 8422TIP3   OH246756   0.328   6.165   3.957
 8422TIP3    H146757   0.311   6.193   4.047
 8422TIP3    H246758   0.421   6.182   3.943
 8423TIP3   OH246759   3.884   5.986  15.522
 8423TIP3    H146760   3.860   5.913  15.465
 8423TIP3    H246761   3.886   6.062  15.465
 8424TIP3   OH246762   2.744   6.215  15.161
 8424TIP3    H146763   2.760   6.243  15.071
 8424TIP3    H246764   2.735   6.120  15.156
 8425TIP3   OH246765   3.668   6.187   5.857
 8425TIP3    H146766   3.642   6.114   5.801
 8425TIP3    H246767   3.762   6.199   5.839
 8426TIP3   OH246768   4.734   1.661  16.722
 8426TIP3    H146769   4.793   1.586  16.722
 8426TIP3    H246770   4.770   1.720  16.656
 8427TIP3   OH246771   6.375   6.676  14.364
 8427TIP3    H146772   6.460   6.714  14.344
 8427TIP3    H246773   6.385   6.582  14.346
 8428TIP3   OH246774   3.756   4.131  13.481
 8428TIP3    H146775   3.788   4.048  13.444
 8428TIP3    H246776   3.670   4.110  13.516
 8429TIP3   OH246777   1.721   2.061   3.301
 8429TIP3    H146778   1.814   2.039   3.301
 8429TIP3    H246779   1.704   2.096   3.213
 8430TIP3   OH246780   5.477   2.058  14.515
 8430TIP3    H146781   5.452   1.978  14.469
 8430TIP3    H246782   5.432   2.053  14.599
 8431TIP3   OH246783   0.740   2.284  11.530
 8431TIP3    H146784   0.684   2.337  11.473
 8431TIP3    H246785   0.796   2.349  11.575
 8432TIP3   OH246786   1.973   1.243  12.180
 8432TIP3    H146787   2.011   1.308  12.239
 8432TIP3    H246788   2.042   1.226  12.116
 8433TIP3   OH246789   6.754   5.459   4.758
 8433TIP3    H146790   6.677   5.515   4.752
 8433TIP3    H246791   6.728   5.387   4.815
 8434TIP3   OH246792   1.588   5.167  13.593
 8434TIP3    H146793   1.668   5.202  13.553
 8434TIP3    H246794   1.521   5.182  13.527
 8435TIP3   OH246795   2.365   3.608   1.231
 8435TIP3    H146796   2.282   3.653   1.217
 8435TIP3    H246797   2.365   3.585   1.324
 8436TIP3   OH246798   4.763   1.194  11.545
 8436TIP3    H146799   4.676   1.165  11.516
 8436TIP3    H246800   4.764   1.176  11.638
 8437TIP3   OH246801   6.450   3.621  16.852
 8437TIP3    H146802   6.407   3.683  16.793
 8437TIP3    H246803   6.401   3.539  16.841
 8438TIP3   OH246804   6.678   2.723   3.968
 8438TIP3    H146805   6.630   2.800   3.998
 8438TIP3    H246806   6.701   2.676   4.048
 8439TIP3   OH246807   3.209   4.977  13.085
 8439TIP3    H146808   3.120   5.002  13.063
 8439TIP3    H246809   3.210   4.882  13.081
 8440TIP3   OH246810   6.680   5.950  13.713
 8440TIP3    H146811   6.608   5.956  13.776
 8440TIP3    H246812   6.688   5.857  13.693
 8441TIP3   OH246813   5.475   4.671   5.403
 8441TIP3    H146814   5.570   4.663   5.395
 8441TIP3    H246815   5.456   4.761   5.376
 8442TIP3   OH246816   4.043   3.131   5.559
 8442TIP3    H146817   4.033   3.036   5.566
 8442TIP3    H246818   3.987   3.166   5.629
 8443TIP3   OH246819   0.233   1.652   3.240
 8443TIP3    H146820   0.260   1.565   3.209
 8443TIP3    H246821   0.310   1.685   3.286
 8444TIP3   OH246822   3.191   3.397   5.632
 8444TIP3    H146823   3.275   3.431   5.662
 8444TIP3    H246824   3.137   3.476   5.620
 8445TIP3   OH246825   3.390   4.374   1.763
 8445TIP3    H146826   3.323   4.361   1.695
 8445TIP3    H246827   3.456   4.428   1.719
 8446TIP3   OH246828   2.447   4.039   3.284
 8446TIP3    H146829   2.476   3.977   3.351
 8446TIP3    H246830   2.519   4.042   3.220
 8447TIP3   OH246831   4.112   1.574  14.690
 8447TIP3    H146832   4.019   1.551  14.683
 8447TIP3    H246833   4.153   1.496  14.727
 8448TIP3   OH246834   3.553   5.860  13.031
 8448TIP3    H146835   3.502   5.814  12.964
 8448TIP3    H246836   3.636   5.813  13.034
 8449TIP3   OH246837   1.004   3.259   3.955
 8449TIP3    H146838   1.085   3.252   4.004
 8449TIP3    H246839   0.953   3.181   3.980
 8450TIP3   OH246840   2.217   5.071  15.154
 8450TIP3    H146841   2.207   5.138  15.221
 8450TIP3    H246842   2.147   5.009  15.172
 8451TIP3   OH246843   5.984   4.019  11.222
 8451TIP3    H146844   5.894   3.989  11.214
 8451TIP3    H246845   6.014   3.984  11.306
 8452TIP3   OH246846   2.053   5.470  11.817
 8452TIP3    H146847   2.148   5.474  11.833
 8452TIP3    H246848   2.030   5.379  11.837
 8453TIP3   OH246849   0.082   5.240  13.877
 8453TIP3    H146850  -0.012   5.234  13.898
 8453TIP3    H246851   0.107   5.150  13.855
 8454TIP3   OH246852   2.113   2.592   3.167
 8454TIP3    H146853   2.138   2.654   3.099
 8454TIP3    H246854   2.020   2.574   3.150
 8455TIP3   OH246855   0.681   4.373  16.152
 8455TIP3    H146856   0.726   4.446  16.110
 8455TIP3    H246857   0.735   4.353  16.229
 8456TIP3   OH246858   0.899   2.671  13.608
 8456TIP3    H146859   0.921   2.683  13.700
 8456TIP3    H246860   0.974   2.708  13.561
 8457TIP3   OH246861   5.348   0.812  12.705
 8457TIP3    H146862   5.276   0.812  12.642
 8457TIP3    H246863   5.375   0.903  12.710
 8458TIP3   OH246864   2.995   6.508  16.087
 8458TIP3    H146865   2.915   6.482  16.042
 8458TIP3    H246866   3.033   6.576  16.031
 8459TIP3   OH246867   1.363   5.280   1.160
 8459TIP3    H146868   1.319   5.224   1.097
 8459TIP3    H246869   1.293   5.309   1.219
 8460TIP3   OH246870   4.478   1.581  14.141
 8460TIP3    H146871   4.391   1.558  14.110
 8460TIP3    H246872   4.495   1.520  14.214
 8461TIP3   OH246873   5.623   4.944  15.305
 8461TIP3    H146874   5.630   5.040  15.307
 8461TIP3    H246875   5.655   4.920  15.218
 8462TIP3   OH246876   1.384   5.435   3.664
 8462TIP3    H146877   1.355   5.526   3.669
 8462TIP3    H246878   1.417   5.415   3.751
 8463TIP3   OH246879   5.698   4.136  12.094
 8463TIP3    H146880   5.631   4.078  12.057
 8463TIP3    H246881   5.763   4.145  12.024
 8464TIP3   OH246882   0.788   6.354  14.264
 8464TIP3    H146883   0.732   6.377  14.190
 8464TIP3    H246884   0.765   6.417  14.332
 8465TIP3   OH246885   5.275   1.090  12.175
 8465TIP3    H146886   5.198   1.045  12.209
 8465TIP3    H246887   5.242   1.171  12.137
 8466TIP3   OH246888   4.532   5.129   1.202
 8466TIP3    H146889   4.554   5.149   1.293
 8466TIP3    H246890   4.615   5.104   1.162
 8467TIP3   OH246891   4.328   3.282   5.217
 8467TIP3    H146892   4.337   3.304   5.310
 8467TIP3    H246893   4.258   3.217   5.214
 8468TIP3   OH246894   4.741   4.120   5.919
 8468TIP3    H146895   4.654   4.131   5.880
 8468TIP3    H246896   4.724   4.117   6.013
 8469TIP3   OH246897   1.449   4.636   4.211
 8469TIP3    H146898   1.475   4.617   4.120
 8469TIP3    H246899   1.531   4.630   4.261
 8470TIP3   OH246900   4.880   0.718  11.769
 8470TIP3    H146901   4.857   0.651  11.834
 8470TIP3    H246902   4.821   0.703  11.696
 8471TIP3   OH246903   6.068   1.977  13.722
 8471TIP3    H146904   6.014   1.917  13.670
 8471TIP3    H246905   6.100   1.923  13.795
 8472TIP3   OH246906   0.680   4.566   3.215
 8472TIP3    H146907   0.656   4.517   3.293
 8472TIP3    H246908   0.770   4.595   3.231
 8473TIP3   OH246909   2.133   0.538  16.092
 8473TIP3    H146910   2.046   0.560  16.059
 8473TIP3    H246911   2.130   0.444  16.106
 8474TIP3   OH246912   3.849   6.448  12.945
 8474TIP3    H146913   3.862   6.439  12.851
 8474TIP3    H246914   3.760   6.418  12.960
 8475TIP3   OH246915   3.389   5.280  12.785
 8475TIP3    H146916   3.303   5.254  12.753
 8475TIP3    H246917   3.450   5.221  12.741
 8476TIP3   OH246918   5.730   2.615   4.963
 8476TIP3    H146919   5.805   2.621   4.905
 8476TIP3    H246920   5.695   2.527   4.949
 8477TIP3   OH246921   5.299   1.432   5.755
 8477TIP3    H146922   5.291   1.342   5.787
 8477TIP3    H246923   5.294   1.486   5.834
 8478TIP3   OH246924   3.060   6.367   4.635
 8478TIP3    H146925   3.055   6.423   4.557
 8478TIP3    H246926   3.096   6.424   4.703
 8479TIP3   OH246927   4.794   5.810   5.292
 8479TIP3    H146928   4.855   5.765   5.351
 8479TIP3    H246929   4.800   5.761   5.210
 8480TIP3   OH246930   5.285   4.827   1.950
 8480TIP3    H146931   5.356   4.811   1.888
 8480TIP3    H246932   5.274   4.922   1.952
 8481TIP3   OH246933   0.313   0.679   4.035
 8481TIP3    H146934   0.355   0.710   4.116
 8481TIP3    H246935   0.377   0.619   3.996
 8482TIP3   OH246936   0.125   6.501   6.170
 8482TIP3    H146937   0.121   6.429   6.233
 8482TIP3    H246938   0.093   6.577   6.217
 8483TIP3   OH246939   4.193   2.116   4.870
 8483TIP3    H146940   4.188   2.208   4.842
 8483TIP3    H246941   4.143   2.069   4.803
 8484TIP3   OH246942   2.293   4.079   0.032
 8484TIP3    H146943   2.213   4.027   0.036
 8484TIP3    H246944   2.291   4.119  -0.055
 8485TIP3   OH246945   0.767   3.230  12.014
 8485TIP3    H146946   0.718   3.233  11.931
 8485TIP3    H246947   0.744   3.311  12.059
 8486TIP3   OH246948   1.723   0.484   4.268
 8486TIP3    H146949   1.637   0.489   4.226
 8486TIP3    H246950   1.716   0.407   4.326
 8487TIP3   OH246951   3.433   2.892   3.689
 8487TIP3    H146952   3.393   2.815   3.649
 8487TIP3    H246953   3.400   2.966   3.638
 8488TIP3   OH246954   5.729   0.380   4.360
 8488TIP3    H146955   5.707   0.470   4.335
 8488TIP3    H246956   5.715   0.329   4.281
 8489TIP3   OH246957   3.015   3.133   0.632
 8489TIP3    H146958   2.954   3.180   0.690
 8489TIP3    H246959   3.099   3.138   0.678
 8490TIP3   OH246960   4.760   0.966   3.794
 8490TIP3    H146961   4.706   0.912   3.851
 8490TIP3    H246962   4.838   0.986   3.846
 8491TIP3   OH246963   3.229   5.965  12.384
 8491TIP3    H146964   3.206   5.963  12.291
 8491TIP3    H246965   3.165   6.025  12.423
 8492TIP3   OH246966   5.438   5.771   1.161
 8492TIP3    H146967   5.527   5.736   1.161
 8492TIP3    H246968   5.401   5.742   1.244
 8493TIP3   OH246969   3.816   0.762   5.586
 8493TIP3    H146970   3.728   0.793   5.567
 8493TIP3    H246971   3.850   0.733   5.502
 8494TIP3   OH246972   4.106   3.532  15.488
 8494TIP3    H146973   4.107   3.623  15.517
 8494TIP3    H246974   4.033   3.493  15.536
 8495TIP3   OH246975   2.151   5.222   5.890
 8495TIP3    H146976   2.079   5.233   5.952
 8495TIP3    H246977   2.169   5.128   5.892
 8496TIP3   OH246978   5.100   5.753   2.055
 8496TIP3    H146979   5.168   5.786   2.113
 8496TIP3    H246980   5.137   5.674   2.017
 8497TIP3   OH246981   5.731   3.455   4.237
 8497TIP3    H146982   5.773   3.484   4.318
 8497TIP3    H246983   5.641   3.486   4.244
 8498TIP3   OH246984   6.140   1.782  13.906
 8498TIP3    H146985   6.202   1.848  13.939
 8498TIP3    H246986   6.068   1.783  13.968
 8499TIP3   OH246987   5.009   3.319   2.239
 8499TIP3    H146988   5.032   3.264   2.164
 8499TIP3    H246989   5.088   3.318   2.294
 8500TIP3   OH246990   3.780   3.074   1.560
 8500TIP3    H146991   3.708   3.113   1.511
 8500TIP3    H246992   3.809   3.143   1.619
 8501TIP3   OH246993   0.254   5.044  13.768
 8501TIP3    H146994   0.350   5.043  13.767
 8501TIP3    H246995   0.228   5.027  13.677
 8502TIP3   OH246996   2.267   0.521   3.449
 8502TIP3    H146997   2.321   0.456   3.494
 8502TIP3    H246998   2.215   0.470   3.387
 8503TIP3   OH246999   0.302   4.037  13.859
 8503TIP3    H147000   0.279   4.031  13.951
 8503TIP3    H247001   0.300   4.131  13.839
 8504TIP3   OH247002   1.981   1.207  13.535
 8504TIP3    H147003   1.897   1.185  13.495
 8504TIP3    H247004   2.030   1.248  13.464
 8505TIP3   OH247005   5.426   5.667   4.940
 8505TIP3    H147006   5.485   5.604   4.899
 8505TIP3    H247007   5.442   5.657   5.034
 8506TIP3   OH247008   6.574   2.032  14.666
 8506TIP3    H147009   6.600   1.944  14.692
 8506TIP3    H247010   6.574   2.030  14.570
 8507TIP3   OH247011   5.063   1.850  11.743
 8507TIP3    H147012   5.135   1.862  11.681
 8507TIP3    H247013   5.066   1.929  11.797
 8508TIP3   OH247014   1.673   6.057   2.612
 8508TIP3    H147015   1.657   6.064   2.706
 8508TIP3    H247016   1.725   6.134   2.590
 8509TIP3   OH247017   1.549   5.596   2.109
 8509TIP3    H147018   1.551   5.652   2.031
 8509TIP3    H247019   1.595   5.517   2.083
 8510TIP3   OH247020   2.696   2.407  12.058
 8510TIP3    H147021   2.613   2.360  12.071
 8510TIP3    H247022   2.763   2.344  12.085
 8511TIP3   OH247023   6.703   4.941  13.974
 8511TIP3    H147024   6.646   4.935  14.050
 8511TIP3    H247025   6.788   4.912  14.005
 8512TIP3   OH247026   2.559   4.618   2.557
 8512TIP3    H147027   2.520   4.681   2.616
 8512TIP3    H247028   2.610   4.671   2.495
 8513TIP3   OH247029   1.344   1.330  10.854
 8513TIP3    H147030   1.422   1.385  10.848
 8513TIP3    H247031   1.279   1.375  10.800
 8514TIP3   OH247032   1.530   0.935   4.988
 8514TIP3    H147033   1.590   0.914   5.059
 8514TIP3    H247034   1.459   0.984   5.029
 8515TIP3   OH247035   6.010   4.648  14.469
 8515TIP3    H147036   5.930   4.662  14.521
 8515TIP3    H247037   6.081   4.655  14.532
 8516TIP3   OH247038   4.406   0.029  16.677
 8516TIP3    H147039   4.472   0.079  16.724
 8516TIP3    H247040   4.433   0.033  16.586
 8517TIP3   OH247041   3.957   1.619   0.913
 8517TIP3    H147042   4.043   1.652   0.941
 8517TIP3    H247043   3.931   1.678   0.842
 8518TIP3   OH247044   5.495   0.238  13.319
 8518TIP3    H147045   5.429   0.169  13.315
 8518TIP3    H247046   5.578   0.193  13.306
 8519TIP3   OH247047   2.882   2.407   2.752
 8519TIP3    H147048   2.941   2.455   2.695
 8519TIP3    H247049   2.802   2.397   2.700
 8520TIP3   OH247050   5.497   0.150   0.402
 8520TIP3    H147051   5.525   0.198   0.480
 8520TIP3    H247052   5.419   0.103   0.430
 8521TIP3   OH247053   6.765   2.507  11.969
 8521TIP3    H147054   6.815   2.439  11.923
 8521TIP3    H247055   6.828   2.577  11.983
 8522TIP3   OH247056   2.035   0.069  15.474
 8522TIP3    H147057   2.000   0.142  15.525
 8522TIP3    H247058   2.066   0.110  15.393
 8523TIP3   OH247059   1.224   0.612   6.860
 8523TIP3    H147060   1.281   0.546   6.822
 8523TIP3    H247061   1.198   0.667   6.786
 8524TIP3   OH247062   2.226   2.963   6.335
 8524TIP3    H147063   2.150   2.961   6.393
 8524TIP3    H247064   2.300   2.944   6.392
 8525TIP3   OH247065   2.854   5.608   4.259
 8525TIP3    H147066   2.811   5.677   4.208
 8525TIP3    H247067   2.948   5.620   4.241
 8526TIP3   OH247068   4.101   1.173   0.908
 8526TIP3    H147069   4.080   1.080   0.909
 8526TIP3    H247070   4.021   1.215   0.941
 8527TIP3   OH247071   1.180   2.286  11.255
 8527TIP3    H147072   1.194   2.192  11.264
 8527TIP3    H247073   1.098   2.303  11.301
 8528TIP3   OH247074   3.043   1.823   2.396
 8528TIP3    H147075   3.089   1.904   2.375
 8528TIP3    H247076   3.080   1.758   2.336
 8529TIP3   OH247077   1.717   0.392  10.866
 8529TIP3    H147078   1.626   0.395  10.837
 8529TIP3    H247079   1.724   0.463  10.929
 8530TIP3   OH247080   4.518   3.948  14.712
 8530TIP3    H147081   4.491   3.906  14.630
 8530TIP3    H247082   4.493   4.040  14.701
 8531TIP3   OH247083   6.034   2.555   3.042
 8531TIP3    H147084   5.950   2.510   3.045
 8531TIP3    H247085   6.018   2.639   3.084
 8532TIP3   OH247086   0.937   1.373   4.559
 8532TIP3    H147087   0.948   1.359   4.653
 8532TIP3    H247088   0.897   1.292   4.527
 8533TIP3   OH247089   1.417   1.610  16.488
 8533TIP3    H147090   1.426   1.665  16.410
 8533TIP3    H247091   1.454   1.662  16.559
 8534TIP3   OH247092   4.414   0.236  12.844
 8534TIP3    H147093   4.452   0.319  12.814
 8534TIP3    H247094   4.486   0.173  12.838
 8535TIP3   OH247095   5.760   1.148   2.615
 8535TIP3    H147096   5.668   1.162   2.593
 8535TIP3    H247097   5.775   1.055   2.598
 8536TIP3   OH247098   2.978   2.264  15.794
 8536TIP3    H147099   2.890   2.228  15.781
 8536TIP3    H247100   2.986   2.274  15.888
 8537TIP3   OH247101   4.595   1.424   6.487
 8537TIP3    H147102   4.519   1.397   6.540
 8537TIP3    H247103   4.641   1.342   6.469
 8538TIP3   OH247104   3.098   2.431   0.762
 8538TIP3    H147105   3.064   2.502   0.708
 8538TIP3    H247106   3.037   2.359   0.749
 8539TIP3   OH247107   0.571   1.895  11.783
 8539TIP3    H147108   0.576   1.990  11.795
 8539TIP3    H247109   0.478   1.875  11.790
 8540TIP3   OH247110   3.981   3.865  13.713
 8540TIP3    H147111   3.954   3.804  13.645
 8540TIP3    H247112   4.034   3.930  13.668
 8541TIP3   OH247113   1.037   1.102  14.282
 8541TIP3    H147114   0.984   1.041  14.334
 8541TIP3    H247115   0.978   1.176  14.265
 8542TIP3   OH247116   5.003   2.360  16.434
 8542TIP3    H147117   4.967   2.272  16.445
 8542TIP3    H247118   5.077   2.364  16.494
 8543TIP3   OH247119   2.059   2.090  14.405
 8543TIP3    H147120   2.086   2.154  14.471
 8543TIP3    H247121   2.141   2.047  14.378
 8544TIP3   OH247122   5.227   0.233   2.031
 8544TIP3    H147123   5.158   0.167   2.026
 8544TIP3    H247124   5.181   0.314   2.053
 8545TIP3   OH247125   5.091   3.343  12.566
 8545TIP3    H147126   5.039   3.396  12.627
 8545TIP3    H247127   5.141   3.284  12.622
 8546TIP3   OH247128   0.905   1.598   2.681
 8546TIP3    H147129   0.953   1.677   2.705
 8546TIP3    H247130   0.927   1.584   2.588
 8547TIP3   OH247131   2.566   4.440  16.411
 8547TIP3    H147132   2.501   4.465  16.476
 8547TIP3    H247133   2.632   4.390  16.459
 8548TIP3   OH247134   2.219   1.429  17.049
 8548TIP3    H147135   2.310   1.448  17.025
 8548TIP3    H247136   2.225   1.395  17.138
 8549TIP3   OH247137   3.104   3.270  10.641
 8549TIP3    H147138   3.171   3.308  10.697
 8549TIP3    H247139   3.024   3.316  10.664
 8550TIP3   OH247140   3.796   0.455  12.205
 8550TIP3    H147141   3.880   0.457  12.251
 8550TIP3    H247142   3.763   0.366  12.217
 8551TIP3   OH247143   5.165   4.843  13.917
 8551TIP3    H147144   5.163   4.757  13.959
 8551TIP3    H247145   5.078   4.853  13.879
 8552TIP3   OH247146   1.490   0.964   4.494
 8552TIP3    H147147   1.561   1.027   4.488
 8552TIP3    H247148   1.498   0.925   4.581
 8553TIP3   OH247149   2.806   3.777  17.028
 8553TIP3    H147150   2.890   3.820  17.035
 8553TIP3    H247151   2.827   3.689  16.996
 8554TIP3   OH247152   5.716   2.007   2.436
 8554TIP3    H147153   5.756   2.084   2.396
 8554TIP3    H247154   5.716   2.026   2.530
 8555TIP3   OH247155   4.295   0.969   0.724
 8555TIP3    H147156   4.362   0.974   0.793
 8555TIP3    H247157   4.322   0.895   0.670
 8556TIP3   OH247158   4.362   4.984  15.960
 8556TIP3    H147159   4.295   4.921  15.933
 8556TIP3    H247160   4.364   5.048  15.889
 8557TIP3   OH247161   2.033   5.975   0.003
 8557TIP3    H147162   2.093   5.960  -0.070
 8557TIP3    H247163   2.011   5.888   0.035
 8558TIP3   OH247164   1.473   3.064   3.604
 8558TIP3    H147165   1.433   3.079   3.690
 8558TIP3    H247166   1.457   2.971   3.586
 8559TIP3   OH247167   5.542   5.107   0.598
 8559TIP3    H147168   5.471   5.043   0.592
 8559TIP3    H247169   5.558   5.134   0.508
 8560TIP3   OH247170   4.283   0.121  14.879
 8560TIP3    H147171   4.364   0.136  14.928
 8560TIP3    H247172   4.217   0.172  14.925
 8561TIP3   OH247173   5.523   4.599   6.617
 8561TIP3    H147174   5.549   4.690   6.626
 8561TIP3    H247175   5.457   4.599   6.547
 8562TIP3   OH247176   4.994   2.268  15.079
 8562TIP3    H147177   4.975   2.251  14.987
 8562TIP3    H247178   4.922   2.224  15.126
 8563TIP3   OH247179   1.082   2.932   1.697
 8563TIP3    H147180   1.046   2.867   1.637
 8563TIP3    H247181   1.050   3.016   1.664
 8564TIP3   OH247182   3.656   5.003  11.183
 8564TIP3    H147183   3.735   5.057  11.187
 8564TIP3    H247184   3.616   5.013  11.269
 8565TIP3   OH247185   2.031   6.047  14.187
 8565TIP3    H147186   2.099   6.113  14.180
 8565TIP3    H247187   1.986   6.067  14.268
 8566TIP3   OH247188   3.076   6.274   0.801
 8566TIP3    H147189   3.133   6.226   0.862
 8566TIP3    H247190   3.133   6.294   0.726
 8567TIP3   OH247191   3.505   0.880   3.231
 8567TIP3    H147192   3.487   0.971   3.206
 8567TIP3    H247193   3.567   0.887   3.304
 8568TIP3   OH247194   0.312   2.016   0.092
 8568TIP3    H147195   0.398   2.023   0.050
 8568TIP3    H247196   0.263   2.091   0.060
 8569TIP3   OH247197   3.260   6.676   5.255
 8569TIP3    H147198   3.221   6.683   5.168
 8569TIP3    H247199   3.350   6.706   5.244
 8570TIP3   OH247200   6.631   2.887   1.013
 8570TIP3    H147201   6.557   2.894   0.952
 8570TIP3    H247202   6.703   2.857   0.958
 8571TIP3   OH247203   2.003   3.946   1.504
 8571TIP3    H147204   2.003   3.862   1.549
 8571TIP3    H247205   1.946   4.002   1.556
 8572TIP3   OH247206   6.810   1.684  11.072
 8572TIP3    H147207   6.819   1.595  11.038
 8572TIP3    H247208   6.896   1.724  11.059
 8573TIP3   OH247209   0.251   4.404   5.970
 8573TIP3    H147210   0.233   4.348   5.895
 8573TIP3    H247211   0.340   4.379   5.998
 8574TIP3   OH247212   6.025   0.123  13.892
 8574TIP3    H147213   6.011   0.046  13.946
 8574TIP3    H247214   5.968   0.109  13.816
 8575TIP3   OH247215   0.092   6.325   4.659
 8575TIP3    H147216   0.070   6.411   4.625
 8575TIP3    H247217   0.153   6.342   4.730
 8576TIP3   OH247218   0.184   3.551   4.988
 8576TIP3    H147219   0.205   3.509   4.905
 8576TIP3    H247220   0.196   3.482   5.053
 8577TIP3   OH247221   4.497   4.956   5.245
 8577TIP3    H147222   4.403   4.945   5.233
 8577TIP3    H247223   4.536   4.897   5.180
 8578TIP3   OH247224   5.049   1.673   3.994
 8578TIP3    H147225   5.098   1.625   3.928
 8578TIP3    H247226   4.962   1.685   3.955
 8579TIP3   OH247227   4.105   2.735  14.054
 8579TIP3    H147228   4.138   2.791  13.984
 8579TIP3    H247229   4.141   2.772  14.134
 8580TIP3   OH247230   3.669   4.087  15.329
 8580TIP3    H147231   3.669   4.038  15.411
 8580TIP3    H247232   3.578   4.085  15.299
 8581TIP3   OH247233   0.535   2.571  15.302
 8581TIP3    H147234   0.491   2.648  15.339
 8581TIP3    H247235   0.621   2.603  15.275
 8582TIP3   OH247236   0.196   6.119  17.068
 8582TIP3    H147237   0.290   6.136  17.062
 8582TIP3    H247238   0.183   6.085  17.156
 8583TIP3   OH247239   2.241   4.015  14.969
 8583TIP3    H147240   2.225   3.924  14.993
 8583TIP3    H247241   2.328   4.034  15.003
 8584TIP3   OH247242   3.303   2.154   3.541
 8584TIP3    H147243   3.262   2.174   3.457
 8584TIP3    H247244   3.254   2.079   3.575
 8585TIP3   OH247245   1.914   0.847   4.005
 8585TIP3    H147246   1.914   0.812   3.915
 8585TIP3    H247247   1.943   0.938   3.995
 8586TIP3   OH247248   4.998   1.144   4.400
 8586TIP3    H147249   4.924   1.202   4.417
 8586TIP3    H247250   5.008   1.094   4.481
 8587TIP3   OH247251   0.554   1.919  11.503
 8587TIP3    H147252   0.500   1.977  11.450
 8587TIP3    H247253   0.502   1.901  11.581
 8588TIP3   OH247254   1.852   2.529   3.169
 8588TIP3    H147255   1.812   2.601   3.121
 8588TIP3    H247256   1.809   2.450   3.135
 8589TIP3   OH247257   6.773   6.625  15.060
 8589TIP3    H147258   6.713   6.690  15.024
 8589TIP3    H247259   6.720   6.545  15.065
 8590TIP3   OH247260   3.573   0.040   0.840
 8590TIP3    H147261   3.628  -0.005   0.776
 8590TIP3    H247262   3.485   0.035   0.805
 8591TIP3   OH247263   6.440   3.247  13.184
 8591TIP3    H147264   6.428   3.341  13.171
 8591TIP3    H247265   6.462   3.214  13.097
 8592TIP3   OH247266   6.375   4.635  12.824
 8592TIP3    H147267   6.412   4.593  12.746
 8592TIP3    H247268   6.312   4.571  12.857
 8593TIP3   OH247269   2.973   4.561   2.704
 8593TIP3    H147270   3.021   4.532   2.781
 8593TIP3    H247271   2.884   4.527   2.717
 8594TIP3   OH247272   0.240   1.645  12.767
 8594TIP3    H147273   0.294   1.639  12.688
 8594TIP3    H247274   0.150   1.653  12.734
 8595TIP3   OH247275   4.677   3.700   4.896
 8595TIP3    H147276   4.707   3.706   4.987
 8595TIP3    H247277   4.736   3.636   4.855
 8596TIP3   OH247278   4.162   3.247   6.293
 8596TIP3    H147279   4.110   3.226   6.371
 8596TIP3    H247280   4.231   3.305   6.325
 8597TIP3   OH247281   5.312   1.592   5.973
 8597TIP3    H147282   5.249   1.582   6.045
 8597TIP3    H247283   5.395   1.563   6.010
 8598TIP3   OH247284   4.828   2.164   0.382
 8598TIP3    H147285   4.800   2.238   0.435
 8598TIP3    H247286   4.815   2.088   0.439
 8599TIP3   OH247287   1.531   0.721  15.296
 8599TIP3    H147288   1.610   0.740  15.245
 8599TIP3    H247289   1.465   0.697  15.230
 8600TIP3   OH247290   6.555   3.120   3.575
 8600TIP3    H147291   6.483   3.176   3.545
 8600TIP3    H247292   6.618   3.121   3.503
 8601TIP3   OH247293   3.386   3.276   4.738
 8601TIP3    H147294   3.368   3.302   4.829
 8601TIP3    H247295   3.436   3.194   4.746
 8602TIP3   OH247296   3.241   6.441  13.163
 8602TIP3    H147297   3.328   6.441  13.121
 8602TIP3    H247298   3.180   6.430  13.090
 8603TIP3   OH247299   4.107   6.384  16.508
 8603TIP3    H147300   4.121   6.322  16.436
 8603TIP3    H247301   4.017   6.415  16.495
 8604TIP3   OH247302   4.753   2.349   6.279
 8604TIP3    H147303   4.755   2.434   6.236
 8604TIP3    H247304   4.838   2.342   6.323
 8605TIP3   OH247305   4.595   4.708   3.600
 8605TIP3    H147306   4.674   4.747   3.563
 8605TIP3    H247307   4.544   4.679   3.524
 8606TIP3   OH247308   2.574   3.405   4.789
 8606TIP3    H147309   2.534   3.325   4.823
 8606TIP3    H247310   2.668   3.389   4.793
 8607TIP3   OH247311   1.121   4.200  14.607
 8607TIP3    H147312   1.070   4.134  14.561
 8607TIP3    H247313   1.055   4.253  14.652
 8608TIP3   OH247314   3.415   3.356  12.300
 8608TIP3    H147315   3.348   3.289  12.286
 8608TIP3    H247316   3.366   3.437  12.309
 8609TIP3   OH247317   0.858   1.569  10.529
 8609TIP3    H147318   0.845   1.640  10.592
 8609TIP3    H247319   0.822   1.492  10.572
 8610TIP3   OH247320   5.607   5.522   5.751
 8610TIP3    H147321   5.666   5.568   5.811
 8610TIP3    H247322   5.565   5.455   5.805
 8611TIP3   OH247323   0.964   0.308  16.961
 8611TIP3    H147324   1.051   0.340  16.934
 8611TIP3    H247325   0.983   0.235  17.020
 8612TIP3   OH247326   2.264   6.534  13.336
 8612TIP3    H147327   2.218   6.458  13.372
 8612TIP3    H247328   2.356   6.510  13.341
 8613TIP3   OH247329   5.948   4.816  13.728
 8613TIP3    H147330   6.041   4.795  13.718
 8613TIP3    H247331   5.908   4.734  13.756
 8614TIP3   OH247332   0.170   5.670   5.694
 8614TIP3    H147333   0.109   5.671   5.620
 8614TIP3    H247334   0.251   5.706   5.659
 8615TIP3   OH247335   3.635   4.329   2.032
 8615TIP3    H147336   3.542   4.308   2.021
 8615TIP3    H247337   3.636   4.423   2.048
 8616TIP3   OH247338   6.342   4.672   2.406
 8616TIP3    H147339   6.263   4.676   2.459
 8616TIP3    H247340   6.402   4.616   2.456
 8617TIP3   OH247341   4.766   3.064  13.820
 8617TIP3    H147342   4.790   3.079  13.728
 8617TIP3    H247343   4.763   3.152  13.858
 8618TIP3   OH247344   0.305   1.055   5.001
 8618TIP3    H147345   0.305   1.004   5.082
 8618TIP3    H247346   0.343   0.996   4.935
 8619TIP3   OH247347   2.162   5.309   0.212
 8619TIP3    H147348   2.132   5.308   0.303
 8619TIP3    H247349   2.140   5.396   0.180
 8620TIP3   OH247350   5.011   1.425   0.249
 8620TIP3    H147351   4.941   1.428   0.313
 8620TIP3    H247352   5.053   1.511   0.255
 8621TIP3   OH247353   1.262   1.556  12.057
 8621TIP3    H147354   1.256   1.651  12.061
 8621TIP3    H247355   1.184   1.529  12.007
 8622TIP3   OH247356   3.963   4.587  16.488
 8622TIP3    H147357   3.992   4.499  16.461
 8622TIP3    H247358   3.907   4.571  16.564
 8623TIP3   OH247359   1.453   6.581  15.286
 8623TIP3    H147360   1.548   6.573  15.297
 8623TIP3    H247361   1.437   6.547  15.198
 8624TIP3   OH247362   4.648   3.455   0.740
 8624TIP3    H147363   4.627   3.482   0.651
 8624TIP3    H247364   4.573   3.482   0.792
 8625TIP3   OH247365   0.487   3.259   4.866
 8625TIP3    H147366   0.457   3.257   4.775
 8625TIP3    H247367   0.422   3.208   4.914
 8626TIP3   OH247368   2.051   6.050  15.118
 8626TIP3    H147369   2.002   6.005  15.187
 8626TIP3    H247370   1.984   6.086  15.060
 8627TIP3   OH247371   6.012   4.446   6.115
 8627TIP3    H147372   6.023   4.459   6.021
 8627TIP3    H247373   5.921   4.471   6.132
 8628TIP3   OH247374   1.140   4.214  11.623
 8628TIP3    H147375   1.198   4.153  11.578
 8628TIP3    H247376   1.054   4.172  11.620
 8629TIP3   OH247377   0.729   2.287   1.579
 8629TIP3    H147378   0.736   2.200   1.542
 8629TIP3    H247379   0.809   2.297   1.631
 8630TIP3   OH247380   6.362   5.474   2.668
 8630TIP3    H147381   6.348   5.380   2.682
 8630TIP3    H247382   6.456   5.482   2.653
 8631TIP3   OH247383   3.634   0.438   4.135
 8631TIP3    H147384   3.717   0.477   4.110
 8631TIP3    H247385   3.593   0.503   4.193
 8632TIP3   OH247386   5.257   3.117   0.115
 8632TIP3    H147387   5.239   3.105   0.208
 8632TIP3    H247388   5.306   3.039   0.090
 8633TIP3   OH247389   0.815   2.532   6.249
 8633TIP3    H147390   0.797   2.620   6.281
 8633TIP3    H247391   0.889   2.542   6.189
 8634TIP3   OH247392   1.574   4.517  17.062
 8634TIP3    H147393   1.529   4.523  17.147
 8634TIP3    H247394   1.513   4.557  17.000
 8635TIP3   OH247395   4.220   4.319  15.229
 8635TIP3    H147396   4.170   4.367  15.295
 8635TIP3    H247397   4.224   4.378  15.154
 8636TIP3   OH247398   6.482   6.104   3.458
 8636TIP3    H147399   6.460   6.021   3.416
 8636TIP3    H247400   6.471   6.169   3.389
 8637TIP3   OH247401   1.361   4.101  11.053
 8637TIP3    H147402   1.274   4.115  11.088
 8637TIP3    H247403   1.386   4.185  11.015
 8638TIP3   OH247404   3.796   0.898   3.302
 8638TIP3    H147405   3.850   0.933   3.373
 8638TIP3    H247406   3.795   0.803   3.317
 8639TIP3   OH247407   6.166   2.862  13.291
 8639TIP3    H147408   6.181   2.771  13.314
 8639TIP3    H247409   6.130   2.859  13.203
 8640TIP3   OH247410   0.259   3.390  15.099
 8640TIP3    H147411   0.276   3.433  15.183
 8640TIP3    H247412   0.333   3.330  15.088
 8641TIP3   OH247413   5.228   5.824  14.495
 8641TIP3    H147414   5.174   5.769  14.438
 8641TIP3    H247415   5.182   5.823  14.579
 8642TIP3   OH247416   5.793   0.915  14.538
 8642TIP3    H147417   5.731   0.981  14.506
 8642TIP3    H247418   5.798   0.851  14.467
 8643TIP3   OH247419   1.562   5.007   5.806
 8643TIP3    H147420   1.513   4.973   5.881
 8643TIP3    H247421   1.502   5.068   5.763
 8644TIP3   OH247422   1.673   1.099  12.105
 8644TIP3    H147423   1.632   1.100  12.192
 8644TIP3    H247424   1.740   1.167  12.110
 8645TIP3   OH247425   1.382   3.317  17.092
 8645TIP3    H147426   1.349   3.229  17.110
 8645TIP3    H247427   1.309   3.362  17.049
 8646TIP3   OH247428   0.778   1.453   0.430
 8646TIP3    H147429   0.796   1.416   0.516
 8646TIP3    H247430   0.729   1.385   0.384
 8647TIP3   OH247431   2.619   6.755  12.796
 8647TIP3    H147432   2.631   6.810  12.718
 8647TIP3    H247433   2.532   6.716  12.785
 8648TIP3   OH247434   5.787   1.890  14.549
 8648TIP3    H147435   5.801   1.951  14.476
 8648TIP3    H247436   5.851   1.917  14.615
 8649TIP3   OH247437   1.459   5.854   4.300
 8649TIP3    H147438   1.430   5.777   4.350
 8649TIP3    H247439   1.501   5.818   4.222
 8650TIP3   OH247440   3.031   4.288  11.523
 8650TIP3    H147441   3.047   4.230  11.598
 8650TIP3    H247442   2.939   4.272  11.500
 8651TIP3   OH247443   0.983   6.287   3.589
 8651TIP3    H147444   0.982   6.348   3.515
 8651TIP3    H247445   0.952   6.204   3.552
 8652TIP3   OH247446   4.871   3.823  16.853
 8652TIP3    H147447   4.881   3.854  16.763
 8652TIP3    H247448   4.783   3.786  16.856
 8653TIP3   OH247449   1.009   6.622   5.903
 8653TIP3    H147450   1.000   6.707   5.859
 8653TIP3    H247451   1.032   6.561   5.832
 8654TIP3   OH247452   1.220   6.124   1.072
 8654TIP3    H147453   1.217   6.044   1.020
 8654TIP3    H247454   1.289   6.177   1.032
 8655TIP3   OH247455   4.071   4.270   5.238
 8655TIP3    H147456   4.053   4.361   5.260
 8655TIP3    H247457   4.063   4.223   5.321
 8656TIP3   OH247458   5.693   4.548  17.051
 8656TIP3    H147459   5.756   4.607  17.009
 8656TIP3    H247460   5.695   4.468  16.998
 8657TIP3   OH247461   6.247   3.159  14.234
 8657TIP3    H147462   6.252   3.142  14.328
 8657TIP3    H247463   6.181   3.098  14.202
 8658TIP3   OH247464   1.132   0.546   0.543
 8658TIP3    H147465   1.174   0.575   0.461
 8658TIP3    H247466   1.064   0.611   0.559
 8659TIP3   OH247467   1.987   0.834   0.396
 8659TIP3    H147468   2.020   0.842   0.307
 8659TIP3    H247469   1.983   0.924   0.429
 8660TIP3   OH247470   0.568   4.019   3.250
 8660TIP3    H147471   0.517   4.086   3.204
 8660TIP3    H247472   0.602   3.963   3.182
 8661TIP3   OH247473   5.004   0.571   6.568
 8661TIP3    H147474   5.026   0.508   6.637
 8661TIP3    H247475   5.089   0.605   6.539
 8662TIP3   OH247476   6.035   3.069  15.565
 8662TIP3    H147477   6.059   3.160  15.544
 8662TIP3    H247478   6.072   3.017  15.494
 8663TIP3   OH247479   4.761   5.182   4.859
 8663TIP3    H147480   4.701   5.248   4.893
 8663TIP3    H247481   4.712   5.140   4.787
 8664TIP3   OH247482   4.034   1.296   3.826
 8664TIP3    H147483   4.070   1.368   3.774
 8664TIP3    H247484   4.012   1.336   3.910
 8665TIP3   OH247485   0.115   3.261   1.157
 8665TIP3    H147486   0.130   3.170   1.132
 8665TIP3    H247487   0.076   3.301   1.079
 8666TIP3   OH247488   1.326   4.050  16.125
 8666TIP3    H147489   1.378   3.970  16.118
 8666TIP3    H247490   1.235   4.021  16.112
 8667TIP3   OH247491   3.181   4.411  12.555
 8667TIP3    H147492   3.261   4.378  12.516
 8667TIP3    H247493   3.175   4.367  12.639
 8668TIP3   OH247494   0.342   1.516   0.619
 8668TIP3    H147495   0.408   1.455   0.652
 8668TIP3    H247496   0.346   1.507   0.524
 8669TIP3   OH247497   6.475   2.067  16.426
 8669TIP3    H147498   6.532   2.134  16.389
 8669TIP3    H247499   6.387   2.098  16.409
 8670TIP3   OH247500   5.841   0.523  11.668
 8670TIP3    H147501   5.831   0.618  11.659
 8670TIP3    H247502   5.883   0.495  11.587
 8671TIP3   OH247503   4.268   4.028   4.587
 8671TIP3    H147504   4.206   4.069   4.648
 8671TIP3    H247505   4.246   3.935   4.589
 8672TIP3   OH247506   4.089   5.830   4.396
 8672TIP3    H147507   4.157   5.896   4.382
 8672TIP3    H247508   4.120   5.779   4.471
 8673TIP3   OH247509   2.277   6.630   2.179
 8673TIP3    H147510   2.267   6.580   2.260
 8673TIP3    H247511   2.367   6.613   2.151
 8674TIP3   OH247512   2.383   0.383   1.748
 8674TIP3    H147513   2.448   0.368   1.817
 8674TIP3    H247514   2.362   0.476   1.755
 8675TIP3   OH247515   2.503   2.844  16.579
 8675TIP3    H147516   2.457   2.901  16.517
 8675TIP3    H247517   2.505   2.758  16.536
 8676TIP3   OH247518   2.729   0.516   2.589
 8676TIP3    H147519   2.678   0.525   2.508
 8676TIP3    H247520   2.819   0.507   2.560
 8677TIP3   OH247521   6.686   3.240   1.401
 8677TIP3    H147522   6.735   3.158   1.414
 8677TIP3    H247523   6.753   3.306   1.387
 8678TIP3   OH247524   2.974   6.012   5.583
 8678TIP3    H147525   2.878   6.009   5.580
 8678TIP3    H247526   2.994   6.062   5.662
 8679TIP3   OH247527   0.185   3.531   1.716
 8679TIP3    H147528   0.175   3.541   1.621
 8679TIP3    H247529   0.264   3.478   1.727
 8680TIP3   OH247530   0.072   0.548  15.949
 8680TIP3    H147531   0.122   0.629  15.943
 8680TIP3    H247532   0.136   0.482  15.974
 8681TIP3   OH247533   2.808   5.039   4.816
 8681TIP3    H147534   2.831   5.073   4.730
 8681TIP3    H247535   2.716   5.015   4.809
 8682TIP3   OH247536   0.830   5.478  14.960
 8682TIP3    H147537   0.853   5.489  14.868
 8682TIP3    H247538   0.787   5.559  14.985
 8683TIP3   OH247539   4.153   6.102   5.616
 8683TIP3    H147540   4.166   6.073   5.526
 8683TIP3    H247541   4.240   6.103   5.655
 8684TIP3   OH247542   3.140   6.475   5.633
 8684TIP3    H147543   3.101   6.557   5.604
 8684TIP3    H247544   3.180   6.496   5.718
 8685TIP3   OH247545   2.146   1.931  12.131
 8685TIP3    H147546   2.158   1.837  12.117
 8685TIP3    H247547   2.128   1.939  12.224
 8686TIP3   OH247548   4.885   0.839  12.459
 8686TIP3    H147549   4.857   0.887  12.538
 8686TIP3    H247550   4.833   0.759  12.461
 8687TIP3   OH247551   2.896   2.998  16.442
 8687TIP3    H147552   2.822   3.035  16.395
 8687TIP3    H247553   2.949   2.955  16.374
 8688TIP3   OH247554   0.575   4.140   5.230
 8688TIP3    H147555   0.595   4.081   5.303
 8688TIP3    H247556   0.528   4.213   5.271
 8689TIP3   OH247557   5.334   1.044   3.795
 8689TIP3    H147558   5.353   1.042   3.889
 8689TIP3    H247559   5.298   1.131   3.780
 8690TIP3   OH247560   2.173   3.122  14.513
 8690TIP3    H147561   2.192   3.211  14.545
 8690TIP3    H247562   2.239   3.067  14.556
 8691TIP3   OH247563   6.053   3.893   2.194
 8691TIP3    H147564   6.100   3.942   2.262
 8691TIP3    H247565   6.121   3.872   2.129
 8692TIP3   OH247566   1.790   1.790   4.926
 8692TIP3    H147567   1.786   1.884   4.946
 8692TIP3    H247568   1.702   1.768   4.897
 8693TIP3   OH247569   4.356   5.630   3.686
 8693TIP3    H147570   4.410   5.555   3.710
 8693TIP3    H247571   4.276   5.592   3.649
 8694TIP3   OH247572   6.203   6.710   5.693
 8694TIP3    H147573   6.192   6.805   5.689
 8694TIP3    H247574   6.254   6.695   5.773
 8695TIP3   OH247575   0.899   2.300  13.974
 8695TIP3    H147576   0.919   2.261  14.059
 8695TIP3    H247577   0.890   2.394  13.992
 8696TIP3   OH247578   3.625   2.628   4.866
 8696TIP3    H147579   3.661   2.675   4.941
 8696TIP3    H247580   3.616   2.538   4.896
 8697TIP3   OH247581   2.739   3.250  14.906
 8697TIP3    H147582   2.687   3.329  14.921
 8697TIP3    H247583   2.681   3.178  14.930
 8698TIP3   OH247584   6.478   3.328   3.359
 8698TIP3    H147585   6.530   3.398   3.400
 8698TIP3    H247586   6.541   3.260   3.338
 8699TIP3   OH247587   0.942   2.926  15.075
 8699TIP3    H147588   0.945   3.013  15.036
 8699TIP3    H247589   0.890   2.874  15.014
 8700TIP3   OH247590   3.552   0.500   0.141
 8700TIP3    H147591   3.550   0.410   0.107
 8700TIP3    H247592   3.481   0.545   0.095
 8701TIP3   OH247593   5.598   5.586  15.976
 8701TIP3    H147594   5.598   5.682  15.980
 8701TIP3    H247595   5.644   5.559  16.056
 8702TIP3   OH247596   6.613   5.329  13.644
 8702TIP3    H147597   6.680   5.303  13.581
 8702TIP3    H247598   6.661   5.346  13.725
 8703TIP3   OH247599   1.098   6.674   3.862
 8703TIP3    H147600   1.026   6.703   3.807
 8703TIP3    H247601   1.149   6.753   3.878
 8704TIP3   OH247602   5.361   6.311   0.412
 8704TIP3    H147603   5.452   6.312   0.441
 8704TIP3    H247604   5.364   6.266   0.327
 8705TIP3   OH247605   3.481   4.174  16.297
 8705TIP3    H147606   3.448   4.262  16.278
 8705TIP3    H247607   3.560   4.166  16.245
 8706TIP3   OH247608   6.285   0.123  14.263
 8706TIP3    H147609   6.375   0.155  14.261
 8706TIP3    H247610   6.291   0.035  14.300
 8707TIP3   OH247611   2.803   2.157  12.085
 8707TIP3    H147612   2.728   2.146  12.026
 8707TIP3    H247613   2.861   2.084  12.064
 8708TIP3   OH247614   1.600   5.717  12.896
 8708TIP3    H147615   1.512   5.718  12.933
 8708TIP3    H247616   1.653   5.766  12.959
 8709TIP3   OH247617   6.073   5.221  11.798
 8709TIP3    H147618   6.119   5.194  11.877
 8709TIP3    H247619   6.070   5.317  11.804
 8710TIP3   OH247620   6.279   1.582  12.252
 8710TIP3    H147621   6.187   1.603  12.233
 8710TIP3    H247622   6.300   1.637  12.328
 8711TIP3   OH247623   1.324   2.658   3.385
 8711TIP3    H147624   1.306   2.565   3.391
 8711TIP3    H247625   1.265   2.690   3.317
 8712TIP3   OH247626   6.432   1.857   1.935
 8712TIP3    H147627   6.399   1.781   1.887
 8712TIP3    H247628   6.361   1.880   1.994
 8713TIP3   OH247629   1.995   5.996   2.006
 8713TIP3    H147630   2.032   6.021   2.090
 8713TIP3    H247631   2.054   5.929   1.972
 8714TIP3   OH247632   6.662   0.055   0.546
 8714TIP3    H147633   6.692  -0.030   0.580
 8714TIP3    H247634   6.583   0.075   0.596
 8715TIP3   OH247635   5.905   0.714  15.800
 8715TIP3    H147636   5.942   0.674  15.879
 8715TIP3    H247637   5.812   0.693  15.804
 8716TIP3   OH247638   3.014   0.577  11.386
 8716TIP3    H147639   3.080   0.535  11.332
 8716TIP3    H247640   3.019   0.670  11.362
 8717TIP3   OH247641   6.683   4.477  16.534
 8717TIP3    H147642   6.692   4.445  16.445
 8717TIP3    H247643   6.771   4.503  16.560
 8718TIP3   OH247644   1.843   6.062  14.417
 8718TIP3    H147645   1.781   5.997  14.383
 8718TIP3    H247646   1.789   6.136  14.444
 8719TIP3   OH247647   4.036   3.953  11.747
 8719TIP3    H147648   4.017   3.937  11.839
 8719TIP3    H247649   4.047   4.047  11.740
 8720TIP3   OH247650   3.917   5.744  11.288
 8720TIP3    H147651   4.010   5.751  11.311
 8720TIP3    H247652   3.895   5.830  11.254
 8721TIP3   OH247653   6.576   1.690   3.833
 8721TIP3    H147654   6.630   1.692   3.912
 8721TIP3    H247655   6.588   1.602   3.797
 8722TIP3   OH247656   0.774   3.896   1.143
 8722TIP3    H147657   0.833   3.956   1.097
 8722TIP3    H247658   0.720   3.859   1.073
 8723TIP3   OH247659   6.794   0.131  14.114
 8723TIP3    H147660   6.797   0.211  14.167
 8723TIP3    H247661   6.800   0.163  14.024
 8724TIP3   OH247662   3.611   1.194  11.924
 8724TIP3    H147663   3.519   1.187  11.899
 8724TIP3    H247664   3.609   1.206  12.019
 8725TIP3   OH247665   6.033   5.342   1.314
 8725TIP3    H147666   6.033   5.257   1.359
 8725TIP3    H247667   6.106   5.338   1.253
 8726TIP3   OH247668   2.619   4.266   1.632
 8726TIP3    H147669   2.567   4.235   1.707
 8726TIP3    H247670   2.590   4.212   1.559
 8727TIP3   OH247671   3.045   4.758  14.192
 8727TIP3    H147672   3.102   4.688  14.160
 8727TIP3    H247673   2.964   4.713  14.216
 8728TIP3   OH247674   2.184   3.624   5.823
 8728TIP3    H147675   2.145   3.676   5.893
 8728TIP3    H247676   2.203   3.688   5.754
 8729TIP3   OH247677   6.365   1.150   4.668
 8729TIP3    H147678   6.339   1.201   4.592
 8729TIP3    H247679   6.460   1.162   4.674
 8730TIP3   OH247680   1.175   0.019   2.826
 8730TIP3    H147681   1.165   0.097   2.772
 8730TIP3    H247682   1.112  -0.043   2.790
 8731TIP3   OH247683   4.964   6.138  11.937
 8731TIP3    H147684   4.907   6.215  11.941
 8731TIP3    H247685   5.043   6.170  11.892
 8732TIP3   OH247686   5.296   2.503   0.331
 8732TIP3    H147687   5.260   2.567   0.269
 8732TIP3    H247688   5.220   2.451   0.357
 8733TIP3   OH247689   2.930   0.066  15.124
 8733TIP3    H147690   2.864   0.123  15.161
 8733TIP3    H247691   2.943   0.099  15.035
 8734TIP3   OH247692   4.166   5.973   0.515
 8734TIP3    H147693   4.143   5.897   0.461
 8734TIP3    H247694   4.105   6.041   0.487
 8735TIP3   OH247695   1.835   0.168   3.515
 8735TIP3    H147696   1.912   0.118   3.543
 8735TIP3    H247697   1.830   0.241   3.577
 8736TIP3   OH247698   4.054   3.107   0.542
 8736TIP3    H147699   3.994   3.035   0.560
 8736TIP3    H247700   4.141   3.071   0.562
 8737TIP3   OH247701   2.202   6.018  16.447
 8737TIP3    H147702   2.249   5.938  16.472
 8737TIP3    H247703   2.137   5.989  16.383
 8738TIP3   OH247704   4.064   4.121  14.310
 8738TIP3    H147705   4.083   4.196  14.365
 8738TIP3    H247706   4.140   4.113  14.252
 8739TIP3   OH247707   5.580   6.544   1.025
 8739TIP3    H147708   5.511   6.480   1.045
 8739TIP3    H247709   5.559   6.620   1.080
 8740TIP3   OH247710   1.538   0.705  11.910
 8740TIP3    H147711   1.496   0.719  11.995
 8740TIP3    H247712   1.632   0.705  11.929
 8741TIP3   OH247713   4.720   2.919  14.766
 8741TIP3    H147714   4.698   2.830  14.796
 8741TIP3    H247715   4.641   2.950  14.723
 8742TIP3   OH247716   5.684   6.738  15.802
 8742TIP3    H147717   5.595   6.719  15.773
 8742TIP3    H247718   5.736   6.740  15.721
 8743TIP3   OH247719   1.202   4.300   2.353
 8743TIP3    H147720   1.223   4.333   2.441
 8743TIP3    H247721   1.280   4.320   2.301
 8744TIP3   OH247722   4.479   1.603   2.804
 8744TIP3    H147723   4.454   1.687   2.842
 8744TIP3    H247724   4.409   1.583   2.742
 8745TIP3   OH247725   0.494   0.833  11.110
 8745TIP3    H147726   0.532   0.750  11.139
 8745TIP3    H247727   0.441   0.810  11.034
 8746TIP3   OH247728   0.614   6.623  13.548
 8746TIP3    H147729   0.577   6.668  13.472
 8746TIP3    H247730   0.629   6.693  13.612
 8747TIP3   OH247731   6.817   6.178  12.614
 8747TIP3    H147732   6.782   6.173  12.525
 8747TIP3    H247733   6.751   6.228  12.662
 8748TIP3   OH247734   4.159   6.763   4.578
 8748TIP3    H147735   4.109   6.835   4.616
 8748TIP3    H247736   4.225   6.742   4.644
 8749TIP3   OH247737   1.628   5.023  15.345
 8749TIP3    H147738   1.641   4.936  15.381
 8749TIP3    H247739   1.592   5.074  15.418
 8750TIP3   OH247740   1.636   1.944   2.045
 8750TIP3    H147741   1.605   1.877   1.984
 8750TIP3    H247742   1.678   2.010   1.990
 8751TIP3   OH247743   1.201   0.519  14.526
 8751TIP3    H147744   1.134   0.539  14.460
 8751TIP3    H247745   1.247   0.443  14.492
 8752TIP3   OH247746   0.438   5.848  11.130
 8752TIP3    H147747   0.501   5.914  11.160
 8752TIP3    H247748   0.483   5.765  11.141
 8753TIP3   OH247749   2.741   5.808  14.423
 8753TIP3    H147750   2.690   5.821  14.503
 8753TIP3    H247751   2.764   5.897  14.395
 8754TIP3   OH247752   1.723   1.869  13.886
 8754TIP3    H147753   1.636   1.892  13.855
 8754TIP3    H247754   1.779   1.940  13.856
 8755TIP3   OH247755   5.592   0.514   3.877
 8755TIP3    H147756   5.516   0.485   3.826
 8755TIP3    H247757   5.590   0.461   3.956
 8756TIP3   OH247758   6.053   5.897   2.368
 8756TIP3    H147759   6.098   5.835   2.310
 8756TIP3    H247760   6.102   5.894   2.450
 8757TIP3   OH247761   0.014   0.247   1.163
 8757TIP3    H147762  -0.050   0.315   1.141
 8757TIP3    H247763  -0.021   0.207   1.243
 8758TIP3   OH247764   6.416   3.087  15.887
 8758TIP3    H147765   6.334   3.130  15.911
 8758TIP3    H247766   6.478   3.115  15.954
 8759TIP3   OH247767   1.239   2.220   0.338
 8759TIP3    H147768   1.268   2.286   0.276
 8759TIP3    H247769   1.266   2.253   0.424
 8760TIP3   OH247770   5.452   4.712   5.692
 8760TIP3    H147771   5.459   4.708   5.597
 8760TIP3    H247772   5.386   4.647   5.714
 8761TIP3   OH247773   5.880   3.819  16.405
 8761TIP3    H147774   5.829   3.739  16.422
 8761TIP3    H247775   5.821   3.874  16.353
 8762TIP3   OH247776   4.167   2.938  14.966
 8762TIP3    H147777   4.131   2.903  14.884
 8762TIP3    H247778   4.183   3.030  14.948
 8763TIP3   OH247779   3.057   3.889  14.202
 8763TIP3    H147780   3.014   3.974  14.212
 8763TIP3    H247781   2.987   3.826  14.213
 8764TIP3   OH247782   5.126   1.536   1.024
 8764TIP3    H147783   5.074   1.509   0.948
 8764TIP3    H247784   5.090   1.484   1.096
 8765TIP3   OH247785   5.585   1.926  12.938
 8765TIP3    H147786   5.630   1.842  12.941
 8765TIP3    H247787   5.571   1.943  12.845
 8766TIP3   OH247788   6.456   3.297   1.549
 8766TIP3    H147789   6.546   3.281   1.520
 8766TIP3    H247790   6.465   3.341   1.633
 8767TIP3   OH247791   1.934   0.225  15.654
 8767TIP3    H147792   1.895   0.311  15.639
 8767TIP3    H247793   1.989   0.237  15.732
 8768TIP3   OH247794   4.373   2.525   3.007
 8768TIP3    H147795   4.360   2.532   3.101
 8768TIP3    H247796   4.431   2.598   2.986
 8769TIP3   OH247797   1.638   6.072   1.834
 8769TIP3    H147798   1.592   6.156   1.829
 8769TIP3    H247799   1.572   6.009   1.864
 8770TIP3   OH247800   5.791   4.723   4.532
 8770TIP3    H147801   5.825   4.801   4.575
 8770TIP3    H247802   5.707   4.706   4.576
 8771TIP3   OH247803   1.449   6.771  12.876
 8771TIP3    H147804   1.462   6.676  12.872
 8771TIP3    H247805   1.428   6.796  12.786
 8772TIP3   OH247806   3.294   2.733   5.669
 8772TIP3    H147807   3.262   2.644   5.678
 8772TIP3    H247808   3.220   2.788   5.695
 8773TIP3   OH247809   2.351   6.437  11.988
 8773TIP3    H147810   2.258   6.443  11.967
 8773TIP3    H247811   2.373   6.522  12.026
 8774TIP3   OH247812   5.850   2.982   3.168
 8774TIP3    H147813   5.802   2.947   3.093
 8774TIP3    H247814   5.931   3.015   3.130
 8775TIP3   OH247815   3.659   4.774  14.844
 8775TIP3    H147816   3.750   4.748  14.854
 8775TIP3    H247817   3.646   4.844  14.908
 8776TIP3   OH247818   1.423   3.255  16.130
 8776TIP3    H147819   1.487   3.307  16.179
 8776TIP3    H247820   1.381   3.318  16.071
 8777TIP3   OH247821   1.514   4.917   2.346
 8777TIP3    H147822   1.457   4.843   2.326
 8777TIP3    H247823   1.588   4.908   2.285
 8778TIP3   OH247824   4.086   4.215  16.406
 8778TIP3    H147825   4.059   4.250  16.491
 8778TIP3    H247826   4.076   4.120  16.415
 8779TIP3   OH247827   4.453   5.634  14.758
 8779TIP3    H147828   4.417   5.549  14.733
 8779TIP3    H247829   4.469   5.627  14.852
 8780TIP3   OH247830   2.876   1.606   5.818
 8780TIP3    H147831   2.811   1.676   5.810
 8780TIP3    H247832   2.825   1.525   5.820
 8781TIP3   OH247833   1.439   0.837   6.357
 8781TIP3    H147834   1.396   0.892   6.422
 8781TIP3    H247835   1.531   0.837   6.382
 8782TIP3   OH247836   1.581   3.477   3.173
 8782TIP3    H147837   1.647   3.432   3.226
 8782TIP3    H247838   1.549   3.411   3.112
 8783TIP3   OH247839   4.784   3.071   3.148
 8783TIP3    H147840   4.813   3.079   3.057
 8783TIP3    H247841   4.747   2.983   3.153
 8784TIP3   OH247842   5.997   4.356  12.439
 8784TIP3    H147843   6.007   4.327  12.348
 8784TIP3    H247844   6.082   4.336  12.479
 8785TIP3   OH247845   4.121   4.276   1.006
 8785TIP3    H147846   4.100   4.234   1.090
 8785TIP3    H247847   4.038   4.315   0.978
 8786TIP3   OH247848   4.970   1.131  12.446
 8786TIP3    H147849   5.001   1.081  12.371
 8786TIP3    H247850   5.035   1.114  12.514
 8787TIP3   OH247851   2.235   2.253   5.470
 8787TIP3    H147852   2.330   2.257   5.485
 8787TIP3    H247853   2.203   2.339   5.495
 8788TIP3   OH247854   4.144   4.906  10.787
 8788TIP3    H147855   4.144   4.955  10.869
 8788TIP3    H247856   4.051   4.895  10.766
 8789TIP3   OH247857   0.584   5.712   4.286
 8789TIP3    H147858   0.583   5.805   4.267
 8789TIP3    H247859   0.525   5.673   4.221
 8790TIP3   OH247860   4.894   1.441  16.715
 8790TIP3    H147861   4.860   1.378  16.778
 8790TIP3    H247862   4.970   1.398  16.676
 8791TIP3   OH247863   3.909   0.146   4.059
 8791TIP3    H147864   3.879   0.210   3.994
 8791TIP3    H247865   3.829   0.098   4.084
 8792TIP3   OH247866   4.484   4.573  11.523
 8792TIP3    H147867   4.489   4.667  11.506
 8792TIP3    H247868   4.403   4.546  11.480
 8793TIP3   OH247869   5.407   3.703  15.917
 8793TIP3    H147870   5.425   3.777  15.858
 8793TIP3    H247871   5.432   3.735  16.003
 8794TIP3   OH247872   4.317   2.402  14.758
 8794TIP3    H147873   4.395   2.350  14.739
 8794TIP3    H247874   4.245   2.339  14.756
 8795TIP3   OH247875   0.704   6.411   7.009
 8795TIP3    H147876   0.795   6.392   7.032
 8795TIP3    H247877   0.658   6.329   7.030
 8796TIP3   OH247878   6.590   3.598  12.955
 8796TIP3    H147879   6.641   3.529  12.913
 8796TIP3    H247880   6.642   3.677  12.944
 8797TIP3   OH247881   2.974   1.257  12.941
 8797TIP3    H147882   2.895   1.207  12.961
 8797TIP3    H247883   2.955   1.300  12.857
 8798TIP3   OH247884   4.866   6.168   4.900
 8798TIP3    H147885   4.779   6.148   4.867
 8798TIP3    H247886   4.922   6.101   4.860
 8799TIP3   OH247887   6.629   1.452   3.683
 8799TIP3    H147888   6.617   1.359   3.702
 8799TIP3    H247889   6.689   1.454   3.608
 8800TIP3   OH247890   6.627   2.594   3.200
 8800TIP3    H147891   6.562   2.621   3.135
 8800TIP3    H247892   6.591   2.624   3.284
 8801TIP3   OH247893   3.934   1.857   5.527
 8801TIP3    H147894   3.922   1.799   5.603
 8801TIP3    H247895   3.863   1.920   5.535
 8802TIP3   OH247896   0.355   4.859  15.292
 8802TIP3    H147897   0.273   4.888  15.331
 8802TIP3    H247898   0.335   4.848  15.199
 8803TIP3   OH247899   2.019   2.657  15.374
 8803TIP3    H147900   2.045   2.617  15.457
 8803TIP3    H247901   2.012   2.584  15.313
 8804TIP3   OH247902   0.047   0.052  14.514
 8804TIP3    H147903   0.113   0.113  14.483
 8804TIP3    H247904   0.084  -0.035  14.498
 8805TIP3   OH247905   1.468   5.704  12.412
 8805TIP3    H147906   1.395   5.648  12.437
 8805TIP3    H247907   1.531   5.694  12.483
 8806TIP3   OH247908   2.612   3.254   4.079
 8806TIP3    H147909   2.553   3.323   4.049
 8806TIP3    H247910   2.599   3.182   4.017
 8807TIP3   OH247911   3.637   5.491  12.705
 8807TIP3    H147912   3.553   5.448  12.716
 8807TIP3    H247913   3.695   5.424  12.669
 8808TIP3   OH247914   5.886   0.153  14.877
 8808TIP3    H147915   5.887   0.246  14.856
 8808TIP3    H247916   5.976   0.124  14.864
 8809TIP3   OH247917   2.275   0.261  16.218
 8809TIP3    H147918   2.193   0.231  16.179
 8809TIP3    H247919   2.255   0.347  16.255
 8810TIP3   OH247920   5.471   3.247  11.957
 8810TIP3    H147921   5.549   3.260  11.904
 8810TIP3    H247922   5.462   3.152  11.964
 8811TIP3   OH247923   1.500   5.016  11.803
 8811TIP3    H147924   1.580   4.969  11.829
 8811TIP3    H247925   1.429   4.968  11.846
 8812TIP3   OH247926   2.478   2.061  17.098
 8812TIP3    H147927   2.549   2.099  17.046
 8812TIP3    H247928   2.503   1.970  17.111
 8813TIP3   OH247929   3.513   5.616  15.718
 8813TIP3    H147930   3.437   5.604  15.661
 8813TIP3    H247931   3.522   5.533  15.764
 8814TIP3   OH247932   5.059   4.707   5.098
 8814TIP3    H147933   5.141   4.661   5.116
 8814TIP3    H247934   5.063   4.786   5.150
 8815TIP3   OH247935   5.514   4.123  14.993
 8815TIP3    H147936   5.493   4.030  15.008
 8815TIP3    H247937   5.503   4.135  14.899
 8816TIP3   OH247938   6.516   6.452   1.678
 8816TIP3    H147939   6.431   6.495   1.679
 8816TIP3    H247940   6.560   6.485   1.757
 8817TIP3   OH247941   2.714   1.571   2.656
 8817TIP3    H147942   2.805   1.588   2.634
 8817TIP3    H247943   2.668   1.651   2.631
 8818TIP3   OH247944   5.854   6.615   2.613
 8818TIP3    H147945   5.768   6.631   2.573
 8818TIP3    H247946   5.835   6.562   2.690
 8819TIP3   OH247947   3.640   1.966  13.308
 8819TIP3    H147948   3.701   1.969  13.234
 8819TIP3    H247949   3.675   2.030  13.370
 8820TIP3   OH247950   5.653   0.979   0.530
 8820TIP3    H147951   5.675   0.992   0.437
 8820TIP3    H247952   5.559   0.994   0.534
 8821TIP3   OH247953   0.250   2.567  16.897
 8821TIP3    H147954   0.296   2.488  16.926
 8821TIP3    H247955   0.189   2.588  16.968
 8822TIP3   OH247956   4.850   5.010   5.052
 8822TIP3    H147957   4.830   4.928   5.007
 8822TIP3    H247958   4.945   5.020   5.042
 8823TIP3   OH247959   1.348   3.394   3.735
 8823TIP3    H147960   1.415   3.378   3.801
 8823TIP3    H247961   1.328   3.487   3.743
 8824TIP3   OH247962   2.889   1.242   4.838
 8824TIP3    H147963   2.808   1.275   4.876
 8824TIP3    H247964   2.958   1.271   4.898
 8825TIP3   OH247965   6.749   3.360  16.268
 8825TIP3    H147966   6.791   3.440  16.236
 8825TIP3    H247967   6.739   3.373  16.362
 8826TIP3   OH247968   4.318   5.388  14.702
 8826TIP3    H147969   4.321   5.326  14.775
 8826TIP3    H247970   4.234   5.370  14.659
 8827TIP3   OH247971   2.344   2.777   3.233
 8827TIP3    H147972   2.334   2.774   3.328
 8827TIP3    H247973   2.270   2.727   3.199
 8828TIP3   OH247974   4.740   6.572   4.801
 8828TIP3    H147975   4.689   6.582   4.721
 8828TIP3    H247976   4.676   6.571   4.871
 8829TIP3   OH247977   2.525   1.125   3.567
 8829TIP3    H147978   2.604   1.177   3.583
 8829TIP3    H247979   2.516   1.124   3.472
 8830TIP3   OH247980   3.892   1.406  14.633
 8830TIP3    H147981   3.953   1.333  14.632
 8830TIP3    H247982   3.841   1.396  14.552
 8831TIP3   OH247983   3.951   2.451   3.804
 8831TIP3    H147984   3.880   2.471   3.744
 8831TIP3    H247985   4.030   2.451   3.750
 8832TIP3   OH247986   2.498   1.256   1.537
 8832TIP3    H147987   2.454   1.311   1.472
 8832TIP3    H247988   2.524   1.318   1.605
 8833TIP3   OH247989   5.117   2.954  13.502
 8833TIP3    H147990   5.064   2.929  13.427
 8833TIP3    H247991   5.157   3.038  13.477
 8834TIP3   OH247992   3.480   0.353   0.631
 8834TIP3    H147993   3.458   0.399   0.713
 8834TIP3    H247994   3.411   0.288   0.621
 8835TIP3   OH247995   0.609   2.976  13.163
 8835TIP3    H147996   0.600   3.069  13.185
 8835TIP3    H247997   0.579   2.930  13.241
 8836TIP3   OH247998   2.022   0.099  12.616
 8836TIP3    H147999   1.996   0.143  12.697
 8836TIP3    H248000   2.106   0.138  12.593
 8837TIP3   OH248001   3.301   0.028   2.186
 8837TIP3    H148002   3.320   0.120   2.164
 8837TIP3    H248003   3.380  -0.002   2.232
 8838TIP3   OH248004   6.113   5.235   5.206
 8838TIP3    H148005   6.045   5.292   5.242
 8838TIP3    H248006   6.070   5.150   5.195
 8839TIP3   OH248007   6.330   5.890  16.840
 8839TIP3    H148008   6.281   5.946  16.900
 8839TIP3    H248009   6.393   5.844  16.895
 8840TIP3   OH248010   1.944   6.778  14.060
 8840TIP3    H148011   1.920   6.868  14.082
 8840TIP3    H248012   2.008   6.754  14.127
 8841TIP3   OH248013   4.925   4.438  12.746
 8841TIP3    H148014   4.862   4.508  12.729
 8841TIP3    H248015   4.879   4.358  12.720
 8842TIP3   OH248016   2.079   5.673   5.190
 8842TIP3    H148017   2.006   5.636   5.141
 8842TIP3    H248018   2.123   5.731   5.129
 8843TIP3   OH248019   6.683   0.091  16.554
 8843TIP3    H148020   6.617   0.092  16.485
 8843TIP3    H248021   6.764   0.118  16.511
 8844TIP3   OH248022   0.180   4.672  12.443
 8844TIP3    H148023   0.213   4.588  12.412
 8844TIP3    H248024   0.259   4.722  12.465
 8845TIP3   OH248025   1.759   4.610  12.116
 8845TIP3    H148026   1.773   4.637  12.206
 8845TIP3    H248027   1.715   4.684  12.075
 8846TIP3   OH248028   4.054   0.360  16.386
 8846TIP3    H148029   3.978   0.373  16.442
 8846TIP3    H248030   4.117   0.315  16.443
 8847TIP3   OH248031   0.206   5.833   5.952
 8847TIP3    H148032   0.219   5.823   5.857
 8847TIP3    H248033   0.283   5.881   5.982
 8848TIP3   OH248034   5.763   4.755   0.372
 8848TIP3    H148035   5.705   4.693   0.329
 8848TIP3    H248036   5.732   4.759   0.462
 8849TIP3   OH248037   3.329   3.719   6.196
 8849TIP3    H148038   3.421   3.715   6.170
 8849TIP3    H248039   3.312   3.813   6.208
 8850TIP3   OH248040   2.706   0.390   0.225
 8850TIP3    H148041   2.790   0.432   0.240
 8850TIP3    H248042   2.727   0.305   0.187
 8851TIP3   OH248043   2.775   2.819   6.227
 8851TIP3    H148044   2.725   2.894   6.195
 8851TIP3    H248045   2.712   2.766   6.275
 8852TIP3   OH248046   2.049   2.333   1.042
 8852TIP3    H148047   1.974   2.287   1.003
 8852TIP3    H248048   2.049   2.305   1.134
 8853TIP3   OH248049   2.092   1.204   0.001
 8853TIP3    H148050   2.154   1.159  -0.056
 8853TIP3    H248051   2.145   1.234   0.075
 8854TIP3   OH248052   1.888   1.917   5.635
 8854TIP3    H148053   1.919   1.987   5.692
 8854TIP3    H248054   1.837   1.961   5.567
 8855TIP3   OH248055   1.831   6.144   0.513
 8855TIP3    H148056   1.756   6.190   0.476
 8855TIP3    H248057   1.879   6.110   0.437
 8856TIP3   OH248058   5.446   5.733   2.556
 8856TIP3    H148059   5.482   5.798   2.495
 8856TIP3    H248060   5.388   5.680   2.503
 8857TIP3   OH248061   2.168   3.252  15.240
 8857TIP3    H148062   2.115   3.219  15.312
 8857TIP3    H248063   2.139   3.202  15.164
 8858TIP3   OH248064   4.255   2.121  15.863
 8858TIP3    H148065   4.219   2.127  15.774
 8858TIP3    H248066   4.338   2.076  15.853
 8859TIP3   OH248067   6.451   5.134   2.314
 8859TIP3    H148068   6.377   5.177   2.356
 8859TIP3    H248069   6.486   5.076   2.382
 8860TIP3   OH248070   6.511   0.339  14.451
 8860TIP3    H148071   6.590   0.381  14.486
 8860TIP3    H248072   6.520   0.345  14.356
 8861TIP3   OH248073   0.279   2.832   4.847
 8861TIP3    H148074   0.226   2.841   4.768
 8861TIP3    H248075   0.339   2.761   4.827
 8862TIP3   OH248076   4.282   3.364  11.741
 8862TIP3    H148077   4.329   3.417  11.677
 8862TIP3    H248078   4.317   3.275  11.729
 8863TIP3   OH248079   2.445   6.486   3.909
 8863TIP3    H148080   2.519   6.478   3.848
 8863TIP3    H248081   2.438   6.400   3.949
 8864TIP3   OH248082   5.733   5.806   0.125
 8864TIP3    H148083   5.826   5.786   0.137
 8864TIP3    H248084   5.694   5.722   0.101
 8865TIP3   OH248085   0.558   0.231  16.242
 8865TIP3    H148086   0.576   0.297  16.176
 8865TIP3    H248087   0.643   0.214  16.283
 8866TIP3   OH248088   0.280   4.842  11.105
 8866TIP3    H148089   0.251   4.752  11.116
 8866TIP3    H248090   0.330   4.841  11.023
 8867TIP3   OH248091   6.731   5.493  13.924
 8867TIP3    H148092   6.778   5.424  13.972
 8867TIP3    H248093   6.648   5.502  13.971
 8868TIP3   OH248094   6.334   0.940   3.126
 8868TIP3    H148095   6.426   0.949   3.148
 8868TIP3    H248096   6.293   0.906   3.205
 8869TIP3   OH248097   3.230   6.070   0.465
 8869TIP3    H148098   3.184   6.024   0.535
 8869TIP3    H248099   3.238   6.004   0.395
 8870TIP3   OH248100   4.729   0.933  13.817
 8870TIP3    H148101   4.735   0.937  13.912
 8870TIP3    H248102   4.818   0.954  13.787
 8871TIP3   OH248103   5.688   6.057   4.449
 8871TIP3    H148104   5.635   6.136   4.452
 8871TIP3    H248105   5.767   6.079   4.499
 8872TIP3   OH248106   4.866   3.794  10.436
 8872TIP3    H148107   4.962   3.795  10.439
 8872TIP3    H248108   4.845   3.716  10.385
 8873TIP3   OH248109   1.991   3.827  12.506
 8873TIP3    H148110   1.957   3.799  12.421
 8873TIP3    H248111   2.027   3.747  12.544
 8874TIP3   OH248112   6.434   1.178  13.406
 8874TIP3    H148113   6.362   1.199  13.466
 8874TIP3    H248114   6.512   1.214  13.448
 8875TIP3   OH248115   2.518   4.245   5.614
 8875TIP3    H148116   2.467   4.320   5.584
 8875TIP3    H248117   2.504   4.178   5.546
 8876TIP3   OH248118   1.051   2.172   3.927
 8876TIP3    H148119   1.105   2.121   3.987
 8876TIP3    H248120   1.090   2.259   3.927
 8877TIP3   OH248121   1.146   5.625  12.860
 8877TIP3    H148122   1.092   5.619  12.781
 8877TIP3    H248123   1.220   5.566  12.844
 8878TIP3   OH248124   0.434   1.701   4.199
 8878TIP3    H148125   0.496   1.774   4.196
 8878TIP3    H248126   0.489   1.623   4.209
 8879TIP3   OH248127   5.337   2.322   3.831
 8879TIP3    H148128   5.389   2.390   3.874
 8879TIP3    H248129   5.391   2.243   3.836
 8880TIP3   OH248130   4.088   2.456  11.292
 8880TIP3    H148131   4.132   2.473  11.208
 8880TIP3    H248132   4.041   2.537  11.311
 8881TIP3   OH248133   2.578   1.350   2.563
 8881TIP3    H148134   2.600   1.432   2.609
 8881TIP3    H248135   2.655   1.331   2.510
 8882TIP3   OH248136   3.858   0.855  12.445
 8882TIP3    H148137   3.931   0.795  12.454
 8882TIP3    H248138   3.871   0.896  12.360
 8883TIP3   OH248139   3.030   5.050  13.916
 8883TIP3    H148140   3.096   5.043  13.985
 8883TIP3    H248141   2.958   5.098  13.957
 8884TIP3   OH248142   4.776   2.142  16.769
 8884TIP3    H148143   4.728   2.222  16.792
 8884TIP3    H248144   4.715   2.072  16.790
 8885TIP3   OH248145   3.246   1.204  16.279
 8885TIP3    H148146   3.260   1.284  16.227
 8885TIP3    H248147   3.231   1.136  16.214
 8886TIP3   OH248148   3.061   6.677   1.293
 8886TIP3    H148149   3.146   6.654   1.255
 8886TIP3    H248150   3.057   6.629   1.375
 8887TIP3   OH248151   6.170   2.174   5.977
 8887TIP3    H148152   6.201   2.263   5.958
 8887TIP3    H248153   6.081   2.186   6.010
 8888TIP3   OH248154   0.041   4.770   0.160
 8888TIP3    H148155   0.069   4.684   0.189
 8888TIP3    H248156  -0.052   4.760   0.139
 8889TIP3   OH248157   4.203   6.115  14.137
 8889TIP3    H148158   4.202   6.210  14.126
 8889TIP3    H248159   4.230   6.102  14.228
 8890TIP3   OH248160   4.558   0.453  12.412
 8890TIP3    H148161   4.499   0.528  12.407
 8890TIP3    H248162   4.645   0.490  12.397
 8891TIP3   OH248163   5.002   5.475   3.147
 8891TIP3    H148164   5.058   5.399   3.131
 8891TIP3    H248165   5.062   5.549   3.148
 8892TIP3   OH248166   1.754   0.984   4.784
 8892TIP3    H148167   1.727   1.049   4.720
 8892TIP3    H248168   1.695   0.998   4.858
 8893TIP3   OH248169   5.562   3.757  14.767
 8893TIP3    H148170   5.625   3.748  14.695
 8893TIP3    H248171   5.478   3.770  14.724
 8894TIP3   OH248172   4.471   2.360  14.136
 8894TIP3    H148173   4.475   2.355  14.040
 8894TIP3    H248174   4.384   2.327  14.158
 8895TIP3   OH248175   6.678   3.918  16.160
 8895TIP3    H148176   6.586   3.912  16.135
 8895TIP3    H248177   6.681   3.882  16.249
 8896TIP3   OH248178   3.738   1.655  11.796
 8896TIP3    H148179   3.726   1.748  11.779
 8896TIP3    H248180   3.655   1.614  11.774
 8897TIP3   OH248181   5.455   4.124   3.682
 8897TIP3    H148182   5.378   4.072   3.706
 8897TIP3    H248183   5.466   4.185   3.756
 8898TIP3   OH248184   3.837   3.216  11.808
 8898TIP3    H148185   3.827   3.243  11.900
 8898TIP3    H248186   3.875   3.292  11.765
 8899TIP3   OH248187   1.923   1.377  15.377
 8899TIP3    H148188   1.911   1.302  15.435
 8899TIP3    H248189   1.844   1.430  15.389
 8900TIP3   OH248190   6.526   6.211  13.534
 8900TIP3    H148191   6.453   6.159  13.567
 8900TIP3    H248192   6.599   6.150  13.529
 8901TIP3   OH248193   5.925   1.436   2.818
 8901TIP3    H148194   6.012   1.412   2.849
 8901TIP3    H248195   5.906   1.519   2.863
 8902TIP3   OH248196   3.755   2.293   2.379
 8902TIP3    H148197   3.772   2.356   2.448
 8902TIP3    H248198   3.820   2.313   2.311
 8903TIP3   OH248199   3.676   5.032  13.740
 8903TIP3    H148200   3.623   5.076  13.674
 8903TIP3    H248201   3.624   4.956  13.766
 8904TIP3   OH248202   4.287   3.054   0.031
 8904TIP3    H148203   4.198   3.020   0.036
 8904TIP3    H248204   4.278   3.140  -0.011
 8905TIP3   OH248205   0.120   0.202  16.473
 8905TIP3    H148206   0.154   0.254  16.400
 8905TIP3    H248207   0.143   0.112  16.450
 8906TIP3   OH248208   4.829   0.718   0.411
 8906TIP3    H148209   4.881   0.723   0.331
 8906TIP3    H248210   4.755   0.662   0.389
 8907TIP3   OH248211   6.382   3.956  13.303
 8907TIP3    H148212   6.462   3.968  13.252
 8907TIP3    H248213   6.365   3.861  13.298
 8908TIP3   OH248214   6.019   1.429  17.180
 8908TIP3    H148215   6.008   1.384  17.096
 8908TIP3    H248216   6.113   1.442  17.189
 8909TIP3   OH248217   1.672   3.559   5.945
 8909TIP3    H148218   1.689   3.512   5.863
 8909TIP3    H248219   1.594   3.517   5.982
 8910TIP3   OH248220   3.836   6.039   0.059
 8910TIP3    H148221   3.891   6.094   0.114
 8910TIP3    H248222   3.816   6.094  -0.017
 8911TIP3   OH248223   3.010   1.969  12.735
 8911TIP3    H148224   3.000   1.997  12.644
 8911TIP3    H248225   3.089   2.013  12.766
 8912TIP3   OH248226   5.728   1.266  12.267
 8912TIP3    H148227   5.685   1.330  12.210
 8912TIP3    H248228   5.752   1.315  12.345
 8913TIP3   OH248229   6.606   6.814  14.291
 8913TIP3    H148230   6.660   6.822  14.213
 8913TIP3    H248231   6.669   6.804  14.363
 8914TIP3   OH248232   5.136   5.968   5.145
 8914TIP3    H148233   5.229   5.977   5.125
 8914TIP3    H248234   5.112   6.051   5.187
 8915TIP3   OH248235   2.285   4.888  17.092
 8915TIP3    H148236   2.194   4.859  17.092
 8915TIP3    H248237   2.297   4.930  17.006
 8916TIP3   OH248238   5.346   2.499   0.930
 8916TIP3    H148239   5.360   2.594   0.924
 8916TIP3    H248240   5.266   2.490   0.981
 8917TIP3   OH248241   3.419   5.108  16.820
 8917TIP3    H148242   3.483   5.085  16.753
 8917TIP3    H248243   3.335   5.086  16.780
 8918TIP3   OH248244   1.834   3.420   0.724
 8918TIP3    H148245   1.882   3.355   0.673
 8918TIP3    H248246   1.889   3.499   0.720
 8919TIP3   OH248247   6.590   3.071  12.195
 8919TIP3    H148248   6.507   3.055  12.240
 8919TIP3    H248249   6.631   3.143  12.243
 8920TIP3   OH248250   2.290   3.500   4.946
 8920TIP3    H148251   2.247   3.576   4.985
 8920TIP3    H248252   2.383   3.512   4.968
 8921TIP3   OH248253   1.612   2.610   1.790
 8921TIP3    H148254   1.587   2.702   1.779
 8921TIP3    H248255   1.619   2.576   1.701
 8922TIP3   OH248256   5.689   0.248  14.621
 8922TIP3    H148257   5.666   0.156  14.606
 8922TIP3    H248258   5.782   0.253  14.598
 8923TIP3   OH248259   5.413   5.099  15.708
 8923TIP3    H148260   5.505   5.083  15.730
 8923TIP3    H248261   5.394   5.039  15.637
 8924TIP3   OH248262   1.666   4.227   0.114
 8924TIP3    H148263   1.704   4.311   0.139
 8924TIP3    H248264   1.590   4.217   0.171
 8925TIP3   OH248265   0.417   0.272  12.931
 8925TIP3    H148266   0.330   0.250  12.898
 8925TIP3    H248267   0.409   0.363  12.959
 8926TIP3   OH248268   2.993   3.292   2.912
 8926TIP3    H148269   2.942   3.283   2.832
 8926TIP3    H248270   2.990   3.386   2.932
 8927TIP3   OH248271   5.337   0.986  13.952
 8927TIP3    H148272   5.254   0.937  13.946
 8927TIP3    H248273   5.404   0.922  13.928
 8928TIP3   OH248274   1.019   2.166   5.363
 8928TIP3    H148275   1.044   2.225   5.292
 8928TIP3    H248276   1.047   2.080   5.334
 8929TIP3   OH248277   1.332   4.896   4.195
 8929TIP3    H148278   1.301   4.919   4.283
 8929TIP3    H248279   1.338   4.800   4.196
 8930TIP3   OH248280   1.915   4.004  11.935
 8930TIP3    H148281   1.872   3.921  11.916
 8930TIP3    H248282   1.846   4.060  11.970
 8931TIP3   OH248283   5.492   3.837  14.058
 8931TIP3    H148284   5.456   3.920  14.086
 8931TIP3    H248285   5.477   3.835  13.963
 8932TIP3   OH248286   5.862   1.593  11.393
 8932TIP3    H148287   5.894   1.668  11.343
 8932TIP3    H248288   5.769   1.612  11.407
 8933TIP3   OH248289   0.444   5.813  12.279
 8933TIP3    H148290   0.435   5.742  12.215
 8933TIP3    H248291   0.435   5.893  12.227
 8934TIP3   OH248292   3.173   5.020  16.734
 8934TIP3    H148293   3.081   5.027  16.759
 8934TIP3    H248294   3.184   5.087  16.667
 8935TIP3   OH248295   5.743   2.244   2.291
 8935TIP3    H148296   5.658   2.288   2.291
 8935TIP3    H248297   5.783   2.271   2.208
 8936TIP3   OH248298   5.318   1.482  11.163
 8936TIP3    H148299   5.370   1.468  11.084
 8936TIP3    H248300   5.257   1.409  11.165
 8937TIP3   OH248301   5.657   0.799   3.823
 8937TIP3    H148302   5.657   0.703   3.819
 8937TIP3    H248303   5.686   0.827   3.736
 8938TIP3   OH248304   6.304   5.894   0.961
 8938TIP3    H148305   6.366   5.881   0.889
 8938TIP3    H248306   6.346   5.958   1.018
 8939TIP3   OH248307   0.128   4.257  16.467
 8939TIP3    H148308   0.123   4.167  16.499
 8939TIP3    H248309   0.044   4.296  16.492
 8940TIP3   OH248310   1.207   1.353   2.086
 8940TIP3    H148311   1.151   1.287   2.047
 8940TIP3    H248312   1.197   1.430   2.029
 8941TIP3   OH248313   1.191   0.022  15.055
 8941TIP3    H148314   1.214  -0.021  15.138
 8941TIP3    H248315   1.259  -0.006  14.994
 8942TIP3   OH248316   5.849   3.485   5.121
 8942TIP3    H148317   5.925   3.529   5.159
 8942TIP3    H248318   5.774   3.531   5.159
 8943TIP3   OH248319   0.149   1.919   5.632
 8943TIP3    H148320   0.055   1.905   5.639
 8943TIP3    H248321   0.188   1.836   5.660
 8944TIP3   OH248322   1.381   4.677   5.192
 8944TIP3    H148323   1.326   4.681   5.270
 8944TIP3    H248324   1.465   4.715   5.219
 8945TIP3   OH248325   3.717   2.951  15.343
 8945TIP3    H148326   3.730   2.884  15.411
 8945TIP3    H248327   3.778   3.021  15.367
 8946TIP3   OH248328   4.504   2.700   2.801
 8946TIP3    H148329   4.436   2.752   2.759
 8946TIP3    H248330   4.552   2.661   2.729
 8947TIP3   OH248331   1.545   3.865  16.228
 8947TIP3    H148332   1.618   3.808  16.250
 8947TIP3    H248333   1.469   3.824  16.269
 8948TIP3   OH248334   0.982   5.786  14.802
 8948TIP3    H148335   1.014   5.735  14.728
 8948TIP3    H248336   0.958   5.871  14.764
 8949TIP3   OH248337   6.604   1.141  12.820
 8949TIP3    H148338   6.546   1.095  12.758
 8949TIP3    H248339   6.684   1.089  12.822
 8950TIP3   OH248340   5.503   1.436   4.586
 8950TIP3    H148341   5.552   1.358   4.559
 8950TIP3    H248342   5.569   1.495   4.621
 8951TIP3   OH248343   3.034   5.952   3.301
 8951TIP3    H148344   3.001   5.862   3.308
 8951TIP3    H248345   3.053   5.964   3.208
 8952TIP3   OH248346   2.089   2.021   4.976
 8952TIP3    H148347   2.089   1.936   4.932
 8952TIP3    H248348   2.013   2.019   5.034
 8953TIP3   OH248349   1.000   6.420   1.877
 8953TIP3    H148350   1.020   6.416   1.970
 8953TIP3    H248351   1.016   6.511   1.853
 8954TIP3   OH248352   6.163   1.628   2.711
 8954TIP3    H148353   6.155   1.594   2.800
 8954TIP3    H248354   6.148   1.722   2.721
 8955TIP3   OH248355   2.358   1.567   0.701
 8955TIP3    H148356   2.335   1.500   0.766
 8955TIP3    H248357   2.431   1.615   0.740
 8956TIP3   OH248358   6.583   6.506   0.106
 8956TIP3    H148359   6.513   6.571   0.109
 8956TIP3    H248360   6.559   6.448   0.034
 8957TIP3   OH248361   0.727   0.928  16.660
 8957TIP3    H148362   0.759   0.993  16.722
 8957TIP3    H248363   0.689   0.859  16.714
 8958TIP3   OH248364   6.133   0.301  15.786
 8958TIP3    H148365   6.177   0.331  15.865
 8958TIP3    H248366   6.053   0.260  15.817
 8959TIP3   OH248367   6.587   3.412   0.725
 8959TIP3    H148368   6.531   3.430   0.800
 8959TIP3    H248369   6.581   3.491   0.671
 8960TIP3   OH248370   4.096   5.498   3.705
 8960TIP3    H148371   4.110   5.547   3.623
 8960TIP3    H248372   4.022   5.541   3.747
 8961TIP3   OH248373   4.880   3.260  14.089
 8961TIP3    H148374   4.948   3.205  14.128
 8961TIP3    H248375   4.928   3.332  14.049
 8962TIP3   OH248376   1.051   2.820   2.706
 8962TIP3    H148377   0.961   2.835   2.735
 8962TIP3    H248378   1.090   2.907   2.703
 8963TIP3   OH248379   4.523   0.158   5.489
 8963TIP3    H148380   4.576   0.124   5.417
 8963TIP3    H248381   4.460   0.216   5.447
 8964TIP3   OH248382   3.400   5.452  14.443
 8964TIP3    H148383   3.306   5.436  14.440
 8964TIP3    H248384   3.410   5.543  14.414
 8965TIP3   OH248385   4.080   4.358   4.034
 8965TIP3    H148386   4.145   4.292   4.006
 8965TIP3    H248387   4.111   4.387   4.119
 8966TIP3   OH248388   6.448   3.732  13.595
 8966TIP3    H148389   6.519   3.676  13.625
 8966TIP3    H248390   6.458   3.734  13.500
 8967TIP3   OH248391   0.456   5.833  16.878
 8967TIP3    H148392   0.389   5.764  16.870
 8967TIP3    H248393   0.525   5.794  16.931
 8968TIP3   OH248394   5.506   2.162  15.081
 8968TIP3    H148395   5.448   2.191  15.151
 8968TIP3    H248396   5.565   2.236  15.066
 8969TIP3   OH248397   0.151   3.130   1.692
 8969TIP3    H148398   0.212   3.184   1.643
 8969TIP3    H248399   0.084   3.191   1.723
 8970TIP3   OH248400   6.181   0.804   1.776
 8970TIP3    H148401   6.152   0.718   1.745
 8970TIP3    H248402   6.191   0.856   1.696
 8971TIP3   OH248403   6.087   3.196   5.181
 8971TIP3    H148404   6.007   3.208   5.130
 8971TIP3    H248405   6.079   3.258   5.253
 8972TIP3   OH248406   6.132   6.005   1.858
 8972TIP3    H148407   6.125   6.055   1.939
 8972TIP3    H248408   6.226   5.988   1.850
 8973TIP3   OH248409   6.671   2.529  16.141
 8973TIP3    H148410   6.740   2.592  16.123
 8973TIP3    H248411   6.693   2.453  16.087
 8974TIP3   OH248412   6.045   5.650   1.271
 8974TIP3    H148413   5.991   5.603   1.335
 8974TIP3    H248414   5.982   5.697   1.217
 8975TIP3   OH248415   5.226   2.765  11.144
 8975TIP3    H148416   5.167   2.815  11.199
 8975TIP3    H248417   5.186   2.769  11.057
 8976TIP3   OH248418   0.703   6.449  16.827
 8976TIP3    H148419   0.692   6.539  16.857
 8976TIP3    H248420   0.614   6.416  16.816
 8977TIP3   OH248421   6.518   5.785   4.165
 8977TIP3    H148422   6.486   5.803   4.253
 8977TIP3    H248423   6.479   5.701   4.141
 8978TIP3   OH248424   3.416   5.780  12.280
 8978TIP3    H148425   3.374   5.852  12.327
 8978TIP3    H248426   3.374   5.781  12.194
 8979TIP3   OH248427   2.376   1.118  11.739
 8979TIP3    H148428   2.460   1.080  11.761
 8979TIP3    H248429   2.317   1.043  11.727
 8980TIP3   OH248430   4.291   0.755  14.322
 8980TIP3    H148431   4.330   0.676  14.358
 8980TIP3    H248432   4.196   0.744  14.334
 8981TIP3   OH248433   5.593   4.448   5.234
 8981TIP3    H148434   5.598   4.354   5.220
 8981TIP3    H248435   5.579   4.458   5.328
 8982TIP3   OH248436   3.097   4.730  17.234
 8982TIP3    H148437   3.058   4.644  17.250
 8982TIP3    H248438   3.112   4.732  17.139
 8983TIP3   OH248439   3.706   0.419  13.191
 8983TIP3    H148440   3.676   0.509  13.200
 8983TIP3    H248441   3.628   0.366  13.208
 8984TIP3   OH248442   6.426   5.757   3.760
 8984TIP3    H148443   6.420   5.790   3.671
 8984TIP3    H248444   6.475   5.675   3.752
 8985TIP3   OH248445   2.858   6.762   4.850
 8985TIP3    H148446   2.856   6.814   4.770
 8985TIP3    H248447   2.881   6.674   4.820
 8986TIP3   OH248448   2.299   5.443   5.072
 8986TIP3    H148449   2.246   5.490   5.136
 8986TIP3    H248450   2.238   5.382   5.030
 8987TIP3   OH248451   1.712   1.292  14.717
 8987TIP3    H148452   1.792   1.239  14.715
 8987TIP3    H248453   1.678   1.279  14.806
 8988TIP3   OH248454   1.092   2.801  11.703
 8988TIP3    H148455   1.123   2.776  11.616
 8988TIP3    H248456   1.102   2.896  11.706
 8989TIP3   OH248457   1.783   6.599  13.043
 8989TIP3    H148458   1.742   6.627  12.961
 8989TIP3    H248459   1.854   6.541  13.016
 8990TIP3   OH248460   3.111   1.412  11.345
 8990TIP3    H148461   3.039   1.467  11.312
 8990TIP3    H248462   3.149   1.373  11.266
 8991TIP3   OH248463   0.132   2.721   1.143
 8991TIP3    H148464   0.151   2.633   1.110
 8991TIP3    H248465   0.096   2.767   1.067
 8992TIP3   OH248466   3.790   4.418   5.697
 8992TIP3    H148467   3.816   4.507   5.671
 8992TIP3    H248468   3.802   4.417   5.792
 8993TIP3   OH248469   6.018   0.725  12.491
 8993TIP3    H148470   6.078   0.683  12.553
 8993TIP3    H248471   5.931   0.696  12.519
 8994TIP3   OH248472   5.892   3.501   2.632
 8994TIP3    H148473   5.835   3.500   2.554
 8994TIP3    H248474   5.835   3.471   2.703
 8995TIP3   OH248475   4.901   6.120   5.967
 8995TIP3    H148476   4.848   6.119   6.047
 8995TIP3    H248477   4.902   6.029   5.938
 8996TIP3   OH248478   2.637   0.082   6.540
 8996TIP3    H148479   2.669   0.111   6.454
 8996TIP3    H248480   2.645   0.159   6.596
 8997TIP3   OH248481   1.730   3.813   5.195
 8997TIP3    H148482   1.824   3.832   5.185
 8997TIP3    H248483   1.720   3.791   5.287
 8998TIP3   OH248484   4.346   0.951   4.527
 8998TIP3    H148485   4.375   0.945   4.618
 8998TIP3    H248486   4.407   1.014   4.488
 8999TIP3   OH248487   6.580   3.026   3.983
 8999TIP3    H148488   6.654   3.021   3.923
 8999TIP3    H248489   6.590   3.110   4.027
 9000TIP3   OH248490   5.521   5.231   0.344
 9000TIP3    H148491   5.471   5.157   0.310
 9000TIP3    H248492   5.454   5.294   0.373
 9001TIP3   OH248493   0.964   1.535   3.080
 9001TIP3    H148494   1.021   1.542   3.156
 9001TIP3    H248495   0.880   1.505   3.115
 9002TIP3   OH248496   5.094   6.573   5.676
 9002TIP3    H148497   5.117   6.500   5.732
 9002TIP3    H248498   5.027   6.621   5.724
 9003TIP3   OH248499   5.116   3.837  14.019
 9003TIP3    H148500   5.192   3.891  14.040
 9003TIP3    H248501   5.151   3.765  13.966
 9004TIP3   OH248502   2.762   0.174   6.306
 9004TIP3    H148503   2.806   0.258   6.321
 9004TIP3    H248504   2.834   0.113   6.289
 9005TIP3   OH248505   3.510   5.762  11.587
 9005TIP3    H148506   3.513   5.722  11.674
 9005TIP3    H248507   3.587   5.727  11.543
 9006TIP3   OH248508   6.661   6.003   4.072
 9006TIP3    H148509   6.743   5.964   4.042
 9006TIP3    H248510   6.609   5.929   4.102
 9007TIP3   OH248511   5.770   4.962  16.144
 9007TIP3    H148512   5.700   4.917  16.098
 9007TIP3    H248513   5.842   4.967  16.081
 9008TIP3   OH248514   4.552   2.976   5.917
 9008TIP3    H148515   4.587   2.912   5.979
 9008TIP3    H248516   4.620   3.043   5.911
 9009TIP3   OH248517   3.797   3.376   0.125
 9009TIP3    H148518   3.876   3.352   0.174
 9009TIP3    H248519   3.760   3.292   0.097
 9010TIP3   OH248520   5.109   4.133  12.352
 9010TIP3    H148521   5.051   4.116  12.426
 9010TIP3    H248522   5.055   4.180  12.289
 9011TIP3   OH248523   5.100   0.854   0.544
 9011TIP3    H148524   5.039   0.781   0.548
 9011TIP3    H248525   5.130   0.856   0.453
 9012TIP3   OH248526   5.150   2.581  15.823
 9012TIP3    H148527   5.154   2.581  15.727
 9012TIP3    H248528   5.056   2.573  15.842
 9013TIP3   OH248529   1.670   0.386   1.254
 9013TIP3    H148530   1.729   0.384   1.329
 9013TIP3    H248531   1.713   0.443   1.191
 9014TIP3   OH248532   1.055   1.160   0.825
 9014TIP3    H148533   1.049   1.065   0.829
 9014TIP3    H248534   1.146   1.178   0.802
 9015TIP3   OH248535   4.507   3.724  11.374
 9015TIP3    H148536   4.576   3.782  11.341
 9015TIP3    H248537   4.548   3.638  11.381
 9016TIP3   OH248538   4.734   0.756  14.677
 9016TIP3    H148539   4.736   0.703  14.597
 9016TIP3    H248540   4.644   0.790  14.681
 9017TIP3   OH248541   0.561   6.074  13.097
 9017TIP3    H148542   0.529   5.990  13.064
 9017TIP3    H248543   0.617   6.051  13.171
 9018TIP3   OH248544   4.430   1.190  15.505
 9018TIP3    H148545   4.496   1.252  15.536
 9018TIP3    H248546   4.430   1.201  15.410
 9019TIP3   OH248547   1.886   5.065   1.967
 9019TIP3    H148548   1.972   5.094   1.998
 9019TIP3    H248549   1.871   5.116   1.887
 9020TIP3   OH248550   2.368   5.975  17.227
 9020TIP3    H148551   2.309   6.032  17.276
 9020TIP3    H248552   2.343   5.988  17.135
 9021TIP3   OH248553   6.283   1.102   0.494
 9021TIP3    H148554   6.269   1.121   0.587
 9021TIP3    H248555   6.377   1.090   0.485
 9022TIP3   OH248556   4.503   6.448   2.051
 9022TIP3    H148557   4.589   6.412   2.072
 9022TIP3    H248558   4.506   6.465   1.957
 9023TIP3   OH248559   0.562   4.961  14.448
 9023TIP3    H148560   0.644   4.926  14.484
 9023TIP3    H248561   0.522   5.007  14.521
 9024TIP3   OH248562   6.650   6.066   2.113
 9024TIP3    H148563   6.715   6.041   2.180
 9024TIP3    H248564   6.681   6.150   2.080
 9025TIP3   OH248565   5.769   6.450   2.072
 9025TIP3    H148566   5.769   6.546   2.066
 9025TIP3    H248567   5.772   6.432   2.166
 9026TIP3   OH248568   5.965   4.473  13.511
 9026TIP3    H148569   5.904   4.399  13.505
 9026TIP3    H248570   6.032   4.454  13.446
 9027TIP3   OH248571   2.156   1.995  11.787
 9027TIP3    H148572   2.188   1.963  11.872
 9027TIP3    H248573   2.123   1.916  11.744
 9028TIP3   OH248574   0.045   3.787  14.794
 9028TIP3    H148575   0.059   3.766  14.702
 9028TIP3    H248576   0.104   3.727  14.841
 9029TIP3   OH248577   5.190   5.882  10.490
 9029TIP3    H148578   5.263   5.860  10.432
 9029TIP3    H248579   5.138   5.802  10.494
 9030TIP3   OH248580   5.322   3.807  16.971
 9030TIP3    H148581   5.316   3.851  16.886
 9030TIP3    H248582   5.384   3.860  17.021
 9031TIP3   OH248583   3.452   2.426  12.016
 9031TIP3    H148584   3.382   2.487  12.038
 9031TIP3    H248585   3.531   2.480  12.013
 9032TIP3   OH248586   6.104   2.095  14.044
 9032TIP3    H148587   6.067   2.137  13.966
 9032TIP3    H248588   6.187   2.057  14.014
 9033TIP3   OH248589   4.420   5.802  11.999
 9033TIP3    H148590   4.434   5.834  12.089
 9033TIP3    H248591   4.478   5.856  11.945
 9034TIP3   OH248592   3.873   3.132   2.097
 9034TIP3    H148593   3.858   3.046   2.138
 9034TIP3    H248594   3.960   3.126   2.059
 9035TIP3   OH248595   3.227   5.140   3.313
 9035TIP3    H148596   3.245   5.099   3.228
 9035TIP3    H248597   3.211   5.232   3.292
 9036TIP3   OH248598   6.678   3.730  16.385
 9036TIP3    H148599   6.640   3.729  16.473
 9036TIP3    H248600   6.622   3.673  16.333
 9037TIP3   OH248601   4.450   4.935  16.614
 9037TIP3    H148602   4.386   4.994  16.572
 9037TIP3    H248603   4.513   4.915  16.545
 9038TIP3   OH248604   1.427   0.049   4.150
 9038TIP3    H148605   1.379   0.073   4.070
 9038TIP3    H248606   1.461  -0.039   4.131
 9039TIP3   OH248607   2.903   4.892   2.521
 9039TIP3    H148608   2.971   4.955   2.497
 9039TIP3    H248609   2.849   4.938   2.585
 9040TIP3   OH248610   3.725   3.380  11.370
 9040TIP3    H148611   3.668   3.456  11.358
 9040TIP3    H248612   3.702   3.321  11.298
 9041TIP3   OH248613   6.095   0.155   5.613
 9041TIP3    H148614   6.120   0.237   5.656
 9041TIP3    H248615   6.000   0.162   5.603
 9042TIP3   OH248616   2.485   6.314  13.612
 9042TIP3    H148617   2.450   6.388  13.562
 9042TIP3    H248618   2.484   6.344  13.703
 9043TIP3   OH248619   2.331   4.994  12.840
 9043TIP3    H148620   2.420   4.975  12.870
 9043TIP3    H248621   2.279   4.994  12.920
 9044TIP3   OH248622   4.901   5.187  11.126
 9044TIP3    H148623   4.843   5.224  11.059
 9044TIP3    H248624   4.937   5.108  11.085
 9045TIP3   OH248625   1.034   2.710  13.163
 9045TIP3    H148626   0.965   2.651  13.132
 9045TIP3    H248627   0.991   2.795  13.170
 9046TIP3   OH248628   4.991   0.971  11.905
 9046TIP3    H148629   5.023   0.946  11.991
 9046TIP3    H248630   4.945   0.893  11.872
 9047TIP3   OH248631   5.010   5.156   2.150
 9047TIP3    H148632   5.018   5.157   2.055
 9047TIP3    H248633   4.982   5.244   2.173
 9048TIP3   OH248634   2.849   5.460  13.874
 9048TIP3    H148635   2.892   5.474  13.958
 9048TIP3    H248636   2.796   5.381  13.887
 9049TIP3   OH248637   1.648   3.335   2.293
 9049TIP3    H148638   1.571   3.356   2.346
 9049TIP3    H248639   1.634   3.245   2.264
 9050TIP3   OH248640   2.637   3.964   4.862
 9050TIP3    H148641   2.583   3.984   4.786
 9050TIP3    H248642   2.726   3.986   4.835
 9051TIP3   OH248643   1.043   2.974   3.017
 9051TIP3    H148644   1.106   3.013   2.957
 9051TIP3    H248645   1.000   3.049   3.059
 9052TIP3   OH248646   4.570   6.102  13.153
 9052TIP3    H148647   4.588   6.140  13.239
 9052TIP3    H248648   4.476   6.115  13.140
 9053TIP3   OH248649   0.463   4.869   5.678
 9053TIP3    H148650   0.458   4.932   5.750
 9053TIP3    H248651   0.507   4.793   5.714
 9054TIP3   OH248652   4.227   4.406   0.775
 9054TIP3    H148653   4.245   4.338   0.711
 9054TIP3    H248654   4.225   4.360   0.859
 9055TIP3   OH248655   4.702   4.978  12.687
 9055TIP3    H148656   4.709   5.040  12.616
 9055TIP3    H248657   4.652   5.024  12.755
 9056TIP3   OH248658   2.987   0.291  15.866
 9056TIP3    H148659   2.993   0.376  15.911
 9056TIP3    H248660   2.935   0.309  15.788
 9057TIP3   OH248661   5.121   5.924  16.134
 9057TIP3    H148662   5.089   5.908  16.045
 9057TIP3    H248663   5.091   6.012  16.155
 9058TIP3   OH248664   2.099   4.959  11.971
 9058TIP3    H148665   2.005   4.945  11.986
 9058TIP3    H248666   2.130   4.999  12.052
 9059TIP3   OH248667   1.495   0.697  11.639
 9059TIP3    H148668   1.513   0.705  11.733
 9059TIP3    H248669   1.401   0.683  11.634
 9060TIP3   OH248670   2.075   4.808  11.193
 9060TIP3    H148671   2.099   4.892  11.233
 9060TIP3    H248672   2.049   4.831  11.104
 9061TIP3   OH248673   2.843   4.145   5.443
 9061TIP3    H148674   2.798   4.064   5.421
 9061TIP3    H248675   2.932   4.117   5.465
 9062TIP3   OH248676   6.028   2.886   2.733
 9062TIP3    H148677   5.976   2.813   2.766
 9062TIP3    H248678   6.118   2.854   2.734
 9063TIP3   OH248679   0.260   2.078   4.722
 9063TIP3    H148680   0.175   2.036   4.715
 9063TIP3    H248681   0.266   2.132   4.643
 9064TIP3   OH248682   5.229   5.431  12.688
 9064TIP3    H148683   5.149   5.457  12.643
 9064TIP3    H248684   5.284   5.394  12.618
 9065TIP3   OH248685   0.056   1.110   3.720
 9065TIP3    H148686   0.117   1.183   3.718
 9065TIP3    H248687   0.018   1.114   3.808
 9066TIP3   OH248688   4.908   0.880  12.948
 9066TIP3    H148689   4.872   0.929  12.874
 9066TIP3    H248690   5.002   0.879  12.933
 9067TIP3   OH248691   2.218   1.081   2.252
 9067TIP3    H148692   2.286   1.026   2.292
 9067TIP3    H248693   2.255   1.105   2.166
 9068TIP3   OH248694   6.485   0.935  12.679
 9068TIP3    H148695   6.436   0.963  12.602
 9068TIP3    H248696   6.556   0.882  12.644
 9069TIP3   OH248697   4.858   1.961  14.287
 9069TIP3    H148698   4.890   2.050  14.302
 9069TIP3    H248699   4.833   1.930  14.374
 9070TIP3   OH248700   4.325   4.304   6.210
 9070TIP3    H148701   4.258   4.318   6.144
 9070TIP3    H248702   4.280   4.317   6.294
 9071TIP3   OH248703   4.712   1.780  11.530
 9071TIP3    H148704   4.740   1.707  11.475
 9071TIP3    H248705   4.632   1.749  11.573
 9072TIP3   OH248706   0.552   1.161   4.130
 9072TIP3    H148707   0.525   1.098   4.197
 9072TIP3    H248708   0.646   1.172   4.144
 9073TIP3   OH248709   4.090   6.430   4.350
 9073TIP3    H148710   4.161   6.473   4.303
 9073TIP3    H248711   4.014   6.486   4.336
 9074TIP3   OH248712   3.842   0.096   0.674
 9074TIP3    H148713   3.766   0.131   0.627
 9074TIP3    H248714   3.863   0.015   0.628
 9075TIP3   OH248715   2.842   2.480   0.568
 9075TIP3    H148716   2.761   2.429   0.576
 9075TIP3    H248717   2.826   2.539   0.494
 9076TIP3   OH248718   6.724   6.291  12.951
 9076TIP3    H148719   6.804   6.344  12.946
 9076TIP3    H248720   6.659   6.349  12.989
 9077TIP3   OH248721   1.178   5.998   4.649
 9077TIP3    H148722   1.124   6.003   4.727
 9077TIP3    H248723   1.216   6.086   4.640
 9078TIP3   OH248724   5.806   0.297  14.012
 9078TIP3    H148725   5.719   0.256  14.017
 9078TIP3    H248726   5.867   0.227  14.036
 9079TIP3   OH248727   3.122   3.689   5.712
 9079TIP3    H148728   3.141   3.682   5.805
 9079TIP3    H248729   3.044   3.743   5.707
 9080TIP3   OH248730   2.636   6.425   3.035
 9080TIP3    H148731   2.619   6.467   2.951
 9080TIP3    H248732   2.713   6.371   3.020
 9081TIP3   OH248733   1.737   3.373  12.162
 9081TIP3    H148734   1.658   3.403  12.206
 9081TIP3    H248735   1.753   3.286  12.198
 9082TIP3   OH248736   2.375   2.915   5.862
 9082TIP3    H148737   2.303   2.931   5.923
 9082TIP3    H248738   2.378   2.819   5.853
 9083TIP3   OH248739   0.274   2.083   4.431
 9083TIP3    H148740   0.369   2.084   4.446
 9083TIP3    H248741   0.265   2.106   4.338
 9084TIP3   OH248742   4.585   1.458   5.762
 9084TIP3    H148743   4.670   1.416   5.748
 9084TIP3    H248744   4.531   1.389   5.801
 9085TIP3   OH248745   3.330   2.728  13.343
 9085TIP3    H148746   3.273   2.749  13.416
 9085TIP3    H248747   3.271   2.699  13.273
 9086TIP3   OH248748   2.028   3.378   4.151
 9086TIP3    H148749   2.064   3.454   4.196
 9086TIP3    H248750   2.072   3.303   4.190
 9087TIP3   OH248751   4.353   5.584  13.224
 9087TIP3    H148752   4.337   5.517  13.291
 9087TIP3    H248753   4.448   5.596  13.224
 9088TIP3   OH248754   1.096   4.170  17.008
 9088TIP3    H148755   1.023   4.196  17.064
 9088TIP3    H248756   1.061   4.100  16.953
 9089TIP3   OH248757   3.759   5.729   0.895
 9089TIP3    H148758   3.766   5.709   0.989
 9089TIP3    H248759   3.820   5.801   0.881
 9090TIP3   OH248760   4.636   1.372  17.072
 9090TIP3    H148761   4.621   1.348  17.163
 9090TIP3    H248762   4.686   1.453  17.076
 9091TIP3   OH248763   4.428   2.965   5.686
 9091TIP3    H148764   4.395   2.875   5.682
 9091TIP3    H248765   4.469   2.971   5.772
 9092TIP3   OH248766   3.967   2.329   4.628
 9092TIP3    H148767   4.015   2.289   4.701
 9092TIP3    H248768   4.003   2.417   4.620
 9093TIP3   OH248769   2.602   2.332   5.804
 9093TIP3    H148770   2.668   2.387   5.847
 9093TIP3    H248771   2.638   2.244   5.807
 9094TIP3   OH248772   0.036   2.013  12.542
 9094TIP3    H148773   0.010   1.946  12.478
 9094TIP3    H248774   0.119   1.981  12.578
 9095TIP3   OH248775   0.049   4.933   2.069
 9095TIP3    H148776  -0.035   4.978   2.057
 9095TIP3    H248777   0.030   4.864   2.132
 9096TIP3   OH248778   0.627   6.217  15.152
 9096TIP3    H148779   0.645   6.140  15.099
 9096TIP3    H248780   0.713   6.244  15.185
 9097TIP3   OH248781   3.131   1.757   5.102
 9097TIP3    H148782   3.138   1.663   5.117
 9097TIP3    H248783   3.036   1.774   5.097
 9098TIP3   OH248784   3.159   0.643   5.387
 9098TIP3    H148785   3.154   0.554   5.351
 9098TIP3    H248786   3.205   0.693   5.319
 9099TIP3   OH248787   6.320   5.373  14.097
 9099TIP3    H148788   6.360   5.323  14.026
 9099TIP3    H248789   6.345   5.326  14.177
 9100TIP3   OH248790   5.828   6.628   4.546
 9100TIP3    H148791   5.767   6.622   4.473
 9100TIP3    H248792   5.801   6.706   4.594
 9101TIP3   OH248793   2.762   4.266  16.535
 9101TIP3    H148794   2.747   4.171  16.531
 9101TIP3    H248795   2.745   4.289  16.626
 9102TIP3   OH248796   4.106   3.318   3.680
 9102TIP3    H148797   4.115   3.385   3.612
 9102TIP3    H248798   4.104   3.235   3.631
 9103TIP3   OH248799   6.133   3.348  15.461
 9103TIP3    H148800   6.138   3.382  15.372
 9103TIP3    H248801   6.040   3.351  15.483
 9104TIP3   OH248802   1.311   0.066   3.884
 9104TIP3    H148803   1.391   0.013   3.881
 9104TIP3    H248804   1.298   0.093   3.793
 9105TIP3   OH248805   5.395   0.430   3.041
 9105TIP3    H148806   5.349   0.405   2.961
 9105TIP3    H248807   5.487   0.427   3.018
 9106TIP3   OH248808   6.577   4.774   0.917
 9106TIP3    H148809   6.497   4.820   0.942
 9106TIP3    H248810   6.564   4.685   0.949
 9107TIP3   OH248811   5.015   6.794   3.588
 9107TIP3    H148812   5.012   6.888   3.601
 9107TIP3    H248813   5.045   6.758   3.671
 9108TIP3   OH248814   2.794   6.416  15.946
 9108TIP3    H148815   2.844   6.434  15.866
 9108TIP3    H248816   2.786   6.321  15.948
 9109TIP3   OH248817   5.832   4.733  12.631
 9109TIP3    H148818   5.759   4.761  12.575
 9109TIP3    H248819   5.881   4.671  12.577
 9110TIP3   OH248820   0.512   5.986   3.212
 9110TIP3    H148821   0.433   6.036   3.232
 9110TIP3    H248822   0.483   5.921   3.147
 9111TIP3   OH248823   3.256   3.206  11.376
 9111TIP3    H148824   3.350   3.192  11.382
 9111TIP3    H248825   3.243   3.244  11.288
 9112TIP3   OH248826   3.567   5.424  15.465
 9112TIP3    H148827   3.514   5.403  15.542
 9112TIP3    H248828   3.514   5.395  15.391
 9113TIP3   OH248829   0.018   5.090  14.610
 9113TIP3    H148830  -0.031   5.039  14.674
 9113TIP3    H248831   0.077   5.027  14.568
 9114TIP3   OH248832   1.834   4.791  11.554
 9114TIP3    H148833   1.927   4.775  11.540
 9114TIP3    H248834   1.809   4.853  11.486
 9115TIP3   OH248835   5.185   1.298  11.754
 9115TIP3    H148836   5.209   1.345  11.835
 9115TIP3    H248837   5.091   1.285  11.762
 9116TIP3   OH248838   6.638   4.391  13.572
 9116TIP3    H148839   6.605   4.341  13.647
 9116TIP3    H248840   6.593   4.352  13.496
 9117TIP3   OH248841   4.432   2.199   5.741
 9117TIP3    H148842   4.349   2.151   5.751
 9117TIP3    H248843   4.497   2.130   5.724
 9118TIP3   OH248844   0.498   4.414   2.382
 9118TIP3    H148845   0.451   4.497   2.388
 9118TIP3    H248846   0.590   4.437   2.393
 9119TIP3   OH248847   2.960   3.782  12.965
 9119TIP3    H148848   3.049   3.815  12.970
 9119TIP3    H248849   2.953   3.720  13.038
 9120TIP3   OH248850   6.061   5.973   0.022
 9120TIP3    H148851   5.970   5.970  -0.009
 9120TIP3    H248852   6.055   5.953   0.116
 9121TIP3   OH248853   5.279   2.077  11.735
 9121TIP3    H148854   5.238   2.151  11.689
 9121TIP3    H248855   5.337   2.038  11.671
 9122TIP3   OH248856   6.609   2.542   5.593
 9122TIP3    H148857   6.656   2.460   5.606
 9122TIP3    H248858   6.596   2.576   5.681
 9123TIP3   OH248859   4.758   5.846  17.064
 9123TIP3    H148860   4.829   5.783  17.053
 9123TIP3    H248861   4.768   5.908  16.992
 9124TIP3   OH248862   2.668   4.999  14.024
 9124TIP3    H148863   2.607   5.020  14.094
 9124TIP3    H248864   2.754   4.995  14.066
 9125TIP3   OH248865   5.568   0.170  16.073
 9125TIP3    H148866   5.503   0.155  16.141
 9125TIP3    H248867   5.640   0.214  16.118
 9126TIP3   OH248868   5.941   4.013  16.837
 9126TIP3    H148869   6.006   3.994  16.770
 9126TIP3    H248870   5.977   4.087  16.885
 9127TIP3   OH248871   2.502   1.177   2.793
 9127TIP3    H148872   2.592   1.145   2.795
 9127TIP3    H248873   2.486   1.198   2.701
 9128TIP3   OH248874   1.117   0.257  11.604
 9128TIP3    H148875   1.174   0.232  11.677
 9128TIP3    H248876   1.140   0.197  11.533
 9129TIP3   OH248877   4.729   4.694   0.062
 9129TIP3    H148878   4.650   4.693   0.008
 9129TIP3    H248879   4.700   4.660   0.147
 9130TIP3   OH248880   6.419   6.177  13.989
 9130TIP3    H148881   6.446   6.242  13.924
 9130TIP3    H248882   6.394   6.229  14.066
 9131TIP3   OH248883   4.442   2.964  13.123
 9131TIP3    H148884   4.445   3.045  13.073
 9131TIP3    H248885   4.518   2.969  13.182
 9132TIP3   OH248886   6.163   3.401   0.183
 9132TIP3    H148887   6.114   3.471   0.139
 9132TIP3    H248888   6.137   3.321   0.137
 9133TIP3   OH248889   2.412   1.701  14.780
 9133TIP3    H148890   2.362   1.645  14.839
 9133TIP3    H248891   2.410   1.788  14.821
 9134TIP3   OH248892   2.706   5.690   5.014
 9134TIP3    H148893   2.714   5.783   5.033
 9134TIP3    H248894   2.615   5.677   4.989
 9135TIP3   OH248895   4.214   3.802   6.414
 9135TIP3    H148896   4.258   3.745   6.351
 9135TIP3    H248897   4.208   3.749   6.494
 9136TIP3   OH248898   3.912   4.369  13.502
 9136TIP3    H148899   3.864   4.399  13.579
 9136TIP3    H248900   3.881   4.279  13.489
 9137TIP3   OH248901   2.743   3.699  15.950
 9137TIP3    H148902   2.668   3.709  16.009
 9137TIP3    H248903   2.777   3.612  15.969
 9138TIP3   OH248904   5.887   6.527  14.433
 9138TIP3    H148905   5.946   6.499  14.363
 9138TIP3    H248906   5.839   6.601  14.396
 9139TIP3   OH248907   2.714   6.352   0.178
 9139TIP3    H148908   2.765   6.353   0.097
 9139TIP3    H248909   2.655   6.277   0.169
 9140TIP3   OH248910   2.039   1.861   3.579
 9140TIP3    H148911   2.013   1.949   3.605
 9140TIP3    H248912   2.092   1.829   3.652
 9141TIP3   OH248913   5.828   2.791  14.794
 9141TIP3    H148914   5.828   2.805  14.888
 9141TIP3    H248915   5.745   2.746  14.776
 9142TIP3   OH248916   0.615   3.698  13.052
 9142TIP3    H148917   0.540   3.651  13.016
 9142TIP3    H248918   0.611   3.785  13.012
 9143TIP3   OH248919   6.350   5.872  11.736
 9143TIP3    H148920   6.279   5.877  11.672
 9143TIP3    H248921   6.397   5.955  11.727
 9144TIP3   OH248922   2.579   3.262  13.404
 9144TIP3    H148923   2.655   3.207  13.382
 9144TIP3    H248924   2.550   3.297  13.319
 9145TIP3   OH248925   0.710   2.645  16.434
 9145TIP3    H148926   0.625   2.643  16.389
 9145TIP3    H248927   0.688   2.658  16.526
 9146TIP3   OH248928   1.412   2.934  15.298
 9146TIP3    H148929   1.477   2.999  15.270
 9146TIP3    H248930   1.337   2.948  15.240
 9147TIP3   OH248931   0.618   0.833   4.903
 9147TIP3    H148932   0.713   0.825   4.913
 9147TIP3    H248933   0.582   0.792   4.981
 9148TIP3   OH248934   0.105   2.224  12.965
 9148TIP3    H148935   0.139   2.158  12.904
 9148TIP3    H248936   0.104   2.305  12.915
 9149TIP3   OH248937   4.378   2.271   3.679
 9149TIP3    H148938   4.382   2.235   3.767
 9149TIP3    H248939   4.442   2.221   3.629
 9150TIP3   OH248940   3.014   2.832  15.932
 9150TIP3    H148941   3.091   2.839  15.876
 9150TIP3    H248942   2.943   2.807  15.871
 9151TIP3   OH248943   3.803   2.989   5.033
 9151TIP3    H148944   3.842   2.907   5.003
 9151TIP3    H248945   3.809   3.047   4.958
 9152TIP3   OH248946   5.825   6.721  11.444
 9152TIP3    H148947   5.741   6.678  11.460
 9152TIP3    H248948   5.804   6.815  11.439
 9153TIP3   OH248949   1.138   2.092  13.757
 9153TIP3    H148950   1.160   2.162  13.819
 9153TIP3    H248951   1.085   2.031  13.807
 9154TIP3   OH248952   2.607   6.387   3.502
 9154TIP3    H148953   2.553   6.309   3.492
 9154TIP3    H248954   2.591   6.416   3.592
 9155TIP3   OH248955   0.982   5.849   0.172
 9155TIP3    H148956   0.965   5.943   0.172
 9155TIP3    H248957   0.935   5.816   0.095
 9156TIP3   OH248958   5.246   2.501  14.285
 9156TIP3    H148959   5.290   2.462  14.210
 9156TIP3    H248960   5.272   2.446  14.359
 9157TIP3   OH248961   5.102   1.479   4.365
 9157TIP3    H148962   5.013   1.448   4.383
 9157TIP3    H248963   5.136   1.505   4.450
 9158TIP3   OH248964   5.163   3.313   1.351
 9158TIP3    H148965   5.161   3.247   1.281
 9158TIP3    H248966   5.247   3.298   1.395
 9159TIP3   OH248967   1.274   0.362   3.928
 9159TIP3    H148968   1.246   0.304   3.857
 9159TIP3    H248969   1.224   0.333   4.004
 9160TIP3   OH248970   2.630   6.441  12.235
 9160TIP3    H148971   2.600   6.485  12.314
 9160TIP3    H248972   2.587   6.488  12.164
 9161TIP3   OH248973   1.425   0.411   4.434
 9161TIP3    H148974   1.346   0.425   4.381
 9161TIP3    H248975   1.408   0.457   4.516
 9162TIP3   OH248976   1.999   2.958   6.514
 9162TIP3    H148977   2.012   2.871   6.550
 9162TIP3    H248978   1.904   2.969   6.510
 9163TIP3   OH248979   2.945   0.320   5.388
 9163TIP3    H148980   2.920   0.412   5.391
 9163TIP3    H248981   2.866   0.272   5.411
 9164TIP3   OH248982   4.978   5.307  14.222
 9164TIP3    H148983   4.968   5.239  14.289
 9164TIP3    H248984   4.907   5.369  14.240
 9165TIP3   OH248985   0.332   6.272   1.748
 9165TIP3    H148986   0.292   6.186   1.757
 9165TIP3    H248987   0.274   6.331   1.798
 9166TIP3   OH248988   0.585   5.302   1.798
 9166TIP3    H148989   0.679   5.291   1.782
 9166TIP3    H248990   0.574   5.395   1.818
 9167TIP3   OH248991   3.052   2.695  13.825
 9167TIP3    H148992   3.016   2.772  13.868
 9167TIP3    H248993   2.981   2.631  13.824
 9168TIP3   OH248994   0.818   5.472   0.296
 9168TIP3    H148995   0.831   5.420   0.217
 9168TIP3    H248996   0.829   5.410   0.368
 9169TIP3   OH248997   6.267   4.803   0.558
 9169TIP3    H148998   6.324   4.839   0.490
 9169TIP3    H248999   6.301   4.715   0.573
 9170TIP3   OH249000   3.412   0.879  16.872
 9170TIP3    H149001   3.360   0.799  16.879
 9170TIP3    H249002   3.360   0.936  16.816
 9171TIP3   OH249003   5.791   0.880  16.130
 9171TIP3    H149004   5.798   0.787  16.106
 9171TIP3    H249005   5.751   0.921  16.053
 9172TIP3   OH249006   1.527   4.228   6.087
 9172TIP3    H149007   1.497   4.187   6.006
 9172TIP3    H249008   1.588   4.164   6.125
 9173TIP3   OH249009   5.821   6.741  13.205
 9173TIP3    H149010   5.849   6.687  13.279
 9173TIP3    H249011   5.808   6.828  13.243
 9174TIP3   OH249012   6.447   2.234   2.205
 9174TIP3    H149013   6.351   2.228   2.197
 9174TIP3    H249014   6.467   2.325   2.183
 9175TIP3   OH249015   4.956   0.449  14.627
 9175TIP3    H149016   5.028   0.392  14.600
 9175TIP3    H249017   4.991   0.538  14.617
 9176TIP3   OH249018   4.528   0.853  15.594
 9176TIP3    H149019   4.454   0.908  15.620
 9176TIP3    H249020   4.548   0.801  15.672
 9177TIP3   OH249021   0.349   2.255  10.753
 9177TIP3    H149022   0.420   2.290  10.807
 9177TIP3    H249023   0.299   2.333  10.727
 9178TIP3   OH249024   4.842   0.524  11.940
 9178TIP3    H149025   4.759   0.522  11.988
 9178TIP3    H249026   4.852   0.435  11.906
 9179TIP3   OH249027   3.650   2.304   0.749
 9179TIP3    H149028   3.597   2.231   0.780
 9179TIP3    H249029   3.719   2.313   0.814
 9180TIP3   OH249030   3.217   2.906  11.894
 9180TIP3    H149031   3.122   2.896  11.881
 9180TIP3    H249032   3.243   2.827  11.942
 9181TIP3   OH249033   1.323   3.131   1.445
 9181TIP3    H149034   1.350   3.172   1.528
 9181TIP3    H249035   1.403   3.127   1.393
 9182TIP3   OH249036   0.730   1.730  13.388
 9182TIP3    H149037   0.769   1.737  13.301
 9182TIP3    H249038   0.785   1.667  13.434
 9183TIP3   OH249039   4.229   3.430   4.704
 9183TIP3    H149040   4.253   3.407   4.794
 9183TIP3    H249041   4.215   3.524   4.707
 9184TIP3   OH249042   2.304   3.287   2.339
 9184TIP3    H149043   2.338   3.278   2.428
 9184TIP3    H249044   2.222   3.334   2.348
 9185TIP3   OH249045   0.331   4.590   4.449
 9185TIP3    H149046   0.334   4.652   4.377
 9185TIP3    H249047   0.315   4.505   4.408
 9186TIP3   OH249048   4.527   1.204  14.077
 9186TIP3    H149049   4.575   1.122  14.066
 9186TIP3    H249050   4.595   1.267  14.102
 9187TIP3   OH249051   0.316   1.803  13.527
 9187TIP3    H149052   0.304   1.897  13.536
 9187TIP3    H249053   0.263   1.765  13.597
 9188TIP3   OH249054   3.137   3.525   0.544
 9188TIP3    H149055   3.148   3.521   0.449
 9188TIP3    H249056   3.044   3.505   0.558
 9189TIP3   OH249057   3.157   0.300  12.141
 9189TIP3    H149058   3.208   0.319  12.063
 9189TIP3    H249059   3.180   0.369  12.203
 9190TIP3   OH249060   5.551   0.094   1.482
 9190TIP3    H149061   5.496   0.125   1.409
 9190TIP3    H249062   5.565   0.002   1.463
 9191TIP3   OH249063   0.234   5.502  15.228
 9191TIP3    H149064   0.226   5.510  15.133
 9191TIP3    H249065   0.307   5.560  15.250
 9192TIP3   OH249066   6.359   4.803   4.473
 9192TIP3    H149067   6.344   4.720   4.518
 9192TIP3    H249068   6.453   4.820   4.485
 9193TIP3   OH249069   2.108   2.120   2.927
 9193TIP3    H149070   2.104   2.215   2.934
 9193TIP3    H249071   2.189   2.096   2.973
 9194TIP3   OH249072   1.413   6.361  11.670
 9194TIP3    H149073   1.403   6.423  11.598
 9194TIP3    H249074   1.388   6.276  11.632
 9195TIP3   OH249075   5.455   1.392   0.266
 9195TIP3    H149076   5.508   1.469   0.245
 9195TIP3    H249077   5.366   1.418   0.241
 9196TIP3   OH249078   2.044   5.309   5.663
 9196TIP3    H149079   2.061   5.283   5.754
 9196TIP3    H249080   1.954   5.280   5.646
 9197TIP3   OH249081   1.723   1.610  15.403
 9197TIP3    H149082   1.630   1.588  15.411
 9197TIP3    H249083   1.732   1.693  15.449
 9198TIP3   OH249084   1.822   3.853  16.122
 9198TIP3    H149085   1.880   3.776  16.124
 9198TIP3    H249086   1.842   3.900  16.202
 9199TIP3   OH249087   0.721   6.582  15.722
 9199TIP3    H149088   0.667   6.508  15.752
 9199TIP3    H249089   0.747   6.558  15.633
 9200TIP3   OH249090   5.241   3.067   2.735
 9200TIP3    H149091   5.274   2.999   2.677
 9200TIP3    H249092   5.160   3.032   2.771
 9201TIP3   OH249093   3.085   6.026  16.906
 9201TIP3    H149094   3.013   6.076  16.945
 9201TIP3    H249095   3.086   6.052  16.814
 9202TIP3   OH249096   5.680   3.128  14.470
 9202TIP3    H149097   5.629   3.067  14.416
 9202TIP3    H249098   5.639   3.125  14.556
 9203TIP3   OH249099   5.614   2.593   3.057
 9203TIP3    H149100   5.700   2.559   3.032
 9203TIP3    H249101   5.577   2.628   2.976
 9204TIP3   OH249102   4.601   1.221   5.474
 9204TIP3    H149103   4.662   1.239   5.545
 9204TIP3    H249104   4.525   1.275   5.494
 9205TIP3   OH249105   4.971   0.137  12.624
 9205TIP3    H149106   4.903   0.205  12.628
 9205TIP3    H249107   5.009   0.136  12.712
 9206TIP3   OH249108   1.083   5.149  16.870
 9206TIP3    H149109   1.127   5.074  16.830
 9206TIP3    H249110   0.990   5.125  16.871
 9207TIP3   OH249111   4.422   2.199  12.746
 9207TIP3    H149112   4.451   2.137  12.680
 9207TIP3    H249113   4.427   2.151  12.829
 9208TIP3   OH249114   3.707   5.459   3.030
 9208TIP3    H149115   3.636   5.407   2.994
 9208TIP3    H249116   3.772   5.463   2.960
 9209TIP3   OH249117   0.390   3.327  15.385
 9209TIP3    H149118   0.432   3.246  15.413
 9209TIP3    H249119   0.330   3.349  15.456
 9210TIP3   OH249120   1.470   3.965   0.192
 9210TIP3    H149121   1.379   3.990   0.177
 9210TIP3    H249122   1.511   3.970   0.106
 9211TIP3   OH249123   3.475   5.295   2.498
 9211TIP3    H149124   3.501   5.242   2.423
 9211TIP3    H249125   3.436   5.232   2.559
 9212TIP3   OH249126   1.527   2.693  15.388
 9212TIP3    H149127   1.535   2.699  15.484
 9212TIP3    H249128   1.510   2.783  15.360
 9213TIP3   OH249129   3.295   3.868  12.724
 9213TIP3    H149130   3.279   3.962  12.731
 9213TIP3    H249131   3.225   3.835  12.667
 9214TIP3   OH249132   1.902   0.716  11.061
 9214TIP3    H149133   1.916   0.622  11.074
 9214TIP3    H249134   1.891   0.725  10.966
 9215TIP3   OH249135   3.057   6.185  12.449
 9215TIP3    H149136   3.133   6.198  12.392
 9215TIP3    H249137   3.000   6.260  12.431
 9216TIP3   OH249138   6.289   6.570  11.581
 9216TIP3    H149139   6.200   6.585  11.549
 9216TIP3    H249140   6.294   6.619  11.663
 9217TIP3   OH249141   2.667   4.888  12.037
 9217TIP3    H149142   2.666   4.977  12.074
 9217TIP3    H249143   2.747   4.885  11.985
 9218TIP3   OH249144   3.834   5.057  11.778
 9218TIP3    H149145   3.814   5.077  11.687
 9218TIP3    H249146   3.892   4.980  11.773
 9219TIP3   OH249147   2.951   5.465   3.891
 9219TIP3    H149148   2.999   5.538   3.850
 9219TIP3    H249149   2.987   5.387   3.850
 9220TIP3   OH249150   6.310   6.686   2.686
 9220TIP3    H149151   6.299   6.778   2.711
 9220TIP3    H249152   6.405   6.674   2.680
 9221TIP3   OH249153   5.699   6.430  10.895
 9221TIP3    H149154   5.786   6.459  10.868
 9221TIP3    H249155   5.642   6.504  10.876
 9222TIP3   OH249156   0.505   5.382   2.913
 9222TIP3    H149157   0.438   5.328   2.872
 9222TIP3    H249158   0.506   5.463   2.862
 9223TIP3   OH249159   5.259   3.114   2.128
 9223TIP3    H149160   5.317   3.078   2.196
 9223TIP3    H249161   5.307   3.102   2.046
 9224TIP3   OH249162   5.991   2.493   1.483
 9224TIP3    H149163   6.085   2.493   1.497
 9224TIP3    H249164   5.967   2.401   1.481
 9225TIP3   OH249165   1.003   3.849   4.946
 9225TIP3    H149166   1.056   3.885   5.017
 9225TIP3    H249167   1.064   3.838   4.874
 9226TIP3   OH249168   1.619   0.819   4.185
 9226TIP3    H149169   1.627   0.837   4.279
 9226TIP3    H249170   1.559   0.745   4.179
 9227TIP3   OH249171   0.065   5.868  10.867
 9227TIP3    H149172   0.063   5.773  10.871
 9227TIP3    H249173   0.150   5.889  10.827
 9228TIP3   OH249174   2.603   3.688   0.845
 9228TIP3    H149175   2.574   3.766   0.798
 9228TIP3    H249176   2.633   3.628   0.777
 9229TIP3   OH249177   0.632   3.492  13.420
 9229TIP3    H149178   0.721   3.494  13.383
 9229TIP3    H249179   0.600   3.582  13.411
 9230TIP3   OH249180   6.619   1.635  15.912
 9230TIP3    H149181   6.605   1.540  15.916
 9230TIP3    H249182   6.624   1.654  15.818
 9231TIP3   OH249183   0.457   1.516  13.689
 9231TIP3    H149184   0.428   1.537  13.600
 9231TIP3    H249185   0.385   1.545  13.745
 9232TIP3   OH249186   5.138   4.155  15.575
 9232TIP3    H149187   5.217   4.141  15.627
 9232TIP3    H249188   5.163   4.222  15.511
 9233TIP3   OH249189   5.635   4.614   4.096
 9233TIP3    H149190   5.606   4.531   4.059
 9233TIP3    H249191   5.691   4.589   4.170
 9234TIP3   OH249192   1.468   3.388  15.327
 9234TIP3    H149193   1.398   3.444  15.363
 9234TIP3    H249194   1.522   3.365  15.403
 9235TIP3   OH249195   5.801   2.789  15.069
 9235TIP3    H149196   5.788   2.709  15.120
 9235TIP3    H249197   5.739   2.852  15.105
 9236TIP3   OH249198   1.089   0.881   1.066
 9236TIP3    H149199   1.065   0.855   1.155
 9236TIP3    H249200   1.009   0.867   1.014
 9237TIP3   OH249201   2.437   0.279   3.516
 9237TIP3    H149202   2.371   0.219   3.551
 9237TIP3    H249203   2.485   0.227   3.451
 9238TIP3   OH249204   1.864   5.865  16.843
 9238TIP3    H149205   1.784   5.894  16.886
 9238TIP3    H249206   1.835   5.794  16.785
 9239TIP3   OH249207   0.121   1.066   0.442
 9239TIP3    H149208   0.073   0.995   0.401
 9239TIP3    H249209   0.214   1.044   0.429
 9240TIP3   OH249210   0.739   5.923  13.543
 9240TIP3    H149211   0.692   5.997  13.582
 9240TIP3    H249212   0.742   5.857  13.612
 9241TIP3   OH249213   2.315   1.022   1.937
 9241TIP3    H149214   2.402   1.060   1.951
 9241TIP3    H249215   2.277   1.075   1.867
 9242TIP3   OH249216   6.700   1.199   3.013
 9242TIP3    H149217   6.716   1.148   2.933
 9242TIP3    H249218   6.766   1.268   3.010
 9243TIP3   OH249219   0.183   4.423  14.414
 9243TIP3    H149220   0.172   4.405  14.321
 9243TIP3    H249221   0.235   4.350  14.447
 9244TIP3   OH249222   6.629   1.375  13.745
 9244TIP3    H149223   6.553   1.319  13.761
 9244TIP3    H249224   6.683   1.326  13.683
 9245TIP3   OH249225   1.388   2.380  11.675
 9245TIP3    H149226   1.326   2.444  11.710
 9245TIP3    H249227   1.336   2.302  11.660
 9246TIP3   OH249228   6.354   5.961   1.505
 9246TIP3    H149229   6.394   5.880   1.536
 9246TIP3    H249230   6.314   5.937   1.421
 9247TIP3   OH249231   3.202   2.830   2.771
 9247TIP3    H149232   3.217   2.741   2.739
 9247TIP3    H249233   3.253   2.835   2.852
 9248TIP3   OH249234   0.676   1.807  15.117
 9248TIP3    H149235   0.591   1.813  15.159
 9248TIP3    H249236   0.669   1.863  15.040
 9249TIP3   OH249237   2.001   6.302  11.464
 9249TIP3    H149238   1.939   6.373  11.450
 9249TIP3    H249239   1.963   6.250  11.536
 9250TIP3   OH249240   0.409   6.638   3.378
 9250TIP3    H149241   0.480   6.695   3.348
 9250TIP3    H249242   0.357   6.693   3.436
 9251TIP3   OH249243   2.578   3.891  14.731
 9251TIP3    H149244   2.618   3.970  14.769
 9251TIP3    H249245   2.484   3.909  14.734
 9252TIP3   OH249246   3.492   4.794  15.484
 9252TIP3    H149247   3.413   4.747  15.510
 9252TIP3    H249248   3.462   4.861  15.422
 9253TIP3   OH249249   3.883   2.735  16.682
 9253TIP3    H149250   3.941   2.660  16.697
 9253TIP3    H249251   3.862   2.731  16.589
 9254TIP3   OH249252   0.765   6.247   2.582
 9254TIP3    H149253   0.697   6.180   2.590
 9254TIP3    H249254   0.846   6.202   2.603
 9255TIP3   OH249255   6.510   6.156  13.124
 9255TIP3    H149256   6.437   6.189  13.071
 9255TIP3    H249257   6.588   6.193  13.082
 9256TIP3   OH249258   2.258   6.243   0.340
 9256TIP3    H149259   2.167   6.271   0.346
 9256TIP3    H249260   2.306   6.322   0.314
 9257TIP3   OH249261   2.097   5.051   1.381
 9257TIP3    H149262   2.173   5.088   1.425
 9257TIP3    H249263   2.129   4.970   1.341
 9258TIP3   OH249264   3.791   3.801  14.428
 9258TIP3    H149265   3.713   3.803  14.484
 9258TIP3    H249266   3.772   3.731  14.365
 9259TIP3   OH249267   5.785   3.572   6.078
 9259TIP3    H149268   5.843   3.521   6.134
 9259TIP3    H249269   5.822   3.660   6.078
 9260TIP3   OH249270   1.800   4.274   4.694
 9260TIP3    H149271   1.735   4.336   4.661
 9260TIP3    H249272   1.750   4.196   4.718
 9261TIP3   OH249273   4.198   1.806  11.532
 9261TIP3    H149274   4.257   1.858  11.476
 9261TIP3    H249275   4.133   1.869  11.563
 9262TIP3   OH249276   6.585   4.811  12.216
 9262TIP3    H149277   6.636   4.798  12.137
 9262TIP3    H249278   6.524   4.882  12.195
 9263TIP3   OH249279   1.462   2.834  17.184
 9263TIP3    H149280   1.493   2.802  17.269
 9263TIP3    H249281   1.374   2.797  17.175
 9264TIP3   OH249282   1.999   4.417  17.075
 9264TIP3    H149283   2.054   4.348  17.037
 9264TIP3    H249284   1.922   4.421  17.018
 9265TIP3   OH249285   2.668   5.241  11.372
 9265TIP3    H149286   2.702   5.231  11.283
 9265TIP3    H249287   2.735   5.201  11.428
 9266TIP3   OH249288   0.700   3.003   6.696
 9266TIP3    H149289   0.679   2.972   6.608
 9266TIP3    H249290   0.666   3.093   6.699
 9267TIP3   OH249291   1.833   4.688  10.327
 9267TIP3    H149292   1.906   4.750  10.333
 9267TIP3    H249293   1.870   4.604  10.354
 9268TIP3   OH249294   2.561   4.047  11.829
 9268TIP3    H149295   2.565   4.140  11.854
 9268TIP3    H249296   2.496   4.010  11.887
 9269TIP3   OH249297   2.428   6.525   4.379
 9269TIP3    H149298   2.342   6.498   4.347
 9269TIP3    H249299   2.411   6.559   4.467
 9270TIP3   OH249300   4.945   4.832   4.723
 9270TIP3    H149301   5.022   4.855   4.776
 9270TIP3    H249302   4.981   4.795   4.643
 9271TIP3   OH249303   3.331   0.008  15.456
 9271TIP3    H149304   3.289   0.043  15.378
 9271TIP3    H249305   3.423   0.030  15.446
 9272TIP3   OH249306   3.088   2.392   6.767
 9272TIP3    H149307   3.139   2.326   6.720
 9272TIP3    H249308   2.997   2.364   6.757
 9273TIP3   OH249309   6.569   2.064   0.947
 9273TIP3    H149310   6.538   2.000   1.012
 9273TIP3    H249311   6.498   2.128   0.941
 9274TIP3   OH249312   0.504   4.719   2.128
 9274TIP3    H149313   0.430   4.687   2.077
 9274TIP3    H249314   0.481   4.699   2.219
 9275TIP3   OH249315   5.955   3.414   1.499
 9275TIP3    H149316   5.862   3.393   1.488
 9275TIP3    H249317   5.976   3.386   1.588
 9276TIP3   OH249318   6.140   3.370  13.532
 9276TIP3    H149319   6.123   3.343  13.622
 9276TIP3    H249320   6.210   3.312  13.502
 9277TIP3   OH249321   1.762   4.421  13.497
 9277TIP3    H149322   1.698   4.436  13.566
 9277TIP3    H249323   1.815   4.501  13.495
 9278TIP3   OH249324   5.676   4.989   0.269
 9278TIP3    H149325   5.580   4.984   0.270
 9278TIP3    H249326   5.705   4.904   0.302
 9279TIP3   OH249327   5.185   2.711   0.170
 9279TIP3    H149328   5.159   2.739   0.082
 9279TIP3    H249329   5.127   2.760   0.228
 9280TIP3   OH249330   2.242   6.609  12.189
 9280TIP3    H149331   2.249   6.601  12.284
 9280TIP3    H249332   2.172   6.672  12.175
 9281TIP3   OH249333   6.683   2.954  17.160
 9281TIP3    H149334   6.778   2.945  17.162
 9281TIP3    H249335   6.650   2.875  17.203
 9282TIP3   OH249336   0.667   4.865  15.027
 9282TIP3    H149337   0.746   4.812  15.035
 9282TIP3    H249338   0.609   4.835  15.097
 9283TIP3   OH249339   0.391   5.094  14.644
 9283TIP3    H149340   0.394   5.025  14.710
 9283TIP3    H249341   0.302   5.089  14.607
 9284TIP3   OH249342   2.462   2.524   4.800
 9284TIP3    H149343   2.485   2.501   4.891
 9284TIP3    H249344   2.366   2.526   4.800
 9285TIP3   OH249345   3.226   4.823   4.594
 9285TIP3    H149346   3.211   4.893   4.532
 9285TIP3    H249347   3.271   4.755   4.544
 9286TIP3   OH249348   0.569   1.649  14.763
 9286TIP3    H149349   0.640   1.662  14.701
 9286TIP3    H249350   0.594   1.702  14.839
 9287TIP3   OH249351   3.987   2.976   5.862
 9287TIP3    H149352   3.958   3.065   5.846
 9287TIP3    H249353   4.024   2.947   5.779
 9288TIP3   OH249354   4.691   3.457  16.225
 9288TIP3    H149355   4.662   3.530  16.171
 9288TIP3    H249356   4.658   3.379  16.180
 9289TIP3   OH249357   0.681   3.059  16.443
 9289TIP3    H149358   0.747   3.028  16.505
 9289TIP3    H249359   0.602   3.010  16.465
 9290TIP3   OH249360   3.930   1.451   3.311
 9290TIP3    H149361   3.923   1.377   3.250
 9290TIP3    H249362   3.875   1.519   3.272
 9291TIP3   OH249363   4.711   5.763  14.979
 9291TIP3    H149364   4.701   5.851  14.942
 9291TIP3    H249365   4.747   5.711  14.908
 9292TIP3   OH249366   0.112   0.106  10.276
 9292TIP3    H149367   0.108   0.011  10.278
 9292TIP3    H249368   0.173   0.130  10.345
 9293TIP3   OH249369   2.460   0.108   3.300
 9293TIP3    H149370   2.503   0.051   3.236
 9293TIP3    H249371   2.367   0.086   3.293
 9294TIP3   OH249372   5.159   4.695  12.089
 9294TIP3    H149373   5.098   4.690  12.163
 9294TIP3    H249374   5.244   4.676  12.127
 9295TIP3   OH249375   0.787   2.816   0.793
 9295TIP3    H149376   0.712   2.817   0.734
 9295TIP3    H249377   0.857   2.859   0.743
 9296TIP3   OH249378   2.933   4.482  13.358
 9296TIP3    H149379   2.969   4.566  13.331
 9296TIP3    H249380   2.995   4.417  13.325
 9297TIP3   OH249381   6.295   3.829  15.259
 9297TIP3    H149382   6.315   3.790  15.174
 9297TIP3    H249383   6.204   3.858  15.251
 9298TIP3   OH249384   0.689   1.083  13.057
 9298TIP3    H149385   0.611   1.034  13.029
 9298TIP3    H249386   0.679   1.093  13.151
 9299TIP3   OH249387   5.699   0.136  11.444
 9299TIP3    H149388   5.619   0.109  11.400
 9299TIP3    H249389   5.681   0.223  11.478
 9300TIP3   OH249390   3.449   4.699   3.960
 9300TIP3    H149391   3.373   4.735   4.005
 9300TIP3    H249392   3.411   4.637   3.897
 9301TIP3   OH249393   3.751   3.242   2.499
 9301TIP3    H149394   3.737   3.253   2.593
 9301TIP3    H249395   3.839   3.277   2.484
 9302TIP3   OH249396   4.467   3.272   3.050
 9302TIP3    H149397   4.543   3.217   3.068
 9302TIP3    H249398   4.420   3.227   2.980
 9303TIP3   OH249399   2.161   3.924   3.794
 9303TIP3    H149400   2.120   3.992   3.848
 9303TIP3    H249401   2.244   3.907   3.837
 9304TIP3   OH249402   5.100   0.147   1.110
 9304TIP3    H149403   5.081   0.070   1.163
 9304TIP3    H249404   5.102   0.114   1.020
 9305TIP3   OH249405   3.335   6.210  16.241
 9305TIP3    H149406   3.351   6.233  16.333
 9305TIP3    H249407   3.285   6.129  16.244
 9306TIP3   OH249408   4.202   0.187   4.198
 9306TIP3    H149409   4.262   0.243   4.150
 9306TIP3    H249410   4.130   0.171   4.137
 9307TIP3   OH249411   1.237   4.763  15.906
 9307TIP3    H149412   1.243   4.685  15.852
 9307TIP3    H249413   1.211   4.833  15.845
 9308TIP3   OH249414   4.877   1.587  15.881
 9308TIP3    H149415   4.813   1.516  15.874
 9308TIP3    H249416   4.828   1.666  15.860
 9309TIP3   OH249417   5.097   6.794   1.730
 9309TIP3    H149418   5.154   6.742   1.673
 9309TIP3    H249419   5.128   6.884   1.718
 9310TIP3   OH249420   2.129   2.493  11.928
 9310TIP3    H149421   2.088   2.575  11.956
 9310TIP3    H249422   2.109   2.487  11.835
 9311TIP3   OH249423   2.299   3.415   3.665
 9311TIP3    H149424   2.332   3.464   3.589
 9311TIP3    H249425   2.377   3.389   3.712
 9312TIP3   OH249426   5.567   6.452  13.373
 9312TIP3    H149427   5.486   6.410  13.403
 9312TIP3    H249428   5.580   6.417  13.285
 9313TIP3   OH249429   5.493   6.641  15.999
 9313TIP3    H149430   5.472   6.567  16.057
 9313TIP3    H249431   5.582   6.666  16.023
 9314TIP3   OH249432   6.262   4.590  15.508
 9314TIP3    H149433   6.176   4.633  15.501
 9314TIP3    H249434   6.256   4.537  15.587
 9315TIP3   OH249435   4.016   2.020   6.166
 9315TIP3    H149436   3.956   2.030   6.091
 9315TIP3    H249437   4.034   1.926   6.170
 9316TIP3   OH249438   3.027   0.382   2.811
 9316TIP3    H149439   2.989   0.371   2.899
 9316TIP3    H249440   2.973   0.450   2.771
 9317TIP3   OH249441   2.060   6.448   6.765
 9317TIP3    H149442   2.025   6.536   6.780
 9317TIP3    H249443   1.993   6.404   6.713
 9318TIP3   OH249444   3.302   0.324   1.683
 9318TIP3    H149445   3.300   0.257   1.751
 9318TIP3    H249446   3.369   0.386   1.712
 9319TIP3   OH249447   1.468   5.116   3.967
 9319TIP3    H149448   1.491   5.023   3.963
 9319TIP3    H249449   1.393   5.119   4.025
 9320TIP3   OH249450   0.431   4.089   2.229
 9320TIP3    H149451   0.343   4.107   2.195
 9320TIP3    H249452   0.424   4.001   2.268
 9321TIP3   OH249453   1.099   2.519  14.316
 9321TIP3    H149454   1.018   2.534  14.365
 9321TIP3    H249455   1.160   2.583  14.352
 9322TIP3   OH249456   0.789   0.991  12.459
 9322TIP3    H149457   0.819   0.945  12.538
 9322TIP3    H249458   0.700   1.020  12.482
 9323TIP3   OH249459   2.417   5.514  11.029
 9323TIP3    H149460   2.506   5.513  10.994
 9323TIP3    H249461   2.429   5.514  11.124
 9324TIP3   OH249462   4.997   0.710   0.187
 9324TIP3    H149463   5.055   0.786   0.186
 9324TIP3    H249464   4.985   0.687   0.095
 9325TIP3   OH249465   2.622   2.750  15.887
 9325TIP3    H149466   2.617   2.818  15.955
 9325TIP3    H249467   2.531   2.734  15.862
 9326TIP3   OH249468   2.494   5.935   5.940
 9326TIP3    H149469   2.403   5.922   5.914
 9326TIP3    H249470   2.529   5.995   5.874
 9327TIP3   OH249471   3.365   1.360   3.074
 9327TIP3    H149472   3.330   1.272   3.088
 9327TIP3    H249473   3.381   1.393   3.162
 9328TIP3   OH249474   3.662   4.639   3.289
 9328TIP3    H149475   3.699   4.613   3.205
 9328TIP3    H249476   3.639   4.557   3.332
 9329TIP3   OH249477   3.214   5.572   5.214
 9329TIP3    H149478   3.279   5.636   5.184
 9329TIP3    H249479   3.181   5.531   5.134
 9330TIP3   OH249480   1.215   1.012   4.756
 9330TIP3    H149481   1.171   1.067   4.821
 9330TIP3    H249482   1.159   1.016   4.679
 9331TIP3   OH249483   5.493   2.871  13.252
 9331TIP3    H149484   5.445   2.793  13.224
 9331TIP3    H249485   5.556   2.838  13.316
 9332TIP3   OH249486   1.909   3.538   5.715
 9332TIP3    H149487   1.864   3.622   5.720
 9332TIP3    H249488   1.845   3.479   5.674
 9333TIP3   OH249489   1.186   5.727  16.031
 9333TIP3    H149490   1.171   5.708  16.124
 9333TIP3    H249491   1.274   5.765  16.029
 9334TIP3   OH249492   1.011   3.671  10.739
 9334TIP3    H149493   1.054   3.756  10.744
 9334TIP3    H249494   1.053   3.627  10.665
 9335TIP3   OH249495   1.845   0.962  12.503
 9335TIP3    H149496   1.774   1.013  12.463
 9335TIP3    H249497   1.905   0.944  12.431
 9336TIP3   OH249498   4.751   2.583   3.768
 9336TIP3    H149499   4.836   2.602   3.808
 9336TIP3    H249500   4.710   2.519   3.826
 9337TIP3   OH249501   5.121   2.273  11.965
 9337TIP3    H149502   5.083   2.323  11.893
 9337TIP3    H249503   5.199   2.323  11.990
 9338TIP3   OH249504   4.722   5.997   5.617
 9338TIP3    H149505   4.653   6.041   5.667
 9338TIP3    H249506   4.727   5.910   5.657
 9339TIP3   OH249507   0.143   2.932   4.605
 9339TIP3    H149508   0.069   2.967   4.653
 9339TIP3    H249509   0.155   2.992   4.531
 9340TIP3   OH249510   4.995   1.379   1.904
 9340TIP3    H149511   4.978   1.429   1.984
 9340TIP3    H249512   4.916   1.393   1.850
 9341TIP3   OH249513   1.255   2.662  16.330
 9341TIP3    H149514   1.342   2.665  16.370
 9341TIP3    H249515   1.269   2.687  16.239
 9342TIP3   OH249516   0.032   2.069   2.210
 9342TIP3    H149517   0.076   2.153   2.199
 9342TIP3    H249518   0.074   2.012   2.145
 9343TIP3   OH249519   0.043   5.324   3.290
 9343TIP3    H149520   0.133   5.301   3.265
 9343TIP3    H249521   0.048   5.416   3.315
 9344TIP3   OH249522   0.917   3.416  14.380
 9344TIP3    H149523   0.856   3.472  14.428
 9344TIP3    H249524   0.953   3.473  14.312
 9345TIP3   OH249525   0.099   2.654   1.952
 9345TIP3    H149526   0.138   2.576   1.912
 9345TIP3    H249527   0.114   2.724   1.888
 9346TIP3   OH249528   2.489   5.574   4.890
 9346TIP3    H149529   2.417   5.529   4.934
 9346TIP3    H249530   2.528   5.507   4.834
 9347TIP3   OH249531   4.075   3.140   1.357
 9347TIP3    H149532   4.158   3.103   1.326
 9347TIP3    H249533   4.048   3.082   1.428
 9348TIP3   OH249534   6.004   2.485   3.625
 9348TIP3    H149535   6.011   2.542   3.702
 9348TIP3    H249536   5.987   2.398   3.661
 9349TIP3   OH249537   3.671   1.369  15.084
 9349TIP3    H149538   3.701   1.412  15.004
 9349TIP3    H249539   3.638   1.440  15.139
 9350TIP3   OH249540   0.659   5.952  12.705
 9350TIP3    H149541   0.581   6.007  12.695
 9350TIP3    H249542   0.625   5.866  12.728
 9351TIP3   OH249543   4.163   0.018  16.364
 9351TIP3    H149544   4.210   0.058  16.290
 9351TIP3    H249545   4.209  -0.064  16.381
 9352TIP3   OH249546   4.617   2.640  15.286
 9352TIP3    H149547   4.611   2.711  15.222
 9352TIP3    H249548   4.548   2.658  15.350
 9353TIP3   OH249549   2.328   1.905   5.979
 9353TIP3    H149550   2.329   1.961   5.902
 9353TIP3    H249551   2.419   1.901   6.008
 9354TIP3   OH249552   3.202   4.127   5.293
 9354TIP3    H149553   3.204   4.192   5.364
 9354TIP3    H249554   3.216   4.043   5.338
 9355TIP3   OH249555   6.292   4.137   4.932
 9355TIP3    H149556   6.359   4.134   4.864
 9355TIP3    H249557   6.298   4.053   4.977
 9356TIP3   OH249558   2.265   5.433  12.514
 9356TIP3    H149559   2.302   5.446  12.426
 9356TIP3    H249560   2.342   5.430  12.571
 9357TIP3   OH249561   0.856   2.626  11.183
 9357TIP3    H149562   0.916   2.695  11.211
 9357TIP3    H249563   0.773   2.671  11.167
 9358TIP3   OH249564   1.483   1.441   5.791
 9358TIP3    H149565   1.446   1.521   5.828
 9358TIP3    H249566   1.527   1.470   5.711
 9359TIP3   OH249567   5.331   2.111  14.753
 9359TIP3    H149568   5.306   2.204  14.750
 9359TIP3    H249569   5.388   2.104  14.829
 9360TIP3   OH249570   0.307   6.336  15.690
 9360TIP3    H149571   0.260   6.342  15.773
 9360TIP3    H249572   0.254   6.279  15.636
 9361TIP3   OH249573   4.072   1.030   4.107
 9361TIP3    H149574   4.007   1.095   4.136
 9361TIP3    H249575   4.022   0.966   4.057
 9362TIP3   OH249576   6.702   1.642   2.214
 9362TIP3    H149577   6.761   1.674   2.283
 9362TIP3    H249578   6.733   1.553   2.196
 9363TIP3   OH249579   6.166   3.215  14.502
 9363TIP3    H149580   6.118   3.298  14.508
 9363TIP3    H249581   6.257   3.240  14.520
 9364TIP3   OH249582   1.049   1.400   2.312
 9364TIP3    H149583   1.087   1.352   2.239
 9364TIP3    H249584   0.983   1.341   2.348
 9365TIP3   OH249585   4.674   1.762   3.210
 9365TIP3    H149586   4.682   1.668   3.224
 9365TIP3    H249587   4.755   1.788   3.167
 9366TIP3   OH249588   4.789   0.478  17.273
 9366TIP3    H149589   4.858   0.425  17.314
 9366TIP3    H249590   4.829   0.510  17.192
 9367TIP3   OH249591   4.012   6.205   3.571
 9367TIP3    H149592   3.994   6.279   3.514
 9367TIP3    H249593   4.096   6.226   3.613
 9368TIP3   OH249594   4.162   1.986   5.158
 9368TIP3    H149595   4.249   2.009   5.190
 9368TIP3    H249596   4.156   2.027   5.072
 9369TIP3   OH249597   1.354   4.127   3.180
 9369TIP3    H149598   1.423   4.062   3.195
 9369TIP3    H249599   1.368   4.193   3.248
 9370TIP3   OH249600   5.540   4.273  15.939
 9370TIP3    H149601   5.539   4.366  15.914
 9370TIP3    H249602   5.626   4.242  15.911
 9371TIP3   OH249603   4.634   5.678   0.515
 9371TIP3    H149604   4.550   5.688   0.470
 9371TIP3    H249605   4.627   5.737   0.591
 9372TIP3   OH249606   4.881   5.007  11.886
 9372TIP3    H149607   4.808   4.956  11.921
 9372TIP3    H249608   4.897   4.968  11.800
 9373TIP3   OH249609   6.683   4.364   0.146
 9373TIP3    H149610   6.713   4.446   0.185
 9373TIP3    H249611   6.715   4.367   0.055
 9374TIP3   OH249612   2.632   2.062   0.084
 9374TIP3    H149613   2.641   2.050  -0.010
 9374TIP3    H249614   2.677   2.145   0.102
 9375TIP3   OH249615   4.020   2.918  12.617
 9375TIP3    H149616   3.983   2.872  12.542
 9375TIP3    H249617   4.013   3.011  12.594
 9376TIP3   OH249618   5.476   2.709  11.259
 9376TIP3    H149619   5.499   2.669  11.175
 9376TIP3    H249620   5.394   2.756  11.241
 9377TIP3   OH249621   6.767   2.644   1.696
 9377TIP3    H149622   6.725   2.651   1.610
 9377TIP3    H249623   6.854   2.682   1.683
 9378TIP3   OH249624   1.628   6.433  13.335
 9378TIP3    H149625   1.601   6.431  13.427
 9378TIP3    H249626   1.723   6.421  13.337
 9379TIP3   OH249627   0.335   5.084  11.232
 9379TIP3    H149628   0.376   5.135  11.162
 9379TIP3    H249629   0.331   4.995  11.196
 9380TIP3   OH249630   5.074   4.912  12.420
 9380TIP3    H149631   5.039   4.906  12.509
 9380TIP3    H249632   5.167   4.890  12.429
 9381TIP3   OH249633   6.631   1.749   5.142
 9381TIP3    H149634   6.641   1.673   5.199
 9381TIP3    H249635   6.673   1.723   5.060
 9382TIP3   OH249636   0.282   3.923   3.073
 9382TIP3    H149637   0.349   3.883   3.019
 9382TIP3    H249638   0.216   3.854   3.085
 9383TIP3   OH249639   1.955   4.345  16.591
 9383TIP3    H149640   1.862   4.364  16.605
 9383TIP3    H249641   1.965   4.341  16.496
 9384TIP3   OH249642   2.898   3.937  13.832
 9384TIP3    H149643   2.899   4.003  13.764
 9384TIP3    H249644   2.989   3.905  13.836
 9385TIP3   OH249645   5.192   1.190  14.711
 9385TIP3    H149646   5.098   1.208  14.707
 9385TIP3    H249647   5.199   1.099  14.739
 9386TIP3   OH249648   4.660   6.761   6.558
 9386TIP3    H149649   4.598   6.794   6.492
 9386TIP3    H249650   4.640   6.668   6.565
 9387TIP3   OH249651   6.451   4.423   5.205
 9387TIP3    H149652   6.410   4.430   5.291
 9387TIP3    H249653   6.543   4.443   5.220
 9388TIP3   OH249654   5.769   0.161  12.203
 9388TIP3    H149655   5.833   0.154  12.132
 9388TIP3    H249656   5.718   0.080  12.197
 9389TIP3   OH249657   5.810   1.388   4.238
 9389TIP3    H149658   5.806   1.480   4.264
 9389TIP3    H249659   5.865   1.387   4.159
 9390TIP3   OH249660   3.133   1.919   0.198
 9390TIP3    H149661   3.171   1.997   0.237
 9390TIP3    H249662   3.040   1.922   0.222
 9391TIP3   OH249663   0.732   6.177   0.741
 9391TIP3    H149664   0.647   6.133   0.740
 9391TIP3    H249665   0.711   6.270   0.733
 9392TIP3   OH249666   1.673   3.591   0.894
 9392TIP3    H149667   1.758   3.591   0.938
 9392TIP3    H249668   1.664   3.503   0.857
 9393TIP3   OH249669   0.505   4.416  13.242
 9393TIP3    H149670   0.580   4.470  13.218
 9393TIP3    H249671   0.441   4.478  13.276
 9394TIP3   OH249672   0.095   5.015  16.305
 9394TIP3    H149673   0.066   5.074  16.236
 9394TIP3    H249674   0.029   5.024  16.374
 9395TIP3   OH249675   6.606   1.953   0.665
 9395TIP3    H149676   6.523   1.981   0.626
 9395TIP3    H249677   6.597   1.973   0.758
 9396TIP3   OH249678   5.241   0.140   4.642
 9396TIP3    H149679   5.316   0.115   4.588
 9396TIP3    H249680   5.277   0.151   4.730
 9397TIP3   OH249681   1.217   4.288   6.637
 9397TIP3    H149682   1.195   4.280   6.730
 9397TIP3    H249683   1.304   4.248   6.629
 9398TIP3   OH249684   2.407   6.740  12.541
 9398TIP3    H149685   2.326   6.701  12.507
 9398TIP3    H249686   2.432   6.805  12.475
 9399TIP3   OH249687   3.251   4.303   1.043
 9399TIP3    H149688   3.327   4.346   1.084
 9399TIP3    H249689   3.236   4.225   1.096
 9400TIP3   OH249690   4.807   3.038  11.521
 9400TIP3    H149691   4.750   2.963  11.540
 9400TIP3    H249692   4.846   3.061  11.605
 9401TIP3   OH249693   4.778   3.112  16.759
 9401TIP3    H149694   4.847   3.172  16.788
 9401TIP3    H249695   4.813   3.025  16.775
 9402TIP3   OH249696   4.091   6.397  10.410
 9402TIP3    H149697   4.041   6.385  10.491
 9402TIP3    H249698   4.155   6.326  10.409
 9403TIP3   OH249699   5.179   1.654  11.341
 9403TIP3    H149700   5.187   1.613  11.255
 9403TIP3    H249701   5.223   1.593  11.401
 9404TIP3   OH249702   5.913   4.019   2.387
 9404TIP3    H149703   6.001   4.032   2.421
 9404TIP3    H249704   5.919   3.942   2.331
 9405TIP3   OH249705   0.345   1.048   3.460
 9405TIP3    H149706   0.372   1.083   3.375
 9405TIP3    H249707   0.425   1.009   3.496
 9406TIP3   OH249708   6.360   1.056   5.424
 9406TIP3    H149709   6.290   0.992   5.416
 9406TIP3    H249710   6.325   1.125   5.480
 9407TIP3   OH249711   5.508   4.863  17.077
 9407TIP3    H149712   5.484   4.819  16.996
 9407TIP3    H249713   5.467   4.949  17.071
 9408TIP3   OH249714   1.398   6.502  15.543
 9408TIP3    H149715   1.432   6.578  15.591
 9408TIP3    H249716   1.437   6.509  15.456
 9409TIP3   OH249717   1.626   5.089  12.528
 9409TIP3    H149718   1.717   5.092  12.498
 9409TIP3    H249719   1.604   4.996  12.531
 9410TIP3   OH249720   2.125   3.983  13.241
 9410TIP3    H149721   2.188   3.966  13.170
 9410TIP3    H249722   2.044   4.007  13.196
 9411TIP3   OH249723   2.914   5.114   1.397
 9411TIP3    H149724   2.909   5.052   1.469
 9411TIP3    H249725   3.007   5.133   1.387
 9412TIP3   OH249726   0.054   5.997  14.298
 9412TIP3    H149727   0.124   6.051  14.333
 9412TIP3    H249728   0.052   6.017  14.205
 9413TIP3   OH249729   4.332   0.327  16.525
 9413TIP3    H149730   4.400   0.260  16.518
 9413TIP3    H249731   4.347   0.385  16.450
 9414TIP3   OH249732   6.748   0.659  11.134
 9414TIP3    H149733   6.794   0.683  11.053
 9414TIP3    H249734   6.684   0.729  11.146
 9415TIP3   OH249735   3.471   3.617  12.455
 9415TIP3    H149736   3.428   3.687  12.406
 9415TIP3    H249737   3.401   3.575  12.505
 9416TIP3   OH249738   1.411   1.445  15.539
 9416TIP3    H149739   1.350   1.371  15.531
 9416TIP3    H249740   1.357   1.517  15.572
 9417TIP3   OH249741   2.193   2.649  13.808
 9417TIP3    H149742   2.175   2.704  13.732
 9417TIP3    H249743   2.237   2.708  13.870
 9418TIP3   OH249744   3.877   0.613  14.072
 9418TIP3    H149745   3.901   0.580  13.985
 9418TIP3    H249746   3.785   0.638  14.063
 9419TIP3   OH249747   5.169   0.326  14.500
 9419TIP3    H149748   5.252   0.348  14.542
 9419TIP3    H249749   5.167   0.230  14.499
 9420TIP3   OH249750   5.310   3.572   0.751
 9420TIP3    H149751   5.241   3.505   0.757
 9420TIP3    H249752   5.391   3.525   0.767
 9421TIP3   OH249753   3.349   4.387  15.830
 9421TIP3    H149754   3.310   4.466  15.792
 9421TIP3    H249755   3.276   4.343  15.874
 9422TIP3   OH249756   2.429   4.910   0.685
 9422TIP3    H149757   2.427   4.956   0.601
 9422TIP3    H249758   2.351   4.855   0.684
 9423TIP3   OH249759   4.505   4.180   0.388
 9423TIP3    H149760   4.459   4.208   0.309
 9423TIP3    H249761   4.589   4.148   0.356
 9424TIP3   OH249762   3.518   1.846  11.255
 9424TIP3    H149763   3.521   1.871  11.163
 9424TIP3    H249764   3.426   1.825  11.271
 9425TIP3   OH249765   0.672   0.140  12.905
 9425TIP3    H149766   0.690   0.101  12.819
 9425TIP3    H249767   0.593   0.191  12.892
 9426TIP3   OH249768   6.528   5.612   4.710
 9426TIP3    H149769   6.472   5.584   4.782
 9426TIP3    H249770   6.572   5.691   4.742
 9427TIP3   OH249771   5.466   4.183  15.471
 9427TIP3    H149772   5.535   4.121  15.446
 9427TIP3    H249773   5.416   4.196  15.390
 9428TIP3   OH249774   6.053   4.786  13.285
 9428TIP3    H149775   6.144   4.756  13.278
 9428TIP3    H249776   6.052   4.869  13.236
 9429TIP3   OH249777   4.246   1.614   0.154
 9429TIP3    H149778   4.210   1.577   0.234
 9429TIP3    H249779   4.314   1.553   0.127
 9430TIP3   OH249780   2.688   1.254  15.260
 9430TIP3    H149781   2.621   1.193  15.230
 9430TIP3    H249782   2.771   1.217  15.229
 9431TIP3   OH249783   0.651   0.394   6.005
 9431TIP3    H149784   0.582   0.338   5.969
 9431TIP3    H249785   0.648   0.378   6.099
 9432TIP3   OH249786   5.750   5.178  15.615
 9432TIP3    H149787   5.813   5.246  15.640
 9432TIP3    H249788   5.733   5.130  15.695
 9433TIP3   OH249789   2.335   6.298   3.557
 9433TIP3    H149790   2.267   6.265   3.498
 9433TIP3    H249791   2.312   6.262   3.643
 9434TIP3   OH249792   5.328   1.746  12.233
 9434TIP3    H149793   5.335   1.651  12.237
 9434TIP3    H249794   5.280   1.762  12.151
 9435TIP3   OH249795   1.254   3.507   0.062
 9435TIP3    H149796   1.216   3.422   0.039
 9435TIP3    H249797   1.219   3.567  -0.004
 9436TIP3   OH249798   0.789   3.739   6.568
 9436TIP3    H149799   0.837   3.716   6.489
 9436TIP3    H249800   0.852   3.791   6.620
 9437TIP3   OH249801   6.309   2.127   1.567
 9437TIP3    H149802   6.247   2.140   1.639
 9437TIP3    H249803   6.381   2.078   1.607
 9438TIP3   OH249804   5.857   6.454  11.153
 9438TIP3    H149805   5.838   6.444  11.060
 9438TIP3    H249806   5.937   6.403  11.166
 9439TIP3   OH249807   6.622   1.432  17.089
 9439TIP3    H149808   6.538   1.451  17.047
 9439TIP3    H249809   6.640   1.341  17.067
 9440TIP3   OH249810   6.070   5.135  17.222
 9440TIP3    H149811   5.986   5.090  17.219
 9440TIP3    H249812   6.120   5.088  17.288
 9441TIP3   OH249813   4.900   3.838   1.433
 9441TIP3    H149814   4.986   3.880   1.433
 9441TIP3    H249815   4.840   3.907   1.405
 9442TIP3   OH249816   4.432   2.560   3.327
 9442TIP3    H149817   4.344   2.542   3.358
 9442TIP3    H249818   4.486   2.562   3.407
 9443TIP3   OH249819   2.214   5.488  13.009
 9443TIP3    H149820   2.128   5.473  13.049
 9443TIP3    H249821   2.216   5.582  12.989
 9444TIP3   OH249822   5.902   5.546  12.606
 9444TIP3    H149823   5.986   5.592  12.601
 9444TIP3    H249824   5.863   5.577  12.688
 9445TIP3   OH249825   2.057   0.392  13.394
 9445TIP3    H149826   2.107   0.426  13.320
 9445TIP3    H249827   2.117   0.333  13.439
 9446TIP3   OH249828   2.743   0.646   4.055
 9446TIP3    H149829   2.674   0.593   4.014
 9446TIP3    H249830   2.696   0.719   4.095
 9447TIP3   OH249831   2.989   5.095  13.339
 9447TIP3    H149832   3.021   5.096  13.249
 9447TIP3    H249833   3.044   5.157  13.386
 9448TIP3   OH249834   1.243   2.316   1.896
 9448TIP3    H149835   1.306   2.348   1.832
 9448TIP3    H249836   1.158   2.336   1.857
 9449TIP3   OH249837   6.368   6.106   1.097
 9449TIP3    H149838   6.295   6.129   1.154
 9449TIP3    H249839   6.419   6.187   1.088
 9450TIP3   OH249840   2.232   5.922   5.889
 9450TIP3    H149841   2.161   5.906   5.952
 9450TIP3    H249842   2.187   5.930   5.805
 9451TIP3   OH249843   2.177   6.410   4.308
 9451TIP3    H149844   2.177   6.348   4.381
 9451TIP3    H249845   2.176   6.354   4.230
 9452TIP3   OH249846   0.381   4.666   6.659
 9452TIP3    H149847   0.448   4.685   6.726
 9452TIP3    H249848   0.386   4.740   6.598
 9453TIP3   OH249849   3.314   5.214  12.061
 9453TIP3    H149850   3.241   5.197  12.121
 9453TIP3    H249851   3.281   5.188  11.975
 9454TIP3   OH249852   5.680   5.407   4.114
 9454TIP3    H149853   5.709   5.316   4.104
 9454TIP3    H249854   5.751   5.450   4.161
 9455TIP3   OH249855   3.432   4.217   3.852
 9455TIP3    H149856   3.368   4.163   3.807
 9455TIP3    H249857   3.385   4.252   3.928
 9456TIP3   OH249858   0.114   5.632  11.939
 9456TIP3    H149859   0.080   5.720  11.954
 9456TIP3    H249860   0.169   5.614  12.016
 9457TIP3   OH249861   2.875   3.116  12.591
 9457TIP3    H149862   2.937   3.167  12.643
 9457TIP3    H249863   2.805   3.178  12.569
 9458TIP3   OH249864   1.988   4.249  16.874
 9458TIP3    H149865   2.017   4.162  16.902
 9458TIP3    H249866   2.000   4.249  16.779
 9459TIP3   OH249867   3.851   6.636   4.082
 9459TIP3    H149868   3.796   6.710   4.107
 9459TIP3    H249869   3.877   6.596   4.165
 9460TIP3   OH249870   1.489   1.039   2.725
 9460TIP3    H149871   1.541   1.115   2.701
 9460TIP3    H249872   1.401   1.059   2.694
 9461TIP3   OH249873   1.471   6.226  12.153
 9461TIP3    H149874   1.499   6.137  12.131
 9461TIP3    H249875   1.412   6.251  12.081
 9462TIP3   OH249876   5.004   2.562   4.469
 9462TIP3    H149877   4.958   2.583   4.387
 9462TIP3    H249878   4.985   2.635   4.527
 9463TIP3   OH249879   1.727   3.749   2.497
 9463TIP3    H149880   1.740   3.678   2.433
 9463TIP3    H249881   1.815   3.774   2.523
 9464TIP3   OH249882   2.952   0.067  12.459
 9464TIP3    H149883   2.951  -0.009  12.517
 9464TIP3    H249884   2.865   0.069  12.421
 9465TIP3   OH249885   3.613   2.471   3.598
 9465TIP3    H149886   3.578   2.557   3.573
 9465TIP3    H249887   3.618   2.474   3.694
 9466TIP3   OH249888   2.094   6.428  16.548
 9466TIP3    H149889   2.013   6.379  16.538
 9466TIP3    H249890   2.153   6.367  16.592
 9467TIP3   OH249891   1.097   4.626  11.832
 9467TIP3    H149892   1.136   4.559  11.776
 9467TIP3    H249893   1.123   4.601  11.921
 9468TIP3   OH249894   2.477   2.585  12.796
 9468TIP3    H149895   2.385   2.596  12.817
 9468TIP3    H249896   2.480   2.511  12.735
 9469TIP3   OH249897   5.266   5.073  12.537
 9469TIP3    H149898   5.171   5.082  12.546
 9469TIP3    H249899   5.295   5.035  12.620
 9470TIP3   OH249900   6.265   5.250  13.200
 9470TIP3    H149901   6.300   5.263  13.288
 9470TIP3    H249902   6.186   5.303  13.198
 9471TIP3   OH249903   4.719   3.388  16.828
 9471TIP3    H149904   4.730   3.432  16.743
 9471TIP3    H249905   4.780   3.433  16.886
 9472TIP3   OH249906   0.085   2.509   5.516
 9472TIP3    H149907   0.030   2.580   5.482
 9472TIP3    H249908   0.102   2.453   5.440
 9473TIP3   OH249909   4.372   3.587  11.602
 9473TIP3    H149910   4.391   3.609  11.511
 9473TIP3    H249911   4.394   3.667  11.651
 9474TIP3   OH249912   3.445   3.445   0.135
 9474TIP3    H149913   3.486   3.433   0.221
 9474TIP3    H249914   3.374   3.381   0.133
 9475TIP3   OH249915   6.665   1.007   1.409
 9475TIP3    H149916   6.682   0.913   1.421
 9475TIP3    H249917   6.576   1.011   1.375
 9476TIP3   OH249918   1.915   6.443  13.339
 9476TIP3    H149919   1.962   6.384  13.397
 9476TIP3    H249920   1.943   6.531  13.366
 9477TIP3   OH249921   0.893   1.495  14.437
 9477TIP3    H149922   0.890   1.558  14.364
 9477TIP3    H249923   0.972   1.444  14.420
 9478TIP3   OH249924   5.748   5.884  16.436
 9478TIP3    H149925   5.758   5.882  16.341
 9478TIP3    H249926   5.689   5.959  16.451
 9479TIP3   OH249927   5.768   3.613  17.088
 9479TIP3    H149928   5.816   3.535  17.060
 9479TIP3    H249929   5.763   3.667  17.009
 9480TIP3   OH249930   5.895   6.529  16.996
 9480TIP3    H149931   5.872   6.444  17.033
 9480TIP3    H249932   5.823   6.587  17.023
 9481TIP3   OH249933   1.932   2.284   3.345
 9481TIP3    H149934   2.013   2.333   3.352
 9481TIP3    H249935   1.957   2.202   3.303
 9482TIP3   OH249936   6.797   0.798   6.328
 9482TIP3    H149937   6.843   0.719   6.301
 9482TIP3    H249938   6.742   0.821   6.253
 9483TIP3   OH249939   5.909   1.820  12.405
 9483TIP3    H149940   5.985   1.803  12.350
 9483TIP3    H249941   5.836   1.829  12.344
 9484TIP3   OH249942   3.657   4.128   4.012
 9484TIP3    H149943   3.584   4.163   3.962
 9484TIP3    H249944   3.673   4.192   4.081
 9485TIP3   OH249945   3.353   0.076  11.807
 9485TIP3    H149946   3.325   0.033  11.726
 9485TIP3    H249947   3.366   0.004  11.869
 9486TIP3   OH249948   3.296   3.643  11.334
 9486TIP3    H149949   3.334   3.583  11.270
 9486TIP3    H249950   3.213   3.602  11.360
 9487TIP3   OH249951   4.782   0.232   4.465
 9487TIP3    H149952   4.872   0.256   4.490
 9487TIP3    H249953   4.731   0.311   4.485
 9488TIP3   OH249954   1.760   3.882  15.434
 9488TIP3    H149955   1.805   3.875  15.350
 9488TIP3    H249956   1.749   3.976  15.448
 9489TIP3   OH249957   2.462   2.425  15.852
 9489TIP3    H149958   2.458   2.404  15.945
 9489TIP3    H249959   2.407   2.502  15.842
 9490TIP3   OH249960   3.595   2.361   0.345
 9490TIP3    H149961   3.625   2.417   0.416
 9490TIP3    H249962   3.619   2.408   0.265
 9491TIP3   OH249963   0.428   4.413  17.284
 9491TIP3    H149964   0.473   4.382  17.205
 9491TIP3    H249965   0.499   4.441  17.342
 9492TIP3   OH249966   5.430   3.511   0.469
 9492TIP3    H149967   5.465   3.465   0.393
 9492TIP3    H249968   5.505   3.560   0.503
 9493TIP3   OH249969   6.382   3.126  10.593
 9493TIP3    H149970   6.405   3.215  10.617
 9493TIP3    H249971   6.292   3.132  10.559
 9494TIP3   OH249972   4.028   2.164   0.631
 9494TIP3    H149973   3.942   2.141   0.595
 9494TIP3    H249974   4.085   2.169   0.554
 9495TIP3   OH249975   1.159   3.827  11.317
 9495TIP3    H149976   1.073   3.787  11.329
 9495TIP3    H249977   1.188   3.848  11.406
 9496TIP3   OH249978   0.851   5.333   1.060
 9496TIP3    H149979   0.806   5.417   1.052
 9496TIP3    H249980   0.807   5.289   1.133
 9497TIP3   OH249981   6.230   4.497   3.629
 9497TIP3    H149982   6.181   4.415   3.638
 9497TIP3    H249983   6.174   4.552   3.573
 9498TIP3   OH249984   6.281   5.046  16.613
 9498TIP3    H149985   6.329   5.001  16.544
 9498TIP3    H249986   6.208   5.088  16.568
 9499TIP3   OH249987   5.595   1.569   2.056
 9499TIP3    H149988   5.502   1.592   2.046
 9499TIP3    H249989   5.642   1.642   2.016
 9500TIP3   OH249990   2.422   1.186   0.519
 9500TIP3    H149991   2.513   1.202   0.494
 9500TIP3    H249992   2.424   1.104   0.568
 9501TIP3   OH249993   5.979   4.181   0.754
 9501TIP3    H149994   5.939   4.182   0.841
 9501TIP3    H249995   6.040   4.108   0.755
 9502TIP3   OH249996   5.595   0.395   1.155
 9502TIP3    H149997   5.529   0.465   1.147
 9502TIP3    H249998   5.561   0.325   1.099
 9503TIP3   OH249999   2.540   6.100   3.864
 9503TIP3    H150000   2.520   6.082   3.772
 9503TIP3    H250001   2.633   6.120   3.865
 9504TIP3   OH250002   5.640   4.316   4.750
 9504TIP3    H150003   5.680   4.229   4.747
 9504TIP3    H250004   5.555   4.304   4.708
 9505TIP3   OH250005   1.095   0.245  13.219
 9505TIP3    H150006   1.183   0.207  13.224
 9505TIP3    H250007   1.071   0.262  13.310
 9506TIP3   OH250008   4.588   5.335   0.975
 9506TIP3    H150009   4.515   5.291   1.017
 9506TIP3    H250010   4.561   5.344   0.883
 9507TIP3   OH250011   3.367   2.400   4.313
 9507TIP3    H150012   3.295   2.462   4.324
 9507TIP3    H250013   3.416   2.432   4.237
 9508TIP3   OH250014   1.547   0.828   3.460
 9508TIP3    H150015   1.547   0.827   3.555
 9508TIP3    H250016   1.611   0.761   3.435
 9509TIP3   OH250017   1.353   5.629   0.037
 9509TIP3    H150018   1.309   5.544   0.036
 9509TIP3    H250019   1.315   5.676   0.111
 9510TIP3   OH250020   5.211   6.787   4.335
 9510TIP3    H150021   5.211   6.783   4.239
 9510TIP3    H250022   5.118   6.794   4.358
 9511TIP3   OH250023   6.717   0.720  16.553
 9511TIP3    H150024   6.786   0.687  16.611
 9511TIP3    H250025   6.732   0.674  16.470
 9512TIP3   OH250026   0.578   1.635  10.396
 9512TIP3    H150027   0.608   1.684  10.320
 9512TIP3    H250028   0.657   1.617  10.447
 9513TIP3   OH250029   3.301   3.499   3.179
 9513TIP3    H150030   3.275   3.585   3.211
 9513TIP3    H250031   3.393   3.510   3.155
 9514TIP3   OH250032   0.258   3.731  15.880
 9514TIP3    H150033   0.352   3.712  15.887
 9514TIP3    H250034   0.217   3.645  15.876
 9515TIP3   OH250035   3.426   0.820   2.167
 9515TIP3    H150036   3.494   0.887   2.174
 9515TIP3    H250037   3.394   0.809   2.257
 9516TIP3   OH250038   1.813   0.428   5.697
 9516TIP3    H150039   1.832   0.471   5.781
 9516TIP3    H250040   1.836   0.493   5.631
 9517TIP3   OH250041   5.862   4.455  16.086
 9517TIP3    H150042   5.944   4.484  16.126
 9517TIP3    H250043   5.811   4.535  16.076
 9518TIP3   OH250044   1.862   6.557   3.529
 9518TIP3    H150045   1.830   6.505   3.603
 9518TIP3    H250046   1.920   6.622   3.570
 9519TIP3   OH250047   5.475   3.628   3.303
 9519TIP3    H150048   5.472   3.598   3.394
 9519TIP3    H250049   5.390   3.603   3.266
 9520TIP3   OH250050   5.033   4.963   1.198
 9520TIP3    H150051   5.083   4.919   1.268
 9520TIP3    H250052   4.942   4.956   1.226
 9521TIP3   OH250053   2.867   4.908   4.285
 9521TIP3    H150054   2.774   4.890   4.302
 9521TIP3    H250055   2.896   4.833   4.233
 9522TIP3   OH250056   1.105   6.359  13.011
 9522TIP3    H150057   1.063   6.352  13.097
 9522TIP3    H250058   1.190   6.400  13.028
 9523TIP3   OH250059   5.136   1.845   6.006
 9523TIP3    H150060   5.191   1.883   6.075
 9523TIP3    H250061   5.052   1.890   6.015
 9524TIP3   OH250062   1.282   0.770   4.208
 9524TIP3    H150063   1.291   0.860   4.239
 9524TIP3    H250064   1.297   0.775   4.114
 9525TIP3   OH250065   1.121   0.087  12.213
 9525TIP3    H150066   1.141   0.005  12.258
 9525TIP3    H250067   1.099   0.060  12.124
 9526TIP3   OH250068   3.233   5.729   2.367
 9526TIP3    H150069   3.318   5.752   2.330
 9526TIP3    H250070   3.172   5.733   2.293
 9527TIP3   OH250071   3.073   6.142   5.822
 9527TIP3    H150072   3.055   6.220   5.770
 9527TIP3    H250073   3.082   6.175   5.912
 9528TIP3   OH250074   3.106   1.694   3.542
 9528TIP3    H150075   3.175   1.650   3.493
 9528TIP3    H250076   3.024   1.658   3.508
 9529TIP3   OH250077   5.314   4.335   5.471
 9529TIP3    H150078   5.294   4.429   5.464
 9529TIP3    H250079   5.405   4.332   5.498
 9530TIP3   OH250080   6.612   1.985   4.073
 9530TIP3    H150081   6.655   2.065   4.102
 9530TIP3    H250082   6.523   2.012   4.049
 9531TIP3   OH250083   1.467   4.612   3.930
 9531TIP3    H150084   1.400   4.571   3.874
 9531TIP3    H250085   1.528   4.541   3.950
 9532TIP3   OH250086   2.449   5.787  13.165
 9532TIP3    H150087   2.482   5.751  13.082
 9532TIP3    H250088   2.374   5.841  13.139
 9533TIP3   OH250089   4.222   3.976   0.427
 9533TIP3    H150090   4.137   4.020   0.420
 9533TIP3    H250091   4.200   3.883   0.428
 9534TIP3   OH250092   2.432   1.998   2.172
 9534TIP3    H150093   2.420   1.903   2.179
 9534TIP3    H250094   2.348   2.030   2.137
 9535TIP3   OH250095   1.462   2.572  12.641
 9535TIP3    H150096   1.492   2.597  12.554
 9535TIP3    H250097   1.522   2.616  12.701
 9536TIP3   OH250098   3.714   5.100   5.947
 9536TIP3    H150099   3.772   5.174   5.965
 9536TIP3    H250100   3.772   5.032   5.913
 9537TIP3   OH250101   2.899   2.387   4.322
 9537TIP3    H150102   2.813   2.353   4.296
 9537TIP3    H250103   2.930   2.326   4.388
 9538TIP3   OH250104   3.966   1.979  15.933
 9538TIP3    H150105   4.061   1.982  15.925
 9538TIP3    H250106   3.942   2.068  15.961
 9539TIP3   OH250107   6.527   1.562   4.791
 9539TIP3    H150108   6.482   1.492   4.743
 9539TIP3    H250109   6.578   1.607   4.724
 9540TIP3   OH250110   3.491   0.527   1.763
 9540TIP3    H150111   3.471   0.570   1.847
 9540TIP3    H250112   3.584   0.505   1.769
 9541TIP3   OH250113   3.241   5.647  12.467
 9541TIP3    H150114   3.214   5.739  12.466
 9541TIP3    H250115   3.334   5.649  12.442
 9542TIP3   OH250116   2.215   0.936  11.516
 9542TIP3    H150117   2.267   0.866  11.476
 9542TIP3    H250118   2.262   1.016  11.492
 9543TIP3   OH250119   2.745   2.130   2.683
 9543TIP3    H150120   2.754   2.061   2.749
 9543TIP3    H250121   2.745   2.083   2.600
 9544TIP3   OH250122   2.014   3.741   1.938
 9544TIP3    H150123   1.944   3.730   2.003
 9544TIP3    H250124   1.968   3.742   1.854
 9545TIP3   OH250125   4.632   5.259  15.165
 9545TIP3    H150126   4.687   5.181  15.176
 9545TIP3    H250127   4.655   5.315  15.239
 9546TIP3   OH250128   3.244   3.556  14.227
 9546TIP3    H150129   3.204   3.497  14.163
 9546TIP3    H250130   3.261   3.636  14.177
 9547TIP3   OH250131   5.422   0.581   1.715
 9547TIP3    H150132   5.463   0.494   1.715
 9547TIP3    H250133   5.492   0.640   1.689
 9548TIP3   OH250134   2.871   6.559  12.166
 9548TIP3    H150135   2.823   6.580  12.085
 9548TIP3    H250136   2.804   6.523  12.225
 9549TIP3   OH250137   5.992   1.027   1.706
 9549TIP3    H150138   6.032   0.992   1.626
 9549TIP3    H250139   5.915   1.076   1.676
 9550TIP3   OH250140   6.673   2.229   1.877
 9550TIP3    H150141   6.694   2.150   1.927
 9550TIP3    H250142   6.662   2.297   1.943
 9551TIP3   OH250143   6.173   0.189   2.080
 9551TIP3    H150144   6.168   0.269   2.132
 9551TIP3    H250145   6.236   0.134   2.127
 9552TIP3   OH250146   4.209   5.459  12.182
 9552TIP3    H150147   4.219   5.431  12.273
 9552TIP3    H250148   4.152   5.536  12.187
 9553TIP3   OH250149   5.995   2.734  13.585
 9553TIP3    H150150   6.038   2.651  13.605
 9553TIP3    H250151   5.963   2.766  13.670
 9554TIP3   OH250152   4.059   0.905  17.257
 9554TIP3    H150153   3.969   0.874  17.248
 9554TIP3    H250154   4.098   0.848  17.324
 9555TIP3   OH250155   1.865   1.470  11.216
 9555TIP3    H150156   1.819   1.477  11.133
 9555TIP3    H250157   1.937   1.409  11.199
 9556TIP3   OH250158   2.404   4.720  17.267
 9556TIP3    H150159   2.430   4.659  17.197
 9556TIP3    H250160   2.376   4.799  17.220
 9557TIP3   OH250161   5.415   3.330  12.800
 9557TIP3    H150162   5.342   3.292  12.751
 9557TIP3    H250163   5.482   3.349  12.734
 9558TIP3   OH250164   2.930   5.338  15.331
 9558TIP3    H150165   2.968   5.389  15.259
 9558TIP3    H250166   2.838   5.365  15.333
 9559TIP3   OH250167   5.516   4.960  13.866
 9559TIP3    H150168   5.508   4.985  13.775
 9559TIP3    H250169   5.610   4.968  13.885
 9560TIP3   OH250170   4.999   3.688   4.357
 9560TIP3    H150171   4.983   3.681   4.263
 9560TIP3    H250172   4.971   3.777   4.379
 9561TIP3   OH250173   3.985   2.500  10.724
 9561TIP3    H150174   3.896   2.468  10.705
 9561TIP3    H250175   4.021   2.524  10.639
 9562TIP3   OH250176   0.668   2.803  11.105
 9562TIP3    H150177   0.718   2.817  11.025
 9562TIP3    H250178   0.651   2.891  11.138
 9563TIP3   OH250179   5.776   6.632  14.069
 9563TIP3    H150180   5.800   6.723  14.087
 9563TIP3    H250181   5.693   6.620  14.116
 9564TIP3   OH250182   0.942   2.881  13.809
 9564TIP3    H150183   0.974   2.846  13.893
 9564TIP3    H250184   0.993   2.961  13.795
 9565TIP3   OH250185   2.539   0.438  11.809
 9565TIP3    H150186   2.449   0.459  11.784
 9565TIP3    H250187   2.556   0.353  11.768
 9566TIP3   OH250188   4.464   3.337   2.517
 9566TIP3    H150189   4.372   3.351   2.539
 9566TIP3    H250190   4.469   3.355   2.423
 9567TIP3   OH250191   1.871   3.699   4.940
 9567TIP3    H150192   1.795   3.641   4.932
 9567TIP3    H250193   1.922   3.662   5.012
 9568TIP3   OH250194   5.033   2.952   4.848
 9568TIP3    H150195   5.123   2.978   4.831
 9568TIP3    H250196   5.009   3.000   4.928
 9569TIP3   OH250197   5.230   3.352  10.514
 9569TIP3    H150198   5.148   3.373  10.469
 9569TIP3    H250199   5.289   3.424  10.492
 9570TIP3   OH250200   1.437   5.350   6.480
 9570TIP3    H150201   1.384   5.400   6.417
 9570TIP3    H250202   1.388   5.270   6.494
 9571TIP3   OH250203   5.192   4.884   3.005
 9571TIP3    H150204   5.276   4.851   3.036
 9571TIP3    H250205   5.131   4.863   3.075
 9572TIP3   OH250206   6.752   3.767   3.889
 9572TIP3    H150207   6.841   3.762   3.854
 9572TIP3    H250208   6.709   3.832   3.833
 9573TIP3   OH250209   5.932   0.845   0.675
 9573TIP3    H150210   5.893   0.763   0.705
 9573TIP3    H250211   5.900   0.856   0.586
 9574TIP3   OH250212   0.063   2.223   5.868
 9574TIP3    H150213   0.004   2.153   5.894
 9574TIP3    H250214   0.037   2.245   5.779
 9575TIP3   OH250215   5.283   5.919  13.244
 9575TIP3    H150216   5.338   5.855  13.199
 9575TIP3    H250217   5.264   5.985  13.177
 9576TIP3   OH250218   6.504   4.543   1.823
 9576TIP3    H150219   6.573   4.526   1.887
 9576TIP3    H250220   6.458   4.460   1.814
 9577TIP3   OH250221   2.221   2.320  12.143
 9577TIP3    H150222   2.272   2.270  12.079
 9577TIP3    H250223   2.258   2.408  12.141
 9578TIP3   OH250224   1.826   4.200  14.915
 9578TIP3    H150225   1.797   4.256  14.843
 9578TIP3    H250226   1.785   4.237  14.993
 9579TIP3   OH250227   3.519   5.094  16.476
 9579TIP3    H150228   3.562   5.021  16.520
 9579TIP3    H250229   3.580   5.167  16.485
 9580TIP3   OH250230   3.730   3.074  12.582
 9580TIP3    H150231   3.729   3.165  12.611
 9580TIP3    H250232   3.820   3.059  12.552
 9581TIP3   OH250233   5.728   4.526  16.366
 9581TIP3    H150234   5.764   4.600  16.414
 9581TIP3    H250235   5.804   4.479  16.332
 9582TIP3   OH250236   2.262   6.105  13.900
 9582TIP3    H150237   2.167   6.115  13.899
 9582TIP3    H250238   2.293   6.171  13.961
 9583TIP3   OH250239   2.654   3.061   2.886
 9583TIP3    H150240   2.600   3.019   2.953
 9583TIP3    H250241   2.717   2.994   2.861
 9584TIP3   OH250242   6.655   0.409   3.577
 9584TIP3    H150243   6.588   0.384   3.640
 9584TIP3    H250244   6.701   0.328   3.557
 9585TIP3   OH250245   2.195   3.913   3.523
 9585TIP3    H150246   2.285   3.881   3.517
 9585TIP3    H250247   2.173   3.908   3.616
 9586TIP3   OH250248   6.109   2.294  11.783
 9586TIP3    H150249   6.019   2.306  11.754
 9586TIP3    H250250   6.161   2.350  11.725
 9587TIP3   OH250251   0.555   0.213   0.866
 9587TIP3    H150252   0.521   0.144   0.809
 9587TIP3    H250253   0.621   0.169   0.919
 9588TIP3   OH250254   2.237   3.111  14.254
 9588TIP3    H150255   2.173   3.171  14.216
 9588TIP3    H250256   2.220   3.114  14.348
 9589TIP3   OH250257   6.247   4.646  11.775
 9589TIP3    H150258   6.170   4.588  11.772
 9589TIP3    H250259   6.218   4.726  11.732
 9590TIP3   OH250260   0.595   0.102  14.767
 9590TIP3    H150261   0.621   0.147  14.847
 9590TIP3    H250262   0.541   0.029  14.797
 9591TIP3   OH250263   2.459   4.546  16.630
 9591TIP3    H150264   2.368   4.534  16.603
 9591TIP3    H250265   2.453   4.567  16.723
 9592TIP3   OH250266   4.875   4.252  11.499
 9592TIP3    H150267   4.822   4.311  11.446
 9592TIP3    H250268   4.963   4.290  11.498
 9593TIP3   OH250269   0.475   4.663  14.448
 9593TIP3    H150270   0.532   4.718  14.395
 9593TIP3    H250271   0.455   4.588  14.392
 9594TIP3   OH250272   6.635   4.906  16.513
 9594TIP3    H150273   6.602   4.874  16.429
 9594TIP3    H250274   6.666   4.995  16.494
 9595TIP3   OH250275   5.303   6.531   2.770
 9595TIP3    H150276   5.307   6.483   2.853
 9595TIP3    H250277   5.322   6.622   2.793
 9596TIP3   OH250278   0.786   2.441   4.635
 9596TIP3    H150279   0.849   2.492   4.585
 9596TIP3    H250280   0.803   2.350   4.610
 9597TIP3   OH250281   4.053   3.182   6.060
 9597TIP3    H150282   3.962   3.207   6.045
 9597TIP3    H250283   4.070   3.204   6.152
 9598TIP3   OH250284   0.241   2.894   2.131
 9598TIP3    H150285   0.213   2.926   2.045
 9598TIP3    H250286   0.285   2.811   2.112
 9599TIP3   OH250287   6.280   2.425   3.511
 9599TIP3    H150288   6.249   2.510   3.479
 9599TIP3    H250289   6.309   2.442   3.600
 9600TIP3   OH250290   1.640   6.738  11.106
 9600TIP3    H150291   1.562   6.756  11.159
 9600TIP3    H250292   1.690   6.674  11.157
 9601TIP3   OH250293   5.107   4.484   0.649
 9601TIP3    H150294   5.142   4.567   0.615
 9601TIP3    H250295   5.018   4.479   0.615
 9602TIP3   OH250296   4.983   6.551   3.772
 9602TIP3    H150297   5.071   6.577   3.798
 9602TIP3    H250298   4.929   6.570   3.850
 9603TIP3   OH250299   1.790   1.193  11.071
 9603TIP3    H150300   1.861   1.177  11.010
 9603TIP3    H250301   1.777   1.288  11.071
 9604TIP3   OH250302   4.135   2.203   0.884
 9604TIP3    H150303   4.186   2.284   0.879
 9604TIP3    H250304   4.112   2.184   0.793
 9605TIP3   OH250305   4.517   6.398  12.553
 9605TIP3    H150306   4.537   6.475  12.606
 9605TIP3    H250307   4.500   6.433  12.465
 9606TIP3   OH250308   1.069   4.718  16.384
 9606TIP3    H150309   1.120   4.717  16.303
 9606TIP3    H250310   1.045   4.809  16.397
 9607TIP3   OH250311   4.803   1.216   4.167
 9607TIP3    H150312   4.772   1.247   4.252
 9607TIP3    H250313   4.794   1.291   4.109
 9608TIP3   OH250314   2.938   0.755   2.556
 9608TIP3    H150315   2.980   0.808   2.488
 9608TIP3    H250316   2.960   0.665   2.534
 9609TIP3   OH250317   4.510   6.463   2.585
 9609TIP3    H150318   4.532   6.432   2.673
 9609TIP3    H250319   4.420   6.495   2.593
 9610TIP3   OH250320   5.638   2.366   4.627
 9610TIP3    H150321   5.679   2.452   4.631
 9610TIP3    H250322   5.640   2.342   4.535
 9611TIP3   OH250323   2.270   5.756   3.584
 9611TIP3    H150324   2.302   5.800   3.505
 9611TIP3    H250325   2.228   5.676   3.552
 9612TIP3   OH250326   0.689   1.763  14.033
 9612TIP3    H150327   0.655   1.845  13.997
 9612TIP3    H250328   0.719   1.714  13.957
 9613TIP3   OH250329   3.781   2.547  12.597
 9613TIP3    H150330   3.700   2.546  12.546
 9613TIP3    H250331   3.756   2.586  12.680
 9614TIP3   OH250332   4.566   5.372   3.770
 9614TIP3    H150333   4.525   5.286   3.775
 9614TIP3    H250334   4.652   5.361   3.810
 9615TIP3   OH250335   0.835   0.157  11.321
 9615TIP3    H150336   0.931   0.157  11.325
 9615TIP3    H250337   0.807   0.117  11.403
 9616TIP3   OH250338   1.375   2.329  12.068
 9616TIP3    H150339   1.298   2.282  12.099
 9616TIP3    H250340   1.389   2.296  11.979
 9617TIP3   OH250341   4.241   4.315  15.770
 9617TIP3    H150342   4.164   4.332  15.715
 9617TIP3    H250343   4.315   4.320  15.710
 9618TIP3   OH250344   1.597   3.710  12.387
 9618TIP3    H150345   1.685   3.674  12.375
 9618TIP3    H250346   1.538   3.637  12.371
 9619TIP3   OH250347   2.688   6.503   5.505
 9619TIP3    H150348   2.672   6.494   5.411
 9619TIP3    H250349   2.611   6.463   5.546
 9620TIP3   OH250350   3.518   0.977   5.661
 9620TIP3    H150351   3.523   0.896   5.713
 9620TIP3    H250352   3.585   1.034   5.699
 9621TIP3   OH250353   1.465   6.297   1.912
 9621TIP3    H150354   1.416   6.363   1.961
 9621TIP3    H250355   1.402   6.261   1.850
 9622TIP3   OH250356   1.691   6.018  11.319
 9622TIP3    H150357   1.685   5.990  11.228
 9622TIP3    H250358   1.664   5.941  11.370
 9623TIP3   OH250359   5.044   1.090   1.885
 9623TIP3    H150360   5.121   1.103   1.829
 9623TIP3    H250361   4.994   1.171   1.877
 9624TIP3   OH250362   3.373   4.073  14.151
 9624TIP3    H150363   3.352   4.046  14.240
 9624TIP3    H250364   3.400   3.992  14.107
 9625TIP3   OH250365   2.682   4.647  12.745
 9625TIP3    H150366   2.598   4.645  12.699
 9625TIP3    H250367   2.659   4.645  12.837
 9626TIP3   OH250368   2.523   6.731  13.610
 9626TIP3    H150369   2.507   6.824  13.624
 9626TIP3    H250370   2.525   6.720  13.515
 9627TIP3   OH250371   0.714   1.972   0.897
 9627TIP3    H150372   0.734   2.044   0.957
 9627TIP3    H250373   0.658   2.012   0.830
 9628TIP3   OH250374   1.792   6.059   2.161
 9628TIP3    H150375   1.835   5.997   2.102
 9628TIP3    H250376   1.755   6.004   2.230
 9629TIP3   OH250377   4.450   1.806  10.511
 9629TIP3    H150378   4.461   1.737  10.577
 9629TIP3    H250379   4.364   1.788  10.472
 9630TIP3   OH250380   1.685   4.409   2.244
 9630TIP3    H150381   1.592   4.388   2.237
 9630TIP3    H250382   1.695   4.449   2.330
 9631TIP3   OH250383   0.316   6.655   5.979
 9631TIP3    H150384   0.249   6.642   5.912
 9631TIP3    H250385   0.334   6.749   5.978
 9632TIP3   OH250386   1.288   4.689   5.442
 9632TIP3    H150387   1.215   4.686   5.504
 9632TIP3    H250388   1.358   4.734   5.489
 9633TIP3   OH250389   1.184   6.749  16.535
 9633TIP3    H150390   1.089   6.756  16.527
 9633TIP3    H250391   1.207   6.812  16.603
 9634TIP3   OH250392   1.035   3.096  16.226
 9634TIP3    H150393   1.003   3.006  16.216
 9634TIP3    H250394   1.126   3.092  16.196
 9635TIP3   OH250395   2.167   4.579  15.470
 9635TIP3    H150396   2.113   4.511  15.510
 9635TIP3    H250397   2.150   4.657  15.522
 9636TIP3   OH250398   5.879   5.962  13.779
 9636TIP3    H150399   5.946   5.933  13.841
 9636TIP3    H250400   5.905   6.051  13.756
 9637TIP3   OH250401   2.182   0.784   1.888
 9637TIP3    H150402   2.242   0.847   1.928
 9637TIP3    H250403   2.104   0.834   1.867
 9638TIP3   OH250404   3.756   3.705   5.055
 9638TIP3    H150405   3.727   3.682   5.143
 9638TIP3    H250406   3.782   3.797   5.062
 9639TIP3   OH250407   4.353   0.379   4.057
 9639TIP3    H150408   4.367   0.412   3.969
 9639TIP3    H250409   4.384   0.449   4.114
 9640TIP3   OH250410   2.740   6.592   3.285
 9640TIP3    H150411   2.747   6.669   3.228
 9640TIP3    H250412   2.735   6.628   3.374
 9641TIP3   OH250413   4.074   5.216  12.128
 9641TIP3    H150414   4.135   5.145  12.146
 9641TIP3    H250415   4.127   5.296  12.137
 9642TIP3   OH250416   1.183   0.403  16.135
 9642TIP3    H150417   1.121   0.344  16.179
 9642TIP3    H250418   1.269   0.368  16.157
 9643TIP3   OH250419   1.381   6.065  13.375
 9643TIP3    H150420   1.409   6.126  13.443
 9643TIP3    H250421   1.287   6.081  13.364
 9644TIP3   OH250422   4.364   4.186   1.078
 9644TIP3    H150423   4.285   4.226   1.043
 9644TIP3    H250424   4.346   4.092   1.076
 9645TIP3   OH250425   5.514   1.793   2.664
 9645TIP3    H150426   5.592   1.848   2.654
 9645TIP3    H250427   5.542   1.706   2.634
 9646TIP3   OH250428   3.235   6.307   4.381
 9646TIP3    H150429   3.147   6.339   4.403
 9646TIP3    H250430   3.292   6.382   4.396
 9647TIP3   OH250431   1.254   0.843   5.257
 9647TIP3    H150432   1.247   0.784   5.332
 9647TIP3    H250433   1.237   0.787   5.181
 9648TIP3   OH250434   4.445   1.815   2.541
 9648TIP3    H150435   4.360   1.827   2.497
 9648TIP3    H250436   4.430   1.847   2.630
 9649TIP3   OH250437   1.818   5.332   5.121
 9649TIP3    H150438   1.851   5.315   5.209
 9649TIP3    H250439   1.785   5.247   5.092
 9650TIP3   OH250440   2.243   5.175   6.239
 9650TIP3    H150441   2.223   5.243   6.175
 9650TIP3    H250442   2.211   5.209   6.323
 9651TIP3   OH250443   5.972   3.312   3.147
 9651TIP3    H150444   5.937   3.290   3.233
 9651TIP3    H250445   6.061   3.279   3.148
 9652TIP3   OH250446   5.824   3.343   6.422
 9652TIP3    H150447   5.772   3.419   6.446
 9652TIP3    H250448   5.764   3.269   6.430
 9653TIP3   OH250449   2.887   5.536   3.557
 9653TIP3    H150450   2.923   5.577   3.636
 9653TIP3    H250451   2.932   5.451   3.552
 9654TIP3   OH250452   4.836   5.761  14.618
 9654TIP3    H150453   4.754   5.794  14.581
 9654TIP3    H250454   4.901   5.777  14.550
 9655TIP3   OH250455   1.290   0.060   1.201
 9655TIP3    H150456   1.259   0.103   1.122
 9655TIP3    H250457   1.249  -0.026   1.200
 9656TIP3   OH250458   2.031   2.959  16.992
 9656TIP3    H150459   1.936   2.943  16.990
 9656TIP3    H250460   2.070   2.872  17.002
 9657TIP3   OH250461   5.751   4.400   0.802
 9657TIP3    H150462   5.758   4.478   0.857
 9657TIP3    H250463   5.764   4.432   0.713
 9658TIP3   OH250464   2.677   2.689  15.183
 9658TIP3    H150465   2.761   2.646  15.169
 9658TIP3    H250466   2.700   2.777  15.213
 9659TIP3   OH250467   0.877   1.516   1.224
 9659TIP3    H150468   0.972   1.524   1.220
 9659TIP3    H250469   0.862   1.423   1.239
 9660TIP3   OH250470   1.814   6.567  16.463
 9660TIP3    H150471   1.747   6.616  16.511
 9660TIP3    H250472   1.885   6.630  16.451
 9661TIP3   OH250473   1.677   0.564   3.500
 9661TIP3    H150474   1.626   0.521   3.431
 9661TIP3    H250475   1.616   0.576   3.572
 9662TIP3   OH250476   4.841   6.574   4.417
 9662TIP3    H150477   4.891   6.650   4.388
 9662TIP3    H250478   4.758   6.611   4.449
 9663TIP3   OH250479   0.026   6.150   5.795
 9663TIP3    H150480   0.026   6.234   5.749
 9663TIP3    H250481   0.034   6.084   5.726
 9664TIP3   OH250482   2.300   3.987  16.233
 9664TIP3    H150483   2.327   4.060  16.177
 9664TIP3    H250484   2.282   3.916  16.171
 9665TIP3   OH250485   5.082   5.207   1.415
 9665TIP3    H150486   5.105   5.223   1.323
 9665TIP3    H250487   5.166   5.206   1.461
 9666TIP3   OH250488   0.362   5.565  14.392
 9666TIP3    H150489   0.392   5.616  14.468
 9666TIP3    H250490   0.282   5.609  14.365
 9667TIP3   OH250491   5.645   2.946  11.143
 9667TIP3    H150492   5.728   2.937  11.097
 9667TIP3    H250493   5.602   2.860  11.133
 9668TIP3   OH250494   4.708   1.966   0.555
 9668TIP3    H150495   4.626   1.920   0.573
 9668TIP3    H250496   4.776   1.908   0.589
 9669TIP3   OH250497   3.648   2.775   3.576
 9669TIP3    H150498   3.730   2.742   3.614
 9669TIP3    H250499   3.608   2.826   3.646
 9670TIP3   OH250500   6.642   3.957   4.080
 9670TIP3    H150501   6.688   3.887   4.033
 9670TIP3    H250502   6.700   3.979   4.153
 9671TIP3   OH250503   2.018   0.896  11.237
 9671TIP3    H150504   1.980   0.828  11.182
 9671TIP3    H250505   2.100   0.858  11.268
 9672TIP3   OH250506   3.949   4.013   6.185
 9672TIP3    H150507   3.930   4.100   6.148
 9672TIP3    H250508   3.865   3.967   6.179
 9673TIP3   OH250509   6.271   2.288  12.047
 9673TIP3    H150510   6.248   2.245  11.965
 9673TIP3    H250511   6.187   2.302  12.091
 9674TIP3   OH250512   6.343   3.088   1.103
 9674TIP3    H150513   6.248   3.098   1.097
 9674TIP3    H250514   6.370   3.058   1.016
 9675TIP3   OH250515   2.196   4.985  16.548
 9675TIP3    H150516   2.180   4.943  16.463
 9675TIP3    H250517   2.291   4.993  16.553
 9676TIP3   OH250518   3.829   5.269  17.093
 9676TIP3    H150519   3.769   5.202  17.061
 9676TIP3    H250520   3.777   5.321  17.154
 9677TIP3   OH250521   0.002   0.435  11.537
 9677TIP3    H150522   0.085   0.413  11.580
 9677TIP3    H250523  -0.058   0.366  11.565
 9678TIP3   OH250524   4.392   0.406   5.093
 9678TIP3    H150525   4.379   0.350   5.170
 9678TIP3    H250526   4.354   0.490   5.119
 9679TIP3   OH250527   5.709   4.329   1.927
 9679TIP3    H150528   5.648   4.397   1.956
 9679TIP3    H250529   5.674   4.299   1.844
 9680TIP3   OH250530   0.018   5.716  15.234
 9680TIP3    H150531   0.092   5.727  15.294
 9680TIP3    H250532   0.035   5.777  15.163
 9681TIP3   OH250533   6.812   5.853   3.885
 9681TIP3    H150534   6.752   5.905   3.833
 9681TIP3    H250535   6.787   5.762   3.867
 9682TIP3   OH250536   2.412   6.596   5.317
 9682TIP3    H150537   2.351   6.553   5.257
 9682TIP3    H250538   2.461   6.657   5.261
 9683TIP3   OH250539   2.040   4.341  14.665
 9683TIP3    H150540   2.088   4.385  14.595
 9683TIP3    H250541   1.980   4.282  14.619
 9684TIP3   OH250542   4.539   5.752   2.760
 9684TIP3    H150543   4.497   5.806   2.693
 9684TIP3    H250544   4.628   5.787   2.767
 9685TIP3   OH250545   0.680   1.993   6.431
 9685TIP3    H150546   0.638   1.932   6.370
 9685TIP3    H250547   0.751   2.032   6.381
 9686TIP3   OH250548   5.534   6.112  13.814
 9686TIP3    H150549   5.536   6.131  13.720
 9686TIP3    H250550   5.476   6.178  13.850
 9687TIP3   OH250551   0.830   2.357  11.238
 9687TIP3    H150552   0.736   2.340  11.238
 9687TIP3    H250553   0.837   2.452  11.225
 9688TIP3   OH250554   5.077   0.564   0.601
 9688TIP3    H150555   5.134   0.640   0.599
 9688TIP3    H250556   5.108   0.512   0.676
 9689TIP3   OH250557   4.001   6.753  14.662
 9689TIP3    H150558   3.970   6.785  14.747
 9689TIP3    H250559   4.085   6.797  14.649
 9690TIP3   OH250560   3.093   2.935   2.421
 9690TIP3    H150561   3.038   2.865   2.388
 9690TIP3    H250562   3.182   2.901   2.415
 9691TIP3   OH250563   2.967   0.575   0.280
 9691TIP3    H150564   3.058   0.571   0.310
 9691TIP3    H250565   2.972   0.623   0.197
 9692TIP3   OH250566   3.185   0.564   3.520
 9692TIP3    H150567   3.159   0.472   3.513
 9692TIP3    H250568   3.209   0.589   3.431
 9693TIP3   OH250569   5.639   4.172   1.653
 9693TIP3    H150570   5.552   4.167   1.612
 9693TIP3    H250571   5.662   4.081   1.671
 9694TIP3   OH250572   6.742   3.983   1.542
 9694TIP3    H150573   6.677   3.955   1.608
 9694TIP3    H250574   6.780   3.901   1.511
 9695TIP3   OH250575   2.715   2.240   3.206
 9695TIP3    H150576   2.706   2.313   3.268
 9695TIP3    H250577   2.731   2.163   3.261
 9696TIP3   OH250578   6.198   1.455   2.949
 9696TIP3    H150579   6.219   1.367   2.918
 9696TIP3    H250580   6.264   1.472   3.017
 9697TIP3   OH250581   1.381   1.922   3.651
 9697TIP3    H150582   1.362   1.996   3.593
 9697TIP3    H250583   1.447   1.872   3.604
 9698TIP3   OH250584   3.626   5.709   3.136
 9698TIP3    H150585   3.684   5.634   3.145
 9698TIP3    H250586   3.564   5.684   3.067
 9699TIP3   OH250587   4.226   3.453  15.051
 9699TIP3    H150588   4.293   3.511  15.016
 9699TIP3    H250589   4.251   3.439  15.142
 9700TIP3   OH250590   2.158   2.265  16.093
 9700TIP3    H150591   2.124   2.179  16.116
 9700TIP3    H250592   2.249   2.263  16.123
 9701TIP3   OH250593   3.988   2.588  12.213
 9701TIP3    H150594   4.061   2.532  12.186
 9701TIP3    H250595   3.972   2.644  12.138
 9702TIP3   OH250596   2.899   3.234   4.159
 9702TIP3    H150597   2.922   3.143   4.141
 9702TIP3    H250598   2.834   3.256   4.091
 9703TIP3   OH250599   3.179   5.276   0.097
 9703TIP3    H150600   3.121   5.234   0.032
 9703TIP3    H250601   3.119   5.305   0.166
 9704TIP3   OH250602   0.625   5.974  15.005
 9704TIP3    H150603   0.590   6.000  14.920
 9704TIP3    H250604   0.552   5.933  15.050
 9705TIP3   OH250605   6.638   3.750   4.810
 9705TIP3    H150606   6.585   3.746   4.730
 9705TIP3    H250607   6.634   3.661   4.846
 9706TIP3   OH250608   0.197   1.029   6.921
 9706TIP3    H150609   0.107   1.060   6.928
 9706TIP3    H250610   0.244   1.103   6.881
 9707TIP3   OH250611   1.541   1.359   2.066
 9707TIP3    H150612   1.468   1.314   2.025
 9707TIP3    H250613   1.619   1.317   2.029
 9708TIP3   OH250614   1.579   6.765   3.035
 9708TIP3    H150615   1.609   6.694   3.091
 9708TIP3    H250616   1.484   6.757   3.035
 9709TIP3   OH250617   4.679   5.336  15.441
 9709TIP3    H150618   4.710   5.246  15.457
 9709TIP3    H250619   4.587   5.334  15.467
 9710TIP3   OH250620   6.484   4.136   0.981
 9710TIP3    H150621   6.390   4.156   0.980
 9710TIP3    H250622   6.489   4.043   1.007
 9711TIP3   OH250623   2.772   0.648  12.582
 9711TIP3    H150624   2.859   0.647  12.541
 9711TIP3    H250625   2.758   0.557  12.610
 9712TIP3   OH250626   1.489   4.322  12.527
 9712TIP3    H150627   1.446   4.354  12.607
 9712TIP3    H250628   1.459   4.232  12.519
 9713TIP3   OH250629   6.704   1.351  13.028
 9713TIP3    H150630   6.773   1.414  13.012
 9713TIP3    H250631   6.658   1.344  12.944
 9714TIP3   OH250632   3.766   4.149   6.424
 9714TIP3    H150633   3.861   4.139   6.427
 9714TIP3    H250634   3.735   4.070   6.380
 9715TIP3   OH250635   3.919   0.128   1.658
 9715TIP3    H150636   3.958   0.090   1.737
 9715TIP3    H250637   3.862   0.058   1.624
 9716TIP3   OH250638   5.215   2.248   3.221
 9716TIP3    H150639   5.148   2.286   3.278
 9716TIP3    H250640   5.250   2.322   3.172
 9717TIP3   OH250641   1.745   5.533  11.519
 9717TIP3    H150642   1.806   5.467  11.488
 9717TIP3    H250643   1.762   5.539  11.613
 9718TIP3   OH250644   1.285   1.145  15.098
 9718TIP3    H150645   1.234   1.084  15.151
 9718TIP3    H250646   1.372   1.104  15.093
 9719TIP3   OH250647   4.329   3.475  10.888
 9719TIP3    H150648   4.312   3.553  10.941
 9719TIP3    H250649   4.318   3.402  10.949
 9720TIP3   OH250650   2.632   0.734  13.188
 9720TIP3    H150651   2.598   0.789  13.260
 9720TIP3    H250652   2.616   0.644  13.217
 9721TIP3   OH250653   3.663   2.069  13.685
 9721TIP3    H150654   3.744   2.055  13.636
 9721TIP3    H250655   3.615   1.986  13.677
 9722TIP3   OH250656   6.364   0.408   4.009
 9722TIP3    H150657   6.399   0.488   3.968
 9722TIP3    H250658   6.427   0.340   3.986
 9723TIP3   OH250659   3.299   0.545   0.005
 9723TIP3    H150660   3.216   0.529   0.050
 9723TIP3    H250661   3.278   0.611  -0.061
 9724TIP3   OH250662   4.070   6.415   3.416
 9724TIP3    H150663   4.136   6.420   3.347
 9724TIP3    H250664   4.085   6.492   3.470
 9725TIP3   OH250665   6.053   0.983  11.818
 9725TIP3    H150666   6.060   1.038  11.740
 9725TIP3    H250667   5.967   1.004  11.855
 9726TIP3   OH250668   2.634   1.016   5.352
 9726TIP3    H150669   2.572   0.954   5.313
 9726TIP3    H250670   2.638   1.089   5.290
 9727TIP3   OH250671   5.785   5.394  10.606
 9727TIP3    H150672   5.702   5.441  10.607
 9727TIP3    H250673   5.844   5.452  10.557
 9728TIP3   OH250674   5.547   5.615  12.161
 9728TIP3    H150675   5.642   5.628  12.167
 9728TIP3    H250676   5.515   5.696  12.122
 9729TIP3   OH250677   2.239   2.296   2.278
 9729TIP3    H150678   2.185   2.362   2.322
 9729TIP3    H250679   2.258   2.232   2.347
 9730TIP3   OH250680   4.722   0.728   5.348
 9730TIP3    H150681   4.652   0.683   5.395
 9730TIP3    H250682   4.719   0.692   5.260
 9731TIP3   OH250683   3.354   2.885   2.984
 9731TIP3    H150684   3.307   2.836   3.051
 9731TIP3    H250685   3.440   2.843   2.980
 9732TIP3   OH250686   6.213   4.757   4.098
 9732TIP3    H150687   6.166   4.699   4.158
 9732TIP3    H250688   6.273   4.699   4.051
 9733TIP3   OH250689   1.258   4.943  10.694
 9733TIP3    H150690   1.273   5.028  10.735
 9733TIP3    H250691   1.306   4.948  10.612
 9734TIP3   OH250692   4.470   0.602   2.295
 9734TIP3    H150693   4.419   0.522   2.279
 9734TIP3    H250694   4.560   0.578   2.275
 9735TIP3   OH250695   3.207   3.799  14.931
 9735TIP3    H150696   3.301   3.780  14.930
 9735TIP3    H250697   3.179   3.790  14.840
 9736TIP3   OH250698   1.865   0.649  11.414
 9736TIP3    H150699   1.931   0.664  11.481
 9736TIP3    H250700   1.911   0.599  11.346
 9737TIP3   OH250701   0.446   5.950  13.936
 9737TIP3    H150702   0.402   5.934  14.019
 9737TIP3    H250703   0.425   5.873  13.882
 9738TIP3   OH250704   4.618   0.226  12.148
 9738TIP3    H150705   4.528   0.248  12.170
 9738TIP3    H250706   4.665   0.228  12.231
 9739TIP3   OH250707   5.325   5.407   5.166
 9739TIP3    H150708   5.312   5.346   5.239
 9739TIP3    H250709   5.272   5.370   5.095
 9740TIP3   OH250710   3.059   5.416   1.332
 9740TIP3    H150711   3.117   5.491   1.319
 9740TIP3    H250712   3.016   5.404   1.248
 9741TIP3   OH250713   1.995   0.274  16.137
 9741TIP3    H150714   1.911   0.314  16.157
 9741TIP3    H250715   1.977   0.180  16.131
 9742TIP3   OH250716   6.294   1.488   4.641
 9742TIP3    H150717   6.278   1.432   4.565
 9742TIP3    H250718   6.297   1.577   4.605
 9743TIP3   OH250719   6.158   1.420   5.416
 9743TIP3    H150720   6.226   1.440   5.480
 9743TIP3    H250721   6.200   1.364   5.352
 9744TIP3   OH250722   4.098   1.119  11.780
 9744TIP3    H150723   4.123   1.187  11.718
 9744TIP3    H250724   4.074   1.044  11.725
 9745TIP3   OH250725   0.157   0.494   1.413
 9745TIP3    H150726   0.102   0.499   1.491
 9745TIP3    H250727   0.204   0.411   1.421
 9746TIP3   OH250728   0.953   3.177   2.019
 9746TIP3    H150729   1.013   3.155   1.948
 9746TIP3    H250730   1.008   3.218   2.086
 9747TIP3   OH250731   4.040   5.425   4.008
 9747TIP3    H150732   4.134   5.441   4.006
 9747TIP3    H250733   4.000   5.512   4.008
 9748TIP3   OH250734   3.302   0.983  14.340
 9748TIP3    H150735   3.301   0.927  14.262
 9748TIP3    H250736   3.211   0.986  14.369
 9749TIP3   OH250737   5.375   1.968  15.555
 9749TIP3    H150738   5.422   1.939  15.477
 9749TIP3    H250739   5.428   1.939  15.629
 9750TIP3   OH250740   1.244   0.723   4.480
 9750TIP3    H150741   1.291   0.795   4.520
 9750TIP3    H250742   1.275   0.721   4.389
 9751TIP3   OH250743   2.312   2.412  15.276
 9751TIP3    H150744   2.243   2.464  15.234
 9751TIP3    H250745   2.374   2.477  15.309
 9752TIP3   OH250746   2.879   2.847  16.899
 9752TIP3    H150747   2.959   2.842  16.846
 9752TIP3    H250748   2.823   2.907  16.851
 9753TIP3   OH250749   1.203   4.225   4.146
 9753TIP3    H150750   1.184   4.200   4.236
 9753TIP3    H250751   1.212   4.320   4.149
 9754TIP3   OH250752   1.660   0.816   5.226
 9754TIP3    H150753   1.676   0.911   5.229
 9754TIP3    H250754   1.748   0.778   5.223
 9755TIP3   OH250755   3.943   5.805  14.952
 9755TIP3    H150756   4.031   5.772  14.930
 9755TIP3    H250757   3.886   5.728  14.943
 9756TIP3   OH250758   4.941   5.894  15.914
 9756TIP3    H150759   4.921   5.831  15.983
 9756TIP3    H250760   4.942   5.842  15.834
 9757TIP3   OH250761   2.742   5.669  15.592
 9757TIP3    H150762   2.679   5.727  15.634
 9757TIP3    H250763   2.706   5.653  15.504
 9758TIP3   OH250764   6.637   5.664  16.715
 9758TIP3    H150765   6.637   5.736  16.777
 9758TIP3    H250766   6.596   5.700  16.636
 9759TIP3   OH250767   4.330   3.715   3.278
 9759TIP3    H150768   4.241   3.749   3.268
 9759TIP3    H250769   4.353   3.680   3.192
 9760TIP3   OH250770   2.739   0.805   6.096
 9760TIP3    H150771   2.791   0.885   6.089
 9760TIP3    H250772   2.785   0.753   6.161
 9761TIP3   OH250773   1.060   1.141   2.869
 9761TIP3    H150774   1.108   1.197   2.931
 9761TIP3    H250775   1.007   1.203   2.818
 9762TIP3   OH250776   6.025   2.723  11.221
 9762TIP3    H150777   5.977   2.798  11.255
 9762TIP3    H250778   5.982   2.702  11.138
 9763TIP3   OH250779   5.895   5.833   4.596
 9763TIP3    H150780   5.823   5.804   4.541
 9763TIP3    H250781   5.942   5.753   4.618
 9764TIP3   OH250782   3.965   2.160  13.249
 9764TIP3    H150783   3.942   2.075  13.212
 9764TIP3    H250784   3.893   2.218  13.225
 9765TIP3   OH250785   0.798   1.388   1.555
 9765TIP3    H150786   0.781   1.330   1.482
 9765TIP3    H250787   0.712   1.400   1.597
 9766TIP3   OH250788   6.224   5.005  13.535
 9766TIP3    H150789   6.206   4.946  13.609
 9766TIP3    H250790   6.315   5.032  13.547
 9767TIP3   OH250791   5.943   6.618   5.672
 9767TIP3    H150792   5.916   6.580   5.756
 9767TIP3    H250793   6.034   6.645   5.686
 9768TIP3   OH250794   6.106   4.191   1.825
 9768TIP3    H150795   6.032   4.202   1.766
 9768TIP3    H250796   6.166   4.133   1.778
 9769TIP3   OH250797   0.696   0.830  15.088
 9769TIP3    H150798   0.696   0.758  15.151
 9769TIP3    H250799   0.625   0.888  15.117
 9770TIP3   OH250800   2.575   3.091  12.867
 9770TIP3    H150801   2.658   3.125  12.834
 9770TIP3    H250802   2.600   3.027  12.934
 9771TIP3   OH250803   2.209   3.120   5.601
 9771TIP3    H150804   2.215   3.212   5.578
 9771TIP3    H250805   2.158   3.118   5.683
 9772TIP3   OH250806   3.513   0.077   3.731
 9772TIP3    H150807   3.587   0.135   3.715
 9772TIP3    H250808   3.507   0.073   3.827
 9773TIP3   OH250809   6.300   2.456  16.980
 9773TIP3    H150810   6.386   2.414  16.982
 9773TIP3    H250811   6.252   2.410  16.912
 9774TIP3   OH250812   6.104   6.355  14.801
 9774TIP3    H150813   6.082   6.277  14.750
 9774TIP3    H250814   6.119   6.423  14.736
 9775TIP3   OH250815   0.351   4.909   0.705
 9775TIP3    H150816   0.353   4.887   0.612
 9775TIP3    H250817   0.420   4.856   0.745
 9776TIP3   OH250818   1.568   3.607  16.761
 9776TIP3    H150819   1.550   3.563  16.844
 9776TIP3    H250820   1.618   3.685  16.785
 9777TIP3   OH250821   0.257   1.733  14.025
 9777TIP3    H150822   0.193   1.683  14.077
 9777TIP3    H250823   0.337   1.680  14.029
 9778TIP3   OH250824   2.977   1.487  16.728
 9778TIP3    H150825   2.969   1.469  16.634
 9778TIP3    H250826   2.972   1.583  16.733
 9779TIP3   OH250827   5.456   5.517   2.250
 9779TIP3    H150828   5.416   5.532   2.336
 9779TIP3    H250829   5.415   5.581   2.193
 9780TIP3   OH250830   2.788   4.180   5.062
 9780TIP3    H150831   2.789   4.268   5.026
 9780TIP3    H250832   2.804   4.123   4.986
 9781TIP3   OH250833   0.803   2.739  14.904
 9781TIP3    H150834   0.760   2.745  14.819
 9781TIP3    H250835   0.757   2.668  14.949
 9782TIP3   OH250836   0.404   6.454   2.706
 9782TIP3    H150837   0.367   6.482   2.790
 9782TIP3    H250838   0.343   6.488   2.641
 9783TIP3   OH250839   1.779   4.355   0.386
 9783TIP3    H150840   1.771   4.282   0.448
 9783TIP3    H250841   1.731   4.427   0.427
 9784TIP3   OH250842   1.380   2.878  16.669
 9784TIP3    H150843   1.383   2.968  16.639
 9784TIP3    H250844   1.356   2.884  16.762
 9785TIP3   OH250845   3.568   4.296   0.562
 9785TIP3    H150846   3.622   4.230   0.605
 9785TIP3    H250847   3.541   4.354   0.634
 9786TIP3   OH250848   3.169   0.263   3.195
 9786TIP3    H150849   3.084   0.237   3.159
 9786TIP3    H250850   3.192   0.343   3.147
 9787TIP3   OH250851   4.554   4.139   4.014
 9787TIP3    H150852   4.592   4.214   3.969
 9787TIP3    H250853   4.486   4.175   4.069
 9788TIP3   OH250854   5.330   5.657   5.673
 9788TIP3    H150855   5.419   5.627   5.652
 9788TIP3    H250856   5.338   5.752   5.682
 9789TIP3   OH250857   5.209   2.912   6.488
 9789TIP3    H150858   5.230   2.831   6.536
 9789TIP3    H250859   5.294   2.952   6.471
 9790TIP3   OH250860   2.615   2.516   2.064
 9790TIP3    H150861   2.599   2.423   2.082
 9790TIP3    H250862   2.529   2.556   2.065
 9791TIP3   OH250863   2.475   4.306  11.571
 9791TIP3    H150864   2.456   4.216  11.543
 9791TIP3    H250865   2.451   4.307  11.664
 9792TIP3   OH250866   4.460   2.765   4.225
 9792TIP3    H150867   4.374   2.724   4.220
 9792TIP3    H250868   4.522   2.694   4.211
 9793TIP3   OH250869   2.280   3.776   2.926
 9793TIP3    H150870   2.277   3.869   2.950
 9793TIP3    H250871   2.325   3.774   2.842
 9794TIP3   OH250872   1.650   2.484   4.205
 9794TIP3    H150873   1.741   2.468   4.180
 9794TIP3    H250874   1.625   2.561   4.154
 9795TIP3   OH250875   3.460   4.209  15.647
 9795TIP3    H150876   3.381   4.164  15.618
 9795TIP3    H250877   3.431   4.268  15.716
 9796TIP3   OH250878   2.432   5.755  15.282
 9796TIP3    H150879   2.526   5.771  15.283
 9796TIP3    H250880   2.397   5.809  15.353
 9797TIP3   OH250881   3.589   6.699  13.878
 9797TIP3    H150882   3.595   6.772  13.817
 9797TIP3    H250883   3.540   6.734  13.952
 9798TIP3   OH250884   6.606   4.088  15.506
 9798TIP3    H150885   6.622   4.103  15.599
 9798TIP3    H250886   6.523   4.039  15.504
 9799TIP3   OH250887   2.492   3.391  16.333
 9799TIP3    H150888   2.474   3.396  16.427
 9799TIP3    H250889   2.420   3.440  16.292
 9800TIP3   OH250890   0.997   3.295   0.644
 9800TIP3    H150891   1.027   3.366   0.702
 9800TIP3    H250892   1.035   3.317   0.559
 9801TIP3   OH250893   2.210   1.013  13.378
 9801TIP3    H150894   2.226   1.031  13.471
 9801TIP3    H250895   2.182   1.097  13.342
 9802TIP3   OH250896   1.921   5.909  11.571
 9802TIP3    H150897   1.831   5.885  11.593
 9802TIP3    H250898   1.961   5.827  11.543
 9803TIP3   OH250899   2.828   6.745   0.970
 9803TIP3    H150900   2.798   6.670   0.918
 9803TIP3    H250901   2.793   6.728   1.058
 9804TIP3   OH250902   4.149   4.555  14.250
 9804TIP3    H150903   4.229   4.588  14.209
 9804TIP3    H250904   4.135   4.615  14.324
 9805TIP3   OH250905   4.340   5.944   2.152
 9805TIP3    H150906   4.286   5.965   2.076
 9805TIP3    H250907   4.416   6.001   2.144
 9806TIP3   OH250908   1.286   1.999  14.033
 9806TIP3    H150909   1.326   1.950  13.961
 9806TIP3    H250910   1.195   1.970  14.034
 9807TIP3   OH250911   5.513   6.466   1.970
 9807TIP3    H150912   5.492   6.528   2.039
 9807TIP3    H250913   5.608   6.453   1.977
 9808TIP3   OH250914   1.617   1.858   0.701
 9808TIP3    H150915   1.634   1.840   0.793
 9808TIP3    H250916   1.562   1.785   0.672
 9809TIP3   OH250917   4.638   3.165   5.205
 9809TIP3    H150918   4.611   3.242   5.255
 9809TIP3    H250919   4.614   3.091   5.261
 9810TIP3   OH250920   2.610   4.217   6.526
 9810TIP3    H150921   2.537   4.193   6.584
 9810TIP3    H250922   2.676   4.150   6.543
 9811TIP3   OH250923   3.559   5.220   5.443
 9811TIP3    H150924   3.533   5.297   5.494
 9811TIP3    H250925   3.635   5.249   5.393
 9812TIP3   OH250926   3.263   0.739   5.831
 9812TIP3    H150927   3.355   0.743   5.805
 9812TIP3    H250928   3.219   0.695   5.758
 9813TIP3   OH250929   1.817   5.860  13.870
 9813TIP3    H150930   1.869   5.940  13.883
 9813TIP3    H250931   1.797   5.829  13.958
 9814TIP3   OH250932   0.410   0.221  14.010
 9814TIP3    H150933   0.437   0.274  13.935
 9814TIP3    H250934   0.349   0.157  13.973
 9815TIP3   OH250935   0.052   5.279   2.599
 9815TIP3    H150936   0.012   5.282   2.686
 9815TIP3    H250937   0.003   5.211   2.552
 9816TIP3   OH250938   0.872   5.027  12.950
 9816TIP3    H150939   0.917   5.065  13.025
 9816TIP3    H250940   0.922   5.057  12.874
 9817TIP3   OH250941   5.444   0.774  15.261
 9817TIP3    H150942   5.518   0.713  15.267
 9817TIP3    H250943   5.475   0.845  15.205
 9818TIP3   OH250944   1.545   4.051  13.437
 9818TIP3    H150945   1.505   3.968  13.463
 9818TIP3    H250946   1.533   4.054  13.342
 9819TIP3   OH250947   4.046   1.853   0.443
 9819TIP3    H150948   3.956   1.881   0.461
 9819TIP3    H250949   4.070   1.901   0.363
 9820TIP3   OH250950   0.244   5.869  16.398
 9820TIP3    H150951   0.152   5.885  16.375
 9820TIP3    H250952   0.241   5.801  16.464
 9821TIP3   OH250953   5.727   2.953   1.322
 9821TIP3    H150954   5.801   3.014   1.321
 9821TIP3    H250955   5.667   2.987   1.257
 9822TIP3   OH250956   6.590   6.471  13.120
 9822TIP3    H150957   6.510   6.476  13.068
 9822TIP3    H250958   6.618   6.562  13.129
 9823TIP3   OH250959   5.169   2.821   3.360
 9823TIP3    H150960   5.254   2.807   3.403
 9823TIP3    H250961   5.109   2.841   3.432
 9824TIP3   OH250962   4.892   0.264   1.945
 9824TIP3    H150963   4.804   0.294   1.922
 9824TIP3    H250964   4.899   0.178   1.905
 9825TIP3   OH250965   1.789   2.189  13.046
 9825TIP3    H150966   1.857   2.249  13.077
 9825TIP3    H250967   1.718   2.246  13.017
 9826TIP3   OH250968   5.964   2.016  10.593
 9826TIP3    H150969   5.989   1.946  10.653
 9826TIP3    H250970   6.044   2.069  10.582
 9827TIP3   OH250971   1.900   5.878   5.065
 9827TIP3    H150972   1.995   5.874   5.065
 9827TIP3    H250973   1.871   5.788   5.080
 9828TIP3   OH250974   2.740   4.474   3.714
 9828TIP3    H150975   2.795   4.446   3.786
 9828TIP3    H250976   2.653   4.485   3.752
 9829TIP3   OH250977   6.692   1.710   0.612
 9829TIP3    H150978   6.603   1.677   0.616
 9829TIP3    H250979   6.684   1.804   0.632
 9830TIP3   OH250980   4.599   5.730  14.453
 9830TIP3    H150981   4.518   5.684  14.430
 9830TIP3    H250982   4.646   5.737  14.370
 9831TIP3   OH250983   0.792   1.387  15.672
 9831TIP3    H150984   0.886   1.373  15.662
 9831TIP3    H250985   0.782   1.411  15.765
 9832TIP3   OH250986   0.585   0.326  16.630
 9832TIP3    H150987   0.669   0.280  16.634
 9832TIP3    H250988   0.564   0.345  16.721
 9833TIP3   OH250989   3.752   1.521  14.402
 9833TIP3    H150990   3.657   1.514  14.394
 9833TIP3    H250991   3.784   1.433  14.385
 9834TIP3   OH250992   6.044   4.003  14.634
 9834TIP3    H150993   6.066   3.913  14.610
 9834TIP3    H250994   6.110   4.026  14.700
 9835TIP3   OH250995   0.765   2.133  13.772
 9835TIP3    H150996   0.798   2.176  13.693
 9835TIP3    H250997   0.818   2.169  13.843
 9836TIP3   OH250998   6.697   5.874   0.309
 9836TIP3    H150999   6.704   5.894   0.215
 9836TIP3    H251000   6.648   5.948   0.345
 9837TIP3   OH251001   1.141   2.366   1.144
 9837TIP3    H151002   1.106   2.279   1.161
 9837TIP3    H251003   1.069   2.413   1.102
 9838TIP3   OH251004   6.657   2.932   1.857
 9838TIP3    H151005   6.681   2.961   1.945
 9838TIP3    H251006   6.647   2.837   1.865
 9839TIP3   OH251007   6.533   0.860   3.433
 9839TIP3    H151008   6.609   0.812   3.464
 9839TIP3    H251009   6.567   0.924   3.371
 9840TIP3   OH251010   1.232   4.605   1.375
 9840TIP3    H151011   1.232   4.521   1.422
 9840TIP3    H251012   1.263   4.668   1.439
 9841TIP3   OH251013   5.918   2.815  17.288
 9841TIP3    H151014   5.909   2.771  17.203
 9841TIP3    H251015   5.868   2.897  17.278
 9842TIP3   OH251016   6.546   1.592  11.683
 9842TIP3    H151017   6.463   1.552  11.658
 9842TIP3    H251018   6.564   1.557  11.770
 9843TIP3   OH251019   2.679   5.968  12.729
 9843TIP3    H151020   2.698   5.887  12.682
 9843TIP3    H251021   2.753   6.025  12.710
 9844TIP3   OH251022   2.000   6.102  13.214
 9844TIP3    H151023   1.911   6.135  13.216
 9844TIP3    H251024   1.993   6.014  13.177
 9845TIP3   OH251025   1.461   4.772   4.924
 9845TIP3    H151026   1.435   4.864   4.926
 9845TIP3    H251027   1.447   4.740   5.013
 9846TIP3   OH251028   3.128   1.429   2.649
 9846TIP3    H151029   3.202   1.461   2.700
 9846TIP3    H251030   3.053   1.438   2.708
 9847TIP3   OH251031   0.763   6.812   0.915
 9847TIP3    H151032   0.701   6.740   0.902
 9847TIP3    H251033   0.838   6.788   0.860
 9848TIP3   OH251034   1.110   5.715  14.364
 9848TIP3    H151035   1.063   5.684  14.441
 9848TIP3    H251036   1.062   5.792  14.335
 9849TIP3   OH251037   2.689   4.359  13.444
 9849TIP3    H151038   2.649   4.417  13.379
 9849TIP3    H251039   2.781   4.387  13.446
 9850TIP3   OH251040   1.706   4.404   1.962
 9850TIP3    H151041   1.676   4.492   1.940
 9850TIP3    H251042   1.664   4.385   2.046
 9851TIP3   OH251043   2.266   3.613  10.672
 9851TIP3    H151044   2.336   3.549  10.660
 9851TIP3    H251045   2.190   3.573  10.629
 9852TIP3   OH251046   5.362   1.127  11.636
 9852TIP3    H151047   5.401   1.153  11.552
 9852TIP3    H251048   5.292   1.190  11.650
 9853TIP3   OH251049   0.599   2.500  12.463
 9853TIP3    H151050   0.620   2.562  12.393
 9853TIP3    H251051   0.568   2.555  12.535
 9854TIP3   OH251052   3.838   5.225   0.271
 9854TIP3    H151053   3.784   5.239   0.349
 9854TIP3    H251054   3.887   5.307   0.262
 9855TIP3   OH251055   5.566   5.980   1.535
 9855TIP3    H151056   5.540   6.003   1.625
 9855TIP3    H251057   5.638   5.918   1.547
 9856TIP3   OH251058   3.763   4.022   5.915
 9856TIP3    H151059   3.793   4.104   5.953
 9856TIP3    H251060   3.673   4.013   5.946
 9857TIP3   OH251061   0.640   2.723  14.693
 9857TIP3    H151062   0.624   2.675  14.612
 9857TIP3    H251063   0.559   2.770  14.710
 9858TIP3   OH251064   2.862   0.907   0.675
 9858TIP3    H151065   2.788   0.848   0.661
 9858TIP3    H251066   2.937   0.848   0.691
 9859TIP3   OH251067   3.710   3.396   1.607
 9859TIP3    H151068   3.805   3.390   1.595
 9859TIP3    H251069   3.697   3.385   1.702
 9860TIP3   OH251070   0.634   5.007  13.189
 9860TIP3    H151071   0.698   5.004  13.260
 9860TIP3    H251072   0.676   4.963  13.116
 9861TIP3   OH251073   0.604   2.321  12.809
 9861TIP3    H151074   0.573   2.262  12.740
 9861TIP3    H251075   0.668   2.376  12.766
 9862TIP3   OH251076   0.900   2.830   5.510
 9862TIP3    H151077   0.878   2.857   5.599
 9862TIP3    H251078   0.990   2.798   5.516
 9863TIP3   OH251079   0.292   2.007  10.888
 9863TIP3    H151080   0.267   1.962  10.807
 9863TIP3    H251081   0.331   2.089  10.859
 9864TIP3   OH251082   5.981   1.613  14.752
 9864TIP3    H151083   6.029   1.637  14.673
 9864TIP3    H251084   6.047   1.574  14.809
 9865TIP3   OH251085   1.818   1.204   0.701
 9865TIP3    H151086   1.803   1.126   0.754
 9865TIP3    H251087   1.886   1.252   0.749
 9866TIP3   OH251088   3.347   4.091  12.481
 9866TIP3    H151089   3.335   3.997  12.472
 9866TIP3    H251090   3.386   4.103  12.568
 9867TIP3   OH251091   6.158   6.776  15.972
 9867TIP3    H151092   6.143   6.684  15.997
 9867TIP3    H251093   6.148   6.777  15.877
 9868TIP3   OH251094   5.841   5.007   0.609
 9868TIP3    H151095   5.789   4.927   0.612
 9868TIP3    H251096   5.777   5.078   0.600
 9869TIP3   OH251097   0.644   2.826  15.897
 9869TIP3    H151098   0.671   2.747  15.851
 9869TIP3    H251099   0.623   2.796  15.986
 9870TIP3   OH251100   3.033   5.124  11.970
 9870TIP3    H151101   2.974   5.049  11.967
 9870TIP3    H251102   3.120   5.087  11.955
 9871TIP3   OH251103   3.537   3.933   5.623
 9871TIP3    H151104   3.508   3.926   5.714
 9871TIP3    H251105   3.597   4.008   5.623
 9872TIP3   OH251106   0.549   3.186  12.398
 9872TIP3    H151107   0.627   3.141  12.430
 9872TIP3    H251108   0.522   3.135  12.322
 9873TIP3   OH251109   4.550   4.036   6.125
 9873TIP3    H151110   4.508   3.961   6.082
 9873TIP3    H251111   4.478   4.082   6.168
 9874TIP3   OH251112   1.740   5.593   1.336
 9874TIP3    H151113   1.725   5.563   1.247
 9874TIP3    H251114   1.660   5.572   1.383
 9875TIP3   OH251115   1.878   5.343   5.935
 9875TIP3    H151116   1.878   5.255   5.971
 9875TIP3    H251117   1.788   5.357   5.905
 9876TIP3   OH251118   0.025   6.393  13.909
 9876TIP3    H151119  -0.029   6.394  13.830
 9876TIP3    H251120   0.004   6.475  13.954
 9877TIP3   OH251121   5.582   4.014  13.591
 9877TIP3    H151122   5.653   3.956  13.563
 9877TIP3    H251123   5.547   4.050  13.510
 9878TIP3   OH251124   2.883   6.215  16.237
 9878TIP3    H151125   2.832   6.296  16.244
 9878TIP3    H251126   2.881   6.193  16.144
 9879TIP3   OH251127   0.682   5.497   4.778
 9879TIP3    H151128   0.660   5.504   4.685
 9879TIP3    H251129   0.624   5.429   4.811
 9880TIP3   OH251130   1.936   5.248   2.211
 9880TIP3    H151131   1.997   5.293   2.271
 9880TIP3    H251132   1.993   5.205   2.147
 9881TIP3   OH251133   3.595   6.472   4.099
 9881TIP3    H151134   3.662   6.505   4.159
 9881TIP3    H251135   3.616   6.511   4.015
 9882TIP3   OH251136   4.339   5.284  10.606
 9882TIP3    H151137   4.338   5.189  10.597
 9882TIP3    H251138   4.268   5.304  10.666
 9883TIP3   OH251139   3.340   3.742   4.402
 9883TIP3    H151140   3.415   3.684   4.406
 9883TIP3    H251141   3.350   3.790   4.320
 9884TIP3   OH251142   2.573   0.426  14.037
 9884TIP3    H151143   2.607   0.344  14.002
 9884TIP3    H251144   2.589   0.491  13.968
 9885TIP3   OH251145   5.601   2.970   0.228
 9885TIP3    H151146   5.573   2.953   0.318
 9885TIP3    H251147   5.522   2.953   0.176
 9886TIP3   OH251148   2.385   3.064  13.286
 9886TIP3    H151149   2.462   3.089  13.236
 9886TIP3    H251150   2.394   3.110  13.370
 9887TIP3   OH251151   3.660   1.517   4.053
 9887TIP3    H151152   3.582   1.571   4.042
 9887TIP3    H251153   3.700   1.549   4.134
 9888TIP3   OH251154   3.218   2.260  14.710
 9888TIP3    H151155   3.185   2.176  14.678
 9888TIP3    H251156   3.209   2.319  14.635
 9889TIP3   OH251157   4.343   2.773  16.948
 9889TIP3    H151158   4.411   2.835  16.975
 9889TIP3    H251159   4.262   2.823  16.951
 9890TIP3   OH251160   0.674   6.700   7.052
 9890TIP3    H151161   0.588   6.709   7.011
 9890TIP3    H251162   0.696   6.608   7.043
 9891TIP3   OH251163   0.443   0.526   1.975
 9891TIP3    H151164   0.427   0.553   2.065
 9891TIP3    H251165   0.498   0.595   1.938
 9892TIP3   OH251166   2.712   6.147  14.715
 9892TIP3    H151167   2.733   6.058  14.689
 9892TIP3    H251168   2.639   6.137  14.777
 9893TIP3   OH251169   2.114   2.620   1.164
 9893TIP3    H151170   2.055   2.555   1.126
 9893TIP3    H251171   2.113   2.693   1.103
 9894TIP3   OH251172   5.687   4.957   4.922
 9894TIP3    H151173   5.719   4.942   4.833
 9894TIP3    H251174   5.753   4.917   4.979
 9895TIP3   OH251175   1.715   2.203  17.289
 9895TIP3    H151176   1.621   2.183  17.297
 9895TIP3    H251177   1.739   2.235  17.376
 9896TIP3   OH251178   3.566   0.862  16.323
 9896TIP3    H151179   3.619   0.859  16.403
 9896TIP3    H251180   3.482   0.898  16.351
 9897TIP3   OH251181   1.347   3.728  15.303
 9897TIP3    H151182   1.380   3.731  15.393
 9897TIP3    H251183   1.289   3.652  15.301
 9898TIP3   OH251184   2.878   0.874  11.824
 9898TIP3    H151185   2.860   0.799  11.881
 9898TIP3    H251186   2.923   0.837  11.748
 9899TIP3   OH251187   3.252   0.940   4.184
 9899TIP3    H151188   3.253   0.926   4.279
 9899TIP3    H251189   3.220   1.030   4.173
 9900TIP3   OH251190   2.701   2.096  11.834
 9900TIP3    H151191   2.735   2.008  11.847
 9900TIP3    H251192   2.720   2.115  11.742
 9901TIP3   OH251193   0.940   3.367  12.721
 9901TIP3    H151194   1.006   3.397  12.783
 9901TIP3    H251195   0.865   3.425  12.734
 9902TIP3   OH251196   3.005   2.578   3.183
 9902TIP3    H151197   2.969   2.606   3.099
 9902TIP3    H251198   3.007   2.482   3.177
 9903TIP3   OH251199   2.696   6.475   3.794
 9903TIP3    H151200   2.709   6.510   3.882
 9903TIP3    H251201   2.779   6.493   3.749
 9904TIP3   OH251202   0.423   4.520   0.676
 9904TIP3    H151203   0.347   4.507   0.733
 9904TIP3    H251204   0.398   4.591   0.618
 9905TIP3   OH251205   6.219   6.669   3.039
 9905TIP3    H151206   6.135   6.673   3.085
 9905TIP3    H251207   6.195   6.674   2.946
 9906TIP3   OH251208   2.266   3.917  11.285
 9906TIP3    H151209   2.292   3.852  11.219
 9906TIP3    H251210   2.292   3.878  11.369
 9907TIP3   OH251211   0.804   0.928  11.037
 9907TIP3    H151212   0.886   0.937  11.084
 9907TIP3    H251213   0.829   0.929  10.944
 9908TIP3   OH251214   3.111   1.598  14.892
 9908TIP3    H151215   3.127   1.675  14.837
 9908TIP3    H251216   3.022   1.611  14.926
 9909TIP3   OH251217   2.587   2.973  12.292
 9909TIP3    H151218   2.664   2.915  12.284
 9909TIP3    H251219   2.606   3.045  12.231
 9910TIP3   OH251220   2.878   1.048  16.164
 9910TIP3    H151221   2.909   1.118  16.107
 9910TIP3    H251222   2.790   1.029  16.133
 9911TIP3   OH251223   5.098   4.465   4.527
 9911TIP3    H151224   5.071   4.390   4.580
 9911TIP3    H251225   5.063   4.446   4.439
 9912TIP3   OH251226   3.609   1.686   2.831
 9912TIP3    H151227   3.640   1.738   2.904
 9912TIP3    H251228   3.681   1.625   2.812
 9913TIP3   OH251229   2.399   1.076   1.239
 9913TIP3    H151230   2.450   1.155   1.223
 9913TIP3    H251231   2.316   1.092   1.193
 9914TIP3   OH251232   0.195   5.198  12.656
 9914TIP3    H151233   0.273   5.184  12.602
 9914TIP3    H251234   0.125   5.218  12.594
 9915TIP3   OH251235   0.936   0.799  15.765
 9915TIP3    H151236   1.031   0.784  15.757
 9915TIP3    H251237   0.914   0.765  15.851
 9916TIP3   OH251238   1.788   4.543  15.400
 9916TIP3    H151239   1.794   4.501  15.315
 9916TIP3    H251240   1.753   4.630  15.382
 9917TIP3   OH251241   0.249   2.745  12.833
 9917TIP3    H151242   0.306   2.735  12.909
 9917TIP3    H251243   0.161   2.733  12.867
 9918TIP3   OH251244   0.194   4.298  10.491
 9918TIP3    H151245   0.283   4.328  10.473
 9918TIP3    H251246   0.196   4.269  10.582
 9919TIP3   OH251247   2.456   4.643  12.593
 9919TIP3    H151248   2.414   4.719  12.554
 9919TIP3    H251249   2.407   4.568  12.559
 9920TIP3   OH251250   0.761   6.760  12.065
 9920TIP3    H151251   0.785   6.670  12.085
 9920TIP3    H251252   0.733   6.797  12.149
 9921TIP3   OH251253   5.922   0.469  11.192
 9921TIP3    H151254   5.952   0.560  11.198
 9921TIP3    H251255   5.836   0.475  11.153
 9922TIP3   OH251256   1.454   0.128  12.087
 9922TIP3    H151257   1.387   0.159  12.148
 9922TIP3    H251258   1.466   0.035  12.109
 9923TIP3   OH251259   5.925   6.286  17.138
 9923TIP3    H151260   6.012   6.325  17.128
 9923TIP3    H251261   5.940   6.207  17.190
 9924TIP3   OH251262   0.401   2.600  16.405
 9924TIP3    H151263   0.396   2.541  16.480
 9924TIP3    H251264   0.333   2.569  16.346
 9925TIP3   OH251265   0.390   4.629  13.048
 9925TIP3    H151266   0.301   4.615  13.018
 9925TIP3    H251267   0.383   4.700  13.113
 9926TIP3   OH251268   1.474   1.088  16.590
 9926TIP3    H151269   1.566   1.109  16.607
 9926TIP3    H251270   1.430   1.172  16.586
 9927TIP3   OH251271   4.651   4.944  15.844
 9927TIP3    H151272   4.592   5.018  15.829
 9927TIP3    H251273   4.594   4.876  15.881
 9928TIP3   OH251274   1.233   5.311   4.602
 9928TIP3    H151275   1.211   5.402   4.583
 9928TIP3    H251276   1.199   5.262   4.527
 9929TIP3   OH251277   2.154   2.793  13.141
 9929TIP3    H151278   2.189   2.813  13.228
 9929TIP3    H251279   2.059   2.792  13.153
 9930TIP3   OH251280   5.251   1.482  11.541
 9930TIP3    H151281   5.171   1.429  11.542
 9930TIP3    H251282   5.258   1.517  11.629
 9931TIP3   OH251283   1.887   0.145  15.187
 9931TIP3    H151284   1.841   0.093  15.121
 9931TIP3    H251285   1.957   0.188  15.138
 9932TIP3   OH251286   3.130   1.255   3.371
 9932TIP3    H151287   3.180   1.174   3.382
 9932TIP3    H251288   3.098   1.250   3.281
 9933TIP3   OH251289   4.366   3.417   4.957
 9933TIP3    H151290   4.366   3.372   5.042
 9933TIP3    H251291   4.441   3.381   4.911
 9934TIP3   OH251292   5.104   3.157  13.037
 9934TIP3    H151293   5.172   3.138  13.103
 9934TIP3    H251294   5.108   3.083  12.977
 9935TIP3   OH251295   1.929   4.237  15.329
 9935TIP3    H151296   1.872   4.203  15.399
 9935TIP3    H251297   1.868   4.270  15.263
 9936TIP3   OH251298   5.855   2.480  12.419
 9936TIP3    H151299   5.869   2.390  12.389
 9936TIP3    H251300   5.905   2.534  12.358
 9937TIP3   OH251301   6.006   0.925   0.125
 9937TIP3    H151302   5.975   0.897   0.040
 9937TIP3    H251303   5.994   1.020   0.125
 9938TIP3   OH251304   3.738   2.988  12.131
 9938TIP3    H151305   3.689   3.009  12.052
 9938TIP3    H251306   3.699   2.906  12.162
 9939TIP3   OH251307   1.503   4.826  10.813
 9939TIP3    H151308   1.538   4.915  10.805
 9939TIP3    H251309   1.417   4.831  10.771
 9940TIP3   OH251310   2.700   5.780   4.103
 9940TIP3    H151311   2.611   5.802   4.130
 9940TIP3    H251312   2.700   5.791   4.008
 9941TIP3   OH251313   5.810   4.939   2.068
 9941TIP3    H151314   5.811   4.886   1.988
 9941TIP3    H251315   5.722   4.976   2.071
 9942TIP3   OH251316   0.792   6.790   1.630
 9942TIP3    H151317   0.863   6.843   1.594
 9942TIP3    H251318   0.800   6.705   1.587
 9943TIP3   OH251319   0.555   6.159   6.160
 9943TIP3    H151320   0.640   6.189   6.128
 9943TIP3    H251321   0.551   6.192   6.250
 9944TIP3   OH251322   6.396   3.110   5.792
 9944TIP3    H151323   6.312   3.135   5.830
 9944TIP3    H251324   6.434   3.049   5.855
 9945TIP3   OH251325   0.625   3.115   2.821
 9945TIP3    H151326   0.543   3.085   2.781
 9945TIP3    H251327   0.655   3.186   2.765
 9946TIP3   OH251328   0.799   0.635  12.554
 9946TIP3    H151329   0.845   0.586  12.486
 9946TIP3    H251330   0.711   0.598  12.554
 9947TIP3   OH251331   3.620   0.389  14.790
 9947TIP3    H151332   3.692   0.451  14.793
 9947TIP3    H251333   3.645   0.326  14.722
 9948TIP3   OH251334   4.705   0.391  11.084
 9948TIP3    H151335   4.782   0.396  11.141
 9948TIP3    H251336   4.740   0.402  10.995
 9949TIP3   OH251337   5.075   2.573   2.068
 9949TIP3    H151338   5.163   2.575   2.105
 9949TIP3    H251339   5.059   2.481   2.049
 9950TIP3   OH251340   2.275   4.209   4.142
 9950TIP3    H151341   2.286   4.303   4.131
 9950TIP3    H251342   2.274   4.195   4.237
 9951TIP3   OH251343   2.300   4.783   3.071
 9951TIP3    H151344   2.291   4.813   2.980
 9951TIP3    H251345   2.291   4.688   3.066
 9952TIP3   OH251346   0.434   2.994  10.316
 9952TIP3    H151347   0.469   3.060  10.256
 9952TIP3    H251348   0.506   2.933  10.329
 9953TIP3   OH251349   3.077   0.038   0.781
 9953TIP3    H151350   3.066  -0.011   0.862
 9953TIP3    H251351   3.054  -0.025   0.712
 9954TIP3   OH251352   5.572   5.732  12.472
 9954TIP3    H151353   5.502   5.761  12.413
 9954TIP3    H251354   5.633   5.685  12.415
 9955TIP3   OH251355   0.899   4.516  11.331
 9955TIP3    H151356   0.812   4.476  11.332
 9955TIP3    H251357   0.956   4.449  11.292
 9956TIP3   OH251358   1.605   5.034   1.002
 9956TIP3    H151359   1.609   4.948   0.961
 9956TIP3    H251360   1.587   5.095   0.930
 9957TIP3   OH251361   2.303   5.653   0.025
 9957TIP3    H151362   2.295   5.727   0.085
 9957TIP3    H251363   2.394   5.653  -0.002
 9958TIP3   OH251364   3.066   6.024  15.388
 9958TIP3    H151365   3.050   5.947  15.334
 9958TIP3    H251366   3.127   5.993  15.456
 9959TIP3   OH251367   1.913   3.572  15.061
 9959TIP3    H151368   1.925   3.487  15.017
 9959TIP3    H251369   1.829   3.604  15.028
 9960TIP3   OH251370   6.405   2.788   3.051
 9960TIP3    H151371   6.378   2.869   3.008
 9960TIP3    H251372   6.440   2.817   3.136
 9961TIP3   OH251373   6.545   3.124  15.413
 9961TIP3    H151374   6.496   3.068  15.353
 9961TIP3    H251375   6.478   3.170  15.463
 9962TIP3   OH251376   6.022   4.702  15.558
 9962TIP3    H151377   5.987   4.789  15.580
 9962TIP3    H251378   5.960   4.640  15.597
 9963TIP3   OH251379   0.928   3.129   3.534
 9963TIP3    H151380   0.965   3.205   3.579
 9963TIP3    H251381   0.996   3.102   3.472
 9964TIP3   OH251382   5.910   5.831  16.811
 9964TIP3    H151383   5.957   5.771  16.868
 9964TIP3    H251384   5.934   5.918  16.843
 9965TIP3   OH251385   1.759   5.140  16.247
 9965TIP3    H151386   1.731   5.232  16.248
 9965TIP3    H251387   1.802   5.130  16.162
 9966TIP3   OH251388   4.640   3.570   2.310
 9966TIP3    H151389   4.642   3.566   2.406
 9966TIP3    H251390   4.731   3.584   2.285
 9967TIP3   OH251391   3.155   6.736  12.990
 9967TIP3    H151392   3.192   6.731  13.078
 9967TIP3    H251393   3.060   6.740  13.004
 9968TIP3   OH251394   0.500   1.297   1.565
 9968TIP3    H151395   0.411   1.266   1.547
 9968TIP3    H251396   0.505   1.382   1.521
 9969TIP3   OH251397   2.829   0.432  12.970
 9969TIP3    H151398   2.835   0.526  12.991
 9969TIP3    H251399   2.859   0.388  13.050
 9970TIP3   OH251400   0.312   1.455   5.323
 9970TIP3    H151401   0.322   1.371   5.279
 9970TIP3    H251402   0.361   1.446   5.405
 9971TIP3   OH251403   5.411   6.431   5.143
 9971TIP3    H151404   5.483   6.432   5.080
 9971TIP3    H251405   5.437   6.366   5.208
 9972TIP3   OH251406   5.064   4.779   1.401
 9972TIP3    H151407   4.972   4.750   1.398
 9972TIP3    H251408   5.110   4.708   1.446
 9973TIP3   OH251409   1.574   5.840  16.369
 9973TIP3    H151410   1.638   5.778  16.402
 9973TIP3    H251411   1.624   5.921  16.354
 9974TIP3   OH251412   4.466   3.914   0.551
 9974TIP3    H151413   4.552   3.916   0.509
 9974TIP3    H251414   4.406   3.949   0.485
 9975TIP3   OH251415   5.641   1.006  12.608
 9975TIP3    H151416   5.653   0.972  12.519
 9975TIP3    H251417   5.729   1.025  12.639
 9976TIP3   OH251418   5.165   0.389  11.380
 9976TIP3    H151419   5.166   0.319  11.315
 9976TIP3    H251420   5.255   0.421  11.383
 9977TIP3   OH251421   6.048   3.863  12.325
 9977TIP3    H151422   6.126   3.872  12.270
 9977TIP3    H251423   5.992   3.937  12.299
 9978TIP3   OH251424   0.470   5.981   4.733
 9978TIP3    H151425   0.514   5.899   4.711
 9978TIP3    H251426   0.409   5.996   4.661
 9979TIP3   OH251427   5.567   0.447   5.562
 9979TIP3    H151428   5.499   0.383   5.584
 9979TIP3    H251429   5.600   0.477   5.647
 9980TIP3   OH251430   3.437   0.014   4.469
 9980TIP3    H151431   3.425   0.108   4.467
 9980TIP3    H251432   3.350  -0.022   4.451
 9981TIP3   OH251433   4.079   5.564   3.229
 9981TIP3    H151434   4.101   5.504   3.157
 9981TIP3    H251435   4.008   5.618   3.195
 9982TIP3   OH251436   0.193   2.097   2.795
 9982TIP3    H151437   0.211   2.037   2.868
 9982TIP3    H251438   0.104   2.128   2.812
 9983TIP3   OH251439   2.131   6.541   3.979
 9983TIP3    H151440   2.201   6.605   3.989
 9983TIP3    H251441   2.113   6.539   3.885
 9984TIP3   OH251442   5.158   2.817  16.003
 9984TIP3    H151443   5.191   2.877  16.069
 9984TIP3    H251444   5.180   2.858  15.920
 9985TIP3   OH251445   2.444   5.469  10.654
 9985TIP3    H151446   2.437   5.398  10.591
 9985TIP3    H251447   2.483   5.428  10.732
 9986TIP3   OH251448   3.336   3.974   2.508
 9986TIP3    H151449   3.240   3.980   2.506
 9986TIP3    H251450   3.359   3.923   2.431
 9987TIP3   OH251451   0.997   6.632  14.605
 9987TIP3    H151452   1.000   6.602  14.514
 9987TIP3    H251453   0.933   6.702  14.605
 9988TIP3   OH251454   3.969   4.142   3.860
 9988TIP3    H151455   3.986   4.233   3.835
 9988TIP3    H251456   3.882   4.123   3.825
 9989TIP3   OH251457   1.513   4.485  16.006
 9989TIP3    H151458   1.521   4.481  16.101
 9989TIP3    H251459   1.454   4.413  15.984
 9990TIP3   OH251460   5.880   0.314   2.337
 9990TIP3    H151461   5.827   0.241   2.306
 9990TIP3    H251462   5.952   0.273   2.385
 9991TIP3   OH251463   2.739   2.487   4.560
 9991TIP3    H151464   2.776   2.403   4.532
 9991TIP3    H251465   2.716   2.473   4.652
 9992TIP3   OH251466   0.723   0.097  12.310
 9992TIP3    H151467   0.795   0.116  12.370
 9992TIP3    H251468   0.714   0.176  12.257
 9993TIP3   OH251469   4.426   6.691   3.537
 9993TIP3    H151470   4.380   6.703   3.620
 9993TIP3    H251471   4.504   6.640   3.561
 9994TIP3   OH251472   1.426   6.317  11.161
 9994TIP3    H151473   1.334   6.345  11.155
 9994TIP3    H251474   1.425   6.226  11.132
 9995TIP3   OH251475   4.079   5.518  16.789
 9995TIP3    H151476   4.140   5.452  16.755
 9995TIP3    H251477   4.121   5.550  16.869
 9996TIP3   OH251478   1.346   2.497  10.587
 9996TIP3    H151479   1.275   2.439  10.559
 9996TIP3    H251480   1.347   2.566  10.521
 9997TIP3   OH251481   4.914   3.770  12.547
 9997TIP3    H151482   4.920   3.821  12.466
 9997TIP3    H251483   4.939   3.832  12.616
 9998TIP3   OH251484   6.602   5.703  14.273
 9998TIP3    H151485   6.657   5.715  14.195
 9998TIP3    H251486   6.596   5.608  14.283
 9999TIP3   OH251487   1.709   4.514   3.702
 9999TIP3    H151488   1.742   4.456   3.633
 9999TIP3    H251489   1.677   4.455   3.770
10000TIP3   OH251490   6.565   5.805  12.558
10000TIP3    H151491   6.617   5.839  12.630
10000TIP3    H251492   6.502   5.746  12.601
10001TIP3   OH251493   5.528   3.979  11.374
10001TIP3    H151494   5.594   4.000  11.308
10001TIP3    H251495   5.522   3.883  11.371
10002TIP3   OH251496   5.661   1.794   5.435
10002TIP3    H151497   5.592   1.825   5.494
10002TIP3    H251498   5.683   1.707   5.469
10003TIP3   OH251499   2.124   2.860  15.186
10003TIP3    H151500   2.081   2.845  15.270
10003TIP3    H251501   2.217   2.845  15.204
10004TIP3   OH251502   0.078   0.659   6.949
10004TIP3    H151503   0.101   0.639   7.039
10004TIP3    H251504   0.163   0.668   6.904
10005TIP3   OH251505   0.009   2.911   4.975
10005TIP3    H151506  -0.029   2.954   4.898
10005TIP3    H251507   0.101   2.897   4.952
10006TIP3   OH251508   4.086   1.037   0.352
10006TIP3    H151509   4.080   0.956   0.401
10006TIP3    H251510   3.999   1.076   0.359
10007TIP3   OH251511   3.815   4.339   5.373
10007TIP3    H151512   3.818   4.430   5.342
10007TIP3    H251513   3.725   4.327   5.403
10008TIP3   OH251514   1.405   2.677  15.863
10008TIP3    H151515   1.339   2.623  15.908
10008TIP3    H251516   1.358   2.713  15.788
10009TIP3   OH251517   6.363   2.255  12.611
10009TIP3    H151518   6.278   2.214  12.629
10009TIP3    H251519   6.352   2.346  12.638
10010TIP3   OH251520   6.159   3.852  15.704
10010TIP3    H151521   6.143   3.797  15.627
10010TIP3    H251522   6.242   3.820  15.739
10011TIP3   OH251523   3.820   0.179  12.273
10011TIP3    H151524   3.805   0.129  12.192
10011TIP3    H251525   3.914   0.173  12.288
10012TIP3   OH251526   3.539   1.667   5.477
10012TIP3    H151527   3.553   1.761   5.464
10012TIP3    H251528   3.513   1.635   5.391
10013TIP3   OH251529   6.249   2.055   1.846
10013TIP3    H151530   6.218   1.990   1.783
10013TIP3    H251531   6.242   2.012   1.931
10014TIP3   OH251532   2.842   6.616  14.962
10014TIP3    H151533   2.850   6.710  14.979
10014TIP3    H251534   2.801   6.582  15.041
10015TIP3   OH251535   0.009   3.956   4.277
10015TIP3    H151536  -0.010   4.006   4.356
10015TIP3    H251537   0.057   3.879   4.308
10016TIP3   OH251538   3.430   2.960   2.617
10016TIP3    H151539   3.357   2.939   2.676
10016TIP3    H251540   3.503   2.909   2.651
10017TIP3   OH251541   3.638   6.373  15.695
10017TIP3    H151542   3.549   6.403  15.678
10017TIP3    H251543   3.690   6.411  15.624
10018TIP3   OH251544   0.226   6.491   5.438
10018TIP3    H151545   0.164   6.461   5.505
10018TIP3    H251546   0.293   6.539   5.486
10019TIP3   OH251547   0.678   5.557   0.781
10019TIP3    H151548   0.717   5.641   0.759
10019TIP3    H251549   0.702   5.542   0.873
10020TIP3   OH251550   1.815   2.016  13.426
10020TIP3    H151551   1.899   1.971  13.440
10020TIP3    H251552   1.821   2.095  13.480
10021TIP3   OH251553   1.871   4.025   6.458
10021TIP3    H151554   1.883   3.953   6.520
10021TIP3    H251555   1.954   4.072   6.461
10022TIP3   OH251556   1.353   3.849  14.412
10022TIP3    H151557   1.433   3.797  14.413
10022TIP3    H251558   1.284   3.785  14.395
10023TIP3   OH251559   2.452   0.949  14.033
10023TIP3    H151560   2.499   0.910  14.106
10023TIP3    H251561   2.450   1.043  14.053
10024TIP3   OH251562   6.058   5.023  16.855
10024TIP3    H151563   6.123   4.976  16.906
10024TIP3    H251564   6.067   4.989  16.766
10025TIP3   OH251565   4.170   0.938   1.517
10025TIP3    H151566   4.219   0.892   1.585
10025TIP3    H251567   4.114   0.870   1.478
10026TIP3   OH251568   5.136   4.747   4.283
10026TIP3    H151569   5.070   4.686   4.250
10026TIP3    H251570   5.116   4.756   4.376
10027TIP3   OH251571   1.718   0.027  11.790
10027TIP3    H151572   1.670   0.109  11.783
10027TIP3    H251573   1.810   0.053  11.792
10028TIP3   OH251574   2.905   1.558  11.276
10028TIP3    H151575   2.821   1.552  11.231
10028TIP3    H251576   2.946   1.637  11.241
10029TIP3   OH251577   3.301   1.112  14.646
10029TIP3    H151578   3.302   1.054  14.722
10029TIP3    H251579   3.385   1.158  14.650
10030TIP3   OH251580   3.241   4.092   1.919
10030TIP3    H151581   3.280   4.073   2.005
10030TIP3    H251582   3.271   4.181   1.899
10031TIP3   OH251583   0.228   0.416   0.758
10031TIP3    H151584   0.239   0.377   0.845
10031TIP3    H251585   0.165   0.359   0.714
10032TIP3   OH251586   2.624   5.208   2.970
10032TIP3    H151587   2.557   5.152   3.009
10032TIP3    H251588   2.593   5.225   2.881
10033TIP3   OH251589   3.393   3.335   2.681
10033TIP3    H151590   3.357   3.422   2.663
10033TIP3    H251591   3.320   3.286   2.717
10034TIP3   OH251592   4.398   6.121   2.892
10034TIP3    H151593   4.467   6.059   2.913
10034TIP3    H251594   4.358   6.143   2.976
10035TIP3   OH251595   0.468   6.586   5.510
10035TIP3    H151596   0.481   6.679   5.490
10035TIP3    H251597   0.488   6.541   5.427
10036TIP3   OH251598   6.117   0.886  14.189
10036TIP3    H151599   6.149   0.878  14.279
10036TIP3    H251600   6.163   0.817  14.141
10037TIP3   OH251601   1.424   6.153  15.369
10037TIP3    H151602   1.416   6.093  15.443
10037TIP3    H251603   1.423   6.240  15.409
10038TIP3   OH251604   5.497   1.750   0.454
10038TIP3    H151605   5.417   1.697   0.460
10038TIP3    H251606   5.557   1.697   0.401
10039TIP3   OH251607   6.301   5.113   0.805
10039TIP3    H151608   6.224   5.110   0.749
10039TIP3    H251609   6.375   5.122   0.743
10040TIP3   OH251610   4.195   6.242  16.283
10040TIP3    H151611   4.128   6.258  16.216
10040TIP3    H251612   4.258   6.184  16.240
10041TIP3   OH251613   6.148   0.603   3.788
10041TIP3    H151614   6.230   0.613   3.740
10041TIP3    H251615   6.083   0.647   3.733
10042TIP3   OH251616   1.258   5.358  15.498
10042TIP3    H151617   1.278   5.279  15.447
10042TIP3    H251618   1.334   5.414  15.487
10043TIP3   OH251619   6.619   6.144   5.048
10043TIP3    H151620   6.606   6.214   4.984
10043TIP3    H251621   6.696   6.097   5.018
10044TIP3   OH251622   5.303   2.413  15.001
10044TIP3    H151623   5.381   2.392  15.052
10044TIP3    H251624   5.242   2.451  15.065
10045TIP3   OH251625   6.419   5.139   3.952
10045TIP3    H151626   6.364   5.216   3.944
10045TIP3    H251627   6.403   5.107   4.041
10046TIP3   OH251628   3.294   0.272  17.220
10046TIP3    H151629   3.280   0.274  17.125
10046TIP3    H251630   3.302   0.364  17.245
10047TIP3   OH251631   1.833   0.164  14.158
10047TIP3    H151632   1.877   0.242  14.190
10047TIP3    H251633   1.740   0.183  14.168
10048TIP3   OH251634   4.281   1.516   0.884
10048TIP3    H151635   4.239   1.556   0.960
10048TIP3    H251636   4.285   1.585   0.819
10049TIP3   OH251637   1.845   2.930  16.726
10049TIP3    H151638   1.850   3.025  16.722
10049TIP3    H251639   1.837   2.902  16.635
10050TIP3   OH251640   5.479   1.706  14.982
10050TIP3    H151641   5.449   1.761  15.054
10050TIP3    H251642   5.553   1.754  14.945
10051TIP3   OH251643   3.653   0.102  11.172
10051TIP3    H151644   3.741   0.118  11.207
10051TIP3    H251645   3.667   0.049  11.094
10052TIP3   OH251646   2.490   2.895   6.139
10052TIP3    H151647   2.409   2.946   6.136
10052TIP3    H251648   2.482   2.841   6.217
10053TIP3   OH251649   4.283   5.264   2.232
10053TIP3    H151650   4.357   5.219   2.272
10053TIP3    H251651   4.220   5.194   2.212
10054TIP3   OH251652   0.217   3.589   0.905
10054TIP3    H151653   0.150   3.647   0.870
10054TIP3    H251654   0.234   3.621   0.994
10055TIP3   OH251655   6.712   4.499   5.202
10055TIP3    H151656   6.696   4.541   5.287
10055TIP3    H251657   6.792   4.541   5.170
10056TIP3   OH251658   3.941   2.687  16.146
10056TIP3    H151659   3.974   2.771  16.180
10056TIP3    H251660   4.012   2.625  16.163
10057TIP3   OH251661   2.471   6.331   5.541
10057TIP3    H151662   2.451   6.299   5.453
10057TIP3    H251663   2.389   6.372   5.571
10058TIP3   OH251664   3.943   6.327   0.691
10058TIP3    H151665   3.872   6.276   0.731
10058TIP3    H251666   3.955   6.402   0.749
10059TIP3   OH251667   5.471   2.154   4.150
10059TIP3    H151668   5.563   2.178   4.142
10059TIP3    H251669   5.424   2.238   4.150
10060TIP3   OH251670   6.172   2.626  16.074
10060TIP3    H151671   6.236   2.685  16.035
10060TIP3    H251672   6.222   2.577  16.140
10061TIP3   OH251673   1.377   5.824  14.349
10061TIP3    H151674   1.290   5.785  14.349
10061TIP3    H251675   1.361   5.917  14.328
10062TIP3   OH251676   1.338   0.356   2.101
10062TIP3    H151677   1.345   0.423   2.033
10062TIP3    H251678   1.246   0.331   2.101
10063TIP3   OH251679   0.338   2.928  12.623
10063TIP3    H151680   0.431   2.926  12.647
10063TIP3    H251681   0.292   2.895  12.700
10064TIP3   OH251682   1.474   0.584   0.808
10064TIP3    H151683   1.518   0.634   0.876
10064TIP3    H251684   1.531   0.591   0.732
10065TIP3   OH251685   4.423   6.781  16.097
10065TIP3    H151686   4.373   6.778  16.016
10065TIP3    H251687   4.391   6.706  16.147
10066TIP3   OH251688   3.077   4.300   1.324
10066TIP3    H151689   3.140   4.228   1.318
10066TIP3    H251690   2.996   4.263   1.288
10067TIP3   OH251691   5.600   0.320   2.145
10067TIP3    H151692   5.604   0.410   2.179
10067TIP3    H251693   5.606   0.265   2.223
10068TIP3   OH251694   4.271   6.319  12.139
10068TIP3    H151695   4.305   6.408  12.134
10068TIP3    H251696   4.349   6.264  12.148
10069TIP3   OH251697   4.397   6.014  17.027
10069TIP3    H151698   4.311   6.043  16.998
10069TIP3    H251699   4.453   6.091  17.021
10070TIP3   OH251700   6.275   0.230   6.464
10070TIP3    H151701   6.219   0.173   6.517
10070TIP3    H251702   6.244   0.218   6.374
10071TIP3   OH251703   3.074   1.325   2.411
10071TIP3    H151704   3.149   1.323   2.351
10071TIP3    H251705   3.104   1.378   2.484
10072TIP3   OH251706   3.907   0.735  15.073
10072TIP3    H151707   3.986   0.765  15.027
10072TIP3    H251708   3.880   0.809  15.126
10073TIP3   OH251709   0.005   5.416   0.042
10073TIP3    H151710   0.067   5.343   0.035
10073TIP3    H251711   0.061   5.494   0.046
10074TIP3   OH251712   6.030   5.601  15.960
10074TIP3    H151713   6.042   5.613  15.866
10074TIP3    H251714   6.020   5.507  15.971
10075TIP3   OH251715   5.438   1.396  12.536
10075TIP3    H151716   5.472   1.363  12.619
10075TIP3    H251717   5.450   1.323  12.475
10076TIP3   OH251718   6.704   3.994   3.750
10076TIP3    H151719   6.792   3.998   3.785
10076TIP3    H251720   6.690   4.080   3.709
10077TIP3   OH251721   6.791   0.459  12.397
10077TIP3    H151722   6.747   0.508  12.466
10077TIP3    H251723   6.771   0.367  12.416
10078TIP3   OH251724   6.626   4.400  15.648
10078TIP3    H151725   6.692   4.429  15.711
10078TIP3    H251726   6.586   4.323  15.690
10079TIP3   OH251727   2.741   4.621  15.256
10079TIP3    H151728   2.655   4.663  15.245
10079TIP3    H251729   2.732   4.537  15.212
10080TIP3   OH251730   4.968   2.889   5.830
10080TIP3    H151731   4.975   2.855   5.919
10080TIP3    H251732   4.953   2.983   5.842
10081TIP3   OH251733   4.312   5.847   1.407
10081TIP3    H151734   4.390   5.796   1.430
10081TIP3    H251735   4.266   5.857   1.490
10082TIP3   OH251736   4.187   3.554   3.546
10082TIP3    H151737   4.256   3.612   3.579
10082TIP3    H251738   4.133   3.610   3.490
10083TIP3   OH251739   6.714   2.064  17.018
10083TIP3    H151740   6.765   2.142  17.039
10083TIP3    H251741   6.778   2.001  16.984
10084TIP3   OH251742   0.710   1.433   3.147
10084TIP3    H151743   0.670   1.378   3.080
10084TIP3    H251744   0.680   1.396   3.230
10085TIP3   OH251745   0.289   6.029  14.645
10085TIP3    H151746   0.233   6.073  14.710
10085TIP3    H251747   0.281   5.936  14.666
10086TIP3   OH251748   6.336   0.235  13.569
10086TIP3    H151749   6.295   0.291  13.504
10086TIP3    H251750   6.393   0.293  13.620
10087TIP3   OH251751   6.148   3.510  15.212
10087TIP3    H151752   6.153   3.428  15.164
10087TIP3    H251753   6.057   3.539  15.201
10088TIP3   OH251754   3.328   6.461  14.888
10088TIP3    H151755   3.233   6.473  14.892
10088TIP3    H251756   3.363   6.537  14.933
10089TIP3   OH251757   4.374   2.928   2.303
10089TIP3    H151758   4.410   2.978   2.377
10089TIP3    H251759   4.312   2.987   2.262
10090TIP3   OH251760   0.030   6.114  14.047
10090TIP3    H151761   0.048   6.187  13.988
10090TIP3    H251762   0.049   6.036  13.995
10091TIP3   OH251763   0.867   2.277  14.908
10091TIP3    H151764   0.929   2.308  14.974
10091TIP3    H251765   0.789   2.252  14.957
10092TIP3   OH251766   1.583   4.944   4.299
10092TIP3    H151767   1.505   4.911   4.254
10092TIP3    H251768   1.550   4.984   4.379
10093TIP3   OH251769   5.030   3.224  16.094
10093TIP3    H151770   5.056   3.158  16.157
10093TIP3    H251771   5.106   3.281  16.085
10094TIP3   OH251772   3.728   0.527  15.185
10094TIP3    H151773   3.721   0.543  15.279
10094TIP3    H251774   3.793   0.591  15.155
10095TIP3   OH251775   3.431   1.325   1.973
10095TIP3    H151776   3.344   1.358   1.949
10095TIP3    H251777   3.426   1.307   2.067
10096TIP3   OH251778   0.516   6.332   2.436
10096TIP3    H151779   0.485   6.410   2.390
10096TIP3    H251780   0.500   6.351   2.529
10097TIP3   OH251781   1.077   4.873   2.413
10097TIP3    H151782   0.986   4.887   2.389
10097TIP3    H251783   1.075   4.850   2.506
10098TIP3   OH251784   1.146   1.170   0.039
10098TIP3    H151785   1.208   1.200  -0.028
10098TIP3    H251786   1.092   1.104  -0.005
10099TIP3   OH251787   1.178   1.980   4.971
10099TIP3    H151788   1.263   1.993   4.929
10099TIP3    H251789   1.121   1.946   4.902
10100TIP3   OH251790   3.322   3.806  13.305
10100TIP3    H151791   3.398   3.848  13.265
10100TIP3    H251792   3.353   3.721  13.335
10101TIP3   OH251793   3.230   4.858  12.770
10101TIP3    H151794   3.184   4.775  12.783
10101TIP3    H251795   3.313   4.833  12.731
10102TIP3   OH251796   1.610   4.241   1.752
10102TIP3    H151797   1.633   4.297   1.826
10102TIP3    H251798   1.520   4.267   1.730
10103TIP3   OH251799   4.342   1.205  12.740
10103TIP3    H151800   4.283   1.235  12.809
10103TIP3    H251801   4.416   1.167  12.786
10104TIP3   OH251802   0.779   1.758  15.930
10104TIP3    H151803   0.861   1.807  15.935
10104TIP3    H251804   0.721   1.815  15.879
10105TIP3   OH251805   0.747   3.263   4.998
10105TIP3    H151806   0.780   3.352   4.992
10105TIP3    H251807   0.662   3.266   4.953
10106TIP3   OH251808   1.092   0.408   6.419
10106TIP3    H151809   1.093   0.331   6.476
10106TIP3    H251810   1.016   0.458   6.448
10107TIP3   OH251811   3.572   3.322  12.523
10107TIP3    H151812   3.509   3.360  12.462
10107TIP3    H251813   3.658   3.346  12.487
10108TIP3   OH251814   0.047   3.051   5.452
10108TIP3    H151815   0.027   3.116   5.518
10108TIP3    H251816   0.077   2.974   5.501
10109TIP3   OH251817   5.725   4.293  12.992
10109TIP3    H151818   5.803   4.244  13.017
10109TIP3    H251819   5.659   4.267  13.057
10110TIP3   OH251820   6.154   4.384   4.171
10110TIP3    H151821   6.081   4.322   4.166
10110TIP3    H251822   6.217   4.353   4.106
10111TIP3   OH251823   2.164   2.364  11.388
10111TIP3    H151824   2.229   2.388  11.454
10111TIP3    H251825   2.105   2.304  11.433
10112TIP3   OH251826   2.271   0.237  10.855
10112TIP3    H151827   2.357   0.207  10.883
10112TIP3    H251828   2.282   0.255  10.761
10113TIP3   OH251829   5.939   4.314  12.145
10113TIP3    H151830   5.929   4.386  12.084
10113TIP3    H251831   5.956   4.237  12.090
10114TIP3   OH251832   3.679   3.771  15.458
10114TIP3    H151833   3.695   3.681  15.485
10114TIP3    H251834   3.685   3.822  15.539
10115TIP3   OH251835   1.023   6.781  12.677
10115TIP3    H151836   1.103   6.729  12.668
10115TIP3    H251837   1.039   6.834  12.756
10116TIP3   OH251838   0.989   0.658  16.792
10116TIP3    H151839   0.918   0.595  16.805
10116TIP3    H251840   1.068   0.604  16.791
10117TIP3   OH251841   4.516   2.611  13.652
10117TIP3    H151842   4.529   2.703  13.632
10117TIP3    H251843   4.462   2.578  13.581
10118TIP3   OH251844   4.948   6.155   4.107
10118TIP3    H151845   4.936   6.229   4.167
10118TIP3    H251846   4.923   6.078   4.158
10119TIP3   OH251847   0.218   2.935  13.321
10119TIP3    H151848   0.249   2.865  13.264
10119TIP3    H251849   0.205   3.010  13.263
10120TIP3   OH251850   4.941   6.700   5.433
10120TIP3    H151851   4.871   6.643   5.466
10120TIP3    H251852   5.012   6.640   5.410
10121TIP3   OH251853   5.197   2.002   1.201
10121TIP3    H151854   5.230   1.951   1.275
10121TIP3    H251855   5.173   1.936   1.136
10122TIP3   OH251856   4.076   0.615   1.770
10122TIP3    H151857   4.069   0.639   1.863
10122TIP3    H251858   4.088   0.520   1.770
10123TIP3   OH251859   4.640   1.293   2.650
10123TIP3    H151860   4.671   1.281   2.561
10123TIP3    H251861   4.718   1.283   2.705
10124TIP3   OH251862   4.410   4.781   0.088
10124TIP3    H151863   4.336   4.832   0.054
10124TIP3    H251864   4.391   4.691   0.063
10125TIP3   OH251865   3.390   0.539  16.866
10125TIP3    H151866   3.313   0.596  16.864
10125TIP3    H251867   3.354   0.450  16.862
10126TIP3   OH251868   3.627   6.134  12.215
10126TIP3    H151869   3.698   6.075  12.191
10126TIP3    H251870   3.576   6.086  12.280
10127TIP3   OH251871   1.012   3.258   4.794
10127TIP3    H151872   1.067   3.181   4.804
10127TIP3    H251873   0.937   3.241   4.850
10128TIP3   OH251874   2.941   2.544   2.097
10128TIP3    H151875   2.915   2.579   2.182
10128TIP3    H251876   2.906   2.606   2.034
10129TIP3   OH251877   3.055   2.257  14.941
10129TIP3    H151878   3.037   2.166  14.965
10129TIP3    H251879   3.080   2.252  14.849
10130TIP3   OH251880   6.748   2.983   2.095
10130TIP3    H151881   6.809   3.054   2.112
10130TIP3    H251882   6.752   2.929   2.174
10131TIP3   OH251883   4.643   2.571   5.283
10131TIP3    H151884   4.679   2.651   5.246
10131TIP3    H251885   4.685   2.501   5.235
10132TIP3   OH251886   5.755   4.823  13.491
10132TIP3    H151887   5.783   4.746  13.441
10132TIP3    H251888   5.819   4.830  13.562
10133TIP3   OH251889   5.152   2.906   5.577
10133TIP3    H151890   5.155   2.933   5.669
10133TIP3    H251891   5.231   2.853   5.565
10134TIP3   OH251892   2.565   5.314  10.854
10134TIP3    H151893   2.521   5.244  10.902
10134TIP3    H251894   2.632   5.269  10.802
10135TIP3   OH251895   2.475   5.932   1.155
10135TIP3    H151896   2.534   5.866   1.191
10135TIP3    H251897   2.444   5.894   1.073
10136TIP3   OH251898   5.586   2.003  15.370
10136TIP3    H151899   5.646   2.076  15.358
10136TIP3    H251900   5.579   1.964  15.283
10137TIP3   OH251901   0.070   1.389   3.838
10137TIP3    H151902   0.047   1.430   3.754
10137TIP3    H251903   0.131   1.451   3.878
10138TIP3   OH251904   6.435   3.346   4.842
10138TIP3    H151905   6.467   3.351   4.932
10138TIP3    H251906   6.350   3.390   4.845
10139TIP3   OH251907   3.299   2.200  16.931
10139TIP3    H151908   3.286   2.152  16.849
10139TIP3    H251909   3.323   2.132  16.995
10140TIP3   OH251910   1.108   2.170  11.876
10140TIP3    H151911   1.104   2.205  11.787
10140TIP3    H251912   1.020   2.184  11.911
10141TIP3   OH251913   2.499   4.574   5.168
10141TIP3    H151914   2.568   4.605   5.227
10141TIP3    H251915   2.510   4.626   5.089
10142TIP3   OH251916   1.201   4.725  14.755
10142TIP3    H151917   1.187   4.778  14.676
10142TIP3    H251918   1.134   4.757  14.816
10143TIP3   OH251919   3.022   6.804   2.198
10143TIP3    H151920   2.996   6.892   2.223
10143TIP3    H251921   3.117   6.807   2.193
10144TIP3   OH251922   1.431   1.950   1.591
10144TIP3    H151923   1.426   1.887   1.519
10144TIP3    H251924   1.494   1.912   1.652
10145TIP3   OH251925   5.813   0.689  14.802
10145TIP3    H151926   5.825   0.745  14.725
10145TIP3    H251927   5.832   0.746  14.877
10146TIP3   OH251928   4.310   4.128   5.966
10146TIP3    H151929   4.320   4.084   6.051
10146TIP3    H251930   4.232   4.183   5.978
10147TIP3   OH251931   4.662   2.647   1.999
10147TIP3    H151932   4.667   2.558   2.033
10147TIP3    H251933   4.578   2.650   1.953
10148TIP3   OH251934   2.296   6.320   0.889
10148TIP3    H151935   2.267   6.282   0.806
10148TIP3    H251936   2.245   6.273   0.955
10149TIP3   OH251937   0.375   3.062  15.659
10149TIP3    H151938   0.429   2.994  15.700
10149TIP3    H251939   0.433   3.105  15.596
10150TIP3   OH251940   1.756   4.042  11.165
10150TIP3    H151941   1.786   4.005  11.082
10150TIP3    H251942   1.837   4.059  11.214
10151TIP3   OH251943   0.718   3.210   0.711
10151TIP3    H151944   0.678   3.244   0.632
10151TIP3    H251945   0.808   3.189   0.685
10152TIP3   OH251946   3.152   4.759   2.623
10152TIP3    H151947   3.104   4.784   2.544
10152TIP3    H251948   3.099   4.691   2.663
10153TIP3   OH251949   5.624   4.353   2.668
10153TIP3    H151950   5.645   4.269   2.627
10153TIP3    H251951   5.547   4.384   2.620
10154TIP3   OH251952   0.458   2.397   1.632
10154TIP3    H151953   0.404   2.324   1.602
10154TIP3    H251954   0.548   2.369   1.614
10155TIP3   OH251955   0.031   2.012  11.426
10155TIP3    H151956   0.016   2.037  11.335
10155TIP3    H251957  -0.054   2.025  11.469
10156TIP3   OH251958   1.252   3.878   1.306
10156TIP3    H151959   1.297   3.825   1.372
10156TIP3    H251960   1.163   3.843   1.303
10157TIP3   OH251961   2.741   3.044  14.121
10157TIP3    H151962   2.646   3.046  14.113
10157TIP3    H251963   2.766   3.135  14.137
10158TIP3   OH251964   5.439   4.893  10.781
10158TIP3    H151965   5.402   4.824  10.726
10158TIP3    H251966   5.363   4.941  10.814
10159TIP3   OH251967   2.651   1.239  11.511
10159TIP3    H151968   2.705   1.317  11.504
10159TIP3    H251969   2.613   1.228  11.424
10160TIP3   OH251970   5.800   1.026  12.155
10160TIP3    H151971   5.716   0.996  12.121
10160TIP3    H251972   5.784   1.116  12.184
10161TIP3   OH251973   6.577   2.703  11.360
10161TIP3    H151974   6.605   2.703  11.451
10161TIP3    H251975   6.581   2.611  11.334
10162TIP3   OH251976   6.026   1.545   0.969
10162TIP3    H151977   5.968   1.501   0.906
10162TIP3    H251978   6.081   1.475   1.003
10163TIP3   OH251979   0.458   0.960  11.489
10163TIP3    H151980   0.510   1.029  11.448
10163TIP3    H251981   0.369   0.997  11.493
10164TIP3   OH251982   0.357   1.217  14.987
10164TIP3    H151983   0.377   1.290  14.928
10164TIP3    H251984   0.418   1.228  15.060
10165TIP3   OH251985   5.301   0.825   0.083
10165TIP3    H151986   5.283   0.736   0.052
10165TIP3    H251987   5.321   0.874   0.004
10166TIP3   OH251988   2.807   1.591  16.059
10166TIP3    H151989   2.739   1.587  15.991
10166TIP3    H251990   2.876   1.644  16.020
10167TIP3   OH251991   3.197   1.963   4.093
10167TIP3    H151992   3.206   1.897   4.162
10167TIP3    H251993   3.166   1.915   4.017
10168TIP3   OH251994   6.324   6.370  15.228
10168TIP3    H151995   6.251   6.313  15.204
10168TIP3    H251996   6.283   6.453  15.252
10169TIP3   OH251997   0.724   6.711   0.640
10169TIP3    H151998   0.673   6.710   0.559
10169TIP3    H251999   0.816   6.707   0.611
10170TIP3   OH252000   1.132   5.399   5.138
10170TIP3    H152001   1.142   5.320   5.192
10170TIP3    H252002   1.046   5.390   5.098
10171TIP3   OH252003   0.944   6.476   5.666
10171TIP3    H152004   0.983   6.416   5.603
10171TIP3    H252005   0.892   6.536   5.612
10172TIP3   OH252006   4.703   0.279  13.094
10172TIP3    H152007   4.743   0.213  13.151
10172TIP3    H252008   4.659   0.340  13.154
10173TIP3   OH252009   1.865   0.517  16.893
10173TIP3    H152010   1.778   0.483  16.874
10173TIP3    H252011   1.882   0.490  16.983
10174TIP3   OH252012   3.029   1.311  15.916
10174TIP3    H152013   3.110   1.356  15.940
10174TIP3    H252014   2.965   1.342  15.980
10175TIP3   OH252015   0.264   5.265   1.537
10175TIP3    H152016   0.269   5.173   1.510
10175TIP3    H252017   0.174   5.291   1.515
10176TIP3   OH252018   1.764   0.287  15.386
10176TIP3    H152019   1.701   0.227  15.426
10176TIP3    H252020   1.810   0.234  15.321
10177TIP3   OH252021   6.481   4.922  13.378
10177TIP3    H152022   6.480   5.017  13.395
10177TIP3    H252023   6.396   4.906  13.336
10178TIP3   OH252024   1.203   0.698  14.836
10178TIP3    H152025   1.138   0.750  14.788
10178TIP3    H252026   1.153   0.622  14.867
10179TIP3   OH252027   1.050   2.430   5.758
10179TIP3    H152028   0.987   2.447   5.828
10179TIP3    H252029   1.093   2.349   5.783
10180TIP3   OH252030   2.212   5.741   5.517
10180TIP3    H152031   2.197   5.648   5.499
10180TIP3    H252032   2.253   5.742   5.604
10181TIP3   OH252033   4.378   6.709  15.797
10181TIP3    H152034   4.342   6.762  15.725
10181TIP3    H252035   4.301   6.671  15.840
10182TIP3   OH252036   4.756   2.930  15.441
10182TIP3    H152037   4.735   3.015  15.403
10182TIP3    H252038   4.799   2.882  15.370
10183TIP3   OH252039   1.536   5.495   5.200
10183TIP3    H152040   1.588   5.493   5.280
10183TIP3    H252041   1.463   5.553   5.222
10184TIP3   OH252042   0.519   0.546   0.434
10184TIP3    H152043   0.520   0.583   0.523
10184TIP3    H252044   0.589   0.592   0.388
10185TIP3   OH252045   4.099   0.965   3.139
10185TIP3    H152046   4.012   0.951   3.175
10185TIP3    H252047   4.095   0.926   3.052
10186TIP3   OH252048   3.651   4.777   1.308
10186TIP3    H152049   3.579   4.838   1.322
10186TIP3    H252050   3.636   4.741   1.221
10187TIP3   OH252051   4.084   0.257   2.547
10187TIP3    H152052   4.052   0.189   2.606
10187TIP3    H252053   4.127   0.320   2.605
10188TIP3   OH252054   3.859   0.231  16.200
10188TIP3    H152055   3.948   0.233  16.235
10188TIP3    H252056   3.832   0.323  16.197
10189TIP3   OH252057   5.572   0.593   5.069
10189TIP3    H152058   5.546   0.550   5.150
10189TIP3    H252059   5.528   0.678   5.073
10190TIP3   OH252060   3.834   1.104   6.098
10190TIP3    H152061   3.925   1.133   6.105
10190TIP3    H252062   3.836   1.014   6.130
10191TIP3   OH252063   2.676   3.449  10.346
10191TIP3    H152064   2.751   3.389  10.343
10191TIP3    H252065   2.704   3.525  10.295
10192TIP3   OH252066   1.187   3.959   5.126
10192TIP3    H152067   1.282   3.967   5.119
10192TIP3    H252068   1.173   3.904   5.203
10193TIP3   OH252069   4.954   5.076  14.404
10193TIP3    H152070   5.003   4.995  14.420
10193TIP3    H252071   4.975   5.132  14.479
10194TIP3   OH252072   2.717   1.238  14.420
10194TIP3    H152073   2.701   1.167  14.482
10194TIP3    H252074   2.747   1.311  14.475
10195TIP3   OH252075   1.799   5.169   3.899
10195TIP3    H152076   1.740   5.168   3.974
10195TIP3    H252077   1.884   5.193   3.936
10196TIP3   OH252078   1.829   3.078   6.034
10196TIP3    H152079   1.896   3.092   5.968
10196TIP3    H252080   1.750   3.057   5.984
10197TIP3   OH252081   3.684   5.114   4.599
10197TIP3    H152082   3.730   5.080   4.522
10197TIP3    H252083   3.734   5.191   4.624
10198TIP3   OH252084   5.611   1.008  17.147
10198TIP3    H152085   5.600   1.101  17.129
10198TIP3    H252086   5.694   0.985  17.104
10199TIP3   OH252087   1.954   5.406   1.571
10199TIP3    H152088   1.916   5.430   1.487
10199TIP3    H252089   2.046   5.388   1.551
10200TIP3   OH252090   5.329   2.881  14.795
10200TIP3    H152091   5.245   2.874  14.840
10200TIP3    H252092   5.309   2.864  14.703
10201TIP3   OH252093   3.672   4.466   5.062
10201TIP3    H152094   3.691   4.479   4.969
10201TIP3    H252095   3.598   4.405   5.063
10202TIP3   OH252096   2.994   6.691  12.649
10202TIP3    H152097   2.940   6.682  12.728
10202TIP3    H252098   3.078   6.723  12.681
10203TIP3   OH252099   5.080   2.321   0.373
10203TIP3    H152100   5.071   2.227   0.360
10203TIP3    H252101   5.004   2.359   0.328
10204TIP3   OH252102   5.378   0.993   4.070
10204TIP3    H152103   5.344   0.912   4.108
10204TIP3    H252104   5.331   1.063   4.115
10205TIP3   OH252105   3.012   1.387  15.086
10205TIP3    H152106   3.098   1.398  15.045
10205TIP3    H252107   2.987   1.476  15.112
10206TIP3   OH252108   4.079   6.310   4.030
10206TIP3    H152109   4.058   6.403   4.021
10206TIP3    H252110   3.994   6.266   4.036
10207TIP3   OH252111   0.150   4.224  16.196
10207TIP3    H152112   0.158   4.277  16.276
10207TIP3    H252113   0.217   4.157  16.206
10208TIP3   OH252114   1.522   6.099  12.978
10208TIP3    H152115   1.492   6.179  12.936
10208TIP3    H252116   1.444   6.062  13.019
10209TIP3   OH252117   1.610   0.878   2.024
10209TIP3    H152118   1.588   0.968   2.046
10209TIP3    H252119   1.621   0.878   1.929
10210TIP3   OH252120   6.597   3.625  15.176
10210TIP3    H152121   6.681   3.585  15.154
10210TIP3    H252122   6.534   3.584  15.117
10211TIP3   OH252123   4.789   5.521  10.643
10211TIP3    H152124   4.851   5.453  10.619
10211TIP3    H252125   4.714   5.473  10.678
10212TIP3   OH252126   3.536   1.970  10.595
10212TIP3    H152127   3.569   1.989  10.683
10212TIP3    H252128   3.520   1.875  10.596
10213TIP3   OH252129   0.971   6.527  16.385
10213TIP3    H152130   1.029   6.464  16.343
10213TIP3    H252131   0.976   6.506  16.478
10214TIP3   OH252132   0.808   5.736   5.790
10214TIP3    H152133   0.808   5.761   5.698
10214TIP3    H252134   0.849   5.649   5.791
10215TIP3   OH252135   5.781   1.540  16.099
10215TIP3    H152136   5.833   1.555  16.177
10215TIP3    H252137   5.709   1.483  16.128
10216TIP3   OH252138   3.473   3.754   3.525
10216TIP3    H152139   3.426   3.678   3.558
10216TIP3    H252140   3.503   3.799   3.604
10217TIP3   OH252141   3.720   1.946   1.941
10217TIP3    H152142   3.698   1.877   1.878
10217TIP3    H252143   3.666   2.020   1.915
10218TIP3   OH252144   1.072   3.676   4.542
10218TIP3    H152145   1.137   3.611   4.517
10218TIP3    H252146   0.998   3.660   4.484
10219TIP3   OH252147   1.549   4.973   5.367
10219TIP3    H152148   1.553   5.065   5.342
10219TIP3    H252149   1.584   4.926   5.291
10220TIP3   OH252150   4.140   3.193   3.980
10220TIP3    H152151   4.049   3.220   3.992
10220TIP3    H252152   4.175   3.253   3.914
10221TIP3   OH252153   1.927   3.236   3.112
10221TIP3    H152154   1.926   3.286   3.031
10221TIP3    H252155   1.852   3.268   3.162
10222TIP3   OH252156   5.506   1.567  13.115
10222TIP3    H152157   5.566   1.629  13.156
10222TIP3    H252158   5.563   1.508  13.065
10223TIP3   OH252159   4.052   1.558  16.381
10223TIP3    H152160   3.999   1.547  16.461
10223TIP3    H252161   4.138   1.583  16.413
10224TIP3   OH252162   3.227   4.242   2.426
10224TIP3    H152163   3.189   4.254   2.339
10224TIP3    H252164   3.183   4.164   2.460
10225TIP3   OH252165   5.407   6.793  15.586
10225TIP3    H152166   5.454   6.870  15.556
10225TIP3    H252167   5.328   6.827  15.629
10226TIP3   OH252168   0.051   3.062  13.508
10226TIP3    H152169   0.104   2.983  13.501
10226TIP3    H252170   0.023   3.079  13.418
10227TIP3   OH252171   2.595   3.058  13.669
10227TIP3    H152172   2.553   3.143  13.683
10227TIP3    H252173   2.556   3.001  13.736
10228TIP3   OH252174   5.378   3.069  13.652
10228TIP3    H152175   5.429   3.143  13.685
10228TIP3    H252176   5.287   3.090  13.675
10229TIP3   OH252177   3.510   4.287   5.166
10229TIP3    H152178   3.526   4.296   5.260
10229TIP3    H252179   3.516   4.192   5.150
10230TIP3   OH252180   0.182   5.833  12.909
10230TIP3    H152181   0.175   5.766  12.977
10230TIP3    H252182   0.145   5.912  12.949
10231TIP3   OH252183   1.671   0.605  12.790
10231TIP3    H152184   1.649   0.680  12.846
10231TIP3    H252185   1.761   0.623  12.761
10232TIP3   OH252186   0.837   4.993  11.173
10232TIP3    H152187   0.827   5.011  11.079
10232TIP3    H252188   0.882   4.908  11.176
10233TIP3   OH252189   5.407   5.349  15.977
10233TIP3    H152190   5.416   5.403  15.898
10233TIP3    H252191   5.390   5.412  16.047
10234TIP3   OH252192   2.765   1.634  15.487
10234TIP3    H152193   2.695   1.584  15.528
10234TIP3    H252194   2.719   1.705  15.441
10235TIP3   OH252195   5.268   2.502   4.532
10235TIP3    H152196   5.175   2.516   4.515
10235TIP3    H252197   5.309   2.587   4.517
10236TIP3   OH252198   2.202   6.276  12.510
10236TIP3    H152199   2.261   6.241  12.443
10236TIP3    H252200   2.123   6.223  12.501
10237TIP3   OH252201   4.873   3.338  17.226
10237TIP3    H152202   4.928   3.392  17.283
10237TIP3    H252203   4.862   3.389  17.146
10238TIP3   OH252204   3.568   3.940  13.939
10238TIP3    H152205   3.662   3.935  13.921
10238TIP3    H252206   3.526   3.907  13.859
10239TIP3   OH252207   5.453   6.047   1.134
10239TIP3    H152208   5.459   5.953   1.151
10239TIP3    H252209   5.377   6.076   1.183
10240TIP3   OH252210   1.608   2.332   4.441
10240TIP3    H152211   1.603   2.404   4.504
10240TIP3    H252212   1.613   2.375   4.355
10241TIP3   OH252213   4.405   1.651   4.508
10241TIP3    H152214   4.466   1.579   4.493
10241TIP3    H252215   4.326   1.627   4.459
10242TIP3   OH252216   6.808   6.710   1.823
10242TIP3    H152217   6.786   6.799   1.851
10242TIP3    H252218   6.788   6.710   1.729
10243TIP3   OH252219   0.178   1.830  15.262
10243TIP3    H152220   0.236   1.756  15.242
10243TIP3    H252221   0.228   1.884  15.323
10244TIP3   OH252222   4.197   0.644   2.153
10244TIP3    H152223   4.119   0.618   2.104
10244TIP3    H252224   4.269   0.597   2.111
10245TIP3   OH252225   5.704   2.049   2.698
10245TIP3    H152226   5.784   2.065   2.747
10245TIP3    H252227   5.634   2.051   2.764
10246TIP3   OH252228   6.668   0.414  12.775
10246TIP3    H152229   6.585   0.371  12.794
10246TIP3    H252230   6.644   0.504  12.753
10247TIP3   OH252231   0.797   3.432   5.496
10247TIP3    H152232   0.752   3.422   5.580
10247TIP3    H252233   0.787   3.525   5.474
10248TIP3   OH252234   1.642   0.205  16.644
10248TIP3    H152235   1.652   0.272  16.577
10248TIP3    H252236   1.592   0.247  16.713
10249TIP3   OH252237   2.887   4.818   0.104
10249TIP3    H152238   2.956   4.756   0.126
10249TIP3    H252239   2.891   4.825   0.008
10250TIP3   OH252240   0.769   4.673  11.884
10250TIP3    H152241   0.816   4.634  11.957
10250TIP3    H252242   0.677   4.656  11.901
10251TIP3   OH252243   4.120   4.997  11.092
10251TIP3    H152244   4.091   5.065  11.152
10251TIP3    H252245   4.040   4.949  11.070
10252TIP3   OH252246   5.650   5.196   6.349
10252TIP3    H152247   5.608   5.188   6.434
10252TIP3    H252248   5.582   5.233   6.292
10253TIP3   OH252249   3.795   6.728   5.227
10253TIP3    H152250   3.886   6.736   5.199
10253TIP3    H252251   3.780   6.805   5.281
10254TIP3   OH252252   1.550   5.307  15.711
10254TIP3    H152253   1.517   5.293  15.800
10254TIP3    H252254   1.615   5.376  15.720
10255TIP3   OH252255   1.480   0.097   0.363
10255TIP3    H152256   1.538   0.097   0.439
10255TIP3    H252257   1.495   0.013   0.320
10256TIP3   OH252258   2.016   2.654   5.038
10256TIP3    H152259   1.957   2.624   4.969
10256TIP3    H252260   2.009   2.750   5.037
10257TIP3   OH252261   2.264   0.472  16.766
10257TIP3    H152262   2.180   0.456  16.723
10257TIP3    H252263   2.250   0.447  16.857
10258TIP3   OH252264   6.807   1.815   1.967
10258TIP3    H152265   6.806   1.785   1.876
10258TIP3    H252266   6.892   1.856   1.978
10259TIP3   OH252267   3.144   3.659  15.391
10259TIP3    H152268   3.218   3.716  15.367
10259TIP3    H252269   3.170   3.572  15.362
10260TIP3   OH252270   0.336   0.171   5.671
10260TIP3    H152271   0.273   0.212   5.611
10260TIP3    H252272   0.421   0.198   5.638
10261TIP3   OH252273   2.986   6.692   2.556
10261TIP3    H152274   3.008   6.785   2.553
10261TIP3    H252275   3.071   6.648   2.567
10262TIP3   OH252276   0.809   6.482  12.097
10262TIP3    H152277   0.739   6.447  12.151
10262TIP3    H252278   0.889   6.448  12.136
10263TIP3   OH252279   4.154   5.673  16.220
10263TIP3    H152280   4.202   5.625  16.288
10263TIP3    H252281   4.080   5.712  16.265
10264TIP3   OH252282   6.735   1.639  13.716
10264TIP3    H152283   6.686   1.648  13.635
10264TIP3    H252284   6.714   1.551  13.747
10265TIP3   OH252285   6.253   5.299   1.713
10265TIP3    H152286   6.236   5.206   1.729
10265TIP3    H252287   6.341   5.302   1.676
10266TIP3   OH252288   4.493   5.712   1.766
10266TIP3    H152289   4.441   5.634   1.785
10266TIP3    H252290   4.488   5.722   1.671
10267TIP3   OH252291   1.248   4.336  13.883
10267TIP3    H152292   1.251   4.425  13.849
10267TIP3    H252293   1.278   4.281  13.810
10268TIP3   OH252294   4.425   5.125   5.027
10268TIP3    H152295   4.388   5.043   4.995
10268TIP3    H252296   4.447   5.174   4.947
10269TIP3   OH252297   3.158   6.561   3.031
10269TIP3    H152298   3.227   6.583   3.093
10269TIP3    H252299   3.079   6.552   3.084
10270TIP3   OH252300   4.797   6.028  12.911
10270TIP3    H152301   4.721   6.083  12.892
10270TIP3    H252302   4.867   6.091  12.929
10271TIP3   OH252303   3.073   0.970  13.572
10271TIP3    H152304   3.074   0.881  13.536
10271TIP3    H252305   2.990   1.007  13.543
10272TIP3   OH252306   3.883   1.192   4.215
10272TIP3    H152307   3.849   1.265   4.268
10272TIP3    H252308   3.892   1.120   4.276
10273TIP3   OH252309   2.462   0.687   2.732
10273TIP3    H152310   2.400   0.711   2.801
10273TIP3    H252311   2.543   0.667   2.779
10274TIP3   OH252312   2.517   2.128   5.447
10274TIP3    H152313   2.509   2.034   5.432
10274TIP3    H252314   2.578   2.135   5.521
10275TIP3   OH252315   2.477   5.508  13.863
10275TIP3    H152316   2.530   5.487  13.940
10275TIP3    H252317   2.430   5.427  13.844
10276TIP3   OH252318   5.198   4.336   3.190
10276TIP3    H152319   5.170   4.256   3.145
10276TIP3    H252320   5.116   4.382   3.209
10277TIP3   OH252321   4.396   5.865  16.699
10277TIP3    H152322   4.389   5.830  16.788
10277TIP3    H252323   4.457   5.938  16.706
10278TIP3   OH252324   2.583   6.755   0.423
10278TIP3    H152325   2.588   6.714   0.510
10278TIP3    H252326   2.502   6.720   0.385
10279TIP3   OH252327   1.355   6.351  13.136
10279TIP3    H152328   1.350   6.259  13.110
10279TIP3    H252329   1.329   6.352  13.228
10280TIP3   OH252330   5.326   2.414  12.818
10280TIP3    H152331   5.274   2.434  12.740
10280TIP3    H252332   5.373   2.495  12.837
10281TIP3   OH252333   1.678   5.228   6.527
10281TIP3    H152334   1.653   5.144   6.488
10281TIP3    H252335   1.598   5.281   6.521
10282TIP3   OH252336   0.385   5.913  15.656
10282TIP3    H152337   0.347   5.964  15.584
10282TIP3    H252338   0.320   5.845  15.674
10283TIP3   OH252339   3.688   5.952  11.312
10283TIP3    H152340   3.705   5.859  11.325
10283TIP3    H252341   3.612   5.954  11.252
10284TIP3   OH252342   5.564   5.262   3.746
10284TIP3    H152343   5.618   5.215   3.810
10284TIP3    H252344   5.475   5.233   3.764
10285TIP3   OH252345   0.893   2.846  16.143
10285TIP3    H152346   0.808   2.886  16.162
10285TIP3    H252347   0.873   2.754  16.124
10286TIP3   OH252348   3.265   5.123  11.807
10286TIP3    H152349   3.315   5.171  11.741
10286TIP3    H252350   3.220   5.054  11.757
10287TIP3   OH252351   0.470   4.281   3.148
10287TIP3    H152352   0.400   4.278   3.083
10287TIP3    H252353   0.483   4.375   3.165
10288TIP3   OH252354   5.381   0.081  17.180
10288TIP3    H152355   5.410   0.172  17.179
10288TIP3    H252356   5.459   0.031  17.206
10289TIP3   OH252357   3.795   6.532  15.558
10289TIP3    H152358   3.780   6.577  15.641
10289TIP3    H252359   3.774   6.597  15.491
10290TIP3   OH252360   4.130   3.613  12.301
10290TIP3    H152361   4.142   3.673  12.227
10290TIP3    H252362   4.104   3.530  12.262
10291TIP3   OH252363   4.973   6.536   5.157
10291TIP3    H152364   4.916   6.465   5.126
10291TIP3    H252365   4.921   6.581   5.223
10292TIP3   OH252366   5.179   4.223   4.828
10292TIP3    H152367   5.085   4.241   4.818
10292TIP3    H252368   5.186   4.127   4.824
10293TIP3   OH252369   5.730   5.172   0.081
10293TIP3    H152370   5.731   5.093   0.028
10293TIP3    H252371   5.701   5.143   0.168
10294TIP3   OH252372   5.873   0.202   2.060
10294TIP3    H152373   5.804   0.268   2.065
10294TIP3    H252374   5.954   0.251   2.047
10295TIP3   OH252375   3.400   0.857  14.091
10295TIP3    H152376   3.459   0.811  14.151
10295TIP3    H252377   3.374   0.790  14.027
10296TIP3   OH252378   5.026   0.244   3.656
10296TIP3    H152379   5.054   0.319   3.604
10296TIP3    H252380   4.987   0.282   3.734
10297TIP3   OH252381   3.101   6.641  16.292
10297TIP3    H152382   3.039   6.713  16.292
10297TIP3    H252383   3.066   6.579  16.228
10298TIP3   OH252384   4.351   5.878  12.305
10298TIP3    H152385   4.380   5.958  12.348
10298TIP3    H252386   4.258   5.870  12.329
10299TIP3   OH252387   5.875   5.636  10.874
10299TIP3    H152388   5.952   5.657  10.927
10299TIP3    H252389   5.819   5.714  10.880
10300TIP3   OH252390   2.587   0.511   0.464
10300TIP3    H152391   2.525   0.438   0.468
10300TIP3    H252392   2.623   0.507   0.376
10301TIP3   OH252393   5.163   3.228   3.331
10301TIP3    H152394   5.212   3.274   3.399
10301TIP3    H252395   5.216   3.151   3.311
10302TIP3   OH252396   2.216   6.132   5.549
10302TIP3    H152397   2.245   6.095   5.465
10302TIP3    H252398   2.170   6.212   5.525
10303TIP3   OH252399   0.343   2.986   3.233
10303TIP3    H152400   0.254   2.973   3.200
10303TIP3    H252401   0.331   3.003   3.326
10304TIP3   OH252402   2.435   0.460  12.059
10304TIP3    H152403   2.357   0.406  12.053
10304TIP3    H252404   2.466   0.469  11.969
10305TIP3   OH252405   5.980   0.711  12.218
10305TIP3    H152406   6.073   0.701  12.196
10305TIP3    H252407   5.979   0.727  12.312
10306TIP3   OH252408   5.558   5.206  11.514
10306TIP3    H152409   5.478   5.179  11.559
10306TIP3    H252410   5.544   5.298  11.493
10307TIP3   OH252411   6.485   5.234   0.996
10307TIP3    H152412   6.432   5.197   0.926
10307TIP3    H252413   6.568   5.255   0.954
10308TIP3   OH252414   5.929   4.795  16.374
10308TIP3    H152415   6.014   4.813  16.335
10308TIP3    H252416   5.866   4.807  16.303
10309TIP3   OH252417   0.099   1.664   1.688
10309TIP3    H152418   0.050   1.637   1.610
10309TIP3    H252419   0.187   1.627   1.675
10310TIP3   OH252420   6.698   6.237   1.707
10310TIP3    H152421   6.654   6.315   1.672
10310TIP3    H252422   6.667   6.165   1.651
10311TIP3   OH252423   0.539   5.725  14.593
10311TIP3    H152424   0.589   5.806  14.588
10311TIP3    H252425   0.504   5.724  14.682
10312TIP3   OH252426   4.571   5.440  11.218
10312TIP3    H152427   4.645   5.486  11.179
10312TIP3    H252428   4.513   5.420  11.144
10313TIP3   OH252429   4.874   2.925  14.023
10313TIP3    H152430   4.845   2.975  13.947
10313TIP3    H252431   4.812   2.851  14.028
10314TIP3   OH252432   2.413   5.671  16.294
10314TIP3    H152433   2.418   5.581  16.264
10314TIP3    H252434   2.328   5.702  16.264
10315TIP3   OH252435   4.844   3.779  16.324
10315TIP3    H152436   4.905   3.722  16.278
10315TIP3    H252437   4.863   3.765  16.417
10316TIP3   OH252438   5.414   3.669   1.354
10316TIP3    H152439   5.338   3.619   1.324
10316TIP3    H252440   5.422   3.741   1.291
10317TIP3   OH252441   5.193   5.239  15.635
10317TIP3    H152442   5.266   5.178  15.630
10317TIP3    H252443   5.234   5.326  15.636
10318TIP3   OH252444   1.860   4.657  13.430
10318TIP3    H152445   1.830   4.680  13.343
10318TIP3    H252446   1.952   4.684  13.432
10319TIP3   OH252447   5.260   4.613  11.688
10319TIP3    H152448   5.168   4.613  11.716
10319TIP3    H252449   5.292   4.526  11.712
10320TIP3   OH252450   6.774   1.219  16.012
10320TIP3    H152451   6.790   1.129  16.038
10320TIP3    H252452   6.693   1.244  16.056
10321TIP3   OH252453   5.992   5.020  14.413
10321TIP3    H152454   6.068   5.015  14.471
10321TIP3    H252455   6.003   5.102  14.365
10322TIP3   OH252456   3.862   4.665  13.122
10322TIP3    H152457   3.933   4.730  13.121
10322TIP3    H252458   3.907   4.581  13.119
10323TIP3   OH252459   2.366   0.159  11.717
10323TIP3    H152460   2.362   0.074  11.674
10323TIP3    H252461   2.370   0.223  11.646
10324TIP3   OH252462   6.683   5.829  12.261
10324TIP3    H152463   6.745   5.862  12.326
10324TIP3    H252464   6.653   5.746  12.298
10325TIP3   OH252465   4.034   6.285   5.433
10325TIP3    H152466   4.061   6.338   5.509
10325TIP3    H252467   4.115   6.270   5.384
10326TIP3   OH252468   5.549   3.436  17.254
10326TIP3    H152469   5.480   3.424  17.189
10326TIP3    H252470   5.625   3.463  17.203
10327TIP3   OH252471   0.282   1.033   1.220
10327TIP3    H152472   0.330   0.963   1.176
10327TIP3    H252473   0.193   1.025   1.186
10328TIP3   OH252474   2.884   0.466  15.082
10328TIP3    H152475   2.816   0.421  15.133
10328TIP3    H252476   2.838   0.501  15.006
10329TIP3   OH252477   6.569   4.465   2.244
10329TIP3    H152478   6.504   4.414   2.293
10329TIP3    H252479   6.518   4.534   2.202
10330TIP3   OH252480   4.693   6.426  15.933
10330TIP3    H152481   4.666   6.516  15.919
10330TIP3    H252482   4.612   6.375  15.926
10331TIP3   OH252483   3.546   0.773   3.907
10331TIP3    H152484   3.458   0.760   3.872
10331TIP3    H252485   3.594   0.815   3.836
10332TIP3   OH252486   1.912   0.641   4.695
10332TIP3    H152487   1.860   0.562   4.684
10332TIP3    H252488   1.976   0.638   4.624
10333TIP3   OH252489   3.913   5.759  16.896
10333TIP3    H152490   3.902   5.706  16.975
10333TIP3    H252491   3.984   5.716  16.848
10334TIP3   OH252492   3.300   3.210   4.068
10334TIP3    H152493   3.371   3.146   4.075
10334TIP3    H252494   3.241   3.173   4.003
10335TIP3   OH252495   0.713   6.753   4.974
10335TIP3    H152496   0.640   6.711   5.020
10335TIP3    H252497   0.750   6.683   4.920
10336TIP3   OH252498   2.139   1.478   1.142
10336TIP3    H152499   2.177   1.432   1.067
10336TIP3    H252500   2.117   1.565   1.107
10337TIP3   OH252501   5.705   5.113  13.633
10337TIP3    H152502   5.749   5.149  13.710
10337TIP3    H252503   5.738   5.165  13.559
10338TIP3   OH252504   3.590   0.073  13.061
10338TIP3    H152505   3.594  -0.014  13.102
10338TIP3    H252506   3.559   0.130  13.131
10339TIP3   OH252507   6.032   5.010  12.269
10339TIP3    H152508   6.071   4.940  12.216
10339TIP3    H252509   5.960   5.043  12.216
10340TIP3   OH252510   4.420   3.703   2.239
10340TIP3    H152511   4.494   3.665   2.287
10340TIP3    H252512   4.460   3.763   2.176
10341TIP3   OH252513   6.766   0.946  10.857
10341TIP3    H152514   6.709   0.911  10.788
10341TIP3    H252515   6.819   0.871  10.885
10342TIP3   OH252516   5.905   3.721  15.640
10342TIP3    H152517   5.822   3.763  15.618
10342TIP3    H252518   5.972   3.776  15.600
10343TIP3   OH252519   4.930   0.346  16.871
10343TIP3    H152520   4.927   0.436  16.903
10343TIP3    H252521   4.910   0.353  16.778
10344TIP3   OH252522   0.113   3.769   5.981
10344TIP3    H152523   0.162   3.713   6.042
10344TIP3    H252524   0.059   3.824   6.037
10345TIP3   OH252525   4.690   1.008  16.801
10345TIP3    H152526   4.768   0.963  16.769
10345TIP3    H252527   4.721   1.093  16.831
10346TIP3   OH252528   0.825   1.192   0.249
10346TIP3    H152529   0.851   1.100   0.245
10346TIP3    H252530   0.729   1.190   0.249
10347TIP3   OH252531   4.858   3.901  16.591
10347TIP3    H152532   4.808   3.964  16.539
10347TIP3    H252533   4.947   3.906  16.556
10348TIP3   OH252534   3.881   6.787  10.881
10348TIP3    H152535   3.946   6.857  10.871
10348TIP3    H252536   3.870   6.751  10.792
10349TIP3   OH252537   0.801   6.214  14.613
10349TIP3    H152538   0.823   6.249  14.700
10349TIP3    H252539   0.772   6.291  14.564
10350TIP3   OH252540   1.806   1.737   1.093
10350TIP3    H152541   1.847   1.691   1.019
10350TIP3    H252542   1.731   1.683   1.116
10351TIP3   OH252543   1.395   5.113  11.488
10351TIP3    H152544   1.413   5.022  11.512
10351TIP3    H252545   1.481   5.154  11.480
10352TIP3   OH252546   3.372   4.875   4.362
10352TIP3    H152547   3.370   4.964   4.399
10352TIP3    H252548   3.451   4.874   4.308
10353TIP3   OH252549   5.121   2.205  15.712
10353TIP3    H152550   5.036   2.233  15.747
10353TIP3    H252551   5.100   2.156  15.632
10354TIP3   OH252552   0.029   3.458   1.357
10354TIP3    H152553   0.091   3.427   1.291
10354TIP3    H252554   0.065   3.541   1.386
10355TIP3   OH252555   3.917   1.179  14.061
10355TIP3    H152556   3.931   1.243  14.130
10355TIP3    H252557   3.822   1.170  14.055
10356TIP3   OH252558   0.250   5.504  11.664
10356TIP3    H152559   0.221   5.413  11.667
10356TIP3    H252560   0.281   5.522  11.752
10357TIP3   OH252561   4.743   4.863  16.814
10357TIP3    H152562   4.818   4.917  16.839
10357TIP3    H252563   4.780   4.800  16.751
10358TIP3   OH252564   1.665   1.421   0.602
10358TIP3    H152565   1.714   1.341   0.622
10358TIP3    H252566   1.714   1.462   0.531
10359TIP3   OH252567   2.432   6.025  11.422
10359TIP3    H152568   2.467   6.113  11.430
10359TIP3    H252569   2.436   5.988  11.510
10360TIP3   OH252570   4.489   4.222   2.436
10360TIP3    H152571   4.446   4.207   2.353
10360TIP3    H252572   4.578   4.251   2.413
10361TIP3   OH252573   5.371   2.494   5.700
10361TIP3    H152574   5.373   2.527   5.790
10361TIP3    H252575   5.441   2.429   5.697
10362TIP3   OH252576   4.042   6.376  14.263
10362TIP3    H152577   4.060   6.429  14.341
10362TIP3    H252578   4.004   6.295  14.297
10363TIP3   OH252579   2.790   4.716  14.223
10363TIP3    H152580   2.708   4.713  14.174
10363TIP3    H252581   2.776   4.657  14.297
10364TIP3   OH252582   0.904   4.560   1.726
10364TIP3    H152583   0.907   4.556   1.821
10364TIP3    H252584   0.842   4.630   1.706
10365TIP3   OH252585   5.483   1.220  14.847
10365TIP3    H152586   5.449   1.137  14.878
10365TIP3    H252587   5.500   1.270  14.927
10366TIP3   OH252588   6.693   3.984   0.251
10366TIP3    H152589   6.740   4.056   0.293
10366TIP3    H252590   6.676   4.016   0.162
10367TIP3   OH252591   3.906   0.750  10.532
10367TIP3    H152592   3.942   0.674  10.578
10367TIP3    H252593   3.980   0.785  10.482
10368TIP3   OH252594   2.734   3.093   1.741
10368TIP3    H152595   2.805   3.142   1.782
10368TIP3    H252596   2.768   3.068   1.655
10369TIP3   OH252597   3.564   1.439   6.029
10369TIP3    H152598   3.572   1.504   5.960
10369TIP3    H252599   3.514   1.483   6.098
10370TIP3   OH252600   0.345   2.746  15.470
10370TIP3    H152601   0.422   2.799  15.490
10370TIP3    H252602   0.270   2.802  15.493
10371TIP3   OH252603   0.369   3.798  12.626
10371TIP3    H152604   0.437   3.842  12.576
10371TIP3    H252605   0.304   3.772  12.561
10372TIP3   OH252606   3.443   2.220  15.751
10372TIP3    H152607   3.506   2.195  15.683
10372TIP3    H252608   3.438   2.315  15.746
10373TIP3   OH252609   6.421   3.737   4.324
10373TIP3    H152610   6.479   3.751   4.249
10373TIP3    H252611   6.341   3.700   4.286
10374TIP3   OH252612   0.649   6.270  15.458
10374TIP3    H152613   0.574   6.318  15.493
10374TIP3    H252614   0.616   6.181  15.445
10375TIP3   OH252615   0.407   0.306   0.534
10375TIP3    H152616   0.338   0.355   0.579
10375TIP3    H252617   0.476   0.371   0.519
10376TIP3   OH252618   3.668   3.950  16.592
10376TIP3    H152619   3.618   3.921  16.667
10376TIP3    H252620   3.659   4.046  16.592
10377TIP3   OH252621   2.977   6.365  16.564
10377TIP3    H152622   2.933   6.449  16.575
10377TIP3    H252623   2.944   6.332  16.480
10378TIP3   OH252624   5.358   0.118   6.668
10378TIP3    H152625   5.274   0.114   6.714
10378TIP3    H252626   5.376   0.211   6.658
10379TIP3   OH252627   4.687   4.835  15.372
10379TIP3    H152628   4.608   4.874  15.336
10379TIP3    H252629   4.667   4.822  15.465
10380TIP3   OH252630   1.067   2.335  15.558
10380TIP3    H152631   1.125   2.268  15.524
10380TIP3    H252632   0.980   2.311  15.525
10381TIP3   OH252633   0.029   5.349  14.244
10381TIP3    H152634   0.113   5.383  14.213
10381TIP3    H252635   0.021   5.263  14.202
10382TIP3   OH252636   0.783   5.732  11.418
10382TIP3    H152637   0.848   5.769  11.358
10382TIP3    H252638   0.711   5.705  11.361
10383TIP3   OH252639   3.119   0.172  14.464
10383TIP3    H152640   3.198   0.147  14.511
10383TIP3    H252641   3.148   0.189  14.375
10384TIP3   OH252642   2.906   0.660  14.189
10384TIP3    H152643   2.992   0.678  14.152
10384TIP3    H252644   2.924   0.602  14.264
10385TIP3   OH252645   0.766   2.081  15.206
10385TIP3    H152646   0.829   2.151  15.222
10385TIP3    H252647   0.772   2.026  15.285
10386TIP3   OH252648   0.025   2.943   3.861
10386TIP3    H152649  -0.003   2.861   3.901
10386TIP3    H252650   0.102   2.919   3.809
10387TIP3   OH252651   4.346   1.059   3.212
10387TIP3    H152652   4.414   0.994   3.229
10387TIP3    H252653   4.269   1.008   3.189
10388TIP3   OH252654   1.934   0.966  14.064
10388TIP3    H152655   1.998   1.037  14.064
10388TIP3    H252656   1.850   1.010  14.047
10389TIP3   OH252657   3.282   3.363   1.917
10389TIP3    H152658   3.221   3.314   1.974
10389TIP3    H252659   3.229   3.384   1.840
10390TIP3   OH252660   3.101   5.596   0.403
10390TIP3    H152661   3.010   5.614   0.378
10390TIP3    H252662   3.141   5.560   0.324
10391TIP3   OH252663   0.964   4.689   5.221
10391TIP3    H152664   0.906   4.729   5.285
10391TIP3    H252665   0.926   4.603   5.203
10392TIP3   OH252666   0.712   2.766   4.324
10392TIP3    H152667   0.804   2.788   4.341
10392TIP3    H252668   0.701   2.679   4.361
10393TIP3   OH252669   4.501   0.626   5.485
10393TIP3    H152670   4.491   0.531   5.483
10393TIP3    H252671   4.521   0.646   5.576
10394TIP3   OH252672   6.687   1.210  16.969
10394TIP3    H152673   6.781   1.199  16.958
10394TIP3    H252674   6.648   1.158  16.898
10395TIP3   OH252675   1.744   6.128   0.898
10395TIP3    H152676   1.702   6.172   0.825
10395TIP3    H252677   1.688   6.146   0.973
10396TIP3   OH252678   4.173   0.096   2.343
10396TIP3    H152679   4.222   0.024   2.384
10396TIP3    H252680   4.143   0.149   2.416
10397TIP3   OH252681   4.479   1.103   0.475
10397TIP3    H152682   4.421   1.028   0.487
10397TIP3    H252683   4.564   1.073   0.509
10398TIP3   OH252684   4.768   5.734  10.801
10398TIP3    H152685   4.676   5.724  10.824
10398TIP3    H252686   4.782   5.672  10.730
10399TIP3   OH252687   3.122   0.403  12.903
10399TIP3    H152688   3.186   0.381  12.971
10399TIP3    H252689   3.038   0.404  12.949
10400TIP3   OH252690   3.452   1.551   5.222
10400TIP3    H152691   3.526   1.529   5.165
10400TIP3    H252692   3.380   1.570   5.161
10401TIP3   OH252693   6.251   5.833  13.110
10401TIP3    H152694   6.171   5.809  13.064
10401TIP3    H252695   6.274   5.756  13.162
10402TIP3   OH252696   5.881   1.959   3.641
10402TIP3    H152697   5.887   1.866   3.621
10402TIP3    H252698   5.796   1.970   3.683
10403TIP3   OH252699   3.000   4.346   2.012
10403TIP3    H152700   3.042   4.272   2.055
10403TIP3    H252701   2.914   4.353   2.055
10404TIP3   OH252702   1.876   4.981   0.231
10404TIP3    H152703   1.872   4.922   0.306
10404TIP3    H252704   1.837   5.062   0.262
10405TIP3   OH252705   6.429   4.645  16.450
10405TIP3    H152706   6.512   4.662  16.495
10405TIP3    H252707   6.380   4.589  16.511
10406TIP3   OH252708   6.806   1.408  11.010
10406TIP3    H152709   6.747   1.351  10.961
10406TIP3    H252710   6.795   1.381  11.101
10407TIP3   OH252711   4.235   1.788   2.344
10407TIP3    H152712   4.189   1.767   2.262
10407TIP3    H252713   4.295   1.715   2.357
10408TIP3   OH252714   1.941   1.671  12.941
10408TIP3    H152715   1.999   1.678  12.865
10408TIP3    H252716   1.931   1.761  12.972
10409TIP3   OH252717   3.132   2.374   0.250
10409TIP3    H152718   3.079   2.346   0.176
10409TIP3    H252719   3.169   2.459   0.223
10410TIP3   OH252720   4.851   2.910   4.163
10410TIP3    H152721   4.845   2.977   4.232
10410TIP3    H252722   4.847   2.959   4.081
10411TIP3   OH252723   5.079   1.844  15.769
10411TIP3    H152724   5.110   1.864  15.681
10411TIP3    H252725   4.984   1.832  15.759
10412TIP3   OH252726   0.851   6.304   4.118
10412TIP3    H152727   0.884   6.391   4.139
10412TIP3    H252728   0.888   6.284   4.032
10413TIP3   OH252729   6.526   6.131   3.871
10413TIP3    H152730   6.583   6.090   3.937
10413TIP3    H252731   6.586   6.178   3.814
10414TIP3   OH252732   6.399   5.251  14.329
10414TIP3    H152733   6.320   5.269  14.379
10414TIP3    H252734   6.462   5.219  14.394
10415TIP3   OH252735   2.202   0.222   2.141
10415TIP3    H152736   2.135   0.166   2.180
10415TIP3    H252737   2.153   0.280   2.083
10416TIP3   OH252738   2.095   4.342  15.608
10416TIP3    H152739   2.145   4.332  15.689
10416TIP3    H252740   2.104   4.258  15.563
10417TIP3   OH252741   5.497   2.834   0.452
10417TIP3    H152742   5.413   2.790   0.447
10417TIP3    H252743   5.561   2.763   0.449
10418TIP3   OH252744   1.935   5.568   2.553
10418TIP3    H152745   2.008   5.628   2.541
10418TIP3    H252746   1.927   5.522   2.470
10419TIP3   OH252747   5.550   2.272  16.020
10419TIP3    H152748   5.457   2.248  16.018
10419TIP3    H252749   5.573   2.286  15.928
10420TIP3   OH252750   6.777   3.758  11.334
10420TIP3    H152751   6.697   3.808  11.317
10420TIP3    H252752   6.827   3.765  11.252
10421TIP3   OH252753   3.121   6.194   0.053
10421TIP3    H152754   3.202   6.144   0.067
10421TIP3    H252755   3.051   6.134   0.079
10422TIP3   OH252756   3.578   5.051  15.002
10422TIP3    H152757   3.486   5.030  14.986
10422TIP3    H252758   3.579   5.146  15.017
10423TIP3   OH252759   2.726   4.485   3.263
10423TIP3    H152760   2.756   4.565   3.221
10423TIP3    H252761   2.655   4.513   3.320
10424TIP3   OH252762   2.329   0.690  12.325
10424TIP3    H152763   2.414   0.647  12.336
10424TIP3    H252764   2.296   0.699  12.415
10425TIP3   OH252765   4.604   0.079   5.758
10425TIP3    H152766   4.678   0.131   5.789
10425TIP3    H252767   4.585   0.113   5.671
10426TIP3   OH252768   1.083   0.284   4.088
10426TIP3    H152769   1.103   0.206   4.140
10426TIP3    H252770   1.004   0.261   4.040
10427TIP3   OH252771   4.485   0.653   3.095
10427TIP3    H152772   4.455   0.663   3.004
10427TIP3    H252773   4.505   0.560   3.103
10428TIP3   OH252774   5.331   5.773   2.187
10428TIP3    H152775   5.397   5.795   2.120
10428TIP3    H252776   5.318   5.855   2.235
10429TIP3   OH252777   0.945   6.175  11.232
10429TIP3    H152778   1.026   6.124  11.236
10429TIP3    H252779   0.880   6.120  11.274
10430TIP3   OH252780   4.394   5.823   0.134
10430TIP3    H152781   4.458   5.882   0.095
10430TIP3    H252782   4.380   5.755   0.069
10431TIP3   OH252783   5.920   4.316  14.007
10431TIP3    H152784   5.955   4.327  14.096
10431TIP3    H252785   5.948   4.229  13.981
10432TIP3   OH252786   6.200   3.692   1.143
10432TIP3    H152787   6.244   3.651   1.068
10432TIP3    H252788   6.162   3.618   1.192
10433TIP3   OH252789   2.215   4.739   0.659
10433TIP3    H152790   2.133   4.692   0.647
10433TIP3    H252791   2.283   4.679   0.628
10434TIP3   OH252792   2.389   3.111  10.807
10434TIP3    H152793   2.456   3.145  10.747
10434TIP3    H252794   2.310   3.161  10.787
10435TIP3   OH252795   0.874   4.070  13.421
10435TIP3    H152796   0.813   4.143  13.411
10435TIP3    H252797   0.824   4.003  13.468
10436TIP3   OH252798   4.216   6.585  14.911
10436TIP3    H152799   4.269   6.615  14.837
10436TIP3    H252800   4.184   6.666  14.951
10437TIP3   OH252801   2.024   4.559  15.061
10437TIP3    H152802   2.037   4.486  15.000
10437TIP3    H252803   1.968   4.620  15.014
10438TIP3   OH252804   3.051   1.685   5.603
10438TIP3    H152805   3.040   1.781   5.601
10438TIP3    H252806   3.010   1.659   5.686
10439TIP3   OH252807   5.576   1.479   6.052
10439TIP3    H152808   5.528   1.408   6.095
10439TIP3    H252809   5.632   1.435   5.987
10440TIP3   OH252810   4.073   6.407   2.057
10440TIP3    H152811   4.032   6.459   1.988
10440TIP3    H252812   4.002   6.353   2.093
10441TIP3   OH252813   1.050   3.590  11.634
10441TIP3    H152814   1.145   3.597  11.643
10441TIP3    H252815   1.016   3.653  11.697
10442TIP3   OH252816   4.154   3.733   0.557
10442TIP3    H152817   4.182   3.669   0.622
10442TIP3    H252818   4.102   3.683   0.494
10443TIP3   OH252819   0.365   5.379   3.892
10443TIP3    H152820   0.332   5.301   3.938
10443TIP3    H252821   0.286   5.422   3.859
10444TIP3   OH252822   4.578   2.024  11.753
10444TIP3    H152823   4.497   2.064  11.722
10444TIP3    H252824   4.561   1.930  11.750
10445TIP3   OH252825   0.541   4.622   1.744
10445TIP3    H152826   0.478   4.680   1.702
10445TIP3    H252827   0.564   4.559   1.676
10446TIP3   OH252828   0.727   0.686   0.131
10446TIP3    H152829   0.684   0.736   0.061
10446TIP3    H252830   0.655   0.644   0.178
10447TIP3   OH252831   1.607   0.136  17.065
10447TIP3    H152832   1.656   0.108  16.988
10447TIP3    H252833   1.561   0.057  17.095
10448TIP3   OH252834   1.399   1.460   1.811
10448TIP3    H152835   1.459   1.417   1.751
10448TIP3    H252836   1.446   1.539   1.840
10449TIP3   OH252837   3.491   1.060   2.487
10449TIP3    H152838   3.576   1.092   2.517
10449TIP3    H252839   3.428   1.123   2.521
10450TIP3   OH252840   0.910   2.157  16.993
10450TIP3    H152841   0.978   2.121  16.937
10450TIP3    H252842   0.900   2.248  16.965
10451TIP3   OH252843   5.900   3.679   1.153
10451TIP3    H152844   5.900   3.673   1.248
10451TIP3    H252845   5.931   3.768   1.134
10452TIP3   OH252846   2.746   5.340  16.099
10452TIP3    H152847   2.735   5.435  16.100
10452TIP3    H252848   2.823   5.325  16.043
10453TIP3   OH252849   3.945   5.743  14.666
10453TIP3    H152850   3.876   5.772  14.725
10453TIP3    H252851   3.913   5.661  14.630
10454TIP3   OH252852   4.239   5.952   5.400
10454TIP3    H152853   4.273   5.959   5.311
10454TIP3    H252854   4.318   5.951   5.455
10455TIP3   OH252855   1.874   3.412  13.005
10455TIP3    H152856   1.952   3.365  12.977
10455TIP3    H252857   1.831   3.354  13.067
10456TIP3   OH252858   0.009   3.974   2.623
10456TIP3    H152859   0.050   3.934   2.546
10456TIP3    H252860  -0.082   3.987   2.598
10457TIP3   OH252861   1.436   3.408  13.429
10457TIP3    H152862   1.450   3.362  13.346
10457TIP3    H252863   1.374   3.478  13.407
10458TIP3   OH252864   2.222   1.839   3.286
10458TIP3    H152865   2.307   1.883   3.299
10458TIP3    H252866   2.182   1.837   3.373
10459TIP3   OH252867   0.378   6.396  13.367
10459TIP3    H152868   0.286   6.375  13.354
10459TIP3    H252869   0.382   6.492  13.369
10460TIP3   OH252870   5.096   3.495  14.487
10460TIP3    H152871   5.174   3.472  14.537
10460TIP3    H252872   5.053   3.412  14.470
10461TIP3   OH252873   0.654   4.429  11.269
10461TIP3    H152874   0.656   4.339  11.236
10461TIP3    H252875   0.570   4.435  11.315
10462TIP3   OH252876   5.982   1.856   3.296
10462TIP3    H152877   6.035   1.839   3.374
10462TIP3    H252878   5.998   1.780   3.240
10463TIP3   OH252879   5.512   3.842  15.019
10463TIP3    H152880   5.562   3.804  14.947
10463TIP3    H252881   5.428   3.867  14.980
10464TIP3   OH252882   1.258   1.143   3.281
10464TIP3    H152883   1.200   1.207   3.241
10464TIP3    H252884   1.315   1.195   3.338
10465TIP3   OH252885   5.870   5.346  14.382
10465TIP3    H152886   5.829   5.420  14.337
10465TIP3    H252887   5.950   5.329  14.331
10466TIP3   OH252888   1.458   6.341  16.683
10466TIP3    H152889   1.472   6.336  16.589
10466TIP3    H252890   1.368   6.373  16.691
10467TIP3   OH252891   5.734   0.720   6.173
10467TIP3    H152892   5.670   0.733   6.243
10467TIP3    H252893   5.750   0.626   6.172
10468TIP3   OH252894   5.832   0.186   5.602
10468TIP3    H152895   5.811   0.220   5.689
10468TIP3    H252896   5.747   0.173   5.560
10469TIP3   OH252897   3.644   4.969   3.976
10469TIP3    H152898   3.626   5.054   3.938
10469TIP3    H252899   3.561   4.941   4.014
10470TIP3   OH252900   3.690   1.649   1.157
10470TIP3    H152901   3.748   1.581   1.191
10470TIP3    H252902   3.607   1.635   1.203
10471TIP3   OH252903   6.436   0.616   1.433
10471TIP3    H152904   6.446   0.555   1.360
10471TIP3    H252905   6.341   0.624   1.444
10472TIP3   OH252906   2.779   0.047   0.613
10472TIP3    H152907   2.744   0.014   0.531
10472TIP3    H252908   2.850  -0.013   0.635
10473TIP3   OH252909   5.369   4.699   6.429
10473TIP3    H152910   5.419   4.748   6.363
10473TIP3    H252911   5.278   4.716   6.407
10474TIP3   OH252912   6.473   4.384  13.129
10474TIP3    H152913   6.414   4.316  13.096
10474TIP3    H252914   6.522   4.413  13.052
10475TIP3   OH252915   5.094   6.637  16.677
10475TIP3    H152916   5.162   6.682  16.726
10475TIP3    H252917   5.013   6.654  16.726
10476TIP3   OH252918   1.055   5.921  16.757
10476TIP3    H152919   1.145   5.894  16.776
10476TIP3    H252920   1.042   5.898  16.665
10477TIP3   OH252921   5.159   0.425  14.893
10477TIP3    H152922   5.180   0.341  14.853
10477TIP3    H252923   5.064   0.423  14.905
10478TIP3   OH252924   5.274   2.701   0.585
10478TIP3    H152925   5.360   2.725   0.619
10478TIP3    H252926   5.266   2.607   0.605
10479TIP3   OH252927   6.062   1.190   5.757
10479TIP3    H152928   6.158   1.201   5.760
10479TIP3    H252929   6.041   1.153   5.843
10480TIP3   OH252930   1.946   0.615  14.608
10480TIP3    H152931   1.851   0.611  14.597
10480TIP3    H252932   1.979   0.638  14.521
10481TIP3   OH252933   2.837   5.928   2.790
10481TIP3    H152934   2.851   6.021   2.776
10481TIP3    H252935   2.749   5.911   2.758
10482TIP3   OH252936   3.411   4.947  13.296
10482TIP3    H152937   3.331   4.949  13.243
10482TIP3    H252938   3.479   4.920  13.235
10483TIP3   OH252939   2.893   5.705   1.530
10483TIP3    H152940   2.976   5.666   1.558
10483TIP3    H252941   2.876   5.772   1.596
10484TIP3   OH252942   4.267   5.628  14.065
10484TIP3    H152943   4.181   5.635  14.107
10484TIP3    H252944   4.292   5.718  14.046
10485TIP3   OH252945   3.414   0.201  16.675
10485TIP3    H152946   3.357   0.144  16.624
10485TIP3    H252947   3.453   0.261  16.611
10486TIP3   OH252948   5.609   5.295  16.551
10486TIP3    H152949   5.606   5.208  16.590
10486TIP3    H252950   5.612   5.278  16.456
10487TIP3   OH252951   5.550   6.215   1.377
10487TIP3    H152952   5.561   6.144   1.440
10487TIP3    H252953   5.561   6.295   1.428
10488TIP3   OH252954   3.005   4.336  14.547
10488TIP3    H152955   3.000   4.423  14.587
10488TIP3    H252956   2.965   4.278  14.612
10489TIP3   OH252957   5.663   3.269  15.686
10489TIP3    H152958   5.713   3.222  15.618
10489TIP3    H252959   5.575   3.231  15.681
10490TIP3   OH252960   5.288   5.524  12.104
10490TIP3    H152961   5.361   5.570  12.144
10490TIP3    H252962   5.329   5.458  12.048
10491TIP3   OH252963   1.086   1.034   5.770
10491TIP3    H152964   1.163   1.025   5.714
10491TIP3    H252965   1.092   1.123   5.805
10492TIP3   OH252966   3.808   0.058   3.631
10492TIP3    H152967   3.775   0.147   3.624
10492TIP3    H252968   3.835   0.036   3.542
10493TIP3   OH252969   4.793   0.115   0.377
10493TIP3    H152970   4.809   0.206   0.353
10493TIP3    H252971   4.849   0.099   0.452
10494TIP3   OH252972   5.569   2.185  12.241
10494TIP3    H152973   5.584   2.100  12.200
10494TIP3    H252974   5.599   2.249  12.177
10495TIP3   OH252975   2.051   5.045  15.808
10495TIP3    H152976   2.010   5.085  15.885
10495TIP3    H252977   2.143   5.069  15.816
10496TIP3   OH252978   3.946   6.764  11.889
10496TIP3    H152979   3.965   6.854  11.862
10496TIP3    H252980   3.867   6.740  11.841
10497TIP3   OH252981   3.733   6.776   1.875
10497TIP3    H152982   3.695   6.855   1.838
10497TIP3    H252983   3.828   6.793   1.876
10498TIP3   OH252984   3.484   4.911  11.815
10498TIP3    H152985   3.494   4.993  11.766
10498TIP3    H252986   3.493   4.937  11.906
10499TIP3   OH252987   1.854   5.446   3.403
10499TIP3    H152988   1.898   5.408   3.479
10499TIP3    H252989   1.817   5.372   3.356
10500TIP3   OH252990   5.282   1.315  10.899
10500TIP3    H152991   5.217   1.351  10.839
10500TIP3    H252992   5.362   1.310  10.848
10501TIP3   OH252993   0.919   0.297   1.796
10501TIP3    H152994   0.979   0.354   1.748
10501TIP3    H252995   0.917   0.216   1.744
10502TIP3   OH252996   4.657   4.932  13.087
10502TIP3    H152997   4.593   4.894  13.027
10502TIP3    H252998   4.612   4.937  13.171
10503TIP3   OH252999   5.753   1.096  16.795
10503TIP3    H153000   5.677   1.040  16.780
10503TIP3    H253001   5.790   1.064  16.877
10504TIP3   OH253002   2.334   2.270   5.785
10504TIP3    H153003   2.424   2.304   5.777
10504TIP3    H253004   2.284   2.344   5.818
10505TIP3   OH253005   6.067   6.441  15.058
10505TIP3    H153006   6.032   6.364  15.102
10505TIP3    H253007   6.086   6.411  14.969
10506TIP3   OH253008   2.256   0.594   0.996
10506TIP3    H153009   2.301   0.676   1.015
10506TIP3    H253010   2.289   0.533   1.061
10507TIP3   OH253011   0.573   5.226   4.419
10507TIP3    H153012   0.554   5.139   4.454
10507TIP3    H253013   0.634   5.210   4.347
10508TIP3   OH253014   2.322   0.213   4.566
10508TIP3    H153015   2.239   0.165   4.569
10508TIP3    H253016   2.308   0.281   4.500
10509TIP3   OH253017   4.767   4.455   3.666
10509TIP3    H153018   4.773   4.405   3.585
10509TIP3    H253019   4.685   4.504   3.658
10510TIP3   OH253020   5.409   3.416  13.922
10510TIP3    H153021   5.442   3.465  13.997
10510TIP3    H253022   5.421   3.475  13.847
10511TIP3   OH253023   4.485   1.900   1.089
10511TIP3    H153024   4.407   1.948   1.063
10511TIP3    H253025   4.519   1.863   1.008
10512TIP3   OH253026   4.930   3.000  17.188
10512TIP3    H153027   4.950   2.907  17.182
10512TIP3    H253028   4.970   3.038  17.110
10513TIP3   OH253029   1.195   0.402   1.848
10513TIP3    H153030   1.261   0.436   1.788
10513TIP3    H253031   1.122   0.464   1.842
10514TIP3   OH253032   1.154   0.539  17.111
10514TIP3    H153033   1.110   0.604  17.165
10514TIP3    H253034   1.166   0.463  17.168
10515TIP3   OH253035   2.320   5.897   4.417
10515TIP3    H153036   2.255   5.847   4.368
10515TIP3    H253037   2.401   5.889   4.365
10516TIP3   OH253038   2.212   6.794   3.255
10516TIP3    H153039   2.149   6.818   3.322
10516TIP3    H253040   2.159   6.773   3.178
10517TIP3   OH253041   1.433   2.068  14.598
10517TIP3    H153042   1.399   2.063  14.508
10517TIP3    H253043   1.380   2.004  14.647
10518TIP3   OH253044   1.774   4.049   2.378
10518TIP3    H153045   1.854   4.017   2.336
10518TIP3    H253046   1.792   4.041   2.472
10519TIP3   OH253047   0.744   3.557  12.801
10519TIP3    H153048   0.681   3.539  12.871
10519TIP3    H253049   0.692   3.560  12.721
10520TIP3   OH253050   2.706   5.519  15.102
10520TIP3    H153051   2.714   5.512  15.197
10520TIP3    H253052   2.758   5.446  15.068
10521TIP3   OH253053   0.023   3.449  12.502
10521TIP3    H153054  -0.064   3.413  12.522
10521TIP3    H253055   0.076   3.372  12.480
10522TIP3   OH253056   6.281   4.442   0.320
10522TIP3    H153057   6.257   4.532   0.301
10522TIP3    H253058   6.207   4.390   0.289
10523TIP3   OH253059   4.676   1.980   2.825
10523TIP3    H153060   4.632   2.064   2.838
10523TIP3    H253061   4.762   2.003   2.792
10524TIP3   OH253062   6.119   5.145   4.683
10524TIP3    H153063   6.060   5.212   4.720
10524TIP3    H253064   6.189   5.138   4.748
10525TIP3   OH253065   4.418   1.193   2.755
10525TIP3    H153066   4.495   1.247   2.737
10525TIP3    H253067   4.379   1.177   2.669
10526TIP3   OH253068   6.738   6.237   3.230
10526TIP3    H153069   6.763   6.155   3.272
10526TIP3    H253070   6.755   6.222   3.137
10527TIP3   OH253071   4.325   0.937   5.287
10527TIP3    H153072   4.328   1.022   5.331
10527TIP3    H253073   4.363   0.876   5.350
10528TIP3   OH253074   6.762   6.507   2.311
10528TIP3    H153075   6.722   6.590   2.284
10528TIP3    H253076   6.698   6.441   2.286
10529TIP3   OH253077   2.605   1.753   1.533
10529TIP3    H153078   2.656   1.673   1.544
10529TIP3    H253079   2.552   1.759   1.613
10530TIP3   OH253080   4.332   3.240  13.736
10530TIP3    H153081   4.329   3.179  13.662
10530TIP3    H253082   4.413   3.289  13.723
10531TIP3   OH253083   5.827   5.026   2.603
10531TIP3    H153084   5.900   4.971   2.573
10531TIP3    H253085   5.751   4.994   2.555
10532TIP3   OH253086   6.782   0.292  10.411
10532TIP3    H153087   6.814   0.214  10.366
10532TIP3    H253088   6.822   0.366  10.364
10533TIP3   OH253089   2.292   0.587   2.238
10533TIP3    H153090   2.211   0.603   2.190
10533TIP3    H253091   2.361   0.615   2.179
10534TIP3   OH253092   5.697   2.562   5.936
10534TIP3    H153093   5.668   2.623   6.004
10534TIP3    H253094   5.716   2.481   5.982
10535TIP3   OH253095   4.180   0.297  13.998
10535TIP3    H153096   4.181   0.358  14.072
10535TIP3    H253097   4.128   0.341  13.931
10536TIP3   OH253098   4.973   1.367  17.242
10536TIP3    H153099   5.035   1.295  17.240
10536TIP3    H253100   4.960   1.385  17.335
10537TIP3   OH253101   0.968   0.978  17.200
10537TIP3    H153102   0.962   0.909  17.134
10537TIP3    H253103   0.897   1.039  17.177
10538TIP3   OH253104   2.026   4.588  16.758
10538TIP3    H153105   2.026   4.493  16.742
10538TIP3    H253106   1.954   4.601  16.820
10539TIP3   OH253107   0.633   6.316   0.017
10539TIP3    H153108   0.569   6.322   0.087
10539TIP3    H253109   0.704   6.374   0.045
10540TIP3   OH253110   6.055   0.668   5.129
10540TIP3    H153111   6.016   0.750   5.160
10540TIP3    H253112   6.015   0.653   5.043
10541TIP3   OH253113   2.224   3.380   4.716
10541TIP3    H153114   2.266   3.418   4.793
10541TIP3    H253115   2.282   3.309   4.689
10542TIP3   OH253116   3.241   2.053  15.799
10542TIP3    H153117   3.305   2.118  15.770
10542TIP3    H253118   3.156   2.090  15.773
10543TIP3   OH253119   5.188   3.778   6.388
10543TIP3    H153120   5.228   3.844   6.445
10543TIP3    H253121   5.094   3.785   6.407
10544TIP3   OH253122   4.740   0.016  15.567
10544TIP3    H153123   4.783  -0.026  15.641
10544TIP3    H253124   4.790   0.096  15.552
10545TIP3   OH253125   3.493   5.949  13.297
10545TIP3    H153126   3.517   5.910  13.213
10545TIP3    H253127   3.544   5.900  13.361
10546TIP3   OH253128   6.100   4.048   5.432
10546TIP3    H153129   6.125   4.081   5.345
10546TIP3    H253130   6.167   4.081   5.491
10547TIP3   OH253131   6.188   0.880  12.842
10547TIP3    H153132   6.141   0.949  12.795
10547TIP3    H253133   6.211   0.816  12.774
10548TIP3   OH253134   0.785   6.775  16.046
10548TIP3    H153135   0.874   6.810  16.054
10548TIP3    H253136   0.757   6.799  15.958
10549TIP3   OH253137   6.061   1.848  15.365
10549TIP3    H153138   5.971   1.845  15.398
10549TIP3    H253139   6.078   1.760  15.332
10550TIP3   OH253140   5.333   1.507  15.242
10550TIP3    H153141   5.411   1.507  15.186
10550TIP3    H253142   5.324   1.416  15.270
10551TIP3   OH253143   5.575   5.705  12.755
10551TIP3    H153144   5.568   5.732  12.664
10551TIP3    H253145   5.575   5.609  12.752
10552TIP3   OH253146   3.846   2.724  11.041
10552TIP3    H153147   3.856   2.639  11.085
10552TIP3    H253148   3.751   2.732  11.027
10553TIP3   OH253149   2.104   1.558   2.817
10553TIP3    H153150   2.192   1.594   2.814
10553TIP3    H253151   2.086   1.532   2.726
10554TIP3   OH253152   3.769   0.929  16.527
10554TIP3    H153153   3.797   1.009  16.572
10554TIP3    H253154   3.758   0.865  16.597
10555TIP3   OH253155   2.929   2.336  16.360
10555TIP3    H153156   2.977   2.406  16.403
10555TIP3    H253157   2.973   2.256  16.388
10556TIP3   OH253158   1.980   3.773   6.561
10556TIP3    H153159   2.034   3.783   6.483
10556TIP3    H253160   1.972   3.678   6.573
10557TIP3   OH253161   2.771   1.854  15.289
10557TIP3    H153162   2.818   1.913  15.347
10557TIP3    H253163   2.729   1.911  15.225
10558TIP3   OH253164   5.647   6.002  13.131
10558TIP3    H153165   5.610   6.036  13.212
10558TIP3    H253166   5.572   5.989  13.073
10559TIP3   OH253167   2.520   0.488  17.289
10559TIP3    H153168   2.561   0.466  17.373
10559TIP3    H253169   2.427   0.472  17.304
10560TIP3   OH253170   6.729   3.815   1.188
10560TIP3    H153171   6.775   3.808   1.272
10560TIP3    H253172   6.762   3.896   1.149
10561TIP3   OH253173   6.439   2.645  12.288
10561TIP3    H153174   6.519   2.672  12.333
10561TIP3    H253175   6.443   2.689  12.203
10562TIP3   OH253176   5.088   3.578   5.684
10562TIP3    H153177   5.013   3.561   5.626
10562TIP3    H253178   5.055   3.559   5.772
10563TIP3   OH253179   1.094   5.159   2.435
10563TIP3    H153180   1.024   5.113   2.388
10563TIP3    H253181   1.171   5.104   2.424
10564TIP3   OH253182   5.813   0.563   1.489
10564TIP3    H153183   5.809   0.547   1.584
10564TIP3    H253184   5.792   0.479   1.450
10565TIP3   OH253185   2.510   6.474   5.899
10565TIP3    H153186   2.528   6.382   5.884
10565TIP3    H253187   2.589   6.519   5.870
10566TIP3   OH253188   1.463   2.801   0.402
10566TIP3    H153189   1.525   2.728   0.397
10566TIP3    H253190   1.378   2.760   0.415
10567TIP3   OH253191   2.822   0.749   1.436
10567TIP3    H153192   2.745   0.805   1.425
10567TIP3    H253193   2.839   0.713   1.349
10568TIP3   OH253194   6.548   3.007  11.460
10568TIP3    H153195   6.577   3.030  11.548
10568TIP3    H253196   6.482   2.939  11.473
10569TIP3   OH253197   0.161   1.205  11.486
10569TIP3    H153198   0.111   1.135  11.445
10569TIP3    H253199   0.160   1.276  11.422
10570TIP3   OH253200   0.660   3.756   0.943
10570TIP3    H153201   0.596   3.775   0.874
10570TIP3    H253202   0.626   3.678   0.986
10571TIP3   OH253203   5.022   4.014   4.469
10571TIP3    H153204   5.093   4.053   4.418
10571TIP3    H253205   4.944   4.025   4.414
10572TIP3   OH253206   3.647   6.616  11.119
10572TIP3    H153207   3.598   6.656  11.190
10572TIP3    H253208   3.625   6.668  11.042
10573TIP3   OH253209   4.995   2.033  11.981
10573TIP3    H153210   5.017   2.010  12.072
10573TIP3    H253211   5.039   2.116  11.967
10574TIP3   OH253212   1.894   1.334   5.136
10574TIP3    H153213   1.989   1.338   5.147
10574TIP3    H253214   1.882   1.327   5.041
10575TIP3   OH253215   4.640   4.596  15.893
10575TIP3    H153216   4.569   4.542  15.928
10575TIP3    H253217   4.715   4.578  15.950
10576TIP3   OH253218   0.791   1.620  13.808
10576TIP3    H153219   0.753   1.553  13.751
10576TIP3    H253220   0.814   1.691  13.750
10577TIP3   OH253221   5.725   4.608  15.148
10577TIP3    H153222   5.749   4.694  15.113
10577TIP3    H253223   5.791   4.591  15.215
10578TIP3   OH253224   6.671   5.209  14.016
10578TIP3    H153225   6.687   5.118  13.993
10578TIP3    H253226   6.577   5.213  14.034
10579TIP3   OH253227   3.143   2.918  14.413
10579TIP3    H153228   3.070   2.976  14.391
10579TIP3    H253229   3.110   2.830  14.395
10580TIP3   OH253230   4.631   6.282   4.360
10580TIP3    H153231   4.610   6.343   4.289
10580TIP3    H253232   4.596   6.323   4.438
10581TIP3   OH253233   2.439   1.738  16.020
10581TIP3    H153234   2.377   1.791  15.971
10581TIP3    H253235   2.525   1.759  15.983
10582TIP3   OH253236   1.479   5.997   6.252
10582TIP3    H153237   1.447   5.913   6.283
10582TIP3    H253238   1.459   5.997   6.158
10583TIP3   OH253239   3.776   0.376  14.548
10583TIP3    H153240   3.745   0.329  14.471
10583TIP3    H253241   3.846   0.321  14.583
10584TIP3   OH253242   0.428   2.523  11.106
10584TIP3    H153243   0.339   2.492  11.084
10584TIP3    H253244   0.455   2.573  11.029
10585TIP3   OH253245   1.370   3.007   4.655
10585TIP3    H153246   1.288   3.029   4.612
10585TIP3    H253247   1.434   3.000   4.583
10586TIP3   OH253248   1.611   5.544   0.007
10586TIP3    H153249   1.628   5.559  -0.086
10586TIP3    H253250   1.529   5.590   0.025
10587TIP3   OH253251   5.597   2.621  17.274
10587TIP3    H153252   5.690   2.611  17.255
10587TIP3    H253253   5.587   2.588  17.364
10588TIP3   OH253254   3.173   2.568  13.205
10588TIP3    H153255   3.093   2.590  13.252
10588TIP3    H253256   3.215   2.500  13.259
10589TIP3   OH253257   3.094   0.896  12.974
10589TIP3    H153258   3.162   0.860  12.917
10589TIP3    H253259   3.087   0.988  12.949
10590TIP3   OH253260   5.598   5.349   0.748
10590TIP3    H153261   5.588   5.277   0.686
10590TIP3    H253262   5.513   5.358   0.790
10591TIP3   OH253263   3.916   2.372  16.708
10591TIP3    H153264   3.965   2.399  16.785
10591TIP3    H253265   3.936   2.278  16.699
10592TIP3   OH253266   2.017   0.970  12.275
10592TIP3    H153267   2.088   0.958  12.212
10592TIP3    H253268   1.995   1.063  12.269
10593TIP3   OH253269   5.659   5.175   5.117
10593TIP3    H153270   5.747   5.146   5.092
10593TIP3    H253271   5.674   5.253   5.171
10594TIP3   OH253272   3.383   3.900  11.633
10594TIP3    H153273   3.442   3.828  11.612
10594TIP3    H253274   3.315   3.897  11.565
10595TIP3   OH253275   0.296   4.359  15.576
10595TIP3    H153276   0.207   4.325  15.566
10595TIP3    H253277   0.334   4.354  15.488
10596TIP3   OH253278   2.699   0.628   2.846
10596TIP3    H153279   2.716   0.585   2.762
10596TIP3    H253280   2.737   0.569   2.911
10597TIP3   OH253281   2.643   2.479  15.646
10597TIP3    H153282   2.577   2.461  15.713
10597TIP3    H253283   2.662   2.572  15.656
10598TIP3   OH253284   5.675   3.247   1.876
10598TIP3    H153285   5.750   3.198   1.911
10598TIP3    H253286   5.700   3.339   1.885
10599TIP3   OH253287   6.816   6.390   2.575
10599TIP3    H153288   6.846   6.407   2.486
10599TIP3    H253289   6.736   6.442   2.585
10600TIP3   OH253290   6.704   1.497   1.195
10600TIP3    H153291   6.706   1.572   1.135
10600TIP3    H253292   6.722   1.422   1.139
10601TIP3   OH253293   3.884   2.878   0.558
10601TIP3    H153294   3.900   2.813   0.490
10601TIP3    H253295   3.790   2.895   0.555
10602TIP3   OH253296   2.585   2.377  13.907
10602TIP3    H153297   2.505   2.407  13.863
10602TIP3    H253298   2.620   2.456  13.949
10603TIP3   OH253299   0.205   0.238   0.968
10603TIP3    H153300   0.138   0.259   1.033
10603TIP3    H253301   0.260   0.172   1.011
10604TIP3   OH253302   4.588   1.950   1.321
10604TIP3    H153303   4.682   1.936   1.326
10604TIP3    H253304   4.564   1.925   1.232
10605TIP3   OH253305   5.520   6.134  15.564
10605TIP3    H153306   5.524   6.226  15.591
10605TIP3    H253307   5.565   6.086  15.634
10606TIP3   OH253308   6.686   5.476  11.979
10606TIP3    H153309   6.710   5.466  12.071
10606TIP3    H253310   6.732   5.555  11.951
10607TIP3   OH253311   4.099   4.778   2.750
10607TIP3    H153312   4.009   4.809   2.761
10607TIP3    H253313   4.120   4.796   2.658
10608TIP3   OH253314   0.956   1.006   3.487
10608TIP3    H153315   0.909   1.073   3.438
10608TIP3    H253316   0.996   0.951   3.420
10609TIP3   OH253317   2.963   5.429  12.696
10609TIP3    H153318   2.991   5.519  12.712
10609TIP3    H253319   3.040   5.386  12.659
10610TIP3   OH253320   4.160   1.434   0.333
10610TIP3    H153321   4.153   1.444   0.428
10610TIP3    H253322   4.210   1.354   0.321
10611TIP3   OH253323   6.733   4.868  15.052
10611TIP3    H153324   6.784   4.788  15.043
10611TIP3    H253325   6.642   4.838  15.054
10612TIP3   OH253326   6.241   2.777   6.734
10612TIP3    H153327   6.244   2.688   6.698
10612TIP3    H253328   6.148   2.800   6.731
10613TIP3   OH253329   5.593   3.927   0.553
10613TIP3    H153330   5.686   3.948   0.550
10613TIP3    H253331   5.589   3.839   0.589
10614TIP3   OH253332   4.936   3.953  12.132
10614TIP3    H153333   4.964   4.043  12.121
10614TIP3    H253334   5.016   3.901  12.123
10615TIP3   OH253335   0.559   4.173  12.709
10615TIP3    H153336   0.550   4.263  12.741
10615TIP3    H253337   0.565   4.120  12.788
10616TIP3   OH253338   3.418   4.926  12.340
10616TIP3    H153339   3.439   4.951  12.250
10616TIP3    H253340   3.502   4.925  12.385
10617TIP3   OH253341   5.016   6.800  16.012
10617TIP3    H153342   5.066   6.880  16.029
10617TIP3    H253343   4.951   6.797  16.082
10618TIP3   OH253344   6.275   5.562  13.828
10618TIP3    H153345   6.362   5.573  13.866
10618TIP3    H253346   6.216   5.599  13.894
10619TIP3   OH253347   3.249   6.467  15.803
10619TIP3    H153348   3.275   6.433  15.889
10619TIP3    H253349   3.329   6.505  15.767
10620TIP3   OH253350   3.268   5.557  15.518
10620TIP3    H153351   3.253   5.466  15.489
10620TIP3    H253352   3.189   5.579  15.568
10621TIP3   OH253353   1.535   0.169   3.343
10621TIP3    H153354   1.452   0.121   3.347
10621TIP3    H253355   1.515   0.255   3.380
10622TIP3   OH253356   1.071   4.491  14.614
10622TIP3    H153357   1.116   4.556  14.667
10622TIP3    H253358   1.132   4.471  14.543
10623TIP3   OH253359   0.164   2.943  15.512
10623TIP3    H153360   0.080   2.955  15.556
10623TIP3    H253361   0.224   3.002  15.558
10624TIP3   OH253362   0.385   6.098   2.943
10624TIP3    H153363   0.351   6.136   2.862
10624TIP3    H253364   0.478   6.120   2.942
10625TIP3   OH253365   1.768   4.758   3.269
10625TIP3    H153366   1.791   4.824   3.334
10625TIP3    H253367   1.831   4.687   3.282
10626TIP3   OH253368   2.416   1.987  11.998
10626TIP3    H153369   2.349   1.970  12.065
10626TIP3    H253370   2.442   2.078  12.012
10627TIP3   OH253371   3.466   4.037  16.994
10627TIP3    H153372   3.500   3.997  16.914
10627TIP3    H253373   3.485   3.973  17.062
10628TIP3   OH253374   1.105   5.567  13.579
10628TIP3    H153375   1.048   5.514  13.523
10628TIP3    H253376   1.056   5.647  13.595
10629TIP3   OH253377   5.568   1.007  16.237
10629TIP3    H153378   5.506   1.009  16.164
10629TIP3    H253379   5.638   0.949  16.208
10630TIP3   OH253380   3.177   4.888  16.230
10630TIP3    H153381   3.202   4.976  16.199
10630TIP3    H253382   3.104   4.903  16.289
10631TIP3   OH253383   6.478   2.560   4.855
10631TIP3    H153384   6.571   2.538   4.863
10631TIP3    H253385   6.433   2.476   4.852
10632TIP3   OH253386   2.057   6.307   6.175
10632TIP3    H153387   2.020   6.372   6.115
10632TIP3    H253388   2.138   6.279   6.134
10633TIP3   OH253389   6.093   1.427  14.122
10633TIP3    H153390   6.180   1.466  14.111
10633TIP3    H253391   6.110   1.341  14.161
10634TIP3   OH253392   3.175   5.300  15.731
10634TIP3    H153393   3.142   5.323  15.818
10634TIP3    H253394   3.240   5.232  15.747
10635TIP3   OH253395   6.736   1.924   2.639
10635TIP3    H153396   6.647   1.912   2.604
10635TIP3    H253397   6.793   1.900   2.566
10636TIP3   OH253398   6.341   3.780   5.375
10636TIP3    H153399   6.381   3.775   5.288
10636TIP3    H253400   6.336   3.689   5.404
10637TIP3   OH253401   1.815   3.322  16.653
10637TIP3    H153402   1.893   3.354  16.698
10637TIP3    H253403   1.834   3.333  16.560
10638TIP3   OH253404   5.460   2.187   1.082
10638TIP3    H153405   5.365   2.192   1.067
10638TIP3    H253406   5.470   2.121   1.151
10639TIP3   OH253407   2.629   3.955  12.404
10639TIP3    H153408   2.540   3.947  12.438
10639TIP3    H253409   2.684   3.955  12.482
10640TIP3   OH253410   3.534   6.038  11.510
10640TIP3    H153411   3.487   5.973  11.561
10640TIP3    H253412   3.582   5.988  11.444
10641TIP3   OH253413   3.050   3.626  17.130
10641TIP3    H153414   2.966   3.618  17.175
10641TIP3    H253415   3.085   3.537  17.127
10642TIP3   OH253416   5.066   0.704   4.353
10642TIP3    H153417   5.032   0.743   4.433
10642TIP3    H253418   5.005   0.732   4.285
10643TIP3   OH253419   3.789   0.477  16.118
10643TIP3    H153420   3.798   0.556  16.172
10643TIP3    H253421   3.750   0.509  16.036
10644TIP3   OH253422   4.982   4.844   3.960
10644TIP3    H153423   5.010   4.914   4.019
10644TIP3    H253424   5.062   4.793   3.944
10645TIP3   OH253425   1.850   3.134   1.724
10645TIP3    H153426   1.901   3.123   1.644
10645TIP3    H253427   1.888   3.072   1.786
10646TIP3   OH253428   0.307   5.032   5.942
10646TIP3    H153429   0.216   5.031   5.971
10646TIP3    H253430   0.348   5.101   5.993
10647TIP3   OH253431   1.086   3.567   2.611
10647TIP3    H153432   1.005   3.604   2.577
10647TIP3    H253433   1.125   3.637   2.664
10648TIP3   OH253434   3.121   3.153   1.056
10648TIP3    H153435   3.155   3.209   0.986
10648TIP3    H253436   3.162   3.068   1.041
10649TIP3   OH253437   0.935   2.415   3.323
10649TIP3    H153438   0.968   2.334   3.284
10649TIP3    H253439   0.883   2.385   3.398
10650TIP3   OH253440   3.969   0.935   3.505
10650TIP3    H153441   3.981   1.004   3.570
10650TIP3    H253442   4.037   0.953   3.439
10651TIP3   OH253443   3.682   3.495   2.811
10651TIP3    H153444   3.625   3.549   2.864
10651TIP3    H253445   3.717   3.554   2.744
10652TIP3   OH253446   0.835   0.263  16.228
10652TIP3    H153447   0.889   0.256  16.149
10652TIP3    H253448   0.892   0.232  16.299
10653TIP3   OH253449   5.377   0.767   3.789
10653TIP3    H153450   5.451   0.778   3.849
10653TIP3    H253451   5.355   0.856   3.761
10654TIP3   OH253452   6.380   1.538   3.601
10654TIP3    H153453   6.444   1.528   3.672
10654TIP3    H253454   6.351   1.448   3.583
10655TIP3   OH253455   1.272   6.325  14.614
10655TIP3    H153456   1.272   6.281  14.699
10655TIP3    H253457   1.233   6.262  14.554
10656TIP3   OH253458   4.341   6.638  14.289
10656TIP3    H153459   4.372   6.589  14.213
10656TIP3    H253460   4.313   6.722  14.255
10657TIP3   OH253461   4.699   0.023  14.393
10657TIP3    H153462   4.714   0.020  14.487
10657TIP3    H253463   4.737  -0.059  14.360
10658TIP3   OH253464   4.529   4.644  16.703
10658TIP3    H153465   4.518   4.562  16.751
10658TIP3    H253466   4.563   4.618  16.618
10659TIP3   OH253467   0.166   6.486   1.881
10659TIP3    H153468   0.110   6.417   1.916
10659TIP3    H253469   0.109   6.563   1.875
10660TIP3   OH253470   3.408   4.711   3.468
10660TIP3    H153471   3.470   4.638   3.465
10660TIP3    H253472   3.325   4.672   3.439
10661TIP3   OH253473   6.810   3.945   4.663
10661TIP3    H153474   6.745   3.996   4.615
10661TIP3    H253475   6.769   3.928   4.748
10662TIP3   OH253476   2.510   4.046  11.200
10662TIP3    H153477   2.539   3.992  11.126
10662TIP3    H253478   2.418   4.024  11.212
10663TIP3   OH253479   4.156   3.528   5.308
10663TIP3    H153480   4.145   3.453   5.366
10663TIP3    H253481   4.250   3.538   5.298
10664TIP3   OH253482   5.626   0.575  16.510
10664TIP3    H153483   5.593   0.489  16.535
10664TIP3    H253484   5.578   0.636  16.566
10665TIP3   OH253485   0.063   4.406   1.461
10665TIP3    H153486   0.042   4.350   1.536
10665TIP3    H253487  -0.004   4.474   1.462
10666TIP3   OH253488   3.943   5.123  10.746
10666TIP3    H153489   3.876   5.149  10.683
10666TIP3    H253490   3.929   5.029  10.757
10667TIP3   OH253491   4.084   4.867  12.033
10667TIP3    H153492   4.046   4.862  11.945
10667TIP3    H253493   4.114   4.778  12.051
10668TIP3   OH253494   0.188   0.670   5.001
10668TIP3    H153495   0.134   0.640   5.074
10668TIP3    H253496   0.149   0.753   4.974
10669TIP3   OH253497   3.888   3.598   4.648
10669TIP3    H153498   3.937   3.533   4.599
10669TIP3    H253499   3.948   3.625   4.718
10670TIP3   OH253500   4.499   0.072   0.926
10670TIP3    H153501   4.474   0.157   0.962
10670TIP3    H253502   4.586   0.055   0.961
10671TIP3   OH253503   0.428   0.390  10.758
10671TIP3    H153504   0.391   0.348  10.680
10671TIP3    H253505   0.358   0.448  10.789
10672TIP3   OH253506   1.531   6.817   6.278
10672TIP3    H153507   1.537   6.870   6.358
10672TIP3    H253508   1.622   6.805   6.251
10673TIP3   OH253509   4.496   4.434  14.495
10673TIP3    H153510   4.448   4.457  14.416
10673TIP3    H253511   4.582   4.475  14.484
10674TIP3   OH253512   3.709   1.157  13.323
10674TIP3    H153513   3.744   1.069  13.337
10674TIP3    H253514   3.782   1.215  13.341
10675TIP3   OH253515   3.287   0.693   0.569
10675TIP3    H153516   3.375   0.663   0.590
10675TIP3    H253517   3.251   0.723   0.652
10676TIP3   OH253518   4.941   1.827   0.606
10676TIP3    H153519   5.004   1.890   0.571
10676TIP3    H253520   4.975   1.742   0.579
10677TIP3   OH253521   0.442   2.582  14.157
10677TIP3    H153522   0.413   2.540  14.075
10677TIP3    H253523   0.375   2.557  14.221
10678TIP3   OH253524   3.289   0.028   0.993
10678TIP3    H153525   3.314  -0.064   0.989
10678TIP3    H253526   3.255   0.047   0.906
10679TIP3   OH253527   2.697   0.426   4.275
10679TIP3    H153528   2.705   0.456   4.184
10679TIP3    H253529   2.697   0.331   4.268
10680TIP3   OH253530   5.715   3.408  11.759
10680TIP3    H153531   5.794   3.440  11.717
10680TIP3    H253532   5.707   3.460  11.839
10681TIP3   OH253533   2.253   5.257  11.590
10681TIP3    H153534   2.226   5.219  11.506
10681TIP3    H253535   2.241   5.187  11.654
10682TIP3   OH253536   2.200   5.322   1.533
10682TIP3    H153537   2.251   5.403   1.524
10682TIP3    H253538   2.248   5.259   1.479
10683TIP3   OH253539   3.237   4.597   5.518
10683TIP3    H153540   3.203   4.644   5.442
10683TIP3    H253541   3.262   4.665   5.580
10684TIP3   OH253542   4.231   1.541  16.168
10684TIP3    H153543   4.160   1.548  16.232
10684TIP3    H253544   4.294   1.482  16.209
10685TIP3   OH253545   4.180   5.294  15.849
10685TIP3    H153546   4.210   5.280  15.939
10685TIP3    H253547   4.114   5.227  15.834
10686TIP3   OH253548   1.364   5.436  12.889
10686TIP3    H153549   1.432   5.489  12.931
10686TIP3    H253550   1.305   5.410  12.961
10687TIP3   OH253551   1.820   1.558   1.900
10687TIP3    H153552   1.822   1.607   1.819
10687TIP3    H253553   1.865   1.614   1.963
10688TIP3   OH253554   4.001   0.490  11.157
10688TIP3    H153555   3.911   0.500  11.127
10688TIP3    H253556   4.052   0.480  11.077
10689TIP3   OH253557   0.452   4.652  14.728
10689TIP3    H153558   0.510   4.590  14.773
10689TIP3    H253559   0.467   4.637  14.635
10690TIP3   OH253560   1.587   2.153   5.652
10690TIP3    H153561   1.653   2.124   5.590
10690TIP3    H253562   1.627   2.139   5.738
10691TIP3   OH253563   1.130   1.972   2.440
10691TIP3    H153564   1.040   1.939   2.428
10691TIP3    H253565   1.119   2.058   2.481
10692TIP3   OH253566   2.725   2.925   3.376
10692TIP3    H153567   2.698   2.876   3.299
10692TIP3    H253568   2.709   2.865   3.449
10693TIP3   OH253569   6.524   1.348  16.372
10693TIP3    H153570   6.543   1.276  16.312
10693TIP3    H253571   6.554   1.427  16.326
10694TIP3   OH253572   5.275   3.808  14.305
10694TIP3    H153573   5.278   3.900  14.279
10694TIP3    H253574   5.361   3.774  14.279
10695TIP3   OH253575   4.079   0.641   3.366
10695TIP3    H153576   4.124   0.558   3.383
10695TIP3    H253577   3.988   0.625   3.393
10696TIP3   OH253578   4.965   4.291  14.382
10696TIP3    H153579   4.961   4.224  14.450
10696TIP3    H253580   4.931   4.370  14.424
10697TIP3   OH253581   2.972   2.804  14.919
10697TIP3    H153582   3.013   2.849  14.844
10697TIP3    H253583   2.920   2.872  14.961
10698TIP3   OH253584   6.096   0.586  13.051
10698TIP3    H153585   6.083   0.662  13.108
10698TIP3    H253586   6.075   0.618  12.963
10699TIP3   OH253587   0.334   0.519  16.191
10699TIP3    H153588   0.328   0.614  16.184
10699TIP3    H253589   0.422   0.497  16.162
10700TIP3   OH253590   5.609   4.595   0.231
10700TIP3    H153591   5.535   4.534   0.235
10700TIP3    H253592   5.603   4.634   0.143
10701TIP3   OH253593   1.242   6.754   0.884
10701TIP3    H153594   1.270   6.693   0.952
10701TIP3    H253595   1.228   6.836   0.931
10702TIP3   OH253596   5.277   3.726  12.345
10702TIP3    H153597   5.297   3.712  12.252
10702TIP3    H253598   5.185   3.700  12.354
10703TIP3   OH253599   5.021   3.686  15.260
10703TIP3    H153600   5.090   3.620  15.268
10703TIP3    H253601   4.983   3.671  15.174
10704TIP3   OH253602   1.533   0.163  14.149
10704TIP3    H153603   1.478   0.198  14.078
10704TIP3    H253604   1.473   0.108  14.200
10705TIP3   OH253605   2.893   1.689  14.013
10705TIP3    H153606   2.957   1.752  14.046
10705TIP3    H253607   2.904   1.690  13.918
10706TIP3   OH253608   0.558   3.301  13.630
10706TIP3    H153609   0.595   3.343  13.552
10706TIP3    H253610   0.490   3.243  13.595
10707TIP3   OH253611   4.725   5.437  14.316
10707TIP3    H153612   4.669   5.448  14.393
10707TIP3    H253613   4.677   5.479  14.245
10708TIP3   OH253614   4.509   0.108  16.429
10708TIP3    H153615   4.536   0.022  16.395
10708TIP3    H253616   4.566   0.171  16.384
10709TIP3   OH253617   5.438   0.616   1.993
10709TIP3    H153618   5.416   0.603   1.900
10709TIP3    H253619   5.507   0.682   1.993
10710TIP3   OH253620   3.721   2.138   5.071
10710TIP3    H153621   3.774   2.096   5.139
10710TIP3    H253622   3.631   2.124   5.098
10711TIP3   OH253623   6.117   4.349  14.695
10711TIP3    H153624   6.212   4.344  14.682
10711TIP3    H253625   6.081   4.342  14.606
10712TIP3   OH253626   2.058   6.137  11.235
10712TIP3    H153627   2.086   6.062  11.286
10712TIP3    H253628   2.027   6.201  11.300
10713TIP3   OH253629   1.352   1.663  14.200
10713TIP3    H153630   1.283   1.601  14.176
10713TIP3    H253631   1.423   1.646  14.139
10714TIP3   OH253632   3.795   1.472  13.919
10714TIP3    H153633   3.791   1.516  13.834
10714TIP3    H253634   3.883   1.494  13.952
10715TIP3   OH253635   6.070   2.160  16.105
10715TIP3    H153636   6.149   2.177  16.157
10715TIP3    H253637   6.021   2.241  16.109
10716TIP3   OH253638   0.314   2.614   0.043
10716TIP3    H153639   0.368   2.537   0.062
10716TIP3    H253640   0.345   2.680   0.105
10717TIP3   OH253641   6.815   3.462  10.743
10717TIP3    H153642   6.753   3.534  10.755
10717TIP3    H253643   6.869   3.464  10.822
10718TIP3   OH253644   4.204   3.926  12.881
10718TIP3    H153645   4.160   3.905  12.799
10718TIP3    H253646   4.145   3.895  12.950
10719TIP3   OH253647   6.541   2.769  13.771
10719TIP3    H153648   6.618   2.823  13.790
10719TIP3    H253649   6.476   2.831  13.738
10720TIP3   OH253650   5.936   0.299  15.102
10720TIP3    H153651   5.945   0.345  15.018
10720TIP3    H253652   5.955   0.365  15.168
10721TIP3   OH253653   0.770   6.199  13.965
10721TIP3    H153654   0.738   6.113  13.937
10721TIP3    H253655   0.704   6.260  13.934
10722TIP3   OH253656   5.217   4.567   5.906
10722TIP3    H153657   5.139   4.545   5.855
10722TIP3    H253658   5.231   4.661   5.890
10723TIP3   OH253659   5.345   6.644  13.212
10723TIP3    H153660   5.361   6.688  13.295
10723TIP3    H253661   5.428   6.652  13.164
10724TIP3   OH253662   6.808   2.768  15.678
10724TIP3    H153663   6.902   2.786  15.688
10724TIP3    H253664   6.803   2.672  15.673
10725TIP3   OH253665   6.493   4.171  16.378
10725TIP3    H153666   6.543   4.114  16.436
10725TIP3    H253667   6.482   4.120  16.298
10726TIP3   OH253668   4.776   2.571  11.292
10726TIP3    H153669   4.823   2.492  11.318
10726TIP3    H253670   4.683   2.548  11.301
10727TIP3   OH253671   2.710   0.312   0.681
10727TIP3    H153672   2.747   0.227   0.659
10727TIP3    H253673   2.743   0.371   0.613
10728TIP3   OH253674   2.560   0.081  16.806
10728TIP3    H153675   2.605   0.149  16.755
10728TIP3    H253676   2.547   0.122  16.892
10729TIP3   OH253677   1.623   5.308  17.128
10729TIP3    H153678   1.653   5.281  17.215
10729TIP3    H253679   1.540   5.261  17.115
10730TIP3   OH253680   2.450   0.698   3.937
10730TIP3    H153681   2.415   0.755   3.869
10730TIP3    H253682   2.475   0.618   3.891
10731TIP3   OH253683   6.000   1.247  16.639
10731TIP3    H153684   6.077   1.216  16.591
10731TIP3    H253685   5.929   1.244  16.575
10732TIP3   OH253686   3.217   0.690  12.313
10732TIP3    H153687   3.240   0.598  12.302
10732TIP3    H253688   3.301   0.736  12.316
10733TIP3   OH253689   6.247   1.177   3.318
10733TIP3    H153690   6.283   1.115   3.255
10733TIP3    H253691   6.275   1.263   3.285
10734TIP3   OH253692   1.457   2.810  11.283
10734TIP3    H153693   1.380   2.828  11.229
10734TIP3    H253694   1.531   2.816  11.223
10735TIP3   OH253695   6.544   5.017   1.131
10735TIP3    H153696   6.490   4.940   1.114
10735TIP3    H253697   6.506   5.085   1.075
10736TIP3   OH253698   5.832   5.748   2.994
10736TIP3    H153699   5.843   5.660   2.957
10736TIP3    H253700   5.756   5.784   2.948
10737TIP3   OH253701   4.607   4.283  13.696
10737TIP3    H153702   4.572   4.227  13.766
10737TIP3    H253703   4.658   4.224  13.641
10738TIP3   OH253704   1.236   4.858   2.187
10738TIP3    H153705   1.191   4.875   2.270
10738TIP3    H253706   1.298   4.789   2.208
10739TIP3   OH253707   3.160   3.104  12.503
10739TIP3    H153708   3.230   3.137  12.559
10739TIP3    H253709   3.104   3.180  12.487
10740TIP3   OH253710   0.295   4.786  16.885
10740TIP3    H153711   0.351   4.737  16.825
10740TIP3    H253712   0.305   4.877  16.857
10741TIP3   OH253713   0.956   1.812   3.209
10741TIP3    H153714   1.048   1.799   3.234
10741TIP3    H253715   0.907   1.794   3.288
10742TIP3   OH253716   3.483   3.901   6.495
10742TIP3    H153717   3.544   3.831   6.472
10742TIP3    H253718   3.523   3.944   6.571
10743TIP3   OH253719   5.833   4.290   3.501
10743TIP3    H153720   5.784   4.296   3.419
10743TIP3    H253721   5.765   4.272   3.567
10744TIP3   OH253722   4.930   3.548  17.000
10744TIP3    H153723   5.006   3.516  16.951
10744TIP3    H253724   4.925   3.641  16.979
10745TIP3   OH253725   4.144   0.414   3.199
10745TIP3    H153726   4.158   0.486   3.137
10745TIP3    H253727   4.225   0.363   3.194
10746TIP3   OH253728   1.106   3.255   0.004
10746TIP3    H153729   1.036   3.297  -0.046
10746TIP3    H253730   1.142   3.190  -0.056
10747TIP3   OH253731   1.662   5.478  12.190
10747TIP3    H153732   1.591   5.450  12.249
10747TIP3    H253733   1.702   5.552  12.235
10748TIP3   OH253734   2.077   3.628  14.011
10748TIP3    H153735   2.103   3.544  14.048
10748TIP3    H253736   2.009   3.660  14.070
10749TIP3   OH253737   1.406   6.481  16.082
10749TIP3    H153738   1.363   6.475  15.997
10749TIP3    H253739   1.351   6.541  16.133
10750TIP3   OH253740   6.634   4.384  16.286
10750TIP3    H153741   6.585   4.312  16.324
10750TIP3    H253742   6.647   4.359  16.194
10751TIP3   OH253743   1.864   5.619  17.077
10751TIP3    H153744   1.794   5.617  17.011
10751TIP3    H253745   1.920   5.693  17.051
10752TIP3   OH253746   2.641   3.920   5.364
10752TIP3    H153747   2.609   3.922   5.274
10752TIP3    H253748   2.686   3.836   5.372
10753TIP3   OH253749   0.227   2.389  10.446
10753TIP3    H153750   0.205   2.296  10.434
10753TIP3    H253751   0.199   2.409  10.535
10754TIP3   OH253752   3.029   5.657   0.864
10754TIP3    H153753   2.959   5.709   0.903
10754TIP3    H253754   3.054   5.706   0.785
10755TIP3   OH253755   2.706   3.704  13.602
10755TIP3    H153756   2.792   3.685  13.562
10755TIP3    H253757   2.648   3.638  13.564
10756TIP3   OH253758   0.545   5.425   5.393
10756TIP3    H153759   0.593   5.466   5.322
10756TIP3    H253760   0.475   5.376   5.350
10757TIP3   OH253761   6.054   2.740  16.990
10757TIP3    H153762   6.133   2.756  16.940
10757TIP3    H253763   6.073   2.662  17.041
10758TIP3   OH253764   2.261   3.737   0.634
10758TIP3    H153765   2.243   3.650   0.670
10758TIP3    H253766   2.334   3.723   0.573
10759TIP3   OH253767   5.610   3.348  16.070
10759TIP3    H153768   5.595   3.284  16.001
10759TIP3    H253769   5.636   3.297  16.146
10760TIP3   OH253770   4.131   6.752   6.256
10760TIP3    H153771   4.208   6.723   6.206
10760TIP3    H253772   4.085   6.810   6.196
10761TIP3   OH253773   3.278   2.197   0.023
10761TIP3    H153774   3.297   2.286  -0.007
10761TIP3    H253775   3.279   2.203   0.118
10762TIP3   OH253776   4.851   1.276  13.223
10762TIP3    H153777   4.758   1.290  13.242
10762TIP3    H253778   4.868   1.187  13.256
10763TIP3   OH253779   0.918   3.887  15.044
10763TIP3    H153780   0.860   3.936  14.986
10763TIP3    H253781   0.898   3.921  15.132
10764TIP3   OH253782   4.697   5.565  15.227
10764TIP3    H153783   4.649   5.632  15.178
10764TIP3    H253784   4.783   5.562  15.185
10765TIP3   OH253785   6.677   4.289   1.138
10765TIP3    H153786   6.608   4.229   1.111
10765TIP3    H253787   6.651   4.317   1.226
10766TIP3   OH253788   4.472   4.578   4.078
10766TIP3    H153789   4.519   4.499   4.052
10766TIP3    H253790   4.468   4.631   3.999
10767TIP3   OH253791   2.657   1.716  16.921
10767TIP3    H153792   2.737   1.664  16.912
10767TIP3    H253793   2.660   1.777  16.847
10768TIP3   OH253794   1.908   4.786   5.806
10768TIP3    H153795   1.935   4.695   5.789
10768TIP3    H253796   1.947   4.806   5.891
10769TIP3   OH253797   6.105   5.469   5.075
10769TIP3    H153798   6.011   5.480   5.061
10769TIP3    H253799   6.114   5.381   5.111
10770TIP3   OH253800   1.797   2.251   5.980
10770TIP3    H153801   1.837   2.168   6.008
10770TIP3    H253802   1.715   2.226   5.939
10771TIP3   OH253803   4.323   5.192   3.941
10771TIP3    H153804   4.270   5.128   3.894
10771TIP3    H253805   4.383   5.139   3.994
10772TIP3   OH253806   0.895   1.413  16.783
10772TIP3    H153807   0.821   1.454  16.827
10772TIP3    H253808   0.960   1.484  16.774
10773TIP3   OH253809   0.784   1.859   5.856
10773TIP3    H153810   0.698   1.817   5.869
10773TIP3    H253811   0.764   1.942   5.813
10774TIP3   OH253812   3.892   2.873  13.137
10774TIP3    H153813   3.883   2.783  13.106
10774TIP3    H253814   3.987   2.886  13.144
10775TIP3   OH253815   4.831   3.145   2.888
10775TIP3    H153816   4.783   3.084   2.832
10775TIP3    H253817   4.872   3.206   2.827
10776TIP3   OH253818   5.661   3.798  15.511
10776TIP3    H153819   5.693   3.880  15.473
10776TIP3    H253820   5.632   3.747  15.435
10777TIP3   OH253821   3.882   6.080  12.421
10777TIP3    H153822   3.903   6.146  12.356
10777TIP3    H253823   3.799   6.042  12.391
10778TIP3   OH253824   2.778   2.777  12.296
10778TIP3    H153825   2.847   2.711  12.286
10778TIP3    H253826   2.773   2.791  12.391
10779TIP3   OH253827   0.652   0.393  10.929
10779TIP3    H153828   0.591   0.395  10.855
10779TIP3    H253829   0.694   0.307  10.924
10780TIP3   OH253830   0.609   0.864  14.196
10780TIP3    H153831   0.545   0.902  14.255
10780TIP3    H253832   0.692   0.904  14.222
10781TIP3   OH253833   4.037   2.023  12.386
10781TIP3    H153834   4.087   2.067  12.317
10781TIP3    H253835   4.088   2.039  12.465
10782TIP3   OH253836   2.871   6.170  17.025
10782TIP3    H153837   2.801   6.231  17.003
10782TIP3    H253838   2.826   6.089  17.048
10783TIP3   OH253839   4.486   5.142  12.286
10783TIP3    H153840   4.397   5.146  12.321
10783TIP3    H253841   4.485   5.201  12.210
10784TIP3   OH253842   1.608   5.898   0.083
10784TIP3    H153843   1.590   5.846   0.162
10784TIP3    H253844   1.522   5.908   0.041
10785TIP3   OH253845   0.059   5.985   1.292
10785TIP3    H153846  -0.023   6.004   1.337
10785TIP3    H253847   0.063   6.047   1.220
10786TIP3   OH253848   2.886   3.761   5.399
10786TIP3    H153849   2.871   3.780   5.492
10786TIP3    H253850   2.917   3.671   5.398
10787TIP3   OH253851   3.179   6.365   2.090
10787TIP3    H153852   3.170   6.314   2.171
10787TIP3    H253853   3.227   6.443   2.117
10788TIP3   OH253854   4.086   4.828   3.093
10788TIP3    H153855   4.020   4.827   3.024
10788TIP3    H253856   4.063   4.903   3.147
10789TIP3   OH253857   2.514   3.487   1.673
10789TIP3    H153858   2.526   3.576   1.709
10789TIP3    H253859   2.555   3.490   1.587
10790TIP3   OH253860   3.907   5.723   3.089
10790TIP3    H153861   3.904   5.723   2.994
10790TIP3    H253862   3.868   5.806   3.115
10791TIP3   OH253863   1.878   6.275  16.540
10791TIP3    H153864   1.831   6.347  16.583
10791TIP3    H253865   1.858   6.199  16.594
10792TIP3   OH253866   2.367   6.542  16.079
10792TIP3    H153867   2.421   6.469  16.107
10792TIP3    H253868   2.408   6.572  15.997
10793TIP3   OH253869   5.208   6.749   1.354
10793TIP3    H153870   5.239   6.690   1.422
10793TIP3    H253871   5.167   6.821   1.402
10794TIP3   OH253872   5.548   5.057   1.651
10794TIP3    H153873   5.551   5.114   1.728
10794TIP3    H253874   5.625   5.082   1.600
10795TIP3   OH253875   0.182   0.808   2.897
10795TIP3    H153876   0.207   0.892   2.859
10795TIP3    H253877   0.222   0.807   2.983
10796TIP3   OH253878   2.306   5.643  10.141
10796TIP3    H153879   2.355   5.574  10.096
10796TIP3    H253880   2.227   5.599  10.172
10797TIP3   OH253881   5.361   5.338   0.904
10797TIP3    H153882   5.278   5.341   0.857
10797TIP3    H253883   5.355   5.409   0.968
10798TIP3   OH253884   0.019   2.637  16.630
10798TIP3    H153885  -0.030   2.676  16.558
10798TIP3    H253886   0.044   2.711  16.685
10799TIP3   OH253887   5.196   1.816   4.254
10799TIP3    H153888   5.116   1.857   4.288
10799TIP3    H253889   5.165   1.738   4.208
10800TIP3   OH253890   1.263   1.397   4.826
10800TIP3    H153891   1.349   1.433   4.804
10800TIP3    H253892   1.243   1.336   4.755
10801TIP3   OH253893   0.705   2.172   6.022
10801TIP3    H153894   0.748   2.214   6.096
10801TIP3    H253895   0.622   2.141   6.057
10802TIP3   OH253896   3.284   4.185   6.054
10802TIP3    H153897   3.358   4.125   6.061
10802TIP3    H253898   3.257   4.201   6.144
10803TIP3   OH253899   3.090   4.643  12.783
10803TIP3    H153900   3.053   4.569  12.734
10803TIP3    H253901   3.107   4.607  12.870
10804TIP3   OH253902   2.978   3.877  16.148
10804TIP3    H153903   2.902   3.918  16.107
10804TIP3    H253904   2.966   3.784  16.133
10805TIP3   OH253905   5.435   3.015   2.317
10805TIP3    H153906   5.502   3.042   2.255
10805TIP3    H253907   5.475   3.028   2.403
10806TIP3   OH253908   4.220   0.573  13.626
10806TIP3    H153909   4.133   0.611  13.616
10806TIP3    H253910   4.206   0.479  13.609
10807TIP3   OH253911   6.438   4.725   6.081
10807TIP3    H153912   6.508   4.785   6.108
10807TIP3    H253913   6.400   4.694   6.163
10808TIP3   OH253914   0.557   1.438  11.664
10808TIP3    H153915   0.524   1.500  11.729
10808TIP3    H253916   0.539   1.352  11.701
10809TIP3   OH253917   3.494   5.966   0.765
10809TIP3    H153918   3.472   5.936   0.677
10809TIP3    H253919   3.455   5.900   0.823
10810TIP3   OH253920   3.262   2.984  12.957
10810TIP3    H153921   3.243   2.913  12.895
10810TIP3    H253922   3.183   2.989  13.012
10811TIP3   OH253923   2.330   3.337   0.926
10811TIP3    H153924   2.294   3.301   1.007
10811TIP3    H253925   2.395   3.400   0.955
10812TIP3   OH253926   0.839   1.389  12.660
10812TIP3    H153927   0.920   1.422  12.700
10812TIP3    H253928   0.799   1.336  12.729
10813TIP3   OH253929   4.546   0.624  17.144
10813TIP3    H153930   4.580   0.714  17.142
10813TIP3    H253931   4.612   0.573  17.097
10814TIP3   OH253932   3.684   4.583   2.411
10814TIP3    H153933   3.639   4.668   2.417
10814TIP3    H253934   3.662   4.551   2.323
10815TIP3   OH253935   4.960   3.690   1.944
10815TIP3    H153936   4.874   3.691   1.985
10815TIP3    H253937   4.970   3.777   1.905
10816TIP3   OH253938   0.126   4.583  12.691
10816TIP3    H153939   0.195   4.517  12.686
10816TIP3    H253940   0.135   4.634  12.610
10817TIP3   OH253941   3.599   0.060  15.987
10817TIP3    H153942   3.667   0.008  15.944
10817TIP3    H253943   3.523   0.001  15.992
10818TIP3   OH253944   2.335   5.571   1.511
10818TIP3    H153945   2.299   5.651   1.548
10818TIP3    H253946   2.427   5.592   1.494
10819TIP3   OH253947   6.627   4.220  14.421
10819TIP3    H153948   6.550   4.271  14.396
10819TIP3    H253949   6.611   4.195  14.512
10820TIP3   OH253950   4.359   3.503  16.154
10820TIP3    H153951   4.283   3.451  16.127
10820TIP3    H253952   4.394   3.539  16.072
10821TIP3   OH253953   1.287   0.783   5.700
10821TIP3    H153954   1.277   0.738   5.617
10821TIP3    H253955   1.378   0.813   5.700
10822TIP3   OH253956   4.225   1.048   1.272
10822TIP3    H153957   4.205   1.020   1.361
10822TIP3    H253958   4.140   1.054   1.228
10823TIP3   OH253959   1.365   6.228  12.530
10823TIP3    H153960   1.377   6.281  12.451
10823TIP3    H253961   1.437   6.165  12.528
10824TIP3   OH253962   0.990   0.154   1.580
10824TIP3    H153963   0.950   0.230   1.537
10824TIP3    H253964   1.082   0.156   1.554
10825TIP3   OH253965   5.909   3.735  13.332
10825TIP3    H153966   5.899   3.654  13.381
10825TIP3    H253967   5.820   3.765  13.317
10826TIP3   OH253968   0.312   4.871   1.005
10826TIP3    H153969   0.364   4.923   0.944
10826TIP3    H253970   0.376   4.832   1.064
10827TIP3   OH253971   0.554   0.620  16.629
10827TIP3    H153972   0.503   0.545  16.660
10827TIP3    H253973   0.611   0.583  16.561
10828TIP3   OH253974   4.176   6.363   5.902
10828TIP3    H153975   4.197   6.298   5.969
10828TIP3    H253976   4.109   6.321   5.848
10829TIP3   OH253977   0.331   6.406   3.622
10829TIP3    H153978   0.279   6.473   3.578
10829TIP3    H253979   0.418   6.413   3.583
10830TIP3   OH253980   5.263   0.341   5.839
10830TIP3    H153981   5.263   0.245   5.846
10830TIP3    H253982   5.185   0.361   5.787
10831TIP3   OH253983   4.754   3.713  13.996
10831TIP3    H153984   4.753   3.640  14.058
10831TIP3    H253985   4.845   3.717  13.966
10832TIP3   OH253986   4.724   4.106   1.849
10832TIP3    H153987   4.734   4.168   1.921
10832TIP3    H253988   4.735   4.159   1.770
10833TIP3   OH253989   1.750   1.533  14.344
10833TIP3    H153990   1.837   1.526  14.383
10833TIP3    H253991   1.711   1.446  14.356
10834TIP3   OH253992   1.206   0.712  15.697
10834TIP3    H153993   1.179   0.622  15.715
10834TIP3    H253994   1.213   0.717  15.602
10835TIP3   OH253995   5.745   2.264   5.280
10835TIP3    H153996   5.751   2.180   5.237
10835TIP3    H253997   5.768   2.328   5.212
10836TIP3   OH253998   3.562   0.645  11.543
10836TIP3    H153999   3.555   0.733  11.505
10836TIP3    H254000   3.496   0.594  11.495
10837TIP3   OH254001   4.035   4.060   5.772
10837TIP3    H154002   3.998   4.083   5.687
10837TIP3    H254003   3.977   3.993   5.807
10838TIP3   OH254004   4.162   0.957   2.099
10838TIP3    H154005   4.162   0.901   2.176
10838TIP3    H254006   4.210   1.036   2.126
10839TIP3   OH254007   1.242   6.796  13.040
10839TIP3    H154008   1.287   6.744  12.974
10839TIP3    H254009   1.308   6.858  13.072
10840TIP3   OH254010   2.154   2.809   2.510
10840TIP3    H154011   2.154   2.825   2.604
10840TIP3    H254012   2.206   2.880   2.473
10841TIP3   OH254013   2.126   5.402  16.370
10841TIP3    H154014   2.087   5.472  16.318
10841TIP3    H254015   2.055   5.371  16.426
10842TIP3   OH254016   4.866   0.114  17.005
10842TIP3    H154017   4.856   0.133  17.098
10842TIP3    H254018   4.889   0.199  16.966
10843TIP3   OH254019   5.332   4.503   3.715
10843TIP3    H154020   5.362   4.579   3.665
10843TIP3    H254021   5.315   4.436   3.649
10844TIP3   OH254022   1.233   4.650  16.151
10844TIP3    H154023   1.234   4.711  16.077
10844TIP3    H254024   1.173   4.581  16.124
10845TIP3   OH254025   5.932   1.892  16.020
10845TIP3    H154026   5.963   1.857  16.104
10845TIP3    H254027   5.969   1.981  16.016
10846TIP3   OH254028   4.661   5.952  11.968
10846TIP3    H154029   4.662   5.914  12.056
10846TIP3    H254030   4.651   6.046  11.983
10847TIP3   OH254031   5.988   0.659   1.228
10847TIP3    H154032   5.927   0.703   1.169
10847TIP3    H254033   5.939   0.647   1.310
10848TIP3   OH254034   5.088   6.634   2.396
10848TIP3    H154035   5.074   6.620   2.490
10848TIP3    H254036   5.143   6.712   2.392
10849TIP3   OH254037   3.169   4.044   4.022
10849TIP3    H154038   3.139   3.973   4.078
10849TIP3    H254039   3.181   4.119   4.081
10850TIP3   OH254040   2.488   4.701  14.603
10850TIP3    H154041   2.549   4.727  14.673
10850TIP3    H254042   2.423   4.772  14.601
10851TIP3   OH254043   4.765   0.657   3.542
10851TIP3    H154044   4.708   0.685   3.470
10851TIP3    H254045   4.710   0.601   3.596
10852TIP3   OH254046   0.935   4.853   0.560
10852TIP3    H154047   0.998   4.914   0.522
10852TIP3    H254048   0.910   4.796   0.487
10853TIP3   OH254049   3.131   3.091  13.171
10853TIP3    H154050   3.106   3.018  13.228
10853TIP3    H254051   3.083   3.166  13.206
10854TIP3   OH254052   1.711   2.670  12.855
10854TIP3    H154053   1.679   2.758  12.875
10854TIP3    H254054   1.742   2.635  12.938
10855TIP3   OH254055   0.547   2.466  13.038
10855TIP3    H154056   0.454   2.488  13.033
10855TIP3    H254057   0.565   2.419  12.957
10856TIP3   OH254058   0.745   3.077  15.659
10856TIP3    H154059   0.733   3.153  15.715
10856TIP3    H254060   0.833   3.088  15.622
10857TIP3   OH254061   5.568   4.874   1.038
10857TIP3    H154062   5.606   4.954   1.002
10857TIP3    H254063   5.565   4.889   1.132
10858TIP3   OH254064   4.261   2.787  14.538
10858TIP3    H154065   4.199   2.808  14.608
10858TIP3    H254066   4.328   2.733  14.579
10859TIP3   OH254067   6.432   2.573   4.505
10859TIP3    H154068   6.426   2.607   4.594
10859TIP3    H254069   6.365   2.504   4.501
10860TIP3   OH254070   1.758   0.299   2.740
10860TIP3    H154071   1.798   0.233   2.796
10860TIP3    H254072   1.683   0.331   2.790
10861TIP3   OH254073   2.725   3.979  16.145
10861TIP3    H154074   2.667   3.916  16.187
10861TIP3    H254075   2.696   4.064  16.177
10862TIP3   OH254076   3.467   4.863   4.828
10862TIP3    H154077   3.465   4.959   4.820
10862TIP3    H254078   3.446   4.847   4.920
10863TIP3   OH254079   3.636   0.940  16.071
10863TIP3    H154080   3.688   1.018  16.085
10863TIP3    H254081   3.608   0.913  16.159
10864TIP3   OH254082   1.006   5.904   1.697
10864TIP3    H154083   1.067   5.837   1.667
10864TIP3    H254084   0.926   5.856   1.718
10865TIP3   OH254085   0.528   1.571  14.156
10865TIP3    H154086   0.590   1.625  14.107
10865TIP3    H254087   0.582   1.501  14.193
10866TIP3   OH254088   5.728   3.323  14.735
10866TIP3    H154089   5.756   3.231  14.739
10866TIP3    H254090   5.634   3.321  14.755
10867TIP3   OH254091   5.039   0.355  13.711
10867TIP3    H154092   4.955   0.328  13.746
10867TIP3    H254093   5.065   0.429  13.766
10868TIP3   OH254094   6.192   2.141  12.366
10868TIP3    H154095   6.192   2.222  12.316
10868TIP3    H254096   6.264   2.151  12.429
10869TIP3   OH254097   4.266   3.247   1.750
10869TIP3    H154098   4.344   3.288   1.788
10869TIP3    H254099   4.223   3.318   1.701
10870TIP3   OH254100   5.924   5.268   4.222
10870TIP3    H154101   5.950   5.347   4.175
10870TIP3    H254102   5.974   5.198   4.180
10871TIP3   OH254103   6.073   1.078   5.502
10871TIP3    H154104   6.058   1.124   5.584
10871TIP3    H254105   6.050   0.987   5.521
10872TIP3   OH254106   1.621   4.383  12.054
10872TIP3    H154107   1.688   4.445  12.082
10872TIP3    H254108   1.538   4.429  12.069
10873TIP3   OH254109   5.144   3.699   3.730
10873TIP3    H154110   5.090   3.649   3.791
10873TIP3    H254111   5.086   3.769   3.699
10874TIP3   OH254112   1.367   3.290   4.422
10874TIP3    H154113   1.295   3.275   4.361
10874TIP3    H254114   1.446   3.272   4.371
10875TIP3   OH254115   1.460   1.869   2.753
10875TIP3    H154116   1.541   1.913   2.728
10875TIP3    H254117   1.478   1.832   2.839
10876TIP3   OH254118   3.775   5.709   1.175
10876TIP3    H154119   3.847   5.692   1.236
10876TIP3    H254120   3.699   5.722   1.232
10877TIP3   OH254121   6.271   0.892   4.648
10877TIP3    H154122   6.294   0.981   4.674
10877TIP3    H254123   6.183   0.900   4.612
10878TIP3   OH254124   4.249   6.707   0.983
10878TIP3    H154125   4.170   6.736   0.937
10878TIP3    H254126   4.314   6.775   0.965
10879TIP3   OH254127   6.441   3.462   0.951
10879TIP3    H154128   6.360   3.496   0.913
10879TIP3    H254129   6.451   3.510   1.033
10880TIP3   OH254130   0.536   0.814   5.636
10880TIP3    H154131   0.489   0.772   5.708
10880TIP3    H254132   0.622   0.772   5.636
10881TIP3   OH254133   6.762   5.683   5.946
10881TIP3    H154134   6.850   5.721   5.947
10881TIP3    H254135   6.713   5.734   6.011
10882TIP3   OH254136   0.493   4.908  14.811
10882TIP3    H154137   0.549   4.897  14.888
10882TIP3    H254138   0.500   4.824  14.765
10883TIP3   OH254139   0.389   3.524  13.180
10883TIP3    H154140   0.300   3.552  13.160
10883TIP3    H254141   0.427   3.598  13.228
10884TIP3   OH254142   2.313   0.858   1.009
10884TIP3    H154143   2.320   0.926   1.075
10884TIP3    H254144   2.224   0.868   0.974
10885TIP3   OH254145   4.944   5.362   1.606
10885TIP3    H154146   4.872   5.404   1.559
10885TIP3    H254147   4.984   5.304   1.541
10886TIP3   OH254148   0.922   0.770   1.584
10886TIP3    H154149   0.876   0.833   1.640
10886TIP3    H254150   0.880   0.779   1.499
10887TIP3   OH254151   4.747   4.224   1.062
10887TIP3    H154152   4.716   4.208   0.973
10887TIP3    H254153   4.723   4.145   1.110
10888TIP3   OH254154   2.688   5.763   5.346
10888TIP3    H154155   2.683   5.682   5.295
10888TIP3    H254156   2.710   5.831   5.282
10889TIP3   OH254157   1.648   1.882   0.052
10889TIP3    H154158   1.607   1.958   0.010
10889TIP3    H254159   1.580   1.845   0.107
10890TIP3   OH254160   1.156   5.057  13.933
10890TIP3    H154161   1.176   5.086  13.844
10890TIP3    H254162   1.112   5.133  13.973
10891TIP3   OH254163   0.156   6.227  16.129
10891TIP3    H154164   0.097   6.164  16.088
10891TIP3    H254165   0.119   6.242  16.216
10892TIP3   OH254166   4.173   6.693  13.838
10892TIP3    H154167   4.171   6.603  13.804
10892TIP3    H254168   4.119   6.690  13.917
10893TIP3   OH254169   5.933   3.904   4.047
10893TIP3    H154170   5.984   3.837   4.093
10893TIP3    H254171   5.877   3.855   3.987
10894TIP3   OH254172   0.649   2.810  10.438
10894TIP3    H154173   0.606   2.772  10.515
10894TIP3    H254174   0.741   2.789  10.450
10895TIP3   OH254175   6.488   2.158  12.159
10895TIP3    H154176   6.413   2.215  12.139
10895TIP3    H254177   6.507   2.175  12.251
10896TIP3   OH254178   1.498   0.068  15.020
10896TIP3    H154179   1.558   0.140  14.999
10896TIP3    H254180   1.553  -0.011  15.018
10897TIP3   OH254181   1.007   0.279   2.886
10897TIP3    H154182   0.962   0.235   2.814
10897TIP3    H254183   0.956   0.256   2.963
10898TIP3   OH254184   4.190   6.198   2.364
10898TIP3    H154185   4.246   6.128   2.397
10898TIP3    H254186   4.250   6.259   2.321
10899TIP3   OH254187   0.383   0.685   1.554
10899TIP3    H154188   0.384   0.654   1.463
10899TIP3    H254189   0.336   0.617   1.602
10900TIP3   OH254190   6.271   3.236   1.355
10900TIP3    H154191   6.317   3.158   1.325
10900TIP3    H254192   6.321   3.265   1.432
10901TIP3   OH254193   2.846   1.923   0.267
10901TIP3    H154194   2.846   2.017   0.248
10901TIP3    H254195   2.773   1.911   0.328
10902TIP3   OH254196   6.676   1.792  15.274
10902TIP3    H154197   6.645   1.715  15.321
10902TIP3    H254198   6.680   1.765  15.183
10903TIP3   OH254199   6.038   2.882  14.655
10903TIP3    H154200   5.986   2.919  14.584
10903TIP3    H254201   5.982   2.815  14.694
10904TIP3   OH254202   1.797   3.300   4.652
10904TIP3    H154203   1.792   3.206   4.633
10904TIP3    H254204   1.706   3.330   4.647
10905TIP3   OH254205   1.592   0.313  14.916
10905TIP3    H154206   1.667   0.291  14.861
10905TIP3    H254207   1.518   0.316  14.856
10906TIP3   OH254208   1.855   5.931  10.989
10906TIP3    H154209   1.835   5.893  11.074
10906TIP3    H254210   1.951   5.934  10.986
10907TIP3   OH254211   2.153   0.437   3.996
10907TIP3    H154212   2.148   0.399   3.908
10907TIP3    H254213   2.063   0.434   4.029
10908TIP3   OH254214   4.160   4.352  16.795
10908TIP3    H154215   4.147   4.279  16.856
10908TIP3    H254216   4.246   4.386  16.816
10909TIP3   OH254217   0.400   2.137   2.125
10909TIP3    H154218   0.472   2.098   2.075
10909TIP3    H254219   0.423   2.118   2.217
10910TIP3   OH254220   4.281   5.876  12.619
10910TIP3    H154221   4.213   5.914  12.564
10910TIP3    H254222   4.234   5.811  12.673
10911TIP3   OH254223   3.024   2.896   1.723
10911TIP3    H154224   3.005   2.959   1.654
10911TIP3    H254225   2.996   2.812   1.687
10912TIP3   OH254226   5.586   3.897   1.228
10912TIP3    H154227   5.632   3.868   1.307
10912TIP3    H254228   5.533   3.971   1.258
10913TIP3   OH254229   6.396   4.931   0.358
10913TIP3    H154230   6.490   4.917   0.347
10913TIP3    H254231   6.390   5.001   0.423
10914TIP3   OH254232   2.297   1.696   2.444
10914TIP3    H154233   2.241   1.656   2.510
10914TIP3    H254234   2.364   1.743   2.494
10915TIP3   OH254235   4.157   1.875  16.304
10915TIP3    H154236   4.110   1.792  16.314
10915TIP3    H254237   4.228   1.855  16.243
10916TIP3   OH254238   1.762   0.803  10.495
10916TIP3    H154239   1.690   0.789  10.556
10916TIP3    H254240   1.817   0.725  10.505
10917TIP3   OH254241   0.211   3.977   4.092
10917TIP3    H154242   0.143   4.030   4.133
10917TIP3    H254243   0.232   3.911   4.157
10918TIP3   OH254244   1.202   5.295   4.129
10918TIP3    H154245   1.167   5.359   4.191
10918TIP3    H254246   1.162   5.319   4.045
10919TIP3   OH254247   0.436   4.129  12.091
10919TIP3    H154248   0.457   4.158  12.002
10919TIP3    H254249   0.451   4.206  12.146
10920TIP3   OH254250   3.319   1.523  16.911
10920TIP3    H154251   3.290   1.448  16.962
10920TIP3    H254252   3.414   1.522  16.918
10921TIP3   OH254253   1.885   1.843   3.872
10921TIP3    H154254   1.835   1.883   3.801
10921TIP3    H254255   1.819   1.798   3.926
10922TIP3   OH254256   1.121   5.436  14.313
10922TIP3    H154257   1.121   5.413  14.220
10922TIP3    H254258   1.160   5.523  14.316
10923TIP3   OH254259   0.205   0.552  15.635
10923TIP3    H154260   0.286   0.601  15.619
10923TIP3    H254261   0.135   0.617  15.623
10924TIP3   OH254262   2.008   1.525  11.453
10924TIP3    H154263   1.946   1.494  11.387
10924TIP3    H254264   2.045   1.445  11.491
10925TIP3   OH254265   5.047   6.585  11.614
10925TIP3    H154266   5.072   6.554  11.700
10925TIP3    H254267   5.053   6.680  11.620
10926TIP3   OH254268   2.254   1.138   3.386
10926TIP3    H154269   2.323   1.087   3.344
10926TIP3    H254270   2.234   1.090   3.466
10927TIP3   OH254271   3.724   4.035   3.285
10927TIP3    H154272   3.659   4.102   3.309
10927TIP3    H254273   3.796   4.084   3.246
10928TIP3   OH254274   1.553   2.782  10.984
10928TIP3    H154275   1.622   2.846  10.970
10928TIP3    H254276   1.587   2.702  10.945
10929TIP3   OH254277   4.522   5.946  12.715
10929TIP3    H154278   4.577   5.888  12.661
10929TIP3    H254279   4.433   5.931  12.683
10930TIP3   OH254280   5.649   6.061  11.621
10930TIP3    H154281   5.657   6.156  11.614
10930TIP3    H254282   5.697   6.039  11.701
10931TIP3   OH254283   0.661   4.933   1.083
10931TIP3    H154284   0.742   4.886   1.067
10931TIP3    H254285   0.602   4.868   1.121
10932TIP3   OH254286   1.043   4.681  16.805
10932TIP3    H154287   0.966   4.648  16.758
10932TIP3    H254288   1.008   4.747  16.864
10933TIP3   OH254289   1.404   3.231   4.814
10933TIP3    H154290   1.409   3.149   4.765
10933TIP3    H254291   1.314   3.262   4.800
10934TIP3   OH254292   6.702   0.366  15.907
10934TIP3    H154293   6.788   0.408  15.909
10934TIP3    H254294   6.640   0.438  15.891
10935TIP3   OH254295   5.360   4.761   0.872
10935TIP3    H154296   5.424   4.824   0.905
10935TIP3    H254297   5.304   4.813   0.814
10936TIP3   OH254298   6.713   4.420  15.943
10936TIP3    H154299   6.809   4.428  15.943
10936TIP3    H254300   6.697   4.326  15.932
10937TIP3   OH254301   1.990   3.639   3.143
10937TIP3    H154302   1.937   3.644   3.222
10937TIP3    H254303   1.926   3.629   3.072
10938TIP3   OH254304   5.186   0.684  16.952
10938TIP3    H154305   5.096   0.652  16.953
10938TIP3    H254306   5.186   0.754  16.886
10939TIP3   OH254307   5.397   6.442   0.722
10939TIP3    H154308   5.471   6.484   0.678
10939TIP3    H254309   5.432   6.358   0.752
10940TIP3   OH254310   5.925   1.386   5.590
10940TIP3    H154311   5.999   1.371   5.530
10940TIP3    H254312   5.938   1.324   5.661
10941TIP3   OH254313   2.815   1.516  13.485
10941TIP3    H154314   2.724   1.542  13.495
10941TIP3    H254315   2.864   1.597  13.495
10942TIP3   OH254316   6.629   4.959   1.427
10942TIP3    H154317   6.600   4.874   1.391
10942TIP3    H254318   6.618   5.020   1.354
10943TIP3   OH254319   1.389   4.590  12.443
10943TIP3    H154320   1.299   4.558  12.442
10943TIP3    H254321   1.443   4.512  12.434
10944TIP3   OH254322   6.360   0.272   4.269
10944TIP3    H154323   6.353   0.327   4.347
10944TIP3    H254324   6.366   0.335   4.196
10945TIP3   OH254325   5.812   4.082  12.792
10945TIP3    H154326   5.779   4.053  12.707
10945TIP3    H254327   5.783   4.173  12.800
10946TIP3   OH254328   3.257   1.333  11.111
10946TIP3    H154329   3.343   1.332  11.070
10946TIP3    H254330   3.199   1.372  11.046
10947TIP3   OH254331   3.919   5.717  10.730
10947TIP3    H154332   3.949   5.765  10.652
10947TIP3    H254333   3.992   5.659  10.752
10948TIP3   OH254334   1.750   1.583  16.009
10948TIP3    H154335   1.788   1.515  15.953
10948TIP3    H254336   1.671   1.610  15.963
10949TIP3   OH254337   1.538   4.546   4.774
10949TIP3    H154338   1.505   4.635   4.787
10949TIP3    H254339   1.550   4.539   4.679
10950TIP3   OH254340   6.679   1.163  10.983
10950TIP3    H154341   6.588   1.135  10.976
10950TIP3    H254342   6.727   1.102  10.927
10951TIP3   OH254343   4.144   1.424   2.257
10951TIP3    H154344   4.186   1.444   2.174
10951TIP3    H254345   4.066   1.373   2.233
10952TIP3   OH254346   0.277   4.459   1.666
10952TIP3    H154347   0.251   4.440   1.576
10952TIP3    H254348   0.324   4.380   1.694
10953TIP3   OH254349   2.565   6.563  15.888
10953TIP3    H154350   2.513   6.541  15.810
10953TIP3    H254351   2.631   6.494  15.893
10954TIP3   OH254352   0.591   3.207  17.016
10954TIP3    H154353   0.596   3.303  17.016
10954TIP3    H254354   0.673   3.179  16.975
10955TIP3   OH254355   1.789   5.048   5.068
10955TIP3    H154356   1.846   4.979   5.034
10955TIP3    H254357   1.716   5.052   5.006
10956TIP3   OH254358   4.398   0.978   1.033
10956TIP3    H154359   4.323   1.005   1.086
10956TIP3    H254360   4.444   1.060   1.014
10957TIP3   OH254361   5.564   1.397   3.509
10957TIP3    H154362   5.495   1.374   3.447
10957TIP3    H254363   5.564   1.326   3.573
10958TIP3   OH254364   3.045   2.244   1.027
10958TIP3    H154365   2.978   2.179   1.004
10958TIP3    H254366   3.022   2.322   0.977
10959TIP3   OH254367   4.159   0.264   0.802
10959TIP3    H154368   4.147   0.335   0.739
10959TIP3    H254369   4.252   0.245   0.799
10960TIP3   OH254370   0.686   1.158   5.989
10960TIP3    H154371   0.628   1.083   5.978
10960TIP3    H254372   0.627   1.234   5.990
10961TIP3   OH254373   3.297   5.466  16.654
10961TIP3    H154374   3.286   5.430  16.565
10961TIP3    H254375   3.390   5.452  16.673
10962TIP3   OH254376   3.557   5.504  17.031
10962TIP3    H154377   3.515   5.419  17.040
10962TIP3    H254378   3.484   5.566  17.028
10963TIP3   OH254379   1.018   1.710   5.737
10963TIP3    H154380   0.959   1.769   5.783
10963TIP3    H254381   1.089   1.766   5.706
10964TIP3   OH254382   0.824   2.338  14.345
10964TIP3    H154383   0.864   2.375  14.424
10964TIP3    H254384   0.806   2.247  14.368
10965TIP3   OH254385   6.261   1.260   3.593
10965TIP3    H154386   6.249   1.241   3.500
10965TIP3    H254387   6.264   1.174   3.635
10966TIP3   OH254388   1.330   4.105  14.313
10966TIP3    H154389   1.342   4.012  14.330
10966TIP3    H254390   1.321   4.145  14.400
10967TIP3   OH254391   6.457   0.792   2.877
10967TIP3    H154392   6.549   0.818   2.886
10967TIP3    H254393   6.410   0.850   2.937
10968TIP3   OH254394   3.965   0.609  12.970
10968TIP3    H154395   4.040   0.662  12.945
10968TIP3    H254396   3.969   0.533  12.913
10969TIP3   OH254397   2.250   5.335  14.808
10969TIP3    H154398   2.340   5.348  14.837
10969TIP3    H254399   2.237   5.399  14.739
10970TIP3   OH254400   3.961   0.060   2.171
10970TIP3    H154401   4.033   0.078   2.231
10970TIP3    H254402   3.885   0.100   2.212
10971TIP3   OH254403   0.749   3.293  15.828
10971TIP3    H154404   0.815   3.353  15.862
10971TIP3    H254405   0.683   3.288  15.897
10972TIP3   OH254406   5.746   0.558   5.386
10972TIP3    H154407   5.687   0.512   5.444
10972TIP3    H254408   5.691   0.625   5.344
10973TIP3   OH254409   2.022   1.668  10.646
10973TIP3    H154410   1.960   1.612  10.694
10973TIP3    H254411   1.976   1.690  10.565
10974TIP3   OH254412   2.479   6.613   6.636
10974TIP3    H154413   2.433   6.560   6.571
10974TIP3    H254414   2.454   6.576   6.720
10975TIP3   OH254415   2.152   4.569  13.557
10975TIP3    H154416   2.225   4.566  13.619
10975TIP3    H254417   2.097   4.495  13.582
10976TIP3   OH254418   5.151   2.542  15.214
10976TIP3    H154419   5.176   2.484  15.286
10976TIP3    H254420   5.059   2.521  15.197
10977TIP3   OH254421   6.788   1.160  14.266
10977TIP3    H154422   6.865   1.108  14.290
10977TIP3    H254423   6.724   1.142  14.335
10978TIP3   OH254424   2.942   4.885   4.571
10978TIP3    H154425   2.907   4.862   4.484
10978TIP3    H254426   3.013   4.946   4.553
10979TIP3   OH254427   0.848   0.975  10.684
10979TIP3    H154428   0.830   1.044  10.747
10979TIP3    H254429   0.917   1.011  10.629
10980TIP3   OH254430   5.811   3.107   0.756
10980TIP3    H154431   5.730   3.096   0.705
10980TIP3    H254432   5.865   3.032   0.731
10981TIP3   OH254433   5.114   6.449  16.458
10981TIP3    H154434   5.146   6.517  16.517
10981TIP3    H254435   5.167   6.372  16.479
10982TIP3   OH254436   2.905   1.077  13.794
10982TIP3    H154437   2.846   1.078  13.719
10982TIP3    H254438   2.981   1.026  13.764
10983TIP3   OH254439   0.337   1.174  12.475
10983TIP3    H154440   0.401   1.107  12.500
10983TIP3    H254441   0.318   1.155  12.383
10984TIP3   OH254442   3.292   2.034   4.618
10984TIP3    H154443   3.288   2.101   4.687
10984TIP3    H254444   3.245   2.073   4.544
10985TIP3   OH254445   1.076   2.937  12.298
10985TIP3    H154446   1.004   2.972  12.246
10985TIP3    H254447   1.120   3.014  12.335
10986TIP3   OH254448   5.303   5.512   4.629
10986TIP3    H154449   5.360   5.455   4.577
10986TIP3    H254450   5.268   5.575   4.565
10987TIP3   OH254451   0.048   1.669   2.423
10987TIP3    H154452   0.102   1.619   2.484
10987TIP3    H254453   0.088   1.756   2.421
10988TIP3   OH254454   3.172   4.542  14.920
10988TIP3    H154455   3.226   4.620  14.908
10988TIP3    H254456   3.083   4.576  14.930
10989TIP3   OH254457   6.481   5.062  12.131
10989TIP3    H154458   6.406   5.119  12.148
10989TIP3    H254459   6.524   5.100  12.054
10990TIP3   OH254460   5.256   5.025  14.804
10990TIP3    H154461   5.286   5.092  14.744
10990TIP3    H254462   5.301   5.043  14.886
10991TIP3   OH254463   0.601   3.389  16.701
10991TIP3    H154464   0.638   3.317  16.751
10991TIP3    H254465   0.560   3.347  16.625
10992TIP3   OH254466   6.593   4.234   5.062
10992TIP3    H154467   6.673   4.283   5.043
10992TIP3    H254468   6.527   4.302   5.077
10993TIP3   OH254469   1.926   1.880   0.119
10993TIP3    H154470   1.832   1.887   0.103
10993TIP3    H254471   1.955   1.809   0.062
10994TIP3   OH254472   3.444   6.050   0.048
10994TIP3    H154473   3.533   6.018   0.033
10994TIP3    H254474   3.391   6.005  -0.018
10995TIP3   OH254475   1.747   6.570  12.517
10995TIP3    H154476   1.770   6.632  12.447
10995TIP3    H254477   1.801   6.493  12.500
10996TIP3   OH254478   5.106   4.785  16.859
10996TIP3    H154479   5.125   4.733  16.781
10996TIP3    H254480   5.146   4.736  16.931
10997TIP3   OH254481   3.016   0.270   3.796
10997TIP3    H154482   3.027   0.204   3.727
10997TIP3    H254483   3.078   0.245   3.864
10998TIP3   OH254484   0.547   4.437   4.597
10998TIP3    H154485   0.508   4.431   4.684
10998TIP3    H254486   0.485   4.490   4.546
10999TIP3   OH254487   0.042   5.256  16.937
10999TIP3    H154488   0.121   5.229  16.891
10999TIP3    H254489   0.001   5.321  16.880
11000TIP3   OH254490   4.892   6.671  11.886
11000TIP3    H154491   4.976   6.627  11.870
11000TIP3    H254492   4.916   6.751  11.932
11001TIP3   OH254493   1.210   0.180  13.580
11001TIP3    H154494   1.122   0.213  13.562
11001TIP3    H254495   1.268   0.241  13.536
11002TIP3   OH254496   1.527   5.616  15.624
11002TIP3    H154497   1.438   5.641  15.649
11002TIP3    H254498   1.526   5.619  15.528
11003TIP3   OH254499   5.672   5.317   1.710
11003TIP3    H154500   5.685   5.281   1.622
11003TIP3    H254501   5.754   5.298   1.756
11004TIP3   OH254502   2.937   6.028   1.521
11004TIP3    H154503   2.994   5.953   1.505
11004TIP3    H254504   2.943   6.079   1.440
11005TIP3   OH254505   1.187   1.193   6.680
11005TIP3    H154506   1.104   1.205   6.633
11005TIP3    H254507   1.165   1.138   6.755
11006TIP3   OH254508   1.507   3.824  13.557
11006TIP3    H154509   1.580   3.792  13.611
11006TIP3    H254510   1.430   3.812  13.612
11007TIP3   OH254511   4.620   0.261  15.407
11007TIP3    H154512   4.548   0.232  15.463
11007TIP3    H254513   4.658   0.335  15.454
11008TIP3   OH254514   5.782   1.736   3.861
11008TIP3    H154515   5.711   1.683   3.825
11008TIP3    H254516   5.745   1.772   3.942
11009TIP3   OH254517   5.860   5.066   1.655
11009TIP3    H154518   5.821   4.981   1.636
11009TIP3    H254519   5.938   5.045   1.707
11010TIP3   OH254520   5.095   6.440   1.960
11010TIP3    H154521   5.125   6.407   2.045
11010TIP3    H254522   5.130   6.529   1.956
11011TIP3   OH254523   5.826   1.665   4.247
11011TIP3    H154524   5.758   1.681   4.182
11011TIP3    H254525   5.908   1.673   4.199
11012TIP3   OH254526   4.555   5.510  14.072
11012TIP3    H154527   4.475   5.486  14.118
11012TIP3    H254528   4.544   5.603  14.051
11013TIP3   OH254529   5.603   5.518  15.078
11013TIP3    H154530   5.518   5.544  15.113
11013TIP3    H254531   5.650   5.482  15.154
11014TIP3   OH254532   6.685   2.855  15.405
11014TIP3    H154533   6.687   2.949  15.386
11014TIP3    H254534   6.602   2.843  15.452
11015TIP3   OH254535   6.718   5.151   3.439
11015TIP3    H154536   6.754   5.233   3.405
11015TIP3    H254537   6.775   5.129   3.513
11016TIP3   OH254538   3.404   5.180  13.070
11016TIP3    H154539   3.350   5.104  13.090
11016TIP3    H254540   3.388   5.197  12.977
11017TIP3   OH254541   5.942   3.182   0.499
11017TIP3    H154542   5.902   3.184   0.587
11017TIP3    H254543   6.021   3.236   0.508
11018TIP3   OH254544   6.730   4.226   5.454
11018TIP3    H154545   6.644   4.211   5.417
11018TIP3    H254546   6.786   4.159   5.414
11019TIP3   OH254547   2.997   5.395   1.607
11019TIP3    H154548   3.057   5.463   1.637
11019TIP3    H254549   2.996   5.404   1.512
11020TIP3   OH254550   6.768   0.577   0.416
11020TIP3    H154551   6.845   0.542   0.372
11020TIP3    H254552   6.775   0.672   0.405
11021TIP3   OH254553   0.334   1.347   2.950
11021TIP3    H154554   0.254   1.369   2.998
11021TIP3    H254555   0.363   1.264   2.988
11022TIP3   OH254556   1.996   3.183  15.453
11022TIP3    H154557   2.035   3.110  15.500
11022TIP3    H254558   1.907   3.189  15.489
11023TIP3   OH254559   6.576   0.210   3.953
11023TIP3    H154560   6.640   0.280   3.935
11023TIP3    H254561   6.519   0.210   3.877
11024TIP3   OH254562   6.000   6.273  16.042
11024TIP3    H154563   6.023   6.365  16.040
11024TIP3    H254564   6.083   6.226  16.048
11025TIP3   OH254565   4.070   4.165   1.272
11025TIP3    H154566   4.008   4.218   1.323
11025TIP3    H254567   4.121   4.118   1.339
11026TIP3   OH254568   4.383   3.036   4.123
11026TIP3    H154569   4.434   2.960   4.152
11026TIP3    H254570   4.424   3.062   4.040
11027TIP3   OH254571   3.430   4.554   6.311
11027TIP3    H154572   3.404   4.644   6.288
11027TIP3    H254573   3.360   4.523   6.368
11028TIP3   OH254574   0.440   5.895   2.179
11028TIP3    H154575   0.503   5.855   2.119
11028TIP3    H254576   0.461   5.989   2.176
11029TIP3   OH254577   0.454   1.781   1.129
11029TIP3    H154578   0.368   1.758   1.165
11029TIP3    H254579   0.435   1.811   1.040
11030TIP3   OH254580   2.737   6.269  12.947
11030TIP3    H154581   2.666   6.333  12.942
11030TIP3    H254582   2.755   6.246  12.856
11031TIP3   OH254583   4.716   3.357  14.685
11031TIP3    H154584   4.715   3.440  14.636
11031TIP3    H254585   4.648   3.367  14.751
11032TIP3   OH254586   1.725   6.579  10.871
11032TIP3    H154587   1.694   6.640  10.803
11032TIP3    H254588   1.702   6.622  10.953
11033TIP3   OH254589   6.213   3.336   2.460
11033TIP3    H154590   6.151   3.271   2.494
11033TIP3    H254591   6.258   3.291   2.388
11034TIP3   OH254592   1.300   6.078  13.113
11034TIP3    H154593   1.275   5.987  13.093
11034TIP3    H254594   1.287   6.086  13.208
11035TIP3   OH254595   1.580   1.208   4.716
11035TIP3    H154596   1.510   1.240   4.659
11035TIP3    H254597   1.551   1.228   4.805
11036TIP3   OH254598   6.514   0.553   5.655
11036TIP3    H154599   6.467   0.522   5.577
11036TIP3    H254600   6.597   0.507   5.654
11037TIP3   OH254601   6.437   4.888   5.391
11037TIP3    H154602   6.387   4.932   5.460
11037TIP3    H254603   6.371   4.842   5.340
11038TIP3   OH254604   5.944   6.313   5.039
11038TIP3    H154605   5.908   6.263   5.113
11038TIP3    H254606   5.993   6.384   5.080
11039TIP3   OH254607   3.292   3.524   1.252
11039TIP3    H154608   3.367   3.539   1.195
11039TIP3    H254609   3.327   3.476   1.326
11040TIP3   OH254610   0.982   1.730  11.469
11040TIP3    H154611   1.063   1.738  11.419
11040TIP3    H254612   1.007   1.686  11.550
11041TIP3   OH254613   0.798   0.199   6.358
11041TIP3    H154614   0.799   0.105   6.375
11041TIP3    H254615   0.889   0.220   6.335
11042TIP3   OH254616   4.835   0.567   5.727
11042TIP3    H154617   4.825   0.500   5.659
11042TIP3    H254618   4.749   0.607   5.735
11043TIP3   OH254619   2.679   5.522  12.369
11043TIP3    H154620   2.765   5.500  12.404
11043TIP3    H254621   2.620   5.457  12.407
11044TIP3   OH254622   2.369   3.364   0.404
11044TIP3    H154623   2.363   3.282   0.453
11044TIP3    H254624   2.279   3.383   0.377
11045TIP3   OH254625   6.691   5.883  14.484
11045TIP3    H154626   6.744   5.953  14.445
11045TIP3    H254627   6.648   5.841  14.410
11046TIP3   OH254628   2.859   1.886  12.952
11046TIP3    H154629   2.918   1.826  12.997
11046TIP3    H254630   2.917   1.947  12.906
11047TIP3   OH254631   0.499   5.782  16.464
11047TIP3    H154632   0.528   5.859  16.513
11047TIP3    H254633   0.405   5.795  16.453
11048TIP3   OH254634   4.731   5.897  16.256
11048TIP3    H154635   4.807   5.839  16.262
11048TIP3    H254636   4.703   5.890  16.165
11049TIP3   OH254637   2.505   2.366  14.646
11049TIP3    H154638   2.555   2.308  14.589
11049TIP3    H254639   2.534   2.454  14.622
11050TIP3   OH254640   4.036   3.753  16.056
11050TIP3    H154641   4.033   3.657  16.063
11050TIP3    H254642   3.945   3.778  16.041
11051TIP3   OH254643   5.861   4.023   0.521
11051TIP3    H154644   5.803   4.082   0.473
11051TIP3    H254645   5.915   4.081   0.575
11052TIP3   OH254646   6.395   5.137   0.048
11052TIP3    H154647   6.449   5.216   0.060
11052TIP3    H254648   6.312   5.159   0.090
11053TIP3   OH254649   0.736   2.647  15.714
11053TIP3    H154650   0.764   2.564  15.751
11053TIP3    H254651   0.816   2.684  15.674
11054TIP3   OH254652   1.249   2.445   2.485
11054TIP3    H154653   1.278   2.415   2.399
11054TIP3    H254654   1.230   2.538   2.473
11055TIP3   OH254655   0.251   1.562  15.199
11055TIP3    H154656   0.260   1.533  15.108
11055TIP3    H254657   0.301   1.498  15.250
11056TIP3   OH254658   3.269   4.130  12.963
11056TIP3    H154659   3.307   4.218  12.971
11056TIP3    H254660   3.196   4.141  12.903
11057TIP3   OH254661   0.131   4.937   4.450
11057TIP3    H154662   0.101   4.913   4.362
11057TIP3    H254663   0.219   4.971   4.437
11058TIP3   OH254664   4.827   2.513   0.314
11058TIP3    H154665   4.829   2.479   0.404
11058TIP3    H254666   4.814   2.607   0.325
11059TIP3   OH254667   6.530   1.806  14.218
11059TIP3    H154668   6.487   1.891  14.222
11059TIP3    H254669   6.546   1.783  14.310
11060TIP3   OH254670   1.268   5.353  11.232
11060TIP3    H154671   1.312   5.290  11.175
11060TIP3    H254672   1.339   5.398  11.278
11061TIP3   OH254673   0.128   2.286   2.011
11061TIP3    H154674   0.078   2.351   1.962
11061TIP3    H254675   0.200   2.336   2.051
11062TIP3   OH254676   0.904   6.223  15.112
11062TIP3    H154677   0.971   6.262  15.169
11062TIP3    H254678   0.929   6.131  15.106
11063TIP3   OH254679   2.486   0.822   5.668
11063TIP3    H154680   2.549   0.885   5.704
11063TIP3    H254681   2.541   0.747   5.642
11064TIP3   OH254682   3.902   3.185  11.057
11064TIP3    H154683   3.969   3.241  11.096
11064TIP3    H254684   3.941   3.097  11.057
11065TIP3   OH254685   6.113   3.127   0.945
11065TIP3    H154686   6.147   3.186   0.878
11065TIP3    H254687   6.129   3.039   0.911
11066TIP3   OH254688   2.311   2.418   0.937
11066TIP3    H154689   2.238   2.388   0.990
11066TIP3    H254690   2.270   2.467   0.865
11067TIP3   OH254691   4.639   2.976   2.494
11067TIP3    H154692   4.662   3.032   2.419
11067TIP3    H254693   4.659   2.887   2.465
11068TIP3   OH254694   3.598   0.712  14.199
11068TIP3    H154695   3.626   0.711  14.291
11068TIP3    H254696   3.650   0.782  14.159
11069TIP3   OH254697   2.890   6.538  11.523
11069TIP3    H154698   2.971   6.525  11.474
11069TIP3    H254699   2.913   6.604  11.588
11070TIP3   OH254700   5.804   3.159   0.259
11070TIP3    H154701   5.846   3.156   0.345
11070TIP3    H254702   5.725   3.107   0.269
11071TIP3   OH254703   4.947   5.638  15.149
11071TIP3    H154704   4.923   5.653  15.057
11071TIP3    H254705   4.991   5.553  15.149
11072TIP3   OH254706   5.319   4.378  14.914
11072TIP3    H154707   5.392   4.427  14.952
11072TIP3    H254708   5.283   4.328  14.988
11073TIP3   OH254709   3.289   3.811   1.235
11073TIP3    H154710   3.276   3.730   1.283
11073TIP3    H254711   3.220   3.811   1.169
11074TIP3   OH254712   4.862   6.077   5.400
11074TIP3    H154713   4.828   6.062   5.488
11074TIP3    H254714   4.858   5.991   5.358
11075TIP3   OH254715   0.226   1.473   1.327
11075TIP3    H154716   0.238   1.392   1.278
11075TIP3    H254717   0.172   1.448   1.402
11076TIP3   OH254718   0.709   2.314   6.362
11076TIP3    H154719   0.749   2.399   6.343
11076TIP3    H254720   0.619   2.323   6.331
11077TIP3   OH254721   2.805   0.095  15.886
11077TIP3    H154722   2.735   0.159  15.874
11077TIP3    H254723   2.886   0.145  15.874
11078TIP3   OH254724   4.129   6.456  11.938
11078TIP3    H154725   4.176   6.383  11.979
11078TIP3    H254726   4.139   6.529  11.999
11079TIP3   OH254727   1.826   6.816   4.367
11079TIP3    H154728   1.820   6.756   4.441
11079TIP3    H254729   1.867   6.764   4.297
11080TIP3   OH254730   3.373   1.666  17.202
11080TIP3    H154731   3.463   1.698  17.207
11080TIP3    H254732   3.378   1.591  17.142
11081TIP3   OH254733   1.838   6.709   0.409
11081TIP3    H154734   1.896   6.703   0.485
11081TIP3    H254735   1.829   6.803   0.393
11082TIP3   OH254736   2.083   3.767  15.391
11082TIP3    H154737   2.111   3.853  15.359
11082TIP3    H254738   2.030   3.787  15.468
11083TIP3   OH254739   4.307   2.426  12.875
11083TIP3    H154740   4.332   2.483  12.803
11083TIP3    H254741   4.331   2.338  12.845
11084TIP3   OH254742   0.172   3.101   4.023
11084TIP3    H154743   0.251   3.053   4.001
11084TIP3    H254744   0.101   3.056   3.977
11085TIP3   OH254745   3.884   3.207   5.753
11085TIP3    H154746   3.817   3.245   5.696
11085TIP3    H254747   3.946   3.278   5.768
11086TIP3   OH254748   3.160   3.435  15.091
11086TIP3    H154749   3.223   3.373  15.053
11086TIP3    H254750   3.210   3.517  15.100
11087TIP3   OH254751   0.994   5.867   0.611
11087TIP3    H154752   0.957   5.930   0.549
11087TIP3    H254753   1.036   5.801   0.556
11088TIP3   OH254754   3.612   0.706  14.457
11088TIP3    H154755   3.574   0.619  14.460
11088TIP3    H254756   3.693   0.699  14.508
11089TIP3   OH254757   3.493   5.084  12.626
11089TIP3    H154758   3.450   5.139  12.561
11089TIP3    H254759   3.465   4.995  12.605
11090TIP3   OH254760   0.455   6.197  12.242
11090TIP3    H154761   0.438   6.158  12.156
11090TIP3    H254762   0.387   6.160  12.299
11091TIP3   OH254763   4.419   3.099   2.627
11091TIP3    H154764   4.444   3.174   2.574
11091TIP3    H254765   4.495   3.042   2.627
11092TIP3   OH254766   6.306   5.338  13.677
11092TIP3    H154767   6.394   5.301  13.669
11092TIP3    H254768   6.317   5.416  13.732
11093TIP3   OH254769   5.647   1.452   6.334
11093TIP3    H154770   5.676   1.536   6.369
11093TIP3    H254771   5.656   1.462   6.239
11094TIP3   OH254772   1.824   1.359  15.869
11094TIP3    H154773   1.836   1.291  15.936
11094TIP3    H254774   1.791   1.312  15.793
11095TIP3   OH254775   0.563   6.722  16.532
11095TIP3    H154776   0.522   6.808  16.523
11095TIP3    H254777   0.563   6.686  16.444
11096TIP3   OH254778   5.233   5.246  14.151
11096TIP3    H154779   5.236   5.173  14.089
11096TIP3    H254780   5.140   5.267  14.160
11097TIP3   OH254781   2.147   6.585  15.912
11097TIP3    H154782   2.217   6.611  15.972
11097TIP3    H254783   2.079   6.651  15.924
11098TIP3   OH254784   3.291   1.541   4.972
11098TIP3    H154785   3.298   1.597   4.895
11098TIP3    H254786   3.355   1.471   4.957
11099TIP3   OH254787   3.394   0.959  15.577
11099TIP3    H154788   3.339   0.890  15.615
11099TIP3    H254789   3.474   0.914  15.550
11100TIP3   OH254790   6.428   1.858  13.419
11100TIP3    H154791   6.344   1.812  13.428
11100TIP3    H254792   6.444   1.896  13.505
11101TIP3   OH254793   5.902   2.370  16.157
11101TIP3    H154794   5.910   2.414  16.072
11101TIP3    H254795   5.955   2.423  16.216
11102TIP3   OH254796   5.359   2.739   5.605
11102TIP3    H154797   5.453   2.752   5.601
11102TIP3    H254798   5.348   2.650   5.639
11103TIP3   OH254799   5.800   2.566  11.743
11103TIP3    H154800   5.727   2.620  11.714
11103TIP3    H254801   5.874   2.627  11.749
11104TIP3   OH254802   1.118   3.753   5.670
11104TIP3    H154803   1.131   3.847   5.661
11104TIP3    H254804   1.082   3.742   5.758
11105TIP3   OH254805   1.565   1.720   4.764
11105TIP3    H154806   1.515   1.650   4.723
11105TIP3    H254807   1.615   1.760   4.692
11106TIP3   OH254808   0.517   0.679   4.534
11106TIP3    H154809   0.575   0.606   4.553
11106TIP3    H254810   0.434   0.656   4.577
11107TIP3   OH254811   5.295   0.825  15.734
11107TIP3    H154812   5.305   0.833  15.639
11107TIP3    H254813   5.200   0.825  15.749
11108TIP3   OH254814   1.868   2.845  14.774
11108TIP3    H154815   1.911   2.802  14.848
11108TIP3    H254816   1.785   2.876  14.809
11109TIP3   OH254817   3.789   5.202  14.829
11109TIP3    H154818   3.871   5.250  14.820
11109TIP3    H254819   3.788   5.141  14.754
11110TIP3   OH254820   0.511   5.220   2.604
11110TIP3    H154821   0.431   5.229   2.655
11110TIP3    H254822   0.542   5.309   2.592
11111TIP3   OH254823   3.682   3.666  15.210
11111TIP3    H154824   3.762   3.626  15.178
11111TIP3    H254825   3.702   3.691  15.300
11112TIP3   OH254826   2.624   6.298   2.593
11112TIP3    H154827   2.529   6.288   2.604
11112TIP3    H254828   2.653   6.338   2.676
11113TIP3   OH254829   3.163   3.874  17.229
11113TIP3    H154830   3.122   3.793  17.197
11113TIP3    H254831   3.092   3.921  17.272
11114TIP3   OH254832   1.493   4.925  11.242
11114TIP3    H154833   1.499   4.939  11.337
11114TIP3    H254834   1.409   4.882  11.230
11115TIP3   OH254835   0.980   4.405   2.238
11115TIP3    H154836   0.976   4.378   2.146
11115TIP3    H254837   1.054   4.355   2.274
11116TIP3   OH254838   5.706   0.703  17.011
11116TIP3    H154839   5.611   0.691  17.012
11116TIP3    H254840   5.733   0.672  16.924
11117TIP3   OH254841   6.751   3.906  11.681
11117TIP3    H154842   6.814   3.963  11.636
11117TIP3    H254843   6.802   3.828  11.702
11118TIP3   OH254844   2.741   3.475  16.191
11118TIP3    H154845   2.684   3.403  16.165
11118TIP3    H254846   2.688   3.528  16.251
11119TIP3   OH254847   2.380   2.081   3.366
11119TIP3    H154848   2.339   2.088   3.452
11119TIP3    H254849   2.473   2.097   3.384
11120TIP3   OH254850   6.275   4.369  13.610
11120TIP3    H154851   6.314   4.427  13.545
11120TIP3    H254852   6.308   4.282  13.587
11121TIP3   OH254853   2.374   2.999  16.395
11121TIP3    H154854   2.316   2.926  16.376
11121TIP3    H254855   2.413   3.021  16.310
11122TIP3   OH254856   2.231   0.674   0.451
11122TIP3    H154857   2.171   0.749   0.455
11122TIP3    H254858   2.225   0.634   0.538
11123TIP3   OH254859   0.085   5.110   3.654
11123TIP3    H154860   0.074   5.138   3.745
11123TIP3    H254861   0.158   5.162   3.621
11124TIP3   OH254862   2.112   0.969  15.618
11124TIP3    H154863   2.031   0.922  15.637
11124TIP3    H254864   2.162   0.965  15.700
11125TIP3   OH254865   0.453   1.995   1.623
11125TIP3    H154866   0.372   2.043   1.611
11125TIP3    H254867   0.521   2.055   1.593
11126TIP3   OH254868   1.635   1.161  14.261
11126TIP3    H154869   1.645   1.104  14.337
11126TIP3    H254870   1.725   1.190  14.242
11127TIP3   OH254871   2.308   1.857   2.869
11127TIP3    H154872   2.332   1.772   2.831
11127TIP3    H254873   2.391   1.891   2.904
11128TIP3   OH254874   6.595   5.001   2.100
11128TIP3    H154875   6.542   5.042   2.167
11128TIP3    H254876   6.618   4.915   2.136
11129TIP3   OH254877   3.300   4.649  14.448
11129TIP3    H154878   3.344   4.574  14.408
11129TIP3    H254879   3.274   4.704  14.375
11130TIP3   OH254880   2.978   1.155   1.473
11130TIP3    H154881   3.036   1.225   1.441
11130TIP3    H254882   2.995   1.082   1.413
11131TIP3   OH254883   4.857   1.237   2.828
11131TIP3    H154884   4.848   1.323   2.870
11131TIP3    H254885   4.851   1.174   2.899
11132TIP3   OH254886   3.630   5.004   0.372
11132TIP3    H154887   3.683   5.001   0.292
11132TIP3    H254888   3.573   5.079   0.359
11133TIP3   OH254889   2.253   6.104   1.905
11133TIP3    H154890   2.197   6.170   1.945
11133TIP3    H254891   2.330   6.100   1.962
11134TIP3   OH254892   5.104   6.285  12.632
11134TIP3    H154893   5.099   6.213  12.695
11134TIP3    H254894   5.016   6.323  12.631
11135TIP3   OH254895   2.685   1.199  16.790
11135TIP3    H154896   2.779   1.196  16.772
11135TIP3    H254897   2.679   1.209  16.885
11136TIP3   OH254898   2.249   0.029  14.113
11136TIP3    H154899   2.305  -0.041  14.145
11136TIP3    H254900   2.284   0.051  14.027
11137TIP3   OH254901   3.265   5.718  17.126
11137TIP3    H154902   3.258   5.695  17.033
11137TIP3    H254903   3.185   5.682  17.165
11138TIP3   OH254904   6.444   5.586  13.486
11138TIP3    H154905   6.459   5.621  13.399
11138TIP3    H254906   6.349   5.578  13.494
11139TIP3   OH254907   5.753   5.268   4.458
11139TIP3    H154908   5.761   5.351   4.506
11139TIP3    H254909   5.824   5.271   4.394
11140TIP3   OH254910   4.061   4.998  12.577
11140TIP3    H154911   3.973   4.988  12.613
11140TIP3    H254912   4.047   5.044  12.494
11141TIP3   OH254913   3.332   0.986  16.426
11141TIP3    H154914   3.294   1.057  16.375
11141TIP3    H254915   3.321   1.014  16.517
11142TIP3   OH254916   2.169   3.730   2.242
11142TIP3    H154917   2.219   3.713   2.162
11142TIP3    H254918   2.202   3.666   2.305
11143TIP3   OH254919   3.426   0.119  10.462
11143TIP3    H154920   3.386   0.186  10.407
11143TIP3    H254921   3.352   0.080  10.509
11144TIP3   OH254922   4.717   3.607   5.409
11144TIP3    H154923   4.805   3.569   5.407
11144TIP3    H254924   4.665   3.544   5.460
11145TIP3   OH254925   2.690   2.456   3.378
11145TIP3    H154926   2.681   2.463   3.474
11145TIP3    H254927   2.684   2.546   3.348
11146TIP3   OH254928   1.349   6.159   1.303
11146TIP3    H154929   1.414   6.147   1.234
11146TIP3    H254930   1.265   6.138   1.261
11147TIP3   OH254931   6.253   2.621   4.080
11147TIP3    H154932   6.276   2.713   4.091
11147TIP3    H254933   6.215   2.595   4.164
11148TIP3   OH254934   3.967   0.247   6.409
11148TIP3    H154935   3.920   0.314   6.458
11148TIP3    H254936   4.053   0.285   6.393
11149TIP3   OH254937   5.071   3.939  16.988
11149TIP3    H154938   4.992   3.897  16.954
11149TIP3    H254939   5.143   3.886  16.953
11150TIP3   OH254940   4.627   3.020  10.423
11150TIP3    H154941   4.687   2.961  10.377
11150TIP3    H254942   4.664   3.029  10.511
11151TIP3   OH254943   0.135   2.590   2.204
11151TIP3    H154944   0.224   2.562   2.184
11151TIP3    H254945   0.107   2.638   2.126
11152TIP3   OH254946   6.361   5.066   5.593
11152TIP3    H154947   6.391   5.018   5.669
11152TIP3    H254948   6.299   5.131   5.628
11153TIP3   OH254949   3.872   2.188   6.353
11153TIP3    H154950   3.937   2.140   6.301
11153TIP3    H254951   3.792   2.186   6.299
11154TIP3   OH254952   3.078   4.011  13.132
11154TIP3    H154953   3.134   4.050  13.065
11154TIP3    H254954   3.127   3.936  13.164
11155TIP3   OH254955   1.301   0.659   3.037
11155TIP3    H154956   1.302   0.643   3.132
11155TIP3    H254957   1.232   0.723   3.024
11156TIP3   OH254958   5.009   6.526  12.466
11156TIP3    H154959   5.040   6.455  12.521
11156TIP3    H254960   5.077   6.593  12.473
11157TIP3   OH254961   4.902   4.556   1.388
11157TIP3    H154962   4.862   4.570   1.474
11157TIP3    H254963   4.828   4.555   1.327
11158TIP3   OH254964   0.314   1.327   5.040
11158TIP3    H154965   0.318   1.232   5.047
11158TIP3    H254966   0.229   1.351   5.077
11159TIP3   OH254967   2.114   2.899  12.147
11159TIP3    H154968   2.058   2.889  12.070
11159TIP3    H254969   2.192   2.942  12.114
11160TIP3   OH254970   4.213   4.534  15.024
11160TIP3    H154971   4.189   4.627  15.020
11160TIP3    H254972   4.254   4.516  14.940
11161TIP3   OH254973   2.724   4.456   5.423
11161TIP3    H154974   2.769   4.417   5.349
11161TIP3    H254975   2.710   4.383   5.483
11162TIP3   OH254976   3.519   1.671   3.604
11162TIP3    H154977   3.613   1.682   3.614
11162TIP3    H254978   3.507   1.651   3.511
11163TIP3   OH254979   3.245   3.188   0.782
11163TIP3    H154980   3.304   3.117   0.757
11163TIP3    H254981   3.301   3.265   0.785
11164TIP3   OH254982   5.352   5.271  14.694
11164TIP3    H154983   5.286   5.340  14.687
11164TIP3    H254984   5.363   5.240  14.604
11165TIP3   OH254985   5.863   3.927   5.463
11165TIP3    H154986   5.793   3.991   5.450
11165TIP3    H254987   5.943   3.980   5.463
11166TIP3   OH254988   6.776   2.986   5.922
11166TIP3    H154989   6.711   2.968   5.854
11166TIP3    H254990   6.730   2.972   6.005
11167TIP3   OH254991   5.669   2.210   0.907
11167TIP3    H154992   5.595   2.215   0.968
11167TIP3    H254993   5.656   2.127   0.861
11168TIP3   OH254994   0.000   3.503  15.085
11168TIP3    H154995   0.088   3.463  15.086
11168TIP3    H254996  -0.025   3.503  14.993
11169TIP3   OH254997   4.048   4.423  17.229
11169TIP3    H154998   3.997   4.502  17.246
11169TIP3    H254999   3.992   4.351  17.259
11170TIP3   OH255000   6.327   0.899  16.340
11170TIP3    H155001   6.379   0.880  16.261
11170TIP3    H255002   6.263   0.828  16.344
11171TIP3   OH255003   5.488   0.136   4.927
11171TIP3    H155004   5.543   0.126   5.005
11171TIP3    H255005   5.409   0.085   4.948
11172TIP3   OH255006   3.908   3.395   2.135
11172TIP3    H155007   3.976   3.433   2.079
11172TIP3    H255008   3.896   3.307   2.101
11173TIP3   OH255009   0.745   5.741  12.064
11173TIP3    H155010   0.693   5.819  12.042
11173TIP3    H255011   0.814   5.739  11.997
11174TIP3   OH255012   6.664   1.609   5.595
11174TIP3    H155013   6.732   1.560   5.642
11174TIP3    H255014   6.684   1.595   5.503
11175TIP3   OH255015   1.134   2.431  12.318
11175TIP3    H155016   1.150   2.482  12.239
11175TIP3    H255017   1.133   2.340  12.288
11176TIP3   OH255018   5.831   6.378  13.555
11176TIP3    H155019   5.913   6.352  13.597
11176TIP3    H255020   5.835   6.339  13.467
11177TIP3   OH255021   1.604   4.518  11.407
11177TIP3    H155022   1.651   4.596  11.377
11177TIP3    H255023   1.534   4.507  11.344
11178TIP3   OH255024   0.315   2.553   0.490
11178TIP3    H155025   0.332   2.623   0.554
11178TIP3    H255026   0.396   2.549   0.438
11179TIP3   OH255027   0.095   6.121  11.920
11179TIP3    H155028   0.031   6.085  11.859
11179TIP3    H255029   0.085   6.216  11.913
11180TIP3   OH255030   5.127   0.701  14.528
11180TIP3    H155031   5.160   0.655  14.451
11180TIP3    H255032   5.183   0.671  14.600
11181TIP3   OH255033   2.023   4.728   4.480
11181TIP3    H155034   1.995   4.705   4.569
11181TIP3    H255035   1.946   4.771   4.442
11182TIP3   OH255036   0.090   1.049   5.228
11182TIP3    H155037   0.075   1.127   5.174
11182TIP3    H255038   0.145   1.079   5.300
11183TIP3   OH255039   6.279   3.299  12.283
11183TIP3    H155040   6.341   3.353  12.332
11183TIP3    H255041   6.315   3.210  12.289
11184TIP3   OH255042   0.440   0.732  13.656
11184TIP3    H155043   0.472   0.815  13.622
11184TIP3    H255044   0.483   0.721  13.740
11185TIP3   OH255045   5.524   3.370  13.034
11185TIP3    H155046   5.472   3.437  13.078
11185TIP3    H255047   5.500   3.378  12.941
11186TIP3   OH255048   0.566   3.328  16.414
11186TIP3    H155049   0.625   3.394  16.377
11186TIP3    H255050   0.617   3.247  16.412
11187TIP3   OH255051   5.439   0.384   6.046
11187TIP3    H155052   5.382   0.411   6.118
11187TIP3    H255053   5.384   0.388   5.968
11188TIP3   OH255054   2.388   5.014   5.078
11188TIP3    H155055   2.352   5.088   5.030
11188TIP3    H255056   2.356   5.026   5.168
11189TIP3   OH255057   2.470   2.087  15.572
11189TIP3    H155058   2.500   2.020  15.511
11189TIP3    H255059   2.407   2.139  15.523
11190TIP3   OH255060   6.785   5.591   3.122
11190TIP3    H155061   6.729   5.529   3.168
11190TIP3    H255062   6.868   5.545   3.111
11191TIP3   OH255063   6.011   1.226  12.011
11191TIP3    H155064   5.997   1.133  12.030
11191TIP3    H255065   5.923   1.261  11.998
11192TIP3   OH255066   4.463   5.665   3.029
11192TIP3    H155067   4.525   5.593   3.040
11192TIP3    H255068   4.413   5.643   2.950
11193TIP3   OH255069   0.094   5.718   3.645
11193TIP3    H155070   0.131   5.755   3.726
11193TIP3    H255071   0.001   5.742   3.648
11194TIP3   OH255072   0.535   1.262   0.748
11194TIP3    H155073   0.443   1.240   0.758
11194TIP3    H255074   0.543   1.350   0.783
11195TIP3   OH255075   2.772   2.199   4.560
11195TIP3    H155076   2.682   2.185   4.591
11195TIP3    H255077   2.811   2.112   4.562
11196TIP3   OH255078   1.529   0.744  10.656
11196TIP3    H155079   1.493   0.656  10.648
11196TIP3    H255080   1.459   0.802  10.626
11197TIP3   OH255081   3.954   2.539   4.267
11197TIP3    H155082   3.932   2.545   4.360
11197TIP3    H255083   3.996   2.623   4.247
11198TIP3   OH255084   4.902   2.130  16.534
11198TIP3    H155085   4.858   2.144  16.618
11198TIP3    H255086   4.923   2.036  16.534
11199TIP3   OH255087   1.489   0.532   4.128
11199TIP3    H155088   1.472   0.523   4.034
11199TIP3    H255089   1.410   0.496   4.169
11200TIP3   OH255090   5.942   0.247   3.399
11200TIP3    H155091   6.017   0.271   3.345
11200TIP3    H255092   5.873   0.225   3.336
11201TIP3   OH255093   0.192   5.326  14.736
11201TIP3    H155094   0.143   5.246  14.718
11201TIP3    H255095   0.124   5.394  14.743
11202TIP3   OH255096   6.558   3.075  11.716
11202TIP3    H155097   6.570   3.141  11.785
11202TIP3    H255098   6.508   3.005  11.759
11203TIP3   OH255099   2.760   4.872  17.143
11203TIP3    H155100   2.701   4.816  17.192
11203TIP3    H255101   2.755   4.957  17.187
11204TIP3   OH255102   5.116   1.324  16.593
11204TIP3    H155103   5.151   1.413  16.585
11204TIP3    H255104   5.158   1.275  16.523
11205TIP3   OH255105   6.063   0.829   6.185
11205TIP3    H155106   5.979   0.865   6.215
11205TIP3    H255107   6.120   0.834   6.262
11206TIP3   OH255108   0.761   1.795  16.532
11206TIP3    H155109   0.807   1.827  16.610
11206TIP3    H255110   0.713   1.718  16.564
11207TIP3   OH255111   2.151   2.757   5.367
11207TIP3    H155112   2.192   2.735   5.283
11207TIP3    H255113   2.091   2.828   5.347
11208TIP3   OH255114   2.877   0.742  13.404
11208TIP3    H155115   2.791   0.752  13.444
11208TIP3    H255116   2.882   0.650  13.378
11209TIP3   OH255117   1.043   6.373   5.436
11209TIP3    H155118   1.008   6.295   5.391
11209TIP3    H255119   1.135   6.352   5.453
11210TIP3   OH255120   3.444   5.187  14.776
11210TIP3    H155121   3.401   5.108  14.811
11210TIP3    H255122   3.519   5.153  14.727
11211TIP3   OH255123   2.584   4.011  10.896
11211TIP3    H155124   2.662   3.978  10.852
11211TIP3    H255125   2.523   3.937  10.896
11212TIP3   OH255126   5.398   1.171  13.412
11212TIP3    H155127   5.391   1.124  13.496
11212TIP3    H255128   5.458   1.243  13.430
11213TIP3   OH255129   2.551   4.808  11.290
11213TIP3    H155130   2.585   4.793  11.202
11213TIP3    H255131   2.482   4.742  11.301
11214TIP3   OH255132   4.823   4.329  15.120
11214TIP3    H155133   4.852   4.315  15.210
11214TIP3    H255134   4.883   4.278  15.066
11215TIP3   OH255135   5.840   6.154   3.162
11215TIP3    H155136   5.891   6.078   3.135
11215TIP3    H255137   5.756   6.119   3.189
11216TIP3   OH255138   0.028   3.472  13.340
11216TIP3    H155139   0.101   3.435  13.390
11216TIP3    H255140  -0.050   3.450  13.392
11217TIP3   OH255141   5.321   4.052   0.628
11217TIP3    H155142   5.304   4.006   0.710
11217TIP3    H255143   5.402   4.014   0.595
11218TIP3   OH255144   0.543   4.097   1.294
11218TIP3    H155145   0.531   4.015   1.247
11218TIP3    H255146   0.572   4.071   1.381
11219TIP3   OH255147   1.673   6.229   2.833
11219TIP3    H155148   1.741   6.267   2.889
11219TIP3    H255149   1.590   6.257   2.873
11220TIP3   OH255150   3.575   6.629   2.035
11220TIP3    H155151   3.580   6.541   1.999
11220TIP3    H255152   3.621   6.684   1.972
11221TIP3   OH255153   5.405   3.858   4.312
11221TIP3    H155154   5.415   3.952   4.327
11221TIP3    H255155   5.436   3.845   4.222
11222TIP3   OH255156   6.550   6.316   1.128
11222TIP3    H155157   6.562   6.402   1.088
11222TIP3    H255158   6.634   6.296   1.169
11223TIP3   OH255159   4.361   5.651  12.444
11223TIP3    H155160   4.365   5.707  12.367
11223TIP3    H255161   4.342   5.710  12.517
11224TIP3   OH255162   0.137   2.817  14.198
11224TIP3    H155163   0.227   2.846  14.208
11224TIP3    H255164   0.124   2.751  14.266
11225TIP3   OH255165   6.491   5.416   2.030
11225TIP3    H155166   6.575   5.413   1.983
11225TIP3    H255167   6.474   5.324   2.053
11226TIP3   OH255168   3.568   2.292   0.014
11226TIP3    H155169   3.650   2.342   0.015
11226TIP3    H255170   3.596   2.202  -0.003
11227TIP3   OH255171   0.180   4.675   2.266
11227TIP3    H155172   0.178   4.723   2.183
11227TIP3    H255173   0.178   4.583   2.240
11228TIP3   OH255174   3.344   6.808  15.897
11228TIP3    H155175   3.255   6.776  15.912
11228TIP3    H255176   3.342   6.900  15.925
11229TIP3   OH255177   6.332   5.084  12.710
11229TIP3    H155178   6.295   4.996  12.701
11229TIP3    H255179   6.259   5.143  12.690
11230TIP3   OH255180   6.758   0.845   6.805
11230TIP3    H155181   6.725   0.783   6.741
11230TIP3    H255182   6.818   0.794   6.860
11231TIP3   OH255183   0.583   2.163  11.829
11231TIP3    H155184   0.573   2.173  11.923
11231TIP3    H255185   0.543   2.242  11.792
11232TIP3   OH255186   3.257   6.625   2.614
11232TIP3    H155187   3.317   6.658   2.547
11232TIP3    H255188   3.309   6.563   2.665
11233TIP3   OH255189   4.488   3.258  12.467
11233TIP3    H155190   4.435   3.183  12.442
11233TIP3    H255191   4.429   3.314  12.517
11234TIP3   OH255192   6.032   6.336  16.623
11234TIP3    H155193   5.982   6.291  16.555
11234TIP3    H255194   5.966   6.386  16.671
11235TIP3   OH255195   4.937   3.580   0.450
11235TIP3    H155196   4.993   3.656   0.466
11235TIP3    H255197   4.925   3.578   0.356
11236TIP3   OH255198   2.410   0.476   3.715
11236TIP3    H155199   2.447   0.395   3.680
11236TIP3    H255200   2.318   0.456   3.730
11237TIP3   OH255201   3.165   2.652   4.916
11237TIP3    H155202   3.122   2.706   4.850
11237TIP3    H255203   3.186   2.712   4.987
11238TIP3   OH255204   3.672   6.484  16.980
11238TIP3    H155205   3.677   6.549  17.050
11238TIP3    H255206   3.579   6.478  16.959
11239TIP3   OH255207   0.910   2.260   2.300
11239TIP3    H155208   0.973   2.322   2.264
11239TIP3    H255209   0.896   2.196   2.230
11240TIP3   OH255210   0.413   6.771   2.919
11240TIP3    H155211   0.457   6.840   2.870
11240TIP3    H255212   0.324   6.804   2.932
11241TIP3   OH255213   0.068   0.743   1.334
11241TIP3    H155214   0.040   0.788   1.415
11241TIP3    H255215   0.097   0.657   1.363
11242TIP3   OH255216   1.281   4.927  16.171
11242TIP3    H155217   1.357   4.959  16.221
11242TIP3    H255218   1.278   4.833  16.190
11243TIP3   OH255219   2.882   6.554  15.366
11243TIP3    H155220   2.877   6.638  15.411
11243TIP3    H255221   2.916   6.493  15.432
11244TIP3   OH255222   2.994   1.579   5.357
11244TIP3    H155223   2.997   1.633   5.436
11244TIP3    H255224   3.027   1.494   5.385
11245TIP3   OH255225   5.301   5.262   1.754
11245TIP3    H155226   5.329   5.353   1.765
11245TIP3    H255227   5.318   5.242   1.662
11246TIP3   OH255228   2.466   4.906  14.871
11246TIP3    H155229   2.390   4.860  14.905
11246TIP3    H255230   2.474   4.984  14.925
11247TIP3   OH255231   6.667   4.609   3.618
11247TIP3    H155232   6.749   4.583   3.575
11247TIP3    H255233   6.672   4.704   3.623
11248TIP3   OH255234   5.972   4.453  12.910
11248TIP3    H155235   6.046   4.471  12.968
11248TIP3    H255236   5.932   4.374  12.947
11249TIP3   OH255237   0.986   4.348  16.810
11249TIP3    H155238   0.980   4.280  16.877
11249TIP3    H255239   1.029   4.422  16.855
11250TIP3   OH255240   4.031   4.360  11.265
11250TIP3    H155241   3.991   4.447  11.272
11250TIP3    H255242   3.991   4.310  11.337
11251TIP3   OH255243   5.511   5.111  16.018
11251TIP3    H155244   5.436   5.054  16.002
11251TIP3    H255245   5.481   5.199  15.995
11252TIP3   OH255246   2.786   6.091   2.492
11252TIP3    H155247   2.826   6.127   2.412
11252TIP3    H255248   2.717   6.153   2.514
11253TIP3   OH255249   1.257   0.817   0.655
11253TIP3    H155250   1.308   0.881   0.604
11253TIP3    H255251   1.322   0.770   0.707
11254TIP3   OH255252   6.657   4.000   4.916
11254TIP3    H155253   6.663   4.027   5.008
11254TIP3    H255254   6.645   3.905   4.920
11255TIP3   OH255255   2.669   2.110   2.242
11255TIP3    H155256   2.635   2.193   2.273
11255TIP3    H255257   2.592   2.053   2.237
11256TIP3   OH255258   0.567   5.427  15.311
11256TIP3    H155259   0.563   5.515  15.273
11256TIP3    H255260   0.528   5.370  15.245
11257TIP3   OH255261   6.136   1.323   1.467
11257TIP3    H155262   6.154   1.415   1.449
11257TIP3    H255263   6.041   1.318   1.477
11258TIP3   OH255264   3.956   5.606  14.311
11258TIP3    H155265   3.959   5.641  14.222
11258TIP3    H255266   3.942   5.512  14.299
11259TIP3   OH255267   4.566   4.731   5.096
11259TIP3    H155268   4.630   4.762   5.032
11259TIP3    H255269   4.590   4.640   5.112
11260TIP3   OH255270   0.326   1.160   5.297
11260TIP3    H155271   0.388   1.142   5.368
11260TIP3    H255272   0.382   1.174   5.220
11261TIP3   OH255273   5.242   1.810   3.099
11261TIP3    H155274   5.160   1.814   3.049
11261TIP3    H255275   5.225   1.746   3.168
11262TIP3   OH255276   1.774   5.895   1.230
11262TIP3    H155277   1.764   5.846   1.149
11262TIP3    H255278   1.771   5.829   1.299
11263TIP3   OH255279   5.719   4.235   6.315
11263TIP3    H155280   5.671   4.160   6.351
11263TIP3    H255281   5.691   4.308   6.370
11264TIP3   OH255282   5.135   5.359  10.976
11264TIP3    H155283   5.102   5.448  10.960
11264TIP3    H255284   5.077   5.302  10.927
11265TIP3   OH255285   6.385   2.242  14.740
11265TIP3    H155286   6.468   2.196  14.748
11265TIP3    H255287   6.380   2.267  14.648
11266TIP3   OH255288   3.510   3.103  13.765
11266TIP3    H155289   3.469   3.101  13.851
11266TIP3    H255290   3.600   3.072  13.781
11267TIP3   OH255291   3.073   0.892   2.308
11267TIP3    H155292   3.097   0.967   2.253
11267TIP3    H255293   3.157   0.861   2.343
11268TIP3   OH255294   0.946   6.350  16.784
11268TIP3    H155295   0.862   6.395  16.799
11268TIP3    H255296   0.924   6.281  16.721
11269TIP3   OH255297   3.123   5.204  10.998
11269TIP3    H155298   3.137   5.294  10.969
11269TIP3    H255299   3.038   5.180  10.961
11270TIP3   OH255300   2.762   2.818  12.873
11270TIP3    H155301   2.719   2.836  12.790
11270TIP3    H255302   2.769   2.722  12.877
11271TIP3   OH255303   1.039   5.063  10.981
11271TIP3    H155304   0.955   5.082  10.942
11271TIP3    H255305   1.103   5.106  10.925
11272TIP3   OH255306   1.973   3.084   2.486
11272TIP3    H155307   1.974   3.148   2.557
11272TIP3    H255308   2.055   3.098   2.440
11273TIP3   OH255309   1.297   6.314   1.649
11273TIP3    H155310   1.210   6.275   1.638
11273TIP3    H255311   1.284   6.407   1.632
11274TIP3   OH255312   1.770   5.244  12.103
11274TIP3    H155313   1.754   5.241  12.009
11274TIP3    H255314   1.762   5.336  12.127
11275TIP3   OH255315   2.586   5.311  11.798
11275TIP3    H155316   2.620   5.394  11.766
11275TIP3    H255317   2.663   5.256  11.809
11276TIP3   OH255318   1.323   0.143  13.898
11276TIP3    H155319   1.238   0.182  13.880
11276TIP3    H255320   1.358   0.119  13.812
11277TIP3   OH255321   6.448   3.163   0.626
11277TIP3    H155322   6.411   3.169   0.538
11277TIP3    H255323   6.498   3.244   0.637
11278TIP3   OH255324   0.015   6.721  17.124
11278TIP3    H155325  -0.056   6.781  17.102
11278TIP3    H255326   0.034   6.674  17.042
11279TIP3   OH255327   2.386   2.785  14.005
11279TIP3    H155328   2.381   2.723  14.078
11279TIP3    H255329   2.380   2.871  14.046
11280TIP3   OH255330   4.295   0.741   1.683
11280TIP3    H155331   4.212   0.696   1.701
11280TIP3    H255332   4.317   0.784   1.765
11281TIP3   OH255333   2.655   2.595   5.271
11281TIP3    H155334   2.742   2.629   5.248
11281TIP3    H255335   2.598   2.672   5.269
11282TIP3   OH255336   1.760   5.180  14.728
11282TIP3    H155337   1.673   5.219  14.714
11282TIP3    H255338   1.784   5.144  14.643
11283TIP3   OH255339   2.839   4.808   6.121
11283TIP3    H155340   2.927   4.794   6.156
11283TIP3    H255341   2.841   4.895   6.082
11284TIP3   OH255342   5.164   5.804   6.022
11284TIP3    H155343   5.168   5.710   6.002
11284TIP3    H255344   5.101   5.839   5.960
11285TIP3   OH255345   1.386   2.117   2.852
11285TIP3    H155346   1.375   2.041   2.795
11285TIP3    H255347   1.385   2.192   2.792
11286TIP3   OH255348   2.375   0.894   3.700
11286TIP3    H155349   2.408   0.913   3.612
11286TIP3    H255350   2.291   0.850   3.684
11287TIP3   OH255351   1.046   1.897  16.782
11287TIP3    H155352   0.967   1.947  16.765
11287TIP3    H255353   1.116   1.963  16.787
11288TIP3   OH255354   1.204   1.892   4.623
11288TIP3    H155355   1.248   1.935   4.697
11288TIP3    H255356   1.169   1.964   4.571
11289TIP3   OH255357   5.106   3.481  13.616
11289TIP3    H155358   5.102   3.548  13.548
11289TIP3    H255359   5.164   3.517  13.683
11290TIP3   OH255360   0.955   5.740  11.883
11290TIP3    H155361   0.895   5.787  11.825
11290TIP3    H255362   1.023   5.803  11.905
11291TIP3   OH255363   2.905   3.418   4.494
11291TIP3    H155364   2.981   3.409   4.551
11291TIP3    H255365   2.877   3.328   4.476
11292TIP3   OH255366   0.205   4.876   3.588
11292TIP3    H155367   0.276   4.843   3.643
11292TIP3    H255368   0.178   4.958   3.631
11293TIP3   OH255369   6.798   1.608  12.642
11293TIP3    H155370   6.861   1.563  12.586
11293TIP3    H255371   6.716   1.559  12.630
11294TIP3   OH255372   4.275   0.423   0.316
11294TIP3    H155373   4.311   0.363   0.381
11294TIP3    H255374   4.312   0.392   0.233
11295TIP3   OH255375   2.057   2.132  15.277
11295TIP3    H155376   2.053   2.081  15.197
11295TIP3    H255377   2.003   2.209  15.260
11296TIP3   OH255378   6.494   0.351   2.645
11296TIP3    H155379   6.565   0.342   2.709
11296TIP3    H255380   6.528   0.412   2.580
11297TIP3   OH255381   3.909   3.597   4.002
11297TIP3    H155382   3.830   3.622   3.955
11297TIP3    H255383   3.973   3.665   3.983
11298TIP3   OH255384   5.059   0.419  11.780
11298TIP3    H155385   5.068   0.507  11.817
11298TIP3    H255386   5.148   0.383  11.781
11299TIP3   OH255387   6.223   2.381   4.323
11299TIP3    H155388   6.172   2.309   4.287
11299TIP3    H255389   6.314   2.358   4.303
11300TIP3   OH255390   3.095   2.591   1.074
11300TIP3    H155391   3.063   2.544   0.997
11300TIP3    H255392   3.111   2.522   1.139
11301TIP3   OH255393   4.096   3.952  15.459
11301TIP3    H155394   4.189   3.963  15.480
11301TIP3    H255395   4.065   4.040  15.439
11302TIP3   OH255396   1.091   4.505   0.973
11302TIP3    H155397   1.054   4.524   0.886
11302TIP3    H255398   1.016   4.510   1.032
11303TIP3   OH255399   3.532   1.668   3.126
11303TIP3    H155400   3.439   1.690   3.134
11303TIP3    H255401   3.577   1.751   3.139
11304TIP3   OH255402   6.478   2.616   1.822
11304TIP3    H155403   6.397   2.616   1.770
11304TIP3    H255404   6.548   2.616   1.757
11305TIP3   OH255405   0.536   6.267  13.558
11305TIP3    H155406   0.496   6.313  13.484
11305TIP3    H255407   0.498   6.178  13.553
11306TIP3   OH255408   4.755   0.226  11.432
11306TIP3    H155409   4.668   0.265  11.429
11306TIP3    H255410   4.814   0.300  11.443
11307TIP3   OH255411   0.103   2.106   3.552
11307TIP3    H155412   0.190   2.147   3.548
11307TIP3    H255413   0.116   2.020   3.513
11308TIP3   OH255414   2.282   4.875   1.639
11308TIP3    H155415   2.254   4.788   1.666
11308TIP3    H255416   2.334   4.860   1.560
11309TIP3   OH255417   4.015   3.260  13.119
11309TIP3    H155418   4.054   3.284  13.035
11309TIP3    H255419   4.087   3.270  13.182
11310TIP3   OH255420   1.296   2.819  10.649
11310TIP3    H155421   1.285   2.887  10.583
11310TIP3    H255422   1.340   2.747  10.604
11311TIP3   OH255423   5.884   0.268   0.238
11311TIP3    H155424   5.862   0.197   0.299
11311TIP3    H255425   5.946   0.322   0.287
11312TIP3   OH255426   2.399   0.106   2.753
11312TIP3    H155427   2.451   0.056   2.689
11312TIP3    H255428   2.428   0.196   2.742
11313TIP3   OH255429   4.313   0.824   3.375
11313TIP3    H155430   4.240   0.762   3.371
11313TIP3    H255431   4.288   0.887   3.442
11314TIP3   OH255432   3.467   4.679  13.261
11314TIP3    H155433   3.389   4.628  13.242
11314TIP3    H255434   3.449   4.721  13.345
11315TIP3   OH255435   1.714   6.276   4.020
11315TIP3    H155436   1.635   6.331   4.022
11315TIP3    H255437   1.756   6.291   4.105
11316TIP3   OH255438   6.484   6.486   6.353
11316TIP3    H155439   6.398   6.488   6.394
11316TIP3    H255440   6.540   6.537   6.411
11317TIP3   OH255441   4.431   2.828  10.310
11317TIP3    H155442   4.436   2.878  10.229
11317TIP3    H255443   4.480   2.881  10.373
11318TIP3   OH255444   4.194   5.365   1.251
11318TIP3    H155445   4.113   5.315   1.262
11318TIP3    H255446   4.235   5.362   1.338
11319TIP3   OH255447   5.189   0.874  14.871
11319TIP3    H155448   5.229   0.853  14.787
11319TIP3    H255449   5.095   0.863  14.856
11320TIP3   OH255450   6.798   2.298  11.770
11320TIP3    H155451   6.767   2.294  11.680
11320TIP3    H255452   6.893   2.283  11.763
11321TIP3   OH255453   3.998   4.659   0.912
11321TIP3    H155454   4.041   4.736   0.949
11321TIP3    H255455   3.976   4.685   0.822
11322TIP3   OH255456   0.413   4.943   0.214
11322TIP3    H155457   0.381   4.946   0.124
11322TIP3    H255458   0.479   4.873   0.214
11323TIP3   OH255459   0.977   0.214  15.973
11323TIP3    H155460   1.058   0.170  16.000
11323TIP3    H255461   0.950   0.168  15.894
11324TIP3   OH255462   1.411   4.332   3.320
11324TIP3    H155463   1.390   4.341   3.413
11324TIP3    H255464   1.421   4.422   3.289
11325TIP3   OH255465   4.283   3.951   5.267
11325TIP3    H155466   4.209   3.897   5.294
11325TIP3    H255467   4.359   3.911   5.311
11326TIP3   OH255468   6.429   0.370  11.914
11326TIP3    H155469   6.470   0.455  11.928
11326TIP3    H255470   6.502   0.308  11.910
11327TIP3   OH255471   1.959   4.052  12.640
11327TIP3    H155472   1.972   3.974  12.586
11327TIP3    H255473   2.040   4.062  12.688
11328TIP3   OH255474   5.026   0.341  17.287
11328TIP3    H155475   5.021   0.248  17.265
11328TIP3    H255476   5.054   0.342  17.379
11329TIP3   OH255477   6.424   5.559  15.852
11329TIP3    H155478   6.517   5.539  15.841
11329TIP3    H255479   6.416   5.580  15.945
11330TIP3   OH255480   4.877   5.343  15.807
11330TIP3    H155481   4.786   5.339  15.836
11330TIP3    H255482   4.910   5.254  15.820
11331TIP3   OH255483   4.632   3.729  16.875
11331TIP3    H155484   4.616   3.715  16.969
11331TIP3    H255485   4.549   3.709  16.833
11332TIP3   OH255486   1.035   5.655   2.756
11332TIP3    H155487   1.047   5.660   2.661
11332TIP3    H255488   1.098   5.590   2.785
11333TIP3   OH255489   6.673   6.803   3.219
11333TIP3    H155490   6.584   6.804   3.253
11333TIP3    H255491   6.663   6.790   3.125
11334TIP3   OH255492   2.893   1.301   5.473
11334TIP3    H155493   2.987   1.306   5.489
11334TIP3    H255494   2.864   1.225   5.523
11335TIP3   OH255495   5.095   2.958  14.574
11335TIP3    H155496   5.075   3.001  14.657
11335TIP3    H255497   5.108   2.866  14.597
11336TIP3   OH255498   5.160   5.472  14.659
11336TIP3    H155499   5.083   5.479  14.603
11336TIP3    H255500   5.198   5.560  14.656
11337TIP3   OH255501   4.986   3.991  10.972
11337TIP3    H155502   4.949   4.075  10.945
11337TIP3    H255503   5.065   4.014  11.022
11338TIP3   OH255504   3.583   4.415   0.073
11338TIP3    H155505   3.519   4.481   0.045
11338TIP3    H255506   3.529   4.341   0.103
11339TIP3   OH255507   2.042   2.317   0.453
11339TIP3    H155508   2.033   2.411   0.435
11339TIP3    H255509   2.123   2.310   0.502
11340TIP3   OH255510   1.122   4.138  11.309
11340TIP3    H155511   1.107   4.058  11.259
11340TIP3    H255512   1.185   4.114  11.376
11341TIP3   OH255513   2.897   0.947   5.316
11341TIP3    H155514   2.805   0.967   5.331
11341TIP3    H255515   2.902   0.927   5.222
11342TIP3   OH255516   6.658   1.099  14.013
11342TIP3    H155517   6.669   1.099  14.108
11342TIP3    H255518   6.591   1.166  13.997
11343TIP3   OH255519   0.380   5.244  13.171
11343TIP3    H155520   0.323   5.177  13.133
11343TIP3    H255521   0.444   5.194  13.223
11344TIP3   OH255522   4.025   5.378  11.584
11344TIP3    H155523   3.983   5.396  11.500
11344TIP3    H255524   4.065   5.460  11.610
11345TIP3   OH255525   5.777   0.739  13.455
11345TIP3    H155526   5.817   0.769  13.373
11345TIP3    H255527   5.731   0.658  13.431
11346TIP3   OH255528   0.511   3.764  13.658
11346TIP3    H155529   0.580   3.797  13.601
11346TIP3    H255530   0.446   3.834  13.660
11347TIP3   OH255531   6.339   5.747   2.009
11347TIP3    H155532   6.247   5.746   1.980
11347TIP3    H255533   6.363   5.839   2.010
11348TIP3   OH255534   2.178   4.451  13.854
11348TIP3    H155535   2.205   4.359  13.849
11348TIP3    H255536   2.253   4.495  13.894
11349TIP3   OH255537   2.009   1.803  14.434
11349TIP3    H155538   1.917   1.802  14.457
11349TIP3    H255539   2.024   1.890  14.397
11350TIP3   OH255540   1.878   6.406  13.923
11350TIP3    H155541   1.867   6.445  14.010
11350TIP3    H255542   1.790   6.376  13.899
11351TIP3   OH255543   1.046   1.171  16.103
11351TIP3    H155544   0.982   1.155  16.033
11351TIP3    H255545   1.040   1.093  16.159
11352TIP3   OH255546   4.845   0.050  13.889
11352TIP3    H155547   4.862   0.091  13.805
11352TIP3    H255548   4.767   0.095  13.922
11353TIP3   OH255549   3.765   5.690  11.501
11353TIP3    H155550   3.817   5.699  11.581
11353TIP3    H255551   3.826   5.709  11.430
11354TIP3   OH255552   6.023   6.298   1.815
11354TIP3    H155553   6.004   6.293   1.721
11354TIP3    H255554   6.108   6.256   1.825
11355TIP3   OH255555   1.564   5.710   1.854
11355TIP3    H155556   1.568   5.641   1.788
11355TIP3    H255557   1.494   5.767   1.825
11356TIP3   OH255558   4.873   6.212  13.587
11356TIP3    H155559   4.948   6.233  13.530
11356TIP3    H255560   4.901   6.136  13.636
11357TIP3   OH255561   4.971   1.441  13.981
11357TIP3    H155562   5.049   1.395  14.013
11357TIP3    H255563   5.001   1.529  13.961
11358TIP3   OH255564   4.369   5.071   2.477
11358TIP3    H155565   4.452   5.025   2.487
11358TIP3    H255566   4.358   5.119   2.559
11359TIP3   OH255567   0.285   3.032   0.959
11359TIP3    H155568   0.303   3.105   0.900
11359TIP3    H255569   0.355   3.035   1.023
11360TIP3   OH255570   2.831   3.207   3.823
11360TIP3    H155571   2.856   3.150   3.750
11360TIP3    H255572   2.755   3.164   3.862
11361TIP3   OH255573   0.817   5.926  15.956
11361TIP3    H155574   0.777   5.870  15.889
11361TIP3    H255575   0.770   6.009  15.950
11362TIP3   OH255576   3.672   3.837  12.925
11362TIP3    H155577   3.693   3.794  13.009
11362TIP3    H255578   3.593   3.794  12.895
11363TIP3   OH255579   4.331   5.822   4.636
11363TIP3    H155580   4.353   5.729   4.646
11363TIP3    H255581   4.380   5.850   4.559
11364TIP3   OH255582   2.140   0.385   3.703
11364TIP3    H155583   2.056   0.430   3.695
11364TIP3    H255584   2.144   0.328   3.626
11365TIP3   OH255585   1.093   1.484  12.718
11365TIP3    H155586   1.188   1.470  12.708
11365TIP3    H255587   1.083   1.579  12.711
11366TIP3   OH255588   1.660   3.812  14.706
11366TIP3    H155589   1.628   3.766  14.629
11366TIP3    H255590   1.615   3.896  14.705
11367TIP3   OH255591   5.814   3.893   2.903
11367TIP3    H155592   5.768   3.809   2.907
11367TIP3    H255593   5.821   3.912   2.810
11368TIP3   OH255594   3.371   1.476  14.712
11368TIP3    H155595   3.427   1.516  14.779
11368TIP3    H255596   3.313   1.418  14.762
11369TIP3   OH255597   2.226   4.606  10.754
11369TIP3    H155598   2.147   4.616  10.808
11369TIP3    H255599   2.275   4.686  10.770
11370TIP3   OH255600   4.069   4.528   3.563
11370TIP3    H155601   4.026   4.444   3.574
11370TIP3    H255602   4.009   4.578   3.507
11371TIP3   OH255603   4.734   0.591   2.234
11371TIP3    H155604   4.806   0.624   2.288
11371TIP3    H255605   4.726   0.655   2.163
11372TIP3   OH255606   2.705   1.582  10.915
11372TIP3    H155607   2.714   1.564  11.009
11372TIP3    H255608   2.614   1.609  10.905
11373TIP3   OH255609   2.027   0.854   2.924
11373TIP3    H155610   2.105   0.904   2.950
11373TIP3    H255611   2.048   0.822   2.836
11374TIP3   OH255612   0.684   2.954  13.458
11374TIP3    H155613   0.645   2.908  13.533
11374TIP3    H255614   0.771   2.981  13.489
11375TIP3   OH255615   5.544   2.138  16.886
11375TIP3    H155616   5.519   2.227  16.860
11375TIP3    H255617   5.570   2.146  16.977
11376TIP3   OH255618   2.459   0.684  14.856
11376TIP3    H155619   2.380   0.648  14.817
11376TIP3    H255620   2.497   0.740  14.788
11377TIP3   OH255621   0.966   6.178  16.017
11377TIP3    H155622   0.882   6.174  15.972
11377TIP3    H255623   0.951   6.235  16.093
11378TIP3   OH255624   6.361   5.225   5.342
11378TIP3    H155625   6.294   5.239   5.276
11378TIP3    H255626   6.312   5.202   5.421
11379TIP3   OH255627   1.428   0.326  12.344
11379TIP3    H155628   1.468   0.393  12.288
11379TIP3    H255629   1.495   0.258  12.351
11380TIP3   OH255630   3.504   4.072   4.793
11380TIP3    H155631   3.527   4.164   4.784
11380TIP3    H255632   3.557   4.041   4.867
11381TIP3   OH255633   4.513   6.293  11.570
11381TIP3    H155634   4.563   6.374  11.575
11381TIP3    H255635   4.556   6.234  11.632
11382TIP3   OH255636   4.149   4.547   1.130
11382TIP3    H155637   4.087   4.578   1.064
11382TIP3    H255638   4.175   4.459   1.099
11383TIP3   OH255639   2.434   2.063   1.528
11383TIP3    H155640   2.466   1.979   1.559
11383TIP3    H255641   2.341   2.064   1.551
11384TIP3   OH255642   5.010   1.312   4.708
11384TIP3    H155643   4.993   1.218   4.717
11384TIP3    H255644   4.958   1.339   4.632
11385TIP3   OH255645   2.992   3.436   0.912
11385TIP3    H155646   2.946   3.354   0.894
11385TIP3    H255647   3.017   3.430   1.005
11386TIP3   OH255648   1.860   1.739   1.634
11386TIP3    H155649   1.919   1.801   1.677
11386TIP3    H255650   1.875   1.753   1.540
11387TIP3   OH255651   4.301   4.645   3.473
11387TIP3    H155652   4.244   4.583   3.518
11387TIP3    H255653   4.264   4.652   3.385
11388TIP3   OH255654   6.368   1.929  11.923
11388TIP3    H155655   6.365   1.978  12.005
11388TIP3    H255656   6.374   1.837  11.950
11389TIP3   OH255657   4.118   3.973   4.312
11389TIP3    H155658   4.136   3.891   4.267
11389TIP3    H255659   4.186   3.980   4.379
11390TIP3   OH255660   4.122   1.261  12.933
11390TIP3    H155661   4.177   1.334  12.961
11390TIP3    H255662   4.037   1.301  12.913
11391TIP3   OH255663   4.179   0.635  14.037
11391TIP3    H155664   4.217   0.581  14.106
11391TIP3    H255665   4.086   0.640  14.060
11392TIP3   OH255666   0.754   1.831   4.452
11392TIP3    H155667   0.849   1.818   4.453
11392TIP3    H255668   0.718   1.745   4.430
11393TIP3   OH255669   5.213   0.459   4.323
11393TIP3    H155670   5.190   0.443   4.232
11393TIP3    H255671   5.153   0.529   4.351
11394TIP3   OH255672   0.877   1.340   2.793
11394TIP3    H155673   0.837   1.377   2.872
11394TIP3    H255674   0.894   1.415   2.737
11395TIP3   OH255675   3.714   5.812  15.806
11395TIP3    H155676   3.648   5.747  15.783
11395TIP3    H255677   3.782   5.762  15.852
11396TIP3   OH255678   2.630   1.873   2.004
11396TIP3    H155679   2.562   1.853   1.939
11396TIP3    H255680   2.675   1.950   1.968
11397TIP3   OH255681   6.154   0.743  15.524
11397TIP3    H155682   6.229   0.683  15.521
11397TIP3    H255683   6.153   0.784  15.438
11398TIP3   OH255684   1.918   5.886  15.307
11398TIP3    H155685   1.827   5.912  15.312
11398TIP3    H255686   1.916   5.790  15.302
11399TIP3   OH255687   3.890   1.816   0.062
11399TIP3    H155688   3.935   1.759  -0.000
11399TIP3    H255689   3.833   1.870   0.007
11400TIP3   OH255690   6.273   2.832  17.245
11400TIP3    H155691   6.208   2.782  17.295
11400TIP3    H255692   6.280   2.785  17.162
11401TIP3   OH255693   5.420   6.446  10.676
11401TIP3    H155694   5.454   6.475  10.591
11401TIP3    H255695   5.436   6.520  10.735
11402TIP3   OH255696   5.429   5.733   0.650
11402TIP3    H155697   5.515   5.759   0.683
11402TIP3    H255698   5.375   5.721   0.728
11403TIP3   OH255699   5.397   0.383   6.668
11403TIP3    H155700   5.430   0.425   6.588
11403TIP3    H255701   5.424   0.442   6.738
11404TIP3   OH255702   2.861   5.390   1.983
11404TIP3    H155703   2.908   5.342   1.916
11404TIP3    H255704   2.926   5.407   2.051
11405TIP3   OH255705   3.662   0.142  13.832
11405TIP3    H155706   3.673   0.237  13.836
11405TIP3    H255707   3.573   0.130  13.799
11406TIP3   OH255708   6.237   0.625   1.997
11406TIP3    H155709   6.279   0.685   2.059
11406TIP3    H255710   6.199   0.682   1.930
11407TIP3   OH255711   2.561   4.654  14.084
11407TIP3    H155712   2.517   4.679  14.165
11407TIP3    H255713   2.501   4.680  14.014
11408TIP3   OH255714   3.049   3.782   0.652
11408TIP3    H155715   3.114   3.728   0.698
11408TIP3    H255716   2.978   3.721   0.632
11409TIP3   OH255717   0.865   1.206  11.603
11409TIP3    H155718   0.854   1.272  11.535
11409TIP3    H255719   0.955   1.174  11.591
11410TIP3   OH255720   6.003   2.202  13.410
11410TIP3    H155721   6.015   2.182  13.503
11410TIP3    H255722   5.984   2.117  13.370
11411TIP3   OH255723   4.221   6.247  13.293
11411TIP3    H155724   4.282   6.321  13.286
11411TIP3    H255725   4.239   6.193  13.216
11412TIP3   OH255726   6.475   5.204  13.421
11412TIP3    H155727   6.512   5.252  13.347
11412TIP3    H255728   6.494   5.260  13.497
11413TIP3   OH255729   3.891   0.148  13.642
11413TIP3    H155730   3.833   0.159  13.717
11413TIP3    H255731   3.833   0.143  13.566
11414TIP3   OH255732   4.617   5.299  15.891
11414TIP3    H155733   4.549   5.232  15.899
11414TIP3    H255734   4.575   5.371  15.844
11415TIP3   OH255735   2.560   6.021   4.177
11415TIP3    H155736   2.550   6.116   4.182
11415TIP3    H255737   2.611   5.998   4.255
11416TIP3   OH255738   0.273   1.543   3.916
11416TIP3    H155739   0.270   1.638   3.930
11416TIP3    H255740   0.323   1.509   3.990
11417TIP3   OH255741   6.572   4.588  13.278
11417TIP3    H155742   6.546   4.503  13.242
11417TIP3    H255743   6.667   4.590  13.269
11418TIP3   OH255744   3.394   5.696  15.996
11418TIP3    H155745   3.428   5.752  15.926
11418TIP3    H255746   3.470   5.646  16.026
11419TIP3   OH255747   3.653   5.877  10.957
11419TIP3    H155748   3.605   5.928  11.023
11419TIP3    H255749   3.586   5.826  10.912
11420TIP3   OH255750   6.787   1.418  15.778
11420TIP3    H155751   6.804   1.341  15.833
11420TIP3    H255752   6.874   1.450  15.754
11421TIP3   OH255753   4.155   1.335  17.216
11421TIP3    H155754   4.220   1.330  17.286
11421TIP3    H255755   4.149   1.245  17.182
11422TIP3   OH255756   0.479   0.974   6.002
11422TIP3    H155757   0.533   0.903   6.035
11422TIP3    H255758   0.389   0.942   6.010
11423TIP3   OH255759   2.268   3.530  15.712
11423TIP3    H155760   2.184   3.577  15.718
11423TIP3    H255761   2.304   3.533  15.801
11424TIP3   OH255762   2.966   4.162  11.852
11424TIP3    H155763   3.051   4.124  11.827
11424TIP3    H255764   2.905   4.128  11.787
11425TIP3   OH255765   0.454   5.984  13.541
11425TIP3    H155766   0.452   5.888  13.538
11425TIP3    H255767   0.419   6.011  13.456
11426TIP3   OH255768   4.512   4.424  11.884
11426TIP3    H155769   4.500   4.332  11.861
11426TIP3    H255770   4.602   4.443  11.860
11427TIP3   OH255771   0.706   3.695   1.311
11427TIP3    H155772   0.699   3.630   1.242
11427TIP3    H255773   0.695   3.779   1.267
11428TIP3   OH255774   5.499   3.269   5.250
11428TIP3    H155775   5.524   3.355   5.284
11428TIP3    H255776   5.403   3.270   5.252
11429TIP3   OH255777   4.409   5.133  15.746
11429TIP3    H155778   4.346   5.195  15.711
11429TIP3    H255779   4.427   5.072  15.674
11430TIP3   OH255780   2.203   2.280   3.957
11430TIP3    H155781   2.269   2.330   4.004
11430TIP3    H255782   2.172   2.340   3.889
11431TIP3   OH255783   0.764   4.749  15.510
11431TIP3    H155784   0.782   4.841  15.489
11431TIP3    H255785   0.825   4.728  15.580
11432TIP3   OH255786   4.131   2.190   3.822
11432TIP3    H155787   4.065   2.147   3.768
11432TIP3    H255788   4.095   2.278   3.838
11433TIP3   OH255789   3.784   3.164   0.581
11433TIP3    H155790   3.770   3.223   0.656
11433TIP3    H255791   3.877   3.171   0.563
11434TIP3   OH255792   6.029   4.464   3.109
11434TIP3    H155793   6.086   4.416   3.049
11434TIP3    H255794   5.940   4.436   3.086
11435TIP3   OH255795   0.989   3.560  14.712
11435TIP3    H155796   1.040   3.625  14.664
11435TIP3    H255797   0.931   3.612  14.768
11436TIP3   OH255798   1.224   4.344   2.632
11436TIP3    H155799   1.204   4.432   2.663
11436TIP3    H255800   1.316   4.331   2.656
11437TIP3   OH255801   5.634   5.342  17.177
11437TIP3    H155802   5.624   5.282  17.103
11437TIP3    H255803   5.664   5.287  17.249
11438TIP3   OH255804   3.490   0.588   2.023
11438TIP3    H155805   3.471   0.676   2.055
11438TIP3    H255806   3.537   0.546   2.095
11439TIP3   OH255807   1.281   0.177  11.802
11439TIP3    H155808   1.272   0.089  11.766
11439TIP3    H255809   1.372   0.182  11.830
11440TIP3   OH255810   3.147   2.283   3.754
11440TIP3    H155811   3.214   2.253   3.692
11440TIP3    H255812   3.197   2.329   3.822
11441TIP3   OH255813   3.301   2.641  16.847
11441TIP3    H155814   3.239   2.578  16.812
11441TIP3    H255815   3.259   2.726  16.836
11442TIP3   OH255816   0.445   0.918  16.611
11442TIP3    H155817   0.428   0.829  16.642
11442TIP3    H255818   0.540   0.928  16.621
11443TIP3   OH255819   5.607   1.471  12.154
11443TIP3    H155820   5.522   1.470  12.199
11443TIP3    H255821   5.586   1.496  12.064
11444TIP3   OH255822   2.655   5.495   3.849
11444TIP3    H155823   2.744   5.523   3.866
11444TIP3    H255824   2.631   5.538   3.766
11445TIP3   OH255825   3.238   6.154  11.858
11445TIP3    H155826   3.273   6.187  11.940
11445TIP3    H255827   3.304   6.178  11.792
11446TIP3   OH255828   2.134   6.081   2.229
11446TIP3    H155829   2.213   6.135   2.222
11446TIP3    H255830   2.082   6.123   2.298
11447TIP3   OH255831   1.477   5.789  14.619
11447TIP3    H155832   1.448   5.857  14.557
11447TIP3    H255833   1.443   5.817  14.703
11448TIP3   OH255834   3.267   0.600   1.580
11448TIP3    H155835   3.248   0.508   1.563
11448TIP3    H255836   3.340   0.599   1.642
11449TIP3   OH255837   1.190   2.700  11.437
11449TIP3    H155838   1.149   2.720  11.352
11449TIP3    H255839   1.276   2.742  11.432
11450TIP3   OH255840   1.189   1.761   0.946
11450TIP3    H155841   1.246   1.687   0.968
11450TIP3    H255842   1.210   1.828   1.011
11451TIP3   OH255843   3.192   1.760  12.705
11451TIP3    H155844   3.108   1.804  12.696
11451TIP3    H255845   3.174   1.684  12.761
11452TIP3   OH255846   2.183   3.789  15.852
11452TIP3    H155847   2.148   3.807  15.940
11452TIP3    H255848   2.268   3.832  15.851
11453TIP3   OH255849   1.535   4.062   5.569
11453TIP3    H155850   1.492   4.146   5.583
11453TIP3    H255851   1.623   4.085   5.539
11454TIP3   OH255852   1.014   4.818   1.006
11454TIP3    H155853   1.108   4.827   0.986
11454TIP3    H255854   1.013   4.778   1.093
11455TIP3   OH255855   3.165   5.433  14.846
11455TIP3    H155856   3.244   5.421  14.792
11455TIP3    H255857   3.111   5.493  14.795
11456TIP3   OH255858   5.512   0.267   4.665
11456TIP3    H155859   5.489   0.252   4.757
11456TIP3    H255860   5.607   0.256   4.661
11457TIP3   OH255861   6.659   4.524  15.408
11457TIP3    H155862   6.647   4.463  15.335
11457TIP3    H255863   6.660   4.469  15.486
11458TIP3   OH255864   5.842   6.673   1.261
11458TIP3    H155865   5.896   6.750   1.277
11458TIP3    H255866   5.826   6.673   1.167
11459TIP3   OH255867   6.368   0.106  15.924
11459TIP3    H155868   6.369   0.187  15.974
11459TIP3    H255869   6.285   0.064  15.948
11460TIP3   OH255870   2.765   2.890   0.287
11460TIP3    H155871   2.808   2.974   0.268
11460TIP3    H255872   2.759   2.847   0.202
11461TIP3   OH255873   2.294   2.161   1.781
11461TIP3    H155874   2.299   2.066   1.793
11461TIP3    H255875   2.384   2.187   1.763
11462TIP3   OH255876   4.042   6.689  14.299
11462TIP3    H155877   4.017   6.773  14.338
11462TIP3    H255878   4.069   6.635  14.373
11463TIP3   OH255879   5.361   5.829   1.432
11463TIP3    H155880   5.302   5.875   1.373
11463TIP3    H255881   5.438   5.887   1.439
11464TIP3   OH255882   4.158   5.037   1.761
11464TIP3    H155883   4.238   5.055   1.811
11464TIP3    H255884   4.099   4.996   1.825
11465TIP3   OH255885   3.097   0.611   5.660
11465TIP3    H155886   3.010   0.589   5.692
11465TIP3    H255887   3.090   0.604   5.565
11466TIP3   OH255888   4.216   1.860  12.091
11466TIP3    H155889   4.129   1.861  12.049
11466TIP3    H255890   4.266   1.796  12.040
11467TIP3   OH255891   5.963   6.386   5.839
11467TIP3    H155892   6.056   6.363   5.847
11467TIP3    H255893   5.937   6.347   5.755
11468TIP3   OH255894   1.319   0.537   1.614
11468TIP3    H155895   1.400   0.486   1.604
11468TIP3    H255896   1.341   0.624   1.581
11469TIP3   OH255897   6.773   1.346  14.646
11469TIP3    H155898   6.849   1.396  14.675
11469TIP3    H255899   6.718   1.339  14.725
11470TIP3   OH255900   6.539   1.625   6.317
11470TIP3    H155901   6.585   1.622   6.401
11470TIP3    H255902   6.486   1.545   6.316
11471TIP3   OH255903   1.788   5.721  14.116
11471TIP3    H155904   1.707   5.672  14.127
11471TIP3    H255905   1.851   5.658  14.081
11472TIP3   OH255906   3.248   5.966  16.380
11472TIP3    H155907   3.262   5.943  16.289
11472TIP3    H255908   3.312   5.912  16.428
11473TIP3   OH255909   6.262   1.276  11.184
11473TIP3    H155910   6.225   1.341  11.245
11473TIP3    H255911   6.353   1.265  11.213
11474TIP3   OH255912   1.610   0.872  14.654
11474TIP3    H155913   1.602   0.788  14.609
11474TIP3    H255914   1.654   0.851  14.736
11475TIP3   OH255915   5.859   4.786   1.845
11475TIP3    H155916   5.936   4.759   1.896
11475TIP3    H255917   5.885   4.774   1.754
11476TIP3   OH255918   2.860   2.459  13.197
11476TIP3    H155919   2.869   2.533  13.258
11476TIP3    H255920   2.796   2.490  13.133
11477TIP3   OH255921   0.628   2.844   0.558
11477TIP3    H155922   0.573   2.775   0.521
11477TIP3    H255923   0.704   2.847   0.500
11478TIP3   OH255924   6.567   0.452   5.932
11478TIP3    H155925   6.536   0.490   5.850
11478TIP3    H255926   6.568   0.358   5.916
11479TIP3   OH255927   2.781   1.609  12.053
11479TIP3    H155928   2.848   1.553  12.013
11479TIP3    H255929   2.771   1.576  12.142
11480TIP3   OH255930   1.891   4.872   3.485
11480TIP3    H155931   1.855   4.840   3.567
11480TIP3    H255932   1.929   4.957   3.506
11481TIP3   OH255933   3.906   5.672  12.666
11481TIP3    H155934   3.989   5.654  12.709
11481TIP3    H255935   3.865   5.587  12.656
11482TIP3   OH255936   6.196   3.143   3.990
11482TIP3    H155937   6.253   3.218   3.973
11482TIP3    H255938   6.156   3.124   3.905
11483TIP3   OH255939   2.035   2.073   6.358
11483TIP3    H155940   2.107   2.105   6.412
11483TIP3    H255941   1.976   2.148   6.351
11484TIP3   OH255942   0.822   1.624  15.526
11484TIP3    H155943   0.799   1.548  15.579
11484TIP3    H255944   0.847   1.692  15.589
11485TIP3   OH255945   4.660   4.799  13.482
11485TIP3    H155946   4.610   4.730  13.526
11485TIP3    H255947   4.661   4.872  13.544
11486TIP3   OH255948   6.010   1.570  13.102
11486TIP3    H155949   6.027   1.520  13.023
11486TIP3    H255950   6.087   1.627  13.112
11487TIP3   OH255951   0.161   1.098   2.783
11487TIP3    H155952   0.157   1.192   2.796
11487TIP3    H255953   0.229   1.086   2.716
11488TIP3   OH255954   0.464   5.018  12.862
11488TIP3    H155955   0.372   4.994  12.853
11488TIP3    H255956   0.500   4.951  12.920
11489TIP3   OH255957   3.241   5.417  17.062
11489TIP3    H155958   3.294   5.339  17.046
11489TIP3    H255959   3.248   5.433  17.156
11490TIP3   OH255960   1.538   5.573  14.137
11490TIP3    H155961   1.513   5.504  14.076
11490TIP3    H255962   1.460   5.628  14.145
11491TIP3   OH255963   1.642   0.273   4.395
11491TIP3    H155964   1.606   0.184   4.390
11491TIP3    H255965   1.568   0.330   4.376
11492TIP3   OH255966   0.511   5.501  17.264
11492TIP3    H155967   0.515   5.416  17.308
11492TIP3    H255968   0.418   5.512  17.242
11493TIP3   OH255969   0.300   0.020  13.629
11493TIP3    H155970   0.323  -0.072  13.617
11493TIP3    H255971   0.291   0.030  13.724
11494TIP3   OH255972   2.664   2.260  14.172
11494TIP3    H155973   2.707   2.176  14.155
11494TIP3    H255974   2.614   2.279  14.093
11495TIP3   OH255975   0.314   4.244   5.676
11495TIP3    H155976   0.219   4.238   5.681
11495TIP3    H255977   0.337   4.198   5.595
11496TIP3   OH255978   4.299   6.378   0.767
11496TIP3    H155979   4.238   6.369   0.840
11496TIP3    H255980   4.280   6.464   0.730
11497TIP3   OH255981   2.643   3.345  12.721
11497TIP3    H155982   2.633   3.409  12.791
11497TIP3    H255983   2.695   3.390  12.654
11498TIP3   OH255984   0.840   0.550  12.898
11498TIP3    H155985   0.862   0.592  12.815
11498TIP3    H255986   0.878   0.462  12.890
11499TIP3   OH255987   3.287   6.448  14.215
11499TIP3    H155988   3.371   6.449  14.169
11499TIP3    H255989   3.259   6.356  14.211
11500TIP3   OH255990   1.143   5.589  15.362
11500TIP3    H155991   1.189   5.509  15.389
11500TIP3    H255992   1.130   5.578  15.268
11501TIP3   OH255993   0.213   3.627  17.202
11501TIP3    H155994   0.124   3.593  17.200
11501TIP3    H255995   0.213   3.687  17.277
11502TIP3   OH255996   1.364   2.249  15.249
11502TIP3    H155997   1.406   2.239  15.334
11502TIP3    H255998   1.340   2.342  15.244
11503TIP3   OH255999   2.883   4.844  16.315
11503TIP3    H156000   2.897   4.909  16.246
11503TIP3    H256001   2.802   4.871  16.357
11504TIP3   OH256002   5.732   2.526   2.137
11504TIP3    H156003   5.687   2.504   2.056
11504TIP3    H256004   5.663   2.558   2.195
11505TIP3   OH256005   6.647   6.404   4.458
11505TIP3    H156006   6.621   6.315   4.480
11505TIP3    H256007   6.593   6.460   4.514
11506TIP3   OH256008   4.400   5.735   0.410
11506TIP3    H156009   4.408   5.747   0.316
11506TIP3    H256010   4.305   5.730   0.425
11507TIP3   OH256011   0.987   3.001   0.755
11507TIP3    H156012   1.052   3.001   0.825
11507TIP3    H256013   0.990   3.090   0.718
11508TIP3   OH256014   1.979   3.579  17.118
11508TIP3    H156015   1.917   3.561  17.047
11508TIP3    H256016   2.051   3.625  17.076
11509TIP3   OH256017   6.400   3.267   0.375
11509TIP3    H156018   6.482   3.262   0.326
11509TIP3    H256019   6.367   3.356   0.358
11510TIP3   OH256020   0.739   0.839   5.909
11510TIP3    H156021   0.828   0.811   5.888
11510TIP3    H256022   0.686   0.760   5.899
11511TIP3   OH256023   3.914   4.590   1.821
11511TIP3    H156024   3.974   4.664   1.831
11511TIP3    H256025   3.956   4.518   1.867
11512TIP3   OH256026   3.365   5.982   2.665
11512TIP3    H156027   3.396   5.948   2.749
11512TIP3    H256028   3.370   5.907   2.606
11513TIP3   OH256029   5.200   5.280  17.183
11513TIP3    H156030   5.112   5.277  17.147
11513TIP3    H256031   5.220   5.373  17.192
11514TIP3   OH256032   2.048   1.383  15.104
11514TIP3    H156033   2.135   1.365  15.139
11514TIP3    H256034   1.998   1.413  15.180
11515TIP3   OH256035   4.698   3.775   3.833
11515TIP3    H156036   4.782   3.777   3.788
11515TIP3    H256037   4.636   3.746   3.766
11516TIP3   OH256038   1.999   3.588  13.530
11516TIP3    H156039   1.987   3.681  13.510
11516TIP3    H256040   2.046   3.552  13.455
11517TIP3   OH256041   6.433   1.404   0.319
11517TIP3    H156042   6.528   1.409   0.312
11517TIP3    H256043   6.401   1.478   0.268
11518TIP3   OH256044   1.001   6.020  11.637
11518TIP3    H156045   0.949   6.026  11.557
11518TIP3    H256046   0.988   5.930  11.667
11519TIP3   OH256047   3.169   4.638   3.362
11519TIP3    H156048   3.150   4.660   3.271
11519TIP3    H256049   3.086   4.603   3.395
11520TIP3   OH256050   2.408   6.458  15.431
11520TIP3    H156051   2.425   6.492  15.343
11520TIP3    H256052   2.322   6.494  15.453
11521TIP3   OH256053   4.496   4.189   1.328
11521TIP3    H156054   4.449   4.204   1.246
11521TIP3    H256055   4.487   4.271   1.376
11522TIP3   OH256056   4.026   1.903  12.859
11522TIP3    H156057   4.050   1.939  12.773
11522TIP3    H256058   3.941   1.862  12.844
11523TIP3   OH256059   0.813   5.320  13.624
11523TIP3    H156060   0.731   5.286  13.660
11523TIP3    H256061   0.790   5.407  13.590
11524TIP3   OH256062   4.147   0.608   2.675
11524TIP3    H156063   4.175   0.696   2.699
11524TIP3    H256064   4.052   0.609   2.687
11525TIP3   OH256065   6.296   6.495   4.537
11525TIP3    H156066   6.234   6.562   4.510
11525TIP3    H256067   6.319   6.450   4.456
11526TIP3   OH256068   1.956   4.311  13.941
11526TIP3    H156069   2.002   4.395  13.946
11526TIP3    H256070   1.878   4.329  13.889
11527TIP3   OH256071   2.554   3.242  15.690
11527TIP3    H156072   2.627   3.279  15.639
11527TIP3    H256073   2.500   3.196  15.626
11528TIP3   OH256074   1.075   1.612  16.738
11528TIP3    H156075   1.045   1.703  16.735
11528TIP3    H256076   1.098   1.591  16.648
11529TIP3   OH256077   4.349   6.292   4.562
11529TIP3    H156078   4.295   6.313   4.638
11529TIP3    H256079   4.295   6.315   4.486
11530TIP3   OH256080   1.442   4.997  12.299
11530TIP3    H156081   1.496   5.002  12.378
11530TIP3    H256082   1.462   5.078  12.251
11531TIP3   OH256083   0.119   0.623   4.244
11531TIP3    H156084   0.146   0.660   4.159
11531TIP3    H256085   0.035   0.581   4.227
11532TIP3   OH256086   5.981   4.455   0.190
11532TIP3    H156087   5.914   4.391   0.213
11532TIP3    H256088   5.989   4.509   0.269
11533TIP3   OH256089   1.662   6.484   6.216
11533TIP3    H156090   1.601   6.422   6.256
11533TIP3    H256091   1.632   6.492   6.125
11534TIP3   OH256092   0.904   0.108   1.145
11534TIP3    H156093   0.845   0.155   1.203
11534TIP3    H256094   0.849   0.077   1.074
11535TIP3   OH256095   5.179   0.906   0.294
11535TIP3    H156096   5.247   0.873   0.235
11535TIP3    H256097   5.170   0.998   0.270
11536TIP3   OH256098   1.188   0.426  13.002
11536TIP3    H156099   1.209   0.376  12.923
11536TIP3    H256100   1.159   0.361  13.066
11537TIP3   OH256101   0.577   4.309   0.560
11537TIP3    H156102   0.621   4.369   0.500
11537TIP3    H256103   0.532   4.366   0.622
11538TIP3   OH256104   1.685   2.884  14.984
11538TIP3    H156105   1.757   2.880  15.047
11538TIP3    H256106   1.648   2.971  14.994
11539TIP3   OH256107   0.179   4.579   3.759
11539TIP3    H156108   0.251   4.638   3.740
11539TIP3    H256109   0.110   4.635   3.793
11540TIP3   OH256110   0.015   4.662   6.045
11540TIP3    H156111   0.057   4.712   5.975
11540TIP3    H256112  -0.008   4.578   6.004
11541TIP3   OH256113   3.183   3.656   0.856
11541TIP3    H156114   3.104   3.693   0.895
11541TIP3    H256115   3.156   3.569   0.826
11542TIP3   OH256116   5.797   3.934  11.548
11542TIP3    H156117   5.861   3.999  11.521
11542TIP3    H256118   5.720   3.952  11.493
11543TIP3   OH256119   1.007   0.198  14.956
11543TIP3    H156120   1.005   0.178  14.863
11543TIP3    H256121   1.084   0.152  14.989
11544TIP3   OH256122   4.561   3.451  15.609
11544TIP3    H156123   4.533   3.541  15.623
11544TIP3    H256124   4.647   3.446  15.650
11545TIP3   OH256125   2.868   1.737  16.720
11545TIP3    H156126   2.928   1.809  16.699
11545TIP3    H256127   2.814   1.727  16.641
11546TIP3   OH256128   1.317   1.484  13.547
11546TIP3    H156129   1.301   1.393  13.523
11546TIP3    H256130   1.356   1.479  13.634
11547TIP3   OH256131   4.130   2.639   1.544
11547TIP3    H156132   4.159   2.557   1.583
11547TIP3    H256133   4.210   2.678   1.508
11548TIP3   OH256134   2.239   6.187  14.952
11548TIP3    H156135   2.234   6.281  14.971
11548TIP3    H256136   2.196   6.145  15.026
11549TIP3   OH256137   6.183   4.511   6.323
11549TIP3    H156138   6.117   4.499   6.255
11549TIP3    H256139   6.207   4.604   6.316
11550TIP3   OH256140   2.874   6.123   6.695
11550TIP3    H156141   2.955   6.072   6.699
11550TIP3    H256142   2.826   6.084   6.622
11551TIP3   OH256143   5.674   1.416   1.285
11551TIP3    H156144   5.610   1.482   1.260
11551TIP3    H256145   5.630   1.332   1.271
11552TIP3   OH256146   4.163   2.297   2.151
11552TIP3    H156147   4.173   2.373   2.093
11552TIP3    H256148   4.112   2.330   2.225
11553TIP3   OH256149   5.664   3.888   5.190
11553TIP3    H156150   5.600   3.877   5.261
11553TIP3    H256151   5.749   3.888   5.234
11554TIP3   OH256152   0.748   0.287   4.269
11554TIP3    H156153   0.677   0.277   4.332
11554TIP3    H256154   0.784   0.374   4.286
11555TIP3   OH256155   0.669   0.646   2.720
11555TIP3    H156156   0.684   0.555   2.748
11555TIP3    H256157   0.742   0.695   2.758
11556TIP3   OH256158   2.446   2.178   6.105
11556TIP3    H156159   2.480   2.098   6.066
11556TIP3    H256160   2.477   2.248   6.047
11557TIP3   OH256161   3.882   4.237   1.941
11557TIP3    H156162   3.949   4.302   1.963
11557TIP3    H256163   3.801   4.273   1.978
11558TIP3   OH256164   2.902   2.840   3.158
11558TIP3    H156165   2.833   2.775   3.146
11558TIP3    H256166   2.928   2.830   3.250
11559TIP3   OH256167   1.173   1.679  15.075
11559TIP3    H156168   1.248   1.665  15.017
11559TIP3    H256169   1.121   1.746  15.030
11560TIP3   OH256170   1.254   3.451   0.946
11560TIP3    H156171   1.287   3.493   1.025
11560TIP3    H256172   1.170   3.494   0.929
11561TIP3   OH256173   1.370   5.121   2.438
11561TIP3    H156174   1.358   5.078   2.523
11561TIP3    H256175   1.411   5.054   2.383
11562TIP3   OH256176   3.206   1.995  11.727
11562TIP3    H156177   3.210   2.084  11.763
11562TIP3    H256178   3.134   1.998  11.664
11563TIP3   OH256179   6.346   4.867  16.007
11563TIP3    H156180   6.330   4.809  16.082
11563TIP3    H256181   6.420   4.827  15.961
11564TIP3   OH256182   1.789   2.980  12.176
11564TIP3    H156183   1.780   2.991  12.082
11564TIP3    H256184   1.826   2.892  12.187
11565TIP3   OH256185   6.168   6.635   4.792
11565TIP3    H156186   6.249   6.685   4.786
11565TIP3    H256187   6.133   6.635   4.702
11566TIP3   OH256188   4.951   1.123  14.311
11566TIP3    H156189   4.891   1.072  14.365
11566TIP3    H256190   5.033   1.124  14.360
11567TIP3   OH256191   1.501   1.342   1.575
11567TIP3    H156192   1.488   1.295   1.493
11567TIP3    H256193   1.596   1.355   1.580
11568TIP3   OH256194   4.374   5.226  17.121
11568TIP3    H156195   4.376   5.185  17.207
11568TIP3    H256196   4.281   5.247  17.107
11569TIP3   OH256197   0.344   4.778  11.364
11569TIP3    H156198   0.417   4.743  11.414
11569TIP3    H256199   0.373   4.775  11.273
11570TIP3   OH256200   6.372   4.243  17.267
11570TIP3    H156201   6.443   4.307  17.267
11570TIP3    H256202   6.378   4.201  17.353
11571TIP3   OH256203   0.423   2.222  12.402
11571TIP3    H156204   0.340   2.228  12.449
11571TIP3    H256205   0.472   2.299  12.430
11572TIP3   OH256206   4.750   1.842   5.934
11572TIP3    H156207   4.685   1.909   5.913
11572TIP3    H256208   4.733   1.820   6.026
11573TIP3   OH256209   0.227   6.596   2.515
11573TIP3    H156210   0.227   6.654   2.439
11573TIP3    H256211   0.185   6.647   2.584
11574TIP3   OH256212   3.834   3.357  15.292
11574TIP3    H156213   3.861   3.271  15.324
11574TIP3    H256214   3.746   3.344  15.258
11575TIP3   OH256215   1.871   5.545  11.132
11575TIP3    H156216   1.870   5.626  11.182
11575TIP3    H256217   1.957   5.507  11.150
11576TIP3   OH256218   4.023   5.002  15.248
11576TIP3    H156219   3.972   5.038  15.176
11576TIP3    H256220   3.961   4.995  15.321
11577TIP3   OH256221   3.295   1.810  15.610
11577TIP3    H156222   3.208   1.835  15.580
11577TIP3    H256223   3.306   1.853  15.694
11578TIP3   OH256224   4.853   4.776   3.504
11578TIP3    H156225   4.848   4.802   3.413
11578TIP3    H256226   4.907   4.843   3.546
11579TIP3   OH256227   4.665   1.968  17.086
11579TIP3    H156228   4.738   1.971  17.024
11579TIP3    H256229   4.706   1.959  17.172
11580TIP3   OH256230   4.938   2.973   1.068
11580TIP3    H156231   4.944   2.907   0.999
11580TIP3    H256232   4.905   2.926   1.144
11581TIP3   OH256233   3.911   6.181   0.985
11581TIP3    H156234   3.864   6.223   1.056
11581TIP3    H256235   3.847   6.123   0.944
11582TIP3   OH256236   5.077   1.161   2.680
11582TIP3    H156237   5.090   1.234   2.618
11582TIP3    H256238   4.994   1.181   2.723
11583TIP3   OH256239   0.065   5.848  14.962
11583TIP3    H156240   0.122   5.921  14.939
11583TIP3    H256241   0.098   5.774  14.912
11584TIP3   OH256242   3.489   3.148   0.962
11584TIP3    H156243   3.559   3.199   1.003
11584TIP3    H256244   3.524   3.059   0.958
11585TIP3   OH256245   2.158   1.304  16.249
11585TIP3    H156246   2.220   1.315  16.321
11585TIP3    H256247   2.126   1.393  16.232
11586TIP3   OH256248   2.497   0.719  16.005
11586TIP3    H156249   2.536   0.671  16.078
11586TIP3    H256250   2.427   0.771  16.046
11587TIP3   OH256251   2.946   5.689   3.321
11587TIP3    H156252   2.873   5.654   3.270
11587TIP3    H256253   2.935   5.651   3.408
11588TIP3   OH256254   6.574   1.498  12.252
11588TIP3    H156255   6.524   1.574  12.222
11588TIP3    H256256   6.519   1.459  12.320
11589TIP3   OH256257   3.018   2.444  12.046
11589TIP3    H156258   2.965   2.520  12.068
11589TIP3    H256259   3.065   2.424  12.127
11590TIP3   OH256260   6.669   6.613   1.505
11590TIP3    H156261   6.754   6.567   1.505
11590TIP3    H256262   6.612   6.556   1.557
11591TIP3   OH256263   4.793   1.743   2.347
11591TIP3    H156264   4.792   1.838   2.333
11591TIP3    H256265   4.703   1.715   2.330
11592TIP3   OH256266   2.304   0.114  15.083
11592TIP3    H156267   2.380   0.172  15.093
11592TIP3    H256268   2.229   0.169  15.106
11593TIP3   OH256269   5.305   4.269   5.205
11593TIP3    H156270   5.306   4.315   5.289
11593TIP3    H256271   5.288   4.337   5.140
11594TIP3   OH256272   3.265   3.597   2.595
11594TIP3    H156273   3.189   3.560   2.550
11594TIP3    H256274   3.228   3.646   2.668
11595TIP3   OH256275   2.873   6.437   5.000
11595TIP3    H156276   2.900   6.362   4.947
11595TIP3    H256277   2.778   6.441   4.991
11596TIP3   OH256278   4.417   3.691   4.852
11596TIP3    H156279   4.409   3.603   4.888
11596TIP3    H256280   4.512   3.708   4.851
11597TIP3   OH256281   3.785   0.786   1.871
11597TIP3    H156282   3.835   0.859   1.906
11597TIP3    H256283   3.698   0.823   1.853
11598TIP3   OH256284   1.133   1.683   2.867
11598TIP3    H156285   1.086   1.753   2.821
11598TIP3    H256286   1.064   1.624   2.898
11599TIP3   OH256287   5.784   4.689   6.363
11599TIP3    H156288   5.763   4.627   6.293
11599TIP3    H256289   5.798   4.634   6.440
11600TIP3   OH256290   4.540   2.716  15.923
11600TIP3    H156291   4.449   2.730  15.946
11600TIP3    H256292   4.542   2.628  15.884
11601TIP3   OH256293   3.184   1.111   5.326
11601TIP3    H156294   3.210   1.145   5.412
11601TIP3    H256295   3.172   1.017   5.340
11602TIP3   OH256296   5.076   5.566   1.295
11602TIP3    H156297   5.126   5.485   1.290
11602TIP3    H256298   5.005   5.546   1.356
11603TIP3   OH256299   3.975   3.984   0.152
11603TIP3    H156300   4.059   4.029   0.143
11603TIP3    H256301   3.910   4.052   0.133
11604TIP3   OH256302   4.436   6.820   0.657
11604TIP3    H156303   4.370   6.750   0.659
11604TIP3    H256304   4.443   6.849   0.748
11605TIP3   OH256305   2.542   4.810  11.007
11605TIP3    H156306   2.459   4.821  10.961
11605TIP3    H256307   2.599   4.878  10.971
11606TIP3   OH256308   3.603   6.794  11.486
11606TIP3    H156309   3.673   6.834  11.434
11606TIP3    H256310   3.626   6.701  11.491
11607TIP3   OH256311   3.637   5.718  16.843
11607TIP3    H156312   3.721   5.741  16.802
11607TIP3    H256313   3.656   5.717  16.937
11608TIP3   OH256314   4.682   5.354  11.779
11608TIP3    H156315   4.680   5.258  11.776
11608TIP3    H256316   4.760   5.374  11.830
11609TIP3   OH256317   1.881   5.586   6.074
11609TIP3    H156318   1.874   5.495   6.044
11609TIP3    H256319   1.802   5.628   6.039
11610TIP3   OH256320   1.042   5.897  16.455
11610TIP3    H156321   1.014   5.917  16.365
11610TIP3    H256322   1.136   5.885  16.448
11611TIP3   OH256323   2.696   3.980  12.122
11611TIP3    H156324   2.682   4.066  12.083
11611TIP3    H256325   2.649   3.983  12.205
11612TIP3   OH256326   2.441   1.139  16.456
11612TIP3    H156327   2.380   1.210  16.435
11612TIP3    H256328   2.500   1.134  16.381
11613TIP3   OH256329   6.647   0.100  14.674
11613TIP3    H156330   6.665   0.061  14.759
11613TIP3    H256331   6.693   0.045  14.611
11614TIP3   OH256332   4.404   0.522  11.575
11614TIP3    H156333   4.450   0.549  11.654
11614TIP3    H256334   4.314   0.551  11.588
11615TIP3   OH256335   6.200   4.118   2.076
11615TIP3    H156336   6.203   4.195   2.019
11615TIP3    H256337   6.182   4.045   2.017
11616TIP3   OH256338   2.329   6.772  16.875
11616TIP3    H156339   2.279   6.693  16.854
11616TIP3    H256340   2.398   6.776  16.810
11617TIP3   OH256341   4.741   1.842   4.648
11617TIP3    H156342   4.752   1.878   4.560
11617TIP3    H256343   4.648   1.852   4.667
11618TIP3   OH256344   6.000   4.199  13.021
11618TIP3    H156345   6.048   4.121  12.994
11618TIP3    H256346   5.952   4.171  13.099
11619TIP3   OH256347   4.806   5.983  10.906
11619TIP3    H156348   4.786   5.896  10.871
11619TIP3    H256349   4.724   6.031  10.898
11620TIP3   OH256350   1.136   0.884  12.702
11620TIP3    H156351   1.219   0.927  12.679
11620TIP3    H256352   1.153   0.845  12.788
11621TIP3   OH256353   4.500   0.396   3.816
11621TIP3    H156354   4.564   0.425   3.751
11621TIP3    H256355   4.429   0.359   3.764
11622TIP3   OH256356   2.335   0.030   3.798
11622TIP3    H156357   2.260   0.016   3.856
11622TIP3    H256358   2.296   0.049   3.713
11623TIP3   OH256359   5.655   0.375  14.940
11623TIP3    H156360   5.661   0.284  14.969
11623TIP3    H256361   5.712   0.380  14.863
11624TIP3   OH256362   5.140   4.382  14.704
11624TIP3    H156363   5.136   4.311  14.768
11624TIP3    H256364   5.230   4.381  14.672
11625TIP3   OH256365   4.207   5.480   3.009
11625TIP3    H156366   4.279   5.419   3.027
11625TIP3    H256367   4.241   5.536   2.938
11626TIP3   OH256368   1.863   1.975  12.049
11626TIP3    H156369   1.925   2.047  12.059
11626TIP3    H256370   1.817   1.994  11.967
11627TIP3   OH256371   1.677   3.498  14.608
11627TIP3    H156372   1.614   3.462  14.670
11627TIP3    H256373   1.757   3.508  14.659
11628TIP3   OH256374   1.368   5.389   0.549
11628TIP3    H156375   1.306   5.439   0.494
11628TIP3    H256376   1.315   5.319   0.587
11629TIP3   OH256377   5.793   5.800   1.564
11629TIP3    H156378   5.842   5.825   1.642
11629TIP3    H256379   5.836   5.721   1.532
11630TIP3   OH256380   6.135   6.637  13.510
11630TIP3    H156381   6.218   6.650  13.464
11630TIP3    H256382   6.139   6.698  13.584
11631TIP3   OH256383   4.205   0.754  10.684
11631TIP3    H156384   4.206   0.800  10.768
11631TIP3    H256385   4.146   0.680  10.699
11632TIP3   OH256386   4.789   3.463  13.335
11632TIP3    H156387   4.839   3.545  13.334
11632TIP3    H256388   4.721   3.476  13.269
11633TIP3   OH256389   4.182   1.955   5.777
11633TIP3    H156390   4.115   1.924   5.838
11633TIP3    H256391   4.140   2.028   5.730
11634TIP3   OH256392   1.337   6.670  14.857
11634TIP3    H156393   1.341   6.756  14.815
11634TIP3    H256394   1.256   6.631  14.823
11635TIP3   OH256395   2.140   5.317  15.283
11635TIP3    H156396   2.203   5.342  15.351
11635TIP3    H256397   2.173   5.357  15.203
11636TIP3   OH256398   2.491   5.335   1.858
11636TIP3    H156399   2.400   5.350   1.881
11636TIP3    H256400   2.521   5.417   1.820
11637TIP3   OH256401   6.619   5.168  11.913
11637TIP3    H156402   6.605   5.225  11.837
11637TIP3    H256403   6.710   5.186  11.939
11638TIP3   OH256404   1.153   5.004   0.443
11638TIP3    H156405   1.240   4.967   0.435
11638TIP3    H256406   1.124   5.016   0.353
11639TIP3   OH256407   0.912   5.464   1.724
11639TIP3    H156408   0.851   5.531   1.692
11639TIP3    H256409   0.895   5.459   1.818
11640TIP3   OH256410   3.955   3.995  16.633
11640TIP3    H156411   3.880   3.978  16.577
11640TIP3    H256412   4.031   3.972  16.580
11641TIP3   OH256413   0.872   1.139  16.834
11641TIP3    H156414   0.948   1.103  16.788
11641TIP3    H256415   0.883   1.234  16.828
11642TIP3   OH256416   1.918   0.720   1.418
11642TIP3    H156417   1.982   0.748   1.484
11642TIP3    H256418   1.967   0.720   1.336
11643TIP3   OH256419   2.481   4.405  14.190
11643TIP3    H156420   2.500   4.499  14.187
11643TIP3    H256421   2.505   4.373  14.103
11644TIP3   OH256422   1.731   4.605  14.390
11644TIP3    H156423   1.690   4.624  14.305
11644TIP3    H256424   1.718   4.511  14.401
11645TIP3   OH256425   1.330   0.986  15.489
11645TIP3    H156426   1.425   0.995  15.481
11645TIP3    H256427   1.300   0.975  15.399
11646TIP3   OH256428   6.779   5.119   0.580
11646TIP3    H156429   6.870   5.145   0.572
11646TIP3    H256430   6.776   5.066   0.659
11647TIP3   OH256431   5.118   2.779  10.275
11647TIP3    H156432   5.105   2.686  10.260
11647TIP3    H256433   5.210   2.787  10.301
11648TIP3   OH256434   3.524   1.161   4.204
11648TIP3    H156435   3.585   1.198   4.140
11648TIP3    H256436   3.538   1.066   4.198
11649TIP3   OH256437   0.302   0.983  11.237
11649TIP3    H156438   0.317   1.077  11.226
11649TIP3    H256439   0.386   0.943  11.214
11650TIP3   OH256440   1.273   3.411  14.852
11650TIP3    H156441   1.211   3.441  14.918
11650TIP3    H256442   1.220   3.397  14.774
11651TIP3   OH256443   2.547   0.254  13.379
11651TIP3    H156444   2.478   0.317  13.396
11651TIP3    H256445   2.501   0.173  13.354
11652TIP3   OH256446   4.477   1.415  11.635
11652TIP3    H156447   4.553   1.453  11.680
11652TIP3    H256448   4.501   1.416  11.543
11653TIP3   OH256449   6.515   3.280  11.972
11653TIP3    H156450   6.502   3.301  12.064
11653TIP3    H256451   6.520   3.366  11.929
11654TIP3   OH256452   5.486   6.648   0.512
11654TIP3    H156453   5.394   6.632   0.531
11654TIP3    H256454   5.522   6.681   0.595
11655TIP3   OH256455   4.521   2.447  11.614
11655TIP3    H156456   4.504   2.405  11.530
11655TIP3    H256457   4.607   2.415  11.640
11656TIP3   OH256458   3.881   2.693  14.560
11656TIP3    H156459   3.795   2.655  14.577
11656TIP3    H256460   3.935   2.619  14.531
11657TIP3   OH256461   0.315   1.635  11.983
11657TIP3    H156462   0.282   1.579  11.914
11657TIP3    H256463   0.259   1.713  11.979
11658TIP3   OH256464   4.071   5.698   0.469
11658TIP3    H156465   4.002   5.764   0.456
11658TIP3    H256466   4.039   5.643   0.540
11659TIP3   OH256467   5.952   6.155  14.667
11659TIP3    H156468   5.898   6.232  14.650
11659TIP3    H256469   5.889   6.083  14.671
11660TIP3   OH256470   3.903   1.443   5.457
11660TIP3    H156471   3.813   1.429   5.427
11660TIP3    H256472   3.936   1.514   5.403
11661TIP3   OH256473   0.345   0.327   2.746
11661TIP3    H156474   0.406   0.253   2.747
11661TIP3    H256475   0.313   0.330   2.656
11662TIP3   OH256476   2.033   1.880  13.546
11662TIP3    H156477   2.017   1.832  13.627
11662TIP3    H256478   2.066   1.966  13.575
11663TIP3   OH256479   5.578   5.487  16.717
11663TIP3    H156480   5.593   5.438  16.635
11663TIP3    H256481   5.622   5.571  16.703
11664TIP3   OH256482   1.311   6.067  14.278
11664TIP3    H156483   1.391   6.120  14.285
11664TIP3    H256484   1.247   6.112  14.333
11665TIP3   OH256485   4.769   0.188   4.174
11665TIP3    H156486   4.700   0.167   4.112
11665TIP3    H256487   4.724   0.196   4.258
11666TIP3   OH256488   5.442   6.369   2.365
11666TIP3    H156489   5.474   6.432   2.429
11666TIP3    H256490   5.388   6.309   2.415
11667TIP3   OH256491   1.404   1.586   4.610
11667TIP3    H156492   1.343   1.588   4.536
11667TIP3    H256493   1.485   1.551   4.573
11668TIP3   OH256494   0.273   3.987  12.328
11668TIP3    H156495   0.337   4.039  12.375
11668TIP3    H256496   0.316   3.903  12.313
11669TIP3   OH256497   4.747   5.389  16.687
11669TIP3    H156498   4.790   5.473  16.672
11669TIP3    H256499   4.654   5.409  16.693
11670TIP3   OH256500   2.910   0.793  16.309
11670TIP3    H156501   2.899   0.873  16.360
11670TIP3    H256502   2.959   0.821  16.231
11671TIP3   OH256503   6.057   4.197   0.343
11671TIP3    H156504   6.127   4.183   0.407
11671TIP3    H256505   6.008   4.272   0.376
11672TIP3   OH256506   2.029   3.656   4.492
11672TIP3    H156507   2.019   3.561   4.499
11672TIP3    H256508   2.051   3.685   4.580
11673TIP3   OH256509   4.975   5.559  13.470
11673TIP3    H156510   4.887   5.523  13.480
11673TIP3    H256511   4.981   5.628  13.535
11674TIP3   OH256512   5.212   3.520  10.844
11674TIP3    H156513   5.307   3.512  10.852
11674TIP3    H256514   5.178   3.453  10.903
11675TIP3   OH256515   2.712   3.577  11.192
11675TIP3    H156516   2.624   3.568  11.156
11675TIP3    H256517   2.750   3.652  11.146
11676TIP3   OH256518   6.767   2.810   2.341
11676TIP3    H156519   6.734   2.780   2.426
11676TIP3    H256520   6.844   2.756   2.324
11677TIP3   OH256521   6.240   5.213   2.682
11677TIP3    H156522   6.261   5.122   2.703
11677TIP3    H256523   6.154   5.227   2.722
11678TIP3   OH256524   2.162   1.190  11.957
11678TIP3    H156525   2.137   1.140  11.880
11678TIP3    H256526   2.247   1.229  11.933
11679TIP3   OH256527   4.652   0.883  17.045
11679TIP3    H156528   4.636   0.927  16.962
11679TIP3    H256529   4.718   0.816  17.026
11680TIP3   OH256530   0.189   0.915  16.509
11680TIP3    H156531   0.183   0.833  16.559
11680TIP3    H256532   0.279   0.945  16.524
11681TIP3   OH256533   1.004   6.001   4.869
11681TIP3    H156534   1.042   6.078   4.911
11681TIP3    H256535   0.911   6.023   4.860
11682TIP3   OH256536   6.159   6.748   5.207
11682TIP3    H156537   6.249   6.758   5.236
11682TIP3    H256538   6.106   6.773   5.283
11683TIP3   OH256539   5.107   6.369  17.113
11683TIP3    H156540   5.018   6.403  17.112
11683TIP3    H256541   5.123   6.344  17.204
11684TIP3   OH256542   3.910   1.464  11.621
11684TIP3    H156543   3.880   1.542  11.574
11684TIP3    H256544   3.874   1.391  11.571
11685TIP3   OH256545   3.906   2.457   3.512
11685TIP3    H156546   3.813   2.438   3.527
11685TIP3    H256547   3.923   2.423   3.424
11686TIP3   OH256548   6.591   4.160  15.774
11686TIP3    H156549   6.506   4.154  15.818
11686TIP3    H256550   6.650   4.109  15.830
11687TIP3   OH256551   4.535   2.485   5.546
11687TIP3    H156552   4.608   2.432   5.578
11687TIP3    H256553   4.565   2.517   5.461
11688TIP3   OH256554   0.204   6.224  12.762
11688TIP3    H156555   0.134   6.207  12.698
11688TIP3    H256556   0.177   6.304  12.806
11689TIP3   OH256557   4.247   5.594   0.712
11689TIP3    H156558   4.188   5.560   0.780
11689TIP3    H256559   4.255   5.687   0.732
11690TIP3   OH256560   2.427   3.937  13.150
11690TIP3    H156561   2.448   4.017  13.198
11690TIP3    H256562   2.477   3.868  13.194
11691TIP3   OH256563   2.279   4.243  16.410
11691TIP3    H156564   2.359   4.238  16.357
11691TIP3    H256565   2.211   4.268  16.347
11692TIP3   OH256566   5.362   1.663   1.548
11692TIP3    H156567   5.416   1.592   1.582
11692TIP3    H256568   5.335   1.632   1.461
11693TIP3   OH256569   4.577   1.707   5.321
11693TIP3    H156570   4.488   1.676   5.306
11693TIP3    H256571   4.591   1.693   5.415
11694TIP3   OH256572   5.527   5.389   1.316
11694TIP3    H156573   5.618   5.381   1.286
11694TIP3    H256574   5.531   5.452   1.388
11695TIP3   OH256575   1.657   5.274   5.798
11695TIP3    H156576   1.655   5.178   5.802
11695TIP3    H256577   1.575   5.302   5.836
11696TIP3   OH256578   2.025   1.733  11.688
11696TIP3    H156579   2.074   1.675  11.748
11696TIP3    H256580   1.993   1.674  11.620
11697TIP3   OH256581   6.690   3.548  11.077
11697TIP3    H156582   6.716   3.509  10.994
11697TIP3    H256583   6.743   3.628  11.083
11698TIP3   OH256584   1.612   0.849  13.256
11698TIP3    H156585   1.598   0.768  13.206
11698TIP3    H256586   1.547   0.847  13.325
11699TIP3   OH256587   2.940   2.275   2.273
11699TIP3    H156588   2.944   2.367   2.248
11699TIP3    H256589   2.874   2.272   2.343
11700TIP3   OH256590   5.626   5.519   3.859
11700TIP3    H156591   5.640   5.488   3.948
11700TIP3    H256592   5.594   5.443   3.811
11701TIP3   OH256593   3.226   4.877  14.596
11701TIP3    H156594   3.271   4.810  14.545
11701TIP3    H256595   3.133   4.860  14.581
11702TIP3   OH256596   5.497   4.127  13.105
11702TIP3    H156597   5.546   4.047  13.090
11702TIP3    H256598   5.437   4.133  13.031
11703TIP3   OH256599   0.115   3.528  14.151
11703TIP3    H156600   0.063   3.602  14.120
11703TIP3    H256601   0.203   3.543  14.117
11704TIP3   OH256602   0.522   1.212   2.472
11704TIP3    H156603   0.552   1.280   2.412
11704TIP3    H256604   0.578   1.221   2.549
11705TIP3   OH256605   0.215   2.468  15.951
11705TIP3    H156606   0.300   2.428  15.935
11705TIP3    H256607   0.154   2.417  15.898
11706TIP3   OH256608   6.304   5.465  17.186
11706TIP3    H156609   6.395   5.437  17.198
11706TIP3    H256610   6.274   5.415  17.110
11707TIP3   OH256611   1.038   5.364  16.081
11707TIP3    H156612   0.971   5.427  16.106
11707TIP3    H256613   1.029   5.293  16.144
11708TIP3   OH256614   0.154   6.015   2.519
11708TIP3    H156615   0.128   6.046   2.432
11708TIP3    H256616   0.249   6.001   2.511
11709TIP3   OH256617   2.577   4.431  12.990
11709TIP3    H156618   2.484   4.441  13.007
11709TIP3    H256619   2.586   4.345  12.950
11710TIP3   OH256620   6.207   2.515  14.137
11710TIP3    H156621   6.276   2.567  14.095
11710TIP3    H256622   6.164   2.576  14.197
11711TIP3   OH256623   0.149   4.015  13.611
11711TIP3    H156624   0.225   4.008  13.554
11711TIP3    H256625   0.184   4.045  13.695
11712TIP3   OH256626   5.016   2.592   1.330
11712TIP3    H156627   5.086   2.541   1.368
11712TIP3    H256628   5.007   2.668   1.387
11713TIP3   OH256629   1.946   1.061   5.576
11713TIP3    H156630   1.866   1.007   5.575
11713TIP3    H256631   2.002   1.019   5.641
11714TIP3   OH256632   0.307   6.071  13.333
11714TIP3    H156633   0.280   6.161  13.347
11714TIP3    H256634   0.295   6.057  13.239
11715TIP3   OH256635   6.735   0.028  13.515
11715TIP3    H156636   6.765   0.105  13.564
11715TIP3    H256637   6.798   0.020  13.443
11716TIP3   OH256638   1.845   0.459   1.512
11716TIP3    H156639   1.913   0.440   1.577
11716TIP3    H256640   1.882   0.531   1.460
11717TIP3   OH256641   3.001   5.689   3.761
11717TIP3    H156642   3.028   5.748   3.691
11717TIP3    H256643   2.950   5.745   3.821
11718TIP3   OH256644   1.102   6.220  16.448
11718TIP3    H156645   1.073   6.194  16.361
11718TIP3    H256646   1.032   6.191  16.507
11719TIP3   OH256647   3.638   2.199  11.579
11719TIP3    H156648   3.587   2.176  11.656
11719TIP3    H256649   3.582   2.258  11.529
11720TIP3   OH256650   0.469   6.163   2.188
11720TIP3    H156651   0.373   6.161   2.192
11720TIP3    H256652   0.495   6.195   2.275
11721TIP3   OH256653   5.239   6.663   3.822
11721TIP3    H156654   5.234   6.752   3.857
11721TIP3    H256655   5.325   6.631   3.848
11722TIP3   OH256656   5.772   0.938  13.195
11722TIP3    H156657   5.719   0.943  13.115
11722TIP3    H256658   5.729   0.997  13.256
11723TIP3   OH256659   0.624   0.574   4.121
11723TIP3    H156660   0.649   0.571   4.214
11723TIP3    H256661   0.553   0.511   4.113
11724TIP3   OH256662   0.137   5.797   2.807
11724TIP3    H156663   0.081   5.846   2.748
11724TIP3    H256664   0.113   5.705   2.793
11725TIP3   OH256665   2.525   3.238  11.293
11725TIP3    H156666   2.539   3.280  11.208
11725TIP3    H256667   2.482   3.156  11.272
11726TIP3   OH256668   6.089   1.884   3.984
11726TIP3    H156669   6.133   1.842   3.909
11726TIP3    H256670   6.094   1.819   4.054
11727TIP3   OH256671   6.324   1.197   5.672
11727TIP3    H156672   6.383   1.179   5.745
11727TIP3    H256673   6.343   1.287   5.647
11728TIP3   OH256674   3.568   4.717   4.501
11728TIP3    H156675   3.628   4.659   4.455
11728TIP3    H256676   3.525   4.768   4.432
11729TIP3   OH256677   0.868   6.819   3.267
11729TIP3    H156678   0.814   6.797   3.190
11729TIP3    H256679   0.950   6.849   3.230
11730TIP3   OH256680   3.283   4.645   0.251
11730TIP3    H156681   3.332   4.568   0.280
11730TIP3    H256682   3.201   4.640   0.300
11731TIP3   OH256683   0.020   1.014  12.736
11731TIP3    H156684   0.010   0.933  12.685
11731TIP3    H256685   0.073   1.071  12.680
11732TIP3   OH256686   2.567   2.252  16.793
11732TIP3    H156687   2.509   2.214  16.727
11732TIP3    H256688   2.650   2.204  16.782
11733TIP3   OH256689   3.253   6.585   0.909
11733TIP3    H156690   3.271   6.574   1.003
11733TIP3    H256691   3.170   6.538   0.896
11734TIP3   OH256692   3.257   3.463  12.578
11734TIP3    H156693   3.197   3.490  12.647
11734TIP3    H256694   3.203   3.416  12.515
11735TIP3   OH256695   0.123   6.746  16.819
11735TIP3    H156696   0.203   6.773  16.773
11735TIP3    H256697   0.096   6.824  16.867
11736TIP3   OH256698   6.602   2.020   2.126
11736TIP3    H156699   6.684   2.053   2.163
11736TIP3    H256700   6.541   2.093   2.133
11737TIP3   OH256701   6.353   6.196   1.664
11737TIP3    H156702   6.352   6.251   1.586
11737TIP3    H256703   6.321   6.111   1.634
11738TIP3   OH256704   1.503   5.373   3.918
11738TIP3    H156705   1.518   5.279   3.909
11738TIP3    H256706   1.472   5.384   4.008
11739TIP3   OH256707   0.472   4.017  14.298
11739TIP3    H156708   0.532   4.065  14.355
11739TIP3    H256709   0.528   3.971  14.236
11740TIP3   OH256710   3.760   3.127   5.266
11740TIP3    H156711   3.805   3.084   5.193
11740TIP3    H256712   3.728   3.056   5.320
11741TIP3   OH256713   0.414   3.804   2.890
11741TIP3    H156714   0.435   3.864   2.819
11741TIP3    H256715   0.497   3.762   2.911
11742TIP3   OH256716   5.741   1.608  14.625
11742TIP3    H156717   5.821   1.563  14.653
11742TIP3    H256718   5.772   1.692  14.591
11743TIP3   OH256719   0.087   6.618   4.549
11743TIP3    H156720   0.140   6.690   4.582
11743TIP3    H256721   0.013   6.659   4.506
11744TIP3   OH256722   5.074   1.199   1.579
11744TIP3    H156723   4.983   1.180   1.605
11744TIP3    H256724   5.101   1.121   1.531
11745TIP3   OH256725   6.498   3.968  10.875
11745TIP3    H156726   6.586   3.945  10.846
11745TIP3    H256727   6.445   3.892  10.853
11746TIP3   OH256728   2.011   0.485   2.508
11746TIP3    H156729   1.925   0.454   2.481
11746TIP3    H256730   2.057   0.406   2.538
11747TIP3   OH256731   2.774   6.216  15.691
11747TIP3    H156732   2.836   6.224  15.618
11747TIP3    H256733   2.699   6.268  15.664
11748TIP3   OH256734   1.580   2.434   6.778
11748TIP3    H156735   1.621   2.398   6.857
11748TIP3    H256736   1.510   2.372   6.756
11749TIP3   OH256737   0.276   4.700   4.691
11749TIP3    H156738   0.306   4.682   4.602
11749TIP3    H256739   0.230   4.621   4.717
11750TIP3   OH256740   3.342   2.137  14.465
11750TIP3    H156741   3.312   2.070  14.404
11750TIP3    H256742   3.298   2.217  14.435
11751TIP3   OH256743   0.499   5.737   1.987
11751TIP3    H156744   0.460   5.729   1.900
11751TIP3    H256745   0.452   5.672   2.040
11752TIP3   OH256746   2.145   5.779   3.846
11752TIP3    H156747   2.193   5.754   3.766
11752TIP3    H256748   2.213   5.812   3.905
11753TIP3   OH256749   6.345   5.340   5.822
11753TIP3    H156750   6.363   5.345   5.729
11753TIP3    H256751   6.250   5.328   5.828
11754TIP3   OH256752   3.076   2.573   2.578
11754TIP3    H156753   3.078   2.668   2.571
11754TIP3    H256754   3.128   2.542   2.504
11755TIP3   OH256755   2.690   1.880  13.958
11755TIP3    H156756   2.609   1.907  13.914
11755TIP3    H256757   2.701   1.788  13.932
11756TIP3   OH256758   1.542   4.419   1.012
11756TIP3    H156759   1.556   4.325   1.002
11756TIP3    H256760   1.449   4.427   1.033
11757TIP3   OH256761   5.312   5.595  16.564
11757TIP3    H156762   5.324   5.658  16.493
11757TIP3    H256763   5.400   5.572  16.591
11758TIP3   OH256764   4.454   4.427   1.482
11758TIP3    H156765   4.520   4.488   1.514
11758TIP3    H256766   4.371   4.474   1.494
11759TIP3   OH256767   6.474   4.616   2.723
11759TIP3    H156768   6.556   4.597   2.678
11759TIP3    H256769   6.499   4.628   2.815
11760TIP3   OH256770   2.928   0.268  13.697
11760TIP3    H156771   2.945   0.249  13.789
11760TIP3    H256772   2.969   0.195  13.650
11761TIP3   OH256773   5.912   6.165  15.796
11761TIP3    H156774   5.926   6.218  15.874
11761TIP3    H256775   5.950   6.216  15.725
11762TIP3   OH256776   2.757   3.232   5.053
11762TIP3    H156777   2.826   3.174   5.085
11762TIP3    H256778   2.690   3.173   5.018
11763TIP3   OH256779   4.472   2.249   2.386
11763TIP3    H156780   4.397   2.192   2.369
11763TIP3    H256781   4.435   2.324   2.431
11764TIP3   OH256782   0.690   2.649   5.500
11764TIP3    H156783   0.701   2.619   5.409
11764TIP3    H256784   0.759   2.714   5.512
11765TIP3   OH256785   3.162   6.162   2.611
11765TIP3    H156786   3.156   6.220   2.687
11765TIP3    H256787   3.251   6.126   2.614
11766TIP3   OH256788   4.592   0.209  16.846
11766TIP3    H156789   4.555   0.298  16.848
11766TIP3    H256790   4.648   0.205  16.923
11767TIP3   OH256791   6.446   3.649  11.166
11767TIP3    H156792   6.510   3.588  11.128
11767TIP3    H256793   6.477   3.736  11.141
11768TIP3   OH256794   6.642   4.097  12.239
11768TIP3    H156795   6.608   4.020  12.283
11768TIP3    H256796   6.683   4.064  12.159
11769TIP3   OH256797   1.606   0.275  11.716
11769TIP3    H156798   1.690   0.308  11.682
11769TIP3    H256799   1.596   0.318  11.801
11770TIP3   OH256800   3.803   5.972  17.027
11770TIP3    H156801   3.872   5.993  17.089
11770TIP3    H256802   3.837   5.899  16.976
11771TIP3   OH256803   2.229   3.114  17.113
11771TIP3    H156804   2.162   3.164  17.160
11771TIP3    H256805   2.179   3.053  17.058
11772TIP3   OH256806   2.713   3.088  15.868
11772TIP3    H156807   2.680   3.020  15.927
11772TIP3    H256808   2.636   3.141  15.848
11773TIP3   OH256809   1.535   2.325   0.369
11773TIP3    H156810   1.505   2.234   0.366
11773TIP3    H256811   1.549   2.343   0.462
11774TIP3   OH256812   5.996   0.670  14.540
11774TIP3    H156813   6.078   0.631  14.508
11774TIP3    H256814   5.940   0.676  14.462
11775TIP3   OH256815   0.254   3.926   4.611
11775TIP3    H156816   0.160   3.934   4.629
11775TIP3    H256817   0.291   3.890   4.692
11776TIP3   OH256818   4.711   4.061  14.877
11776TIP3    H156819   4.703   3.973  14.912
11776TIP3    H256820   4.687   4.052  14.784
11777TIP3   OH256821   1.190   2.261  14.301
11777TIP3    H156822   1.159   2.352  14.308
11777TIP3    H256823   1.121   2.217  14.252
11778TIP3   OH256824   2.828   4.932  10.590
11778TIP3    H156825   2.877   4.994  10.536
11778TIP3    H256826   2.788   4.872  10.527
11779TIP3   OH256827   2.638   0.665  13.472
11779TIP3    H156828   2.546   0.683  13.450
11779TIP3    H256829   2.659   0.587  13.422
11780TIP3   OH256830   3.642   0.741  10.646
11780TIP3    H156831   3.570   0.729  10.584
11780TIP3    H256832   3.720   0.747  10.590
11781TIP3   OH256833   6.300   4.153   3.798
11781TIP3    H156834   6.333   4.067   3.770
11781TIP3    H256835   6.228   4.171   3.737
11782TIP3   OH256836   0.738   3.954   4.903
11782TIP3    H156837   0.815   3.914   4.943
11782TIP3    H256838   0.736   4.043   4.940
11783TIP3   OH256839   1.506   0.631  13.122
11783TIP3    H156840   1.533   0.564  13.185
11783TIP3    H256841   1.413   0.645  13.141
11784TIP3   OH256842   6.212   1.419  12.692
11784TIP3    H156843   6.167   1.398  12.610
11784TIP3    H256844   6.225   1.514  12.689
11785TIP3   OH256845   1.898   3.372   1.125
11785TIP3    H156846   1.946   3.421   1.058
11785TIP3    H256847   1.910   3.422   1.205
11786TIP3   OH256848   1.870   2.316  14.670
11786TIP3    H156849   1.815   2.303  14.747
11786TIP3    H256850   1.922   2.394  14.691
11787TIP3   OH256851   5.212   1.320   0.510
11787TIP3    H156852   5.223   1.264   0.433
11787TIP3    H256853   5.214   1.409   0.475
11788TIP3   OH256854   1.831   0.643   0.570
11788TIP3    H156855   1.897   0.618   0.635
11788TIP3    H256856   1.881   0.686   0.501
11789TIP3   OH256857   5.504   6.240  14.492
11789TIP3    H156858   5.493   6.150  14.462
11789TIP3    H256859   5.581   6.236  14.549
11790TIP3   OH256860   2.224   3.491   0.709
11790TIP3    H156861   2.219   3.444   0.626
11790TIP3    H256862   2.273   3.432   0.767
11791TIP3   OH256863   6.659   4.766   2.210
11791TIP3    H156864   6.676   4.701   2.142
11791TIP3    H256865   6.676   4.720   2.292
11792TIP3   OH256866   1.953   6.234   1.853
11792TIP3    H156867   1.905   6.281   1.921
11792TIP3    H256868   1.970   6.148   1.892
11793TIP3   OH256869   2.810   4.740   5.033
11793TIP3    H156870   2.769   4.787   5.106
11793TIP3    H256871   2.871   4.679   5.075
11794TIP3   OH256872   3.290   0.422  10.715
11794TIP3    H156873   3.254   0.486  10.654
11794TIP3    H256874   3.217   0.361  10.731
11795TIP3   OH256875   2.446   2.090  16.270
11795TIP3    H156876   2.488   2.097  16.355
11795TIP3    H256877   2.510   2.045  16.215
11796TIP3   OH256878   5.790   5.395   5.947
11796TIP3    H156879   5.762   5.444   6.024
11796TIP3    H256880   5.712   5.346   5.920
11797TIP3   OH256881   1.225   3.404   5.340
11797TIP3    H156882   1.174   3.485   5.340
11797TIP3    H256883   1.175   3.343   5.394
11798TIP3   OH256884   3.231   2.892  15.753
11798TIP3    H156885   3.317   2.914  15.718
11798TIP3    H256886   3.191   2.976  15.775
11799TIP3   OH256887   5.526   2.872  16.061
11799TIP3    H156888   5.458   2.875  16.128
11799TIP3    H256889   5.481   2.844  15.982
11800TIP3   OH256890   0.744   0.207  13.975
11800TIP3    H156891   0.770   0.202  14.067
11800TIP3    H256892   0.659   0.252  13.977
11801TIP3   OH256893   1.620   3.266  14.373
11801TIP3    H156894   1.542   3.320  14.358
11801TIP3    H256895   1.589   3.194  14.428
11802TIP3   OH256896   0.794   1.544   5.802
11802TIP3    H156897   0.779   1.600   5.877
11802TIP3    H256898   0.861   1.589   5.751
11803TIP3   OH256899   5.203   5.737  16.339
11803TIP3    H156900   5.161   5.805  16.286
11803TIP3    H256901   5.155   5.658  16.319
11804TIP3   OH256902   2.881   0.834   2.802
11804TIP3    H156903   2.883   0.819   2.708
11804TIP3    H256904   2.821   0.769   2.836
11805TIP3   OH256905   1.210   1.280  15.898
11805TIP3    H156906   1.168   1.243  15.975
11805TIP3    H256907   1.242   1.205  15.849
11806TIP3   OH256908   3.167   6.457  11.424
11806TIP3    H156909   3.213   6.484  11.503
11806TIP3    H256910   3.232   6.467  11.354
11807TIP3   OH256911   2.795   5.868  11.967
11807TIP3    H156912   2.833   5.932  12.027
11807TIP3    H256913   2.791   5.914  11.883
11808TIP3   OH256914   0.867   5.139   4.715
11808TIP3    H156915   0.907   5.099   4.792
11808TIP3    H256916   0.850   5.229   4.741
11809TIP3   OH256917   6.812   6.370   5.518
11809TIP3    H156918   6.777   6.293   5.474
11809TIP3    H256919   6.734   6.416   5.551
11810TIP3   OH256920   5.997   5.490   0.413
11810TIP3    H156921   5.993   5.491   0.509
11810TIP3    H256922   5.930   5.428   0.386
11811TIP3   OH256923   0.608   6.766   1.813
11811TIP3    H156924   0.561   6.689   1.781
11811TIP3    H256925   0.673   6.783   1.745
11812TIP3   OH256926   1.569   0.837  12.894
11812TIP3    H156927   1.519   0.775  12.947
11812TIP3    H256928   1.582   0.913  12.951
11813TIP3   OH256929   2.884   0.087   1.738
11813TIP3    H156930   2.815   0.153   1.730
11813TIP3    H256931   2.842   0.004   1.716
11814TIP3   OH256932   2.328   2.492   2.706
11814TIP3    H156933   2.274   2.452   2.638
11814TIP3    H256934   2.409   2.440   2.707
11815TIP3   OH256935   1.865   3.634  14.231
11815TIP3    H156936   1.831   3.553  14.194
11815TIP3    H256937   1.924   3.606  14.301
11816TIP3   OH256938   5.901   4.149  16.380
11816TIP3    H156939   5.985   4.194  16.369
11816TIP3    H256940   5.883   4.155  16.474
11817TIP3   OH256941   6.564   2.179   0.382
11817TIP3    H156942   6.574   2.245   0.450
11817TIP3    H256943   6.478   2.140   0.399
11818TIP3   OH256944   3.832   6.710  14.136
11818TIP3    H156945   3.826   6.624  14.094
11818TIP3    H256946   3.919   6.711  14.176
11819TIP3   OH256947   4.923   4.250  10.880
11819TIP3    H156948   4.880   4.236  10.795
11819TIP3    H256949   4.866   4.313  10.925
11820TIP3   OH256950   5.346   0.086   0.718
11820TIP3    H156951   5.386   0.001   0.736
11820TIP3    H256952   5.279   0.067   0.652
11821TIP3   OH256953   0.301   2.056  11.375
11821TIP3    H156954   0.213   2.052  11.413
11821TIP3    H256955   0.300   2.136  11.322
11822TIP3   OH256956   1.678   6.477  11.175
11822TIP3    H156957   1.733   6.461  11.252
11822TIP3    H256958   1.596   6.431  11.194
11823TIP3   OH256959   2.491   3.261  13.936
11823TIP3    H156960   2.450   3.339  13.972
11823TIP3    H256961   2.566   3.294  13.886
11824TIP3   OH256962   6.549   1.724   3.202
11824TIP3    H156963   6.508   1.707   3.287
11824TIP3    H256964   6.553   1.820   3.196
11825TIP3   OH256965   4.501   2.234  11.427
11825TIP3    H156966   4.539   2.155  11.388
11825TIP3    H256967   4.438   2.201  11.492
11826TIP3   OH256968   6.256   4.365   4.763
11826TIP3    H156969   6.288   4.275   4.757
11826TIP3    H256970   6.168   4.358   4.799
11827TIP3   OH256971   5.111   1.264  16.960
11827TIP3    H156972   5.184   1.299  16.910
11827TIP3    H256973   5.081   1.189  16.908
11828TIP3   OH256974   3.018   3.198   5.725
11828TIP3    H156975   3.070   3.267   5.684
11828TIP3    H256976   2.990   3.235   5.808
11829TIP3   OH256977   5.214   6.552   0.889
11829TIP3    H156978   5.286   6.515   0.839
11829TIP3    H256979   5.137   6.505   0.859
11830TIP3   OH256980   2.747   0.732  15.365
11830TIP3    H156981   2.835   0.701  15.343
11830TIP3    H256982   2.744   0.822  15.332
11831TIP3   OH256983   2.328   4.869  12.485
11831TIP3    H156984   2.356   4.951  12.525
11831TIP3    H256985   2.234   4.881  12.470
11832TIP3   OH256986   3.433   4.629   0.010
11832TIP3    H156987   3.352   4.642   0.060
11832TIP3    H256988   3.500   4.673   0.062
11833TIP3   OH256989   6.399   5.105  15.071
11833TIP3    H156990   6.486   5.101  15.112
11833TIP3    H256991   6.348   5.161  15.129
11834TIP3   OH256992   2.996   5.660  13.268
11834TIP3    H156993   3.064   5.715  13.308
11834TIP3    H256994   2.925   5.658  13.332
11835TIP3   OH256995   2.653   6.610  13.805
11835TIP3    H156996   2.609   6.645  13.728
11835TIP3    H256997   2.595   6.540  13.837
11836TIP3   OH256998   0.728   5.391  11.793
11836TIP3    H156999   0.677   5.471  11.806
11836TIP3    H257000   0.813   5.421  11.760
11837TIP3   OH257001   0.857   2.602  16.026
11837TIP3    H157002   0.900   2.653  15.957
11837TIP3    H257003   0.915   2.527  16.040
11838TIP3   OH257004   3.959   2.807  12.050
11838TIP3    H157005   3.918   2.867  12.111
11838TIP3    H257006   3.982   2.861  11.974
11839TIP3   OH257007   3.361   5.186  12.393
11839TIP3    H157008   3.382   5.096  12.366
11839TIP3    H257009   3.287   5.211  12.339
11840TIP3   OH257010   5.379   4.260  15.192
11840TIP3    H157011   5.451   4.312  15.229
11840TIP3    H257012   5.421   4.207  15.124
11841TIP3   OH257013   4.809   2.881  15.031
11841TIP3    H157014   4.779   2.797  14.997
11841TIP3    H257015   4.732   2.937  15.029
11842TIP3   OH257016   2.650   6.044  11.751
11842TIP3    H157017   2.573   6.001  11.714
11842TIP3    H257018   2.636   6.137  11.735
11843TIP3   OH257019   1.255   5.396   2.377
11843TIP3    H157020   1.253   5.381   2.283
11843TIP3    H257021   1.251   5.308   2.415
11844TIP3   OH257022   0.717   3.589  14.035
11844TIP3    H157023   0.656   3.563  13.966
11844TIP3    H257024   0.722   3.684  14.029
11845TIP3   OH257025   3.987   2.017   4.696
11845TIP3    H157026   4.005   1.991   4.605
11845TIP3    H257027   4.004   1.938   4.747
11846TIP3   OH257028   6.059   2.386  15.597
11846TIP3    H157029   6.064   2.332  15.677
11846TIP3    H257030   6.147   2.379  15.559
11847TIP3   OH257031   6.526   2.537  12.617
11847TIP3    H157032   6.447   2.572  12.660
11847TIP3    H257033   6.558   2.610  12.563
11848TIP3   OH257034   2.173   5.606   0.490
11848TIP3    H157035   2.094   5.555   0.508
11848TIP3    H257036   2.243   5.559   0.535
11849TIP3   OH257037   5.468   6.533  17.169
11849TIP3    H157038   5.535   6.466  17.182
11849TIP3    H257039   5.417   6.533  17.250
11850TIP3   OH257040   5.557   6.325   4.436
11850TIP3    H157041   5.534   6.324   4.529
11850TIP3    H257042   5.549   6.416   4.410
11851TIP3   OH257043   4.438   3.871  17.146
11851TIP3    H157044   4.468   3.781  17.134
11851TIP3    H257045   4.380   3.867  17.221
11852TIP3   OH257046   6.183   1.880  12.234
11852TIP3    H157047   6.274   1.852  12.238
11852TIP3    H257048   6.185   1.973  12.256
11853TIP3   OH257049   2.168   0.911   2.676
11853TIP3    H157050   2.099   0.977   2.666
11853TIP3    H257051   2.227   0.947   2.742
11854TIP3   OH257052   1.914   5.532  13.636
11854TIP3    H157053   1.914   5.436  13.645
11854TIP3    H257054   1.834   5.560  13.681
11855TIP3   OH257055   5.104   0.129  14.796
11855TIP3    H157056   5.113   0.188  14.871
11855TIP3    H257057   5.060   0.052  14.831
11856TIP3   OH257058   5.772   3.227   5.119
11856TIP3    H157059   5.765   3.320   5.141
11856TIP3    H257060   5.744   3.181   5.198
11857TIP3   OH257061   6.705   5.025  15.796
11857TIP3    H157062   6.788   5.006  15.751
11857TIP3    H257063   6.693   4.950  15.855
11858TIP3   OH257064   6.754   6.240  15.309
11858TIP3    H157065   6.823   6.235  15.376
11858TIP3    H257066   6.697   6.166  15.327
11859TIP3   OH257067   1.660   5.884  14.327
11859TIP3    H157068   1.692   5.837  14.251
11859TIP3    H257069   1.569   5.854  14.337
11860TIP3   OH257070   5.148   3.015  11.693
11860TIP3    H157071   5.178   2.988  11.779
11860TIP3    H257072   5.053   3.026  11.703
11861TIP3   OH257073   2.932   2.617  15.136
11861TIP3    H157074   2.956   2.685  15.072
11861TIP3    H257075   3.001   2.552  15.128
11862TIP3   OH257076   5.841   6.135  15.350
11862TIP3    H157077   5.815   6.050  15.386
11862TIP3    H257078   5.760   6.175  15.320
11863TIP3   OH257079   0.989   5.304   3.023
11863TIP3    H157080   1.015   5.390   3.057
11863TIP3    H257081   0.931   5.268   3.090
11864TIP3   OH257082   4.204   0.653   4.659
11864TIP3    H157083   4.228   0.728   4.714
11864TIP3    H257084   4.248   0.579   4.699
11865TIP3   OH257085   1.295   3.202   4.080
11865TIP3    H157086   1.280   3.112   4.109
11865TIP3    H257087   1.389   3.216   4.092
11866TIP3   OH257088   3.906   1.240  15.117
11866TIP3    H157089   3.815   1.263  15.135
11866TIP3    H257090   3.956   1.313  15.154
11867TIP3   OH257091   3.090   4.736   5.891
11867TIP3    H157092   3.088   4.678   5.967
11867TIP3    H257093   3.036   4.692   5.826
11868TIP3   OH257094   2.169   4.280  13.275
11868TIP3    H157095   2.148   4.304  13.185
11868TIP3    H257096   2.145   4.188  13.282
11869TIP3   OH257097   4.311   0.536  15.414
11869TIP3    H157098   4.281   0.446  15.401
11869TIP3    H257099   4.309   0.547  15.509
11870TIP3   OH257100   0.068   6.173   2.717
11870TIP3    H157101   0.050   6.258   2.678
11870TIP3    H257102   0.103   6.120   2.644
11871TIP3   OH257103   1.989   2.257  11.595
11871TIP3    H157104   1.936   2.183  11.627
11871TIP3    H257105   2.078   2.236  11.623
11872TIP3   OH257106   2.364   5.421  16.164
11872TIP3    H157107   2.300   5.450  16.099
11872TIP3    H257108   2.314   5.368  16.226
11873TIP3   OH257109   2.195   3.488  17.273
11873TIP3    H157110   2.170   3.398  17.294
11873TIP3    H257111   2.114   3.538  17.278
11874TIP3   OH257112   5.151   0.936   1.483
11874TIP3    H157113   5.130   0.857   1.432
11874TIP3    H257114   5.184   0.903   1.567
11875TIP3   OH257115   4.671   4.960   0.998
11875TIP3    H157116   4.741   4.914   1.044
11875TIP3    H257117   4.596   4.902   1.005
11876TIP3   OH257118   2.533   1.626  16.473
11876TIP3    H157119   2.498   1.661  16.392
11876TIP3    H257120   2.574   1.543  16.448
11877TIP3   OH257121   3.437   2.425  14.236
11877TIP3    H157122   3.351   2.429  14.278
11877TIP3    H257123   3.418   2.423  14.142
11878TIP3   OH257124   6.078   1.185  15.698
11878TIP3    H157125   6.145   1.221  15.640
11878TIP3    H257126   6.087   1.090  15.688
11879TIP3   OH257127   2.533   4.667  16.269
11879TIP3    H157128   2.438   4.656  16.271
11879TIP3    H257129   2.566   4.602  16.331
11880TIP3   OH257130   3.772   3.440  14.755
11880TIP3    H157131   3.848   3.424  14.699
11880TIP3    H257132   3.788   3.527  14.792
11881TIP3   OH257133   3.586   0.244  15.758
11881TIP3    H157134   3.681   0.257  15.765
11881TIP3    H257135   3.562   0.204  15.842
11882TIP3   OH257136   0.794   6.550   0.026
11882TIP3    H157137   0.812   6.543  -0.068
11882TIP3    H257138   0.856   6.616   0.057
11883TIP3   OH257139   5.429   6.571  15.049
11883TIP3    H157140   5.394   6.649  15.005
11883TIP3    H257141   5.470   6.604  15.128
11884TIP3   OH257142   4.218   3.258  13.305
11884TIP3    H157143   4.234   3.348  13.334
11884TIP3    H257144   4.306   3.223  13.289
11885TIP3   OH257145   4.346   3.739  16.690
11885TIP3    H157146   4.329   3.787  16.609
11885TIP3    H257147   4.276   3.766  16.750
11886TIP3   OH257148   4.446   0.073   1.963
11886TIP3    H157149   4.523   0.070   2.019
11886TIP3    H257150   4.468   0.137   1.895
11887TIP3   OH257151   4.903   3.249   1.413
11887TIP3    H157152   4.851   3.264   1.333
11887TIP3    H257153   4.985   3.295   1.397
11888TIP3   OH257154   5.728   5.422   2.251
11888TIP3    H157155   5.697   5.337   2.284
11888TIP3    H257156   5.659   5.484   2.274
11889TIP3   OH257157   4.079   2.840  14.710
11889TIP3    H157158   4.035   2.770  14.662
11889TIP3    H257159   4.025   2.917  14.693
11890TIP3   OH257160   2.749   2.117   5.585
11890TIP3    H157161   2.836   2.081   5.567
11890TIP3    H257162   2.721   2.071   5.665
11891TIP3   OH257163   3.024   2.648  16.158
11891TIP3    H157164   2.941   2.602  16.150
11891TIP3    H257165   3.035   2.661  16.253
11892TIP3   OH257166   0.282   5.606   0.908
11892TIP3    H157167   0.214   5.554   0.952
11892TIP3    H257168   0.321   5.657   0.979
11893TIP3   OH257169   1.406   2.240  13.728
11893TIP3    H157170   1.424   2.304  13.797
11893TIP3    H257171   1.492   2.219  13.692
11894TIP3   OH257172   1.288   4.986   2.663
11894TIP3    H157173   1.348   4.996   2.737
11894TIP3    H257174   1.209   5.033   2.689
11895TIP3   OH257175   1.643   1.894   1.754
11895TIP3    H157176   1.702   1.958   1.793
11895TIP3    H257177   1.701   1.835   1.705
11896TIP3   OH257178   0.877   4.539  16.532
11896TIP3    H157179   0.943   4.585  16.481
11896TIP3    H257180   0.823   4.608  16.569
11897TIP3   OH257181   4.544   2.126   0.072
11897TIP3    H157182   4.509   2.051   0.024
11897TIP3    H257183   4.535   2.103   0.164
11898TIP3   OH257184   4.924   3.121  12.147
11898TIP3    H157185   4.866   3.055  12.109
11898TIP3    H257186   4.962   3.079  12.224
11899TIP3   OH257187   1.633   2.439  13.338
11899TIP3    H157188   1.640   2.519  13.389
11899TIP3    H257189   1.721   2.402  13.338
11900TIP3   OH257190   3.430   2.305   1.568
11900TIP3    H157191   3.486   2.369   1.524
11900TIP3    H257192   3.465   2.220   1.543
11901TIP3   OH257193   0.467   1.085   4.378
11901TIP3    H157194   0.528   1.036   4.433
11901TIP3    H257195   0.462   1.171   4.418
11902TIP3   OH257196   1.287   5.316  13.620
11902TIP3    H157197   1.195   5.334  13.600
11902TIP3    H257198   1.291   5.220  13.625
11903TIP3   OH257199   2.564   0.246   1.251
11903TIP3    H157200   2.646   0.216   1.289
11903TIP3    H257201   2.531   0.312   1.311
11904TIP3   OH257202   5.819   4.287   5.659
11904TIP3    H157203   5.889   4.348   5.637
11904TIP3    H257204   5.860   4.221   5.715
11905TIP3   OH257205   1.029   3.293  12.117
11905TIP3    H157206   0.977   3.320  12.193
11905TIP3    H257207   0.967   3.296  12.043
11906TIP3   OH257208   2.578   2.810  11.448
11906TIP3    H157209   2.495   2.773  11.476
11906TIP3    H257210   2.580   2.795  11.354
11907TIP3   OH257211   2.671   6.247   6.838
11907TIP3    H157212   2.711   6.332   6.857
11907TIP3    H257213   2.741   6.197   6.795
11908TIP3   OH257214   6.397   5.160  13.924
11908TIP3    H157215   6.313   5.166  13.878
11908TIP3    H257216   6.436   5.079  13.892
11909TIP3   OH257217   5.053   0.109  15.717
11909TIP3    H157218   5.101   0.107  15.800
11909TIP3    H257219   5.008   0.024  15.714
11910TIP3   OH257220   0.147   0.734  16.724
11910TIP3    H157221   0.224   0.703  16.773
11910TIP3    H257222   0.126   0.818  16.764
11911TIP3   OH257223   6.026   4.054   0.126
11911TIP3    H157224   6.117   4.085   0.125
11911TIP3    H257225   5.989   4.092   0.206
11912TIP3   OH257226   2.364   4.692  13.867
11912TIP3    H157227   2.328   4.773  13.902
11912TIP3    H257228   2.378   4.710  13.774
11913TIP3   OH257229   2.645   6.097   3.049
11913TIP3    H157230   2.727   6.141   3.074
11913TIP3    H257231   2.668   6.005   3.043
11914TIP3   OH257232   1.669   4.166  15.485
11914TIP3    H157233   1.663   4.189  15.578
11914TIP3    H257234   1.583   4.188  15.449
11915TIP3   OH257235   2.989   0.257  14.909
11915TIP3    H157236   2.918   0.308  14.870
11915TIP3    H257237   3.050   0.323  14.942
11916TIP3   OH257238   4.894   6.227   4.588
11916TIP3    H157239   4.911   6.259   4.499
11916TIP3    H257240   4.839   6.295   4.628
11917TIP3   OH257241   1.759   0.937   2.382
11917TIP3    H157242   1.807   0.866   2.340
11917TIP3    H257243   1.793   1.017   2.342
11918TIP3   OH257244   6.122   4.300   3.330
11918TIP3    H157245   6.181   4.376   3.327
11918TIP3    H257246   6.042   4.329   3.287
11919TIP3   OH257247   1.805   6.383   1.296
11919TIP3    H157248   1.733   6.442   1.315
11919TIP3    H257249   1.860   6.386   1.374
11920TIP3   OH257250   2.744   1.802  14.975
11920TIP3    H157251   2.771   1.878  14.922
11920TIP3    H257252   2.686   1.839  15.041
11921TIP3   OH257253   2.115   1.523  11.846
11921TIP3    H157254   2.057   1.447  11.837
11921TIP3    H257255   2.201   1.491  11.819
11922TIP3   OH257256   5.570   4.510  14.888
11922TIP3    H157257   5.617   4.462  14.820
11922TIP3    H257258   5.636   4.528  14.955
11923TIP3   OH257259   5.350   5.694  17.202
11923TIP3    H157260   5.421   5.662  17.146
11923TIP3    H257261   5.296   5.617  17.219
11924TIP3   OH257262   6.421   6.553   4.972
11924TIP3    H157263   6.404   6.562   5.066
11924TIP3    H257264   6.413   6.642   4.938
11925TIP3   OH257265   0.496   0.151   0.308
11925TIP3    H157266   0.544   0.076   0.343
11925TIP3    H257267   0.462   0.195   0.386
11926TIP3   OH257268   6.469   4.361  14.817
11926TIP3    H157269   6.487   4.270  14.793
11926TIP3    H257270   6.545   4.388  14.868
11927TIP3   OH257271   0.231   2.777   1.680
11927TIP3    H157272   0.271   2.703   1.635
11927TIP3    H257273   0.305   2.827   1.714
11928TIP3   OH257274   3.660   6.442   4.386
11928TIP3    H157275   3.725   6.418   4.451
11928TIP3    H257276   3.647   6.363   4.334
11929TIP3   OH257277   5.225   4.453  14.298
11929TIP3    H157278   5.169   4.386  14.337
11929TIP3    H257279   5.312   4.414  14.299
11930TIP3   OH257280   0.624   1.553   2.656
11930TIP3    H157281   0.588   1.636   2.689
11930TIP3    H257282   0.713   1.550   2.691
11931TIP3   OH257283   4.262   0.651   5.084
11931TIP3    H157284   4.184   0.674   5.034
11931TIP3    H257285   4.325   0.720   5.063
11932TIP3   OH257286   5.803   2.803   5.466
11932TIP3    H157287   5.732   2.766   5.518
11932TIP3    H257288   5.879   2.801   5.524
11933TIP3   OH257289   1.854   4.644   2.523
11933TIP3    H157290   1.886   4.711   2.462
11933TIP3    H257291   1.884   4.561   2.485
11934TIP3   OH257292   5.288   6.688  16.405
11934TIP3    H157293   5.233   6.650  16.336
11934TIP3    H257294   5.312   6.613  16.460
11935TIP3   OH257295   0.993   2.350  16.072
11935TIP3    H157296   0.936   2.358  16.148
11935TIP3    H257297   1.061   2.288  16.099
11936TIP3   OH257298   2.111   0.286  11.079
11936TIP3    H157299   2.134   0.248  10.994
11936TIP3    H257300   2.185   0.342  11.101
11937TIP3   OH257301   5.419   1.884   4.103
11937TIP3    H157302   5.349   1.858   4.163
11937TIP3    H257303   5.436   1.976   4.125
11938TIP3   OH257304   6.340   2.657   5.143
11938TIP3    H157305   6.420   2.619   5.180
11938TIP3    H257306   6.370   2.723   5.081
11939TIP3   OH257307   4.058   0.978  11.225
11939TIP3    H157308   4.125   1.009  11.165
11939TIP3    H257309   4.003   0.920  11.172
11940TIP3   OH257310   5.004   2.747  17.220
11940TIP3    H157311   4.992   2.656  17.248
11940TIP3    H257312   5.090   2.749  17.179
11941TIP3   OH257313   6.509   3.619   0.569
11941TIP3    H157314   6.431   3.585   0.525
11941TIP3    H257315   6.558   3.664   0.499
11942TIP3   OH257316   2.385   2.840   4.595
11942TIP3    H157317   2.357   2.748   4.592
11942TIP3    H257318   2.408   2.856   4.686
11943TIP3   OH257319   6.803   2.060   5.387
11943TIP3    H157320   6.867   2.031   5.452
11943TIP3    H257321   6.827   2.013   5.307
11944TIP3   OH257322   0.331   3.929  16.311
11944TIP3    H157323   0.315   3.845  16.267
11944TIP3    H257324   0.324   3.994  16.241
11945TIP3   OH257325   3.848   5.614   3.759
11945TIP3    H157326   3.824   5.522   3.752
11945TIP3    H257327   3.778   5.653   3.811
11946TIP3   OH257328   4.531   6.188   0.801
11946TIP3    H157329   4.471   6.254   0.765
11946TIP3    H257330   4.524   6.114   0.740
11947TIP3   OH257331   0.362   6.760  13.940
11947TIP3    H157332   0.451   6.777  13.910
11947TIP3    H257333   0.368   6.678  13.988
11948TIP3   OH257334   0.927   2.459  13.054
11948TIP3    H157335   0.967   2.373  13.071
11948TIP3    H257336   0.898   2.454  12.963
11949TIP3   OH257337   3.179   5.539   2.846
11949TIP3    H157338   3.095   5.575   2.819
11949TIP3    H257339   3.160   5.448   2.869
11950TIP3   OH257340   5.035   0.472   0.313
11950TIP3    H157341   5.045   0.554   0.265
11950TIP3    H257342   5.089   0.482   0.391
11951TIP3   OH257343   6.785   1.718   4.941
11951TIP3    H157344   6.781   1.711   4.845
11951TIP3    H257345   6.873   1.690   4.964
11952TIP3   OH257346   0.397   0.114   1.819
11952TIP3    H157347   0.447   0.196   1.816
11952TIP3    H257348   0.463   0.045   1.810
11953TIP3   OH257349   2.846   4.307   4.161
11953TIP3    H157350   2.909   4.315   4.233
11953TIP3    H257351   2.765   4.341   4.197
11954TIP3   OH257352   4.833   4.550  16.061
11954TIP3    H157353   4.897   4.489  16.099
11954TIP3    H257354   4.886   4.623  16.030
11955TIP3   OH257355   5.484   2.347  13.769
11955TIP3    H157356   5.452   2.287  13.702
11955TIP3    H257357   5.528   2.416  13.720
11956TIP3   OH257358   4.510   5.199  14.832
11956TIP3    H157359   4.584   5.194  14.772
11956TIP3    H257360   4.525   5.279  14.882
11957TIP3   OH257361   0.868   1.561   5.304
11957TIP3    H157362   0.823   1.477   5.314
11957TIP3    H257363   0.799   1.623   5.280
11958TIP3   OH257364   4.793   5.614   0.276
11958TIP3    H157365   4.771   5.631   0.184
11958TIP3    H257366   4.733   5.671   0.325
11959TIP3   OH257367   0.923   6.520   6.523
11959TIP3    H157368   0.896   6.475   6.603
11959TIP3    H257369   0.938   6.450   6.460
11960TIP3   OH257370   1.862   1.866   2.231
11960TIP3    H157371   1.785   1.908   2.192
11960TIP3    H257372   1.901   1.816   2.159
11961TIP3   OH257373   2.498   0.277  16.997
11961TIP3    H157374   2.498   0.353  16.939
11961TIP3    H257375   2.410   0.275  17.034
11962TIP3   OH257376   3.049   0.836  16.038
11962TIP3    H157377   3.109   0.870  16.104
11962TIP3    H257378   3.068   0.887  15.959
11963TIP3   OH257379   1.893   4.045  16.625
11963TIP3    H157380   1.806   4.045  16.664
11963TIP3    H257381   1.882   4.085  16.539
11964TIP3   OH257382   3.448   3.083  13.185
11964TIP3    H157383   3.435   3.125  13.270
11964TIP3    H257384   3.360   3.073  13.149
11965TIP3   OH257385   4.357   5.863  15.746
11965TIP3    H157386   4.267   5.847  15.716
11965TIP3    H257387   4.354   5.847  15.840
11966TIP3   OH257388   4.895   1.827   4.185
11966TIP3    H157389   4.826   1.761   4.182
11966TIP3    H257390   4.949   1.809   4.108
11967TIP3   OH257391   1.939   3.790   3.663
11967TIP3    H157392   1.926   3.876   3.623
11967TIP3    H257393   2.018   3.800   3.716
11968TIP3   OH257394   5.284   1.448   0.024
11968TIP3    H157395   5.203   1.418  -0.018
11968TIP3    H257396   5.262   1.535   0.058
11969TIP3   OH257397   6.185   2.383   2.303
11969TIP3    H157398   6.120   2.364   2.236
11969TIP3    H257399   6.250   2.437   2.259
11970TIP3   OH257400   2.970   2.743   1.282
11970TIP3    H157401   2.904   2.767   1.218
11970TIP3    H257402   3.044   2.711   1.230
11971TIP3   OH257403   4.130   4.849   2.503
11971TIP3    H157404   4.132   4.941   2.476
11971TIP3    H257405   4.100   4.802   2.425
11972TIP3   OH257406   4.992   2.624   3.900
11972TIP3    H157407   5.008   2.533   3.875
11972TIP3    H257408   5.006   2.625   3.995
11973TIP3   OH257409   2.660   5.454  13.632
11973TIP3    H157410   2.731   5.486  13.687
11973TIP3    H257411   2.582   5.462  13.687
11974TIP3   OH257412   0.493   4.105  15.443
11974TIP3    H157413   0.503   4.148  15.528
11974TIP3    H257414   0.578   4.066  15.426
11975TIP3   OH257415   4.286   5.434   0.478
11975TIP3    H157416   4.266   5.502   0.542
11975TIP3    H257417   4.265   5.352   0.523
11976TIP3   OH257418   4.886   3.212   1.894
11976TIP3    H157419   4.833   3.271   1.947
11976TIP3    H257420   4.925   3.268   1.827
11977TIP3   OH257421   1.893   5.198  13.036
11977TIP3    H157422   1.821   5.145  13.068
11977TIP3    H257423   1.960   5.135  13.011
11978TIP3   OH257424   5.773   3.502  11.411
11978TIP3    H157425   5.782   3.441  11.338
11978TIP3    H257426   5.859   3.545  11.416
11979TIP3   OH257427   5.664   4.938  16.468
11979TIP3    H157428   5.719   4.938  16.390
11979TIP3    H257429   5.583   4.896  16.440
11980TIP3   OH257430   2.856   3.441   3.277
11980TIP3    H157431   2.893   3.408   3.358
11980TIP3    H257432   2.832   3.362   3.228
11981TIP3   OH257433   0.736   4.268   3.027
11981TIP3    H157434   0.647   4.257   3.060
11981TIP3    H257435   0.786   4.299   3.103
11982TIP3   OH257436   5.983   6.266   0.950
11982TIP3    H157437   5.891   6.292   0.951
11982TIP3    H257438   6.028   6.340   0.910
11983TIP3   OH257439   2.256   6.041   4.655
11983TIP3    H157440   2.244   6.108   4.588
11983TIP3    H257441   2.269   5.960   4.606
11984TIP3   OH257442   5.645   4.379  13.892
11984TIP3    H157443   5.739   4.374  13.909
11984TIP3    H257444   5.634   4.334  13.808
11985TIP3   OH257445   2.294   0.690   2.499
11985TIP3    H157446   2.371   0.663   2.549
11985TIP3    H257447   2.311   0.657   2.411
11986TIP3   OH257448   3.968   5.629  15.649
11986TIP3    H157449   3.915   5.561  15.692
11986TIP3    H257450   3.929   5.638  15.562
11987TIP3   OH257451   2.189   2.651   4.768
11987TIP3    H157452   2.159   2.572   4.812
11987TIP3    H257453   2.152   2.645   4.680
11988TIP3   OH257454   1.663   6.791   5.233
11988TIP3    H157455   1.596   6.812   5.169
11988TIP3    H257456   1.703   6.711   5.199
11989TIP3   OH257457   5.695   0.849   2.801
11989TIP3    H157458   5.659   0.769   2.763
11989TIP3    H257459   5.787   0.829   2.819
11990TIP3   OH257460   5.601   2.037   4.819
11990TIP3    H157461   5.666   2.078   4.878
11990TIP3    H257462   5.519   2.082   4.839
11991TIP3   OH257463   2.483   0.096  16.266
11991TIP3    H157464   2.435   0.102  16.184
11991TIP3    H257465   2.431   0.148  16.328
11992TIP3   OH257466   1.510   3.463  12.325
11992TIP3    H157467   1.502   3.399  12.396
11992TIP3    H257468   1.427   3.457  12.278
11993TIP3   OH257469   6.757   2.967  11.291
11993TIP3    H157470   6.788   2.893  11.343
11993TIP3    H257471   6.677   2.995  11.335
11994TIP3   OH257472   3.170   4.716  13.659
11994TIP3    H157473   3.124   4.799  13.672
11994TIP3    H257474   3.105   4.650  13.681
11995TIP3   OH257475   5.283   6.359  15.838
11995TIP3    H157476   5.319   6.394  15.757
11995TIP3    H257477   5.193   6.392  15.842
11996TIP3   OH257478   2.312   1.425  15.662
11996TIP3    H157479   2.242   1.486  15.684
11996TIP3    H257480   2.275   1.371  15.591
11997TIP3   OH257481   5.550   2.488  12.398
11997TIP3    H157482   5.550   2.396  12.424
11997TIP3    H257483   5.640   2.516  12.413
11998TIP3   OH257484   0.017   5.524  15.484
11998TIP3    H157485  -0.018   5.612  15.466
11998TIP3    H257486  -0.044   5.487  15.548
11999TIP3   OH257487   1.733   2.064   0.509
11999TIP3    H157488   1.696   1.995   0.564
11999TIP3    H257489   1.674   2.070   0.433
12000TIP3   OH257490   2.747   4.975   1.805
12000TIP3    H157491   2.677   4.924   1.845
12000TIP3    H257492   2.703   5.027   1.738
12001TIP3   OH257493   0.384   3.940   0.428
12001TIP3    H157494   0.427   3.856   0.412
12001TIP3    H257495   0.294   3.917   0.450
12002TIP3   OH257496   4.249   4.539   2.743
12002TIP3    H157497   4.222   4.627   2.769
12002TIP3    H257498   4.203   4.523   2.661
12003TIP3   OH257499   2.731   0.184  16.363
12003TIP3    H157500   2.652   0.130  16.357
12003TIP3    H257501   2.718   0.254  16.299
12004TIP3   OH257502   2.271   4.920  13.988
12004TIP3    H157503   2.177   4.933  13.976
12004TIP3    H257504   2.281   4.899  14.081
12005TIP3   OH257505   4.815   2.872   4.615
12005TIP3    H157506   4.741   2.862   4.555
12005TIP3    H257507   4.821   2.966   4.629
12006TIP3   OH257508   5.546   1.044  14.421
12006TIP3    H157509   5.512   1.045  14.332
12006TIP3    H257510   5.504   0.969  14.463
12007TIP3   OH257511   4.120   4.315  10.907
12007TIP3    H157512   4.206   4.338  10.943
12007TIP3    H257513   4.110   4.371  10.830
12008TIP3   OH257514   3.422   6.660  16.128
12008TIP3    H157515   3.375   6.577  16.118
12008TIP3    H257516   3.374   6.721  16.073
12009TIP3   OH257517   0.963   5.523   4.549
12009TIP3    H157518   0.976   5.503   4.456
12009TIP3    H257519   0.870   5.506   4.564
12010TIP3   OH257520   6.600   2.132  16.026
12010TIP3    H157521   6.509   2.155  16.006
12010TIP3    H257522   6.602   2.037  16.018
12011TIP3   OH257523   4.404   0.258   0.489
12011TIP3    H157524   4.421   0.171   0.525
12011TIP3    H257525   4.468   0.315   0.534
12012TIP3   OH257526   0.047   1.796  13.104
12012TIP3    H157527   0.004   1.816  13.021
12012TIP3    H257528   0.034   1.875  13.157
12013TIP3   OH257529   1.773   6.521   5.665
12013TIP3    H157530   1.830   6.548   5.592
12013TIP3    H257531   1.722   6.448   5.629
12014TIP3   OH257532   4.346   4.767  13.167
12014TIP3    H157533   4.350   4.801  13.256
12014TIP3    H257534   4.350   4.672  13.178
12015TIP3   OH257535   0.667   0.725  13.065
12015TIP3    H157536   0.753   0.754  13.036
12015TIP3    H257537   0.640   0.660  13.001
12016TIP3   OH257538   4.902   3.688  13.239
12016TIP3    H157539   4.971   3.653  13.183
12016TIP3    H257540   4.856   3.751  13.184
12017TIP3   OH257541   5.390   5.946  16.380
12017TIP3    H157542   5.353   5.859  16.364
12017TIP3    H257543   5.405   5.982  16.293
12018TIP3   OH257544   5.754   0.910  12.392
12018TIP3    H157545   5.757   0.834  12.335
12018TIP3    H257546   5.807   0.976  12.347
12019TIP3   OH257547   1.301   5.693  14.035
12019TIP3    H157548   1.246   5.648  13.972
12019TIP3    H257549   1.264   5.781  14.040
12020TIP3   OH257550   0.134   6.452  12.947
12020TIP3    H157551   0.114   6.537  12.909
12020TIP3    H257552   0.178   6.472  13.030
12021TIP3   OH257553   0.362   3.231  16.182
12021TIP3    H157554   0.333   3.177  16.256
12021TIP3    H257555   0.399   3.168  16.120
12022TIP3   OH257556   1.588   1.944   1.293
12022TIP3    H157557   1.669   1.993   1.308
12022TIP3    H257558   1.587   1.878   1.363
12023TIP3   OH257559   5.923   1.818   0.559
12023TIP3    H157560   5.831   1.790   0.561
12023TIP3    H257561   5.949   1.807   0.468
12024TIP3   OH257562   1.112   0.904   3.279
12024TIP3    H157563   1.159   0.985   3.264
12024TIP3    H257564   1.042   0.904   3.214
12025TIP3   OH257565   2.913   1.223   6.849
12025TIP3    H157566   2.950   1.135   6.842
12025TIP3    H257567   2.824   1.215   6.813
12026TIP3   OH257568   4.405   3.892   4.282
12026TIP3    H157569   4.497   3.892   4.257
12026TIP3    H257570   4.405   3.878   4.376
12027TIP3   OH257571   0.804   4.257   4.386
12027TIP3    H157572   0.854   4.203   4.447
12027TIP3    H257573   0.809   4.211   4.302
12028TIP3   OH257574   0.964   1.380   0.107
12028TIP3    H157575   1.028   1.316   0.077
12028TIP3    H257576   0.904   1.330   0.162
12029TIP3   OH257577   2.381   6.308  11.736
12029TIP3    H157578   2.372   6.380  11.798
12029TIP3    H257579   2.320   6.241  11.768
12030TIP3   OH257580   0.728   2.406   0.219
12030TIP3    H157581   0.822   2.390   0.223
12030TIP3    H257582   0.721   2.497   0.190
12031TIP3   OH257583   1.769   1.711   3.156
12031TIP3    H157584   1.837   1.712   3.089
12031TIP3    H257585   1.810   1.749   3.234
12032TIP3   OH257586   4.449   5.852   5.527
12032TIP3    H157587   4.436   5.764   5.562
12032TIP3    H257588   4.440   5.909   5.604
12033TIP3   OH257589   1.696   6.504  15.370
12033TIP3    H157590   1.699   6.441  15.442
12033TIP3    H257591   1.760   6.571  15.394
12034TIP3   OH257592   4.824   3.054   3.916
12034TIP3    H157593   4.812   3.120   3.848
12034TIP3    H257594   4.865   2.980   3.871
12035TIP3   OH257595   2.104   0.336   0.846
12035TIP3    H157596   2.033   0.274   0.829
12035TIP3    H257597   2.154   0.296   0.917
12036TIP3   OH257598   1.068   2.210   2.533
12036TIP3    H157599   1.028   2.217   2.446
12036TIP3    H257600   1.073   2.301   2.564
12037TIP3   OH257601   2.603   2.849   5.593
12037TIP3    H157602   2.549   2.835   5.671
12037TIP3    H257603   2.632   2.762   5.568
12038TIP3   OH257604   5.952   2.998   3.815
12038TIP3    H157605   6.041   3.003   3.781
12038TIP3    H257606   5.902   3.059   3.761
12039TIP3   OH257607   5.841   3.691   0.174
12039TIP3    H157608   5.790   3.610   0.177
12039TIP3    H257609   5.825   3.733   0.258
12040TIP3   OH257610   0.248   0.747   0.887
12040TIP3    H157611   0.204   0.719   0.807
12040TIP3    H257612   0.179   0.792   0.937
12041TIP3   OH257613   3.715   3.770  13.210
12041TIP3    H157614   3.788   3.805  13.261
12041TIP3    H257615   3.643   3.830  13.227
12042TIP3   OH257616   6.632   0.906   5.240
12042TIP3    H157617   6.716   0.948   5.222
12042TIP3    H257618   6.618   0.920   5.334
12043TIP3   OH257619   3.694   6.653   0.623
12043TIP3    H157620   3.681   6.575   0.678
12043TIP3    H257621   3.662   6.627   0.537
12044TIP3   OH257622   2.438   3.647   6.107
12044TIP3    H157623   2.350   3.637   6.070
12044TIP3    H257624   2.438   3.588   6.182
12045TIP3   OH257625   3.779   0.643   1.291
12045TIP3    H157626   3.800   0.643   1.384
12045TIP3    H257627   3.761   0.552   1.270
12046TIP3   OH257628   4.099   6.769   0.500
12046TIP3    H157629   4.047   6.828   0.445
12046TIP3    H257630   4.122   6.696   0.441
12047TIP3   OH257631   2.882   4.572   6.369
12047TIP3    H157632   2.936   4.647   6.346
12047TIP3    H257633   2.939   4.496   6.354
12048TIP3   OH257634   5.595   5.953   2.453
12048TIP3    H157635   5.670   5.995   2.495
12048TIP3    H257636   5.626   5.927   2.367
12049TIP3   OH257637   5.637   2.873  12.834
12049TIP3    H157638   5.685   2.822  12.769
12049TIP3    H257639   5.705   2.924  12.879
12050TIP3   OH257640   0.273   2.957   5.641
12050TIP3    H157641   0.212   3.016   5.686
12050TIP3    H257642   0.233   2.870   5.652
12051TIP3   OH257643   3.909   2.796   2.723
12051TIP3    H157644   3.814   2.806   2.727
12051TIP3    H257645   3.938   2.804   2.814
12052TIP3   OH257646   5.999   1.192   0.132
12052TIP3    H157647   6.064   1.227   0.193
12052TIP3    H257648   5.914   1.214   0.172
12053TIP3   OH257649   5.984   2.244   2.453
12053TIP3    H157650   6.053   2.298   2.414
12053TIP3    H257651   5.907   2.259   2.398
12054TIP3   OH257652   4.848   6.295   5.144
12054TIP3    H157653   4.764   6.278   5.187
12054TIP3    H257654   4.843   6.247   5.062
12055TIP3   OH257655   0.311   0.694  12.031
12055TIP3    H157656   0.331   0.604  12.006
12055TIP3    H257657   0.391   0.743  12.011
12056TIP3   OH257658   3.114   5.903   3.606
12056TIP3    H157659   3.078   5.930   3.521
12056TIP3    H257660   3.099   5.978   3.663
12057TIP3   OH257661   2.926   5.018  14.166
12057TIP3    H157662   2.930   5.025  14.261
12057TIP3    H257663   2.955   4.929  14.147
12058TIP3   OH257664   1.233   0.148   1.846
12058TIP3    H157665   1.325   0.150   1.819
12058TIP3    H257666   1.208   0.240   1.853
12059TIP3   OH257667   4.825   0.839   5.855
12059TIP3    H157668   4.822   0.846   5.760
12059TIP3    H257669   4.736   0.858   5.884
12060TIP3   OH257670   4.721   4.802   4.889
12060TIP3    H157671   4.793   4.811   4.826
12060TIP3    H257672   4.645   4.837   4.842
12061TIP3   OH257673   5.131   1.233   3.703
12061TIP3    H157674   5.108   1.175   3.630
12061TIP3    H257675   5.058   1.294   3.709
12062TIP3   OH257676   3.143   1.898   4.859
12062TIP3    H157677   3.225   1.876   4.815
12062TIP3    H257678   3.154   1.864   4.948
12063TIP3   OH257679   0.865   0.001  11.073
12063TIP3    H157680   0.838   0.054  11.148
12063TIP3    H257681   0.961   0.006  11.073
12064TIP3   OH257682   3.680   5.702  14.425
12064TIP3    H157683   3.734   5.623  14.415
12064TIP3    H257684   3.697   5.752  14.345
12065TIP3   OH257685   1.914   6.771   0.725
12065TIP3    H157686   2.009   6.772   0.738
12065TIP3    H257687   1.882   6.846   0.774
12066TIP3   OH257688   6.248   1.398  16.184
12066TIP3    H157689   6.280   1.336  16.250
12066TIP3    H257690   6.177   1.352  16.141
12067TIP3   OH257691   2.317   0.743  12.606
12067TIP3    H157692   2.345   0.824  12.649
12067TIP3    H257693   2.310   0.679  12.678
12068TIP3   OH257694   5.909   3.118  16.512
12068TIP3    H157695   5.978   3.112  16.578
12068TIP3    H257696   5.842   3.056  16.541
12069TIP3   OH257697   2.412   5.170  14.029
12069TIP3    H157698   2.401   5.184  14.123
12069TIP3    H257699   2.357   5.093  14.010
12070TIP3   OH257700   2.961   1.862   5.871
12070TIP3    H157701   2.868   1.868   5.892
12070TIP3    H257702   2.980   1.768   5.877
12071TIP3   OH257703   3.156   1.609  11.022
12071TIP3    H157704   3.172   1.693  11.065
12071TIP3    H257705   3.240   1.588  10.980
12072TIP3   OH257706   4.569   4.737  13.804
12072TIP3    H157707   4.637   4.693  13.855
12072TIP3    H257708   4.606   4.824  13.786
12073TIP3   OH257709   5.607   4.865  12.523
12073TIP3    H157710   5.629   4.932  12.458
12073TIP3    H257711   5.517   4.841  12.503
12074TIP3   OH257712   0.597   3.614  15.600
12074TIP3    H157713   0.547   3.561  15.662
12074TIP3    H257714   0.617   3.554  15.528
12075TIP3   OH257715   6.568   4.286  13.819
12075TIP3    H157716   6.483   4.242  13.820
12075TIP3    H257717   6.572   4.332  13.903
12076TIP3   OH257718   0.132   5.398   0.976
12076TIP3    H157719   0.038   5.399   0.961
12076TIP3    H257720   0.163   5.319   0.931
12077TIP3   OH257721   0.843   2.074  12.676
12077TIP3    H157722   0.935   2.100  12.670
12077TIP3    H257723   0.800   2.121  12.605
12078TIP3   OH257724   4.279   2.738   3.199
12078TIP3    H157725   4.204   2.752   3.257
12078TIP3    H257726   4.347   2.702   3.256
12079TIP3   OH257727   2.164   6.279  14.232
12079TIP3    H157728   2.197   6.363  14.262
12079TIP3    H257729   2.129   6.237  14.310
12080TIP3   OH257730   4.110   6.629   3.594
12080TIP3    H157731   4.184   6.598   3.646
12080TIP3    H257732   4.061   6.686   3.653
12081TIP3   OH257733   0.465   2.344   3.692
12081TIP3    H157734   0.438   2.285   3.621
12081TIP3    H257735   0.485   2.285   3.764
12082TIP3   OH257736   3.922   5.835   1.399
12082TIP3    H157737   4.005   5.795   1.371
12082TIP3    H257738   3.914   5.914   1.347
12083TIP3   OH257739   1.592   2.632   5.156
12083TIP3    H157740   1.680   2.621   5.191
12083TIP3    H257741   1.605   2.673   5.070
12084TIP3   OH257742   5.189   0.841  16.296
12084TIP3    H157743   5.261   0.802  16.346
12084TIP3    H257744   5.218   0.835  16.205
12085TIP3   OH257745   3.611   6.296   0.689
12085TIP3    H157746   3.652   6.212   0.709
12085TIP3    H257747   3.608   6.298   0.593
12086TIP3   OH257748   4.338   6.028   4.850
12086TIP3    H157749   4.286   6.017   4.931
12086TIP3    H257750   4.341   5.940   4.812
12087TIP3   OH257751   0.933   5.238  11.315
12087TIP3    H157752   0.946   5.321  11.270
12087TIP3    H257753   0.907   5.177  11.246
12088TIP3   OH257754   3.246   3.961  14.382
12088TIP3    H157755   3.201   3.924  14.306
12088TIP3    H257756   3.180   4.018  14.422
12089TIP3   OH257757   5.264   4.144  17.208
12089TIP3    H157758   5.337   4.188  17.165
12089TIP3    H257759   5.246   4.067  17.153
12090TIP3   OH257760   3.170   5.928  12.765
12090TIP3    H157761   3.181   5.993  12.835
12090TIP3    H257762   3.258   5.895  12.750
12091TIP3   OH257763   3.380   2.836  15.041
12091TIP3    H157764   3.391   2.893  14.965
12091TIP3    H257765   3.344   2.755  15.005
12092TIP3   OH257766   0.678   6.686   4.299
12092TIP3    H157767   0.747   6.752   4.305
12092TIP3    H257768   0.633   6.706   4.216
12093TIP3   OH257769   0.446   6.499  13.102
12093TIP3    H157770   0.493   6.425  13.064
12093TIP3    H257771   0.497   6.576  13.076
12094TIP3   OH257772   5.577   0.055  12.477
12094TIP3    H157773   5.504   0.079  12.420
12094TIP3    H257774   5.618  -0.019  12.433
12095TIP3   OH257775   5.178   2.251   1.081
12095TIP3    H157776   5.173   2.164   1.121
12095TIP3    H257777   5.168   2.235   0.987
12096TIP3   OH257778   3.706   6.720  15.193
12096TIP3    H157779   3.737   6.728  15.283
12096TIP3    H257780   3.624   6.769  15.192
12097TIP3   OH257781   0.391   0.055   0.642
12097TIP3    H157782   0.386   0.125   0.577
12097TIP3    H257783   0.303   0.047   0.677
12098TIP3   OH257784   2.688   0.202   5.410
12098TIP3    H157785   2.711   0.121   5.366
12098TIP3    H257786   2.595   0.214   5.393
12099TIP3   OH257787   0.039   5.493  16.791
12099TIP3    H157788  -0.025   5.561  16.773
12099TIP3    H257789   0.099   5.532  16.855
12100TIP3   OH257790   2.041   5.920   5.366
12100TIP3    H157791   2.002   5.883   5.287
12100TIP3    H257792   2.094   5.848   5.402
12101TIP3   OH257793   4.418   2.540  10.810
12101TIP3    H157794   4.353   2.499  10.753
12101TIP3    H257795   4.500   2.497  10.789
12102TIP3   OH257796   4.340   5.860  14.617
12102TIP3    H157797   4.373   5.788  14.671
12102TIP3    H257798   4.301   5.817  14.541
12103TIP3   OH257799   1.667   5.216   2.243
12103TIP3    H157800   1.649   5.209   2.337
12103TIP3    H257801   1.762   5.223   2.238
12104TIP3   OH257802   5.748   2.374  13.897
12104TIP3    H157803   5.810   2.363  13.825
12104TIP3    H257804   5.664   2.343  13.861
12105TIP3   OH257805   3.666   4.901   5.641
12105TIP3    H157806   3.602   4.885   5.572
12105TIP3    H257807   3.730   4.961   5.602
12106TIP3   OH257808   1.485   4.871  11.524
12106TIP3    H157809   1.471   4.777  11.533
12106TIP3    H257810   1.504   4.901  11.613
12107TIP3   OH257811   0.800   6.638  14.227
12107TIP3    H157812   0.753   6.567  14.183
12107TIP3    H257813   0.891   6.625  14.202
12108TIP3   OH257814   5.100   3.055  14.099
12108TIP3    H157815   5.109   3.032  14.192
12108TIP3    H257816   5.023   3.007  14.070
12109TIP3   OH257817   3.471   5.798  14.127
12109TIP3    H157818   3.518   5.854  14.065
12109TIP3    H257819   3.540   5.752  14.175
12110TIP3   OH257820   0.317   5.797  14.779
12110TIP3    H157821   0.380   5.734  14.815
12110TIP3    H257822   0.245   5.743  14.746
12111TIP3   OH257823   5.373   1.358   6.217
12111TIP3    H157824   5.301   1.417   6.239
12111TIP3    H257825   5.337   1.270   6.235
12112TIP3   OH257826   6.197   4.775  16.274
12112TIP3    H157827   6.171   4.866  16.291
12112TIP3    H257828   6.270   4.760  16.334
12113TIP3   OH257829   3.398   4.028   2.166
12113TIP3    H157830   3.369   3.938   2.183
12113TIP3    H257831   3.367   4.077   2.242
12114TIP3   OH257832   3.803   4.576   1.567
12114TIP3    H157833   3.844   4.634   1.503
12114TIP3    H257834   3.855   4.587   1.647
12115TIP3   OH257835   4.583   5.819  15.977
12115TIP3    H157836   4.502   5.826  16.026
12115TIP3    H257837   4.618   5.733  15.998
12116TIP3   OH257838   3.244   0.587  11.608
12116TIP3    H157839   3.273   0.643  11.535
12116TIP3    H257840   3.238   0.500  11.570
12117TIP3   OH257841   4.753   6.794  11.524
12117TIP3    H157842   4.780   6.881  11.498
12117TIP3    H257843   4.806   6.774  11.601
12118TIP3   OH257844   2.043   6.721   3.053
12118TIP3    H157845   2.058   6.755   2.965
12118TIP3    H257846   1.953   6.688   3.052
12119TIP3   OH257847   5.265   3.065   0.431
12119TIP3    H157848   5.248   3.078   0.524
12119TIP3    H257849   5.191   3.013   0.400
12120TIP3   OH257850   6.042   5.672  14.575
12120TIP3    H157851   5.982   5.744  14.556
12120TIP3    H257852   6.062   5.634  14.489
12121TIP3   OH257853   4.911   3.150   4.339
12121TIP3    H157854   4.909   3.232   4.290
12121TIP3    H257855   4.980   3.162   4.404
12122TIP3   OH257856   2.785   6.005   4.745
12122TIP3    H157857   2.816   6.088   4.782
12122TIP3    H257858   2.841   5.939   4.785
12123TIP3   OH257859   3.938   4.815   0.702
12123TIP3    H157860   3.852   4.841   0.672
12123TIP3    H257861   3.972   4.759   0.633
12124TIP3   OH257862   3.782   0.608   3.374
12124TIP3    H157863   3.800   0.517   3.398
12124TIP3    H257864   3.753   0.649   3.456
12125TIP3   OH257865   3.714   2.600  10.723
12125TIP3    H157866   3.676   2.658  10.657
12125TIP3    H257867   3.666   2.620  10.803
12126TIP3   OH257868   1.746   5.738   2.863
12126TIP3    H157869   1.772   5.647   2.852
12126TIP3    H257870   1.668   5.748   2.809
12127TIP3   OH257871   3.807   5.782   6.005
12127TIP3    H157872   3.795   5.737   5.921
12127TIP3    H257873   3.740   5.745   6.062
12128TIP3   OH257874   2.616   6.535  11.485
12128TIP3    H157875   2.657   6.530  11.398
12128TIP3    H257876   2.690   6.542  11.546
12129TIP3   OH257877   5.970   3.088  11.664
12129TIP3    H157878   6.036   3.048  11.606
12129TIP3    H257879   6.019   3.154  11.713
12130TIP3   OH257880   3.409   2.536  11.220
12130TIP3    H157881   3.342   2.541  11.152
12130TIP3    H257882   3.364   2.563  11.300
12131TIP3   OH257883   3.725   1.511  14.866
12131TIP3    H157884   3.674   1.591  14.852
12131TIP3    H257885   3.738   1.474  14.779
12132TIP3   OH257886   0.585   1.186  11.746
12132TIP3    H157887   0.636   1.160  11.670
12132TIP3    H257888   0.503   1.138  11.738
12133TIP3   OH257889   5.535   2.708   2.793
12133TIP3    H157890   5.510   2.790   2.752
12133TIP3    H257891   5.520   2.642   2.726
12134TIP3   OH257892   0.365   4.027   5.103
12134TIP3    H157893   0.444   4.059   5.146
12134TIP3    H257894   0.345   3.944   5.147
12135TIP3   OH257895   0.900   2.857  11.449
12135TIP3    H157896   0.934   2.941  11.479
12135TIP3    H257897   0.933   2.849  11.359
12136TIP3   OH257898   1.683   0.398  14.013
12136TIP3    H157899   1.729   0.386  14.097
12136TIP3    H257900   1.686   0.493  13.998
12137TIP3   OH257901   2.356   5.719   4.696
12137TIP3    H157902   2.401   5.668   4.763
12137TIP3    H257903   2.421   5.785   4.668
12138TIP3   OH257904   0.826   2.997   5.020
12138TIP3    H157905   0.781   2.965   4.942
12138TIP3    H257906   0.798   3.088   5.029
12139TIP3   OH257907   6.003   5.109  11.553
12139TIP3    H157908   6.050   5.123  11.635
12139TIP3    H257909   6.043   5.031  11.516
12140TIP3   OH257910   6.073   3.897  16.198
12140TIP3    H157911   6.077   3.802  16.197
12140TIP3    H257912   5.999   3.917  16.256
12141TIP3   OH257913   0.088   0.675  13.323
12141TIP3    H157914   0.001   0.667  13.285
12141TIP3    H257915   0.088   0.614  13.397
12142TIP3   OH257916   4.791   3.754   3.176
12142TIP3    H157917   4.713   3.803   3.150
12142TIP3    H257918   4.760   3.690   3.239
12143TIP3   OH257919   1.035   0.024   5.400
12143TIP3    H157920   1.045  -0.012   5.312
12143TIP3    H257921   0.955  -0.016   5.433
12144TIP3   OH257922   1.540   0.114  14.584
12144TIP3    H157923   1.633   0.134  14.577
12144TIP3    H257924   1.537   0.028  14.627
12145TIP3   OH257925   6.190   0.666  16.665
12145TIP3    H157926   6.272   0.715  16.657
12145TIP3    H257927   6.127   0.730  16.698
12146TIP3   OH257928   3.844   3.632  13.521
12146TIP3    H157929   3.871   3.717  13.487
12146TIP3    H257930   3.805   3.588  13.446
12147TIP3   OH257931   3.005   3.595  13.771
12147TIP3    H157932   2.989   3.509  13.811
12147TIP3    H257933   3.005   3.656  13.844
12148TIP3   OH257934   3.849   5.576  13.857
12148TIP3    H157935   3.812   5.521  13.926
12148TIP3    H257936   3.827   5.530  13.776
12149TIP3   OH257937   0.344   3.712  12.229
12149TIP3    H157938   0.270   3.704  12.168
12149TIP3    H257939   0.321   3.653  12.302
12150TIP3   OH257940   1.788   4.073   3.274
12150TIP3    H157941   1.832   3.991   3.247
12150TIP3    H257942   1.810   4.082   3.366
12151TIP3   OH257943   3.513   5.570   5.809
12151TIP3    H157944   3.426   5.600   5.835
12151TIP3    H257945   3.546   5.522   5.885
12152TIP3   OH257946   6.492   1.061  16.805
12152TIP3    H157947   6.409   1.098  16.835
12152TIP3    H257948   6.506   1.102  16.719
12153TIP3   OH257949   3.637   4.455   2.882
12153TIP3    H157950   3.622   4.432   2.790
12153TIP3    H257951   3.654   4.549   2.881
12154TIP3   OH257952   1.148   0.078  16.945
12154TIP3    H157953   1.105   0.064  17.029
12154TIP3    H257954   1.078   0.066  16.880
12155TIP3   OH257955   2.659   5.231   2.080
12155TIP3    H157956   2.594   5.218   2.010
12155TIP3    H257957   2.722   5.293   2.043
12156TIP3   OH257958   1.340   4.898   1.866
12156TIP3    H157959   1.259   4.869   1.823
12156TIP3    H257960   1.318   4.900   1.959
12157TIP3   OH257961   4.179   6.460  17.206
12157TIP3    H157962   4.268   6.444  17.175
12157TIP3    H257963   4.190   6.490  17.296
12158TIP3   OH257964   1.673   0.518  11.540
12158TIP3    H157965   1.739   0.569  11.492
12158TIP3    H257966   1.611   0.584  11.572
12159TIP3   OH257967   3.547   2.502   1.393
12159TIP3    H157968   3.479   2.498   1.326
12159TIP3    H257969   3.614   2.560   1.356
12160TIP3   OH257970   3.105   1.860  13.662
12160TIP3    H157971   3.174   1.866  13.729
12160TIP3    H257972   3.047   1.933  13.682
12161TIP3   OH257973   4.768   6.661  12.961
12161TIP3    H157974   4.743   6.583  13.011
12161TIP3    H257975   4.805   6.627  12.880
12162TIP3   OH257976   6.227   5.266  14.544
12162TIP3    H157977   6.264   5.198  14.601
12162TIP3    H257978   6.288   5.339  14.552
12163TIP3   OH257979   3.709   6.289   1.165
12163TIP3    H157980   3.649   6.281   1.092
12163TIP3    H257981   3.685   6.371   1.208
12164TIP3   OH257982   0.152   1.654   4.500
12164TIP3    H157983   0.203   1.686   4.574
12164TIP3    H257984   0.150   1.559   4.511
12165TIP3   OH257985   0.628   5.750  15.509
12165TIP3    H157986   0.641   5.793  15.593
12165TIP3    H257987   0.575   5.673  15.529
12166TIP3   OH257988   4.992   6.402  10.739
12166TIP3    H157989   5.059   6.469  10.755
12166TIP3    H257990   5.040   6.320  10.734
12167TIP3   OH257991   2.168   3.862   0.877
12167TIP3    H157992   2.192   3.799   0.809
12167TIP3    H257993   2.087   3.902   0.845
12168TIP3   OH257994   6.683   2.645  17.232
12168TIP3    H157995   6.658   2.558  17.262
12168TIP3    H257996   6.615   2.703  17.266
12169TIP3   OH257997   1.859   4.085  14.050
12169TIP3    H157998   1.771   4.121  14.064
12169TIP3    H257999   1.904   4.153  13.999
12170TIP3   OH258000   6.233   0.281   6.187
12170TIP3    H158001   6.227   0.283   6.092
12170TIP3    H258002   6.290   0.354   6.209
12171TIP3   OH258003   1.892   4.447   0.629
12171TIP3    H158004   1.920   4.492   0.709
12171TIP3    H258005   1.907   4.354   0.647
12172TIP3   OH258006   0.825   1.195   4.188
12172TIP3    H158007   0.918   1.201   4.166
12172TIP3    H258008   0.822   1.205   4.283
12173TIP3   OH258009   1.137   3.698   1.075
12173TIP3    H158010   1.052   3.717   1.035
12173TIP3    H258011   1.136   3.746   1.157
12174TIP3   OH258012   5.472   3.174  15.907
12174TIP3    H158013   5.442   3.259  15.873
12174TIP3    H258014   5.402   3.113  15.884
12175TIP3   OH258015   2.321   1.060  14.634
12175TIP3    H158016   2.351   1.101  14.553
12175TIP3    H258017   2.245   1.112  14.660
12176TIP3   OH258018   6.314   5.069  11.305
12176TIP3    H158019   6.367   5.104  11.376
12176TIP3    H258020   6.353   5.105  11.225
12177TIP3   OH258021   4.977   4.235   3.818
12177TIP3    H158022   4.920   4.221   3.742
12177TIP3    H258023   5.012   4.323   3.806
12178TIP3   OH258024   6.722   4.157  16.038
12178TIP3    H158025   6.701   4.074  16.079
12178TIP3    H258026   6.810   4.178  16.069
12179TIP3   OH258027   0.745   0.446   5.222
12179TIP3    H158028   0.699   0.494   5.291
12179TIP3    H258029   0.713   0.356   5.230
12180TIP3   OH258030   1.837   5.467  10.593
12180TIP3    H158031   1.859   5.376  10.569
12180TIP3    H258032   1.773   5.493  10.527
12181TIP3   OH258033   2.300   6.274  12.232
12181TIP3    H158034   2.224   6.221  12.207
12181TIP3    H258035   2.329   6.315  12.151
12182TIP3   OH258036   2.599   3.527  17.233
12182TIP3    H158037   2.567   3.523  17.143
12182TIP3    H258038   2.688   3.493  17.228
12183TIP3   OH258039   4.374   0.025   4.770
12183TIP3    H158040   4.465   0.036   4.743
12183TIP3    H258041   4.334   0.111   4.753
12184TIP3   OH258042   5.448   0.582  12.882
12184TIP3    H158043   5.430   0.650  12.817
12184TIP3    H258044   5.415   0.501  12.843
12185TIP3   OH258045   3.530   0.510   6.436
12185TIP3    H158046   3.591   0.437   6.432
12185TIP3    H258047   3.455   0.476   6.484
12186TIP3   OH258048   2.081   2.162  16.589
12186TIP3    H158049   2.022   2.087  16.582
12186TIP3    H258050   2.043   2.216  16.658
12187TIP3   OH258051   4.242   6.764   4.980
12187TIP3    H158052   4.297   6.777   4.903
12187TIP3    H258053   4.291   6.700   5.033
12188TIP3   OH258054   1.675   4.569   5.033
12188TIP3    H158055   1.630   4.558   4.949
12188TIP3    H258056   1.706   4.482   5.056
12189TIP3   OH258057   4.750   0.976   0.553
12189TIP3    H158058   4.825   1.028   0.581
12189TIP3    H258059   4.787   0.912   0.491
12190TIP3   OH258060   4.213   5.367   2.554
12190TIP3    H158061   4.162   5.289   2.532
12190TIP3    H258062   4.147   5.432   2.579
12191TIP3   OH258063   5.701   2.153  13.410
12191TIP3    H158064   5.697   2.058  13.398
12191TIP3    H258065   5.794   2.174  13.400
12192TIP3   OH258066   1.096   3.485   5.729
12192TIP3    H158067   1.021   3.495   5.788
12192TIP3    H258068   1.109   3.573   5.692
12193TIP3   OH258069   6.434   1.438   5.657
12193TIP3    H158070   6.487   1.515   5.636
12193TIP3    H258071   6.395   1.459   5.742
12194TIP3   OH258072   5.922   1.122   2.932
12194TIP3    H158073   5.932   1.098   3.024
12194TIP3    H258074   6.012   1.133   2.900
12195TIP3   OH258075   3.205   5.923   1.493
12195TIP3    H158076   3.234   5.924   1.402
12195TIP3    H258077   3.267   5.866   1.538
12196TIP3   OH258078   2.077   2.977   2.102
12196TIP3    H158079   2.074   2.994   2.007
12196TIP3    H258080   2.001   3.024   2.137
12197TIP3   OH258081   3.000   2.944  15.371
12197TIP3    H158082   3.005   2.967  15.464
12197TIP3    H258083   3.030   2.854  15.366
12198TIP3   OH258084   1.898   1.353  12.442
12198TIP3    H158085   1.809   1.342  12.410
12198TIP3    H258086   1.906   1.291  12.514
12199TIP3   OH258087   2.761   1.894  15.681
12199TIP3    H158088   2.768   1.984  15.715
12199TIP3    H258089   2.793   1.900  15.591
12200TIP3   OH258090   3.471   4.164   3.305
12200TIP3    H158091   3.385   4.198   3.331
12200TIP3    H258092   3.498   4.220   3.232
12201TIP3   OH258093   6.473   3.748   4.595
12201TIP3    H158094   6.418   3.820   4.626
12201TIP3    H258095   6.481   3.762   4.500
12202TIP3   OH258096   5.036   1.879  12.656
12202TIP3    H158097   5.076   1.963  12.681
12202TIP3    H258098   5.067   1.863  12.567
12203TIP3   OH258099   3.779   5.005  13.445
12203TIP3    H158100   3.782   4.918  13.406
12203TIP3    H258101   3.787   4.990  13.539
12204TIP3   OH258102   1.273   2.695   0.867
12204TIP3    H158103   1.242   2.740   0.945
12204TIP3    H258104   1.196   2.649   0.834
12205TIP3   OH258105   1.915   3.292   5.402
12205TIP3    H158106   1.866   3.298   5.320
12205TIP3    H258107   1.890   3.370   5.451
12206TIP3   OH258108   5.885   4.887   0.931
12206TIP3    H158109   5.933   4.937   0.865
12206TIP3    H258110   5.942   4.888   1.008
12207TIP3   OH258111   2.139   3.255   1.403
12207TIP3    H158112   2.160   3.276   1.494
12207TIP3    H258113   2.084   3.177   1.408
12208TIP3   OH258114   2.255   1.114   2.828
12208TIP3    H158115   2.337   1.161   2.814
12208TIP3    H258116   2.253   1.094   2.921
12209TIP3   OH258117   1.214   5.553  11.927
12209TIP3    H158118   1.304   5.531  11.950
12209TIP3    H258119   1.211   5.649  11.931
12210TIP3   OH258120   2.007   2.870  13.602
12210TIP3    H158121   2.097   2.902  13.593
12210TIP3    H258122   1.964   2.935  13.657
12211TIP3   OH258123   2.527   2.925   1.745
12211TIP3    H158124   2.589   2.996   1.761
12211TIP3    H258125   2.570   2.847   1.779
12212TIP3   OH258126   6.489   1.114  16.524
12212TIP3    H158127   6.546   1.186  16.500
12212TIP3    H258128   6.414   1.121  16.465
12213TIP3   OH258129   0.255   3.920  11.401
12213TIP3    H158130   0.216   3.906  11.314
12213TIP3    H258131   0.191   3.972  11.448
12214TIP3   OH258132   1.941   1.190  10.849
12214TIP3    H158133   2.004   1.259  10.828
12214TIP3    H258134   1.982   1.109  10.816
12215TIP3   OH258135   2.332   0.448  11.075
12215TIP3    H158136   2.383   0.514  11.026
12215TIP3    H258137   2.397   0.384  11.102
12216TIP3   OH258138   2.771   2.496   0.255
12216TIP3    H158139   2.722   2.548   0.319
12216TIP3    H258140   2.805   2.560   0.192
12217TIP3   OH258141   4.989   5.539  13.096
12217TIP3    H158142   4.904   5.503  13.071
12217TIP3    H258143   4.985   5.632  13.071
12218TIP3   OH258144   5.745   4.385  14.723
12218TIP3    H158145   5.809   4.450  14.696
12218TIP3    H258146   5.694   4.366  14.644
12219TIP3   OH258147   0.666   4.734   0.387
12219TIP3    H158148   0.690   4.775   0.304
12219TIP3    H258149   0.730   4.663   0.398
12220TIP3   OH258150   1.540   3.531  11.920
12220TIP3    H158151   1.597   3.568  11.987
12220TIP3    H258152   1.451   3.547  11.952
12221TIP3   OH258153   2.897   1.049  16.451
12221TIP3    H158154   2.909   1.079  16.361
12221TIP3    H258155   2.957   1.103  16.502
12222TIP3   OH258156   6.662   4.424   2.877
12222TIP3    H158157   6.706   4.346   2.912
12222TIP3    H258158   6.707   4.442   2.795
12223TIP3   OH258159   1.882   2.520   4.054
12223TIP3    H158160   1.976   2.515   4.038
12223TIP3    H258161   1.867   2.612   4.077
12224TIP3   OH258162   4.912   2.012  16.239
12224TIP3    H158163   4.951   2.086  16.192
12224TIP3    H258164   4.972   1.995  16.311
12225TIP3   OH258165   4.564   6.370   2.853
12225TIP3    H158166   4.607   6.442   2.899
12225TIP3    H258167   4.523   6.319   2.922
12226TIP3   OH258168   1.100   6.438  15.288
12226TIP3    H158169   1.101   6.533  15.283
12226TIP3    H258170   1.150   6.417  15.368
12227TIP3   OH258171   4.906   1.164  16.158
12227TIP3    H158172   4.984   1.219  16.165
12227TIP3    H258173   4.849   1.194  16.229
12228TIP3   OH258174   1.665   5.919  15.708
12228TIP3    H158175   1.590   5.924  15.768
12228TIP3    H258176   1.727   5.982  15.743
12229TIP3   OH258177   4.498   3.816  11.713
12229TIP3    H158178   4.593   3.803  11.705
12229TIP3    H258179   4.474   3.771  11.794
12230TIP3   OH258180   0.119   2.472   3.734
12230TIP3    H158181   0.212   2.452   3.740
12230TIP3    H258182   0.092   2.438   3.649
12231TIP3   OH258183   3.218   0.134  13.244
12231TIP3    H158184   3.280   0.065  13.267
12231TIP3    H258185   3.232   0.202  13.310
12232TIP3   OH258186   0.051   4.349   4.333
12232TIP3    H158187   0.063   4.401   4.253
12232TIP3    H258188   0.133   4.302   4.343
12233TIP3   OH258189   4.261   3.017   3.333
12233TIP3    H158190   4.348   3.046   3.361
12233TIP3    H258191   4.200   3.064   3.390
12234TIP3   OH258192   0.776   2.359  15.862
12234TIP3    H158193   0.808   2.296  15.797
12234TIP3    H258194   0.844   2.361  15.929
12235TIP3   OH258195   6.453   6.143   5.939
12235TIP3    H158196   6.433   6.114   6.027
12235TIP3    H258197   6.512   6.077   5.904
12236TIP3   OH258198   3.068   3.959  16.461
12236TIP3    H158199   3.046   3.932  16.371
12236TIP3    H258200   3.144   3.906  16.484
12237TIP3   OH258201   1.395   1.287   3.514
12237TIP3    H158202   1.333   1.360   3.516
12237TIP3    H258203   1.348   1.214   3.554
12238TIP3   OH258204   3.471   6.642  12.230
12238TIP3    H158205   3.498   6.550  12.234
12238TIP3    H258206   3.517   6.677  12.154
12239TIP3   OH258207   4.320   5.582   0.007
12239TIP3    H158208   4.251   5.562  -0.056
12239TIP3    H258209   4.293   5.537   0.087
12240TIP3   OH258210   3.924   3.578   2.631
12240TIP3    H158211   3.892   3.556   2.543
12240TIP3    H258212   3.972   3.660   2.619
12241TIP3   OH258213   4.571   3.242  13.013
12241TIP3    H158214   4.589   3.205  12.927
12241TIP3    H258215   4.630   3.317  13.020
12242TIP3   OH258216   0.721   1.081   1.553
12242TIP3    H158217   0.692   1.047   1.468
12242TIP3    H258218   0.661   1.153   1.572
12243TIP3   OH258219   2.087   3.601  11.665
12243TIP3    H158220   2.039   3.525  11.632
12243TIP3    H258221   2.062   3.672  11.606
12244TIP3   OH258222   3.895   4.538  14.042
12244TIP3    H158223   3.886   4.491  14.125
12244TIP3    H258224   3.924   4.626  14.067
12245TIP3   OH258225   4.228   4.071   2.922
12245TIP3    H158226   4.322   4.062   2.905
12245TIP3    H258227   4.209   4.162   2.897
12246TIP3   OH258228   1.193   6.695   1.831
12246TIP3    H158229   1.171   6.787   1.847
12246TIP3    H258230   1.242   6.695   1.749
12247TIP3   OH258231   5.912   3.889   0.879
12247TIP3    H158232   5.965   3.902   0.958
12247TIP3    H258233   5.829   3.933   0.899
12248TIP3   OH258234   5.929   5.118   0.367
12248TIP3    H158235   5.935   5.096   0.460
12248TIP3    H258236   5.864   5.188   0.363
12249TIP3   OH258237   6.736   0.426   3.900
12249TIP3    H158238   6.824   0.402   3.929
12249TIP3    H258239   6.751   0.483   3.825
12250TIP3   OH258240   2.175   4.793   1.337
12250TIP3    H158241   2.235   4.742   1.283
12250TIP3    H258242   2.117   4.729   1.376
12251TIP3   OH258243   1.755   5.816   2.288
12251TIP3    H158244   1.701   5.776   2.357
12251TIP3    H258245   1.845   5.793   2.312
12252TIP3   OH258246   5.313   6.025  14.892
12252TIP3    H158247   5.337   5.960  14.958
12252TIP3    H258248   5.262   5.976  14.827
12253TIP3   OH258249   3.911   0.253  16.778
12253TIP3    H158250   3.833   0.300  16.807
12253TIP3    H258251   3.983   0.312  16.800
12254TIP3   OH258252   2.873   5.076   3.985
12254TIP3    H158253   2.798   5.068   4.044
12254TIP3    H258254   2.939   5.121   4.036
12255TIP3   OH258255   5.436   2.088   2.199
12255TIP3    H158256   5.345   2.063   2.181
12255TIP3    H258257   5.465   2.025   2.266
12256TIP3   OH258258   4.540   6.549  11.225
12256TIP3    H158259   4.510   6.468  11.185
12256TIP3    H258260   4.466   6.610  11.213
12257TIP3   OH258261   2.490   1.538  12.443
12257TIP3    H158262   2.569   1.499  12.482
12257TIP3    H258263   2.484   1.498  12.356
12258TIP3   OH258264   2.109   1.199  14.779
12258TIP3    H158265   2.084   1.171  14.868
12258TIP3    H258266   2.106   1.295  14.783
12259TIP3   OH258267   4.466   1.651  13.866
12259TIP3    H158268   4.431   1.680  13.949
12259TIP3    H258269   4.554   1.689  13.862
12260TIP3   OH258270   1.034   4.096  11.902
12260TIP3    H158271   1.037   4.109  11.807
12260TIP3    H258272   1.027   4.185  11.938
12261TIP3   OH258273   4.378   2.662   5.266
12261TIP3    H158274   4.461   2.617   5.284
12261TIP3    H258275   4.402   2.730   5.203
12262TIP3   OH258276   4.295   4.830  13.944
12262TIP3    H158277   4.383   4.807  13.915
12262TIP3    H258278   4.299   4.825  14.040
12263TIP3   OH258279   6.006   3.705   5.208
12263TIP3    H158280   5.984   3.736   5.296
12263TIP3    H258281   6.006   3.784   5.154
12264TIP3   OH258282   4.551   3.498   5.662
12264TIP3    H158283   4.547   3.454   5.747
12264TIP3    H258284   4.470   3.549   5.658
12265TIP3   OH258285   2.956   1.492  11.716
12265TIP3    H158286   2.992   1.580  11.705
12265TIP3    H258287   2.974   1.469  11.807
12266TIP3   OH258288   4.326   1.381  13.274
12266TIP3    H158289   4.263   1.309  13.283
12266TIP3    H258290   4.320   1.406  13.182
12267TIP3   OH258291   0.299   6.077  14.361
12267TIP3    H158292   0.343   6.161  14.348
12267TIP3    H258293   0.306   6.061  14.456
12268TIP3   OH258294   1.400   1.526  16.092
12268TIP3    H158295   1.443   1.444  16.113
12268TIP3    H258296   1.372   1.517  16.001
12269TIP3   OH258297   3.608   0.840  15.462
12269TIP3    H158298   3.663   0.763  15.473
12269TIP3    H258299   3.668   0.910  15.437
12270TIP3   OH258300   5.471   2.231  11.220
12270TIP3    H158301   5.521   2.150  11.208
12270TIP3    H258302   5.476   2.276  11.136
12271TIP3   OH258303   2.511   1.544   6.431
12271TIP3    H158304   2.425   1.519   6.399
12271TIP3    H258305   2.537   1.473   6.489
12272TIP3   OH258306   6.591   6.435  15.168
12272TIP3    H158307   6.636   6.361  15.210
12272TIP3    H258308   6.502   6.431  15.202
12273TIP3   OH258309   1.592   3.659  13.819
12273TIP3    H158310   1.626   3.725  13.879
12273TIP3    H258311   1.644   3.581  13.837
12274TIP3   OH258312   4.858   2.835  16.776
12274TIP3    H158313   4.779   2.781  16.776
12274TIP3    H258314   4.897   2.820  16.690
12275TIP3   OH258315   5.948   4.378   5.293
12275TIP3    H158316   6.038   4.374   5.260
12275TIP3    H258317   5.899   4.321   5.234
12276TIP3   OH258318   1.219   4.480   4.165
12276TIP3    H158319   1.165   4.525   4.229
12276TIP3    H258320   1.298   4.533   4.159
12277TIP3   OH258321   5.823   4.105   4.746
12277TIP3    H158322   5.877   4.044   4.695
12277TIP3    H258323   5.784   4.051   4.814
12278TIP3   OH258324   2.122   1.009  10.717
12278TIP3    H158325   2.200   1.053  10.683
12278TIP3    H258326   2.129   0.919  10.686
12279TIP3   OH258327   4.553   6.542   1.778
12279TIP3    H158328   4.563   6.630   1.739
12279TIP3    H258329   4.641   6.518   1.804
12280TIP3   OH258330   1.752   5.784  14.586
12280TIP3    H158331   1.664   5.765  14.619
12280TIP3    H258332   1.738   5.825  14.501
12281TIP3   OH258333   3.719   2.788   1.901
12281TIP3    H158334   3.671   2.820   1.825
12281TIP3    H258335   3.809   2.816   1.886
12282TIP3   OH258336   1.658   5.007  16.635
12282TIP3    H158337   1.650   4.949  16.711
12282TIP3    H258338   1.751   5.001  16.611
12283TIP3   OH258339   4.039   6.166  12.159
12283TIP3    H158340   4.131   6.195  12.153
12283TIP3    H258341   4.034   6.091  12.099
12284TIP3   OH258342   0.264   1.106   4.064
12284TIP3    H158343   0.267   1.019   4.104
12284TIP3    H258344   0.355   1.137   4.067
12285TIP3   OH258345   6.411   1.034  14.327
12285TIP3    H158346   6.494   1.049  14.373
12285TIP3    H258347   6.383   1.122  14.300
12286TIP3   OH258348   4.143   6.003   4.088
12286TIP3    H158349   4.077   6.049   4.140
12286TIP3    H258350   4.224   6.014   4.137
12287TIP3   OH258351   1.239   1.930  15.782
12287TIP3    H158352   1.301   1.903  15.714
12287TIP3    H258353   1.153   1.911  15.745
12288TIP3   OH258354   4.628   0.335   2.784
12288TIP3    H158355   4.676   0.252   2.782
12288TIP3    H258356   4.695   0.402   2.770
12289TIP3   OH258357   4.244   2.673   1.260
12289TIP3    H158358   4.202   2.757   1.242
12289TIP3    H258359   4.225   2.620   1.182
12290TIP3   OH258360   1.513   5.349   3.325
12290TIP3    H158361   1.518   5.444   3.330
12290TIP3    H258362   1.439   5.325   3.381
12291TIP3   OH258363   5.907   1.609   5.750
12291TIP3    H158364   5.899   1.545   5.679
12291TIP3    H258365   5.817   1.632   5.772
12292TIP3   OH258366   0.081   4.085  11.516
12292TIP3    H158367   0.015   4.144  11.478
12292TIP3    H258368   0.107   4.127  11.598
12293TIP3   OH258369   2.644   1.757   2.287
12293TIP3    H158370   2.710   1.821   2.314
12293TIP3    H258371   2.617   1.785   2.200
12294TIP3   OH258372   0.870   3.737   2.603
12294TIP3    H158373   0.846   3.815   2.552
12294TIP3    H258374   0.878   3.769   2.693
12295TIP3   OH258375   3.066   1.702  15.418
12295TIP3    H158376   2.980   1.666  15.440
12295TIP3    H258377   3.128   1.640  15.457
12296TIP3   OH258378   4.786   3.129   5.668
12296TIP3    H158379   4.796   3.144   5.762
12296TIP3    H258380   4.804   3.036   5.657
12297TIP3   OH258381   5.502   2.608  13.627
12297TIP3    H158382   5.578   2.596  13.569
12297TIP3    H258383   5.451   2.678  13.585
12298TIP3   OH258384   3.057   2.123   2.935
12298TIP3    H158385   3.147   2.155   2.945
12298TIP3    H258386   3.044   2.119   2.840
12299TIP3   OH258387   2.134   3.774   1.244
12299TIP3    H158388   2.047   3.809   1.222
12299TIP3    H258389   2.138   3.778   1.340
12300TIP3   OH258390   3.619   4.171   0.957
12300TIP3    H158391   3.560   4.100   0.982
12300TIP3    H258392   3.643   4.151   0.866
12301TIP3   OH258393   5.543   6.185  12.529
12301TIP3    H158394   5.574   6.275  12.523
12301TIP3    H258395   5.488   6.174  12.451
12302TIP3   OH258396   1.411   2.158   3.198
12302TIP3    H158397   1.451   2.084   3.152
12302TIP3    H258398   1.410   2.229   3.134
12303TIP3   OH258399   5.642   3.586   1.876
12303TIP3    H158400   5.642   3.519   1.808
12303TIP3    H258401   5.572   3.647   1.850
12304TIP3   OH258402   3.702   1.915   3.624
12304TIP3    H158403   3.766   1.905   3.554
12304TIP3    H258404   3.647   1.988   3.595
12305TIP3   OH258405   4.011   1.821   2.517
12305TIP3    H158406   4.088   1.800   2.464
12305TIP3    H258407   3.959   1.741   2.516
12306TIP3   OH258408   3.438   5.005  17.195
12306TIP3    H158409   3.393   4.961  17.267
12306TIP3    H258410   3.367   5.039  17.140
12307TIP3   OH258411   5.728   1.322   2.226
12307TIP3    H158412   5.757   1.340   2.316
12307TIP3    H258413   5.724   1.408   2.185
12308TIP3   OH258414   0.476   0.903   0.816
12308TIP3    H158415   0.431   0.929   0.735
12308TIP3    H258416   0.409   0.860   0.868
12309TIP3   OH258417   6.694   5.186  16.475
12309TIP3    H158418   6.621   5.231  16.434
12309TIP3    H258419   6.768   5.245  16.465
12310TIP3   OH258420   0.391   2.860  14.670
12310TIP3    H158421   0.385   2.941  14.619
12310TIP3    H258422   0.334   2.799  14.624
12311TIP3   OH258423   0.612   2.325  16.429
12311TIP3    H158424   0.646   2.354  16.513
12311TIP3    H258425   0.621   2.230  16.431
12312TIP3   OH258426   5.375   1.119   1.454
12312TIP3    H158427   5.290   1.077   1.466
12312TIP3    H258428   5.399   1.097   1.363
12313TIP3   OH258429   5.210   3.505   3.213
12313TIP3    H158430   5.185   3.560   3.287
12313TIP3    H258431   5.173   3.419   3.234
12314TIP3   OH258432   3.503   3.724  11.479
12314TIP3    H158433   3.547   3.750  11.397
12314TIP3    H258434   3.429   3.671  11.450
12315TIP3   OH258435   6.521   5.322  12.249
12315TIP3    H158436   6.591   5.288  12.193
12315TIP3    H258437   6.461   5.248  12.260
12316TIP3   OH258438   2.444   2.042  11.554
12316TIP3    H158439   2.396   1.994  11.486
12316TIP3    H258440   2.444   1.983  11.629
12317TIP3   OH258441   2.482   0.972   0.731
12317TIP3    H158442   2.496   1.022   0.811
12317TIP3    H258443   2.528   0.889   0.745
12318TIP3   OH258444   1.478   5.947   3.629
12318TIP3    H158445   1.387   5.933   3.601
12318TIP3    H258446   1.522   5.865   3.607
12319TIP3   OH258447   3.364   2.581   5.247
12319TIP3    H158448   3.459   2.570   5.249
12319TIP3    H258449   3.332   2.512   5.189
12320TIP3   OH258450   2.320   1.485  15.989
12320TIP3    H158451   2.369   1.557  16.028
12320TIP3    H258452   2.228   1.510  15.998
12321TIP3   OH258453   4.976   3.157   0.730
12321TIP3    H158454   4.989   3.062   0.728
12321TIP3    H258455   4.887   3.170   0.698
12322TIP3   OH258456   3.973   3.828  15.107
12322TIP3    H158457   3.943   3.740  15.130
12322TIP3    H258458   3.896   3.884  15.120
12323TIP3   OH258459   3.911   6.014   4.267
12323TIP3    H158460   3.946   6.077   4.330
12323TIP3    H258461   3.961   5.934   4.283
12324TIP3   OH258462   3.082   4.530   4.492
12324TIP3    H158463   3.079   4.601   4.557
12324TIP3    H258464   3.018   4.467   4.522
12325TIP3   OH258465   2.781   6.520  10.656
12325TIP3    H158466   2.725   6.542  10.730
12325TIP3    H258467   2.820   6.435  10.679
12326TIP3   OH258468   0.893   1.621   2.401
12326TIP3    H158469   0.838   1.545   2.381
12326TIP3    H258470   0.976   1.602   2.357
12327TIP3   OH258471   3.553   0.389   4.748
12327TIP3    H158472   3.505   0.471   4.754
12327TIP3    H258473   3.539   0.347   4.834
12328TIP3   OH258474   5.223   1.637  16.902
12328TIP3    H158475   5.153   1.601  16.956
12328TIP3    H258476   5.267   1.560  16.865
12329TIP3   OH258477   2.120   3.476   0.335
12329TIP3    H158478   2.065   3.507   0.406
12329TIP3    H258479   2.187   3.544   0.324
12330TIP3   OH258480   6.033   1.495   2.265
12330TIP3    H158481   5.993   1.408   2.272
12330TIP3    H258482   6.073   1.509   2.351
12331TIP3   OH258483   3.976   0.767  16.430
12331TIP3    H158484   3.923   0.783  16.352
12331TIP3    H258485   3.949   0.834  16.492
12332TIP3   OH258486   0.054   2.472   4.022
12332TIP3    H158487   0.134   2.503   4.064
12332TIP3    H258488   0.075   2.471   3.928
12333TIP3   OH258489   0.018   6.256  16.373
12333TIP3    H158490  -0.077   6.269  16.378
12333TIP3    H258491   0.036   6.188  16.438
12334TIP3   OH258492   0.874   4.156  16.614
12334TIP3    H158493   0.861   4.233  16.669
12334TIP3    H258494   0.965   4.161  16.586
12335TIP3   OH258495   2.285   5.660  15.614
12335TIP3    H158496   2.294   5.744  15.569
12335TIP3    H258497   2.360   5.657  15.674
12336TIP3   OH258498   3.317   6.259  12.373
12336TIP3    H158499   3.360   6.189  12.422
12336TIP3    H258500   3.382   6.329  12.370
12337TIP3   OH258501   4.551   2.730  16.189
12337TIP3    H158502   4.591   2.648  16.215
12337TIP3    H258503   4.558   2.731  16.093
12338TIP3   OH258504   0.599   0.959   2.445
12338TIP3    H158505   0.553   0.934   2.365
12338TIP3    H258506   0.556   1.039   2.474
12339TIP3   OH258507   5.256   2.257   4.401
12339TIP3    H158508   5.281   2.281   4.312
12339TIP3    H258509   5.289   2.328   4.456
12340TIP3   OH258510   2.464   4.718  14.330
12340TIP3    H158511   2.502   4.737  14.416
12340TIP3    H258512   2.402   4.647  14.346
12341TIP3   OH258513   3.646   0.318   5.150
12341TIP3    H158514   3.575   0.297   5.089
12341TIP3    H258515   3.726   0.297   5.102
12342TIP3   OH258516   5.843   0.448   0.998
12342TIP3    H158517   5.794   0.517   1.043
12342TIP3    H258518   5.805   0.366   1.030
12343TIP3   OH258519   2.992   1.960   5.628
12343TIP3    H158520   3.071   2.009   5.606
12343TIP3    H258521   3.002   1.939   5.722
12344TIP3   OH258522   4.298   5.125  14.471
12344TIP3    H158523   4.270   5.110  14.562
12344TIP3    H258524   4.382   5.169  14.480
12345TIP3   OH258525   1.571   0.813  15.615
12345TIP3    H158526   1.565   0.768  15.531
12345TIP3    H258527   1.543   0.747  15.679
12346TIP3   OH258528   0.823   2.256   3.548
12346TIP3    H158529   0.898   2.203   3.521
12346TIP3    H258530   0.841   2.280   3.639
12347TIP3   OH258531   3.425   0.589   4.367
12347TIP3    H158532   3.341   0.573   4.410
12347TIP3    H258533   3.405   0.584   4.273
12348TIP3   OH258534   3.330   6.578   2.164
12348TIP3    H158535   3.259   6.636   2.190
12348TIP3    H258536   3.390   6.635   2.115
12349TIP3   OH258537   3.431   3.005   0.669
12349TIP3    H158538   3.409   2.953   0.746
12349TIP3    H258539   3.527   3.008   0.668
12350TIP3   OH258540   2.708   6.603  14.628
12350TIP3    H158541   2.773   6.532  14.631
12350TIP3    H258542   2.760   6.683  14.626
12351TIP3   OH258543   6.393   0.442  14.996
12351TIP3    H158544   6.379   0.423  14.903
12351TIP3    H258545   6.307   0.471  15.027
12352TIP3   OH258546   0.287   4.581  13.365
12352TIP3    H158547   0.194   4.569  13.345
12352TIP3    H258548   0.290   4.659  13.419
12353TIP3   OH258549   1.898   6.607  12.049
12353TIP3    H158550   1.914   6.689  12.002
12353TIP3    H258551   1.985   6.568  12.061
12354TIP3   OH258552   5.381   1.285   3.343
12354TIP3    H158553   5.349   1.236   3.418
12354TIP3    H258554   5.312   1.277   3.277
12355TIP3   OH258555   3.558   2.140   3.586
12355TIP3    H158556   3.470   2.121   3.554
12355TIP3    H258557   3.583   2.221   3.541
12356TIP3   OH258558   3.655   3.268  12.102
12356TIP3    H158559   3.584   3.270  12.166
12356TIP3    H258560   3.630   3.332  12.036
12357TIP3   OH258561   6.251   0.106  12.059
12357TIP3    H158562   6.297   0.094  11.976
12357TIP3    H258563   6.299   0.175  12.104
12358TIP3   OH258564   6.752   5.849  15.980
12358TIP3    H158565   6.738   5.799  15.899
12358TIP3    H258566   6.756   5.940  15.951
12359TIP3   OH258567   2.324   6.172   4.914
12359TIP3    H158568   2.272   6.141   4.988
12359TIP3    H258569   2.284   6.255   4.889
12360TIP3   OH258570   2.411   4.630  16.875
12360TIP3    H158571   2.331   4.623  16.927
12360TIP3    H258572   2.408   4.719  16.838
12361TIP3   OH258573   1.686   0.124  15.741
12361TIP3    H158574   1.780   0.120  15.727
12361TIP3    H258575   1.661   0.212  15.713
12362TIP3   OH258576   4.317   0.948   5.965
12362TIP3    H158577   4.285   1.038   5.965
12362TIP3    H258578   4.240   0.895   5.945
12363TIP3   OH258579   3.267   3.953   6.345
12363TIP3    H158580   3.341   3.917   6.394
12363TIP3    H258581   3.287   4.046   6.335
12364TIP3   OH258582   1.861   1.262   4.861
12364TIP3    H158583   1.942   1.304   4.834
12364TIP3    H258584   1.801   1.276   4.788
12365TIP3   OH258585   3.203   0.624  13.508
12365TIP3    H158586   3.133   0.625  13.574
12365TIP3    H258587   3.214   0.531  13.487
12366TIP3   OH258588   0.842   4.738  13.032
12366TIP3    H158589   0.844   4.734  13.128
12366TIP3    H258590   0.876   4.826  13.011
12367TIP3   OH258591   2.228   3.950  13.498
12367TIP3    H158592   2.137   3.946  13.527
12367TIP3    H258593   2.224   3.933  13.404
12368TIP3   OH258594   6.495   2.355  14.480
12368TIP3    H158595   6.584   2.322  14.495
12368TIP3    H258596   6.500   2.448  14.506
12369TIP3   OH258597   0.562   0.755   6.159
12369TIP3    H158598   0.614   0.752   6.240
12369TIP3    H258599   0.472   0.743   6.188
12370TIP3   OH258600   6.657   2.735   3.471
12370TIP3    H158601   6.743   2.746   3.510
12370TIP3    H258602   6.601   2.705   3.543
12371TIP3   OH258603   4.663   5.440   3.090
12371TIP3    H158604   4.660   5.471   3.180
12371TIP3    H258605   4.742   5.479   3.053
12372TIP3   OH258606   2.731   4.412   4.938
12372TIP3    H158607   2.695   4.404   4.850
12372TIP3    H258608   2.672   4.474   4.982
12373TIP3   OH258609   0.572   3.837  16.474
12373TIP3    H158610   0.635   3.889  16.423
12373TIP3    H258611   0.487   3.876  16.455
12374TIP3   OH258612   6.116   6.764  11.339
12374TIP3    H158613   6.076   6.714  11.411
12374TIP3    H258614   6.115   6.703  11.265
12375TIP3   OH258615   2.125   5.611   6.297
12375TIP3    H158616   2.062   5.662   6.246
12375TIP3    H258617   2.082   5.595   6.380
12376TIP3   OH258618   4.351   6.573   4.717
12376TIP3    H158619   4.370   6.667   4.727
12376TIP3    H258620   4.408   6.530   4.781
12377TIP3   OH258621   5.419   6.732   2.360
12377TIP3    H158622   5.413   6.646   2.402
12377TIP3    H258623   5.437   6.713   2.269
12378TIP3   OH258624   0.511   1.952  11.091
12378TIP3    H158625   0.540   2.039  11.116
12378TIP3    H258626   0.482   1.961  11.000
12379TIP3   OH258627   3.767   6.766   2.525
12379TIP3    H158628   3.855   6.751   2.561
12379TIP3    H258629   3.773   6.853   2.485
12380TIP3   OH258630   3.526   6.601  11.853
12380TIP3    H158631   3.460   6.639  11.911
12380TIP3    H258632   3.580   6.546  11.910
12381TIP3   OH258633   4.443   0.485  16.328
12381TIP3    H158634   4.403   0.559  16.373
12381TIP3    H258635   4.523   0.520  16.288
12382TIP3   OH258636   5.374   4.274   1.152
12382TIP3    H158637   5.316   4.350   1.146
12382TIP3    H258638   5.334   4.209   1.093
12383TIP3   OH258639   2.579   0.080   1.512
12383TIP3    H158640   2.619   0.004   1.470
12383TIP3    H258641   2.513   0.044   1.571
12384TIP3   OH258642   2.601   5.033  12.365
12384TIP3    H158643   2.646   4.977  12.429
12384TIP3    H258644   2.667   5.050  12.298
12385TIP3   OH258645   6.092   1.846  11.426
12385TIP3    H158646   6.027   1.878  11.364
12385TIP3    H258647   6.091   1.910  11.497
12386TIP3   OH258648   3.858   2.192   1.765
12386TIP3    H158649   3.794   2.216   1.831
12386TIP3    H258650   3.933   2.159   1.815
12387TIP3   OH258651   4.376   0.923  12.052
12387TIP3    H158652   4.323   0.911  12.131
12387TIP3    H258653   4.344   0.857  11.991
12388TIP3   OH258654   3.677   4.652   4.107
12388TIP3    H158655   3.736   4.600   4.053
12388TIP3    H258656   3.590   4.635   4.070
12389TIP3   OH258657   5.145   5.224   3.097
12389TIP3    H158658   5.125   5.165   3.024
12389TIP3    H258659   5.159   5.165   3.172
12390TIP3   OH258660   1.195   4.964  15.690
12390TIP3    H158661   1.136   5.039  15.679
12390TIP3    H258662   1.219   4.939  15.601
12391TIP3   OH258663   5.471   4.424   1.811
12391TIP3    H158664   5.387   4.419   1.857
12391TIP3    H258665   5.450   4.409   1.719
12392TIP3   OH258666   3.407   5.155   4.520
12392TIP3    H158667   3.382   5.235   4.567
12392TIP3    H258668   3.477   5.116   4.573
12393TIP3   OH258669   4.435   2.575  12.664
12393TIP3    H158670   4.391   2.655  12.695
12393TIP3    H258671   4.525   2.585  12.694
12394TIP3   OH258672   5.705   2.501  15.781
12394TIP3    H158673   5.799   2.483  15.785
12394TIP3    H258674   5.691   2.574  15.841
12395TIP3   OH258675   3.430   4.541   5.287
12395TIP3    H158676   3.407   4.481   5.359
12395TIP3    H258677   3.451   4.483   5.214
12396TIP3   OH258678   6.006   6.088  12.931
12396TIP3    H158679   6.009   6.008  12.878
12396TIP3    H258680   5.913   6.112  12.933
12397TIP3   OH258681   6.412   6.024   4.628
12397TIP3    H158682   6.486   5.972   4.661
12397TIP3    H258683   6.424   6.110   4.668
12398TIP3   OH258684   3.231   4.729  15.167
12398TIP3    H158685   3.159   4.792  15.163
12398TIP3    H258686   3.309   4.782  15.186
12399TIP3   OH258687   1.904   3.102  12.448
12399TIP3    H158688   1.886   3.077  12.357
12399TIP3    H258689   1.999   3.096  12.456
12400TIP3   OH258690   5.687   0.780   2.398
12400TIP3    H158691   5.657   0.731   2.322
12400TIP3    H258692   5.608   0.816   2.437
12401TIP3   OH258693   3.223   4.589  14.110
12401TIP3    H158694   3.239   4.496  14.124
12401TIP3    H258695   3.257   4.607  14.022
12402TIP3   OH258696   0.806   3.189  10.511
12402TIP3    H158697   0.754   3.245  10.569
12402TIP3    H258698   0.830   3.114  10.566
12403TIP3   OH258699   4.763   4.364   2.260
12403TIP3    H158700   4.852   4.383   2.290
12403TIP3    H258701   4.757   4.268   2.264
12404TIP3   OH258702   4.070   5.041  17.005
12404TIP3    H158703   4.136   5.049  16.936
12404TIP3    H258704   4.070   5.126  17.049
12405TIP3   OH258705   4.426   3.533  13.605
12405TIP3    H158706   4.399   3.567  13.690
12405TIP3    H258707   4.479   3.456  13.625
12406TIP3   OH258708   5.263   2.904   5.872
12406TIP3    H158709   5.317   2.852   5.813
12406TIP3    H258710   5.191   2.846   5.896
12407TIP3   OH258711   6.602   4.766   4.838
12407TIP3    H158712   6.588   4.858   4.860
12407TIP3    H258713   6.685   4.764   4.792
12408TIP3   OH258714   5.483   3.336   2.536
12408TIP3    H158715   5.494   3.297   2.623
12408TIP3    H258716   5.565   3.317   2.491
12409TIP3   OH258717   4.460   1.677  11.474
12409TIP3    H158718   4.389   1.622  11.505
12409TIP3    H258719   4.460   1.665  11.379
12410TIP3   OH258720   3.705   4.752   3.773
12410TIP3    H158721   3.708   4.805   3.852
12410TIP3    H258722   3.639   4.795   3.718
12411TIP3   OH258723   3.240   6.476  16.461
12411TIP3    H158724   3.176   6.425  16.511
12411TIP3    H258725   3.191   6.510  16.387
12412TIP3   OH258726   1.605   2.300  15.809
12412TIP3    H158727   1.655   2.343  15.740
12412TIP3    H258728   1.639   2.210  15.811
12413TIP3   OH258729   0.340   5.540   2.124
12413TIP3    H158730   0.306   5.484   2.054
12413TIP3    H258731   0.273   5.535   2.193
12414TIP3   OH258732   2.255   3.016   0.761
12414TIP3    H158733   2.336   2.966   0.769
12414TIP3    H258734   2.201   2.987   0.835
12415TIP3   OH258735   0.099   2.595  17.104
12415TIP3    H158736   0.024   2.634  17.148
12415TIP3    H258737   0.157   2.568  17.175
12416TIP3   OH258738   3.010   5.994   4.907
12416TIP3    H158739   3.040   6.029   4.823
12416TIP3    H258740   3.010   6.069   4.966
12417TIP3   OH258741   0.197   5.747  15.764
12417TIP3    H158742   0.166   5.668  15.809
12417TIP3    H258743   0.118   5.783  15.723
12418TIP3   OH258744   2.184   5.239  10.327
12418TIP3    H158745   2.139   5.155  10.315
12418TIP3    H258746   2.127   5.303  10.286
12419TIP3   OH258747   4.670   0.479  14.579
12419TIP3    H158748   4.608   0.417  14.615
12419TIP3    H258749   4.755   0.435  14.586
12420TIP3   OH258750   0.666   6.114   1.848
12420TIP3    H158751   0.580   6.111   1.807
12420TIP3    H258752   0.728   6.117   1.775
12421TIP3   OH258753   5.900   5.405  17.091
12421TIP3    H158754   5.992   5.385  17.106
12421TIP3    H258755   5.858   5.320  17.082
12422TIP3   OH258756   5.174   6.192   0.079
12422TIP3    H158757   5.246   6.148   0.034
12422TIP3    H258758   5.214   6.271   0.116
12423TIP3   OH258759   2.212   6.536  14.254
12423TIP3    H158760   2.195   6.621  14.295
12423TIP3    H258761   2.307   6.524  14.261
12424TIP3   OH258762   1.799   5.608  13.362
12424TIP3    H158763   1.859   5.645  13.427
12424TIP3    H258764   1.721   5.584  13.413
12425TIP3   OH258765   5.324   5.116  11.618
12425TIP3    H158766   5.288   5.134  11.705
12425TIP3    H258767   5.271   5.044  11.585
12426TIP3   OH258768   3.581   2.278   3.824
12426TIP3    H158769   3.557   2.229   3.903
12426TIP3    H258770   3.558   2.220   3.751
12427TIP3   OH258771   3.280   6.623  12.507
12427TIP3    H158772   3.251   6.701  12.553
12427TIP3    H258773   3.207   6.602  12.449
12428TIP3   OH258774   2.436   5.686   1.962
12428TIP3    H158775   2.526   5.673   1.933
12428TIP3    H258776   2.394   5.601   1.951
12429TIP3   OH258777   1.531   3.372   4.643
12429TIP3    H158778   1.481   3.367   4.562
12429TIP3    H258779   1.474   3.332   4.709
12430TIP3   OH258780   3.137   6.514  14.579
12430TIP3    H158781   3.204   6.567  14.536
12430TIP3    H258782   3.057   6.532  14.529
12431TIP3   OH258783   6.648   3.396   4.654
12431TIP3    H158784   6.559   3.419   4.628
12431TIP3    H258785   6.640   3.366   4.745
12432TIP3   OH258786   4.742   5.470   2.146
12432TIP3    H158787   4.685   5.465   2.069
12432TIP3    H258788   4.685   5.502   2.216
12433TIP3   OH258789   4.545   1.946   1.643
12433TIP3    H158790   4.569   1.970   1.554
12433TIP3    H258791   4.568   1.853   1.650
12434TIP3   OH258792   2.856   1.290  12.669
12434TIP3    H158793   2.858   1.196  12.652
12434TIP3    H258794   2.811   1.328  12.593
12435TIP3   OH258795   5.658   4.593   5.881
12435TIP3    H158796   5.585   4.620   5.826
12435TIP3    H258797   5.734   4.593   5.822
12436TIP3   OH258798   2.823   1.811  11.872
12436TIP3    H158799   2.804   1.796  11.779
12436TIP3    H258800   2.772   1.744  11.918
12437TIP3   OH258801   0.368   5.497  15.758
12437TIP3    H158802   0.457   5.488  15.725
12437TIP3    H258803   0.313   5.458  15.690
12438TIP3   OH258804   2.810   1.934   2.882
12438TIP3    H158805   2.870   1.879   2.831
12438TIP3    H258806   2.866   2.001   2.920
12439TIP3   OH258807   2.241   4.177  13.783
12439TIP3    H158808   2.149   4.150  13.791
12439TIP3    H258809   2.274   4.126  13.708
12440TIP3   OH258810   6.739   2.457   0.500
12440TIP3    H158811   6.829   2.429   0.483
12440TIP3    H258812   6.703   2.389   0.557
12441TIP3   OH258813   2.745   1.441   4.952
12441TIP3    H158814   2.664   1.433   4.901
12441TIP3    H258815   2.795   1.510   4.907
12442TIP3   OH258816   2.587   3.831   3.389
12442TIP3    H158817   2.605   3.819   3.482
12442TIP3    H258818   2.672   3.818   3.347
12443TIP3   OH258819   0.019   4.305  17.162
12443TIP3    H158820   0.069   4.380  17.192
12443TIP3    H258821   0.073   4.229  17.183
12444TIP3   OH258822   0.369   6.098  16.222
12444TIP3    H158823   0.329   6.027  16.272
12444TIP3    H258824   0.295   6.149  16.190
12445TIP3   OH258825   1.925   1.221  13.919
12445TIP3    H158826   2.006   1.197  13.875
12445TIP3    H258827   1.884   1.285  13.861
12446TIP3   OH258828   3.418   6.726   0.609
12446TIP3    H158829   3.360   6.657   0.577
12446TIP3    H258830   3.501   6.710   0.564
12447TIP3   OH258831   5.386   3.697   4.727
12447TIP3    H158832   5.456   3.757   4.702
12447TIP3    H258833   5.322   3.703   4.656
12448TIP3   OH258834   5.771   1.782  12.167
12448TIP3    H158835   5.751   1.743  12.082
12448TIP3    H258836   5.687   1.813  12.199
12449TIP3   OH258837   4.437   3.001  14.720
12449TIP3    H158838   4.412   2.916  14.756
12449TIP3    H258839   4.429   3.062  14.793
12450TIP3   OH258840   2.164   1.303   5.165
12450TIP3    H158841   2.169   1.248   5.243
12450TIP3    H258842   2.188   1.246   5.093
12451TIP3   OH258843   1.236   3.146   0.835
12451TIP3    H158844   1.277   3.083   0.776
12451TIP3    H258845   1.307   3.207   0.857
12452TIP3   OH258846   0.493   3.351   5.716
12452TIP3    H158847   0.501   3.308   5.801
12452TIP3    H258848   0.566   3.412   5.712
12453TIP3   OH258849   4.500   4.704  17.038
12453TIP3    H158850   4.564   4.710  17.109
12453TIP3    H258851   4.425   4.659  17.077
12454TIP3   OH258852   4.780   4.627  10.762
12454TIP3    H158853   4.836   4.671  10.698
12454TIP3    H258854   4.732   4.562  10.711
12455TIP3   OH258855   1.020   4.177  13.999
12455TIP3    H158856   1.035   4.181  14.093
12455TIP3    H258857   1.087   4.235  13.962
12456TIP3   OH258858   3.703   1.921  11.781
12456TIP3    H158859   3.636   1.974  11.739
12456TIP3    H258860   3.681   1.923  11.875
12457TIP3   OH258861   2.844   1.470   3.136
12457TIP3    H158862   2.871   1.408   3.203
12457TIP3    H258863   2.884   1.553   3.163
12458TIP3   OH258864   0.481   2.008   5.222
12458TIP3    H158865   0.394   2.048   5.218
12458TIP3    H258866   0.523   2.031   5.139
12459TIP3   OH258867   3.811   0.337  15.009
12459TIP3    H158868   3.765   0.397  15.067
12459TIP3    H258869   3.754   0.328  14.933
12460TIP3   OH258870   1.477   2.359  13.105
12460TIP3    H158871   1.383   2.373  13.117
12460TIP3    H258872   1.518   2.398  13.183
12461TIP3   OH258873   1.520   4.322   0.552
12461TIP3    H158874   1.543   4.311   0.644
12461TIP3    H258875   1.539   4.237   0.512
12462TIP3   OH258876   2.060   4.197   0.677
12462TIP3    H158877   2.115   4.199   0.755
12462TIP3    H258878   2.118   4.170   0.607
12463TIP3   OH258879   5.692   2.675  12.185
12463TIP3    H158880   5.623   2.700  12.124
12463TIP3    H258881   5.648   2.620  12.250
12464TIP3   OH258882   2.946   2.433   5.292
12464TIP3    H158883   2.856   2.416   5.320
12464TIP3    H258884   2.999   2.417   5.370
12465TIP3   OH258885   6.562   6.027  14.174
12465TIP3    H158886   6.651   6.045  14.143
12465TIP3    H258887   6.506   6.076  14.113
12466TIP3   OH258888   3.886   5.828   5.497
12466TIP3    H158889   3.862   5.884   5.423
12466TIP3    H258890   3.847   5.871   5.574
12467TIP3   OH258891   3.548   2.539   3.231
12467TIP3    H158892   3.562   2.633   3.234
12467TIP3    H258893   3.453   2.528   3.239
12468TIP3   OH258894   5.837   3.728   2.358
12468TIP3    H158895   5.794   3.736   2.273
12468TIP3    H258896   5.921   3.687   2.338
12469TIP3   OH258897   2.677   2.904  15.344
12469TIP3    H158898   2.663   2.878  15.435
12469TIP3    H258899   2.695   2.998  15.348
12470TIP3   OH258900   1.495   6.278   6.334
12470TIP3    H158901   1.441   6.356   6.347
12470TIP3    H258902   1.441   6.206   6.365
12471TIP3   OH258903   4.672   2.575  12.925
12471TIP3    H158904   4.635   2.517  12.992
12471TIP3    H258905   4.685   2.519  12.849
12472TIP3   OH258906   5.898   3.440  15.570
12472TIP3    H158907   5.893   3.535  15.585
12472TIP3    H258908   5.809   3.409  15.589
12473TIP3   OH258909   0.488   2.764  12.372
12473TIP3    H158910   0.568   2.745  12.324
12473TIP3    H258911   0.517   2.804  12.453
12474TIP3   OH258912   3.318   0.301   3.619
12474TIP3    H158913   3.344   0.209   3.620
12474TIP3    H258914   3.250   0.306   3.552
12475TIP3   OH258915   0.075   6.756  16.380
12475TIP3    H158916   0.090   6.678  16.434
12475TIP3    H258917  -0.014   6.745  16.347
12476TIP3   OH258918   1.844   6.754   2.047
12476TIP3    H158919   1.835   6.802   1.965
12476TIP3    H258920   1.894   6.676   2.023
12477TIP3   OH258921   6.377   1.843   2.862
12477TIP3    H158922   6.463   1.871   2.894
12477TIP3    H258923   6.333   1.810   2.940
12478TIP3   OH258924   2.466   4.484   1.518
12478TIP3    H158925   2.493   4.404   1.563
12478TIP3    H258926   2.528   4.550   1.549
12479TIP3   OH258927   1.741   6.328   2.053
12479TIP3    H158928   1.766   6.236   2.059
12479TIP3    H258929   1.645   6.326   2.051
12480TIP3   OH258930   5.080   5.947  12.361
12480TIP3    H158931   5.033   5.986  12.435
12480TIP3    H258932   5.014   5.941  12.292
12481TIP3   OH258933   5.119   2.827   4.535
12481TIP3    H158934   5.043   2.829   4.594
12481TIP3    H258935   5.126   2.916   4.501
12482TIP3   OH258936   3.440   2.205   5.848
12482TIP3    H158937   3.499   2.163   5.911
12482TIP3    H258938   3.356   2.161   5.862
12483TIP3   OH258939   1.956   4.642  14.164
12483TIP3    H158940   1.951   4.626  14.070
12483TIP3    H258941   2.037   4.693  14.175
12484TIP3   OH258942   2.715   6.338   2.229
12484TIP3    H158943   2.793   6.284   2.214
12484TIP3    H258944   2.750   6.425   2.248
12485TIP3   OH258945   6.503   0.129  12.818
12485TIP3    H158946   6.468   0.106  12.904
12485TIP3    H258947   6.464   0.066  12.758
12486TIP3   OH258948   5.349   1.059  12.748
12486TIP3    H158949   5.415   1.123  12.721
12486TIP3    H258950   5.266   1.095  12.715
12487TIP3   OH258951   1.465   2.459  15.599
12487TIP3    H158952   1.448   2.375  15.642
12487TIP3    H258953   1.379   2.500  15.592
12488TIP3   OH258954   2.232   1.000   3.076
12488TIP3    H158955   2.269   0.960   3.155
12488TIP3    H258956   2.169   1.064   3.109
12489TIP3   OH258957   4.667   1.572  13.532
12489TIP3    H158958   4.697   1.591  13.443
12489TIP3    H258959   4.731   1.509  13.565
12490TIP3   OH258960   4.779   3.718   5.164
12490TIP3    H158961   4.765   3.715   5.259
12490TIP3    H258962   4.873   3.727   5.154
12491TIP3   OH258963   5.951   3.974   1.432
12491TIP3    H158964   6.018   3.911   1.460
12491TIP3    H258965   5.870   3.940   1.469
12492TIP3   OH258966   1.519   5.628   3.007
12492TIP3    H158967   1.433   5.668   3.023
12492TIP3    H258968   1.572   5.700   2.972
12493TIP3   OH258969   1.795   4.651   4.034
12493TIP3    H158970   1.862   4.585   4.014
12493TIP3    H258971   1.723   4.602   4.072
12494TIP3   OH258972   4.787   2.329   4.785
12494TIP3    H158973   4.798   2.307   4.692
12494TIP3    H258974   4.780   2.244   4.829
12495TIP3   OH258975   0.841   3.535  16.625
12495TIP3    H158976   0.761   3.486  16.645
12495TIP3    H258977   0.850   3.528  16.530
12496TIP3   OH258978   3.903   0.339  14.244
12496TIP3    H158979   3.880   0.426  14.212
12496TIP3    H258980   3.849   0.279  14.193
12497TIP3   OH258981   0.963   4.769   1.321
12497TIP3    H158982   1.048   4.727   1.330
12497TIP3    H258983   0.974   4.855   1.361
12498TIP3   OH258984   1.981   4.443  14.386
12498TIP3    H158985   1.942   4.512  14.332
12498TIP3    H258986   1.920   4.370  14.381
12499TIP3   OH258987   6.285   3.011  11.061
12499TIP3    H158988   6.243   2.929  11.037
12499TIP3    H258989   6.291   3.060  10.979
12500TIP3   OH258990   0.351   3.589   5.602
12500TIP3    H158991   0.305   3.505   5.599
12500TIP3    H258992   0.437   3.568   5.638
12501TIP3   OH258993   0.315   5.053  16.786
12501TIP3    H158994   0.343   5.129  16.837
12501TIP3    H258995   0.395   5.001  16.777
12502TIP3   OH258996   3.306   3.235   0.403
12502TIP3    H158997   3.217   3.265   0.422
12502TIP3    H258998   3.297   3.141   0.388
12503TIP3   OH258999   6.436   6.790  13.046
12503TIP3    H159000   6.431   6.700  13.014
12503TIP3    H259001   6.345   6.816  13.060
12504TIP3   OH259002   2.314   5.363   2.253
12504TIP3    H159003   2.303   5.382   2.160
12504TIP3    H259004   2.374   5.289   2.256
12505TIP3   OH259005   1.246   2.752   2.505
12505TIP3    H159006   1.284   2.834   2.537
12505TIP3    H259007   1.158   2.749   2.544
12506TIP3   OH259008   2.451   3.643  12.701
12506TIP3    H159009   2.400   3.713  12.742
12506TIP3    H259010   2.434   3.566  12.756
12507TIP3   OH259011   3.976   2.248   0.014
12507TIP3    H159012   4.051   2.206  -0.028
12507TIP3    H259013   3.993   2.342   0.005
12508TIP3   OH259014   5.638   0.187   0.879
12508TIP3    H159015   5.648   0.235   0.797
12508TIP3    H259016   5.544   0.195   0.899
12509TIP3   OH259017   0.432   5.457  12.858
12509TIP3    H159018   0.473   5.428  12.940
12509TIP3    H259019   0.339   5.460  12.878
12510TIP3   OH259020   3.793   1.162   3.771
12510TIP3    H159021   3.875   1.211   3.779
12510TIP3    H259022   3.739   1.193   3.844
12511TIP3   OH259023   5.219   5.420  11.236
12511TIP3    H159024   5.154   5.454  11.298
12511TIP3    H259025   5.168   5.400  11.157
12512TIP3   OH259026   4.568   1.633  15.669
12512TIP3    H159027   4.556   1.634  15.764
12512TIP3    H259028   4.479   1.637  15.634
12513TIP3   OH259029   6.745   4.788  15.497
12513TIP3    H159030   6.688   4.863  15.478
12513TIP3    H259031   6.711   4.717  15.442
12514TIP3   OH259032   1.948   3.193  11.213
12514TIP3    H159033   1.876   3.251  11.238
12514TIP3    H259034   1.934   3.177  11.119
12515TIP3   OH259035   4.169   1.601   4.382
12515TIP3    H159036   4.100   1.539   4.359
12515TIP3    H259037   4.168   1.666   4.311
12516TIP3   OH259038   5.490   4.363  12.647
12516TIP3    H159039   5.444   4.285  12.617
12516TIP3    H259040   5.583   4.337  12.647
12517TIP3   OH259041   1.751   5.061  13.947
12517TIP3    H159042   1.731   4.969  13.966
12517TIP3    H259043   1.666   5.099  13.923
12518TIP3   OH259044   0.636   3.922   1.505
12518TIP3    H159045   0.707   3.891   1.561
12518TIP3    H259046   0.567   3.856   1.515
12519TIP3   OH259047   4.282   4.221   5.576
12519TIP3    H159048   4.193   4.215   5.543
12519TIP3    H259049   4.315   4.131   5.573
12520TIP3   OH259050   1.806   0.996   1.540
12520TIP3    H159051   1.812   1.042   1.457
12520TIP3    H259052   1.826   0.904   1.519
12521TIP3   OH259053   3.929   1.814  13.801
12521TIP3    H159054   3.841   1.814  13.766
12521TIP3    H259055   3.986   1.796  13.726
12522TIP3   OH259056   5.568   6.061  16.560
12522TIP3    H159057   5.507   6.034  16.491
12522TIP3    H259058   5.514   6.065  16.639
12523TIP3   OH259059   6.469   1.400  15.886
12523TIP3    H159060   6.440   1.410  15.795
12523TIP3    H259061   6.497   1.309  15.893
12524TIP3   OH259062   5.596   2.976  15.127
12524TIP3    H159063   5.614   3.019  15.211
12524TIP3    H259064   5.511   2.934  15.139
12525TIP3   OH259065   0.601   2.856  15.573
12525TIP3    H159066   0.608   2.771  15.617
12525TIP3    H259067   0.673   2.908  15.609
12526TIP3   OH259068   2.025   4.548  12.062
12526TIP3    H159069   1.937   4.511  12.075
12526TIP3    H259070   2.020   4.634  12.103
12527TIP3   OH259071   3.545   4.331  11.861
12527TIP3    H159072   3.639   4.327  11.878
12527TIP3    H259073   3.518   4.240  11.855
12528TIP3   OH259074   2.560   3.266  16.093
12528TIP3    H159075   2.519   3.302  16.172
12528TIP3    H259076   2.560   3.172  16.107
12529TIP3   OH259077   1.123   4.887  17.060
12529TIP3    H159078   1.186   4.919  16.995
12529TIP3    H259079   1.173   4.882  17.141
12530TIP3   OH259080   3.394   4.088  11.985
12530TIP3    H159081   3.359   4.148  12.050
12530TIP3    H259082   3.433   4.017  12.035
12531TIP3   OH259083   5.836   0.730  14.313
12531TIP3    H159084   5.840   0.792  14.240
12531TIP3    H259085   5.748   0.693  14.308
12532TIP3   OH259086   5.881   2.731  14.481
12532TIP3    H159087   5.810   2.714  14.543
12532TIP3    H259088   5.837   2.776  14.408
12533TIP3   OH259089   0.617   1.172   5.169
12533TIP3    H159090   0.669   1.236   5.218
12533TIP3    H259091   0.604   1.099   5.231
12534TIP3   OH259092   0.247   2.944  11.165
12534TIP3    H159093   0.248   3.037  11.188
12534TIP3    H259094   0.293   2.901  11.237
12535TIP3   OH259095   4.073   2.889   5.282
12535TIP3    H159096   4.000   2.939   5.320
12535TIP3    H259097   4.078   2.811   5.337
12536TIP3   OH259098   4.931   3.489  12.740
12536TIP3    H159099   4.838   3.478  12.719
12536TIP3    H259100   4.949   3.581  12.720
12537TIP3   OH259101   4.702   0.675  14.410
12537TIP3    H159102   4.729   0.627  14.332
12537TIP3    H259103   4.679   0.607  14.473
12538TIP3   OH259104   1.376   0.886   0.988
12538TIP3    H159105   1.383   0.980   1.005
12538TIP3    H259106   1.283   0.867   1.001
12539TIP3   OH259107   1.391   2.436   3.667
12539TIP3    H159108   1.380   2.414   3.574
12539TIP3    H259109   1.306   2.419   3.706
12540TIP3   OH259110   2.540   2.684  14.615
12540TIP3    H159111   2.629   2.691  14.578
12540TIP3    H259112   2.554   2.678  14.709
12541TIP3   OH259113   4.734   5.176  17.078
12541TIP3    H159114   4.731   5.114  17.151
12541TIP3    H259115   4.813   5.152  17.029
12542TIP3   OH259116   0.114   4.585   5.047
12542TIP3    H159117   0.115   4.576   4.952
12542TIP3    H259118   0.186   4.529   5.077
12543TIP3   OH259119   4.239   4.483  12.828
12543TIP3    H159120   4.159   4.436  12.852
12543TIP3    H259121   4.211   4.572  12.810
12544TIP3   OH259122   3.962   4.016  17.080
12544TIP3    H159123   3.911   4.096  17.066
12544TIP3    H259124   4.015   4.008  17.001
12545TIP3   OH259125   1.374   4.132  13.223
12545TIP3    H159126   1.301   4.152  13.282
12545TIP3    H259127   1.347   4.053  13.177
12546TIP3   OH259128   5.177   2.488   2.510
12546TIP3    H159129   5.140   2.573   2.485
12546TIP3    H259130   5.169   2.434   2.432
12547TIP3   OH259131   1.373   3.059  13.643
12547TIP3    H159132   1.297   3.110  13.669
12547TIP3    H259133   1.388   2.999  13.716
12548TIP3   OH259134   1.710   3.966   0.642
12548TIP3    H159135   1.644   3.939   0.706
12548TIP3    H259136   1.659   4.007   0.571
12549TIP3   OH259137   5.912   5.059   5.078
12549TIP3    H159138   5.950   5.029   4.994
12549TIP3    H259139   5.918   4.982   5.135
12550TIP3   OH259140   6.517   5.141  12.929
12550TIP3    H159141   6.452   5.096  12.876
12550TIP3    H259142   6.578   5.179  12.865
12551TIP3   OH259143   3.340   6.187   4.165
12551TIP3    H159144   3.288   6.232   4.232
12551TIP3    H259145   3.429   6.220   4.178
12552TIP3   OH259146   5.030   5.430   2.195
12552TIP3    H159147   5.089   5.472   2.132
12552TIP3    H259148   4.943   5.465   2.173
12553TIP3   OH259149   5.647   3.345   1.171
12553TIP3    H159150   5.703   3.366   1.096
12553TIP3    H259151   5.609   3.260   1.150
12554TIP3   OH259152   5.409   1.520  15.974
12554TIP3    H159153   5.372   1.477  15.897
12554TIP3    H259154   5.485   1.466  15.997
12555TIP3   OH259155   6.537   2.145  10.767
12555TIP3    H159156   6.616   2.092  10.756
12555TIP3    H259157   6.465   2.085  10.745
12556TIP3   OH259158   0.659   4.941   2.179
12556TIP3    H159159   0.596   4.876   2.147
12556TIP3    H259160   0.636   4.952   2.272
12557TIP3   OH259161   1.565   2.443   2.848
12557TIP3    H159162   1.514   2.408   2.775
12557TIP3    H259163   1.565   2.538   2.834
12558TIP3   OH259164   3.584   0.013  10.932
12558TIP3    H159165   3.505   0.066  10.931
12558TIP3    H259166   3.563  -0.063  10.878
12559TIP3   OH259167   4.324   1.153  11.388
12559TIP3    H159168   4.315   1.144  11.293
12559TIP3    H259169   4.251   1.103  11.424
12560TIP3   OH259170   3.186   1.043  11.608
12560TIP3    H159171   3.245   1.067  11.678
12560TIP3    H259172   3.149   1.126  11.577
12561TIP3   OH259173   5.096   3.882   4.074
12561TIP3    H159174   5.009   3.916   4.056
12561TIP3    H259175   5.148   3.959   4.095
12562TIP3   OH259176   5.127   5.400   0.815
12562TIP3    H159177   5.076   5.356   0.747
12562TIP3    H259178   5.071   5.472   0.843
12563TIP3   OH259179   4.673   2.038  14.056
12563TIP3    H159180   4.624   1.974  14.108
12563TIP3    H259181   4.676   2.116  14.110
12564TIP3   OH259182   3.830   2.098   3.993
12564TIP3    H159183   3.816   2.192   4.005
12564TIP3    H259184   3.839   2.086   3.899
12565TIP3   OH259185   1.406   2.298   4.116
12565TIP3    H159186   1.466   2.358   4.161
12565TIP3    H259187   1.398   2.223   4.175
12566TIP3   OH259188   5.844   6.158   1.999
12566TIP3    H159189   5.895   6.212   1.938
12566TIP3    H259190   5.783   6.220   2.040
12567TIP3   OH259191   0.541   2.476  11.347
12567TIP3    H159192   0.511   2.502  11.260
12567TIP3    H259193   0.605   2.542  11.371
12568TIP3   OH259194   5.566   1.411  17.257
12568TIP3    H159195   5.471   1.407  17.272
12568TIP3    H259196   5.602   1.345  17.316
12569TIP3   OH259197   1.244   6.548  12.724
12569TIP3    H159198   1.326   6.539  12.676
12569TIP3    H259199   1.252   6.488  12.798
12570TIP3   OH259200   4.101   1.164   6.532
12570TIP3    H159201   4.179   1.135   6.485
12570TIP3    H259202   4.091   1.256   6.507
12571TIP3   OH259203   2.110   6.779   2.810
12571TIP3    H159204   2.199   6.746   2.820
12571TIP3    H259205   2.092   6.773   2.716
12572TIP3   OH259206   5.660   2.586   5.268
12572TIP3    H159207   5.674   2.578   5.174
12572TIP3    H259208   5.576   2.633   5.275
12573TIP3   OH259209   4.736   3.012   1.511
12573TIP3    H159210   4.750   2.967   1.595
12573TIP3    H259211   4.793   3.089   1.516
12574TIP3   OH259212   6.081   1.347  12.373
12574TIP3    H159213   6.023   1.419  12.350
12574TIP3    H259214   6.026   1.269  12.373
12575TIP3   OH259215   2.842   6.371   1.466
12575TIP3    H159216   2.792   6.358   1.547
12575TIP3    H259217   2.798   6.316   1.402
12576TIP3   OH259218   6.239   6.508  14.608
12576TIP3    H159219   6.177   6.534  14.540
12576TIP3    H259220   6.291   6.586  14.625
12577TIP3   OH259221   1.714   3.139  11.022
12577TIP3    H159222   1.763   3.101  10.949
12577TIP3    H259223   1.636   3.176  10.982
12578TIP3   OH259224   5.465   2.628   2.269
12578TIP3    H159225   5.396   2.655   2.330
12578TIP3    H259226   5.534   2.694   2.280
12579TIP3   OH259227   5.453   0.177  13.008
12579TIP3    H159228   5.410   0.095  13.034
12579TIP3    H259229   5.542   0.150  12.984
12580TIP3   OH259230   5.200   3.744  13.526
12580TIP3    H159231   5.110   3.771  13.546
12580TIP3    H259232   5.227   3.802  13.455
12581TIP3   OH259233   0.393   5.185   4.071
12581TIP3    H159234   0.484   5.188   4.099
12581TIP3    H259235   0.374   5.091   4.060
12582TIP3   OH259236   4.466   0.377   3.416
12582TIP3    H159237   4.476   0.436   3.341
12582TIP3    H259238   4.464   0.290   3.378
12583TIP3   OH259239   2.587   6.592   0.649
12583TIP3    H159240   2.642   6.579   0.726
12583TIP3    H259241   2.540   6.509   0.638
12584TIP3   OH259242   6.703   5.794  11.970
12584TIP3    H159243   6.668   5.878  11.941
12584TIP3    H259244   6.683   5.791  12.063
12585TIP3   OH259245   4.610   0.995   4.161
12585TIP3    H159246   4.699   1.024   4.181
12585TIP3    H259247   4.557   1.073   4.171
12586TIP3   OH259248   0.007   5.693   6.448
12586TIP3    H159249  -0.037   5.664   6.528
12586TIP3    H259250   0.099   5.701   6.472
12587TIP3   OH259251   2.696   3.946  11.364
12587TIP3    H159252   2.659   4.027  11.329
12587TIP3    H259253   2.750   3.912  11.293
12588TIP3   OH259254   3.372   4.529  11.290
12588TIP3    H159255   3.318   4.464  11.245
12588TIP3    H259256   3.367   4.503  11.382
12589TIP3   OH259257   1.627   5.787   2.536
12589TIP3    H159258   1.679   5.866   2.541
12589TIP3    H259259   1.546   5.808   2.583
12590TIP3   OH259260   6.533   0.188   1.264
12590TIP3    H159261   6.495   0.155   1.183
12590TIP3    H259262   6.560   0.110   1.312
12591TIP3   OH259263   3.056   2.515  16.767
12591TIP3    H159264   3.047   2.471  16.682
12591TIP3    H259265   2.990   2.584  16.765
12592TIP3   OH259266   0.964   3.541  14.144
12592TIP3    H159267   0.872   3.544  14.120
12592TIP3    H259268   1.007   3.598  14.080
12593TIP3   OH259269   0.728   4.501   5.022
12593TIP3    H159270   0.733   4.537   4.933
12593TIP3    H259271   0.660   4.552   5.065
12594TIP3   OH259272   6.371   0.856   4.372
12594TIP3    H159273   6.424   0.786   4.334
12594TIP3    H259274   6.298   0.812   4.415
12595TIP3   OH259275   3.282   6.632  13.619
12595TIP3    H159276   3.295   6.644  13.713
12595TIP3    H259277   3.238   6.548  13.611
12596TIP3   OH259278   0.043   3.002   3.156
12596TIP3    H159279   0.014   2.911   3.155
12596TIP3    H259280   0.108   3.007   3.086
12597TIP3   OH259281   3.828   1.713  14.597
12597TIP3    H159282   3.803   1.664  14.518
12597TIP3    H259283   3.899   1.770  14.568
12598TIP3   OH259284   4.465   6.335   5.612
12598TIP3    H159285   4.507   6.304   5.532
12598TIP3    H259286   4.454   6.257   5.666
12599TIP3   OH259287   3.389   1.994  14.704
12599TIP3    H159288   3.435   2.023  14.783
12599TIP3    H259289   3.376   2.075  14.654
12600TIP3   OH259290   4.422   0.352  14.733
12600TIP3    H159291   4.355   0.294  14.697
12600TIP3    H259292   4.377   0.436  14.745
12601TIP3   OH259293   2.053   0.603   2.048
12601TIP3    H159294   2.105   0.645   1.980
12601TIP3    H259295   1.974   0.657   2.057
12602TIP3   OH259296   2.406   4.501   1.876
12602TIP3    H159297   2.418   4.454   1.958
12602TIP3    H259298   2.411   4.593   1.901
12603TIP3   OH259299   0.280   5.571  13.560
12603TIP3    H159300   0.280   5.479  13.583
12603TIP3    H259301   0.206   5.609  13.608
12604TIP3   OH259302   2.405   2.799  15.201
12604TIP3    H159303   2.481   2.781  15.256
12604TIP3    H259304   2.399   2.723  15.143
12605TIP3   OH259305   2.037   3.491  14.446
12605TIP3    H159306   2.115   3.501  14.500
12605TIP3    H259307   2.046   3.404  14.406
12606TIP3   OH259308   2.437   4.499   3.814
12606TIP3    H159309   2.424   4.593   3.828
12606TIP3    H259310   2.352   4.467   3.786
12607TIP3   OH259311   0.973   1.903  13.917
12607TIP3    H159312   1.020   1.819  13.913
12607TIP3    H259313   0.906   1.896  13.849
12608TIP3   OH259314   5.151   3.678  16.620
12608TIP3    H159315   5.184   3.602  16.572
12608TIP3    H259316   5.057   3.680  16.601
12609TIP3   OH259317   0.335   5.141  14.347
12609TIP3    H159318   0.414   5.194  14.353
12609TIP3    H259319   0.277   5.190  14.288
12610TIP3   OH259320   4.706   6.432   0.617
12610TIP3    H159321   4.612   6.420   0.606
12610TIP3    H259322   4.731   6.492   0.547
12611TIP3   OH259323   2.718   6.277   6.084
12611TIP3    H159324   2.626   6.258   6.104
12611TIP3    H259325   2.765   6.199   6.115
12612TIP3   OH259326   1.888   0.425   4.060
12612TIP3    H159327   1.844   0.496   4.013
12612TIP3    H259328   1.839   0.417   4.142
12613TIP3   OH259329   5.862   5.412   6.694
12613TIP3    H159330   5.808   5.340   6.726
12613TIP3    H259331   5.848   5.413   6.599
12614TIP3   OH259332   0.983   2.993   4.134
12614TIP3    H159333   0.958   3.055   4.203
12614TIP3    H259334   1.078   2.986   4.141
12615TIP3   OH259335   5.099   2.617   3.199
12615TIP3    H159336   5.145   2.691   3.239
12615TIP3    H259337   5.011   2.619   3.236
12616TIP3   OH259338   4.309   6.418  14.012
12616TIP3    H159339   4.364   6.496  14.004
12616TIP3    H259340   4.220   6.451  14.002
12617TIP3   OH259341   4.167   0.373  11.643
12617TIP3    H159342   4.202   0.395  11.557
12617TIP3    H259343   4.245   0.353  11.696
12618TIP3   OH259344   6.723   4.959  11.526
12618TIP3    H159345   6.777   4.905  11.583
12618TIP3    H259346   6.759   4.946  11.438
12619TIP3   OH259347   1.387   1.104   1.978
12619TIP3    H159348   1.367   1.040   2.047
12619TIP3    H259349   1.323   1.085   1.909
12620TIP3   OH259350   6.662   4.514  12.008
12620TIP3    H159351   6.584   4.507  12.062
12620TIP3    H259352   6.631   4.551  11.925
12621TIP3   OH259353   6.200   5.526  11.598
12621TIP3    H159354   6.136   5.565  11.538
12621TIP3    H259355   6.147   5.487  11.668
12622TIP3   OH259356   0.043   4.558  15.668
12622TIP3    H159357   0.034   4.641  15.621
12622TIP3    H259358   0.105   4.577  15.738
12623TIP3   OH259359   6.535   1.251  11.217
12623TIP3    H159360   6.594   1.247  11.142
12623TIP3    H259361   6.591   1.277  11.290
12624TIP3   OH259362   5.783   3.088  15.513
12624TIP3    H159363   5.869   3.083  15.553
12624TIP3    H259364   5.759   2.997  15.495
12625TIP3   OH259365   2.679   5.415  17.144
12625TIP3    H159366   2.759   5.377  17.106
12625TIP3    H259367   2.612   5.349  17.130
12626TIP3   OH259368   3.289   2.856  12.701
12626TIP3    H159369   3.375   2.863  12.659
12626TIP3    H259370   3.238   2.927  12.662
12627TIP3   OH259371   6.131   2.490  10.965
12627TIP3    H159372   6.190   2.418  10.945
12627TIP3    H259373   6.061   2.482  10.901
12628TIP3   OH259374   3.448   0.990  14.871
12628TIP3    H159375   3.443   0.921  14.937
12628TIP3    H259376   3.450   1.072  14.921
12629TIP3   OH259377   6.270   5.101  15.763
12629TIP3    H159378   6.185   5.060  15.783
12629TIP3    H259379   6.324   5.029  15.732
12630TIP3   OH259380   3.407   3.217  14.182
12630TIP3    H159381   3.401   3.166  14.263
12630TIP3    H259382   3.363   3.163  14.116
12631TIP3   OH259383   4.793   1.304   5.684
12631TIP3    H159384   4.868   1.364   5.687
12631TIP3    H259385   4.832   1.218   5.667
12632TIP3   OH259386   1.638   1.126  12.413
12632TIP3    H159387   1.617   1.220  12.418
12632TIP3    H259388   1.553   1.083  12.425
12633TIP3   OH259389   0.709   5.039   4.990
12633TIP3    H159390   0.798   5.008   4.973
12633TIP3    H259391   0.699   5.035   5.085
12634TIP3   OH259392   0.360   3.221   2.948
12634TIP3    H159393   0.340   3.130   2.924
12634TIP3    H259394   0.388   3.217   3.039
12635TIP3   OH259395   0.673   6.053   4.234
12635TIP3    H159396   0.695   5.991   4.164
12635TIP3    H259397   0.725   6.131   4.214
12636TIP3   OH259398   1.899   3.699  11.841
12636TIP3    H159399   1.857   3.620  11.807
12636TIP3    H259400   1.990   3.691  11.813
12637TIP3   OH259401   0.147   5.131   0.894
12637TIP3    H159402   0.204   5.068   0.850
12637TIP3    H259403   0.116   5.085   0.972
12638TIP3   OH259404   3.823   2.708  16.396
12638TIP3    H159405   3.877   2.713  16.317
12638TIP3    H259406   3.752   2.649  16.373
12639TIP3   OH259407   5.609   1.194  13.823
12639TIP3    H159408   5.701   1.213  13.838
12639TIP3    H259409   5.592   1.114  13.874
12640TIP3   OH259410   6.624   6.029   6.604
12640TIP3    H159411   6.601   6.002   6.515
12640TIP3    H259412   6.547   6.076   6.636
12641TIP3   OH259413   1.966   6.665   4.197
12641TIP3    H159414   1.944   6.673   4.105
12641TIP3    H259415   2.058   6.637   4.198
12642TIP3   OH259416   6.807   4.689   3.235
12642TIP3    H159417   6.846   4.606   3.262
12642TIP3    H259418   6.804   4.741   3.315
12643TIP3   OH259419   6.266   5.199  12.266
12643TIP3    H159420   6.217   5.252  12.204
12643TIP3    H259421   6.208   5.126  12.287
12644TIP3   OH259422   0.722   3.882  11.860
12644TIP3    H159423   0.737   3.961  11.911
12644TIP3    H259424   0.654   3.835  11.907
12645TIP3   OH259425   2.298   6.706   0.245
12645TIP3    H159426   2.343   6.708   0.161
12645TIP3    H259427   2.209   6.735   0.225
12646TIP3   OH259428   2.180   4.097  12.791
12646TIP3    H159429   2.236   4.020  12.782
12646TIP3    H259430   2.231   4.169  12.754
12647TIP3   OH259431   5.375   4.481   0.311
12647TIP3    H159432   5.313   4.428   0.261
12647TIP3    H259433   5.395   4.429   0.389
12648TIP3   OH259434   0.645   1.482   2.353
12648TIP3    H159435   0.586   1.510   2.423
12648TIP3    H259436   0.595   1.495   2.273
12649TIP3   OH259437   4.483   1.846  11.134
12649TIP3    H159438   4.431   1.925  11.119
12649TIP3    H259439   4.532   1.833  11.053
12650TIP3   OH259440   4.682   0.762   0.084
12650TIP3    H159441   4.712   0.673   0.065
12650TIP3    H259442   4.617   0.750   0.153
12651TIP3   OH259443   4.213   2.534   5.827
12651TIP3    H159444   4.140   2.534   5.889
12651TIP3    H259445   4.176   2.497   5.747
12652TIP3   OH259446   0.035   3.865  12.324
12652TIP3    H159447   0.017   3.887  12.232
12652TIP3    H259448   0.120   3.906  12.341
12653TIP3   OH259449   0.124   1.327  15.474
12653TIP3    H159450   0.146   1.279  15.395
12653TIP3    H259451   0.202   1.379  15.494
12654TIP3   OH259452   3.807   3.814   3.491
12654TIP3    H159453   3.760   3.781   3.567
12654TIP3    H259454   3.793   3.908   3.493
12655TIP3   OH259455   4.626   6.575   0.081
12655TIP3    H159456   4.643   6.499   0.136
12655TIP3    H259457   4.694   6.637   0.105
12656TIP3   OH259458   4.958   5.029   0.546
12656TIP3    H159459   4.920   4.943   0.529
12656TIP3    H259460   4.916   5.059   0.627
12657TIP3   OH259461   1.603   4.494  13.250
12657TIP3    H159462   1.626   4.414  13.203
12657TIP3    H259463   1.612   4.471  13.343
12658TIP3   OH259464   3.491   0.377   3.916
12658TIP3    H159465   3.511   0.408   4.004
12658TIP3    H259466   3.420   0.433   3.885
12659TIP3   OH259467   2.269   4.142   1.733
12659TIP3    H159468   2.345   4.151   1.791
12659TIP3    H259469   2.228   4.061   1.760
12660TIP3   OH259470   0.471   3.369   4.339
12660TIP3    H159471   0.380   3.392   4.357
12660TIP3    H259472   0.490   3.413   4.256
12661TIP3   OH259473   1.829   4.615  15.723
12661TIP3    H159474   1.757   4.678  15.720
12661TIP3    H259475   1.855   4.605  15.631
12662TIP3   OH259476   0.158   0.018   2.955
12662TIP3    H159477   0.149  -0.025   3.040
12662TIP3    H259478   0.071   0.012   2.916
12663TIP3   OH259479   3.900   4.973  15.519
12663TIP3    H159480   3.902   5.017  15.604
12663TIP3    H259481   3.856   4.890  15.536
12664TIP3   OH259482   3.509   3.390  14.598
12664TIP3    H159483   3.558   3.454  14.649
12664TIP3    H259484   3.574   3.349  14.540
12665TIP3   OH259485   5.153   1.303  12.901
12665TIP3    H159486   5.213   1.327  12.971
12665TIP3    H259487   5.180   1.356  12.826
12666TIP3   OH259488   1.151   5.221   4.855
12666TIP3    H159489   1.069   5.262   4.881
12666TIP3    H259490   1.171   5.258   4.769
12667TIP3   OH259491   4.248   2.378   4.818
12667TIP3    H159492   4.205   2.460   4.794
12667TIP3    H259493   4.305   2.358   4.744
12668TIP3   OH259494   5.697   1.966  16.687
12668TIP3    H159495   5.685   1.895  16.750
12668TIP3    H259496   5.691   2.046  16.740
12669TIP3   OH259497   2.874   3.855   0.248
12669TIP3    H159498   2.817   3.920   0.288
12669TIP3    H259499   2.894   3.890   0.161
12670TIP3   OH259500   4.535   5.925   1.168
12670TIP3    H159501   4.446   5.943   1.138
12670TIP3    H259502   4.552   5.835   1.141
12671TIP3   OH259503   0.275   5.523   4.455
12671TIP3    H159504   0.351   5.560   4.500
12671TIP3    H259505   0.311   5.459   4.394
12672TIP3   OH259506   4.258   5.728   1.948
12672TIP3    H159507   4.310   5.750   2.026
12672TIP3    H259508   4.188   5.794   1.946
12673TIP3   OH259509   4.374   4.004   3.821
12673TIP3    H159510   4.279   4.018   3.813
12673TIP3    H259511   4.397   4.046   3.904
12674TIP3   OH259512   3.046   4.273  12.830
12674TIP3    H159513   3.028   4.330  12.904
12674TIP3    H259514   2.987   4.303  12.761
12675TIP3   OH259515   5.854   0.347   5.223
12675TIP3    H159516   5.906   0.403   5.166
12675TIP3    H259517   5.825   0.406   5.294
12676TIP3   OH259518   2.207   2.741  16.995
12676TIP3    H159519   2.243   2.742  17.084
12676TIP3    H259520   2.212   2.649  16.968
12677TIP3   OH259521   4.729   3.189   0.654
12677TIP3    H159522   4.699   3.279   0.648
12677TIP3    H259523   4.763   3.169   0.567
12678TIP3   OH259524   2.511   1.513   2.067
12678TIP3    H159525   2.582   1.520   2.130
12678TIP3    H259526   2.550   1.470   1.991
12679TIP3   OH259527   0.788   3.752   0.606
12679TIP3    H159528   0.770   3.674   0.659
12679TIP3    H259529   0.871   3.734   0.563
12680TIP3   OH259530   2.629   5.218   4.070
12680TIP3    H159531   2.704   5.277   4.070
12680TIP3    H259532   2.598   5.219   4.161
12681TIP3   OH259533   2.755   0.987  14.604
12681TIP3    H159534   2.665   0.965  14.630
12681TIP3    H259535   2.803   0.994  14.687
12682TIP3   OH259536   3.988   5.932  12.641
12682TIP3    H159537   3.947   5.972  12.564
12682TIP3    H259538   3.966   5.839  12.635
12683TIP3   OH259539   6.216   4.109   5.207
12683TIP3    H159540   6.213   4.191   5.157
12683TIP3    H259541   6.306   4.104   5.238
12684TIP3   OH259542   1.208   5.098   5.214
12684TIP3    H159543   1.193   5.028   5.151
12684TIP3    H259544   1.295   5.132   5.192
12685TIP3   OH259545   4.805   3.024  10.999
12685TIP3    H159546   4.711   3.007  10.998
12685TIP3    H259547   4.845   2.939  10.983
12686TIP3   OH259548   5.965   5.687   5.582
12686TIP3    H159549   5.913   5.702   5.503
12686TIP3    H259550   5.900   5.674   5.652
12687TIP3   OH259551   2.334   5.261   0.965
12687TIP3    H159552   2.275   5.302   1.029
12687TIP3    H259553   2.277   5.211   0.908
12688TIP3   OH259554   1.938   1.960   1.063
12688TIP3    H159555   1.887   1.887   1.098
12688TIP3    H259556   2.024   1.923   1.045
12689TIP3   OH259557   6.720   6.415  15.786
12689TIP3    H159558   6.760   6.333  15.815
12689TIP3    H259559   6.741   6.478  15.855
12690TIP3   OH259560   1.170   1.611  11.626
12690TIP3    H159561   1.227   1.611  11.703
12690TIP3    H259562   1.161   1.518  11.603
12691TIP3   OH259563   1.126   2.448   3.868
12691TIP3    H159564   1.100   2.461   3.777
12691TIP3    H259565   1.065   2.502   3.918
12692TIP3   OH259566   6.602   2.438  12.179
12692TIP3    H159567   6.662   2.460  12.108
12692TIP3    H259568   6.564   2.522  12.204
12693TIP3   OH259569   4.736   5.020  10.855
12693TIP3    H159570   4.827   5.014  10.884
12693TIP3    H259571   4.717   5.114  10.854
12694TIP3   OH259572   4.723   4.629  12.772
12694TIP3    H159573   4.656   4.675  12.722
12694TIP3    H259574   4.680   4.609  12.856
12695TIP3   OH259575   4.001   6.305  14.869
12695TIP3    H159576   3.934   6.240  14.887
12695TIP3    H259577   3.955   6.389  14.875
12696TIP3   OH259578   5.097   4.364   2.139
12696TIP3    H159579   5.107   4.336   2.230
12696TIP3    H259580   5.115   4.458   2.140
12697TIP3   OH259581   2.307   6.053  16.862
12697TIP3    H159582   2.279   5.962  16.865
12697TIP3    H259583   2.229   6.103  16.884
12698TIP3   OH259584   3.975   0.399  15.349
12698TIP3    H159585   4.011   0.457  15.282
12698TIP3    H259586   4.018   0.427  15.430
12699TIP3   OH259587   5.843   4.599   4.297
12699TIP3    H159588   5.839   4.659   4.371
12699TIP3    H259589   5.927   4.553   4.308
12700TIP3   OH259590   5.733   4.503   2.966
12700TIP3    H159591   5.656   4.462   3.005
12700TIP3    H259592   5.712   4.508   2.873
12701TIP3   OH259593   6.503   3.083   2.242
12701TIP3    H159594   6.523   3.171   2.272
12701TIP3    H259595   6.579   3.058   2.189
12702TIP3   OH259596   0.551   6.540  15.172
12702TIP3    H159597   0.645   6.535  15.190
12702TIP3    H259598   0.545   6.546  15.077
12703TIP3   OH259599   6.797   4.735  12.038
12703TIP3    H159600   6.765   4.645  12.041
12703TIP3    H259601   6.751   4.775  11.964
12704TIP3   OH259602   4.742   4.974  16.151
12704TIP3    H159603   4.698   4.961  16.066
12704TIP3    H259604   4.734   4.889  16.194
12705TIP3   OH259605   1.399   3.659   0.411
12705TIP3    H159606   1.391   3.653   0.316
12705TIP3    H259607   1.426   3.572   0.439
12706TIP3   OH259608   5.725   6.792   3.861
12706TIP3    H159609   5.792   6.740   3.817
12706TIP3    H259610   5.733   6.879   3.821
12707TIP3   OH259611   2.874   5.053  14.451
12707TIP3    H159612   2.869   5.070  14.545
12707TIP3    H259613   2.913   4.966  14.445
12708TIP3   OH259614   4.293   1.643   5.274
12708TIP3    H159615   4.243   1.561   5.283
12708TIP3    H259616   4.248   1.704   5.332
12709TIP3   OH259617   5.023   5.074   2.564
12709TIP3    H159618   4.987   5.022   2.493
12709TIP3    H259619   4.974   5.046   2.642
12710TIP3   OH259620   0.120   4.258  12.821
12710TIP3    H159621   0.179   4.315  12.772
12710TIP3    H259622   0.178   4.197  12.867
12711TIP3   OH259623   5.418   4.381   2.275
12711TIP3    H159624   5.440   4.306   2.221
12711TIP3    H259625   5.385   4.446   2.214
12712TIP3   OH259626   4.399   3.037  16.067
12712TIP3    H159627   4.339   3.040  15.992
12712TIP3    H259628   4.416   2.944  16.079
12713TIP3   OH259629   5.889   5.262  15.387
12713TIP3    H159630   5.850   5.245  15.473
12713TIP3    H259631   5.939   5.182  15.367
12714TIP3   OH259632   0.995   3.595  16.320
12714TIP3    H159633   1.059   3.597  16.249
12714TIP3    H259634   1.018   3.671  16.374
12715TIP3   OH259635   1.556   6.360   1.570
12715TIP3    H159636   1.478   6.322   1.610
12715TIP3    H259637   1.550   6.335   1.478
12716TIP3   OH259638   5.164   5.549  16.822
12716TIP3    H159639   5.190   5.598  16.744
12716TIP3    H259640   5.156   5.615  16.890
12717TIP3   OH259641   3.526   3.370  11.856
12717TIP3    H159642   3.487   3.291  11.818
12717TIP3    H259643   3.555   3.420  11.780
12718TIP3   OH259644   6.265   0.100   3.970
12718TIP3    H159645   6.294   0.009   3.969
12718TIP3    H259646   6.303   0.139   3.891
12719TIP3   OH259647   4.899   3.069  11.786
12719TIP3    H159648   4.912   3.162  11.805
12719TIP3    H259649   4.836   3.040  11.851
12720TIP3   OH259650   1.269   1.522   2.414
12720TIP3    H159651   1.185   1.486   2.385
12720TIP3    H259652   1.246   1.590   2.476
12721TIP3   OH259653   3.609   3.609   1.121
12721TIP3    H159654   3.687   3.581   1.169
12721TIP3    H259655   3.642   3.650   1.041
12722TIP3   OH259656   5.034   6.709   0.311
12722TIP3    H159657   5.004   6.621   0.335
12722TIP3    H259658   4.954   6.754   0.282
12723TIP3   OH259659   3.190   2.448   1.627
12723TIP3    H159660   3.272   2.399   1.630
12723TIP3    H259661   3.217   2.540   1.623
12724TIP3   OH259662   2.411   2.205  15.078
12724TIP3    H159663   2.458   2.277  15.034
12724TIP3    H259664   2.386   2.241  15.163
12725TIP3   OH259665   0.177   2.376  14.558
12725TIP3    H159666   0.083   2.394  14.561
12725TIP3    H259667   0.183   2.281  14.559
12726TIP3   OH259668   6.699   1.269   1.471
12726TIP3    H159669   6.653   1.242   1.392
12726TIP3    H259670   6.727   1.186   1.512
12727TIP3   OH259671   4.407   4.895  15.529
12727TIP3    H159672   4.384   4.803  15.523
12727TIP3    H259673   4.327   4.942  15.507
12728TIP3   OH259674   4.101   1.659  13.648
12728TIP3    H159675   4.105   1.612  13.564
12728TIP3    H259676   4.114   1.591  13.714
12729TIP3   OH259677   1.191   5.417   2.104
12729TIP3    H159678   1.234   5.468   2.036
12729TIP3    H259679   1.179   5.330   2.065
12730TIP3   OH259680   1.996   1.676  17.249
12730TIP3    H159681   1.953   1.596  17.277
12730TIP3    H259682   2.039   1.653  17.167
12731TIP3   OH259683   2.197   2.136   0.239
12731TIP3    H159684   2.130   2.176   0.295
12731TIP3    H259685   2.211   2.049   0.276
12732TIP3   OH259686   1.730   4.156   2.123
12732TIP3    H159687   1.784   4.179   2.047
12732TIP3    H259688   1.745   4.227   2.185
12733TIP3   OH259689   5.129   4.596  17.201
12733TIP3    H159690   5.170   4.683  17.201
12733TIP3    H259691   5.036   4.613  17.194
12734TIP3   OH259692   3.135   4.171   0.456
12734TIP3    H159693   3.137   4.175   0.552
12734TIP3    H259694   3.167   4.083   0.436
12735TIP3   OH259695   0.406   3.083  16.786
12735TIP3    H159696   0.403   3.145  16.713
12735TIP3    H259697   0.469   3.121  16.847
12736TIP3   OH259698   3.070   1.008  15.808
12736TIP3    H159699   3.141   1.070  15.793
12736TIP3    H259700   2.992   1.063  15.815
12737TIP3   OH259701   4.770   2.270   1.337
12737TIP3    H159702   4.759   2.341   1.400
12737TIP3    H259703   4.819   2.203   1.384
12738TIP3   OH259704   4.892   3.763   2.927
12738TIP3    H159705   4.846   3.752   3.010
12738TIP3    H259706   4.964   3.701   2.930
12739TIP3   OH259707   6.689   3.358  15.849
12739TIP3    H159708   6.686   3.320  15.760
12739TIP3    H259709   6.657   3.287  15.905
12740TIP3   OH259710   6.555   6.239   2.371
12740TIP3    H159711   6.486   6.297   2.403
12740TIP3    H259712   6.523   6.151   2.391
12741TIP3   OH259713   6.081   3.571   2.435
12741TIP3    H159714   6.044   3.600   2.519
12741TIP3    H259715   6.130   3.491   2.457
12742TIP3   OH259716   3.564   4.318   5.452
12742TIP3    H159717   3.471   4.296   5.450
12742TIP3    H259718   3.592   4.299   5.542
12743TIP3   OH259719   3.817   0.832  11.193
12743TIP3    H159720   3.724   0.855  11.199
12743TIP3    H259721   3.829   0.763  11.258
12744TIP3   OH259722   5.118   4.132   2.019
12744TIP3    H159723   5.100   4.195   2.089
12744TIP3    H259724   5.039   4.078   2.015
12745TIP3   OH259725   1.030   1.237   0.438
12745TIP3    H159726   0.961   1.251   0.374
12745TIP3    H259727   0.997   1.278   0.518
12746TIP3   OH259728   0.100   3.161  15.746
12746TIP3    H159729   0.168   3.197  15.689
12746TIP3    H259730   0.038   3.119  15.685
12747TIP3   OH259731   4.785   0.338  12.649
12747TIP3    H159732   4.717   0.348  12.716
12747TIP3    H259733   4.759   0.399  12.580
12748TIP3   OH259734   4.420   6.104   3.476
12748TIP3    H159735   4.403   6.032   3.537
12748TIP3    H259736   4.371   6.081   3.397
12749TIP3   OH259737   0.219   1.915  10.327
12749TIP3    H159738   0.134   1.892  10.290
12749TIP3    H259739   0.199   1.966  10.405
12750TIP3   OH259740   2.839   6.810  13.797
12750TIP3    H159741   2.761   6.761  13.773
12750TIP3    H259742   2.894   6.809  13.719
12751TIP3   OH259743   0.389   5.658   2.500
12751TIP3    H159744   0.304   5.625   2.473
12751TIP3    H259745   0.452   5.606   2.451
12752TIP3   OH259746   4.241   2.958   6.578
12752TIP3    H159747   4.296   2.902   6.632
12752TIP3    H259748   4.156   2.914   6.575
12753TIP3   OH259749   3.867   3.131   2.863
12753TIP3    H159750   3.911   3.216   2.861
12753TIP3    H259751   3.774   3.151   2.852
12754TIP3   OH259752   5.773   6.230  16.183
12754TIP3    H159753   5.852   6.243  16.132
12754TIP3    H259754   5.721   6.168  16.133
12755TIP3   OH259755   1.925   6.180  12.530
12755TIP3    H159756   1.889   6.094  12.554
12755TIP3    H259757   1.864   6.214  12.465
12756TIP3   OH259758   3.449   4.484   0.739
12756TIP3    H159759   3.504   4.498   0.816
12756TIP3    H259760   3.391   4.560   0.736
12757TIP3   OH259761   5.250   5.993  11.592
12757TIP3    H159762   5.220   6.063  11.650
12757TIP3    H259763   5.198   6.004  11.512
12758TIP3   OH259764   4.627   2.573   4.543
12758TIP3    H159765   4.695   2.575   4.611
12758TIP3    H259766   4.668   2.615   4.467
12759TIP3   OH259767   6.676   5.148   1.871
12759TIP3    H159768   6.725   5.216   1.917
12759TIP3    H259769   6.641   5.092   1.941
12760TIP3   OH259770   6.637   5.742   2.683
12760TIP3    H159771   6.646   5.837   2.689
12760TIP3    H259772   6.644   5.711   2.773
12761TIP3   OH259773   4.975   2.266   4.075
12761TIP3    H159774   5.025   2.186   4.057
12761TIP3    H259775   5.041   2.329   4.104
12762TIP3   OH259776   2.798   5.260  10.690
12762TIP3    H159777   2.801   5.200  10.615
12762TIP3    H259778   2.844   5.339  10.660
12763TIP3   OH259779   5.050   1.769   3.328
12763TIP3    H159780   5.086   1.849   3.366
12763TIP3    H259781   5.004   1.798   3.249
12764TIP3   OH259782   2.343   6.809   1.305
12764TIP3    H159783   2.428   6.776   1.274
12764TIP3    H259784   2.353   6.814   1.400
12765TIP3   OH259785   0.268   3.695   4.201
12765TIP3    H159786   0.202   3.677   4.268
12765TIP3    H259787   0.345   3.723   4.250
12766TIP3   OH259788   1.682   4.315  13.885
12766TIP3    H159789   1.644   4.271  13.809
12766TIP3    H259790   1.646   4.269  13.960
12767TIP3   OH259791   1.991   6.514   4.605
12767TIP3    H159792   1.902   6.533   4.577
12767TIP3    H259793   2.026   6.599   4.633
12768TIP3   OH259794   5.247   0.014   3.215
12768TIP3    H159795   5.184  -0.002   3.145
12768TIP3    H259796   5.254  -0.070   3.260
12769TIP3   OH259797   3.356   1.564   0.646
12769TIP3    H159798   3.367   1.574   0.741
12769TIP3    H259799   3.428   1.616   0.609
12770TIP3   OH259800   6.138   3.773   5.615
12770TIP3    H159801   6.225   3.780   5.655
12770TIP3    H259802   6.143   3.831   5.539
12771TIP3   OH259803   6.314   4.723  13.217
12771TIP3    H159804   6.364   4.752  13.141
12771TIP3    H259805   6.368   4.654  13.256
12772TIP3   OH259806   6.339   4.002   2.301
12772TIP3    H159807   6.298   4.005   2.214
12772TIP3    H259808   6.401   3.930   2.296
12773TIP3   OH259809   5.468   5.783   4.687
12773TIP3    H159810   5.474   5.752   4.778
12773TIP3    H259811   5.374   5.796   4.673
12774TIP3   OH259812   3.739   4.077   1.295
12774TIP3    H159813   3.688   4.002   1.264
12774TIP3    H259814   3.818   4.038   1.333
12775TIP3   OH259815   3.825   0.983  12.198
12775TIP3    H159816   3.846   0.929  12.122
12775TIP3    H259817   3.834   1.073  12.167
12776TIP3   OH259818   3.062   3.991   6.512
12776TIP3    H159819   3.136   3.952   6.466
12776TIP3    H259820   3.083   4.085   6.516
12777TIP3   OH259821   3.814   1.136   0.682
12777TIP3    H159822   3.850   1.057   0.643
12777TIP3    H259823   3.887   1.175   0.730
12778TIP3   OH259824   1.612   3.164   1.597
12778TIP3    H159825   1.703   3.154   1.625
12778TIP3    H259826   1.615   3.155   1.501
12779TIP3   OH259827   6.309   0.479  12.914
12779TIP3    H159828   6.380   0.472  12.978
12779TIP3    H259829   6.241   0.530  12.959
12780TIP3   OH259830   5.826   1.978   5.257
12780TIP3    H159831   5.823   1.912   5.187
12780TIP3    H259832   5.773   1.940   5.327
12781TIP3   OH259833   5.126   4.672  12.854
12781TIP3    H159834   5.082   4.757  12.852
12781TIP3    H259835   5.173   4.667  12.770
12782TIP3   OH259836   1.355   1.523   5.064
12782TIP3    H159837   1.318   1.598   5.110
12782TIP3    H259838   1.284   1.491   5.009
12783TIP3   OH259839   5.198   4.791   5.493
12783TIP3    H159840   5.253   4.866   5.471
12783TIP3    H259841   5.194   4.791   5.588
12784TIP3   OH259842   2.495   6.264  16.063
12784TIP3    H159843   2.507   6.172  16.085
12784TIP3    H259844   2.480   6.264  15.968
12785TIP3   OH259845   4.899   6.373   0.087
12785TIP3    H159846   4.828   6.412   0.036
12785TIP3    H259847   4.892   6.279   0.070
12786TIP3   OH259848   3.943   1.972   3.211
12786TIP3    H159849   4.012   1.915   3.177
12786TIP3    H259850   3.862   1.921   3.199
12787TIP3   OH259851   3.507   5.176   0.189
12787TIP3    H159852   3.508   5.124   0.108
12787TIP3    H259853   3.480   5.263   0.162
12788TIP3   OH259854   5.061   6.542  13.889
12788TIP3    H159855   4.966   6.548  13.878
12788TIP3    H259856   5.098   6.594  13.818
12789TIP3   OH259857   2.559   3.038  14.933
12789TIP3    H159858   2.494   3.097  14.971
12789TIP3    H259859   2.531   2.951  14.960
12790TIP3   OH259860   5.467   5.140   1.128
12790TIP3    H159861   5.416   5.212   1.164
12790TIP3    H259862   5.456   5.147   1.033
12791TIP3   OH259863   1.355   5.359  16.635
12791TIP3    H159864   1.340   5.452  16.622
12791TIP3    H259865   1.310   5.316  16.562
12792TIP3   OH259866   0.247   1.783   0.199
12792TIP3    H159867   0.256   1.871   0.162
12792TIP3    H259868   0.274   1.725   0.129
12793TIP3   OH259869   6.422   1.133   5.933
12793TIP3    H159870   6.465   1.197   5.991
12793TIP3    H259871   6.329   1.142   5.953
12794TIP3   OH259872   4.653   5.016   3.505
12794TIP3    H159873   4.712   4.998   3.432
12794TIP3    H259874   4.699   5.080   3.559
12795TIP3   OH259875   2.063   6.053  12.802
12795TIP3    H159876   2.116   6.004  12.739
12795TIP3    H259877   1.973   6.040  12.773
12796TIP3   OH259878   4.483   2.929  17.124
12796TIP3    H159879   4.410   2.934  17.185
12796TIP3    H259880   4.554   2.890  17.174
12797TIP3   OH259881   2.925   1.486  17.002
12797TIP3    H159882   2.934   1.480  16.907
12797TIP3    H259883   3.015   1.480  17.035
12798TIP3   OH259884   0.660   6.106   2.848
12798TIP3    H159885   0.729   6.040   2.854
12798TIP3    H259886   0.624   6.095   2.760
12799TIP3   OH259887   6.087   4.528  16.256
12799TIP3    H159888   6.151   4.464  16.225
12799TIP3    H259889   6.135   4.611  16.257
12800TIP3   OH259890   0.180   6.387  16.679
12800TIP3    H159891   0.168   6.292  16.681
12800TIP3    H259892   0.091   6.422  16.664
12801TIP3   OH259893   1.303   4.738  14.492
12801TIP3    H159894   1.241   4.804  14.462
12801TIP3    H259895   1.388   4.782  14.490
12802TIP3   OH259896   1.336   2.183  15.879
12802TIP3    H159897   1.296   2.110  15.831
12802TIP3    H259898   1.426   2.155  15.894
12803TIP3   OH259899   4.822   5.128  16.369
12803TIP3    H159900   4.769   5.201  16.402
12803TIP3    H259901   4.767   5.086  16.303
12804TIP3   OH259902   3.354   4.142   2.972
12804TIP3    H159903   3.426   4.129   2.911
12804TIP3    H259904   3.366   4.231   3.005
12805TIP3   OH259905   1.964   3.591   5.198
12805TIP3    H159906   1.982   3.623   5.287
12805TIP3    H259907   1.889   3.533   5.208
12806TIP3   OH259908   1.393   0.334  14.713
12806TIP3    H159909   1.398   0.427  14.689
12806TIP3    H259910   1.424   0.288  14.634
12807TIP3   OH259911   3.981   0.933  13.972
12807TIP3    H159912   3.976   1.029  13.971
12807TIP3    H259913   4.070   0.915  14.003
12808TIP3   OH259914   0.171   0.027  13.350
12808TIP3    H159915   0.225   0.044  13.273
12808TIP3    H259916   0.233   0.025  13.423
12809TIP3   OH259917   1.428   2.570   2.204
12809TIP3    H159918   1.482   2.582   2.282
12809TIP3    H259919   1.479   2.511   2.149
12810TIP3   OH259920   0.123   1.255   2.407
12810TIP3    H159921   0.216   1.263   2.429
12810TIP3    H259922   0.119   1.180   2.347
12811TIP3   OH259923   3.705   6.329  15.108
12811TIP3    H159924   3.617   6.332  15.144
12811TIP3    H259925   3.713   6.241  15.071
12812TIP3   OH259926   5.002   2.117  12.399
12812TIP3    H159927   4.973   2.123  12.490
12812TIP3    H259928   4.953   2.187  12.355
12813TIP3   OH259929   2.641   3.096  16.395
12813TIP3    H159930   2.551   3.116  16.418
12813TIP3    H259931   2.634   3.030  16.325
12814TIP3   OH259932   5.914   1.694   3.633
12814TIP3    H159933   5.859   1.622   3.602
12814TIP3    H259934   5.886   1.709   3.723
12815TIP3   OH259935   1.175   4.502  12.723
12815TIP3    H159936   1.111   4.433  12.709
12815TIP3    H259937   1.222   4.475  12.802
12816TIP3   OH259938   3.262   6.675  13.312
12816TIP3    H159939   3.249   6.596  13.261
12816TIP3    H259940   3.244   6.649  13.403
12817TIP3   OH259941   6.055   5.642   1.969
12817TIP3    H159942   6.077   5.656   1.877
12817TIP3    H259943   5.959   5.638   1.970
12818TIP3   OH259944   3.516   1.521   0.267
12818TIP3    H159945   3.469   1.604   0.280
12818TIP3    H259946   3.590   1.544   0.211
12819TIP3   OH259947   0.406   0.200   3.735
12819TIP3    H159948   0.471   0.144   3.775
12819TIP3    H259949   0.410   0.282   3.784
12820TIP3   OH259950   1.773   5.877  11.807
12820TIP3    H159951   1.819   5.846  11.885
12820TIP3    H259952   1.774   5.973  11.815
12821TIP3   OH259953   2.769   1.786   1.256
12821TIP3    H159954   2.825   1.845   1.207
12821TIP3    H259955   2.773   1.818   1.347
12822TIP3   OH259956   5.784   5.655  11.295
12822TIP3    H159957   5.692   5.661  11.270
12822TIP3    H259958   5.827   5.725  11.244
12823TIP3   OH259959   2.384   6.280  14.445
12823TIP3    H159960   2.423   6.194  14.429
12823TIP3    H259961   2.313   6.263  14.507
12824TIP3   OH259962   6.817   0.709  12.270
12824TIP3    H159963   6.722   0.708  12.278
12824TIP3    H259964   6.847   0.634  12.322
12825TIP3   OH259965   6.208   2.484  11.595
12825TIP3    H159966   6.239   2.564  11.637
12825TIP3    H259967   6.211   2.503  11.501
12826TIP3   OH259968   5.887   3.571  15.150
12826TIP3    H159969   5.809   3.568  15.205
12826TIP3    H259970   5.872   3.643  15.089
12827TIP3   OH259971   1.454   1.839  11.009
12827TIP3    H159972   1.527   1.780  10.991
12827TIP3    H259973   1.377   1.784  11.008
12828TIP3   OH259974   3.753   3.868   3.984
12828TIP3    H159975   3.743   3.959   4.013
12828TIP3    H259976   3.727   3.869   3.892
12829TIP3   OH259977   0.536   0.116   2.732
12829TIP3    H159978   0.527   0.072   2.647
12829TIP3    H259979   0.631   0.126   2.743
12830TIP3   OH259980   1.686   5.100  14.229
12830TIP3    H159981   1.708   5.188  14.197
12830TIP3    H259982   1.708   5.042  14.156
12831TIP3   OH259983   5.365   3.734  12.066
12831TIP3    H159984   5.386   3.641  12.078
12831TIP3    H259985   5.337   3.740  11.974
12832TIP3   OH259986   5.581   0.767  15.770
12832TIP3    H159987   5.573   0.678  15.737
12832TIP3    H259988   5.496   0.807  15.753
12833TIP3   OH259989   4.209   5.342  12.724
12833TIP3    H159990   4.301   5.329  12.702
12833TIP3    H259991   4.207   5.345  12.819
12834TIP3   OH259992   4.499   6.111  12.341
12834TIP3    H159993   4.559   6.039  12.364
12834TIP3    H259994   4.541   6.189  12.377
12835TIP3   OH259995   5.402   1.481   0.982
12835TIP3    H159996   5.423   1.451   0.893
12835TIP3    H259997   5.307   1.488   0.983
12836TIP3   OH259998   3.590   5.101   1.202
12836TIP3    H159999   3.595   5.161   1.128
12836TIP3    H260000   3.679   5.065   1.210
12837TIP3   OH260001   2.068   4.980   3.967
12837TIP3    H160002   2.013   4.930   4.028
12837TIP3    H260003   2.031   5.068   3.968
12838TIP3   OH260004   6.432   5.053  16.362
12838TIP3    H160005   6.346   5.069  16.323
12838TIP3    H260006   6.480   5.134  16.347
12839TIP3   OH260007   4.828   4.624  13.900
12839TIP3    H160008   4.856   4.623  13.992
12839TIP3    H260009   4.871   4.549  13.860
12840TIP3   OH260010   2.909   2.766   5.570
12840TIP3    H160011   2.969   2.702   5.530
12840TIP3    H260012   2.837   2.713   5.604
12841TIP3   OH260013   2.085   5.976   3.203
12841TIP3    H160014   2.103   6.065   3.173
12841TIP3    H260015   2.034   5.936   3.132
12842TIP3   OH260016   0.154   3.310   3.270
12842TIP3    H160017   0.216   3.304   3.342
12842TIP3    H260018   0.182   3.387   3.221
12843TIP3   OH260019   3.495   0.706   6.205
12843TIP3    H160020   3.589   0.691   6.217
12843TIP3    H260021   3.459   0.702   6.293
12844TIP3   OH260022   5.644   3.561  14.963
12844TIP3    H160023   5.625   3.628  14.898
12844TIP3    H260024   5.561   3.547  15.009
12845TIP3   OH260025   0.116   3.429  12.790
12845TIP3    H160026   0.120   3.473  12.705
12845TIP3    H260027   0.186   3.364  12.786
12846TIP3   OH260028   3.623   3.032  11.868
12846TIP3    H160029   3.530   3.049  11.856
12846TIP3    H260030   3.667   3.108  11.829
12847TIP3   OH260031   1.836   5.736  15.925
12847TIP3    H160032   1.783   5.816  15.917
12847TIP3    H260033   1.925   5.768  15.943
12848TIP3   OH260034   6.392   1.261  11.545
12848TIP3    H160035   6.362   1.335  11.599
12848TIP3    H260036   6.472   1.294  11.504
12849TIP3   OH260037   3.283   2.366   3.989
12849TIP3    H160038   3.354   2.303   3.976
12849TIP3    H260039   3.322   2.433   4.046
12850TIP3   OH260040   4.724   4.541   1.194
12850TIP3    H160041   4.782   4.510   1.124
12850TIP3    H260042   4.640   4.500   1.175
12851TIP3   OH260043   3.165   5.417   3.239
12851TIP3    H160044   3.073   5.407   3.262
12851TIP3    H260045   3.166   5.483   3.170
12852TIP3   OH260046   1.394   2.020   5.500
12852TIP3    H160047   1.478   2.053   5.533
12852TIP3    H260048   1.384   2.061   5.414
12853TIP3   OH260049   3.253   0.963   0.418
12853TIP3    H160050   3.315   1.036   0.423
12853TIP3    H260051   3.287   0.898   0.478
12854TIP3   OH260052   2.322   2.375  16.444
12854TIP3    H160053   2.353   2.325  16.520
12854TIP3    H260054   2.232   2.345  16.431
12855TIP3   OH260055   5.773   2.493  13.473
12855TIP3    H160056   5.785   2.474  13.380
12855TIP3    H260057   5.858   2.475  13.512
12856TIP3   OH260058   0.425   1.307  11.977
12856TIP3    H160059   0.429   1.248  11.902
12856TIP3    H260060   0.350   1.277  12.028
12857TIP3   OH260061   2.889   5.750   5.563
12857TIP3    H160062   2.841   5.684   5.513
12857TIP3    H260063   2.904   5.821   5.500
12858TIP3   OH260064   5.050   6.241   1.468
12858TIP3    H160065   5.026   6.317   1.415
12858TIP3    H260066   5.015   6.260   1.555
12859TIP3   OH260067   0.214   5.477   3.049
12859TIP3    H160068   0.301   5.509   3.076
12859TIP3    H260069   0.217   5.383   3.067
12860TIP3   OH260070   5.485   2.286  11.775
12860TIP3    H160071   5.561   2.278  11.833
12860TIP3    H260072   5.426   2.217  11.804
12861TIP3   OH260073   2.595   5.852   0.731
12861TIP3    H160074   2.640   5.932   0.757
12861TIP3    H260075   2.531   5.836   0.801
12862TIP3   OH260076   2.927   4.779  14.525
12862TIP3    H160077   2.952   4.728  14.602
12862TIP3    H260078   2.857   4.728  14.484
12863TIP3   OH260079   2.287   1.119  13.598
12863TIP3    H160080   2.240   1.084  13.675
12863TIP3    H260081   2.291   1.213  13.613
12864TIP3   OH260082   5.766   0.170  15.381
12864TIP3    H160083   5.784   0.263  15.369
12864TIP3    H260084   5.698   0.151  15.317
12865TIP3   OH260085   2.084   1.005  11.764
12865TIP3    H160086   2.100   1.039  11.676
12865TIP3    H260087   2.032   0.926  11.749
12866TIP3   OH260088   0.598   5.547  12.182
12866TIP3    H160089   0.626   5.620  12.127
12866TIP3    H260090   0.644   5.471  12.146
12867TIP3   OH260091   3.010   0.370  10.720
12867TIP3    H160092   2.996   0.319  10.640
12867TIP3    H260093   2.995   0.461  10.692
12868TIP3   OH260094   1.722   3.493   4.162
12868TIP3    H160095   1.649   3.465   4.107
12868TIP3    H260096   1.766   3.561   4.111
12869TIP3   OH260097   5.330   1.074   3.512
12869TIP3    H160098   5.245   1.036   3.488
12869TIP3    H260099   5.352   1.032   3.595
12870TIP3   OH260100   1.125   6.780   6.278
12870TIP3    H160101   1.206   6.757   6.233
12870TIP3    H260102   1.147   6.775   6.371
12871TIP3   OH260103   4.683   6.512  13.443
12871TIP3    H160104   4.676   6.474  13.355
12871TIP3    H260105   4.742   6.587  13.431
12872TIP3   OH260106   1.146   2.176   5.899
12872TIP3    H160107   1.178   2.118   5.968
12872TIP3    H260108   1.222   2.189   5.842
12873TIP3   OH260109   2.533   6.681  14.869
12873TIP3    H160110   2.577   6.610  14.822
12873TIP3    H260111   2.588   6.758  14.853
12874TIP3   OH260112   4.767   2.256   3.772
12874TIP3    H160113   4.812   2.174   3.790
12874TIP3    H260114   4.790   2.278   3.682
12875TIP3   OH260115   0.090   3.139   3.662
12875TIP3    H160116   0.048   3.088   3.732
12875TIP3    H260117   0.156   3.081   3.626
12876TIP3   OH260118   5.637   2.323   4.366
12876TIP3    H160119   5.574   2.394   4.362
12876TIP3    H260120   5.722   2.366   4.366
12877TIP3   OH260121   3.514   5.557  13.522
12877TIP3    H160122   3.556   5.537  13.438
12877TIP3    H260123   3.505   5.652  13.522
12878TIP3   OH260124   0.553   3.369  16.022
12878TIP3    H160125   0.620   3.391  16.088
12878TIP3    H260126   0.485   3.324  16.072
12879TIP3   OH260127   0.204   5.252   5.464
12879TIP3    H160128   0.151   5.327   5.435
12879TIP3    H260129   0.273   5.291   5.517
12880TIP3   OH260130   0.535   2.947  11.579
12880TIP3    H160131   0.609   3.003  11.601
12880TIP3    H260132   0.540   2.874  11.641
12881TIP3   OH260133   4.654   2.048   5.716
12881TIP3    H160134   4.729   2.081   5.766
12881TIP3    H260135   4.687   2.038   5.627
12882TIP3   OH260136   1.085   5.736   1.321
12882TIP3    H160137   1.158   5.754   1.262
12882TIP3    H260138   1.072   5.641   1.315
12883TIP3   OH260139   3.812   2.269  12.575
12883TIP3    H160140   3.815   2.365  12.578
12883TIP3    H260141   3.903   2.243  12.561
12884TIP3   OH260142   0.165   0.056  11.354
12884TIP3    H160143   0.213  -0.019  11.389
12884TIP3    H260144   0.181   0.053  11.259
12885TIP3   OH260145   0.625   5.492   4.508
12885TIP3    H160146   0.630   5.556   4.436
12885TIP3    H260147   0.610   5.408   4.464
12886TIP3   OH260148   0.490   3.724  13.368
12886TIP3    H160149   0.458   3.810  13.339
12886TIP3    H260150   0.444   3.709  13.450
12887TIP3   OH260151   3.899   2.568  13.111
12887TIP3    H160152   3.986   2.545  13.144
12887TIP3    H260153   3.902   2.542  13.019
12888TIP3   OH260154   3.767   2.057   2.877
12888TIP3    H160155   3.687   2.046   2.825
12888TIP3    H260156   3.814   2.127   2.833
12889TIP3   OH260157   5.488   3.543  16.209
12889TIP3    H160158   5.507   3.624  16.160
12889TIP3    H260159   5.550   3.479  16.174
12890TIP3   OH260160   5.429   3.984  13.352
12890TIP3    H160161   5.501   4.001  13.290
12890TIP3    H260162   5.362   3.940  13.299
12891TIP3   OH260163   2.039   1.716  13.778
12891TIP3    H160164   2.125   1.693  13.814
12891TIP3    H260165   1.990   1.748  13.854
12892TIP3   OH260166   2.480   6.633   0.066
12892TIP3    H160167   2.502   6.586  -0.015
12892TIP3    H260168   2.564   6.647   0.109
12893TIP3   OH260169   6.420   1.514   2.352
12893TIP3    H160170   6.490   1.528   2.416
12893TIP3    H260171   6.345   1.484   2.404
12894TIP3   OH260172   5.233   4.604   2.626
12894TIP3    H160173   5.247   4.687   2.671
12894TIP3    H260174   5.141   4.583   2.642
12895TIP3   OH260175   5.806   5.826  14.495
12895TIP3    H160176   5.728   5.791  14.452
12895TIP3    H260177   5.771   5.870  14.573
12896TIP3   OH260178   3.251   5.819  10.648
12896TIP3    H160179   3.177   5.763  10.626
12896TIP3    H260180   3.324   5.783  10.597
12897TIP3   OH260181   1.835   6.138   5.655
12897TIP3    H160182   1.896   6.066   5.671
12897TIP3    H260183   1.813   6.131   5.563
12898TIP3   OH260184   0.733   5.510  14.684
12898TIP3    H160185   0.706   5.598  14.656
12898TIP3    H260186   0.654   5.456  14.672
12899TIP3   OH260187   5.753   2.582   1.612
12899TIP3    H160188   5.698   2.615   1.540
12899TIP3    H260189   5.841   2.577   1.574
12900TIP3   OH260190   5.781   3.021  15.869
12900TIP3    H160191   5.823   2.960  15.808
12900TIP3    H260192   5.722   3.072  15.815
12901TIP3   OH260193   3.289   5.952  16.088
12901TIP3    H160194   3.371   5.998  16.072
12901TIP3    H260195   3.306   5.862  16.062
12902TIP3   OH260196   2.894   4.791  13.031
12902TIP3    H160197   2.824   4.852  13.055
12902TIP3    H260198   2.871   4.761  12.943
12903TIP3   OH260199   4.896   1.399   3.820
12903TIP3    H160200   4.818   1.364   3.864
12903TIP3    H260201   4.967   1.388   3.883
12904TIP3   OH260202   3.866   2.570   0.836
12904TIP3    H160203   3.949   2.605   0.868
12904TIP3    H260204   3.854   2.487   0.882
12905TIP3   OH260205   6.673   5.616   3.910
12905TIP3    H160206   6.686   5.552   3.979
12905TIP3    H260207   6.587   5.654   3.928
12906TIP3   OH260208   4.966   5.472   4.672
12906TIP3    H160209   5.024   5.398   4.657
12906TIP3    H260210   4.984   5.499   4.762
12907TIP3   OH260211   6.028   3.529  15.814
12907TIP3    H160212   5.938   3.518  15.843
12907TIP3    H260213   6.021   3.566  15.726
12908TIP3   OH260214   4.455   5.826  16.318
12908TIP3    H160215   4.547   5.855  16.322
12908TIP3    H260216   4.409   5.883  16.379
12909TIP3   OH260217   0.833   0.490   0.623
12909TIP3    H160218   0.834   0.395   0.632
12909TIP3    H260219   0.841   0.523   0.713
12910TIP3   OH260220   6.207   6.296   5.898
12910TIP3    H160221   6.280   6.234   5.892
12910TIP3    H260222   6.248   6.382   5.897
12911TIP3   OH260223   4.346   0.223   3.177
12911TIP3    H160224   4.323   0.187   3.091
12911TIP3    H260225   4.352   0.146   3.234
12912TIP3   OH260226   3.878   1.130  16.304
12912TIP3    H160227   3.912   1.077  16.376
12912TIP3    H260228   3.783   1.127  16.314
12913TIP3   OH260229   6.144   6.566   1.121
12913TIP3    H160230   6.172   6.652   1.149
12913TIP3    H260231   6.053   6.578   1.094
12914TIP3   OH260232   4.074   2.927  10.223
12914TIP3    H160233   4.106   2.985  10.292
12914TIP3    H260234   4.144   2.863  10.211
12915TIP3   OH260235   2.776   6.654   3.558
12915TIP3    H160236   2.738   6.719   3.618
12915TIP3    H260237   2.863   6.689   3.537
12916TIP3   OH260238   1.477   2.541   5.764
12916TIP3    H160239   1.384   2.559   5.748
12916TIP3    H260240   1.511   2.622   5.800
12917TIP3   OH260241   0.416   5.720  13.804
12917TIP3    H160242   0.352   5.662  13.764
12917TIP3    H260243   0.498   5.702  13.758
12918TIP3   OH260244   0.986   0.019   3.495
12918TIP3    H160245   1.006  -0.069   3.525
12918TIP3    H260246   0.955   0.008   3.405
12919TIP3   OH260247   2.908   1.588   4.779
12919TIP3    H160248   2.968   1.638   4.725
12919TIP3    H260249   2.836   1.565   4.721
12920TIP3   OH260250   0.270   1.039   1.666
12920TIP3    H160251   0.357   1.002   1.653
12920TIP3    H260252   0.211   0.964   1.664
12921TIP3   OH260253   3.498   5.025  14.220
12921TIP3    H160254   3.408   4.998  14.199
12921TIP3    H260255   3.535   5.054  14.137
12922TIP3   OH260256   2.717   0.372   1.049
12922TIP3    H160257   2.775   0.296   1.039
12922TIP3    H260258   2.670   0.356   1.131
12923TIP3   OH260259   2.541   6.282   4.254
12923TIP3    H160260   2.528   6.374   4.279
12923TIP3    H260261   2.577   6.241   4.333
12924TIP3   OH260262   2.030   5.940   5.687
12924TIP3    H160263   2.075   5.951   5.603
12924TIP3    H260264   1.981   5.858   5.677
12925TIP3   OH260265   4.901   0.445  16.262
12925TIP3    H160266   4.972   0.387  16.236
12925TIP3    H260267   4.941   0.503  16.328
12926TIP3   OH260268   0.477   6.624  12.640
12926TIP3    H160269   0.388   6.616  12.675
12926TIP3    H260270   0.502   6.534  12.617
12927TIP3   OH260271   5.122   1.434   3.044
12927TIP3    H160272   5.102   1.447   2.951
12927TIP3    H260273   5.218   1.424   3.046
12928TIP3   OH260274   1.141   1.252  12.538
12928TIP3    H160275   1.092   1.313  12.593
12928TIP3    H260276   1.231   1.256  12.572
12929TIP3   OH260277   0.214   4.168  13.226
12929TIP3    H160278   0.256   4.189  13.310
12929TIP3    H260279   0.127   4.207  13.233
12930TIP3   OH260280   3.617   1.898  12.283
12930TIP3    H160281   3.675   1.954  12.232
12930TIP3    H260282   3.614   1.939  12.369
12931TIP3   OH260283   0.517   2.130  14.396
12931TIP3    H160284   0.555   2.177  14.469
12931TIP3    H260285   0.575   2.055  14.383
12932TIP3   OH260286   6.557   6.508   3.735
12932TIP3    H160287   6.614   6.530   3.661
12932TIP3    H260288   6.489   6.576   3.733
12933TIP3   OH260289   2.121   0.526  15.325
12933TIP3    H160290   2.192   0.548  15.386
12933TIP3    H260291   2.113   0.602  15.269
12934TIP3   OH260292   0.436   2.390  11.710
12934TIP3    H160293   0.379   2.399  11.634
12934TIP3    H260294   0.471   2.479  11.724
12935TIP3   OH260295   4.722   2.337   3.145
12935TIP3    H160296   4.651   2.374   3.092
12935TIP3    H260297   4.745   2.407   3.206
12936TIP3   OH260298   5.354   5.211   1.471
12936TIP3    H160299   5.410   5.267   1.418
12936TIP3    H260300   5.400   5.127   1.474
12937TIP3   OH260301   3.546   0.905   1.844
12937TIP3    H160302   3.454   0.919   1.867
12937TIP3    H260303   3.557   0.952   1.761
12938TIP3   OH260304   1.830   3.068  13.694
12938TIP3    H160305   1.746   3.062  13.739
12938TIP3    H260306   1.872   3.145  13.731
12939TIP3   OH260307   2.331   0.702   5.969
12939TIP3    H160308   2.302   0.723   5.880
12939TIP3    H260309   2.250   0.702   6.020
12940TIP3   OH260310   2.031   3.958   2.265
12940TIP3    H160311   2.092   3.887   2.249
12940TIP3    H260312   2.034   4.011   2.185
12941TIP3   OH260313   1.490   4.661   1.584
12941TIP3    H160314   1.563   4.686   1.527
12941TIP3    H260315   1.418   4.719   1.558
12942TIP3   OH260316   4.843   6.612   4.039
12942TIP3    H160317   4.867   6.703   4.018
12942TIP3    H260318   4.926   6.571   4.062
12943TIP3   OH260319   6.641   2.858  15.922
12943TIP3    H160320   6.722   2.807  15.923
12943TIP3    H260321   6.670   2.949  15.930
12944TIP3   OH260322   6.300   1.852  16.611
12944TIP3    H160323   6.286   1.913  16.538
12944TIP3    H260324   6.356   1.783  16.575
12945TIP3   OH260325   3.747   2.358  10.636
12945TIP3    H160326   3.708   2.297  10.574
12945TIP3    H260327   3.707   2.442  10.615
12946TIP3   OH260328   5.715   2.697  15.960
12946TIP3    H160329   5.666   2.762  16.010
12946TIP3    H260330   5.795   2.682  16.011
12947TIP3   OH260331   6.114   2.060  11.137
12947TIP3    H160332   6.042   2.029  11.081
12947TIP3    H260333   6.189   2.007  11.111
12948TIP3   OH260334   2.404   5.257   5.446
12948TIP3    H160335   2.456   5.252   5.366
12948TIP3    H260336   2.344   5.183   5.440
12949TIP3   OH260337   4.711   2.114   4.957
12949TIP3    H160338   4.630   2.128   5.006
12949TIP3    H260339   4.780   2.125   5.022
12950TIP3   OH260340   5.413   3.713   6.584
12950TIP3    H160341   5.488   3.746   6.535
12950TIP3    H260342   5.352   3.787   6.587
12951TIP3   OH260343   0.265   4.280  14.983
12951TIP3    H160344   0.184   4.262  14.936
12951TIP3    H260345   0.334   4.240  14.929
12952TIP3   OH260346   6.034   5.382   6.229
12952TIP3    H160347   5.985   5.389   6.311
12952TIP3    H260348   6.091   5.307   6.242
12953TIP3   OH260349   1.173   2.240   3.657
12953TIP3    H160350   1.135   2.289   3.731
12953TIP3    H260351   1.145   2.149   3.672
12954TIP3   OH260352   4.834   3.149   0.113
12954TIP3    H160353   4.868   3.071   0.068
12954TIP3    H260354   4.824   3.214   0.044
12955TIP3   OH260355   5.227   1.392  15.660
12955TIP3    H160356   5.193   1.441  15.734
12955TIP3    H260357   5.209   1.300  15.681
12956TIP3   OH260358   6.649   0.538   2.515
12956TIP3    H160359   6.691   0.556   2.599
12956TIP3    H260360   6.722   0.529   2.453
12957TIP3   OH260361   5.408   0.566   0.008
12957TIP3    H160362   5.343   0.516  -0.042
12957TIP3    H260363   5.424   0.513   0.086
12958TIP3   OH260364   2.716   3.176  15.293
12958TIP3    H160365   2.657   3.203  15.222
12958TIP3    H260366   2.782   3.245  15.296
12959TIP3   OH260367   0.802   3.017  12.406
12959TIP3    H160368   0.826   3.006  12.314
12959TIP3    H260369   0.865   2.964  12.454
12960TIP3   OH260370   4.593   3.208  16.131
12960TIP3    H160371   4.649   3.134  16.108
12960TIP3    H260372   4.504   3.176  16.119
12961TIP3   OH260373   2.049   2.474   2.019
12961TIP3    H160374   2.129   2.510   2.057
12961TIP3    H260375   2.011   2.547   1.971
12962TIP3   OH260376   6.812   6.754  12.361
12962TIP3    H160377   6.795   6.666  12.327
12962TIP3    H260378   6.794   6.748  12.455
12963TIP3   OH260379   1.262   5.101  15.052
12963TIP3    H160380   1.170   5.090  15.076
12963TIP3    H260381   1.301   5.016  15.069
12964TIP3   OH260382   4.672   0.264   6.010
12964TIP3    H160383   4.607   0.277   5.941
12964TIP3    H260384   4.665   0.342   6.064
12965TIP3   OH260385   0.573   4.515  16.465
12965TIP3    H160386   0.534   4.431  16.440
12965TIP3    H260387   0.588   4.560  16.382
12966TIP3   OH260388   0.504   2.018   1.236
12966TIP3    H160389   0.413   2.018   1.269
12966TIP3    H260390   0.522   1.926   1.217
12967TIP3   OH260391   0.831   0.314  15.583
12967TIP3    H160392   0.886   0.311  15.505
12967TIP3    H260393   0.883   0.361  15.648
12968TIP3   OH260394   5.878   1.147   6.640
12968TIP3    H160395   5.823   1.145   6.562
12968TIP3    H260396   5.958   1.101   6.614
12969TIP3   OH260397   2.691   2.297   5.310
12969TIP3    H160398   2.661   2.244   5.384
12969TIP3    H260399   2.643   2.379   5.320
12970TIP3   OH260400   3.705   2.723   1.368
12970TIP3    H160401   3.680   2.806   1.328
12970TIP3    H260402   3.799   2.718   1.356
12971TIP3   OH260403   6.182   4.960  14.707
12971TIP3    H160404   6.193   4.940  14.800
12971TIP3    H260405   6.091   4.991  14.700
12972TIP3   OH260406   3.484   1.818  12.830
12972TIP3    H160407   3.404   1.788  12.787
12972TIP3    H260408   3.478   1.784  12.919
12973TIP3   OH260409   0.108   0.650  15.381
12973TIP3    H160410   0.091   0.715  15.313
12973TIP3    H260411   0.201   0.658  15.400
12974TIP3   OH260412   5.164   4.465   6.378
12974TIP3    H160413   5.176   4.420   6.295
12974TIP3    H260414   5.145   4.556   6.353
12975TIP3   OH260415   1.359   5.737  13.021
12975TIP3    H160416   1.320   5.758  13.106
12975TIP3    H260417   1.284   5.713  12.966
12976TIP3   OH260418   4.661   6.582   1.321
12976TIP3    H160419   4.630   6.557   1.234
12976TIP3    H260420   4.604   6.535   1.382
12977TIP3   OH260421   0.025   1.375   0.036
12977TIP3    H160422  -0.026   1.400   0.112
12977TIP3    H260423  -0.016   1.421  -0.037
12978TIP3   OH260424   5.967   0.826   5.928
12978TIP3    H160425   5.998   0.815   6.018
12978TIP3    H260426   5.876   0.856   5.937
12979TIP3   OH260427   0.715   1.678   1.092
12979TIP3    H160428   0.737   1.605   1.149
12979TIP3    H260429   0.629   1.707   1.122
12980TIP3   OH260430   3.803   1.531  16.072
12980TIP3    H160431   3.786   1.588  16.148
12980TIP3    H260432   3.852   1.586  16.011
12981TIP3   OH260433   1.202   0.069   5.016
12981TIP3    H160434   1.258   0.065   5.094
12981TIP3    H260435   1.221  -0.012   4.969
12982TIP3   OH260436   3.549   4.864   6.367
12982TIP3    H160437   3.602   4.854   6.289
12982TIP3    H260438   3.466   4.820   6.346
12983TIP3   OH260439   3.943   6.196   2.766
12983TIP3    H160440   3.974   6.126   2.708
12983TIP3    H260441   4.020   6.220   2.817
12984TIP3   OH260442   1.978   6.003   4.435
12984TIP3    H160443   1.916   5.932   4.415
12984TIP3    H260444   2.045   5.996   4.367
12985TIP3   OH260445   0.613   4.432   3.423
12985TIP3    H160446   0.592   4.342   3.447
12985TIP3    H260447   0.533   4.482   3.440
12986TIP3   OH260448   5.187   4.173  11.096
12986TIP3    H160449   5.271   4.154  11.056
12986TIP3    H260450   5.196   4.141  11.186
12987TIP3   OH260451   4.107   4.338   6.006
12987TIP3    H160452   4.017   4.311   6.023
12987TIP3    H260453   4.099   4.418   5.954
12988TIP3   OH260454   2.065   5.318  12.357
12988TIP3    H160455   2.133   5.370  12.399
12988TIP3    H260456   2.010   5.287  12.430
12989TIP3   OH260457   5.817   0.504  16.801
12989TIP3    H160458   5.800   0.482  16.893
12989TIP3    H260459   5.803   0.422  16.754
12990TIP3   OH260460   3.347   3.947   0.233
12990TIP3    H160461   3.263   3.928   0.274
12990TIP3    H260462   3.402   3.980   0.304
12991TIP3   OH260463   2.018   1.723   4.259
12991TIP3    H160464   1.936   1.737   4.212
12991TIP3    H260465   2.069   1.803   4.243
12992TIP3   OH260466   5.637   1.845  16.913
12992TIP3    H160467   5.578   1.787  16.962
12992TIP3    H260468   5.596   1.931  16.917
12993TIP3   OH260469   3.376   3.678   1.528
12993TIP3    H160470   3.433   3.734   1.581
12993TIP3    H260471   3.287   3.701   1.557
12994TIP3   OH260472   4.863   3.044  15.955
12994TIP3    H160473   4.840   3.033  16.047
12994TIP3    H260474   4.929   3.113  15.954
12995TIP3   OH260475   1.205   3.526   4.936
12995TIP3    H160476   1.212   3.485   4.850
12995TIP3    H260477   1.116   3.560   4.940
12996TIP3   OH260478   6.189   0.410  16.650
12996TIP3    H160479   6.193   0.503  16.671
12996TIP3    H260480   6.141   0.405  16.568
12997TIP3   OH260481   0.774   6.073   1.285
12997TIP3    H160482   0.819   6.091   1.202
12997TIP3    H260483   0.834   6.015   1.332
12998TIP3   OH260484   0.912   0.972   2.606
12998TIP3    H160485   0.856   1.036   2.648
12998TIP3    H260486   0.860   0.892   2.602
12999TIP3   OH260487   0.488   2.339   6.222
12999TIP3    H160488   0.446   2.409   6.172
12999TIP3    H260489   0.464   2.259   6.174
13000TIP3   OH260490   6.500   4.214  13.414
13000TIP3    H160491   6.455   4.188  13.334
13000TIP3    H260492   6.480   4.144  13.477
13001TIP3   OH260493   5.062   0.704   5.045
13001TIP3    H160494   5.100   0.784   5.082
13001TIP3    H260495   5.131   0.667   4.991
13002TIP3   OH260496   1.157   6.503  12.013
13002TIP3    H160497   1.246   6.470  11.997
13002TIP3    H260498   1.122   6.446  12.081
13003TIP3   OH260499   3.365   6.394   1.616
13003TIP3    H160500   3.358   6.360   1.705
13003TIP3    H260501   3.363   6.316   1.560
13004TIP3   OH260502   3.186   2.764  13.582
13004TIP3    H160503   3.132   2.768  13.660
13004TIP3    H260504   3.193   2.671  13.561
13005TIP3   OH260505   0.442   1.662  16.253
13005TIP3    H160506   0.481   1.616  16.328
13005TIP3    H260507   0.421   1.749  16.287
13006TIP3   OH260508   2.916   1.380   1.043
13006TIP3    H160509   2.888   1.308   0.986
13006TIP3    H260510   3.004   1.401   1.014
13007TIP3   OH260511   5.609   0.592  14.206
13007TIP3    H160512   5.636   0.508  14.243
13007TIP3    H260513   5.551   0.569  14.133
13008TIP3   OH260514   5.204   0.219  15.528
13008TIP3    H160515   5.180   0.312  15.529
13008TIP3    H260516   5.155   0.180  15.601
13009TIP3   OH260517   1.389   5.178   0.223
13009TIP3    H160518   1.367   5.262   0.265
13009TIP3    H260519   1.334   5.176   0.145
13010TIP3   OH260520   4.087   4.083  16.862
13010TIP3    H160521   4.045   4.047  16.784
13010TIP3    H260522   4.162   4.026  16.877
13011TIP3   OH260523   5.628   3.044   5.609
13011TIP3    H160524   5.632   3.096   5.690
13011TIP3    H260525   5.640   2.954   5.638
13012TIP3   OH260526   1.062   1.301   6.292
13012TIP3    H160527   1.155   1.321   6.281
13012TIP3    H260528   1.041   1.333   6.380
13013TIP3   OH260529   4.227   5.190   2.793
13013TIP3    H160530   4.263   5.266   2.747
13013TIP3    H260531   4.299   5.160   2.849
13014TIP3   OH260532   6.498   6.594  16.104
13014TIP3    H160533   6.448   6.669  16.134
13014TIP3    H260534   6.459   6.572  16.019
13015TIP3   OH260535   6.298   1.380  16.581
13015TIP3    H160536   6.380   1.418  16.549
13015TIP3    H260537   6.277   1.312  16.518
13016TIP3   OH260538   2.468   5.564  14.163
13016TIP3    H160539   2.420   5.482  14.172
13016TIP3    H260540   2.406   5.631  14.190
13017TIP3   OH260541   5.568   0.738  14.940
13017TIP3    H160542   5.551   0.682  15.016
13017TIP3    H260543   5.628   0.686  14.886
13018TIP3   OH260544   4.973   4.703   1.740
13018TIP3    H160545   5.026   4.775   1.773
13018TIP3    H260546   4.911   4.744   1.679
13019TIP3   OH260547   2.183   4.364  12.204
13019TIP3    H160548   2.175   4.302  12.132
13019TIP3    H260549   2.127   4.437  12.180
13020TIP3   OH260550   5.853   4.420   4.592
13020TIP3    H160551   5.794   4.376   4.652
13020TIP3    H260552   5.847   4.513   4.615
13021TIP3   OH260553   4.762   4.731   5.763
13021TIP3    H160554   4.721   4.782   5.832
13021TIP3    H260555   4.856   4.744   5.776
13022TIP3   OH260556   3.290   2.988  14.810
13022TIP3    H160557   3.197   2.984  14.830
13022TIP3    H260558   3.309   3.081  14.797
13023TIP3   OH260559   3.226   1.398  13.356
13023TIP3    H160560   3.282   1.455  13.302
13023TIP3    H260561   3.148   1.450  13.372
13024TIP3   OH260562   2.064   3.412   2.484
13024TIP3    H160563   2.123   3.486   2.492
13024TIP3    H260564   1.985   3.449   2.444
13025TIP3   OH260565   0.621   6.709  13.034
13025TIP3    H160566   0.648   6.659  12.957
13025TIP3    H260567   0.609   6.798  13.002
13026TIP3   OH260568   0.276   2.978   1.878
13026TIP3    H160569   0.337   3.038   1.920
13026TIP3    H260570   0.233   3.031   1.811
13027TIP3   OH260571   6.641   5.903   4.647
13027TIP3    H160572   6.709   5.951   4.694
13027TIP3    H260573   6.688   5.843   4.589
13028TIP3   OH260574   1.455   1.373  16.334
13028TIP3    H160575   1.447   1.449  16.392
13028TIP3    H260576   1.417   1.301  16.384
13029TIP3   OH260577   0.750   5.564  13.517
13029TIP3    H160578   0.692   5.521  13.455
13029TIP3    H260579   0.745   5.657  13.495
13030TIP3   OH260580   2.256   6.708  14.940
13030TIP3    H160581   2.251   6.769  15.013
13030TIP3    H260582   2.347   6.713  14.911
13031TIP3   OH260583   2.350   1.352  14.939
13031TIP3    H160584   2.398   1.400  15.006
13031TIP3    H260585   2.282   1.413  14.910
13032TIP3   OH260586   2.375   5.040   0.429
13032TIP3    H160587   2.385   5.079   0.342
13032TIP3    H260588   2.355   4.948   0.412
13033TIP3   OH260589   4.392   0.215  13.129
13033TIP3    H160590   4.460   0.150  13.142
13033TIP3    H260591   4.408   0.251  13.042
13034TIP3   OH260592   3.521   4.689  12.154
13034TIP3    H160593   3.486   4.632  12.086
13034TIP3    H260594   3.449   4.698  12.217
13035TIP3   OH260595   5.927   0.543  12.819
13035TIP3    H160596   5.890   0.574  12.736
13035TIP3    H260597   5.928   0.448  12.811
13036TIP3   OH260598   2.662   4.931  12.842
13036TIP3    H160599   2.723   4.906  12.772
13036TIP3    H260600   2.641   4.848  12.885
13037TIP3   OH260601   3.795   1.766   1.541
13037TIP3    H160602   3.729   1.752   1.609
13037TIP3    H260603   3.806   1.861   1.537
13038TIP3   OH260604   1.084   1.076  16.655
13038TIP3    H160605   1.058   0.996  16.609
13038TIP3    H260606   1.116   1.135  16.587
13039TIP3   OH260607   1.089   6.008   5.542
13039TIP3    H160608   0.996   6.013   5.567
13039TIP3    H260609   1.093   5.930   5.485
13040TIP3   OH260610   2.193   6.524   0.684
13040TIP3    H160611   2.251   6.515   0.760
13040TIP3    H260612   2.177   6.618   0.678
13041TIP3   OH260613   3.097   4.080  13.684
13041TIP3    H160614   3.107   4.153  13.624
13041TIP3    H260615   3.146   4.107  13.763
13042TIP3   OH260616   6.126   4.666   2.026
13042TIP3    H160617   6.094   4.588   1.981
13042TIP3    H260618   6.053   4.695   2.080
13043TIP3   OH260619   2.827   4.810  10.871
13043TIP3    H160620   2.886   4.735  10.875
13043TIP3    H260621   2.750   4.778  10.824
13044TIP3   OH260622   5.045   0.072  14.536
13044TIP3    H160623   5.034  -0.023  14.539
13044TIP3    H260624   5.029   0.101  14.626
13045TIP3   OH260625   4.276   4.038   3.445
13045TIP3    H160626   4.312   3.974   3.384
13045TIP3    H260627   4.344   4.106   3.451
13046TIP3   OH260628   4.440   4.465  14.158
13046TIP3    H160629   4.450   4.461  14.063
13046TIP3    H260630   4.525   4.497  14.190
13047TIP3   OH260631   0.245   1.717   0.772
13047TIP3    H160632   0.158   1.681   0.789
13047TIP3    H260633   0.282   1.662   0.704
13048TIP3   OH260634   4.846   1.515   3.285
13048TIP3    H160635   4.884   1.453   3.347
13048TIP3    H260636   4.888   1.598   3.306
13049TIP3   OH260637   1.650   4.775   5.203
13049TIP3    H160638   1.667   4.708   5.137
13049TIP3    H260639   1.731   4.780   5.254
13050TIP3   OH260640   1.369   6.287   2.942
13050TIP3    H160641   1.357   6.336   2.861
13050TIP3    H260642   1.335   6.344   3.011
13051TIP3   OH260643   0.501   6.714  15.436
13051TIP3    H160644   0.481   6.678  15.523
13051TIP3    H260645   0.595   6.730  15.437
13052TIP3   OH260646   5.815   3.606  16.579
13052TIP3    H160647   5.855   3.586  16.663
13052TIP3    H260648   5.728   3.568  16.584
13053TIP3   OH260649   6.176   1.159   2.811
13053TIP3    H160650   6.257   1.164   2.862
13053TIP3    H260651   6.203   1.176   2.721
13054TIP3   OH260652   1.667   2.533   1.531
13054TIP3    H160653   1.746   2.488   1.502
13054TIP3    H260654   1.617   2.548   1.450
13055TIP3   OH260655   0.211   6.515  16.943
13055TIP3    H160656   0.203   6.596  16.893
13055TIP3    H260657   0.186   6.447  16.881
13056TIP3   OH260658   4.131   3.106  15.278
13056TIP3    H160659   4.097   3.058  15.203
13056TIP3    H260660   4.217   3.068  15.295
13057TIP3   OH260661   0.222   2.069   1.272
13057TIP3    H160662   0.137   2.079   1.313
13057TIP3    H260663   0.209   2.098   1.181
13058TIP3   OH260664   5.314   0.742  16.023
13058TIP3    H160665   5.339   0.674  15.961
13058TIP3    H260666   5.236   0.782  15.985
13059TIP3   OH260667   1.151   6.728  11.688
13059TIP3    H160668   1.104   6.708  11.607
13059TIP3    H260669   1.242   6.703  11.669
13060TIP3   OH260670   2.707   3.820   2.308
13060TIP3    H160671   2.678   3.729   2.310
13060TIP3    H260672   2.774   3.825   2.376
13061TIP3   OH260673   1.905   2.664   4.335
13061TIP3    H160674   1.906   2.717   4.255
13061TIP3    H260675   1.816   2.630   4.340
13062TIP3   OH260676   4.575   5.570   2.342
13062TIP3    H160677   4.524   5.650   2.330
13062TIP3    H260678   4.529   5.522   2.411
13063TIP3   OH260679   0.944   4.643   3.193
13063TIP3    H160680   1.001   4.580   3.149
13063TIP3    H260681   1.005   4.703   3.237
13064TIP3   OH260682   6.032   0.565   4.657
13064TIP3    H160683   6.126   0.580   4.643
13064TIP3    H260684   6.000   0.531   4.574
13065TIP3   OH260685   2.753   6.643  14.247
13065TIP3    H160686   2.780   6.709  14.311
13065TIP3    H260687   2.831   6.591  14.231
13066TIP3   OH260688   1.250   5.716   2.927
13066TIP3    H160689   1.182   5.747   2.868
13066TIP3    H260690   1.332   5.733   2.881
13067TIP3   OH260691   4.934   6.429  12.197
13067TIP3    H160692   4.980   6.472  12.269
13067TIP3    H260693   4.968   6.339  12.197
13068TIP3   OH260694   4.928   5.482  14.515
13068TIP3    H160695   4.854   5.434  14.478
13068TIP3    H260696   4.902   5.573  14.512
13069TIP3   OH260697   0.231   3.496   5.311
13069TIP3    H160698   0.244   3.438   5.386
13069TIP3    H260699   0.316   3.497   5.266
13070TIP3   OH260700   1.456   6.024   5.973
13070TIP3    H160701   1.514   6.063   5.908
13070TIP3    H260702   1.438   5.936   5.940
13071TIP3   OH260703   3.644   1.754   1.775
13071TIP3    H160704   3.639   1.668   1.816
13071TIP3    H260705   3.565   1.761   1.722
13072TIP3   OH260706   1.784   0.086   1.109
13072TIP3    H160707   1.825   0.171   1.125
13072TIP3    H260708   1.857   0.025   1.105
13073TIP3   OH260709   3.775   2.187  12.895
13073TIP3    H160710   3.785   2.092  12.888
13073TIP3    H260711   3.779   2.218  12.804
13074TIP3   OH260712   5.986   2.759   0.429
13074TIP3    H160713   6.012   2.667   0.431
13074TIP3    H260714   5.900   2.759   0.387
13075TIP3   OH260715   4.026   6.340  11.236
13075TIP3    H160716   4.069   6.417  11.273
13075TIP3    H260717   3.985   6.372  11.155
13076TIP3   OH260718   6.720   6.737  11.994
13076TIP3    H160719   6.700   6.830  12.003
13076TIP3    H260720   6.812   6.730  12.021
13077TIP3   OH260721   5.633   0.733   1.619
13077TIP3    H160722   5.691   0.716   1.545
13077TIP3    H260723   5.639   0.828   1.632
13078TIP3   OH260724   2.899   1.803   1.785
13078TIP3    H160725   2.944   1.800   1.870
13078TIP3    H260726   2.850   1.885   1.786
13079TIP3   OH260727   1.319   5.161   3.715
13079TIP3    H160728   1.325   5.247   3.674
13079TIP3    H260729   1.354   5.174   3.804
13080TIP3   OH260730   2.884   6.359   3.437
13080TIP3    H160731   2.942   6.333   3.508
13080TIP3    H260732   2.802   6.381   3.480
13081TIP3   OH260733   3.265   4.285   0.735
13081TIP3    H160734   3.330   4.354   0.723
13081TIP3    H260735   3.258   4.275   0.830
13082TIP3   OH260736   2.710   3.213  11.498
13082TIP3    H160737   2.744   3.301  11.510
13082TIP3    H260738   2.668   3.214  11.412
13083TIP3   OH260739   0.477   4.404   4.872
13083TIP3    H160740   0.487   4.455   4.953
13083TIP3    H260741   0.402   4.347   4.890
13084TIP3   OH260742   3.049   0.429   1.261
13084TIP3    H160743   3.060   0.420   1.355
13084TIP3    H260744   3.048   0.339   1.228
13085TIP3   OH260745   2.373   3.802  10.826
13085TIP3    H160746   2.345   3.728  10.772
13085TIP3    H260747   2.393   3.871  10.762
13086TIP3   OH260748   5.762   5.335   0.358
13086TIP3    H160749   5.739   5.427   0.346
13086TIP3    H260750   5.689   5.286   0.319
13087TIP3   OH260751   1.458   5.489  13.756
13087TIP3    H160752   1.517   5.518  13.686
13087TIP3    H260753   1.417   5.410  13.722
13088TIP3   OH260754   4.263   4.171   5.081
13088TIP3    H160755   4.191   4.221   5.118
13088TIP3    H260756   4.263   4.089   5.131
13089TIP3   OH260757   4.155   0.502  16.155
13089TIP3    H160758   4.159   0.585  16.202
13089TIP3    H260759   4.088   0.451  16.201
13090TIP3   OH260760   0.682   1.616   4.825
13090TIP3    H160761   0.739   1.555   4.778
13090TIP3    H260762   0.639   1.563   4.892
13091TIP3   OH260763   4.785   1.128  12.091
13091TIP3    H160764   4.773   1.034  12.077
13091TIP3    H260765   4.731   1.148  12.169
13092TIP3   OH260766   3.852   5.336  14.260
13092TIP3    H160767   3.789   5.346  14.189
13092TIP3    H260768   3.849   5.243  14.282
13093TIP3   OH260769   3.236   2.971  12.266
13093TIP3    H160770   3.249   3.035  12.196
13093TIP3    H260771   3.197   3.021  12.337
13094TIP3   OH260772   0.948   5.945  14.285
13094TIP3    H160773   0.916   5.904  14.204
13094TIP3    H260774   0.975   6.033  14.258
13095TIP3   OH260775   4.075   0.206   4.997
13095TIP3    H160776   4.114   0.273   5.054
13095TIP3    H260777   4.126   0.127   5.014
13096TIP3   OH260778   0.266   6.023  15.888
13096TIP3    H160779   0.327   6.041  15.959
13096TIP3    H260780   0.320   6.024  15.809
13097TIP3   OH260781   4.831   6.789   1.286
13097TIP3    H160782   4.772   6.715   1.298
13097TIP3    H260783   4.788   6.861   1.332
13098TIP3   OH260784   4.438   2.740   0.686
13098TIP3    H160785   4.474   2.758   0.598
13098TIP3    H260786   4.343   2.738   0.673
13099TIP3   OH260787   1.116   6.589   2.790
13099TIP3    H160788   1.059   6.589   2.713
13099TIP3    H260789   1.186   6.527   2.769
13100TIP3   OH260790   4.410   0.374  13.862
13100TIP3    H160791   4.348   0.325  13.916
13100TIP3    H260792   4.362   0.395  13.783
13101TIP3   OH260793   1.296   1.789  13.120
13101TIP3    H160794   1.372   1.806  13.064
13101TIP3    H260795   1.327   1.723  13.183
13102TIP3   OH260796   1.805   3.093   1.139
13102TIP3    H160797   1.766   3.097   1.051
13102TIP3    H260798   1.859   3.172   1.144
13103TIP3   OH260799   1.675   1.080   4.041
13103TIP3    H160800   1.668   0.994   4.083
13103TIP3    H260801   1.698   1.061   3.950
13104TIP3   OH260802   0.982   2.746  15.585
13104TIP3    H160803   0.988   2.839  15.605
13104TIP3    H260804   0.984   2.741  15.490
13105TIP3   OH260805   5.541   1.967   5.842
13105TIP3    H160806   5.551   1.998   5.751
13105TIP3    H260807   5.448   1.979   5.861
13106TIP3   OH260808   3.029   1.454  11.999
13106TIP3    H160809   3.027   1.389  12.069
13106TIP3    H260810   3.121   1.459  11.973
13107TIP3   OH260811   1.508   5.552  11.701
13107TIP3    H160812   1.603   5.566  11.694
13107TIP3    H260813   1.500   5.462  11.732
13108TIP3   OH260814   4.419   1.346  16.573
13108TIP3    H160815   4.357   1.274  16.566
13108TIP3    H260816   4.472   1.325  16.650
13109TIP3   OH260817   0.327   0.638   6.810
13109TIP3    H160818   0.421   0.639   6.828
13109TIP3    H260819   0.307   0.546   6.792
13110TIP3   OH260820   6.648   6.001   2.766
13110TIP3    H160821   6.720   6.064   2.762
13110TIP3    H260822   6.579   6.047   2.814
13111TIP3   OH260823   4.395   3.018   4.690
13111TIP3    H160824   4.418   3.079   4.621
13111TIP3    H260825   4.301   3.030   4.704
13112TIP3   OH260826   3.496   5.478   4.509
13112TIP3    H160827   3.558   5.483   4.581
13112TIP3    H260828   3.532   5.411   4.450
13113TIP3   OH260829   4.859   3.756  10.894
13113TIP3    H160830   4.920   3.804  10.950
13113TIP3    H260831   4.913   3.728  10.819
13114TIP3   OH260832   4.517   1.360  14.791
13114TIP3    H160833   4.584   1.352  14.722
13114TIP3    H260834   4.538   1.442  14.835
13115TIP3   OH260835   1.522   5.912  14.043
13115TIP3    H160836   1.452   5.847  14.037
13115TIP3    H260837   1.488   5.988  13.996
13116TIP3   OH260838   3.281   1.726   3.190
13116TIP3    H160839   3.259   1.813   3.223
13116TIP3    H260840   3.259   1.667   3.262
13117TIP3   OH260841   2.392   2.670   1.259
13117TIP3    H160842   2.302   2.639   1.248
13117TIP3    H260843   2.388   2.764   1.239
13118TIP3   OH260844   3.904   5.928  10.909
13118TIP3    H160845   3.916   5.850  10.855
13118TIP3    H260846   3.815   5.919  10.944
13119TIP3   OH260847   3.508   0.638  16.185
13119TIP3    H160848   3.507   0.720  16.233
13119TIP3    H260849   3.561   0.579  16.239
13120TIP3   OH260850   6.142   0.808  15.921
13120TIP3    H160851   6.145   0.900  15.945
13120TIP3    H260852   6.094   0.806  15.838
13121TIP3   OH260853   1.502   2.109   0.848
13121TIP3    H160854   1.453   2.190   0.840
13121TIP3    H260855   1.519   2.081   0.758
13122TIP3   OH260856   0.030   6.029   3.375
13122TIP3    H160857   0.060   6.014   3.465
13122TIP3    H260858   0.028   5.942   3.336
13123TIP3   OH260859   3.045   0.822   3.240
13123TIP3    H160860   2.953   0.848   3.240
13123TIP3    H260861   3.065   0.803   3.149
13124TIP3   OH260862   3.253   0.257  15.910
13124TIP3    H160863   3.157   0.255  15.908
13124TIP3    H260864   3.276   0.322  15.844
13125TIP3   OH260865   0.527   0.954  12.335
13125TIP3    H160866   0.441   0.917  12.317
13125TIP3    H260867   0.589   0.889  12.301
13126TIP3   OH260868   3.674   0.829  16.790
13126TIP3    H160869   3.605   0.855  16.850
13126TIP3    H260870   3.644   0.746  16.752
13127TIP3   OH260871   6.708   4.135  16.582
13127TIP3    H160872   6.779   4.075  16.560
13127TIP3    H260873   6.689   4.117  16.674
13128TIP3   OH260874   2.256   1.128   5.821
13128TIP3    H160875   2.281   1.220   5.819
13128TIP3    H260876   2.272   1.098   5.731
13129TIP3   OH260877   6.778   2.352  14.357
13129TIP3    H160878   6.736   2.435  14.335
13129TIP3    H260879   6.850   2.344  14.294
13130TIP3   OH260880   2.961   5.085  12.429
13130TIP3    H160881   2.944   5.111  12.520
13130TIP3    H260882   2.910   5.004  12.418
13131TIP3   OH260883   0.269   3.930  15.637
13131TIP3    H160884   0.330   3.906  15.567
13131TIP3    H260885   0.293   3.874  15.710
13132TIP3   OH260886   5.178   5.446   1.962
13132TIP3    H160887   5.232   5.478   1.890
13132TIP3    H260888   5.122   5.379   1.923
13133TIP3   OH260889   2.800   6.528  13.152
13133TIP3    H160890   2.727   6.472  13.126
13133TIP3    H260891   2.759   6.602  13.197
13134TIP3   OH260892   1.772   1.203  13.389
13134TIP3    H160893   1.721   1.240  13.317
13134TIP3    H260894   1.709   1.192  13.460
13135TIP3   OH260895   3.984   5.567   5.763
13135TIP3    H160896   3.912   5.627   5.744
13135TIP3    H260897   3.965   5.533   5.850
13136TIP3   OH260898   2.569   6.209  12.109
13136TIP3    H160899   2.483   6.192  12.146
13136TIP3    H260900   2.590   6.298  12.138
13137TIP3   OH260901   1.815   3.415   0.243
13137TIP3    H160902   1.775   3.430   0.157
13137TIP3    H260903   1.762   3.347   0.283
13138TIP3   OH260904   6.711   5.251   0.864
13138TIP3    H160905   6.685   5.279   0.777
13138TIP3    H260906   6.722   5.156   0.856
13139TIP3   OH260907   4.275   2.400   5.552
13139TIP3    H160908   4.269   2.361   5.465
13139TIP3    H260909   4.369   2.408   5.569
13140TIP3   OH260910   6.117   2.826   6.081
13140TIP3    H160911   6.161   2.892   6.133
13140TIP3    H260912   6.125   2.857   5.991
13141TIP3   OH260913   0.782   0.455   5.491
13141TIP3    H160914   0.829   0.372   5.494
13141TIP3    H260915   0.851   0.521   5.476
13142TIP3   OH260916   3.098   1.796   2.827
13142TIP3    H160917   3.194   1.797   2.835
13142TIP3    H260918   3.082   1.767   2.737
13143TIP3   OH260919   5.898   6.032   1.421
13143TIP3    H160920   5.861   5.956   1.466
13143TIP3    H260921   5.843   6.043   1.344
13144TIP3   OH260922   5.177   4.613  15.829
13144TIP3    H160923   5.271   4.602  15.817
13144TIP3    H260924   5.143   4.523  15.833
13145TIP3   OH260925   5.651   4.513   3.749
13145TIP3    H160926   5.603   4.483   3.672
13145TIP3    H260927   5.628   4.606   3.756
13146TIP3   OH260928   5.051   5.257   2.776
13146TIP3    H160929   5.028   5.199   2.703
13146TIP3    H260930   5.004   5.220   2.851
13147TIP3   OH260931   1.523   1.552  11.492
13147TIP3    H160932   1.533   1.474  11.546
13147TIP3    H260933   1.540   1.625  11.552
13148TIP3   OH260934   6.063   5.219  14.214
13148TIP3    H160935   6.033   5.272  14.141
13148TIP3    H260936   6.153   5.195  14.191
13149TIP3   OH260937   6.019   4.251  11.378
13149TIP3    H160938   6.016   4.339  11.341
13149TIP3    H260939   5.997   4.193  11.305
13150TIP3   OH260940   2.791   5.594   2.212
13150TIP3    H160941   2.777   5.602   2.306
13150TIP3    H260942   2.710   5.556   2.178
13151TIP3   OH260943   2.523   5.255  15.954
13151TIP3    H160944   2.548   5.164  15.940
13151TIP3    H260945   2.596   5.293  16.002
13152TIP3   OH260946   2.554   4.355  16.893
13152TIP3    H160947   2.522   4.442  16.919
13152TIP3    H260948   2.476   4.310  16.860
13153TIP3   OH260949   2.247   0.472   5.564
13153TIP3    H160950   2.292   0.524   5.498
13153TIP3    H260951   2.316   0.440   5.622
13154TIP3   OH260952   1.411   2.407   5.147
13154TIP3    H160953   1.442   2.495   5.168
13154TIP3    H260954   1.383   2.371   5.231
13155TIP3   OH260955   5.239   5.335  14.961
13155TIP3    H160956   5.294   5.342  14.883
13155TIP3    H260957   5.182   5.412  14.956
13156TIP3   OH260958   5.177   3.290  15.724
13156TIP3    H160959   5.109   3.341  15.679
13156TIP3    H260960   5.223   3.354  15.778
13157TIP3   OH260961   6.298   5.187   6.644
13157TIP3    H160962   6.252   5.126   6.587
13157TIP3    H260963   6.230   5.222   6.702
13158TIP3   OH260964   5.051   2.631  15.552
13158TIP3    H160965   5.079   2.559  15.495
13158TIP3    H260966   4.956   2.626  15.553
13159TIP3   OH260967   3.780   1.915  16.135
13159TIP3    H160968   3.833   1.943  16.060
13159TIP3    H260969   3.746   1.997  16.172
13160TIP3   OH260970   5.740   2.001   4.543
13160TIP3    H160971   5.709   1.911   4.550
13160TIP3    H260972   5.718   2.041   4.627
13161TIP3   OH260973   6.066   3.683   0.024
13161TIP3    H160974   6.038   3.724  -0.058
13161TIP3    H260975   5.993   3.696   0.083
13162TIP3   OH260976   3.602   2.768   2.130
13162TIP3    H160977   3.649   2.767   2.047
13162TIP3    H260978   3.590   2.861   2.150
13163TIP3   OH260979   6.171   1.458  16.812
13163TIP3    H160980   6.163   1.553  16.799
13163TIP3    H260981   6.210   1.426  16.731
13164TIP3   OH260982   1.538   4.481   6.241
13164TIP3    H160983   1.620   4.488   6.291
13164TIP3    H260984   1.541   4.394   6.201
13165TIP3   OH260985   0.557   4.064  16.796
13165TIP3    H160986   0.469   4.054  16.760
13165TIP3    H260987   0.565   3.991  16.858
13166TIP3   OH260988   6.475   4.568  13.801
13166TIP3    H160989   6.481   4.576  13.706
13166TIP3    H260990   6.381   4.555  13.818
13167TIP3   OH260991   2.122   5.165   0.755
13167TIP3    H160992   2.062   5.161   0.681
13167TIP3    H260993   2.079   5.223   0.818
13168TIP3   OH260994   2.645   6.248  11.474
13168TIP3    H160995   2.584   6.293  11.415
13168TIP3    H260996   2.718   6.223  11.418
13169TIP3   OH260997   4.955   1.055   4.004
13169TIP3    H160998   4.951   1.129   4.064
13169TIP3    H260999   5.032   1.072   3.950
13170TIP3   OH261000   1.615   0.957  14.046
13170TIP3    H161001   1.534   0.984  14.003
13170TIP3    H261002   1.623   1.016  14.121
13171TIP3   OH261003   3.300   0.676  15.962
13171TIP3    H161004   3.373   0.669  16.024
13171TIP3    H261005   3.229   0.627  16.003
13172TIP3   OH261006   4.140   3.175  14.835
13172TIP3    H161007   4.055   3.195  14.875
13172TIP3    H261008   4.149   3.240  14.765
13173TIP3   OH261009   1.410   2.977   5.271
13173TIP3    H161010   1.346   3.006   5.337
13173TIP3    H261011   1.447   2.897   5.308
13174TIP3   OH261012   1.135   4.122  12.437
13174TIP3    H161013   1.046   4.085  12.442
13174TIP3    H261014   1.181   4.066  12.374
13175TIP3   OH261015   0.065   4.410   6.189
13175TIP3    H161016   0.061   4.488   6.244
13175TIP3    H261017   0.128   4.432   6.120
13176TIP3   OH261018   3.067   5.995  14.093
13176TIP3    H161019   3.005   5.923  14.086
13176TIP3    H261020   3.013   6.073  14.106
13177TIP3   OH261021   1.838   2.288   3.616
13177TIP3    H161022   1.908   2.243   3.665
13177TIP3    H261023   1.762   2.282   3.673
13178TIP3   OH261024   4.717   5.214   2.521
13178TIP3    H161025   4.780   5.285   2.510
13178TIP3    H261026   4.756   5.140   2.473
13179TIP3   OH261027   4.246   6.147  15.705
13179TIP3    H161028   4.194   6.069  15.721
13179TIP3    H261029   4.330   6.115  15.673
13180TIP3   OH261030   3.137   2.077   2.387
13180TIP3    H161031   3.095   2.163   2.385
13180TIP3    H261032   3.221   2.090   2.342
13181TIP3   OH261033   5.180   3.901  15.724
13181TIP3    H161034   5.144   3.905  15.812
13181TIP3    H261035   5.244   3.972  15.720
13182TIP3   OH261036   4.370   2.498   3.937
13182TIP3    H161037   4.333   2.541   3.860
13182TIP3    H261038   4.385   2.408   3.909
13183TIP3   OH261039   4.800   5.285  12.088
13183TIP3    H161040   4.791   5.379  12.104
13183TIP3    H261041   4.886   5.263  12.124
13184TIP3   OH261042   3.487   5.245  11.094
13184TIP3    H161043   3.491   5.208  11.006
13184TIP3    H261044   3.569   5.292  11.105
13185TIP3   OH261045   3.370   2.937  11.242
13185TIP3    H161046   3.310   2.932  11.317
13185TIP3    H261047   3.313   2.951  11.166
13186TIP3   OH261048   2.615   2.166   3.508
13186TIP3    H161049   2.667   2.242   3.534
13186TIP3    H261050   2.640   2.098   3.571
13187TIP3   OH261051   2.008   1.631   0.875
13187TIP3    H161052   2.044   1.546   0.850
13187TIP3    H261053   1.986   1.673   0.792
13188TIP3   OH261054   3.033   1.895  16.199
13188TIP3    H161055   3.057   1.876  16.108
13188TIP3    H261056   2.939   1.915  16.195
13189TIP3   OH261057   5.992   2.791  15.382
13189TIP3    H161058   6.010   2.778  15.475
13189TIP3    H261059   5.896   2.787  15.375
13190TIP3   OH261060   0.967   5.275   2.662
13190TIP3    H161061   0.999   5.258   2.573
13190TIP3    H261062   0.878   5.308   2.649
13191TIP3   OH261063   0.273   2.450  13.051
13191TIP3    H161064   0.265   2.372  13.106
13191TIP3    H261065   0.280   2.416  12.962
13192TIP3   OH261066   2.964   0.581  15.981
13192TIP3    H161067   3.008   0.665  15.996
13192TIP3    H261068   2.880   0.604  15.942
13193TIP3   OH261069   1.883   4.607   2.142
13193TIP3    H161070   1.928   4.566   2.216
13193TIP3    H261071   1.805   4.553   2.130
13194TIP3   OH261072   1.506   6.013   2.384
13194TIP3    H161073   1.557   6.029   2.463
13194TIP3    H261074   1.529   5.924   2.358
13195TIP3   OH261075   5.851   2.874   1.804
13195TIP3    H161076   5.764   2.882   1.765
13195TIP3    H261077   5.908   2.848   1.731
13196TIP3   OH261078   3.686   0.692   2.728
13196TIP3    H161079   3.635   0.726   2.802
13196TIP3    H261080   3.659   0.745   2.653
13197TIP3   OH261081   0.403   1.904   0.543
13197TIP3    H161082   0.323   1.922   0.495
13197TIP3    H261083   0.443   1.831   0.496
13198TIP3   OH261084   3.626   5.386  11.495
13198TIP3    H161085   3.626   5.401  11.400
13198TIP3    H261086   3.682   5.456  11.529
13199TIP3   OH261087   3.160   3.718   3.765
13199TIP3    H161088   3.180   3.680   3.851
13199TIP3    H261089   3.076   3.762   3.777
13200TIP3   OH261090   6.543   4.091   5.301
13200TIP3    H161091   6.560   4.143   5.222
13200TIP3    H261092   6.562   4.001   5.274
13201TIP3   OH261093   3.484   2.462  13.199
13201TIP3    H161094   3.419   2.495  13.138
13201TIP3    H261095   3.547   2.416  13.143
13202TIP3   OH261096   1.850   3.672   3.954
13202TIP3    H161097   1.900   3.700   3.877
13202TIP3    H261098   1.897   3.594   3.985
13203TIP3   OH261099   4.906   3.167  15.434
13203TIP3    H161100   4.999   3.144  15.433
13203TIP3    H261101   4.898   3.231  15.504
13204TIP3   OH261102   5.306   1.168   5.870
13204TIP3    H161103   5.269   1.083   5.846
13204TIP3    H261104   5.351   1.151   5.953
13205TIP3   OH261105   3.918   2.021  13.557
13205TIP3    H161106   3.956   2.109  13.558
13205TIP3    H261107   3.980   1.969  13.505
13206TIP3   OH261108   3.415   5.415   0.096
13206TIP3    H161109   3.336   5.363   0.078
13206TIP3    H261110   3.383   5.505   0.103
13207TIP3   OH261111   3.352   1.594  15.012
13207TIP3    H161112   3.262   1.573  14.985
13207TIP3    H261113   3.362   1.687  14.991
13208TIP3   OH261114   0.593   3.852   2.281
13208TIP3    H161115   0.625   3.942   2.277
13208TIP3    H261116   0.534   3.851   2.356
13209TIP3   OH261117   5.501   5.665   5.253
13209TIP3    H161118   5.423   5.611   5.239
13209TIP3    H261119   5.513   5.665   5.348
13210TIP3   OH261120   1.789   5.613   4.785
13210TIP3    H161121   1.869   5.655   4.755
13210TIP3    H261122   1.790   5.526   4.746
13211TIP3   OH261123   4.202   0.310  14.519
13211TIP3    H161124   4.165   0.251  14.454
13211TIP3    H261125   4.140   0.307  14.592
13212TIP3   OH261126   4.931   2.084   4.706
13212TIP3    H161127   4.870   2.036   4.760
13212TIP3    H261128   4.922   2.045   4.619
13213TIP3   OH261129   4.756   5.117   0.277
13213TIP3    H161130   4.770   5.193   0.333
13213TIP3    H261131   4.728   5.048   0.337
13214TIP3   OH261132   0.699   2.786   1.630
13214TIP3    H161133   0.643   2.717   1.595
13214TIP3    H261134   0.717   2.843   1.555
13215TIP3   OH261135   1.056   4.363  11.179
13215TIP3    H161136   1.070   4.286  11.234
13215TIP3    H261137   1.062   4.329  11.090
13216TIP3   OH261138   1.017   0.939  11.228
13216TIP3    H161139   1.035   0.866  11.288
13216TIP3    H261140   1.089   0.935  11.164
13217TIP3   OH261141   0.543   3.454  14.416
13217TIP3    H161142   0.565   3.422  14.328
13217TIP3    H261143   0.626   3.486  14.451
13218TIP3   OH261144   5.930   5.827   3.651
13218TIP3    H161145   6.022   5.815   3.625
13218TIP3    H261146   5.899   5.901   3.599
13219TIP3   OH261147   0.683   1.687   0.712
13219TIP3    H161148   0.769   1.646   0.714
13219TIP3    H261149   0.698   1.776   0.745
13220TIP3   OH261150   1.563   0.069   1.617
13220TIP3    H161151   1.603   0.103   1.537
13220TIP3    H261152   1.548   0.147   1.671
13221TIP3   OH261153   6.740   1.744   4.656
13221TIP3    H161154   6.805   1.717   4.591
13221TIP3    H261155   6.749   1.839   4.661
13222TIP3   OH261156   1.497   6.276  15.814
13222TIP3    H161157   1.477   6.360  15.772
13222TIP3    H261158   1.564   6.297  15.879
13223TIP3   OH261159   4.279   2.824   2.693
13223TIP3    H161160   4.258   2.914   2.670
13223TIP3    H261161   4.231   2.808   2.774
13224TIP3   OH261162   0.775   1.252  12.189
13224TIP3    H161163   0.786   1.305  12.268
13224TIP3    H261164   0.857   1.262  12.141
13225TIP3   OH261165   5.823   5.971  17.168
13225TIP3    H161166   5.734   5.978  17.132
13225TIP3    H261167   5.847   5.880  17.153
13226TIP3   OH261168   2.747   1.987   0.662
13226TIP3    H161169   2.662   2.005   0.622
13226TIP3    H261170   2.765   1.896   0.638
13227TIP3   OH261171   1.904   1.091   2.208
13227TIP3    H161172   1.999   1.094   2.194
13227TIP3    H261173   1.868   1.153   2.145
13228TIP3   OH261174   2.547   5.941   2.420
13228TIP3    H161175   2.626   5.992   2.401
13228TIP3    H261176   2.545   5.873   2.353
13229TIP3   OH261177   0.413   5.254  16.930
13229TIP3    H161178   0.472   5.211  16.991
13229TIP3    H261179   0.376   5.327  16.981
13230TIP3   OH261180   3.956   6.347  16.865
13230TIP3    H161181   3.862   6.360  16.877
13230TIP3    H261182   3.991   6.436  16.858
13231TIP3   OH261183   1.266   4.054  13.703
13231TIP3    H161184   1.184   4.011  13.677
13231TIP3    H261185   1.270   4.133  13.649
13232TIP3   OH261186   1.208   3.893   2.051
13232TIP3    H161187   1.223   3.947   2.128
13232TIP3    H261188   1.114   3.904   2.032
13233TIP3   OH261189   0.652   3.345  15.086
13233TIP3    H161190   0.602   3.266  15.062
13233TIP3    H261191   0.743   3.321  15.072
13234TIP3   OH261192   6.775   1.061  15.285
13234TIP3    H161193   6.856   1.111  15.274
13234TIP3    H261194   6.795   0.996  15.351
13235TIP3   OH261195   1.470   6.442   4.028
13235TIP3    H161196   1.504   6.492   4.102
13235TIP3    H261197   1.385   6.482   4.008
13236TIP3   OH261198   0.377   4.306   3.643
13236TIP3    H161199   0.291   4.264   3.632
13236TIP3    H261200   0.437   4.251   3.594
13237TIP3   OH261201   2.159   1.363   5.668
13237TIP3    H161202   2.094   1.376   5.599
13237TIP3    H261203   2.222   1.434   5.655
13238TIP3   OH261204   3.811   1.075  14.547
13238TIP3    H161205   3.874   1.016  14.588
13238TIP3    H261206   3.742   1.017  14.516
13239TIP3   OH261207   5.640   2.285  12.637
13239TIP3    H161208   5.650   2.242  12.722
13239TIP3    H261209   5.572   2.235  12.592
13240TIP3   OH261210   3.879   1.000   4.400
13240TIP3    H161211   3.952   0.953   4.440
13240TIP3    H261212   3.817   1.012   4.472
13241TIP3   OH261213   5.547   2.413   0.782
13241TIP3    H161214   5.581   2.338   0.830
13241TIP3    H261215   5.459   2.427   0.817
13242TIP3   OH261216   1.007   0.837   1.954
13242TIP3    H161217   1.048   0.913   1.995
13242TIP3    H261218   0.925   0.870   1.918
13243TIP3   OH261219   4.923   2.688  16.122
13243TIP3    H161220   4.958   2.679  16.211
13243TIP3    H261221   5.000   2.706  16.068
13244TIP3   OH261222   3.106   0.334   1.510
13244TIP3    H161223   3.030   0.344   1.568
13244TIP3    H261224   3.177   0.311   1.570
13245TIP3   OH261225   1.267   0.906  17.149
13245TIP3    H161226   1.264   0.865  17.063
13245TIP3    H261227   1.176   0.905  17.179
13246TIP3   OH261228   4.208   6.439   1.029
13246TIP3    H161229   4.238   6.524   0.996
13246TIP3    H261230   4.280   6.409   1.084
13247TIP3   OH261231   0.480   1.525   1.421
13247TIP3    H161232   0.391   1.538   1.388
13247TIP3    H261233   0.526   1.484   1.348
13248TIP3   OH261234   3.781   0.644   0.106
13248TIP3    H161235   3.706   0.586   0.119
13248TIP3    H261236   3.765   0.686   0.022
13249TIP3   OH261237   3.050   2.208   1.634
13249TIP3    H161238   3.087   2.295   1.640
13249TIP3    H261239   2.955   2.222   1.636
13250TIP3   OH261240   4.223   5.120  14.996
13250TIP3    H161241   4.171   5.128  15.076
13250TIP3    H261242   4.267   5.205  14.987
13251TIP3   OH261243   2.689   2.505  16.819
13251TIP3    H161244   2.666   2.413  16.832
13251TIP3    H261245   2.605   2.550  16.812
13252TIP3   OH261246   3.461   4.234   4.388
13252TIP3    H161247   3.434   4.171   4.455
13252TIP3    H261248   3.411   4.313   4.409
13253TIP3   OH261249   3.779   4.093  12.984
13253TIP3    H161250   3.726   4.017  12.959
13253TIP3    H261251   3.722   4.143  13.042
13254TIP3   OH261252   3.011   4.953   3.698
13254TIP3    H161253   2.925   4.988   3.675
13254TIP3    H261254   3.068   5.029   3.703
13255TIP3   OH261255   6.162   5.582   2.817
13255TIP3    H161256   6.097   5.512   2.825
13255TIP3    H261257   6.234   5.542   2.768
13256TIP3   OH261258   6.334   4.822  14.400
13256TIP3    H161259   6.338   4.733  14.435
13256TIP3    H261260   6.367   4.877  14.471
13257TIP3   OH261261   4.985   2.739   6.058
13257TIP3    H161262   4.911   2.688   6.025
13257TIP3    H261263   4.978   2.732   6.153
13258TIP3   OH261264   2.650   4.130  14.891
13258TIP3    H161265   2.578   4.095  14.943
13258TIP3    H261266   2.720   4.146  14.954
13259TIP3   OH261267   6.617   5.786   0.569
13259TIP3    H161268   6.623   5.695   0.540
13259TIP3    H261269   6.640   5.837   0.492
13260TIP3   OH261270   1.209   3.952  16.696
13260TIP3    H161271   1.127   3.941  16.744
13260TIP3    H261272   1.266   4.001  16.755
13261TIP3   OH261273   4.116   1.887  14.770
13261TIP3    H161274   4.172   1.882  14.847
13261TIP3    H261275   4.028   1.902  14.805
13262TIP3   OH261276   5.395   2.712  15.861
13262TIP3    H161277   5.313   2.663  15.862
13262TIP3    H261278   5.462   2.646  15.842
13263TIP3   OH261279   5.352   5.738  15.951
13263TIP3    H161280   5.343   5.825  15.913
13263TIP3    H261281   5.278   5.688  15.916
13264TIP3   OH261282   0.451   1.272  16.391
13264TIP3    H161283   0.493   1.207  16.448
13264TIP3    H261284   0.374   1.227  16.357
13265TIP3   OH261285   0.758   0.492  16.958
13265TIP3    H161286   0.837   0.438  16.964
13265TIP3    H261287   0.748   0.509  16.864
13266TIP3   OH261288   2.832   6.059  14.364
13266TIP3    H161289   2.861   6.119  14.296
13266TIP3    H261290   2.900   6.065  14.431
13267TIP3   OH261291   4.518   2.052  13.819
13267TIP3    H161292   4.558   2.037  13.905
13267TIP3    H261293   4.513   2.148  13.812
13268TIP3   OH261294   2.706   2.685   0.437
13268TIP3    H161295   2.713   2.724   0.525
13268TIP3    H261296   2.719   2.759   0.377
13269TIP3   OH261297   5.399   4.025   4.901
13269TIP3    H161298   5.388   4.049   4.993
13269TIP3    H261299   5.331   3.959   4.886
13270TIP3   OH261300   4.116   1.232  14.564
13270TIP3    H161301   4.162   1.163  14.516
13270TIP3    H261302   4.174   1.256  14.635
13271TIP3   OH261303   3.289   4.009  15.557
13271TIP3    H161304   3.317   3.942  15.494
13271TIP3    H261305   3.235   4.068  15.505
13272TIP3   OH261306   3.027   6.545  15.685
13272TIP3    H161307   3.090   6.547  15.757
13272TIP3    H261308   3.081   6.553  15.606
13273TIP3   OH261309   5.057   6.243   0.809
13273TIP3    H161310   4.966   6.217   0.819
13273TIP3    H261311   5.081   6.281   0.894
13274TIP3   OH261312   2.295   3.438  12.158
13274TIP3    H161313   2.277   3.437  12.064
13274TIP3    H261314   2.211   3.417  12.198
13275TIP3   OH261315   3.076   3.840   4.179
13275TIP3    H161316   3.057   3.810   4.268
13275TIP3    H261317   3.107   3.762   4.133
13276TIP3   OH261318   1.614   0.908   1.734
13276TIP3    H161319   1.530   0.905   1.689
13276TIP3    H261320   1.674   0.948   1.672
13277TIP3   OH261321   3.576   1.582  16.395
13277TIP3    H161322   3.644   1.611  16.334
13277TIP3    H261323   3.501   1.638  16.375
13278TIP3   OH261324   3.803   3.289  13.484
13278TIP3    H161325   3.762   3.232  13.419
13278TIP3    H261326   3.890   3.250  13.498
13279TIP3   OH261327   6.687   4.122   4.513
13279TIP3    H161328   6.625   4.188   4.545
13279TIP3    H261329   6.723   4.160   4.433
13280TIP3   OH261330   2.629   3.603   6.377
13280TIP3    H161331   2.721   3.577   6.366
13280TIP3    H261332   2.579   3.534   6.334
13281TIP3   OH261333   6.429   3.688  13.282
13281TIP3    H161334   6.376   3.646  13.215
13281TIP3    H261335   6.519   3.677  13.252
13282TIP3   OH261336   1.629   5.239   2.532
13282TIP3    H161337   1.534   5.226   2.530
13282TIP3    H261338   1.640   5.322   2.580
13283TIP3   OH261339   0.206   5.306   0.535
13283TIP3    H161340   0.205   5.402   0.534
13283TIP3    H261341   0.285   5.283   0.584
13284TIP3   OH261342   3.346   2.473   4.823
13284TIP3    H161343   3.293   2.414   4.769
13284TIP3    H261344   3.285   2.540   4.852
13285TIP3   OH261345   4.893   2.295  12.196
13285TIP3    H161346   4.961   2.262  12.137
13285TIP3    H261347   4.817   2.238  12.179
13286TIP3   OH261348   5.461   4.120  16.391
13286TIP3    H161349   5.470   4.139  16.484
13286TIP3    H261350   5.519   4.182  16.348
13287TIP3   OH261351   0.868   0.796   2.870
13287TIP3    H161352   0.887   0.777   2.962
13287TIP3    H261353   0.952   0.818   2.832
13288TIP3   OH261354   5.094   4.433   1.206
13288TIP3    H161355   5.037   4.499   1.246
13288TIP3    H261356   5.162   4.484   1.163
13289TIP3   OH261357   3.535   1.511   3.380
13289TIP3    H161358   3.588   1.515   3.301
13289TIP3    H261359   3.579   1.446   3.435
13290TIP3   OH261360   4.106   1.798   1.935
13290TIP3    H161361   4.079   1.889   1.946
13290TIP3    H261362   4.074   1.775   1.848
13291TIP3   OH261363   4.478   6.657  17.021
13291TIP3    H161364   4.413   6.666  16.951
13291TIP3    H261365   4.561   6.651  16.975
13292TIP3   OH261366   3.817   0.957  15.360
13292TIP3    H161367   3.840   1.048  15.376
13292TIP3    H261368   3.774   0.957  15.275
13293TIP3   OH261369   0.008   4.020  12.617
13293TIP3    H161370   0.067   4.068  12.558
13293TIP3    H261371   0.040   4.041  12.705
13294TIP3   OH261372   3.762   1.445  12.555
13294TIP3    H161373   3.708   1.519  12.580
13294TIP3    H261374   3.700   1.380  12.522
13295TIP3   OH261375   0.487   1.929  10.364
13295TIP3    H161376   0.467   1.995  10.430
13295TIP3    H261377   0.402   1.908  10.325
13296TIP3   OH261378   4.014   0.772   6.014
13296TIP3    H161379   4.034   0.787   6.106
13296TIP3    H261380   4.078   0.706   5.986
13297TIP3   OH261381   6.756   1.621  16.746
13297TIP3    H161382   6.757   1.617  16.841
13297TIP3    H261383   6.815   1.694  16.724
13298TIP3   OH261384   1.535   3.181  12.046
13298TIP3    H161385   1.554   3.168  12.138
13298TIP3    H261386   1.446   3.147  12.034
13299TIP3   OH261387   4.730   6.009  16.836
13299TIP3    H161388   4.663   6.062  16.792
13299TIP3    H261389   4.812   6.056  16.820
13300TIP3   OH261390   2.758   4.196  11.106
13300TIP3    H161391   2.837   4.199  11.051
13300TIP3    H261392   2.694   4.149  11.052
13301TIP3   OH261393   6.546   6.173   0.112
13301TIP3    H161394   6.640   6.191   0.114
13301TIP3    H261395   6.528   6.132   0.196
13302TIP3   OH261396   4.386   5.211  12.933
13302TIP3    H161397   4.332   5.220  13.011
13302TIP3    H261398   4.356   5.131  12.891
13303TIP3   OH261399   6.380   1.946   4.398
13303TIP3    H161400   6.358   2.010   4.465
13303TIP3    H261401   6.475   1.954   4.387
13304TIP3   OH261402   6.155   2.492  12.647
13304TIP3    H161403   6.167   2.481  12.742
13304TIP3    H261404   6.087   2.429  12.624
13305TIP3   OH261405   2.294   5.130   4.344
13305TIP3    H161406   2.308   5.215   4.302
13305TIP3    H261407   2.205   5.105   4.320
13306TIP3   OH261408   6.531   0.923   0.976
13306TIP3    H161409   6.462   0.902   0.913
13306TIP3    H261410   6.589   0.983   0.928
13307TIP3   OH261411   6.291   1.627  14.123
13307TIP3    H161412   6.357   1.670  14.069
13307TIP3    H261413   6.282   1.684  14.200
13308TIP3   OH261414   0.252   5.085  12.327
13308TIP3    H161415   0.320   5.087  12.260
13308TIP3    H261416   0.299   5.104  12.409
13309TIP3   OH261417   6.325   5.410   4.291
13309TIP3    H161418   6.304   5.437   4.380
13309TIP3    H261419   6.400   5.464   4.266
13310TIP3   OH261420   5.882   3.977   1.933
13310TIP3    H161421   5.922   4.034   1.868
13310TIP3    H261422   5.956   3.940   1.981
13311TIP3   OH261423   4.348   2.643  16.607
13311TIP3    H161424   4.437   2.615  16.627
13311TIP3    H261425   4.293   2.596  16.670
13312TIP3   OH261426   1.189   1.667   4.817
13312TIP3    H161427   1.212   1.574   4.821
13312TIP3    H261428   1.257   1.706   4.762
13313TIP3   OH261429   1.636   3.344   1.154
13313TIP3    H161430   1.729   3.358   1.136
13313TIP3    H261431   1.617   3.401   1.228
13314TIP3   OH261432   1.218   2.621   5.652
13314TIP3    H161433   1.157   2.550   5.673
13314TIP3    H261434   1.175   2.700   5.684
13315TIP3   OH261435   3.451   1.262  12.788
13315TIP3    H161436   3.466   1.352  12.760
13315TIP3    H261437   3.372   1.267  12.842
13316TIP3   OH261438   3.281   0.424   6.547
13316TIP3    H161439   3.230   0.380   6.479
13316TIP3    H261440   3.215   0.473   6.597
13317TIP3   OH261441   2.234   1.295  12.698
13317TIP3    H161442   2.144   1.264  12.697
13317TIP3    H261443   2.275   1.253  12.623
13318TIP3   OH261444   0.908   0.203   5.564
13318TIP3    H161445   0.953   0.173   5.643
13318TIP3    H261446   0.947   0.152   5.493
13319TIP3   OH261447   3.769   3.470  14.367
13319TIP3    H161448   3.684   3.490  14.327
13319TIP3    H261449   3.828   3.455  14.294
13320TIP3   OH261450   2.706   1.669  14.452
13320TIP3    H161451   2.783   1.622  14.421
13320TIP3    H261452   2.697   1.642  14.544
13321TIP3   OH261453   5.686   6.740  11.796
13321TIP3    H161454   5.667   6.824  11.839
13321TIP3    H261455   5.777   6.750  11.766
13322TIP3   OH261456   6.695   3.883   0.590
13322TIP3    H161457   6.628   3.817   0.571
13322TIP3    H261458   6.652   3.966   0.570
13323TIP3   OH261459   4.538   3.110   3.911
13323TIP3    H161460   4.502   3.111   3.823
13323TIP3    H261461   4.626   3.074   3.901
13324TIP3   OH261462   1.695   0.806  11.232
13324TIP3    H161463   1.728   0.793  11.321
13324TIP3    H261464   1.769   0.787  11.175
13325TIP3   OH261465   1.883   6.749  11.330
13325TIP3    H161466   1.896   6.793  11.414
13325TIP3    H261467   1.870   6.820  11.267
13326TIP3   OH261468   1.218   6.232   5.211
13326TIP3    H161469   1.286   6.166   5.197
13326TIP3    H261470   1.264   6.315   5.201
13327TIP3   OH261471   1.255   4.948  16.775
13327TIP3    H161472   1.339   4.942  16.819
13327TIP3    H261473   1.240   4.861  16.738
13328TIP3   OH261474   6.640   3.183   0.011
13328TIP3    H161475   6.624   3.106  -0.043
13328TIP3    H261476   6.576   3.248  -0.020
13329TIP3   OH261477   5.246   6.574  17.020
13329TIP3    H161478   5.192   6.500  17.050
13329TIP3    H261479   5.325   6.569  17.074
13330TIP3   OH261480   1.375   1.016   4.262
13330TIP3    H161481   1.447   0.999   4.323
13330TIP3    H261482   1.337   1.098   4.292
13331TIP3   OH261483   5.726   6.075   2.881
13331TIP3    H161484   5.754   6.167   2.888
13331TIP3    H261485   5.776   6.041   2.806
13332TIP3   OH261486   4.632   0.965   3.236
13332TIP3    H161487   4.625   0.870   3.244
13332TIP3    H261488   4.654   0.995   3.325
13333TIP3   OH261489   0.696   6.193  15.933
13333TIP3    H161490   0.619   6.219  15.984
13333TIP3    H261491   0.678   6.225  15.845
13334TIP3   OH261492   5.730   6.698  16.295
13334TIP3    H161493   5.722   6.604  16.311
13334TIP3    H261494   5.728   6.706  16.199
13335TIP3   OH261495   5.589   1.306  16.219
13335TIP3    H161496   5.610   1.213  16.228
13335TIP3    H261497   5.559   1.333  16.305
13336TIP3   OH261498   3.446   2.965  15.303
13336TIP3    H161499   3.541   2.958  15.297
13336TIP3    H261500   3.416   2.952  15.213
13337TIP3   OH261501   4.633   2.922   0.752
13337TIP3    H161502   4.575   2.849   0.731
13337TIP3    H261503   4.642   2.970   0.670
13338TIP3   OH261504   2.669   3.995  13.539
13338TIP3    H161505   2.687   3.904  13.560
13338TIP3    H261506   2.749   4.026  13.495
13339TIP3   OH261507   4.219   2.643   0.342
13339TIP3    H161508   4.210   2.554   0.375
13339TIP3    H261509   4.224   2.634   0.247
13340TIP3   OH261510   2.350   4.534  15.739
13340TIP3    H161511   2.257   4.525  15.756
13340TIP3    H261512   2.381   4.444  15.725
13341TIP3   OH261513   2.082   3.259  13.001
13341TIP3    H161514   2.090   3.190  12.936
13341TIP3    H261515   2.102   3.216  13.084
13342TIP3   OH261516   1.520   2.353  16.064
13342TIP3    H161517   1.444   2.410  16.080
13342TIP3    H261518   1.532   2.357  15.969
13343TIP3   OH261519   3.780   4.203  15.846
13343TIP3    H161520   3.778   4.108  15.833
13343TIP3    H261521   3.802   4.214  15.938
13344TIP3   OH261522   0.634   6.128  14.273
13344TIP3    H161523   0.713   6.174  14.246
13344TIP3    H261524   0.609   6.075  14.197
13345TIP3   OH261525   3.277   2.650  11.993
13345TIP3    H161526   3.250   2.611  11.910
13345TIP3    H261527   3.205   2.630  12.053
13346TIP3   OH261528   0.853   5.834  11.153
13346TIP3    H161529   0.805   5.916  11.138
13346TIP3    H261530   0.864   5.796  11.066
13347TIP3   OH261531   4.158   0.094  16.004
13347TIP3    H161532   4.090   0.067  16.066
13347TIP3    H261533   4.220   0.145  16.057
13348TIP3   OH261534   3.131   4.710  12.009
13348TIP3    H161535   3.206   4.674  12.056
13348TIP3    H261536   3.087   4.766  12.072
13349TIP3   OH261537   4.638   4.239  10.926
13349TIP3    H161538   4.561   4.206  10.973
13349TIP3    H261539   4.606   4.316  10.879
13350TIP3   OH261540   1.487   0.537  13.845
13350TIP3    H161541   1.522   0.454  13.877
13350TIP3    H261542   1.477   0.524  13.751
13351TIP3   OH261543   1.664   4.880   1.755
13351TIP3    H161544   1.687   4.970   1.779
13351TIP3    H261545   1.605   4.889   1.680
13352TIP3   OH261546   6.388   1.594   5.304
13352TIP3    H161547   6.480   1.572   5.320
13352TIP3    H261548   6.354   1.520   5.254
13353TIP3   OH261549   0.683   2.754   2.237
13353TIP3    H161550   0.747   2.736   2.168
13353TIP3    H261551   0.620   2.814   2.196
13354TIP3   OH261552   3.502   1.161   3.371
13354TIP3    H161553   3.471   1.093   3.430
13354TIP3    H261554   3.542   1.227   3.429
13355TIP3   OH261555   4.256   2.956   3.863
13355TIP3    H161556   4.226   3.014   3.933
13355TIP3    H261557   4.176   2.930   3.818
13356TIP3   OH261558   4.702   2.941   3.514
13356TIP3    H161559   4.773   2.885   3.546
13356TIP3    H261560   4.692   2.916   3.422
13357TIP3   OH261561   1.733   4.431  14.633
13357TIP3    H161562   1.650   4.476  14.645
13357TIP3    H261563   1.798   4.501  14.625
13358TIP3   OH261564   1.319   1.388   6.153
13358TIP3    H161565   1.342   1.452   6.086
13358TIP3    H261566   1.346   1.304   6.116
13359TIP3   OH261567   2.842   3.123  11.822
13359TIP3    H161568   2.763   3.081  11.788
13359TIP3    H261569   2.913   3.089  11.767
13360TIP3   OH261570   0.205   3.425   5.879
13360TIP3    H161571   0.295   3.442   5.905
13360TIP3    H261572   0.154   3.434   5.960
13361TIP3   OH261573   3.105   6.495  12.293
13361TIP3    H161574   3.130   6.412  12.252
13361TIP3    H261575   3.024   6.519  12.249
13362TIP3   OH261576   6.744   1.745   3.600
13362TIP3    H161577   6.777   1.665   3.560
13362TIP3    H261578   6.663   1.718   3.644
13363TIP3   OH261579   0.849   5.311   0.084
13363TIP3    H161580   0.897   5.268   0.014
13363TIP3    H261581   0.814   5.391   0.044
13364TIP3   OH261582   0.077   0.068   6.122
13364TIP3    H161583   0.059  -0.003   6.184
13364TIP3    H261584   0.169   0.056   6.098
13365TIP3   OH261585   6.081   1.260   1.845
13365TIP3    H161586   6.074   1.183   1.789
13365TIP3    H261587   6.024   1.241   1.919
13366TIP3   OH261588   4.003   3.158   1.047
13366TIP3    H161589   4.045   3.078   1.078
13366TIP3    H261590   4.023   3.223   1.116
13367TIP3   OH261591   2.094   0.694  14.408
13367TIP3    H161592   2.176   0.743  14.401
13367TIP3    H261593   2.045   0.718  14.330
13368TIP3   OH261594   5.074   4.405   4.256
13368TIP3    H161595   4.998   4.460   4.274
13368TIP3    H261596   5.037   4.318   4.239
13369TIP3   OH261597   6.614   2.595  10.940
13369TIP3    H161598   6.572   2.680  10.951
13369TIP3    H261599   6.707   2.615  10.935
13370TIP3   OH261600   0.468   4.857  12.487
13370TIP3    H161601   0.446   4.940  12.529
13370TIP3    H261602   0.558   4.839  12.514
13371TIP3   OH261603   4.338   4.591   5.162
13371TIP3    H161604   4.387   4.673   5.148
13371TIP3    H261605   4.331   4.552   5.076
13372TIP3   OH261606   4.712   1.572  13.222
13372TIP3    H161607   4.799   1.610  13.228
13372TIP3    H261608   4.725   1.478  13.234
13373TIP3   OH261609   3.608   0.810  15.843
13373TIP3    H161610   3.529   0.778  15.886
13373TIP3    H261611   3.646   0.873  15.904
13374TIP3   OH261612   0.239   0.587   1.791
13374TIP3    H161613   0.202   0.500   1.778
13374TIP3    H261614   0.307   0.575   1.856
13375TIP3   OH261615   4.229   1.201  16.173
13375TIP3    H161616   4.196   1.113  16.158
13375TIP3    H261617   4.153   1.252  16.200
13376TIP3   OH261618   3.952   6.568   6.382
13376TIP3    H161619   4.037   6.609   6.368
13376TIP3    H261620   3.952   6.491   6.325
13377TIP3   OH261621   3.045   1.357   3.680
13377TIP3    H161622   3.134   1.323   3.692
13377TIP3    H261623   3.031   1.416   3.754
13378TIP3   OH261624   2.096   6.482   0.223
13378TIP3    H161625   2.177   6.529   0.245
13378TIP3    H261626   2.057   6.461   0.307
13379TIP3   OH261627   6.637   0.671  14.302
13379TIP3    H161628   6.561   0.711  14.345
13379TIP3    H261629   6.600   0.600  14.250
13380TIP3   OH261630   2.231   2.348  14.692
13380TIP3    H161631   2.172   2.383  14.625
13380TIP3    H261632   2.319   2.370  14.662
13381TIP3   OH261633   6.608   4.299   3.222
13381TIP3    H161634   6.684   4.344   3.186
13381TIP3    H261635   6.541   4.306   3.154
13382TIP3   OH261636   1.252   0.746  14.318
13382TIP3    H161637   1.281   0.836  14.304
13382TIP3    H261638   1.323   0.692  14.285
13383TIP3   OH261639   2.317   6.023  13.084
13383TIP3    H161640   2.361   6.011  13.000
13383TIP3    H261641   2.273   6.107  13.077
13384TIP3   OH261642   6.570   5.356   0.111
13384TIP3    H161643   6.577   5.390   0.200
13384TIP3    H261644   6.652   5.382   0.069
13385TIP3   OH261645   3.443   1.302   5.369
13385TIP3    H161646   3.383   1.257   5.310
13385TIP3    H261647   3.485   1.369   5.315
13386TIP3   OH261648   6.612   5.468   2.589
13386TIP3    H161649   6.648   5.556   2.600
13386TIP3    H261650   6.675   5.410   2.631
13387TIP3   OH261651   5.652   1.135   6.148
13387TIP3    H161652   5.694   1.178   6.222
13387TIP3    H261653   5.578   1.088   6.187
13388TIP3   OH261654   0.535   1.409  16.914
13388TIP3    H161655   0.529   1.323  16.954
13388TIP3    H261656   0.529   1.393  16.820
13389TIP3   OH261657   6.364   2.465   5.509
13389TIP3    H161658   6.361   2.397   5.577
13389TIP3    H261659   6.434   2.524   5.538
13390TIP3   OH261660   2.294   4.226  17.078
13390TIP3    H161661   2.288   4.230  16.982
13390TIP3    H261662   2.370   4.279  17.099
13391TIP3   OH261663   3.293   5.239  11.325
13391TIP3    H161664   3.360   5.229  11.256
13391TIP3    H261665   3.303   5.330  11.354
13392TIP3   OH261666   0.013   1.568  14.110
13392TIP3    H161667   0.030   1.590  14.202
13392TIP3    H261668   0.057   1.484  14.097
13393TIP3   OH261669   3.882   6.367  15.842
13393TIP3    H161670   3.796   6.357  15.802
13393TIP3    H261671   3.890   6.461  15.859
13394TIP3   OH261672   6.046   5.131   1.048
13394TIP3    H161673   6.058   5.059   1.110
13394TIP3    H261674   6.115   5.193   1.071
13395TIP3   OH261675   3.940   2.764   4.689
13395TIP3    H161676   3.845   2.762   4.678
13395TIP3    H261677   3.974   2.779   4.601
13396TIP3   OH261678   3.359   6.424   0.692
13396TIP3    H161679   3.342   6.485   0.763
13396TIP3    H261680   3.451   6.399   0.703
13397TIP3   OH261681   2.143   4.536  11.057
13397TIP3    H161682   2.069   4.577  11.012
13397TIP3    H261683   2.188   4.609  11.098
13398TIP3   OH261684   6.739   1.524  15.299
13398TIP3    H161685   6.821   1.572  15.299
13398TIP3    H261686   6.725   1.498  15.390
13399TIP3   OH261687   5.935   2.208   0.956
13399TIP3    H161688   5.946   2.298   0.926
13399TIP3    H261689   5.840   2.199   0.970
13400TIP3   OH261690   6.681   2.381   3.054
13400TIP3    H161691   6.664   2.466   3.094
13400TIP3    H261692   6.594   2.344   3.038
13401TIP3   OH261693   5.931   1.450  13.853
13401TIP3    H161694   5.844   1.489  13.849
13401TIP3    H261695   5.967   1.482  13.936
13402TIP3   OH261696   4.216   1.167   3.429
13402TIP3    H161697   4.226   1.135   3.340
13402TIP3    H261698   4.255   1.254   3.428
13403TIP3   OH261699   6.105   5.004   0.667
13403TIP3    H161700   6.153   4.928   0.635
13403TIP3    H261701   6.013   4.981   0.654
13404TIP3   OH261702   3.660   0.300   3.638
13404TIP3    H161703   3.710   0.329   3.561
13404TIP3    H261704   3.612   0.378   3.666
13405TIP3   OH261705   4.105   6.033  11.517
13405TIP3    H161706   4.089   6.001  11.428
13405TIP3    H261707   4.018   6.048  11.554
13406TIP3   OH261708   1.888   2.596  13.835
13406TIP3    H161709   1.859   2.517  13.882
13406TIP3    H261710   1.983   2.594  13.843
13407TIP3   OH261711   4.096   0.909  13.487
13407TIP3    H161712   4.053   0.875  13.566
13407TIP3    H261713   4.186   0.876  13.493
13408TIP3   OH261714   2.807   5.924   5.113
13408TIP3    H161715   2.764   5.996   5.066
13408TIP3    H261716   2.901   5.939   5.098
13409TIP3   OH261717   2.306   5.509   5.825
13409TIP3    H161718   2.259   5.429   5.850
13409TIP3    H261719   2.240   5.578   5.830
13410TIP3   OH261720   5.319   5.531  14.106
13410TIP3    H161721   5.279   5.482  14.179
13410TIP3    H261722   5.364   5.464  14.055
13411TIP3   OH261723   4.804   3.999  10.727
13411TIP3    H161724   4.837   3.970  10.813
13411TIP3    H261725   4.848   3.941  10.664
13412TIP3   OH261726   5.579   6.193  15.292
13412TIP3    H161727   5.584   6.108  15.250
13412TIP3    H261728   5.540   6.176  15.378
13413TIP3   OH261729   6.592   2.310  12.403
13413TIP3    H161730   6.521   2.324  12.466
13413TIP3    H261731   6.583   2.383  12.342
13414TIP3   OH261732   2.273   4.909   5.673
13414TIP3    H161733   2.227   4.933   5.753
13414TIP3    H261734   2.363   4.937   5.688
13415TIP3   OH261735   6.179   6.084  16.159
13415TIP3    H161736   6.169   5.989  16.149
13415TIP3    H261737   6.107   6.109  16.217
13416TIP3   OH261738   5.612   6.760   4.663
13416TIP3    H161739   5.538   6.796   4.613
13416TIP3    H261740   5.572   6.713   4.736
13417TIP3   OH261741   0.451   2.418   0.161
13417TIP3    H161742   0.425   2.339   0.210
13417TIP3    H261743   0.545   2.425   0.175
13418TIP3   OH261744   1.588   4.646   2.767
13418TIP3    H161745   1.604   4.719   2.707
13418TIP3    H261746   1.643   4.664   2.842
13419TIP3   OH261747   6.609   2.270   0.664
13419TIP3    H161748   6.681   2.213   0.691
13419TIP3    H261749   6.605   2.337   0.732
13420TIP3   OH261750   6.399   3.869   0.813
13420TIP3    H161751   6.451   3.800   0.771
13420TIP3    H261752   6.399   3.844   0.906
13421TIP3   OH261753   2.956   1.075   3.962
13421TIP3    H161754   2.872   1.099   3.924
13421TIP3    H261755   2.977   1.147   4.021
13422TIP3   OH261756   0.578   4.843   4.844
13422TIP3    H161757   0.489   4.827   4.876
13422TIP3    H261758   0.610   4.915   4.898
13423TIP3   OH261759   1.619   0.751   0.997
13423TIP3    H161760   1.691   0.811   1.018
13423TIP3    H261761   1.542   0.808   0.991
13424TIP3   OH261762   5.685   0.334  12.670
13424TIP3    H161763   5.626   0.364  12.740
13424TIP3    H261764   5.629   0.327  12.593
13425TIP3   OH261765   0.436   3.440  15.747
13425TIP3    H161766   0.350   3.467  15.781
13425TIP3    H261767   0.453   3.356  15.790
13426TIP3   OH261768   6.140   5.931   5.476
13426TIP3    H161769   6.113   5.860   5.418
13426TIP3    H261770   6.065   5.991   5.477
13427TIP3   OH261771   6.026   4.950   2.441
13427TIP3    H161772   6.103   4.904   2.407
13427TIP3    H261773   6.016   5.025   2.383
13428TIP3   OH261774   1.933   0.892   4.570
13428TIP3    H161775   1.859   0.948   4.594
13428TIP3    H261776   1.931   0.820   4.633
13429TIP3   OH261777   1.337   3.669  11.622
13429TIP3    H161778   1.375   3.695  11.706
13429TIP3    H261779   1.410   3.670  11.561
13430TIP3   OH261780   5.811   3.673   5.567
13430TIP3    H161781   5.885   3.681   5.628
13430TIP3    H261782   5.810   3.756   5.519
13431TIP3   OH261783   4.018   1.346   2.646
13431TIP3    H161784   4.110   1.352   2.620
13431TIP3    H261785   4.010   1.258   2.684
13432TIP3   OH261786   6.292   4.876   1.945
13432TIP3    H161787   6.281   4.794   1.993
13432TIP3    H261788   6.353   4.855   1.875
13433TIP3   OH261789   0.388   6.186   0.470
13433TIP3    H161790   0.318   6.249   0.486
13433TIP3    H261791   0.353   6.103   0.500
13434TIP3   OH261792   5.529   5.282   2.683
13434TIP3    H161793   5.484   5.337   2.746
13434TIP3    H261794   5.461   5.255   2.621
13435TIP3   OH261795   0.204   4.779  16.266
13435TIP3    H161796   0.130   4.723  16.246
13435TIP3    H261797   0.167   4.866  16.275
13436TIP3   OH261798   2.987   5.292   3.643
13436TIP3    H161799   2.908   5.241   3.662
13436TIP3    H261800   3.032   5.242   3.575
13437TIP3   OH261801   3.397   3.451  11.134
13437TIP3    H161802   3.492   3.445  11.118
13437TIP3    H261803   3.361   3.376  11.086
13438TIP3   OH261804   0.931   1.441  12.383
13438TIP3    H161805   0.924   1.417  12.475
13438TIP3    H261806   1.023   1.460  12.370
13439TIP3   OH261807   6.581   6.503  14.606
13439TIP3    H161808   6.566   6.473  14.696
13439TIP3    H261809   6.646   6.442  14.571
13440TIP3   OH261810   1.225   1.967   0.312
13440TIP3    H161811   1.143   1.938   0.352
13440TIP3    H261812   1.225   2.062   0.322
13441TIP3   OH261813   2.150   6.269   6.453
13441TIP3    H161814   2.133   6.224   6.370
13441TIP3    H261815   2.066   6.270   6.498
13442TIP3   OH261816   2.822   1.069  13.525
13442TIP3    H161817   2.729   1.049  13.540
13442TIP3    H261818   2.821   1.130  13.451
13443TIP3   OH261819   3.506   3.167  11.547
13443TIP3    H161820   3.438   3.177  11.613
13443TIP3    H261821   3.501   3.075  11.520
13444TIP3   OH261822   5.430   4.507  16.389
13444TIP3    H161823   5.397   4.457  16.315
13444TIP3    H261824   5.521   4.525  16.366
13445TIP3   OH261825   2.501   4.622  15.542
13445TIP3    H161826   2.438   4.607  15.612
13445TIP3    H261827   2.532   4.711  15.555
13446TIP3   OH261828   6.790   4.624  16.228
13446TIP3    H161829   6.734   4.554  16.261
13446TIP3    H261830   6.813   4.597  16.139
13447TIP3   OH261831   5.007   5.745   5.037
13447TIP3    H161832   5.047   5.820   5.081
13447TIP3    H261833   5.073   5.718   4.973
13448TIP3   OH261834   1.998   4.930  13.069
13448TIP3    H161835   1.957   4.863  13.123
13448TIP3    H261836   2.025   4.884  12.989
13449TIP3   OH261837   2.596   2.470   3.008
13449TIP3    H161838   2.513   2.447   3.050
13449TIP3    H261839   2.644   2.387   3.003
13450TIP3   OH261840   4.136   6.786   5.811
13450TIP3    H161841   4.136   6.882   5.821
13450TIP3    H261842   4.090   6.771   5.729
13451TIP3   OH261843   5.877   3.729  12.490
13451TIP3    H161844   5.833   3.672  12.427
13451TIP3    H261845   5.930   3.788  12.435
13452TIP3   OH261846   0.047   4.199   0.712
13452TIP3    H161847   0.088   4.150   0.784
13452TIP3    H261848   0.062   4.144   0.635
13453TIP3   OH261849   3.149   0.257  16.322
13453TIP3    H161850   3.116   0.251  16.232
13453TIP3    H261851   3.098   0.193  16.371
13454TIP3   OH261852   1.307   2.672   4.916
13454TIP3    H161853   1.248   2.649   4.989
13454TIP3    H261854   1.327   2.765   4.931
13455TIP3   OH261855   6.674   4.427  15.028
13455TIP3    H161856   6.747   4.387  14.981
13455TIP3    H261857   6.659   4.369  15.103
13456TIP3   OH261858   1.991   5.226  12.619
13456TIP3    H161859   2.070   5.220  12.564
13456TIP3    H261860   1.989   5.143  12.666
13457TIP3   OH261861   5.148   4.254  16.389
13457TIP3    H161862   5.229   4.265  16.338
13457TIP3    H261863   5.079   4.287  16.333
13458TIP3   OH261864   1.622   0.082   0.585
13458TIP3    H161865   1.714   0.097   0.562
13458TIP3    H261866   1.604   0.146   0.654
13459TIP3   OH261867   6.277   4.026  16.605
13459TIP3    H161868   6.192   3.982  16.603
13459TIP3    H261869   6.291   4.057  16.516
13460TIP3   OH261870   0.565   1.804   5.633
13460TIP3    H161871   0.514   1.879   5.663
13460TIP3    H261872   0.622   1.840   5.565
13461TIP3   OH261873   0.737   2.495  14.152
13461TIP3    H161874   0.771   2.448  14.228
13461TIP3    H261875   0.666   2.549  14.188
13462TIP3   OH261876   2.670   5.548   6.366
13462TIP3    H161877   2.576   5.537   6.349
13462TIP3    H261878   2.677   5.633   6.409
13463TIP3   OH261879   0.544   0.545  12.433
13463TIP3    H161880   0.546   0.463  12.382
13463TIP3    H261881   0.549   0.614  12.366
13464TIP3   OH261882   3.283   6.532   0.451
13464TIP3    H161883   3.293   6.468   0.522
13464TIP3    H261884   3.306   6.483   0.372
13465TIP3   OH261885   2.423   4.951   4.148
13465TIP3    H161886   2.345   4.981   4.195
13465TIP3    H261887   2.452   5.028   4.098
13466TIP3   OH261888   0.036   3.261   4.957
13466TIP3    H161889   0.128   3.239   4.943
13466TIP3    H261890   0.020   3.238   5.049
13467TIP3   OH261891   5.143   5.487  12.324
13467TIP3    H161892   5.212   5.441  12.371
13467TIP3    H261893   5.185   5.518  12.243
13468TIP3   OH261894   6.284   3.274  14.827
13468TIP3    H161895   6.188   3.270  14.833
13468TIP3    H261896   6.310   3.183  14.811
13469TIP3   OH261897   4.539   4.027  11.959
13469TIP3    H161898   4.576   4.052  11.874
13469TIP3    H261899   4.561   3.935  11.968
13470TIP3   OH261900   0.437   1.918  15.469
13470TIP3    H161901   0.413   1.892  15.559
13470TIP3    H261902   0.490   1.996  15.480
13471TIP3   OH261903   1.578   3.745   1.151
13471TIP3    H161904   1.601   3.772   1.062
13471TIP3    H261905   1.661   3.746   1.198
13472TIP3   OH261906   5.485   2.770  13.861
13472TIP3    H161907   5.483   2.705  13.791
13472TIP3    H261908   5.539   2.841  13.826
13473TIP3   OH261909   0.933   1.145  13.722
13473TIP3    H161910   0.880   1.081  13.675
13473TIP3    H261911   0.957   1.101  13.804
13474TIP3   OH261912   1.258   3.633   6.504
13474TIP3    H161913   1.307   3.653   6.424
13474TIP3    H261914   1.256   3.716   6.552
13475TIP3   OH261915   5.816   2.605  12.739
13475TIP3    H161916   5.856   2.524  12.708
13475TIP3    H261917   5.774   2.642  12.661
13476TIP3   OH261918   3.084   0.937   1.051
13476TIP3    H161919   3.076   0.903   1.140
13476TIP3    H261920   2.993   0.942   1.020
13477TIP3   OH261921   2.051   3.337   5.920
13477TIP3    H161922   2.050   3.413   5.861
13477TIP3    H261923   2.012   3.369   6.001
13478TIP3   OH261924   0.798   5.877   2.469
13478TIP3    H161925   0.817   5.867   2.375
13478TIP3    H261926   0.771   5.789   2.496
13479TIP3   OH261927   1.876   5.378   6.651
13479TIP3    H161928   1.800   5.343   6.605
13479TIP3    H261929   1.932   5.302   6.666
13480TIP3   OH261930   0.266   1.734   2.626
13480TIP3    H161931   0.325   1.803   2.657
13480TIP3    H261932   0.312   1.697   2.550
13481TIP3   OH261933   5.865   0.945   6.358
13481TIP3    H161934   5.808   0.871   6.378
13481TIP3    H261935   5.809   1.022   6.365
13482TIP3   OH261936   1.969   0.348  11.936
13482TIP3    H161937   1.935   0.386  11.855
13482TIP3    H261938   1.893   0.343  11.994
13483TIP3   OH261939   5.039   6.283   5.783
13483TIP3    H161940   5.008   6.206   5.831
13483TIP3    H261941   5.125   6.257   5.749
13484TIP3   OH261942   1.752   0.480   2.435
13484TIP3    H161943   1.722   0.524   2.356
13484TIP3    H261944   1.706   0.525   2.506
13485TIP3   OH261945   5.409   6.418   2.988
13485TIP3    H161946   5.503   6.410   2.968
13485TIP3    H261947   5.406   6.482   3.059
13486TIP3   OH261948   5.084   0.678   1.305
13486TIP3    H161949   5.056   0.600   1.256
13486TIP3    H261950   5.174   0.659   1.329
13487TIP3   OH261951   2.872   6.230  11.861
13487TIP3    H161952   2.794   6.267  11.821
13487TIP3    H261953   2.923   6.306  11.888
13488TIP3   OH261954   0.377   1.200   4.708
13488TIP3    H161955   0.406   1.109   4.698
13488TIP3    H261956   0.458   1.248   4.727
13489TIP3   OH261957   2.778   1.822   3.427
13489TIP3    H161958   2.817   1.890   3.372
13489TIP3    H261959   2.777   1.859   3.515
13490TIP3   OH261960   4.278   6.277   2.707
13490TIP3    H161961   4.251   6.347   2.766
13490TIP3    H261962   4.328   6.218   2.763
13491TIP3   OH261963   5.970   0.004  15.187
13491TIP3    H161964   5.934   0.091  15.173
13491TIP3    H261965   6.003  -0.022  15.101
13492TIP3   OH261966   1.671   5.900  15.449
13492TIP3    H161967   1.579   5.904  15.421
13492TIP3    H261968   1.666   5.897  15.545
13493TIP3   OH261969   6.056   2.244  13.811
13493TIP3    H161970   6.130   2.301  13.834
13493TIP3    H261971   6.096   2.160  13.788
13494TIP3   OH261972   6.277   5.384   3.164
13494TIP3    H161973   6.274   5.355   3.255
13494TIP3    H261974   6.195   5.353   3.126
13495TIP3   OH261975   5.951   2.971  12.083
13495TIP3    H161976   5.932   2.976  12.176
13495TIP3    H261977   5.875   2.927  12.045
13496TIP3   OH261978   5.596   0.978  15.487
13496TIP3    H161979   5.597   1.020  15.401
13496TIP3    H261980   5.645   1.038  15.543
13497TIP3   OH261981   6.774   5.063   3.168
13497TIP3    H161982   6.769   5.103   3.255
13497TIP3    H261983   6.852   5.103   3.128
13498TIP3   OH261984   2.653   3.503   1.435
13498TIP3    H161985   2.642   3.517   1.341
13498TIP3    H261986   2.744   3.477   1.445
13499TIP3   OH261987   0.605   5.326   2.169
13499TIP3    H161988   0.656   5.351   2.092
13499TIP3    H261989   0.545   5.258   2.138
13500TIP3   OH261990   4.151   2.449   1.096
13500TIP3    H161991   4.160   2.497   1.013
13500TIP3    H261992   4.240   2.423   1.118
13501TIP3   OH261993   1.131   4.232   4.819
13501TIP3    H161994   1.149   4.314   4.865
13501TIP3    H261995   1.163   4.164   4.877
13502TIP3   OH261996   6.069   3.031  13.612
13502TIP3    H161997   6.033   2.944  13.629
13502TIP3    H261998   6.036   3.055  13.526
13503TIP3   OH261999   6.391   2.743  15.945
13503TIP3    H162000   6.468   2.790  15.910
13503TIP3    H262001   6.364   2.686  15.873
13504TIP3   OH262002   1.778   2.616   2.106
13504TIP3    H162003   1.788   2.570   2.189
13504TIP3    H262004   1.855   2.673   2.101
13505TIP3   OH262005   6.186   2.592   1.220
13505TIP3    H162006   6.131   2.670   1.215
13505TIP3    H262007   6.275   2.625   1.214
13506TIP3   OH262008   6.264   4.790  16.964
13506TIP3    H162009   6.304   4.807  17.050
13506TIP3    H262010   6.233   4.699  16.970
13507TIP3   OH262011   6.431   1.862   0.427
13507TIP3    H162012   6.477   1.798   0.373
13507TIP3    H262013   6.398   1.812   0.502
13508TIP3   OH262014   6.394   3.974  16.887
13508TIP3    H162015   6.372   4.060  16.922
13508TIP3    H262016   6.352   3.971  16.802
13509TIP3   OH262017   0.281   0.277   3.021
13509TIP3    H162018   0.223   0.204   3.003
13509TIP3    H262019   0.292   0.321   2.937
13510TIP3   OH262020   4.372   4.637   1.280
13510TIP3    H162021   4.425   4.563   1.251
13510TIP3    H262022   4.290   4.628   1.232
13511TIP3   OH262023   0.790   5.671   3.580
13511TIP3    H162024   0.785   5.576   3.590
13511TIP3    H262025   0.735   5.690   3.503
13512TIP3   OH262026   1.798   0.048   1.810
13512TIP3    H162027   1.835   0.136   1.804
13512TIP3    H262028   1.734   0.044   1.739
13513TIP3   OH262029   4.111   6.666  15.568
13513TIP3    H162030   4.111   6.571  15.581
13513TIP3    H262031   4.106   6.703  15.656
13514TIP3   OH262032   4.732   1.699   2.860
13514TIP3    H162033   4.711   1.791   2.844
13514TIP3    H262034   4.646   1.656   2.865
13515TIP3   OH262035   1.281   4.621  15.005
13515TIP3    H162036   1.332   4.696  15.036
13515TIP3    H262037   1.244   4.652  14.921
13516TIP3   OH262038   1.020   0.601   1.796
13516TIP3    H162039   0.954   0.623   1.730
13516TIP3    H262040   1.021   0.675   1.856
13517TIP3   OH262041   0.730   5.048   0.168
13517TIP3    H162042   0.677   5.087   0.237
13517TIP3    H262043   0.777   5.121   0.129
13518TIP3   OH262044   0.059   2.700  16.159
13518TIP3    H162045   0.134   2.648  16.187
13518TIP3    H262046   0.081   2.790  16.186
13519TIP3   OH262047   0.869   0.105   2.697
13519TIP3    H162048   0.865   0.017   2.734
13519TIP3    H262049   0.904   0.092   2.609
13520TIP3   OH262050   6.149   4.134  15.615
13520TIP3    H162051   6.131   4.141  15.521
13520TIP3    H262052   6.156   4.040  15.632
13521TIP3   OH262053   3.772   1.172  17.141
13521TIP3    H162054   3.849   1.217  17.107
13521TIP3    H262055   3.738   1.122  17.067
13522TIP3   OH262056   4.618   0.819  10.525
13522TIP3    H162057   4.554   0.774  10.580
13522TIP3    H262058   4.670   0.749  10.487
13523TIP3   OH262059   6.186   0.183  11.439
13523TIP3    H162060   6.185   0.088  11.431
13523TIP3    H262061   6.261   0.202  11.495
13524TIP3   OH262062   5.402   5.235   4.063
13524TIP3    H162063   5.378   5.221   3.971
13524TIP3    H262064   5.495   5.258   4.060
13525TIP3   OH262065   0.368   3.980  11.654
13525TIP3    H162066   0.304   4.050  11.666
13525TIP3    H262067   0.339   3.935  11.575
13526TIP3   OH262068   3.728   2.879  13.645
13526TIP3    H162069   3.775   2.920  13.572
13526TIP3    H262070   3.771   2.913  13.723
13527TIP3   OH262071   5.419   1.512   4.988
13527TIP3    H162072   5.496   1.468   5.026
13527TIP3    H262073   5.455   1.591   4.947
13528TIP3   OH262074   4.955   2.063   3.794
13528TIP3    H162075   4.964   2.023   3.707
13528TIP3    H262076   5.026   2.025   3.846
13529TIP3   OH262077   2.900   0.307   6.089
13529TIP3    H162078   2.971   0.371   6.080
13529TIP3    H262079   2.862   0.325   6.174
13530TIP3   OH262080   6.428   5.817   4.435
13530TIP3    H162081   6.459   5.859   4.516
13530TIP3    H262082   6.332   5.816   4.445
13531TIP3   OH262083   1.863   5.485  14.808
13531TIP3    H162084   1.887   5.406  14.858
13531TIP3    H262085   1.811   5.452  14.735
13532TIP3   OH262086   3.131   2.533   4.283
13532TIP3    H162087   3.047   2.487   4.283
13532TIP3    H262088   3.121   2.600   4.215
13533TIP3   OH262089   5.687   1.738   4.469
13533TIP3    H162090   5.596   1.751   4.443
13533TIP3    H262091   5.733   1.722   4.387
13534TIP3   OH262092   4.767   2.829  15.802
13534TIP3    H162093   4.813   2.909  15.827
13534TIP3    H262094   4.689   2.828  15.859
13535TIP3   OH262095   3.610   1.021   2.823
13535TIP3    H162096   3.680   1.041   2.761
13535TIP3    H262097   3.537   1.077   2.795
13536TIP3   OH262098   0.813   0.979   1.788
13536TIP3    H162099   0.760   1.012   1.861
13536TIP3    H262100   0.782   1.029   1.712
13537TIP3   OH262101   2.490   2.286   2.109
13537TIP3    H162102   2.516   2.194   2.105
13537TIP3    H262103   2.402   2.285   2.146
13538TIP3   OH262104   1.860   1.053   1.293
13538TIP3    H162105   1.904   0.981   1.247
13538TIP3    H262106   1.827   1.109   1.223
13539TIP3   OH262107   6.691   3.576   3.228
13539TIP3    H162108   6.648   3.629   3.295
13539TIP3    H262109   6.759   3.634   3.193
13540TIP3   OH262110   4.730   5.839   1.745
13540TIP3    H162111   4.721   5.902   1.673
13540TIP3    H262112   4.646   5.794   1.748
13541TIP3   OH262113   0.662   5.277   3.876
13541TIP3    H162114   0.668   5.361   3.922
13541TIP3    H262115   0.568   5.262   3.866
13542TIP3   OH262116   3.178   3.384  17.093
13542TIP3    H162117   3.264   3.366  17.054
13542TIP3    H262118   3.116   3.335  17.039
13543TIP3   OH262119   1.977   5.429  13.142
13543TIP3    H162120   1.920   5.504  13.158
13543TIP3    H262121   1.921   5.366  13.095
13544TIP3   OH262122   2.478   0.079   3.025
13544TIP3    H162123   2.467   0.082   2.930
13544TIP3    H262124   2.429   0.155   3.057
13545TIP3   OH262125   0.043   0.392   5.145
13545TIP3    H162126   0.124   0.399   5.195
13545TIP3    H262127  -0.008   0.469   5.171
13546TIP3   OH262128   2.660   1.238   5.198
13546TIP3    H162129   2.630   1.252   5.108
13546TIP3    H262130   2.755   1.244   5.193
13547TIP3   OH262131   0.698   5.674   6.478
13547TIP3    H162132   0.692   5.583   6.450
13547TIP3    H262133   0.610   5.709   6.461
13548TIP3   OH262134   0.877   3.962  15.301
13548TIP3    H162135   0.832   3.986  15.382
13548TIP3    H262136   0.968   3.991  15.314
13549TIP3   OH262137   1.233   4.958   4.776
13549TIP3    H162138   1.188   5.035   4.809
13549TIP3    H262139   1.321   4.963   4.814
13550TIP3   OH262140   0.196   4.399   1.190
13550TIP3    H162141   0.134   4.385   1.118
13550TIP3    H262142   0.150   4.367   1.267
13551TIP3   OH262143   0.901   0.541  11.197
13551TIP3    H162144   0.945   0.461  11.168
13551TIP3    H262145   0.961   0.579  11.261
13552TIP3   OH262146   1.062   1.704   5.423
13552TIP3    H162147   0.999   1.645   5.382
13552TIP3    H262148   1.008   1.769   5.469
13553TIP3   OH262149   4.113   5.310   5.612
13553TIP3    H162150   4.037   5.359   5.645
13553TIP3    H262151   4.156   5.372   5.553
13554TIP3   OH262152   2.261   1.266  16.853
13554TIP3    H162153   2.234   1.333  16.916
13554TIP3    H262154   2.190   1.264  16.789
13555TIP3   OH262155   1.392   0.439   0.544
13555TIP3    H162156   1.323   0.501   0.570
13555TIP3    H262157   1.472   0.490   0.548
13556TIP3   OH262158   3.715   4.604   5.278
13556TIP3    H162159   3.723   4.575   5.187
13556TIP3    H262160   3.622   4.592   5.298
13557TIP3   OH262161   5.430   4.558  13.103
13557TIP3    H162162   5.446   4.499  13.177
13557TIP3    H262163   5.501   4.541  13.042
13558TIP3   OH262164   4.271   6.531  15.313
13558TIP3    H162165   4.176   6.524  15.299
13558TIP3    H262166   4.284   6.507  15.404
13559TIP3   OH262167   2.262   1.928  14.275
13559TIP3    H162168   2.324   1.937  14.202
13559TIP3    H262169   2.313   1.883  14.343
13560TIP3   OH262170   1.878   6.032  14.910
13560TIP3    H162171   1.888   5.944  14.874
13560TIP3    H262172   1.920   6.089  14.845
13561TIP3   OH262173   5.913   0.614   4.909
13561TIP3    H162174   5.956   0.594   4.826
13561TIP3    H262175   5.855   0.539   4.925
13562TIP3   OH262176   1.113   5.958  12.479
13562TIP3    H162177   1.190   6.014  12.479
13562TIP3    H262178   1.045   6.010  12.521
13563TIP3   OH262179   4.916   4.776  10.566
13563TIP3    H162180   4.954   4.823  10.640
13563TIP3    H262181   4.958   4.815  10.489
13564TIP3   OH262182   6.564   0.475  12.202
13564TIP3    H162183   6.575   0.558  12.155
13564TIP3    H262184   6.636   0.473  12.265
13565TIP3   OH262185   6.039   5.225   3.088
13565TIP3    H162186   5.994   5.144   3.112
13565TIP3    H262187   6.022   5.284   3.162
13566TIP3   OH262188   0.695   3.732   2.050
13566TIP3    H162189   0.618   3.686   2.018
13566TIP3    H262190   0.668   3.768   2.135
13567TIP3   OH262191   2.043   3.346  12.437
13567TIP3    H162192   2.119   3.295  12.409
13567TIP3    H262193   1.974   3.281  12.452
13568TIP3   OH262194   6.027   4.842   1.166
13568TIP3    H162195   6.064   4.772   1.219
13568TIP3    H262196   5.934   4.842   1.186
13569TIP3   OH262197   2.536   3.189  13.111
13569TIP3    H162198   2.480   3.266  13.115
13569TIP3    H262199   2.547   3.172  13.018
13570TIP3   OH262200   1.248   4.558   1.989
13570TIP3    H162201   1.254   4.628   1.925
13570TIP3    H262202   1.185   4.589   2.053
13571TIP3   OH262203   3.087   4.736   1.601
13571TIP3    H162204   3.078   4.720   1.507
13571TIP3    H262205   3.182   4.734   1.617
13572TIP3   OH262206   0.203   4.034   0.888
13572TIP3    H162207   0.273   4.049   0.825
13572TIP3    H262208   0.234   4.075   0.969
13573TIP3   OH262209   5.153   5.801  14.805
13573TIP3    H162210   5.103   5.749  14.868
13573TIP3    H262211   5.226   5.744  14.780
13574TIP3   OH262212   2.430   2.553  14.200
13574TIP3    H162213   2.498   2.523  14.261
13574TIP3    H262214   2.370   2.479  14.192
13575TIP3   OH262215   2.369   5.072   2.154
13575TIP3    H162216   2.438   5.093   2.217
13575TIP3    H262217   2.370   4.976   2.150
13576TIP3   OH262218   0.788   1.575  15.016
13576TIP3    H162219   0.729   1.643  15.049
13576TIP3    H262220   0.856   1.623  14.970
13577TIP3   OH262221   0.810   0.073  15.204
13577TIP3    H162222   0.717   0.091  15.189
13577TIP3    H262223   0.854   0.105  15.125
13578TIP3   OH262224   1.524   4.336   5.642
13578TIP3    H162225   1.571   4.404   5.593
13578TIP3    H262226   1.519   4.371   5.731
13579TIP3   OH262227   4.062   6.049  11.255
13579TIP3    H162228   4.111   6.017  11.179
13579TIP3    H262229   4.086   6.141  11.263
13580TIP3   OH262230   2.807   6.636   2.758
13580TIP3    H162231   2.856   6.629   2.676
13580TIP3    H262232   2.866   6.685   2.816
13581TIP3   OH262233   2.875   0.543   4.586
13581TIP3    H162234   2.931   0.573   4.514
13581TIP3    H262235   2.909   0.587   4.663
13582TIP3   OH262236   6.749   3.169   4.442
13582TIP3    H162237   6.727   3.077   4.428
13582TIP3    H262238   6.771   3.174   4.535
13583TIP3   OH262239   3.066   0.156   1.950
13583TIP3    H162240   3.005   0.189   2.016
13583TIP3    H262241   3.012   0.141   1.873
13584TIP3   OH262242   6.328   2.825  11.470
13584TIP3    H162243   6.374   2.765  11.411
13584TIP3    H262244   6.268   2.873  11.413
13585TIP3   OH262245   1.073   6.305   6.699
13585TIP3    H162246   1.159   6.266   6.716
13585TIP3    H262247   1.014   6.230   6.695
13586TIP3   OH262248   6.068   0.773  11.644
13586TIP3    H162249   6.080   0.847  11.704
13586TIP3    H262250   6.074   0.695  11.699
13587TIP3   OH262251   1.659   0.791  16.795
13587TIP3    H162252   1.615   0.785  16.880
13587TIP3    H262253   1.719   0.865  16.804
13588TIP3   OH262254   1.280   0.709   0.260
13588TIP3    H162255   1.314   0.642   0.200
13588TIP3    H262256   1.307   0.792   0.221
13589TIP3   OH262257   2.722   3.026   1.213
13589TIP3    H162258   2.674   3.108   1.200
13589TIP3    H262259   2.776   3.017   1.135
13590TIP3   OH262260   4.464   1.237   4.207
13590TIP3    H162261   4.433   1.312   4.157
13590TIP3    H262262   4.387   1.182   4.218
13591TIP3   OH262263   6.050   0.159  13.439
13591TIP3    H162264   6.138   0.150  13.475
13591TIP3    H262265   6.055   0.234  13.380
13592TIP3   OH262266   5.351   5.005  12.287
13592TIP3    H162267   5.303   5.011  12.369
13592TIP3    H262268   5.436   5.045  12.305
13593TIP3   OH262269   5.286   0.128   0.167
13593TIP3    H162270   5.292   0.124   0.072
13593TIP3    H262271   5.331   0.209   0.191
13594TIP3   OH262272   0.273   3.063  16.362
13594TIP3    H162273   0.256   3.076  16.455
13594TIP3    H262274   0.328   2.985  16.358
13595TIP3   OH262275   5.696   0.369   4.905
13595TIP3    H162276   5.672   0.411   4.823
13595TIP3    H262277   5.660   0.426   4.973
13596TIP3   OH262278   0.953   4.184   2.687
13596TIP3    H162279   0.929   4.138   2.768
13596TIP3    H262280   1.047   4.171   2.679
13597TIP3   OH262281   5.271   0.100   2.537
13597TIP3    H162282   5.331   0.172   2.518
13597TIP3    H262283   5.300   0.028   2.481
13598TIP3   OH262284   6.605   5.967   5.824
13598TIP3    H162285   6.627   5.963   5.730
13598TIP3    H262286   6.679   6.013   5.864
13599TIP3   OH262287   5.716   5.919  15.444
13599TIP3    H162288   5.713   5.830  15.481
13599TIP3    H262289   5.676   5.974  15.512
13600TIP3   OH262290   5.216   0.477   3.255
13600TIP3    H162291   5.188   0.569   3.257
13600TIP3    H262292   5.282   0.474   3.185
13601TIP3   OH262293   4.229   3.813  15.223
13601TIP3    H162294   4.179   3.872  15.280
13601TIP3    H262295   4.167   3.786  15.156
13602TIP3   OH262296   0.286   1.444   0.115
13602TIP3    H162297   0.201   1.432   0.071
13602TIP3    H262298   0.333   1.506   0.060
13603TIP3   OH262299   6.466   2.793  11.105
13603TIP3    H162300   6.536   2.781  11.168
13603TIP3    H262301   6.423   2.875  11.131
13604TIP3   OH262302   2.267   1.619  15.008
13604TIP3    H162303   2.173   1.627  14.990
13604TIP3    H262304   2.277   1.656  15.095
13605TIP3   OH262305   1.222   2.451  12.917
13605TIP3    H162306   1.131   2.451  12.886
13605TIP3    H262307   1.269   2.398  12.852
13606TIP3   OH262308   4.062   0.753  16.978
13606TIP3    H162309   4.049   0.847  16.979
13606TIP3    H262310   4.098   0.733  17.065
13607TIP3   OH262311   4.227   3.289   0.867
13607TIP3    H162312   4.141   3.277   0.907
13607TIP3    H262313   4.275   3.209   0.887
13608TIP3   OH262314   2.625   3.211   1.022
13608TIP3    H162315   2.557   3.181   0.960
13608TIP3    H262316   2.599   3.300   1.044
13609TIP3   OH262317   5.648   1.546  16.998
13609TIP3    H162318   5.670   1.486  16.927
13609TIP3    H262319   5.711   1.526  17.067
13610TIP3   OH262320   0.695   1.102  16.444
13610TIP3    H162321   0.697   1.055  16.527
13610TIP3    H262322   0.745   1.182  16.461
13611TIP3   OH262323   2.982   2.293   0.009
13611TIP3    H162324   3.006   2.365  -0.049
13611TIP3    H262325   2.992   2.214  -0.045
13612TIP3   OH262326   3.950   0.719  13.215
13612TIP3    H162327   3.928   0.664  13.140
13612TIP3    H262328   4.016   0.779  13.183
13613TIP3   OH262329   0.885   6.781  16.583
13613TIP3    H162330   0.858   6.853  16.639
13613TIP3    H262331   0.804   6.736  16.559
13614TIP3   OH262332   5.135   2.159   5.607
13614TIP3    H162333   5.183   2.234   5.571
13614TIP3    H262334   5.197   2.119   5.668
13615TIP3   OH262335   4.585   1.495  16.159
13615TIP3    H162336   4.625   1.538  16.235
13615TIP3    H262337   4.513   1.444  16.196
13616TIP3   OH262338   1.833   6.666   3.923
13616TIP3    H162339   1.816   6.577   3.891
13616TIP3    H262340   1.884   6.707   3.852
13617TIP3   OH262341   5.332   1.986  16.536
13617TIP3    H162342   5.282   1.914  16.498
13617TIP3    H262343   5.418   1.949  16.555
13618TIP3   OH262344   2.024   2.498  12.237
13618TIP3    H162345   2.076   2.421  12.215
13618TIP3    H262346   2.087   2.570  12.241
13619TIP3   OH262347   2.200   6.818   5.962
13619TIP3    H162348   2.122   6.860   5.998
13619TIP3    H262349   2.204   6.848   5.871
13620TIP3   OH262350   5.864   3.326  12.850
13620TIP3    H162351   5.843   3.285  12.934
13620TIP3    H262352   5.780   3.330  12.803
13621TIP3   OH262353   3.182   1.610  12.364
13621TIP3    H162354   3.267   1.628  12.324
13621TIP3    H262355   3.144   1.541  12.310
13622TIP3   OH262356   6.635   0.621  12.560
13622TIP3    H162357   6.624   0.641  12.653
13622TIP3    H262358   6.546   0.623  12.525
13623TIP3   OH262359   6.563   2.939  10.478
13623TIP3    H162360   6.484   2.990  10.497
13623TIP3    H262361   6.592   2.907  10.563
13624TIP3   OH262362   6.139   4.069  11.930
13624TIP3    H162363   6.160   4.008  11.859
13624TIP3    H262364   6.194   4.040  12.003
13625TIP3   OH262365   5.569   2.257   2.046
13625TIP3    H162366   5.592   2.225   1.959
13625TIP3    H262367   5.530   2.182   2.090
13626TIP3   OH262368   4.784   1.555   4.191
13626TIP3    H162369   4.766   1.526   4.281
13626TIP3    H262370   4.860   1.503   4.165
13627TIP3   OH262371   3.044   6.302   3.637
13627TIP3    H162372   3.075   6.263   3.718
13627TIP3    H262373   3.108   6.274   3.571
13628TIP3   OH262374   5.474   4.326   3.869
13628TIP3    H162375   5.400   4.387   3.873
13628TIP3    H262376   5.551   4.382   3.860
13629TIP3   OH262377   0.304   5.352  16.704
13629TIP3    H162378   0.339   5.278  16.755
13629TIP3    H262379   0.274   5.414  16.770
13630TIP3   OH262380   4.096   2.726  10.883
13630TIP3    H162381   4.026   2.744  10.945
13630TIP3    H262382   4.065   2.651  10.831
13631TIP3   OH262383   0.605   2.283   0.528
13631TIP3    H162384   0.600   2.247   0.439
13631TIP3    H262385   0.666   2.356   0.521
13632TIP3   OH262386   3.289   1.672   2.031
13632TIP3    H162387   3.274   1.762   2.060
13632TIP3    H262388   3.291   1.677   1.936
13633TIP3   OH262389   1.646   5.694  12.620
13633TIP3    H162390   1.644   5.598  12.611
13633TIP3    H262391   1.638   5.709  12.714
13634TIP3   OH262392   4.023   0.403  12.379
13634TIP3    H162393   4.002   0.391  12.472
13634TIP3    H262394   4.063   0.320  12.353
13635TIP3   OH262395   3.937   0.481   4.408
13635TIP3    H162396   3.859   0.535   4.398
13635TIP3    H262397   4.008   0.535   4.373
13636TIP3   OH262398   6.030   3.727  14.568
13636TIP3    H162399   6.036   3.705  14.475
13636TIP3    H262400   6.083   3.661  14.612
13637TIP3   OH262401   3.124   0.784   1.744
13637TIP3    H162402   3.184   0.758   1.674
13637TIP3    H262403   3.147   0.728   1.818
13638TIP3   OH262404   1.330   3.093   2.433
13638TIP3    H162405   1.290   3.077   2.347
13638TIP3    H262406   1.295   3.178   2.460
13639TIP3   OH262407   2.347   3.840  14.216
13639TIP3    H162408   2.339   3.884  14.301
13639TIP3    H262409   2.281   3.883  14.161
13640TIP3   OH262410   3.937   0.234   3.235
13640TIP3    H162411   3.985   0.312   3.205
13640TIP3    H262412   3.852   0.240   3.191
13641TIP3   OH262413   3.353   2.685   6.103
13641TIP3    H162414   3.413   2.613   6.083
13641TIP3    H262415   3.402   2.764   6.081
13642TIP3   OH262416   0.866   1.809  16.273
13642TIP3    H162417   0.859   1.783  16.365
13642TIP3    H262418   0.896   1.731  16.228
13643TIP3   OH262419   1.549   3.010  14.453
13643TIP3    H162420   1.510   2.934  14.496
13643TIP3    H262421   1.644   2.998  14.464
13644TIP3   OH262422   4.260   2.739  15.934
13644TIP3    H162423   4.226   2.683  16.004
13644TIP3    H262424   4.187   2.797  15.912
13645TIP3   OH262425   6.379   4.644   2.124
13645TIP3    H162426   6.289   4.656   2.095
13645TIP3    H262427   6.380   4.679   2.213
13646TIP3   OH262428   5.634   3.880   3.378
13646TIP3    H162429   5.649   3.914   3.290
13646TIP3    H262430   5.591   3.795   3.363
13647TIP3   OH262431   4.673   0.315  11.733
13647TIP3    H162432   4.718   0.281  11.810
13647TIP3    H262433   4.743   0.343  11.674
13648TIP3   OH262434   3.376   2.503  10.660
13648TIP3    H162435   3.388   2.409  10.648
13648TIP3    H262436   3.403   2.541  10.576
13649TIP3   OH262437   4.865   5.381   0.179
13649TIP3    H162438   4.873   5.469   0.217
13649TIP3    H262439   4.772   5.359   0.188
13650TIP3   OH262440   1.329   1.594  11.103
13650TIP3    H162441   1.363   1.549  11.026
13650TIP3    H262442   1.375   1.553  11.177
13651TIP3   OH262443   4.095   2.090  11.890
13651TIP3    H162444   4.032   2.030  11.931
13651TIP3    H262445   4.097   2.165  11.949
13652TIP3   OH262446   1.215   0.297   5.800
13652TIP3    H162447   1.261   0.279   5.883
13652TIP3    H262448   1.286   0.309   5.737
13653TIP3   OH262449   4.638   6.808   4.406
13653TIP3    H162450   4.564   6.850   4.363
13653TIP3    H262451   4.687   6.880   4.446
13654TIP3   OH262452   4.893   1.487   2.170
13654TIP3    H162453   4.824   1.514   2.230
13654TIP3    H262454   4.950   1.431   2.222
13655TIP3   OH262455   5.348   1.924   1.459
13655TIP3    H162456   5.433   1.968   1.456
13655TIP3    H262457   5.360   1.853   1.523
13656TIP3   OH262458   0.693   4.468   0.118
13656TIP3    H162459   0.777   4.461   0.074
13656TIP3    H262460   0.668   4.560   0.109
13657TIP3   OH262461   6.485   1.327   2.639
13657TIP3    H162462   6.534   1.328   2.557
13657TIP3    H262463   6.543   1.370   2.702
13658TIP3   OH262464   1.178   6.227   2.191
13658TIP3    H162465   1.116   6.299   2.194
13658TIP3    H262466   1.254   6.258   2.240
13659TIP3   OH262467   2.207   6.401   5.453
13659TIP3    H162468   2.125   6.380   5.409
13659TIP3    H262469   2.241   6.477   5.405
13660TIP3   OH262470   2.085   1.230  11.516
13660TIP3    H162471   2.162   1.188  11.478
13660TIP3    H262472   2.016   1.217  11.451
13661TIP3   OH262473   3.050   4.553  13.042
13661TIP3    H162474   2.985   4.515  13.101
13661TIP3    H262475   3.079   4.632  13.087
13662TIP3   OH262476   5.770   4.725  14.610
13662TIP3    H162477   5.765   4.800  14.550
13662TIP3    H262478   5.702   4.665  14.579
13663TIP3   OH262479   5.640   0.428   3.491
13663TIP3    H162480   5.717   0.433   3.548
13663TIP3    H262481   5.587   0.357   3.528
13664TIP3   OH262482   5.388   6.258  16.072
13664TIP3    H162483   5.386   6.300  15.986
13664TIP3    H262484   5.467   6.203  16.070
13665TIP3   OH262485   6.619   4.242  10.745
13665TIP3    H162486   6.545   4.301  10.735
13665TIP3    H262487   6.596   4.186  10.819
13666TIP3   OH262488   5.844   6.252   5.610
13666TIP3    H162489   5.835   6.167   5.566
13666TIP3    H262490   5.759   6.266   5.652
13667TIP3   OH262491   5.228   4.417   4.043
13667TIP3    H162492   5.163   4.401   4.111
13667TIP3    H262493   5.289   4.480   4.081
13668TIP3   OH262494   5.818   6.244  13.278
13668TIP3    H162495   5.910   6.217  13.269
13668TIP3    H262496   5.774   6.168  13.316
13669TIP3   OH262497   5.769   4.287   1.388
13669TIP3    H162498   5.696   4.230   1.414
13669TIP3    H262499   5.734   4.338   1.315
13670TIP3   OH262500   5.633   5.951   4.957
13670TIP3    H162501   5.708   5.957   5.015
13670TIP3    H262502   5.659   6.000   4.879
13671TIP3   OH262503   1.544   0.909   5.861
13671TIP3    H162504   1.514   0.984   5.809
13671TIP3    H262505   1.478   0.900   5.930
13672TIP3   OH262506   4.409   0.561  16.037
13672TIP3    H162507   4.496   0.536  16.067
13672TIP3    H262508   4.351   0.493  16.071
13673TIP3   OH262509   4.660   4.928  14.136
13673TIP3    H162510   4.737   4.965  14.093
13673TIP3    H262511   4.692   4.851  14.181
13674TIP3   OH262512   1.924   0.469  11.175
13674TIP3    H162513   1.951   0.396  11.120
13674TIP3    H262514   1.963   0.450  11.261
13675TIP3   OH262515   0.454   5.106  12.600
13675TIP3    H162516   0.505   5.187  12.598
13675TIP3    H262517   0.472   5.068  12.686
13676TIP3   OH262518   0.817   6.065  16.927
13676TIP3    H162519   0.795   6.070  17.020
13676TIP3    H262520   0.881   5.994  16.922
13677TIP3   OH262521   5.566   1.584   3.814
13677TIP3    H162522   5.566   1.489   3.805
13677TIP3    H262523   5.545   1.616   3.726
13678TIP3   OH262524   2.770   4.886  11.491
13678TIP3    H162525   2.701   4.860  11.430
13678TIP3    H262526   2.730   4.956  11.544
13679TIP3   OH262527   6.045   5.065   1.399
13679TIP3    H162528   6.007   4.977   1.402
13679TIP3    H262529   6.133   5.054   1.435
13680TIP3   OH262530   5.206   5.647  15.686
13680TIP3    H162531   5.186   5.732  15.646
13680TIP3    H262532   5.129   5.593  15.668
13681TIP3   OH262533   0.336   1.790   1.479
13681TIP3    H162534   0.398   1.863   1.485
13681TIP3    H262535   0.351   1.739   1.558
13682TIP3   OH262536   3.100   5.391   4.936
13682TIP3    H162537   3.059   5.478   4.935
13682TIP3    H262538   3.053   5.342   5.003
13683TIP3   OH262539   2.467   0.768   2.075
13683TIP3    H162540   2.406   0.828   2.032
13683TIP3    H262541   2.550   0.782   2.028
13684TIP3   OH262542   2.111   1.097   4.585
13684TIP3    H162543   2.051   1.024   4.567
13684TIP3    H262544   2.191   1.056   4.616
13685TIP3   OH262545   2.445   4.486   5.823
13685TIP3    H162546   2.533   4.448   5.825
13685TIP3    H262547   2.460   4.578   5.802
13686TIP3   OH262548   6.083   1.272  10.973
13686TIP3    H162549   6.144   1.271  11.046
13686TIP3    H262550   6.058   1.364  10.964
13687TIP3   OH262551   2.612   5.795   1.349
13687TIP3    H162552   2.606   5.714   1.400
13687TIP3    H262553   2.621   5.864   1.415
13688TIP3   OH262554   0.719   0.866  11.356
13688TIP3    H162555   0.643   0.864  11.414
13688TIP3    H262556   0.759   0.780  11.365
13689TIP3   OH262557   4.672   2.082  13.101
13689TIP3    H162558   4.581   2.080  13.131
13689TIP3    H262559   4.687   1.994  13.066
13690TIP3   OH262560   6.704   0.499  16.368
13690TIP3    H162561   6.787   0.460  16.341
13690TIP3    H262562   6.668   0.436  16.431
13691TIP3   OH262563   5.809   6.282   0.216
13691TIP3    H162564   5.802   6.199   0.265
13691TIP3    H262565   5.811   6.349   0.284
13692TIP3   OH262566   4.034   0.910   0.823
13692TIP3    H162567   4.126   0.916   0.796
13692TIP3    H262568   3.993   0.858   0.754
13693TIP3   OH262569   3.646   4.208  13.197
13693TIP3    H162570   3.663   4.177  13.285
13693TIP3    H262571   3.647   4.304  13.204
13694TIP3   OH262572   2.270   4.707   5.287
13694TIP3    H162573   2.337   4.648   5.253
13694TIP3    H262574   2.203   4.709   5.219
13695TIP3   OH262575   5.369   5.519  10.794
13695TIP3    H162576   5.284   5.542  10.758
13695TIP3    H262577   5.416   5.602  10.801
13696TIP3   OH262578   6.444   5.075   5.911
13696TIP3    H162579   6.495   5.058   5.990
13696TIP3    H262580   6.399   5.158   5.929
13697TIP3   OH262581   6.748   5.054   2.463
13697TIP3    H162582   6.785   4.966   2.458
13697TIP3    H262583   6.654   5.039   2.474
13698TIP3   OH262584   5.981   6.254   1.572
13698TIP3    H162585   5.979   6.163   1.542
13698TIP3    H262586   6.008   6.304   1.495
13699TIP3   OH262587   5.921   6.105   4.856
13699TIP3    H162588   5.940   6.179   4.913
13699TIP3    H262589   5.851   6.135   4.798
13700TIP3   OH262590   1.687   2.207  13.642
13700TIP3    H162591   1.736   2.258  13.579
13700TIP3    H262592   1.750   2.188  13.712
13701TIP3   OH262593   4.325   1.517  15.656
13701TIP3    H162594   4.285   1.559  15.732
13701TIP3    H262595   4.342   1.427  15.685
13702TIP3   OH262596   5.944   3.336   4.526
13702TIP3    H162597   5.949   3.432   4.528
13702TIP3    H262598   6.035   3.307   4.528
13703TIP3   OH262599   2.610   3.009   0.491
13703TIP3    H162600   2.668   2.950   0.443
13703TIP3    H262601   2.657   3.092   0.494
13704TIP3   OH262602   4.745   4.768  12.503
13704TIP3    H162603   4.730   4.827  12.577
13704TIP3    H262604   4.729   4.822  12.426
13705TIP3   OH262605   5.651   1.413   0.634
13705TIP3    H162606   5.699   1.419   0.551
13705TIP3    H262607   5.676   1.327   0.669
13706TIP3   OH262608   0.228   6.271   4.205
13706TIP3    H162609   0.272   6.332   4.266
13706TIP3    H262610   0.159   6.231   4.258
13707TIP3   OH262611   5.622   5.577  13.739
13707TIP3    H162612   5.570   5.656  13.755
13707TIP3    H262613   5.585   5.539  13.660
13708TIP3   OH262614   2.565   6.351   4.764
13708TIP3    H162615   2.567   6.407   4.841
13708TIP3    H262616   2.504   6.281   4.787
13709TIP3   OH262617   0.548   3.813  10.761
13709TIP3    H162618   0.573   3.722  10.744
13709TIP3    H262619   0.518   3.846  10.677
13710TIP3   OH262620   2.414   1.771  12.766
13710TIP3    H162621   2.507   1.752  12.749
13710TIP3    H262622   2.404   1.863  12.740
13711TIP3   OH262623   1.121   6.050  12.129
13711TIP3    H162624   1.166   5.974  12.167
13711TIP3    H262625   1.033   6.018  12.110
13712TIP3   OH262626   4.349   2.654   2.264
13712TIP3    H162627   4.321   2.633   2.353
13712TIP3    H262628   4.342   2.750   2.260
13713TIP3   OH262629   6.000   5.748   0.205
13713TIP3    H162630   6.018   5.703   0.288
13713TIP3    H262631   6.044   5.695   0.139
13714TIP3   OH262632   4.304   3.430   1.504
13714TIP3    H162633   4.296   3.378   1.424
13714TIP3    H262634   4.344   3.512   1.476
13715TIP3   OH262635   4.817   4.525  14.501
13715TIP3    H162636   4.763   4.532  14.580
13715TIP3    H262637   4.900   4.566  14.525
13716TIP3   OH262638   6.188   6.335   2.905
13716TIP3    H162639   6.140   6.353   2.987
13716TIP3    H262640   6.157   6.249   2.878
13717TIP3   OH262641   2.748   5.012  13.503
13717TIP3    H162642   2.746   4.984  13.594
13717TIP3    H262643   2.836   5.047  13.490
13718TIP3   OH262644   0.121   5.576   1.859
13718TIP3    H162645   0.124   5.598   1.766
13718TIP3    H262646   0.175   5.497   1.867
13719TIP3   OH262647   3.579   3.138   5.036
13719TIP3    H162648   3.640   3.078   4.994
13719TIP3    H262649   3.619   3.157   5.121
13720TIP3   OH262650   3.666   1.615   0.879
13720TIP3    H162651   3.574   1.599   0.901
13720TIP3    H262652   3.711   1.619   0.964
13721TIP3   OH262653   0.613   0.713  13.895
13721TIP3    H162654   0.548   0.697  13.963
13721TIP3    H262655   0.683   0.760  13.940
13722TIP3   OH262656   5.071   6.372   1.048
13722TIP3    H162657   5.023   6.449   1.016
13722TIP3    H262658   5.144   6.409   1.098
13723TIP3   OH262659   6.169   5.933  14.042
13723TIP3    H162660   6.225   5.987  13.986
13723TIP3    H262661   6.171   5.847  14.002
13724TIP3   OH262662   6.424   4.975  14.604
13724TIP3    H162663   6.466   4.898  14.643
13724TIP3    H262664   6.347   4.991  14.659
13725TIP3   OH262665   1.642   3.590   4.797
13725TIP3    H162666   1.596   3.545   4.727
13725TIP3    H262667   1.580   3.590   4.870
13726TIP3   OH262668   1.971   4.101   1.250
13726TIP3    H162669   1.975   4.045   1.327
13726TIP3    H262670   1.902   4.062   1.196
13727TIP3   OH262671   4.929   3.324  16.336
13727TIP3    H162672   4.977   3.317  16.253
13727TIP3    H262673   4.841   3.349  16.310
13728TIP3   OH262674   3.121   3.791  13.948
13728TIP3    H162675   3.206   3.754  13.973
13728TIP3    H262676   3.093   3.839  14.025
13729TIP3   OH262677   5.639   0.620   0.443
13729TIP3    H162678   5.708   0.682   0.465
13729TIP3    H262679   5.620   0.637   0.351
13730TIP3   OH262680   2.875   1.344  16.144
13730TIP3    H162681   2.881   1.439  16.131
13730TIP3    H262682   2.800   1.317  16.092
13731TIP3   OH262683   3.909   1.468   4.305
13731TIP3    H162684   3.839   1.448   4.367
13731TIP3    H262685   3.902   1.563   4.291
13732TIP3   OH262686   5.483   1.140   0.335
13732TIP3    H162687   5.477   1.234   0.317
13732TIP3    H262688   5.438   1.128   0.418
13733TIP3   OH262689   5.691   2.080   3.102
13733TIP3    H162690   5.781   2.104   3.127
13733TIP3    H262691   5.637   2.114   3.173
13734TIP3   OH262692   1.164   0.622  11.388
13734TIP3    H162693   1.252   0.634  11.422
13734TIP3    H262694   1.110   0.681  11.441
13735TIP3   OH262695   1.452   4.866  13.618
13735TIP3    H162696   1.455   4.771  13.625
13735TIP3    H262697   1.543   4.891  13.602
13736TIP3   OH262698   6.098   3.917  11.003
13736TIP3    H162699   6.104   3.824  11.024
13736TIP3    H262700   6.073   3.958  11.086
13737TIP3   OH262701   6.241   1.169   0.755
13737TIP3    H162702   6.157   1.142   0.792
13737TIP3    H262703   6.307   1.124   0.809
13738TIP3   OH262704   6.602   0.139   5.611
13738TIP3    H162705   6.563   0.205   5.554
13738TIP3    H262706   6.624   0.067   5.551
13739TIP3   OH262707   5.793   5.857  12.358
13739TIP3    H162708   5.722   5.850  12.422
13739TIP3    H262709   5.857   5.791  12.385
13740TIP3   OH262710   6.634   2.528   2.029
13740TIP3    H162711   6.720   2.568   2.035
13740TIP3    H262712   6.600   2.557   1.944
13741TIP3   OH262713   2.184   5.538  15.936
13741TIP3    H162714   2.246   5.506  15.870
13741TIP3    H262715   2.103   5.552  15.888
13742TIP3   OH262716   5.816   0.605  16.322
13742TIP3    H162717   5.749   0.610  16.391
13742TIP3    H262718   5.887   0.660  16.354
13743TIP3   OH262719   3.439   4.848   1.037
13743TIP3    H162720   3.377   4.835   1.108
13743TIP3    H262721   3.444   4.943   1.026
13744TIP3   OH262722   0.880   4.410   5.216
13744TIP3    H162723   0.827   4.439   5.142
13744TIP3    H262724   0.921   4.329   5.186
13745TIP3   OH262725   5.183   2.092   4.091
13745TIP3    H162726   5.254   2.127   4.036
13745TIP3    H262727   5.201   1.998   4.096
13746TIP3   OH262728   1.669   2.178  12.675
13746TIP3    H162729   1.695   2.091  12.705
13746TIP3    H262730   1.660   2.229  12.756
13747TIP3   OH262731   0.455   5.134  13.512
13747TIP3    H162732   0.485   5.199  13.576
13747TIP3    H262733   0.472   5.050  13.554
13748TIP3   OH262734   6.542   4.603   3.081
13748TIP3    H162735   6.616   4.587   3.023
13748TIP3    H262736   6.564   4.685   3.126
13749TIP3   OH262737   0.993   3.786   1.303
13749TIP3    H162738   0.921   3.832   1.260
13749TIP3    H262739   0.971   3.694   1.294
13750TIP3   OH262740   4.116   0.118  15.260
13750TIP3    H162741   4.150   0.163  15.183
13750TIP3    H262742   4.101   0.188  15.324
13751TIP3   OH262743   6.042   5.665  12.300
13751TIP3    H162744   6.067   5.696  12.387
13751TIP3    H262745   6.123   5.627  12.264
13752TIP3   OH262746   1.215   2.829   1.085
13752TIP3    H162747   1.197   2.922   1.077
13752TIP3    H262748   1.231   2.815   1.179
13753TIP3   OH262749   6.417   3.732   5.657
13753TIP3    H162750   6.394   3.689   5.575
13753TIP3    H262751   6.507   3.705   5.674
13754TIP3   OH262752   1.807   4.446   6.290
13754TIP3    H162753   1.814   4.518   6.228
13754TIP3    H262754   1.887   4.395   6.277
13755TIP3   OH262755   1.742   6.696  12.778
13755TIP3    H162756   1.747   6.667  12.687
13755TIP3    H262757   1.709   6.786  12.772
13756TIP3   OH262758   0.068   1.787   2.813
13756TIP3    H162759   0.009   1.843   2.762
13756TIP3    H262760   0.128   1.751   2.748
13757TIP3   OH262761   5.987   0.468   2.021
13757TIP3    H162762   6.082   0.476   2.016
13757TIP3    H262763   5.966   0.493   2.111
13758TIP3   OH262764   3.650   6.145  11.874
13758TIP3    H162765   3.632   6.194  11.954
13758TIP3    H262766   3.586   6.074  11.875
13759TIP3   OH262767   2.794   3.385  12.463
13759TIP3    H162768   2.769   3.472  12.492
13759TIP3    H262769   2.718   3.353  12.414
13760TIP3   OH262770   0.443   5.119  12.101
13760TIP3    H162771   0.500   5.153  12.032
13760TIP3    H262772   0.456   5.024  12.098
13761TIP3   OH262773   6.591   4.024  13.151
13761TIP3    H162774   6.553   4.042  13.065
13761TIP3    H262775   6.656   3.956  13.135
13762TIP3   OH262776   4.456   1.094   4.854
13762TIP3    H162777   4.477   1.184   4.830
13762TIP3    H262778   4.376   1.074   4.805
13763TIP3   OH262779   0.258   5.922  12.654
13763TIP3    H162780   0.212   5.930  12.738
13763TIP3    H262781   0.335   5.869  12.674
13764TIP3   OH262782   5.006   4.641  12.337
13764TIP3    H162783   4.935   4.579  12.353
13764TIP3    H262784   4.976   4.724  12.374
13765TIP3   OH262785   5.565   2.497  11.466
13765TIP3    H162786   5.536   2.552  11.393
13765TIP3    H262787   5.497   2.508  11.533
13766TIP3   OH262788   5.708   1.169  15.671
13766TIP3    H162789   5.745   1.223  15.741
13766TIP3    H262790   5.716   1.222  15.592
13767TIP3   OH262791   6.659   1.726   1.024
13767TIP3    H162792   6.567   1.713   1.048
13767TIP3    H262793   6.691   1.792   1.085
13768TIP3   OH262794   5.515   6.756   4.071
13768TIP3    H162795   5.589   6.767   4.012
13768TIP3    H262796   5.488   6.665   4.059
13769TIP3   OH262797   2.962   6.022  15.081
13769TIP3    H162798   2.974   6.115  15.099
13769TIP3    H262799   2.869   6.013  15.061
13770TIP3   OH262800   2.763   4.620   4.369
13770TIP3    H162801   2.699   4.691   4.371
13770TIP3    H262802   2.745   4.570   4.448
13771TIP3   OH262803   4.381   5.045   1.559
13771TIP3    H162804   4.286   5.033   1.560
13771TIP3    H262805   4.414   4.979   1.620
13772TIP3   OH262806   1.396   6.714   5.836
13772TIP3    H162807   1.359   6.730   5.750
13772TIP3    H262808   1.481   6.759   5.836
13773TIP3   OH262809   2.727   1.296   3.637
13773TIP3    H162810   2.760   1.292   3.727
13773TIP3    H262811   2.664   1.368   3.639
13774TIP3   OH262812   4.515   4.643  10.868
13774TIP3    H162813   4.486   4.732  10.887
13774TIP3    H262814   4.601   4.653  10.828
13775TIP3   OH262815   4.377   3.438   6.318
13775TIP3    H162816   4.390   3.531   6.296
13775TIP3    H262817   4.430   3.424   6.396
13776TIP3   OH262818   1.296   1.593   1.541
13776TIP3    H162819   1.201   1.586   1.529
13776TIP3    H262820   1.327   1.503   1.546
13777TIP3   OH262821   1.183   4.290  10.882
13777TIP3    H162822   1.224   4.232  10.817
13777TIP3    H262823   1.136   4.231  10.941
13778TIP3   OH262824   3.585   1.650   0.510
13778TIP3    H162825   3.656   1.601   0.551
13778TIP3    H262826   3.588   1.625   0.418
13779TIP3   OH262827   4.537   2.952  16.803
13779TIP3    H162828   4.621   2.907  16.801
13779TIP3    H262829   4.475   2.887  16.770
13780TIP3   OH262830   0.625   1.001  12.772
13780TIP3    H162831   0.688   1.062  12.809
13780TIP3    H262832   0.672   0.918  12.765
13781TIP3   OH262833   6.789   1.947  16.619
13781TIP3    H162834   6.814   2.032  16.583
13781TIP3    H262835   6.776   1.963  16.712
13782TIP3   OH262836   3.275   3.758   2.059
13782TIP3    H162837   3.309   3.701   2.128
13782TIP3    H262838   3.270   3.703   1.982
13783TIP3   OH262839   0.089   1.465  16.064
13783TIP3    H162840   0.045   1.390  16.025
13783TIP3    H262841   0.173   1.431  16.095
13784TIP3   OH262842   4.766   0.882   2.612
13784TIP3    H162843   4.815   0.942   2.556
13784TIP3    H262844   4.686   0.930   2.633
13785TIP3   OH262845   1.684   3.008  11.871
13785TIP3    H162846   1.617   3.005  11.803
13785TIP3    H262847   1.649   3.067  11.937
13786TIP3   OH262848   6.107   4.601   4.314
13786TIP3    H162849   6.164   4.636   4.383
13786TIP3    H262850   6.143   4.515   4.294
13787TIP3   OH262851   6.741   1.526   3.407
13787TIP3    H162852   6.711   1.449   3.359
13787TIP3    H262853   6.710   1.601   3.355
13788TIP3   OH262854   3.888   5.045  14.583
13788TIP3    H162855   3.795   5.023  14.589
13788TIP3    H262856   3.912   5.022  14.493
13789TIP3   OH262857   0.568   2.625   0.378
13789TIP3    H162858   0.624   2.561   0.421
13789TIP3    H262859   0.624   2.666   0.313
13790TIP3   OH262860   3.573   3.852  14.212
13790TIP3    H162861   3.604   3.868  14.302
13790TIP3    H262862   3.645   3.882  14.157
13791TIP3   OH262863   1.500   0.335   1.502
13791TIP3    H162864   1.428   0.274   1.485
13791TIP3    H262865   1.540   0.349   1.416
13792TIP3   OH262866   1.502   6.206   0.746
13792TIP3    H162867   1.493   6.134   0.684
13792TIP3    H262868   1.439   6.271   0.716
13793TIP3   OH262869   1.172   5.664   3.226
13793TIP3    H162870   1.110   5.680   3.155
13793TIP3    H262871   1.119   5.627   3.297
13794TIP3   OH262872   5.529   0.283  12.195
13794TIP3    H162873   5.599   0.223  12.219
13794TIP3    H262874   5.548   0.306  12.104
13795TIP3   OH262875   0.008   1.180  13.242
13795TIP3    H162876  -0.032   1.167  13.156
13795TIP3    H262877   0.048   1.267  13.238
13796TIP3   OH262878   6.807   1.709   4.004
13796TIP3    H162879   6.859   1.656   4.065
13796TIP3    H262880   6.836   1.799   4.019
13797TIP3   OH262881   0.971   6.541  17.073
13797TIP3    H162882   0.977   6.585  16.989
13797TIP3    H262883   0.943   6.452  17.052
13798TIP3   OH262884   5.756   4.229  14.980
13798TIP3    H162885   5.781   4.252  14.890
13798TIP3    H262886   5.664   4.204  14.972
13799TIP3   OH262887   3.906   2.018   5.216
13799TIP3    H162888   3.904   1.925   5.239
13799TIP3    H262889   3.993   2.032   5.181
13800TIP3   OH262890   4.158   4.566   4.519
13800TIP3    H162891   4.209   4.553   4.439
13800TIP3    H262892   4.107   4.485   4.529
13801TIP3   OH262893   3.966   0.095   2.895
13801TIP3    H162894   3.907   0.038   2.945
13801TIP3    H262895   3.939   0.184   2.918
13802TIP3   OH262896   3.711   6.263  14.554
13802TIP3    H162897   3.712   6.357  14.572
13802TIP3    H262898   3.620   6.244  14.531
13803TIP3   OH262899   0.820   2.371   3.817
13803TIP3    H162900   0.751   2.437   3.821
13803TIP3    H262901   0.885   2.401   3.881
13804TIP3   OH262902   4.739   3.464   3.751
13804TIP3    H162903   4.710   3.527   3.686
13804TIP3    H262904   4.754   3.383   3.702
13805TIP3   OH262905   4.079   6.186   1.640
13805TIP3    H162906   4.136   6.143   1.577
13805TIP3    H262907   4.138   6.222   1.706
13806TIP3   OH262908   3.563   6.002   2.441
13806TIP3    H162909   3.607   6.080   2.407
13806TIP3    H262910   3.509   6.034   2.513
13807TIP3   OH262911   2.585   5.604   2.636
13807TIP3    H162912   2.515   5.567   2.690
13807TIP3    H262913   2.576   5.699   2.647
13808TIP3   OH262914   5.003   5.227   1.880
13808TIP3    H162915   4.983   5.292   1.812
13808TIP3    H262916   4.973   5.144   1.844
13809TIP3   OH262917   6.358   2.147   4.613
13809TIP3    H162918   6.392   2.194   4.690
13809TIP3    H262919   6.263   2.155   4.621
13810TIP3   OH262920   6.469   4.290  12.702
13810TIP3    H162921   6.513   4.256  12.780
13810TIP3    H262922   6.534   4.347  12.661
13811TIP3   OH262923   3.106   5.642  10.296
13811TIP3    H162924   3.080   5.734  10.292
13811TIP3    H262925   3.023   5.594  10.303
13812TIP3   OH262926   1.732   0.034   0.115
13812TIP3    H162927   1.736  -0.002   0.026
13812TIP3    H262928   1.654  -0.005   0.153
13813TIP3   OH262929   0.510   1.790   2.767
13813TIP3    H162930   0.549   1.859   2.712
13813TIP3    H262931   0.500   1.831   2.853
13814TIP3   OH262932   5.757   3.231  13.090
13814TIP3    H162933   5.730   3.139  13.088
13814TIP3    H262934   5.680   3.280  13.063
13815TIP3   OH262935   2.105   3.562   3.845
13815TIP3    H162936   2.050   3.486   3.825
13815TIP3    H262937   2.157   3.575   3.765
13816TIP3   OH262938   6.052   6.195   0.394
13816TIP3    H162939   6.034   6.130   0.327
13816TIP3    H262940   6.078   6.145   0.471
13817TIP3   OH262941   0.024   1.822  16.258
13817TIP3    H162942   0.084   1.759  16.218
13817TIP3    H262943  -0.063   1.793  16.232
13818TIP3   OH262944   2.798   4.117  15.190
13818TIP3    H162945   2.873   4.064  15.163
13818TIP3    H262946   2.834   4.178  15.254
13819TIP3   OH262947   3.010   2.263  15.242
13819TIP3    H162948   3.066   2.282  15.167
13819TIP3    H262949   3.057   2.298  15.318
13820TIP3   OH262950   4.408   3.026  14.219
13820TIP3    H162951   4.407   3.014  14.124
13820TIP3    H262952   4.501   3.022  14.243
13821TIP3   OH262953   3.743   0.891  13.062
13821TIP3    H162954   3.650   0.914  13.058
13821TIP3    H262955   3.743   0.802  13.098
13822TIP3   OH262956   4.712   0.171   4.944
13822TIP3    H162957   4.682   0.245   4.998
13822TIP3    H262958   4.645   0.163   4.876
13823TIP3   OH262959   5.406   3.603  13.662
13823TIP3    H162960   5.475   3.542  13.637
13823TIP3    H262961   5.375   3.640  13.579
13824TIP3   OH262962   4.991   2.089   3.522
13824TIP3    H162963   4.906   2.061   3.486
13824TIP3    H262964   5.053   2.023   3.491
13825TIP3   OH262965   0.640   1.461  12.478
13825TIP3    H162966   0.647   1.427  12.567
13825TIP3    H262967   0.731   1.466  12.447
13826TIP3   OH262968   0.717   3.823  13.913
13826TIP3    H162969   0.771   3.899  13.892
13826TIP3    H262970   0.691   3.788  13.828
13827TIP3   OH262971   0.615   3.486  12.108
13827TIP3    H162972   0.551   3.500  12.177
13827TIP3    H262973   0.683   3.551  12.124
13828TIP3   OH262974   4.162   4.726  12.734
13828TIP3    H162975   4.237   4.777  12.702
13828TIP3    H262976   4.108   4.789  12.782
13829TIP3   OH262977   0.508   6.262   4.855
13829TIP3    H162978   0.517   6.291   4.945
13829TIP3    H262979   0.426   6.212   4.854
13830TIP3   OH262980   3.056   1.495  12.729
13830TIP3    H162981   3.119   1.491  12.656
13830TIP3    H262982   2.985   1.436  12.703
13831TIP3   OH262983   0.656   2.672  16.699
13831TIP3    H162984   0.699   2.755  16.677
13831TIP3    H262985   0.603   2.693  16.776
13832TIP3   OH262986   3.941   4.530  11.521
13832TIP3    H162987   3.928   4.621  11.497
13832TIP3    H262988   3.853   4.492  11.519
13833TIP3   OH262989   5.439   0.552  15.569
13833TIP3    H162990   5.509   0.589  15.516
13833TIP3    H262991   5.379   0.513  15.505
13834TIP3   OH262992   0.693   5.659  13.781
13834TIP3    H162993   0.722   5.622  13.698
13834TIP3    H262994   0.721   5.596  13.847
13835TIP3   OH262995   1.064   2.912   3.363
13835TIP3    H162996   1.088   2.838   3.306
13835TIP3    H262997   0.968   2.913   3.362
13836TIP3   OH262998   4.074   5.932  15.714
13836TIP3    H162999   4.010   5.962  15.650
13836TIP3    H263000   4.044   5.844  15.738
13837TIP3   OH263001   2.661   3.865  15.169
13837TIP3    H163002   2.736   3.806  15.174
13837TIP3    H263003   2.699   3.953  15.179
13838TIP3   OH263004   1.722   2.665   2.909
13838TIP3    H163005   1.805   2.664   2.863
13838TIP3    H263006   1.667   2.727   2.861
13839TIP3   OH263007   2.358   5.493  15.210
13839TIP3    H163008   2.364   5.588  15.209
13839TIP3    H263009   2.321   5.472  15.296
13840TIP3   OH263010   5.944   3.619   4.095
13840TIP3    H163011   5.992   3.564   4.033
13840TIP3    H263012   5.862   3.573   4.110
13841TIP3   OH263013   3.981   4.794  14.099
13841TIP3    H163014   4.073   4.800  14.075
13841TIP3    H263015   3.959   4.881  14.132
13842TIP3   OH263016   5.995   1.200   5.245
13842TIP3    H163017   6.015   1.176   5.335
13842TIP3    H263018   5.919   1.257   5.251
13843TIP3   OH263019   4.383   4.089  11.021
13843TIP3    H163020   4.412   4.014  11.072
13843TIP3    H263021   4.297   4.112  11.057
13844TIP3   OH263022   4.526   3.410   3.283
13844TIP3    H163023   4.502   3.388   3.194
13844TIP3    H263024   4.473   3.352   3.338
13845TIP3   OH263025   1.069   4.259  13.068
13845TIP3    H163026   0.986   4.248  13.021
13845TIP3    H263027   1.119   4.181  13.048
13846TIP3   OH263028   0.976   3.629  11.350
13846TIP3    H163029   0.883   3.631  11.374
13846TIP3    H263030   1.021   3.610  11.432
13847TIP3   OH263031   4.620   2.534  16.576
13847TIP3    H163032   4.699   2.489  16.606
13847TIP3    H263033   4.615   2.514  16.482
13848TIP3   OH263034   3.480   5.792  16.386
13848TIP3    H163035   3.534   5.736  16.331
13848TIP3    H263036   3.542   5.847  16.434
13849TIP3   OH263037   4.795   0.196   3.413
13849TIP3    H163038   4.837   0.132   3.356
13849TIP3    H263039   4.788   0.151   3.498
13850TIP3   OH263040   5.457   6.137  13.284
13850TIP3    H163041   5.384   6.076  13.293
13850TIP3    H263042   5.423   6.205  13.225
13851TIP3   OH263043   3.622   4.992  14.620
13851TIP3    H163044   3.647   4.942  14.697
13851TIP3    H263045   3.578   4.928  14.563
13852TIP3   OH263046   2.450   6.267  14.150
13852TIP3    H163047   2.469   6.175  14.135
13852TIP3    H263048   2.383   6.267  14.219
13853TIP3   OH263049   4.254   0.079  14.129
13853TIP3    H163050   4.231   0.150  14.069
13853TIP3    H263051   4.348   0.064  14.114
13854TIP3   OH263052   5.795   3.343   0.929
13854TIP3    H163053   5.813   3.272   0.867
13854TIP3    H263054   5.880   3.361   0.969
13855TIP3   OH263055   6.695   5.823  12.798
13855TIP3    H163056   6.624   5.842  12.858
13855TIP3    H263057   6.774   5.825  12.851
13856TIP3   OH263058   3.445   0.185  12.127
13856TIP3    H163059   3.458   0.143  12.212
13856TIP3    H263060   3.364   0.234  12.137
13857TIP3   OH263061   0.117   4.756  17.080
13857TIP3    H163062   0.190   4.738  17.020
13857TIP3    H263063   0.080   4.839  17.050
13858TIP3   OH263064   3.729   0.907   6.231
13858TIP3    H163065   3.639   0.886   6.208
13858TIP3    H263066   3.758   0.833   6.285
13859TIP3   OH263067   6.215   4.789  13.723
13859TIP3    H163068   6.250   4.701  13.710
13859TIP3    H263069   6.265   4.825  13.796
13860TIP3   OH263070   3.741   5.367   3.718
13860TIP3    H163071   3.692   5.352   3.638
13860TIP3    H263072   3.694   5.317   3.785
13861TIP3   OH263073   1.248   4.442   4.535
13861TIP3    H163074   1.213   4.453   4.624
13861TIP3    H263075   1.192   4.497   4.480
13862TIP3   OH263076   3.769   3.108   4.179
13862TIP3    H163077   3.810   3.191   4.153
13862TIP3    H263078   3.755   3.117   4.273
13863TIP3   OH263079   1.647   0.419  12.541
13863TIP3    H163080   1.655   0.491  12.603
13863TIP3    H263081   1.644   0.461  12.455
13864TIP3   OH263082   5.692   4.130   2.522
13864TIP3    H163083   5.755   4.097   2.457
13864TIP3    H263084   5.636   4.055   2.541
13865TIP3   OH263085   0.383   0.483  14.756
13865TIP3    H163086   0.368   0.577  14.750
13865TIP3    H263087   0.295   0.446  14.763
13866TIP3   OH263088   2.908   5.450  13.112
13866TIP3    H163089   2.924   5.533  13.156
13866TIP3    H263090   2.813   5.447  13.100
13867TIP3   OH263091   1.734   4.811   0.868
13867TIP3    H163092   1.776   4.750   0.929
13867TIP3    H263093   1.801   4.830   0.802
13868TIP3   OH263094   2.067   3.071   5.835
13868TIP3    H163095   2.134   3.061   5.902
13868TIP3    H263096   2.046   3.165   5.835
13869TIP3   OH263097   5.626   5.786   4.465
13869TIP3    H163098   5.555   5.774   4.529
13869TIP3    H263099   5.628   5.881   4.449
13870TIP3   OH263100   3.127   4.457   5.007
13870TIP3    H163101   3.205   4.465   4.953
13870TIP3    H263102   3.108   4.363   5.009
13871TIP3   OH263103   4.355   4.769  14.196
13871TIP3    H163104   4.353   4.846  14.254
13871TIP3    H263105   4.446   4.740  14.197
13872TIP3   OH263106   4.269   1.624  14.373
13872TIP3    H163107   4.333   1.558  14.345
13872TIP3    H263108   4.223   1.582  14.446
13873TIP3   OH263109   4.685   4.560  16.500
13873TIP3    H163110   4.682   4.589  16.409
13873TIP3    H263111   4.774   4.582  16.529
13874TIP3   OH263112   5.161   1.583  15.841
13874TIP3    H163113   5.069   1.594  15.867
13874TIP3    H263114   5.184   1.667  15.801
13875TIP3   OH263115   6.371   2.436   1.388
13875TIP3    H163116   6.341   2.508   1.333
13875TIP3    H263117   6.397   2.368   1.326
13876TIP3   OH263118   2.162   6.684  11.443
13876TIP3    H163119   2.190   6.761  11.393
13876TIP3    H263120   2.066   6.692  11.447
13877TIP3   OH263121   3.228   1.512   0.108
13877TIP3    H163122   3.166   1.573   0.068
13877TIP3    H263123   3.313   1.555   0.099
13878TIP3   OH263124   1.273   1.153  16.898
13878TIP3    H163125   1.363   1.124  16.883
13878TIP3    H263126   1.220   1.096  16.842
13879TIP3   OH263127   5.937   3.420  13.188
13879TIP3    H163128   5.901   3.419  13.277
13879TIP3    H263129   5.883   3.357  13.140
13880TIP3   OH263130   2.481   2.227   3.808
13880TIP3    H163131   2.509   2.245   3.898
13880TIP3    H263132   2.534   2.285   3.754
13881TIP3   OH263133   4.972   0.627  16.491
13881TIP3    H163134   4.943   0.715  16.466
13881TIP3    H263135   5.067   0.635  16.500
13882TIP3   OH263136   1.353   2.360   3.011
13882TIP3    H163137   1.425   2.416   2.982
13882TIP3    H263138   1.353   2.286   2.949
13883TIP3   OH263139   5.911   1.852  14.911
13883TIP3    H163140   5.970   1.906  14.858
13883TIP3    H263141   5.959   1.833  14.991
13884TIP3   OH263142   0.678   3.104   0.061
13884TIP3    H163143   0.702   3.014   0.039
13884TIP3    H263144   0.582   3.105   0.052
13885TIP3   OH263145   5.222   1.404  14.918
13885TIP3    H163146   5.171   1.359  14.985
13885TIP3    H263147   5.195   1.496  14.925
13886TIP3   OH263148   3.183   3.340  11.871
13886TIP3    H163149   3.246   3.409  11.889
13886TIP3    H263150   3.126   3.376  11.803
13887TIP3   OH263151   0.598   5.834  16.152
13887TIP3    H163152   0.648   5.825  16.071
13887TIP3    H263153   0.528   5.769  16.143
13888TIP3   OH263154   2.467   5.965  15.876
13888TIP3    H163155   2.462   6.052  15.838
13888TIP3    H263156   2.442   5.976  15.968
13889TIP3   OH263157   2.339   4.124  14.279
13889TIP3    H163158   2.246   4.145  14.284
13889TIP3    H263159   2.366   4.158  14.193
13890TIP3   OH263160   0.054   5.412  10.740
13890TIP3    H163161   0.059   5.482  10.806
13890TIP3    H263162  -0.039   5.409  10.716
13891TIP3   OH263163   4.119   6.632   4.078
13891TIP3    H163164   4.031   6.657   4.052
13891TIP3    H263165   4.135   6.682   4.159
13892TIP3   OH263166   4.595   5.454  13.801
13892TIP3    H163167   4.584   5.485  13.891
13892TIP3    H263168   4.689   5.434  13.794
13893TIP3   OH263169   4.774   3.265  15.212
13893TIP3    H163170   4.706   3.323  15.245
13893TIP3    H263171   4.830   3.248  15.288
13894TIP3   OH263172   6.144   0.421   5.688
13894TIP3    H163173   6.180   0.501   5.727
13894TIP3    H263174   6.126   0.446   5.597
13895TIP3   OH263175   1.117   5.768  17.113
13895TIP3    H163176   1.030   5.808  17.117
13895TIP3    H263177   1.106   5.683  17.156
13896TIP3   OH263178   6.015   4.209  17.007
13896TIP3    H163179   6.012   4.279  17.073
13896TIP3    H263180   6.092   4.230  16.954
13897TIP3   OH263181   2.956   1.669  15.763
13897TIP3    H163182   2.936   1.579  15.738
13897TIP3    H263183   2.883   1.720  15.730
13898TIP3   OH263184   0.047   2.459  16.394
13898TIP3    H163185   0.001   2.441  16.312
13898TIP3    H263186   0.134   2.488  16.366
13899TIP3   OH263187   4.942   5.783  13.618
13899TIP3    H163188   4.956   5.816  13.529
13899TIP3    H263189   4.943   5.862  13.673
13900TIP3   OH263190   5.043   1.231   0.896
13900TIP3    H163191   5.024   1.154   0.950
13900TIP3    H263192   4.958   1.276   0.890
13901TIP3   OH263193   3.202   1.709  16.355
13901TIP3    H163194   3.252   1.725  16.435
13901TIP3    H263195   3.179   1.796  16.322
13902TIP3   OH263196   3.894   2.428  16.426
13902TIP3    H163197   3.928   2.401  16.511
13902TIP3    H263198   3.948   2.502  16.401
13903TIP3   OH263199   6.110   4.796  14.196
13903TIP3    H163200   6.190   4.813  14.246
13903TIP3    H263201   6.048   4.763  14.261
13904TIP3   OH263202   2.942   4.124   6.102
13904TIP3    H163203   2.978   4.186   6.165
13904TIP3    H263204   2.944   4.170   6.018
13905TIP3   OH263205   0.891   0.052   7.115
13905TIP3    H163206   0.951   0.002   7.060
13905TIP3    H263207   0.808   0.003   7.112
13906TIP3   OH263208   6.430   4.570   0.536
13906TIP3    H163209   6.503   4.511   0.557
13906TIP3    H263210   6.379   4.522   0.471
13907TIP3   OH263211   1.590   0.105  16.359
13907TIP3    H163212   1.595   0.045  16.433
13907TIP3    H263213   1.678   0.108  16.323
13908TIP3   OH263214   3.350   3.279   2.224
13908TIP3    H163215   3.344   3.230   2.306
13908TIP3    H263216   3.444   3.283   2.205
13909TIP3   OH263217   6.372   0.118   3.068
13909TIP3    H163218   6.340   0.030   3.088
13909TIP3    H263219   6.342   0.172   3.141
13910TIP3   OH263220   0.697   4.024   5.453
13910TIP3    H163221   0.726   4.093   5.512
13910TIP3    H263222   0.775   3.972   5.436
13911TIP3   OH263223   1.682   1.835  14.722
13911TIP3    H163224   1.647   1.920  14.696
13911TIP3    H263225   1.777   1.845  14.715
13912TIP3   OH263226   2.384   1.666   4.614
13912TIP3    H163227   2.308   1.617   4.582
13912TIP3    H263228   2.371   1.670   4.709
13913TIP3   OH263229   6.812   6.262  11.605
13913TIP3    H163230   6.724   6.245  11.570
13913TIP3    H263231   6.845   6.335  11.552
13914TIP3   OH263232   5.334   5.008   3.546
13914TIP3    H163233   5.389   4.933   3.524
13914TIP3    H263234   5.346   5.069   3.473
13915TIP3   OH263235   0.897   2.387   2.803
13915TIP3    H163236   0.963   2.373   2.871
13915TIP3    H263237   0.847   2.463   2.834
13916TIP3   OH263238   5.276   1.280   4.805
13916TIP3    H163239   5.279   1.322   4.891
13916TIP3    H263240   5.197   1.315   4.764
13917TIP3   OH263241   1.097   5.404  16.920
13917TIP3    H163242   1.060   5.450  16.844
13917TIP3    H263243   1.091   5.311  16.897
13918TIP3   OH263244   5.731   4.677   5.337
13918TIP3    H163245   5.708   4.735   5.265
13918TIP3    H263246   5.792   4.614   5.298
13919TIP3   OH263247   2.756   2.550  16.079
13919TIP3    H163248   2.685   2.536  16.141
13919TIP3    H263249   2.714   2.581  15.999
13920TIP3   OH263250   5.145   0.263   1.700
13920TIP3    H163251   5.133   0.327   1.770
13920TIP3    H263252   5.239   0.259   1.687
13921TIP3   OH263253   2.449   3.582  14.254
13921TIP3    H163254   2.471   3.584  14.347
13921TIP3    H263255   2.436   3.674  14.230
13922TIP3   OH263256   5.044   2.885   3.828
13922TIP3    H163257   5.033   2.790   3.836
13922TIP3    H263258   5.126   2.904   3.873
13923TIP3   OH263259   5.808   6.088   2.581
13923TIP3    H163260   5.753   6.164   2.600
13923TIP3    H263261   5.882   6.123   2.531
13924TIP3   OH263262   1.116   5.156   1.684
13924TIP3    H163263   1.193   5.185   1.635
13924TIP3    H263264   1.104   5.065   1.660
13925TIP3   OH263265   2.429   1.208  14.020
13925TIP3    H163266   2.475   1.220  13.936
13925TIP3    H263267   2.425   1.296  14.057
13926TIP3   OH263268   3.137   1.666   4.626
13926TIP3    H163269   3.218   1.707   4.658
13926TIP3    H263270   3.166   1.594   4.571
13927TIP3   OH263271   1.489   2.425  16.992
13927TIP3    H163272   1.512   2.339  17.027
13927TIP3    H263273   1.568   2.479  17.005
13928TIP3   OH263274   6.769   0.419  16.778
13928TIP3    H163275   6.718   0.338  16.773
13928TIP3    H263276   6.704   0.488  16.786
13929TIP3   OH263277   2.821   0.035  11.085
13929TIP3    H163278   2.805  -0.021  11.161
13929TIP3    H263279   2.746   0.020  11.027
13930TIP3   OH263280   4.979   1.471   5.394
13930TIP3    H163281   4.933   1.547   5.431
13930TIP3    H263282   5.060   1.465   5.444
13931TIP3   OH263283   4.144   6.168   4.319
13931TIP3    H163284   4.119   6.261   4.325
13931TIP3    H263285   4.238   6.167   4.336
13932TIP3   OH263286   5.748   4.712  16.001
13932TIP3    H163287   5.734   4.720  15.907
13932TIP3    H263288   5.838   4.744  16.015
13933TIP3   OH263289   0.467   0.243  13.598
13933TIP3    H163290   0.460   0.322  13.546
13933TIP3    H263291   0.398   0.186  13.566
13934TIP3   OH263292   3.959   2.862   1.179
13934TIP3    H163293   3.977   2.863   1.273
13934TIP3    H263294   3.865   2.878   1.172
13935TIP3   OH263295   3.861   2.629  14.245
13935TIP3    H163296   3.774   2.656  14.216
13935TIP3    H263297   3.872   2.668  14.331
13936TIP3   OH263298   0.833   2.061  11.670
13936TIP3    H163299   0.794   2.080  11.756
13936TIP3    H263300   0.793   2.124  11.611
13937TIP3   OH263301   6.608   2.414   0.043
13937TIP3    H163302   6.680   2.385   0.099
13937TIP3    H263303   6.555   2.336   0.029
13938TIP3   OH263304   5.596   2.497  15.059
13938TIP3    H163305   5.522   2.557  15.074
13938TIP3    H263306   5.601   2.488  14.964
13939TIP3   OH263307   2.398   4.747   0.380
13939TIP3    H163308   2.460   4.713   0.316
13939TIP3    H263309   2.418   4.700   0.461
13940TIP3   OH263310   3.014   0.134  11.769
13940TIP3    H163311   2.929   0.147  11.811
13940TIP3    H263312   3.077   0.128  11.841
13941TIP3   OH263313   1.568   1.581   3.355
13941TIP3    H163314   1.638   1.606   3.295
13941TIP3    H263315   1.605   1.594   3.442
13942TIP3   OH263316   2.637   0.969  16.567
13942TIP3    H163317   2.729   0.984  16.547
13942TIP3    H263318   2.593   1.047  16.535
13943TIP3   OH263319   4.020   2.192  11.397
13943TIP3    H163320   4.046   2.274  11.355
13943TIP3    H263321   4.020   2.212  11.490
13944TIP3   OH263322   0.640   5.583   5.177
13944TIP3    H163323   0.723   5.625   5.199
13944TIP3    H263324   0.601   5.640   5.111
13945TIP3   OH263325   2.852   6.277   3.016
13945TIP3    H163326   2.919   6.236   2.961
13945TIP3    H263327   2.903   6.332   3.077
13946TIP3   OH263328   2.354   4.759   4.577
13946TIP3    H163329   2.271   4.775   4.620
13946TIP3    H263330   2.396   4.845   4.574
13947TIP3   OH263331   3.122   5.366  11.638
13947TIP3    H163332   3.119   5.276  11.606
13947TIP3    H263333   3.153   5.417  11.563
13948TIP3   OH263334   2.335   0.320  15.484
13948TIP3    H163335   2.308   0.410  15.501
13948TIP3    H263336   2.404   0.327  15.417
13949TIP3   OH263337   6.369   2.913   0.336
13949TIP3    H163338   6.275   2.930   0.331
13949TIP3    H263339   6.410   2.999   0.325
13950TIP3   OH263340   6.472   2.132   2.704
13950TIP3    H163341   6.522   2.161   2.628
13950TIP3    H263342   6.394   2.090   2.668
13951TIP3   OH263343   0.422   1.426  14.795
13951TIP3    H163344   0.448   1.381  14.715
13951TIP3    H263345   0.466   1.511  14.790
13952TIP3   OH263346   6.070   2.756   3.218
13952TIP3    H163347   5.987   2.766   3.264
13952TIP3    H263348   6.078   2.835   3.165
13953TIP3   OH263349   6.487   3.056   1.312
13953TIP3    H163350   6.556   3.122   1.326
13953TIP3    H263351   6.450   3.078   1.227
13954TIP3   OH263352   1.905   0.467   0.136
13954TIP3    H163353   1.934   0.552   0.101
13954TIP3    H263354   1.971   0.445   0.202
13955TIP3   OH263355   2.946   5.363  11.870
13955TIP3    H163356   3.024   5.388  11.820
13955TIP3    H263357   2.973   5.286  11.919
13956TIP3   OH263358   1.669   3.389  13.869
13956TIP3    H163359   1.756   3.403  13.832
13956TIP3    H263360   1.629   3.322  13.814
13957TIP3   OH263361   0.458   6.294  14.409
13957TIP3    H163362   0.542   6.282  14.364
13957TIP3    H263363   0.440   6.388  14.401
13958TIP3   OH263364   6.069   1.913   1.678
13958TIP3    H163365   6.094   1.859   1.603
13958TIP3    H263366   5.976   1.931   1.664
13959TIP3   OH263367   4.819   4.249   1.543
13959TIP3    H163368   4.828   4.229   1.450
13959TIP3    H263369   4.791   4.340   1.546
13960TIP3   OH263370   3.912   3.352  12.054
13960TIP3    H163371   3.986   3.292  12.062
13960TIP3    H263372   3.842   3.310  12.104
13961TIP3   OH263373   2.408   5.573   1.244
13961TIP3    H163374   2.435   5.663   1.261
13961TIP3    H263375   2.357   5.548   1.321
13962TIP3   OH263376   5.279   6.363   5.927
13962TIP3    H163377   5.308   6.344   5.838
13962TIP3    H263378   5.351   6.332   5.983
13963TIP3   OH263379   2.557   3.055  12.563
13963TIP3    H163380   2.552   3.066  12.468
13963TIP3    H263381   2.588   2.965  12.575
13964TIP3   OH263382   4.132   5.542  10.774
13964TIP3    H163383   4.120   5.450  10.797
13964TIP3    H263384   4.189   5.577  10.842
13965TIP3   OH263385   0.407   1.778   4.999
13965TIP3    H163386   0.380   1.698   4.953
13965TIP3    H263387   0.358   1.777   5.081
13966TIP3   OH263388   1.855   3.747   2.167
13966TIP3    H163389   1.941   3.713   2.191
13966TIP3    H263390   1.801   3.734   2.246
13967TIP3   OH263391   1.086   2.531   6.116
13967TIP3    H163392   1.181   2.547   6.112
13967TIP3    H263393   1.047   2.618   6.124
13968TIP3   OH263394   0.644   3.833  15.222
13968TIP3    H163395   0.718   3.879  15.261
13968TIP3    H263396   0.674   3.810  15.134
13969TIP3   OH263397   1.238   5.121   0.974
13969TIP3    H163398   1.260   5.055   0.908
13969TIP3    H263399   1.144   5.137   0.961
13970TIP3   OH263400   4.846   5.573  12.744
13970TIP3    H163401   4.888   5.628  12.810
13970TIP3    H263402   4.869   5.484  12.768
13971TIP3   OH263403   5.020   1.661  13.653
13971TIP3    H163404   4.949   1.597  13.652
13971TIP3    H263405   5.063   1.648  13.738
13972TIP3   OH263406   3.468   4.802  12.634
13972TIP3    H163407   3.528   4.802  12.709
13972TIP3    H263408   3.522   4.832  12.560
13973TIP3   OH263409   2.381   5.000  12.234
13973TIP3    H163410   2.465   5.039  12.261
13973TIP3    H263411   2.385   4.911  12.269
13974TIP3   OH263412   0.191   6.623  12.641
13974TIP3    H163413   0.216   6.561  12.572
13974TIP3    H263414   0.124   6.678  12.600
13975TIP3   OH263415   3.320   5.635   1.383
13975TIP3    H163416   3.354   5.547   1.368
13975TIP3    H263417   3.380   5.693   1.336
13976TIP3   OH263418   5.377   1.799  17.048
13976TIP3    H163419   5.296   1.848  17.067
13976TIP3    H263420   5.347   1.712  17.023
13977TIP3   OH263421   1.637   2.363  12.883
13977TIP3    H163422   1.662   2.452  12.859
13977TIP3    H263423   1.580   2.373  12.959
13978TIP3   OH263424   0.690   5.684  12.965
13978TIP3    H163425   0.731   5.648  12.886
13978TIP3    H263426   0.764   5.712  13.019
13979TIP3   OH263427   0.129   1.540  13.028
13979TIP3    H163428   0.192   1.555  12.957
13979TIP3    H263429   0.100   1.627  13.053
13980TIP3   OH263430   1.984   4.417  11.673
13980TIP3    H163431   1.992   4.429  11.578
13980TIP3    H263432   1.986   4.323  11.686
13981TIP3   OH263433   5.906   5.925   4.274
13981TIP3    H163434   5.821   5.969   4.271
13981TIP3    H263435   5.922   5.910   4.367
13982TIP3   OH263436   6.161   6.050  14.813
13982TIP3    H163437   6.087   6.062  14.753
13982TIP3    H263438   6.207   6.134  14.812
13983TIP3   OH263439   3.910   3.770  17.198
13983TIP3    H163440   3.854   3.775  17.276
13983TIP3    H263441   3.913   3.860  17.166
13984TIP3   OH263442   0.291   2.929   3.747
13984TIP3    H163443   0.320   2.946   3.836
13984TIP3    H263444   0.343   2.853   3.719
13985TIP3   OH263445   0.819   0.418   2.182
13985TIP3    H163446   0.831   0.337   2.231
13985TIP3    H263447   0.906   0.441   2.151
13986TIP3   OH263448   3.005   3.969   3.488
13986TIP3    H163449   2.976   4.038   3.548
13986TIP3    H263450   3.012   3.891   3.543
13987TIP3   OH263451   1.472   6.268   4.377
13987TIP3    H163452   1.525   6.203   4.424
13987TIP3    H263453   1.500   6.352   4.414
13988TIP3   OH263454   3.927   2.686   0.369
13988TIP3    H163455   4.023   2.681   0.362
13988TIP3    H263456   3.898   2.596   0.357
13989TIP3   OH263457   0.990   1.085   1.459
13989TIP3    H163458   0.966   1.016   1.522
13989TIP3    H263459   0.938   1.161   1.486
13990TIP3   OH263460   2.562   5.656   4.381
13990TIP3    H163461   2.568   5.580   4.324
13990TIP3    H263462   2.476   5.648   4.423
13991TIP3   OH263463   0.037   4.783   2.473
13991TIP3    H163464   0.087   4.747   2.400
13991TIP3    H263465   0.089   4.762   2.551
13992TIP3   OH263466   1.703   6.271  11.813
13992TIP3    H163467   1.629   6.255  11.754
13992TIP3    H263468   1.777   6.285  11.754
13993TIP3   OH263469   5.853   3.859  10.831
13993TIP3    H163470   5.829   3.947  10.859
13993TIP3    H263471   5.949   3.858  10.835
13994TIP3   OH263472   0.508   1.132  16.915
13994TIP3    H163473   0.509   1.049  16.868
13994TIP3    H263474   0.589   1.131  16.967
13995TIP3   OH263475   0.074   6.019   5.022
13995TIP3    H163476   0.160   5.997   4.988
13995TIP3    H263477   0.083   6.017   5.117
13996TIP3   OH263478   2.123   0.083   3.989
13996TIP3    H163479   2.128   0.140   4.066
13996TIP3    H263480   2.108   0.142   3.916
13997TIP3   OH263481   1.730   6.658  14.721
13997TIP3    H163482   1.702   6.641  14.810
13997TIP3    H263483   1.815   6.701  14.730
13998TIP3   OH263484   0.781   2.291  15.444
13998TIP3    H163485   0.843   2.243  15.389
13998TIP3    H263486   0.709   2.230  15.457
13999TIP3   OH263487   0.174   0.481  13.161
13999TIP3    H163488   0.245   0.507  13.103
13999TIP3    H263489   0.161   0.557  13.218
14000TIP3   OH263490   1.971   3.274  17.257
14000TIP3    H163491   1.924   3.194  17.277
14000TIP3    H263492   1.923   3.343  17.303
14001TIP3   OH263493   3.437   6.385   5.309
14001TIP3    H163494   3.507   6.447   5.326
14001TIP3    H263495   3.381   6.389   5.386
14002TIP3   OH263496   3.879   5.604  15.380
14002TIP3    H163497   3.945   5.623  15.312
14002TIP3    H263498   3.841   5.520  15.353
14003TIP3   OH263499   2.218   3.351  14.644
14003TIP3    H163500   2.172   3.408  14.705
14003TIP3    H263501   2.300   3.397  14.627
14004TIP3   OH263502   4.205   1.619   0.554
14004TIP3    H163503   4.151   1.674   0.498
14004TIP3    H263504   4.217   1.670   0.634
14005TIP3   OH263505   6.013   0.395   6.055
14005TIP3    H163506   6.071   0.471   6.049
14005TIP3    H263507   6.055   0.339   6.121
14006TIP3   OH263508   5.909   6.397   2.816
14006TIP3    H163509   5.893   6.349   2.734
14006TIP3    H263510   6.002   6.382   2.834
14007TIP3   OH263511   0.087   2.726   3.612
14007TIP3    H163512   0.126   2.660   3.555
14007TIP3    H263513   0.051   2.676   3.685
14008TIP3   OH263514   4.580   5.925   3.120
14008TIP3    H163515   4.548   5.846   3.075
14008TIP3    H263516   4.660   5.949   3.073
14009TIP3   OH263517   5.093   2.257  16.840
14009TIP3    H163518   5.038   2.286  16.913
14009TIP3    H263519   5.145   2.186  16.876
14010TIP3   OH263520   6.818   1.668  12.191
14010TIP3    H163521   6.865   1.733  12.140
14010TIP3    H263522   6.887   1.611  12.227
14011TIP3   OH263523   0.036   3.986  17.023
14011TIP3    H163524  -0.040   4.043  17.022
14011TIP3    H263525   0.074   3.998  17.110
14012TIP3   OH263526   1.610   5.243  16.727
14012TIP3    H163527   1.518   5.263  16.715
14012TIP3    H263528   1.630   5.181  16.657
14013TIP3   OH263529   2.328   0.404   5.913
14013TIP3    H163530   2.235   0.388   5.898
14013TIP3    H263531   2.358   0.448   5.833
14014TIP3   OH263532   3.851   6.731   4.709
14014TIP3    H163533   3.780   6.723   4.646
14014TIP3    H263534   3.901   6.807   4.680
14015TIP3   OH263535   6.783   5.260  15.877
14015TIP3    H163536   6.858   5.232  15.825
14015TIP3    H263537   6.722   5.186  15.871
14016TIP3   OH263538   2.914   1.538   1.337
14016TIP3    H163539   2.875   1.457   1.305
14016TIP3    H263540   2.864   1.607   1.292
14017TIP3   OH263541   4.583   2.893   4.882
14017TIP3    H163542   4.534   2.882   4.801
14017TIP3    H263543   4.666   2.848   4.866
14018TIP3   OH263544   4.192   3.363  12.231
14018TIP3    H163545   4.164   3.305  12.160
14018TIP3    H263546   4.246   3.308  12.288
14019TIP3   OH263547   5.483   2.448  14.058
14019TIP3    H163548   5.476   2.362  14.100
14019TIP3    H263549   5.479   2.428  13.964
14020TIP3   OH263550   4.050   2.769   3.369
14020TIP3    H163551   4.011   2.852   3.340
14020TIP3    H263552   4.050   2.776   3.465
14021TIP3   OH263553   3.857   6.039  11.693
14021TIP3    H163554   3.772   5.998  11.675
14021TIP3    H263555   3.834   6.121  11.737
14022TIP3   OH263556   4.355   6.323  11.146
14022TIP3    H163557   4.329   6.315  11.238
14022TIP3    H263558   4.274   6.306  11.098
14023TIP3   OH263559   2.226   4.286  11.140
14023TIP3    H163560   2.210   4.371  11.100
14023TIP3    H263561   2.317   4.289  11.168
14024TIP3   OH263562   3.042   6.715  14.414
14024TIP3    H163563   3.042   6.800  14.458
14024TIP3    H263564   3.135   6.694  14.403
14025TIP3   OH263565   4.277   4.366  12.385
14025TIP3    H163566   4.211   4.359  12.453
14025TIP3    H263567   4.347   4.417  12.425
14026TIP3   OH263568   5.682   4.744  16.790
14026TIP3    H163569   5.723   4.830  16.775
14026TIP3    H263570   5.602   4.764  16.838
14027TIP3   OH263571   3.490   1.454   2.493
14027TIP3    H163572   3.546   1.523   2.527
14027TIP3    H263573   3.483   1.391   2.565
14028TIP3   OH263574   5.544   0.914  13.382
14028TIP3    H163575   5.610   0.854  13.418
14028TIP3    H263576   5.587   1.000  13.385
14029TIP3   OH263577   3.759   0.913   1.473
14029TIP3    H163578   3.774   0.864   1.392
14029TIP3    H263579   3.827   0.980   1.473
14030TIP3   OH263580   2.979   0.294  13.144
14030TIP3    H163581   2.982   0.335  13.231
14030TIP3    H263582   2.966   0.201  13.162
14031TIP3   OH263583   0.307   3.312  14.488
14031TIP3    H163584   0.300   3.258  14.409
14031TIP3    H263585   0.399   3.338  14.491
14032TIP3   OH263586   1.913   6.424   3.122
14032TIP3    H163587   1.836   6.376   3.154
14032TIP3    H263588   1.911   6.507   3.170
14033TIP3   OH263589   3.184   4.546   1.934
14033TIP3    H163590   3.222   4.516   1.851
14033TIP3    H263591   3.112   4.485   1.951
14034TIP3   OH263592   0.395   2.311   3.220
14034TIP3    H163593   0.473   2.366   3.223
14034TIP3    H263594   0.325   2.369   3.192
14035TIP3   OH263595   0.994   3.292   2.759
14035TIP3    H163596   0.958   3.265   2.843
14035TIP3    H263597   0.928   3.265   2.694
14036TIP3   OH263598   3.523   0.233  11.384
14036TIP3    H163599   3.555   0.159  11.434
14036TIP3    H263600   3.583   0.240  11.310
14037TIP3   OH263601   2.146   1.791  12.394
14037TIP3    H163602   2.211   1.779  12.325
14037TIP3    H263603   2.119   1.703  12.419
14038TIP3   OH263604   1.419   0.236  15.234
14038TIP3    H163605   1.439   0.173  15.164
14038TIP3    H263606   1.465   0.202  15.310
14039TIP3   OH263607   1.044   5.747   4.977
14039TIP3    H163608   1.055   5.683   4.907
14039TIP3    H263609   1.029   5.830   4.932
14040TIP3   OH263610   6.204   1.399   4.920
14040TIP3    H163611   6.246   1.430   4.840
14040TIP3    H263612   6.125   1.451   4.928
14041TIP3   OH263613   2.137   1.661  12.094
14041TIP3    H163614   2.068   1.601  12.122
14041TIP3    H263615   2.146   1.645  12.000
14042TIP3   OH263616   0.436   6.653   1.496
14042TIP3    H163617   0.442   6.590   1.568
14042TIP3    H263618   0.343   6.659   1.478
14043TIP3   OH263619   2.848   2.884   4.223
14043TIP3    H163620   2.791   2.847   4.290
14043TIP3    H263621   2.813   2.851   4.140
14044TIP3   OH263622   1.587   4.629  14.132
14044TIP3    H163623   1.580   4.711  14.084
14044TIP3    H263624   1.497   4.598  14.139
14045TIP3   OH263625   0.988   3.171   1.584
14045TIP3    H163626   1.014   3.259   1.612
14045TIP3    H263627   0.906   3.154   1.629
14046TIP3   OH263628   0.773   2.409  16.650
14046TIP3    H163629   0.711   2.481  16.661
14046TIP3    H263630   0.783   2.372  16.738
14047TIP3   OH263631   2.532   3.499   1.021
14047TIP3    H163632   2.543   3.576   0.966
14047TIP3    H263633   2.487   3.532   1.099
14048TIP3   OH263634   3.707   3.727   1.496
14048TIP3    H163635   3.650   3.778   1.438
14048TIP3    H263636   3.676   3.749   1.584
14049TIP3   OH263637   1.404   1.575  11.787
14049TIP3    H163638   1.386   1.552  11.879
14049TIP3    H263639   1.453   1.499  11.753
14050TIP3   OH263640   0.405   5.574   0.386
14050TIP3    H163641   0.474   5.639   0.402
14050TIP3    H263642   0.433   5.496   0.434
14051TIP3   OH263643   2.995   3.036  13.553
14051TIP3    H163644   3.011   2.978  13.478
14051TIP3    H263645   3.081   3.066  13.579
14052TIP3   OH263646   2.305   3.824   4.878
14052TIP3    H163647   2.321   3.836   4.785
14052TIP3    H263648   2.382   3.778   4.911
14053TIP3   OH263649   1.056   4.163   0.111
14053TIP3    H163650   0.992   4.124   0.051
14053TIP3    H263651   1.044   4.115   0.193
14054TIP3   OH263652   2.355   1.617   3.858
14054TIP3    H163653   2.286   1.669   3.818
14054TIP3    H263654   2.348   1.635   3.952
14055TIP3   OH263655   6.460   4.729   1.270
14055TIP3    H163656   6.416   4.663   1.324
14055TIP3    H263657   6.457   4.693   1.181
14056TIP3   OH263658   4.348   2.777  10.886
14056TIP3    H163659   4.373   2.689  10.856
14056TIP3    H263660   4.254   2.783  10.867
14057TIP3   OH263661   2.898   6.002   0.056
14057TIP3    H163662   2.807   6.021   0.078
14057TIP3    H263663   2.892   5.945  -0.021
14058TIP3   OH263664   0.784   3.104  14.882
14058TIP3    H163665   0.799   3.191  14.845
14058TIP3    H263666   0.791   3.044  14.808
14059TIP3   OH263667   5.307   3.769  11.789
14059TIP3    H163668   5.306   3.853  11.743
14059TIP3    H263669   5.269   3.707  11.727
14060TIP3   OH263670   2.328   5.051  10.649
14060TIP3    H163671   2.276   5.129  10.631
14060TIP3    H263672   2.349   5.016  10.563
14061TIP3   OH263673   5.624   0.663   4.778
14061TIP3    H163674   5.617   0.656   4.873
14061TIP3    H263675   5.585   0.748   4.757
14062TIP3   OH263676   5.164   5.511   2.716
14062TIP3    H163677   5.096   5.579   2.716
14062TIP3    H263678   5.116   5.429   2.727
14063TIP3   OH263679   4.490   5.563  11.475
14063TIP3    H163680   4.457   5.520  11.553
14063TIP3    H263681   4.527   5.493  11.422
14064TIP3   OH263682   6.364   6.248  14.636
14064TIP3    H163683   6.402   6.264  14.549
14064TIP3    H263684   6.336   6.334  14.666
14065TIP3   OH263685   1.418   0.559   4.678
14065TIP3    H163686   1.406   0.654   4.681
14065TIP3    H263687   1.456   0.537   4.763
14066TIP3   OH263688   6.087   3.445  17.041
14066TIP3    H163689   6.170   3.433  17.087
14066TIP3    H263690   6.020   3.434  17.109
14067TIP3   OH263691   4.118   5.327  17.070
14067TIP3    H163692   4.059   5.322  17.145
14067TIP3    H263693   4.110   5.417  17.040
14068TIP3   OH263694   6.390   0.916   1.939
14068TIP3    H163695   6.439   0.985   1.893
14068TIP3    H263696   6.312   0.903   1.886
14069TIP3   OH263697   6.388   3.390   2.076
14069TIP3    H163698   6.479   3.394   2.107
14069TIP3    H263699   6.351   3.314   2.121
14070TIP3   OH263700   0.341   1.461  11.316
14070TIP3    H163701   0.295   1.495  11.393
14070TIP3    H263702   0.408   1.527  11.298
14071TIP3   OH263703   4.966   3.854  11.688
14071TIP3    H163704   4.973   3.782  11.751
14071TIP3    H263705   4.930   3.815  11.609
14072TIP3   OH263706   3.073   1.274  11.564
14072TIP3    H163707   3.071   1.332  11.488
14072TIP3    H263708   3.041   1.328  11.637
14073TIP3   OH263709   3.998   2.927  11.111
14073TIP3    H163710   3.934   2.860  11.089
14073TIP3    H263711   4.021   2.910  11.202
14074TIP3   OH263712   3.489   3.418   5.374
14074TIP3    H163713   3.468   3.466   5.454
14074TIP3    H263714   3.408   3.371   5.353
14075TIP3   OH263715   5.284   0.604  13.130
14075TIP3    H163716   5.340   0.558  13.067
14075TIP3    H263717   5.317   0.694  13.131
14076TIP3   OH263718   3.405   4.515  15.134
14076TIP3    H163719   3.354   4.440  15.167
14076TIP3    H263720   3.340   4.584  15.121
14077TIP3   OH263721   4.725   4.152  16.973
14077TIP3    H163722   4.708   4.093  17.046
14077TIP3    H263723   4.737   4.095  16.898
14078TIP3   OH263724   4.341   6.022   4.421
14078TIP3    H163725   4.429   6.024   4.383
14078TIP3    H263726   4.341   6.092   4.486
14079TIP3   OH263727   5.495   3.639   2.161
14079TIP3    H163728   5.469   3.550   2.137
14079TIP3    H263729   5.454   3.654   2.247
14080TIP3   OH263730   1.257   4.579  10.989
14080TIP3    H163731   1.216   4.494  10.972
14080TIP3    H263732   1.197   4.643  10.951
14081TIP3   OH263733   6.087   3.749  12.716
14081TIP3    H163734   6.002   3.749  12.671
14081TIP3    H263735   6.101   3.658  12.741
14082TIP3   OH263736   0.569   4.084   0.936
14082TIP3    H163737   0.644   4.117   0.985
14082TIP3    H263738   0.598   4.083   0.844
14083TIP3   OH263739   3.986   6.465  15.245
14083TIP3    H163740   3.945   6.484  15.161
14083TIP3    H263741   3.986   6.548  15.292
14084TIP3   OH263742   2.352   3.566  11.594
14084TIP3    H163743   2.402   3.613  11.660
14084TIP3    H263744   2.261   3.572  11.624
14085TIP3   OH263745   3.549   1.934   4.865
14085TIP3    H163746   3.533   2.028   4.862
14085TIP3    H263747   3.616   1.923   4.933
14086TIP3   OH263748   5.171   2.174   2.060
14086TIP3    H163749   5.093   2.143   2.013
14086TIP3    H263750   5.202   2.248   2.009
14087TIP3   OH263751   2.522   1.890  16.540
14087TIP3    H163752   2.512   1.795  16.543
14087TIP3    H263753   2.593   1.905  16.478
14088TIP3   OH263754   1.179   5.700  14.996
14088TIP3    H163755   1.117   5.770  15.016
14088TIP3    H263756   1.135   5.647  14.930
14089TIP3   OH263757   5.173   4.068  12.676
14089TIP3    H163758   5.081   4.040  12.680
14089TIP3    H263759   5.169   4.163  12.666
14090TIP3   OH263760   3.783   5.656  13.157
14090TIP3    H163761   3.732   5.596  13.211
14090TIP3    H263762   3.791   5.735  13.210
14091TIP3   OH263763   4.363   3.637   5.552
14091TIP3    H163764   4.372   3.621   5.458
14091TIP3    H263765   4.269   3.630   5.567
14092TIP3   OH263766   3.315   6.060   5.673
14092TIP3    H163767   3.333   6.022   5.759
14092TIP3    H263768   3.227   6.030   5.651
14093TIP3   OH263769   6.343   5.670   0.117
14093TIP3    H163770   6.365   5.583   0.150
14093TIP3    H263771   6.269   5.655   0.058
14094TIP3   OH263772   2.996   5.627   4.988
14094TIP3    H163773   2.920   5.676   5.020
14094TIP3    H263774   3.050   5.692   4.943
14095TIP3   OH263775   4.882   5.000   2.349
14095TIP3    H163776   4.865   4.921   2.297
14095TIP3    H263777   4.932   5.057   2.291
14096TIP3   OH263778   3.974   0.137   4.608
14096TIP3    H163779   3.908   0.187   4.656
14096TIP3    H263780   3.986   0.186   4.526
14097TIP3   OH263781   4.542   1.234   5.199
14097TIP3    H163782   4.523   1.252   5.291
14097TIP3    H263783   4.611   1.168   5.201
14098TIP3   OH263784   4.956   4.028  11.394
14098TIP3    H163785   4.933   4.120  11.412
14098TIP3    H263786   5.048   4.031  11.368
14099TIP3   OH263787   1.173   3.581  16.106
14099TIP3    H163788   1.199   3.503  16.057
14099TIP3    H263789   1.255   3.617  16.140
14100TIP3   OH263790   3.142   2.904  16.764
14100TIP3    H163791   3.105   2.972  16.708
14100TIP3    H263792   3.233   2.896  16.735
14101TIP3   OH263793   4.987   4.454   5.775
14101TIP3    H163794   4.995   4.416   5.687
14101TIP3    H263795   4.895   4.443   5.798
14102TIP3   OH263796   5.057   3.067   5.386
14102TIP3    H163797   5.098   3.016   5.457
14102TIP3    H263798   5.018   3.001   5.329
14103TIP3   OH263799   4.299   1.829  13.715
14103TIP3    H163800   4.217   1.780  13.709
14103TIP3    H263801   4.363   1.764  13.745
14104TIP3   OH263802   1.870   4.713  14.888
14104TIP3    H163803   1.860   4.698  14.794
14104TIP3    H263804   1.855   4.807  14.899
14105TIP3   OH263805   6.557   3.094   2.594
14105TIP3    H163806   6.538   3.187   2.609
14105TIP3    H263807   6.517   3.049   2.668
14106TIP3   OH263808   2.559   2.328   0.128
14106TIP3    H163809   2.544   2.374   0.211
14106TIP3    H263810   2.553   2.397   0.061
14107TIP3   OH263811   0.354   2.627  12.175
14107TIP3    H163812   0.417   2.572  12.128
14107TIP3    H263813   0.406   2.673  12.240
14108TIP3   OH263814   1.670   0.053  13.231
14108TIP3    H163815   1.667   0.075  13.138
14108TIP3    H263816   1.609  -0.020  13.241
14109TIP3   OH263817   4.265   0.075   0.311
14109TIP3    H163818   4.331   0.033   0.366
14109TIP3    H263819   4.199   0.107   0.373
14110TIP3   OH263820   2.028   4.283   1.037
14110TIP3    H163821   2.078   4.243   0.966
14110TIP3    H263822   2.038   4.221   1.110
14111TIP3   OH263823   3.474   2.020   1.259
14111TIP3    H163824   3.397   2.066   1.224
14111TIP3    H263825   3.545   2.083   1.254
14112TIP3   OH263826   4.044   2.234  12.134
14112TIP3    H163827   4.098   2.309  12.161
14112TIP3    H263828   3.975   2.230  12.200
14113TIP3   OH263829   3.456   2.048   6.113
14113TIP3    H163830   3.374   2.089   6.140
14113TIP3    H263831   3.439   1.954   6.120
14114TIP3   OH263832   1.352   1.980   6.022
14114TIP3    H163833   1.347   2.054   6.082
14114TIP3    H263834   1.408   1.916   6.066
14115TIP3   OH263835   2.729   5.873  16.054
14115TIP3    H163836   2.822   5.866  16.031
14115TIP3    H263837   2.690   5.925  15.983
14116TIP3   OH263838   4.907   2.322  11.392
14116TIP3    H163839   4.898   2.233  11.426
14116TIP3    H263840   4.953   2.312  11.308
14117TIP3   OH263841   4.331   3.520   6.023
14117TIP3    H163842   4.380   3.484   6.097
14117TIP3    H263843   4.383   3.498   5.946
14118TIP3   OH263844   1.533   0.201   6.492
14118TIP3    H163845   1.498   0.141   6.557
14118TIP3    H263846   1.466   0.269   6.484
14119TIP3   OH263847   5.325   3.489   1.714
14119TIP3    H163848   5.251   3.535   1.675
14119TIP3    H263849   5.313   3.398   1.689
14120TIP3   OH263850   2.820   3.035   2.268
14120TIP3    H163851   2.759   3.063   2.200
14120TIP3    H263852   2.766   2.987   2.331
14121TIP3   OH263853   1.518   2.814  13.760
14121TIP3    H163854   1.548   2.775  13.678
14121TIP3    H263855   1.591   2.870  13.788
14122TIP3   OH263856   1.388   6.423  14.389
14122TIP3    H163857   1.463   6.479  14.407
14122TIP3    H263858   1.368   6.382  14.473
14123TIP3   OH263859   1.940   0.923   1.860
14123TIP3    H163860   1.879   0.867   1.812
14123TIP3    H263861   1.937   1.007   1.814
14124TIP3   OH263862   6.183   5.386  15.860
14124TIP3    H163863   6.227   5.301  15.862
14124TIP3    H263864   6.254   5.449  15.844
14125TIP3   OH263865   5.514   3.133  16.924
14125TIP3    H163866   5.604   3.105  16.908
14125TIP3    H263867   5.494   3.191  16.850
14126TIP3   OH263868   3.252   3.091   3.594
14126TIP3    H163869   3.227   3.095   3.502
14126TIP3    H263870   3.240   3.180   3.626
14127TIP3   OH263871   1.417   2.111  13.045
14127TIP3    H163872   1.484   2.066  13.097
14127TIP3    H263873   1.432   2.204  13.063
14128TIP3   OH263874   5.881   1.823  11.233
14128TIP3    H163875   5.828   1.780  11.166
14128TIP3    H263876   5.922   1.896  11.187
14129TIP3   OH263877   0.547   4.705   0.026
14129TIP3    H163878   0.602   4.729  -0.048
14129TIP3    H263879   0.463   4.747   0.008
14130TIP3   OH263880   4.787   4.705   2.489
14130TIP3    H163881   4.745   4.621   2.507
14130TIP3    H263882   4.877   4.694   2.522
14131TIP3   OH263883   3.193   5.015  15.095
14131TIP3    H163884   3.169   5.098  15.054
14131TIP3    H263885   3.240   4.966  15.027
14132TIP3   OH263886   5.929   0.981   4.796
14132TIP3    H163887   5.914   0.961   4.703
14132TIP3    H263888   6.017   1.019   4.798
14133TIP3   OH263889   2.100   5.957  17.032
14133TIP3    H163890   2.067   5.881  16.984
14133TIP3    H263891   2.053   6.031  16.994
14134TIP3   OH263892   2.881   5.039   2.059
14134TIP3    H163893   2.857   4.995   1.977
14134TIP3    H263894   2.830   5.120   2.058
14135TIP3   OH263895   4.883   1.836  14.867
14135TIP3    H163896   4.924   1.891  14.933
14135TIP3    H263897   4.802   1.882  14.844
14136TIP3   OH263898   3.106   5.430   5.840
14136TIP3    H163899   3.051   5.366   5.885
14136TIP3    H263900   3.079   5.426   5.749
14137TIP3   OH263901   5.942   2.055  17.288
14137TIP3    H163902   5.896   1.971  17.287
14137TIP3    H263903   5.971   2.068  17.197
14138TIP3   OH263904   0.250   1.587  12.235
14138TIP3    H163905   0.329   1.540  12.263
14138TIP3    H263906   0.270   1.615  12.145
14139TIP3   OH263907   5.302   3.758   1.831
14139TIP3    H163908   5.311   3.664   1.843
14139TIP3    H263909   5.384   3.795   1.865
14140TIP3   OH263910   2.378   3.936   2.387
14140TIP3    H163911   2.473   3.947   2.384
14140TIP3    H263912   2.352   3.932   2.294
14141TIP3   OH263913   4.934   5.613  13.912
14141TIP3    H163914   4.882   5.534  13.899
14141TIP3    H263915   4.922   5.662  13.830
14142TIP3   OH263916   3.960   4.326   2.748
14142TIP3    H163917   3.972   4.420   2.734
14142TIP3    H263918   3.873   4.318   2.787
14143TIP3   OH263919   1.217   0.676  11.689
14143TIP3    H163920   1.197   0.603  11.747
14143TIP3    H263921   1.159   0.747  11.718
14144TIP3   OH263922   0.872   1.661  12.216
14144TIP3    H163923   0.942   1.628  12.159
14144TIP3    H263924   0.851   1.586  12.272
14145TIP3   OH263925   1.261   3.176  12.077
14145TIP3    H163926   1.281   3.157  12.168
14145TIP3    H263927   1.183   3.231  12.081
14146TIP3   OH263928   5.252   6.571  14.379
14146TIP3    H163929   5.306   6.498  14.349
14146TIP3    H263930   5.178   6.573  14.317
14147TIP3   OH263931   2.561   5.763   5.585
14147TIP3    H163932   2.633   5.768   5.523
14147TIP3    H263933   2.554   5.670   5.606
14148TIP3   OH263934   2.591   0.853  17.062
14148TIP3    H163935   2.546   0.903  17.130
14148TIP3    H263936   2.536   0.862  16.985
14149TIP3   OH263937   2.863   4.291  15.394
14149TIP3    H163938   2.779   4.332  15.417
14149TIP3    H263939   2.907   4.357  15.340
14150TIP3   OH263940   3.163   2.418   2.076
14150TIP3    H163941   3.184   2.512   2.079
14150TIP3    H263942   3.069   2.414   2.094
14151TIP3   OH263943   1.330   5.851   2.578
14151TIP3    H163944   1.310   5.929   2.527
14151TIP3    H263945   1.290   5.779   2.529
14152TIP3   OH263946   2.575   4.634   1.003
14152TIP3    H163947   2.657   4.683   1.005
14152TIP3    H263948   2.585   4.574   0.929
14153TIP3   OH263949   6.021   2.422   0.799
14153TIP3    H163950   6.047   2.513   0.818
14153TIP3    H263951   6.095   2.386   0.750
14154TIP3   OH263952   1.292   1.034  14.290
14154TIP3    H163953   1.202   1.063  14.303
14154TIP3    H263954   1.342   1.077  14.360
14155TIP3   OH263955   5.713   2.801  10.671
14155TIP3    H163956   5.708   2.724  10.728
14155TIP3    H263957   5.626   2.808  10.632
14156TIP3   OH263958   1.261   5.793   1.121
14156TIP3    H163959   1.323   5.836   1.179
14156TIP3    H263960   1.266   5.843   1.039
14157TIP3   OH263961   3.213   4.175  10.686
14157TIP3    H163962   3.200   4.263  10.720
14157TIP3    H263963   3.139   4.125  10.720
14158TIP3   OH263964   2.832   5.590  10.971
14158TIP3    H163965   2.896   5.525  10.998
14158TIP3    H263966   2.832   5.587  10.876
14159TIP3   OH263967   1.241   3.476   3.267
14159TIP3    H163968   1.319   3.525   3.295
14159TIP3    H263969   1.256   3.387   3.298
14160TIP3   OH263970   5.273   5.294   0.408
14160TIP3    H163971   5.190   5.258   0.377
14160TIP3    H263972   5.247   5.365   0.468
14161TIP3   OH263973   5.425   3.019  11.283
14161TIP3    H163974   5.420   3.113  11.267
14161TIP3    H263975   5.498   2.989  11.229
14162TIP3   OH263976   4.746   2.313   3.510
14162TIP3    H163977   4.726   2.406   3.512
14162TIP3    H263978   4.660   2.271   3.498
14163TIP3   OH263979   4.117   0.034  11.060
14163TIP3    H163980   4.163   0.103  11.011
14163TIP3    H263981   4.044   0.080  11.103
14164TIP3   OH263982   6.295   2.045  17.120
14164TIP3    H163983   6.201   2.034  17.106
14164TIP3    H263984   6.336   1.979  17.064
14165TIP3   OH263985   4.604   4.471  16.176
14165TIP3    H163986   4.688   4.486  16.133
14165TIP3    H263987   4.606   4.379  16.201
14166TIP3   OH263988   1.965   0.070   6.029
14166TIP3    H163989   1.887   0.018   6.014
14166TIP3    H263990   1.942   0.128   6.102
14167TIP3   OH263991   5.881   1.512   1.987
14167TIP3    H163992   5.973   1.538   1.987
14167TIP3    H263993   5.837   1.577   2.042
14168TIP3   OH263994   3.258   0.941   1.979
14168TIP3    H163995   3.238   1.022   2.025
14168TIP3    H263996   3.304   0.888   2.043
14169TIP3   OH263997   2.196   4.462   3.235
14169TIP3    H163998   2.190   4.504   3.321
14169TIP3    H263999   2.212   4.370   3.255
14170TIP3   OH264000   2.283   3.710   0.264
14170TIP3    H164001   2.221   3.778   0.237
14170TIP3    H264002   2.341   3.698   0.188
14171TIP3   OH264003   6.525   1.282  12.078
14171TIP3    H164004   6.577   1.285  12.159
14171TIP3    H264005   6.435   1.291  12.107
14172TIP3   OH264006   2.626   0.926   4.112
14172TIP3    H164007   2.532   0.915   4.127
14172TIP3    H264008   2.655   0.986   4.181
14173TIP3   OH264009   0.053   2.636  11.177
14173TIP3    H164010  -0.024   2.691  11.161
14173TIP3    H264011   0.115   2.694  11.223
14174TIP3   OH264012   3.343   6.795   1.588
14174TIP3    H164013   3.249   6.775   1.582
14174TIP3    H264014   3.358   6.812   1.680
14175TIP3   OH264015   2.202   0.338  13.160
14175TIP3    H164016   2.236   0.420  13.125
14175TIP3    H264017   2.257   0.270  13.120
14176TIP3   OH264018   2.303   3.113   0.189
14176TIP3    H164019   2.212   3.101   0.165
14176TIP3    H264020   2.339   3.171   0.122
14177TIP3   OH264021   5.690   3.475  12.676
14177TIP3    H164022   5.731   3.532  12.611
14177TIP3    H264023   5.707   3.519  12.760
14178TIP3   OH264024   6.714   3.716  14.135
14178TIP3    H164025   6.637   3.762  14.169
14178TIP3    H264026   6.722   3.746  14.045
14179TIP3   OH264027   4.053   2.079   2.598
14179TIP3    H164028   4.059   1.984   2.595
14179TIP3    H264029   3.968   2.096   2.639
14180TIP3   OH264030   0.144   5.958   1.644
14180TIP3    H164031   0.144   5.990   1.735
14180TIP3    H264032   0.065   5.995   1.606
14181TIP3   OH264033   5.165   4.043   2.582
14181TIP3    H164034   5.198   3.987   2.652
14181TIP3    H264035   5.232   4.037   2.514
14182TIP3   OH264036   5.301   4.221   2.738
14182TIP3    H164037   5.253   4.154   2.690
14182TIP3    H264038   5.311   4.293   2.676
14183TIP3   OH264039   4.546   0.986   6.399
14183TIP3    H164040   4.486   1.056   6.374
14183TIP3    H264041   4.613   1.029   6.453
14184TIP3   OH264042   5.397   4.382  13.363
14184TIP3    H164043   5.338   4.442  13.409
14184TIP3    H264044   5.339   4.316  13.325
14185TIP3   OH264045   5.478   4.807  16.035
14185TIP3    H164046   5.558   4.755  16.021
14185TIP3    H264047   5.461   4.849  15.950
14186TIP3   OH264048   5.351   0.064  12.314
14186TIP3    H164049   5.370   0.152  12.284
14186TIP3    H264050   5.352   0.011  12.235
14187TIP3   OH264051   1.808   5.835   3.112
14187TIP3    H164052   1.793   5.804   3.022
14187TIP3    H264053   1.723   5.822   3.156
14188TIP3   OH264054   5.517   5.332  15.547
14188TIP3    H164055   5.526   5.364  15.637
14188TIP3    H264056   5.583   5.263  15.539
14189TIP3   OH264057   3.174   4.193  16.276
14189TIP3    H164058   3.171   4.237  16.361
14189TIP3    H264059   3.264   4.163  16.268
14190TIP3   OH264060   0.034   4.507  10.707
14190TIP3    H164061   0.114   4.476  10.748
14190TIP3    H264062   0.007   4.582  10.759
14191TIP3   OH264063   4.032   0.686  14.263
14191TIP3    H164064   3.965   0.676  14.195
14191TIP3    H264065   3.984   0.677  14.345
14192TIP3   OH264066   6.678   3.538  11.791
14192TIP3    H164067   6.756   3.581  11.756
14192TIP3    H264068   6.662   3.465  11.732
14193TIP3   OH264069   1.677   4.900   0.511
14193TIP3    H164070   1.634   4.829   0.558
14193TIP3    H264071   1.748   4.927   0.569
14194TIP3   OH264072   4.647   0.415   1.970
14194TIP3    H164073   4.677   0.482   1.909
14194TIP3    H264074   4.553   0.429   1.978
14195TIP3   OH264075   1.039   5.090  14.787
14195TIP3    H164076   0.982   5.166  14.784
14195TIP3    H264077   1.118   5.117  14.739
14196TIP3   OH264078   6.510   1.050   5.009
14196TIP3    H164079   6.415   1.043   5.002
14196TIP3    H264080   6.533   0.998   5.085
14197TIP3   OH264081   6.704   2.907   2.739
14197TIP3    H164082   6.678   2.975   2.676
14197TIP3    H264083   6.744   2.839   2.685
14198TIP3   OH264084   3.618   4.893   4.272
14198TIP3    H164085   3.698   4.940   4.294
14198TIP3    H264086   3.645   4.828   4.207
14199TIP3   OH264087   2.382   6.707  11.609
14199TIP3    H164088   2.452   6.654  11.571
14199TIP3    H264089   2.302   6.671  11.573
14200TIP3   OH264090   6.174   5.481   3.455
14200TIP3    H164091   6.178   5.466   3.550
14200TIP3    H264092   6.264   5.500   3.430
14201TIP3   OH264093   4.112   5.865   0.161
14201TIP3    H164094   4.083   5.946   0.203
14201TIP3    H264095   4.207   5.872   0.156
14202TIP3   OH264096   5.025   0.885  11.275
14202TIP3    H164097   5.008   0.952  11.341
14202TIP3    H264098   5.022   0.802  11.324
14203TIP3   OH264099   1.653   1.360  15.642
14203TIP3    H164100   1.681   1.444  15.678
14203TIP3    H264101   1.572   1.379  15.595
14204TIP3   OH264102   4.776   0.636  11.512
14204TIP3    H164103   4.715   0.563  11.501
14204TIP3    H264104   4.862   0.600  11.489
14205TIP3   OH264105   0.168   6.385   0.350
14205TIP3    H164106   0.078   6.385   0.320
14205TIP3    H264107   0.208   6.461   0.307
14206TIP3   OH264108   5.556   2.779   3.900
14206TIP3    H164109   5.651   2.770   3.905
14206TIP3    H264110   5.541   2.850   3.838
14207TIP3   OH264111   4.069   0.469   0.650
14207TIP3    H164112   4.051   0.498   0.560
14207TIP3    H264113   3.982   0.462   0.690
14208TIP3   OH264114   2.120   4.959   0.926
14208TIP3    H164115   2.210   4.941   0.953
14208TIP3    H264116   2.127   5.030   0.862
14209TIP3   OH264117   5.051   1.763   6.301
14209TIP3    H164118   5.099   1.843   6.281
14209TIP3    H264119   4.998   1.786   6.377
14210TIP3   OH264120   5.216   2.326   3.565
14210TIP3    H164121   5.141   2.323   3.507
14210TIP3    H264122   5.179   2.342   3.652
14211TIP3   OH264123   3.959   1.929  11.608
14211TIP3    H164124   3.947   1.949  11.515
14211TIP3    H264125   3.869   1.923  11.642
14212TIP3   OH264126   5.557   1.554   2.544
14212TIP3    H164127   5.518   1.573   2.459
14212TIP3    H264128   5.636   1.505   2.525
14213TIP3   OH264129   3.552   3.433  12.778
14213TIP3    H164130   3.634   3.409  12.821
14213TIP3    H264131   3.561   3.399  12.689
14214TIP3   OH264132   2.979   0.129  16.502
14214TIP3    H164133   2.914   0.197  16.516
14214TIP3    H264134   2.968   0.070  16.577
14215TIP3   OH264135   6.418   2.391  15.875
14215TIP3    H164136   6.360   2.460  15.842
14215TIP3    H264137   6.361   2.313  15.881
14216TIP3   OH264138   3.349   2.815  10.467
14216TIP3    H164139   3.320   2.896  10.509
14216TIP3    H264140   3.299   2.810  10.385
14217TIP3   OH264141   3.499   2.261  16.481
14217TIP3    H164142   3.411   2.288  16.506
14217TIP3    H264143   3.554   2.282  16.557
14218TIP3   OH264144   3.559   2.155   1.872
14218TIP3    H164145   3.560   2.225   1.937
14218TIP3    H264146   3.487   2.177   1.814
14219TIP3   OH264147   5.443   3.230  14.657
14219TIP3    H164148   5.432   3.161  14.591
14219TIP3    H264149   5.455   3.182  14.739
14220TIP3   OH264150   3.681   5.961   3.682
14220TIP3    H164151   3.676   5.871   3.648
14220TIP3    H264152   3.600   6.002   3.652
14221TIP3   OH264153   0.353   0.441   0.117
14221TIP3    H164154   0.311   0.493   0.048
14221TIP3    H264155   0.388   0.364   0.071
14222TIP3   OH264156   2.552   4.777   1.270
14222TIP3    H164157   2.467   4.781   1.226
14222TIP3    H264158   2.564   4.864   1.308
14223TIP3   OH264159   3.716   0.833  13.639
14223TIP3    H164160   3.806   0.825  13.669
14223TIP3    H264161   3.724   0.874  13.552
14224TIP3   OH264162   2.461   5.011   4.548
14224TIP3    H164163   2.533   5.075   4.546
14224TIP3    H264164   2.397   5.045   4.486
14225TIP3   OH264165   2.471   6.049   2.066
14225TIP3    H164166   2.481   6.111   2.137
14225TIP3    H264167   2.453   5.965   2.109
14226TIP3   OH264168   4.425   2.383   5.125
14226TIP3    H164169   4.440   2.465   5.171
14226TIP3    H264170   4.446   2.402   5.034
14227TIP3   OH264171   1.162   0.180   0.999
14227TIP3    H164172   1.076   0.190   1.039
14227TIP3    H264173   1.152   0.215   0.911
14228TIP3   OH264174   0.509   4.963  13.728
14228TIP3    H164175   0.592   4.988  13.766
14228TIP3    H264176   0.514   4.868  13.720
14229TIP3   OH264177   5.378   0.943  11.846
14229TIP3    H164178   5.415   1.004  11.909
14229TIP3    H264179   5.359   0.997  11.769
14230TIP3   OH264180   3.041   0.914   5.540
14230TIP3    H164181   2.998   0.922   5.455
14230TIP3    H264182   3.081   0.827   5.538
14231TIP3   OH264183   3.306   3.535   2.251
14231TIP3    H164184   3.324   3.448   2.218
14231TIP3    H264185   3.232   3.524   2.312
14232TIP3   OH264186   1.316   6.356  15.126
14232TIP3    H164187   1.257   6.329  15.056
14232TIP3    H264188   1.258   6.393  15.193
14233TIP3   OH264189   6.257   0.736  12.139
14233TIP3    H164190   6.266   0.654  12.090
14233TIP3    H264191   6.275   0.805  12.076
14234TIP3   OH264192   0.463   2.324   4.809
14234TIP3    H164193   0.372   2.331   4.837
14234TIP3    H264194   0.458   2.309   4.715
14235TIP3   OH264195   3.769   1.292   1.222
14235TIP3    H164196   3.782   1.354   1.295
14235TIP3    H264197   3.686   1.249   1.243
14236TIP3   OH264198   3.526   0.460   2.316
14236TIP3    H164199   3.485   0.500   2.393
14236TIP3    H264200   3.620   0.473   2.330
14237TIP3   OH264201   0.345   4.421   2.137
14237TIP3    H164202   0.374   4.398   2.225
14237TIP3    H264203   0.357   4.341   2.086
14238TIP3   OH264204   5.871   1.206   2.021
14238TIP3    H164205   5.858   1.140   2.089
14238TIP3    H264206   5.835   1.287   2.057
14239TIP3   OH264207   3.112   6.432  17.193
14239TIP3    H164208   3.109   6.351  17.245
14239TIP3    H264209   3.126   6.501  17.257
14240TIP3   OH264210   1.839   6.608   5.148
14240TIP3    H164211   1.889   6.539   5.190
14240TIP3    H264212   1.850   6.592   5.054
14241TIP3   OH264213   2.289   3.146   4.057
14241TIP3    H164214   2.321   3.056   4.049
14241TIP3    H264215   2.241   3.147   4.140
14242TIP3   OH264216   1.366   1.902  15.215
14242TIP3    H164217   1.406   1.988  15.203
14242TIP3    H264218   1.275   1.921  15.240
14243TIP3   OH264219   4.456   4.548  12.172
14243TIP3    H164220   4.520   4.537  12.102
14243TIP3    H264221   4.440   4.460  12.205
14244TIP3   OH264222   5.400   0.318  14.653
14244TIP3    H164223   5.483   0.315  14.605
14244TIP3    H264224   5.399   0.237  14.703
14245TIP3   OH264225   1.267   2.982   0.140
14245TIP3    H164226   1.186   3.010   0.182
14245TIP3    H264227   1.331   3.050   0.163
14246TIP3   OH264228   2.282   1.085   1.642
14246TIP3    H164229   2.339   1.149   1.600
14246TIP3    H264230   2.204   1.135   1.667
14247TIP3   OH264231   4.510   1.196  12.988
14247TIP3    H164232   4.449   1.155  13.048
14247TIP3    H264233   4.552   1.123  12.942
14248TIP3   OH264234   5.878   0.440   3.600
14248TIP3    H164235   5.942   0.512   3.600
14248TIP3    H264236   5.901   0.389   3.522
14249TIP3   OH264237   0.981   5.261  13.817
14249TIP3    H164238   0.932   5.302  13.746
14249TIP3    H264239   0.929   5.184  13.841
14250TIP3   OH264240   1.867   0.798   2.101
14250TIP3    H164241   1.889   0.878   2.053
14250TIP3    H264242   1.772   0.791   2.093
14251TIP3   OH264243   4.928   3.645   4.103
14251TIP3    H164244   4.969   3.729   4.082
14251TIP3    H264245   4.937   3.593   4.023
14252TIP3   OH264246   3.425   6.031  15.273
14252TIP3    H164247   3.444   6.020  15.366
14252TIP3    H264248   3.391   5.946  15.245
14253TIP3   OH264249   1.776   3.073   5.556
14253TIP3    H164250   1.792   2.988   5.598
14253TIP3    H264251   1.858   3.121   5.567
14254TIP3   OH264252   5.988   6.237  11.436
14254TIP3    H164253   5.913   6.179  11.423
14254TIP3    H264254   6.063   6.189  11.400
14255TIP3   OH264255   0.587   6.660  12.371
14255TIP3    H164256   0.558   6.657  12.462
14255TIP3    H264257   0.624   6.748  12.360
14256TIP3   OH264258   1.926   6.455  14.586
14256TIP3    H164259   1.881   6.516  14.644
14256TIP3    H264260   2.014   6.446  14.623
14257TIP3   OH264261   4.215   0.299  15.498
14257TIP3    H164262   4.139   0.300  15.557
14257TIP3    H264263   4.270   0.228  15.533
14258TIP3   OH264264   5.491   1.228   2.529
14258TIP3    H164265   5.423   1.282   2.569
14258TIP3    H264266   5.477   1.236   2.435
14259TIP3   OH264267   4.112   4.861   1.395
14259TIP3    H164268   4.109   4.766   1.382
14259TIP3    H264269   4.030   4.882   1.440
14260TIP3   OH264270   3.901   2.660  13.825
14260TIP3    H164271   3.968   2.727  13.809
14260TIP3    H264272   3.943   2.599  13.886
14261TIP3   OH264273   5.324   5.833  12.386
14261TIP3    H164274   5.320   5.779  12.465
14261TIP3    H264275   5.242   5.882  12.386
14262TIP3   OH264276   3.598   6.819  15.504
14262TIP3    H164277   3.559   6.838  15.589
14262TIP3    H264278   3.690   6.843  15.514
14263TIP3   OH264279   3.961   2.436  14.059
14263TIP3    H164280   4.004   2.516  14.087
14263TIP3    H264281   3.980   2.373  14.128
14264TIP3   OH264282   4.216   5.268  16.133
14264TIP3    H164283   4.161   5.289  16.208
14264TIP3    H264284   4.291   5.221  16.171
14265TIP3   OH264285   4.573   2.757  14.560
14265TIP3    H164286   4.560   2.851  14.546
14265TIP3    H264287   4.651   2.736  14.509
14266TIP3   OH264288   5.494   1.918  15.790
14266TIP3    H164289   5.497   1.862  15.867
14266TIP3    H264290   5.525   2.003  15.821
14267TIP3   OH264291   5.289   3.318   3.571
14267TIP3    H164292   5.317   3.405   3.597
14267TIP3    H264293   5.349   3.259   3.616
14268TIP3   OH264294   1.836   2.590  14.498
14268TIP3    H164295   1.759   2.575  14.443
14268TIP3    H264296   1.807   2.563  14.586
14269TIP3   OH264297   2.426   5.949  13.711
14269TIP3    H164298   2.388   6.019  13.763
14269TIP3    H264299   2.485   5.904  13.772
14270TIP3   OH264300   0.653   3.810   3.095
14270TIP3    H164301   0.731   3.797   3.040
14270TIP3    H264302   0.598   3.734   3.078
14271TIP3   OH264303   1.344   3.735  14.882
14271TIP3    H164304   1.319   3.787  14.806
14271TIP3    H264305   1.401   3.793  14.933
14272TIP3   OH264306   4.968   1.083   5.616
14272TIP3    H164307   4.982   0.990   5.599
14272TIP3    H264308   4.999   1.127   5.537
14273TIP3   OH264309   1.894   0.195  12.376
14273TIP3    H164310   1.958   0.266  12.382
14273TIP3    H264311   1.919   0.134  12.445
14274TIP3   OH264312   0.854   1.697   1.618
14274TIP3    H164313   0.927   1.745   1.659
14274TIP3    H264314   0.895   1.651   1.545
14275TIP3   OH264315   1.852   5.176  11.679
14275TIP3    H164316   1.915   5.221  11.735
14275TIP3    H264317   1.903   5.148  11.603
14276TIP3   OH264318   1.424   5.201   4.301
14276TIP3    H164319   1.492   5.179   4.237
14276TIP3    H264320   1.351   5.234   4.248
14277TIP3   OH264321   1.993   4.552  16.168
14277TIP3    H164322   1.996   4.615  16.097
14277TIP3    H264323   1.951   4.599  16.240
14278TIP3   OH264324   6.616   6.501  11.763
14278TIP3    H164325   6.547   6.539  11.818
14278TIP3    H264326   6.606   6.544  11.678
14279TIP3   OH264327   6.514   1.886  15.960
14279TIP3    H164328   6.424   1.861  15.939
14279TIP3    H264329   6.562   1.803  15.960
14280TIP3   OH264330   3.155   1.353   5.522
14280TIP3    H164331   3.247   1.326   5.517
14280TIP3    H264332   3.154   1.425   5.584
14281TIP3   OH264333   4.875   4.478  13.368
14281TIP3    H164334   4.970   4.468  13.377
14281TIP3    H264335   4.841   4.467  13.457
14282TIP3   OH264336   6.477   3.221   4.462
14282TIP3    H164337   6.570   3.199   4.455
14282TIP3    H264338   6.475   3.317   4.457
14283TIP3   OH264339   6.066   2.462   0.374
14283TIP3    H164340   6.086   2.371   0.355
14283TIP3    H264341   6.148   2.509   0.360
14284TIP3   OH264342   3.636   0.818   0.469
14284TIP3    H164343   3.599   0.729   0.470
14284TIP3    H264344   3.608   0.854   0.385
14285TIP3   OH264345   0.169   2.352   0.765
14285TIP3    H164346   0.120   2.292   0.709
14285TIP3    H264347   0.259   2.346   0.734
14286TIP3   OH264348   2.037   1.159   3.191
14286TIP3    H164349   2.110   1.170   3.251
14286TIP3    H264350   2.028   1.243   3.148
14287TIP3   OH264351   3.643   1.199  14.166
14287TIP3    H164352   3.613   1.241  14.086
14287TIP3    H264353   3.568   1.204  14.226
14288TIP3   OH264354   4.223   1.166   4.340
14288TIP3    H164355   4.256   1.178   4.429
14288TIP3    H264356   4.138   1.211   4.340
14289TIP3   OH264357   3.631   0.172  13.512
14289TIP3    H164358   3.636   0.106  13.442
14289TIP3    H264359   3.538   0.175  13.535
14290TIP3   OH264360   6.371   1.882  15.105
14290TIP3    H164361   6.339   1.923  15.185
14290TIP3    H264362   6.457   1.922  15.090
14291TIP3   OH264363   3.065   2.207  11.605
14291TIP3    H164364   3.065   2.286  11.552
14291TIP3    H264365   3.016   2.230  11.684
14292TIP3   OH264366   2.489   4.837   2.712
14292TIP3    H164367   2.407   4.854   2.758
14292TIP3    H264368   2.469   4.853   2.620
14293TIP3   OH264369   2.245   0.920  15.887
14293TIP3    H164370   2.214   1.002  15.926
14293TIP3    H264371   2.272   0.867  15.962
14294TIP3   OH264372   4.119   3.859  14.129
14294TIP3    H164373   4.104   3.771  14.096
14294TIP3    H264374   4.106   3.852  14.224
14295TIP3   OH264375   1.454   1.150   5.758
14295TIP3    H164376   1.384   1.151   5.693
14295TIP3    H264377   1.480   1.241   5.769
14296TIP3   OH264378   2.457   2.613  16.436
14296TIP3    H164379   2.474   2.641  16.346
14296TIP3    H264380   2.452   2.518  16.432
14297TIP3   OH264381   1.140   2.196  12.164
14297TIP3    H164382   1.120   2.169  12.075
14297TIP3    H264383   1.064   2.170  12.216
14298TIP3   OH264384   4.483   1.767   1.890
14298TIP3    H164385   4.434   1.690   1.860
14298TIP3    H264386   4.574   1.738   1.893
14299TIP3   OH264387   2.552   6.717   4.024
14299TIP3    H164388   2.478   6.659   4.006
14299TIP3    H264389   2.622   6.685   3.968
14300TIP3   OH264390   2.011   6.701   3.700
14300TIP3    H164391   2.042   6.774   3.647
14300TIP3    H264392   2.082   6.636   3.694
14301TIP3   OH264393   5.347   5.239   2.258
14301TIP3    H164394   5.261   5.225   2.218
14301TIP3    H264395   5.362   5.333   2.251
14302TIP3   OH264396   0.477   4.589   5.097
14302TIP3    H164397   0.493   4.638   5.178
14302TIP3    H264398   0.412   4.640   5.050
14303TIP3   OH264399   3.048   6.103  16.645
14303TIP3    H164400   3.016   6.059  16.567
14303TIP3    H264401   3.023   6.195  16.633
14304TIP3   OH264402   4.226   4.301   2.455
14304TIP3    H164403   4.203   4.369   2.519
14304TIP3    H264404   4.315   4.275   2.479
14305TIP3   OH264405   0.347   5.001  11.786
14305TIP3    H164406   0.407   5.071  11.810
14305TIP3    H264407   0.343   5.004  11.690
14306TIP3   OH264408   4.401   0.838  14.904
14306TIP3    H164409   4.425   0.929  14.920
14306TIP3    H264410   4.464   0.787  14.954
14307TIP3   OH264411   0.869   4.872  16.119
14307TIP3    H164412   0.862   4.783  16.084
14307TIP3    H264413   0.783   4.912  16.100
14308TIP3   OH264414   0.417   3.059  12.899
14308TIP3    H164415   0.492   3.110  12.866
14308TIP3    H264416   0.456   2.997  12.961
14309TIP3   OH264417   3.045   4.226  15.762
14309TIP3    H164418   3.100   4.224  15.840
14309TIP3    H264419   2.968   4.276  15.788
14310TIP3   OH264420   3.505   4.509  14.650
14310TIP3    H164421   3.423   4.528  14.604
14310TIP3    H264422   3.500   4.563  14.730
14311TIP3   OH264423   1.228   2.133  16.856
14311TIP3    H164424   1.275   2.114  16.775
14311TIP3    H264425   1.200   2.224  16.847
14312TIP3   OH264426   2.583   6.731   1.164
14312TIP3    H164427   2.542   6.657   1.119
14312TIP3    H264428   2.652   6.691   1.217
14313TIP3   OH264429   0.868   5.876   1.420
14313TIP3    H164430   0.959   5.851   1.402
14313TIP3    H264431   0.825   5.794   1.444
14314TIP3   OH264432   3.338   2.379   0.440
14314TIP3    H164433   3.269   2.352   0.380
14314TIP3    H264434   3.416   2.388   0.385
14315TIP3   OH264435   5.919   5.537   1.520
14315TIP3    H164436   5.913   5.478   1.444
14315TIP3    H264437   5.945   5.480   1.592
14316TIP3   OH264438   3.923   3.920   1.418
14316TIP3    H164439   3.939   3.963   1.503
14316TIP3    H264440   3.869   3.844   1.440
14317TIP3   OH264441   6.300   2.412  14.972
14317TIP3    H164442   6.318   2.380  15.061
14317TIP3    H264443   6.307   2.335  14.917
14318TIP3   OH264444   3.387   0.619  13.008
14318TIP3    H164445   3.317   0.678  12.981
14318TIP3    H264446   3.342   0.536  13.024
14319TIP3   OH264447   0.834   1.321  16.530
14319TIP3    H164448   0.884   1.343  16.609
14319TIP3    H264449   0.868   1.381  16.463
14320TIP3   OH264450   2.098   5.088  11.115
14320TIP3    H164451   2.055   5.017  11.067
14320TIP3    H264452   2.138   5.142  11.047
14321TIP3   OH264453   5.743   3.432   0.260
14321TIP3    H164454   5.820   3.377   0.253
14321TIP3    H264455   5.672   3.372   0.281
14322TIP3   OH264456   3.497   2.104   0.521
14322TIP3    H164457   3.499   2.059   0.436
14322TIP3    H264458   3.524   2.193   0.501
14323TIP3   OH264459   3.668   4.280  13.904
14323TIP3    H164460   3.728   4.211  13.875
14323TIP3    H264461   3.704   4.310  13.988
14324TIP3   OH264462   6.214   1.451   2.492
14324TIP3    H164463   6.217   1.367   2.539
14324TIP3    H264464   6.214   1.517   2.561
14325TIP3   OH264465   4.766   6.328  10.942
14325TIP3    H164466   4.714   6.256  10.905
14325TIP3    H264467   4.796   6.378  10.866
14326TIP3   OH264468   6.145   0.996  13.860
14326TIP3    H164469   6.084   0.934  13.820
14326TIP3    H264470   6.221   0.996  13.801
14327TIP3   OH264471   3.284   2.308   2.901
14327TIP3    H164472   3.280   2.378   2.836
14327TIP3    H264473   3.307   2.230   2.850
14328TIP3   OH264474   5.464   0.885   4.745
14328TIP3    H164475   5.504   0.967   4.776
14328TIP3    H264476   5.457   0.896   4.651
14329TIP3   OH264477   4.712   3.476  12.523
14329TIP3    H164478   4.623   3.506  12.503
14329TIP3    H264479   4.730   3.408  12.459
14330TIP3   OH264480   6.493   3.523  16.384
14330TIP3    H164481   6.569   3.512  16.442
14330TIP3    H264482   6.430   3.459  16.415
14331TIP3   OH264483   2.500   0.444   5.690
14331TIP3    H164484   2.505   0.511   5.622
14331TIP3    H264485   2.586   0.444   5.731
14332TIP3   OH264486   0.622   1.537   5.592
14332TIP3    H164487   0.665   1.521   5.676
14332TIP3    H264488   0.575   1.619   5.605
14333TIP3   OH264489   0.661   1.563   1.760
14333TIP3    H164490   0.711   1.613   1.695
14333TIP3    H264491   0.727   1.507   1.801
14334TIP3   OH264492   3.566   6.566   3.846
14334TIP3    H164493   3.587   6.601   3.759
14334TIP3    H264494   3.554   6.472   3.831
14335TIP3   OH264495   6.207   2.080   2.579
14335TIP3    H164496   6.167   2.161   2.610
14335TIP3    H264497   6.190   2.016   2.648
14336TIP3   OH264498   5.827   4.988  12.739
14336TIP3    H164499   5.911   5.005  12.782
14336TIP3    H264500   5.834   4.899  12.707
14337TIP3   OH264501   1.059   0.426   5.488
14337TIP3    H164502   0.986   0.373   5.521
14337TIP3    H264503   1.136   0.370   5.500
14338TIP3   OH264504   1.508   0.537  17.133
14338TIP3    H164505   1.588   0.525  17.183
14338TIP3    H264506   1.438   0.526  17.196
14339TIP3   OH264507   2.728   6.715   0.198
14339TIP3    H164508   2.711   6.705   0.291
14339TIP3    H264509   2.762   6.804   0.189
14340TIP3   OH264510   4.608   6.610   4.586
14340TIP3    H164511   4.520   6.583   4.558
14340TIP3    H264512   4.620   6.697   4.549
14341TIP3   OH264513   6.006   3.824  15.922
14341TIP3    H164514   6.064   3.839  15.847
14341TIP3    H264515   6.058   3.849  15.998
14342TIP3   OH264516   3.504   2.904   5.640
14342TIP3    H164517   3.524   2.888   5.548
14342TIP3    H264518   3.426   2.850   5.657
14343TIP3   OH264519   0.638   4.107   0.405
14343TIP3    H164520   0.557   4.058   0.390
14343TIP3    H264521   0.624   4.152   0.488
14344TIP3   OH264522   1.252   1.786   5.178
14344TIP3    H164523   1.197   1.766   5.254
14344TIP3    H264524   1.195   1.836   5.119
14345TIP3   OH264525   2.129   4.136  12.060
14345TIP3    H164526   2.112   4.120  12.152
14345TIP3    H264527   2.054   4.095  12.015
14346TIP3   OH264528   4.620   3.442   5.180
14346TIP3    H164529   4.612   3.390   5.100
14346TIP3    H264530   4.712   3.432   5.206
14347TIP3   OH264531   4.748   1.023   5.301
14347TIP3    H164532   4.740   0.930   5.319
14347TIP3    H264533   4.752   1.064   5.387
14348TIP3   OH264534   3.144   5.171  14.330
14348TIP3    H164535   3.122   5.179  14.423
14348TIP3    H264536   3.104   5.248  14.289
14349TIP3   OH264537   2.301   1.015   5.582
14349TIP3    H164538   2.337   0.929   5.606
14349TIP3    H264539   2.376   1.074   5.588
14350TIP3   OH264540   6.263   1.674  16.239
14350TIP3    H164541   6.350   1.700  16.270
14350TIP3    H264542   6.271   1.580  16.221
14351TIP3   OH264543   0.746   0.291   1.339
14351TIP3    H164544   0.771   0.344   1.415
14351TIP3    H264545   0.700   0.216   1.377
14352TIP3   OH264546   4.229   0.805  12.868
14352TIP3    H164547   4.317   0.788  12.900
14352TIP3    H264548   4.240   0.823  12.775
14353TIP3   OH264549   1.191   2.401   3.413
14353TIP3    H164550   1.103   2.421   3.382
14353TIP3    H264551   1.178   2.344   3.489
14354TIP3   OH264552   6.091   0.584  11.836
14354TIP3    H164553   6.140   0.530  11.898
14354TIP3    H264554   6.020   0.621  11.887
14355TIP3   OH264555   5.394   0.112   3.548
14355TIP3    H164556   5.381   0.193   3.498
14355TIP3    H264557   5.338   0.048   3.503
14356TIP3   OH264558   3.033   3.016  17.209
14356TIP3    H164559   3.001   3.086  17.151
14356TIP3    H264560   2.963   2.951  17.209
14357TIP3   OH264561   4.805   1.698   3.895
14357TIP3    H164562   4.745   1.767   3.922
14357TIP3    H264563   4.785   1.683   3.803
14358TIP3   OH264564   2.538   6.630   6.236
14358TIP3    H164565   2.485   6.687   6.292
14358TIP3    H264566   2.479   6.560   6.209
14359TIP3   OH264567   4.142   0.315  13.610
14359TIP3    H164568   4.160   0.282  13.522
14359TIP3    H264569   4.085   0.249  13.649
14360TIP3   OH264570   3.266   1.080   5.612
14360TIP3    H164571   3.208   1.004   5.613
14360TIP3    H264572   3.353   1.044   5.633
14361TIP3   OH264573   0.181   2.477  11.023
14361TIP3    H164574   0.130   2.516  11.095
14361TIP3    H264575   0.134   2.502  10.944
14362TIP3   OH264576   3.862   1.823  14.888
14362TIP3    H164577   3.877   1.749  14.830
14362TIP3    H264578   3.854   1.898  14.830
14363TIP3   OH264579   0.171   3.719   3.779
14363TIP3    H164580   0.243   3.774   3.749
14363TIP3    H264581   0.213   3.651   3.832
14364TIP3   OH264582   5.620   4.978  11.224
14364TIP3    H164583   5.647   4.960  11.134
14364TIP3    H264584   5.615   5.074  11.228
14365TIP3   OH264585   6.142   4.648  14.716
14365TIP3    H164586   6.211   4.583  14.713
14365TIP3    H264587   6.187   4.731  14.732
14366TIP3   OH264588   2.104   1.320  16.621
14366TIP3    H164589   2.025   1.353  16.578
14366TIP3    H264590   2.175   1.341  16.561
14367TIP3   OH264591   3.212   6.057   1.929
14367TIP3    H164592   3.259   6.141   1.937
14367TIP3    H264593   3.121   6.078   1.951
14368TIP3   OH264594   4.526   3.773   1.560
14368TIP3    H164595   4.441   3.770   1.516
14368TIP3    H264596   4.578   3.833   1.506
14369TIP3   OH264597   0.380   3.456   2.806
14369TIP3    H164598   0.384   3.378   2.862
14369TIP3    H264599   0.289   3.486   2.814
14370TIP3   OH264600   3.972   0.109  17.149
14370TIP3    H164601   3.987   0.016  17.166
14370TIP3    H264602   3.894   0.111  17.093
14371TIP3   OH264603   3.302   2.834  11.640
14371TIP3    H164604   3.393   2.819  11.663
14371TIP3    H264605   3.259   2.852  11.723
14372TIP3   OH264606   3.834   5.864  15.230
14372TIP3    H164607   3.758   5.901  15.184
14372TIP3    H264608   3.862   5.791  15.176
14373TIP3   OH264609   1.269   0.503   5.220
14373TIP3    H164610   1.213   0.427   5.205
14373TIP3    H264611   1.268   0.551   5.137
14374TIP3   OH264612   2.257   3.104   2.880
14374TIP3    H164613   2.270   3.080   2.788
14374TIP3    H264614   2.162   3.098   2.893
14375TIP3   OH264615   2.779   0.845  12.770
14375TIP3    H164616   2.687   0.844  12.797
14375TIP3    H264617   2.794   0.758  12.733
14376TIP3   OH264618   4.373   3.831   1.789
14376TIP3    H164619   4.427   3.837   1.710
14376TIP3    H264620   4.298   3.888   1.770
14377TIP3   OH264621   1.713   6.076  10.789
14377TIP3    H164622   1.718   6.171  10.797
14377TIP3    H264623   1.762   6.043  10.864
14378TIP3   OH264624   2.550   6.679  16.429
14378TIP3    H164625   2.465   6.672  16.473
14378TIP3    H264626   2.537   6.747  16.362
14379TIP3   OH264627   2.112   4.324  11.393
14379TIP3    H164628   2.137   4.296  11.305
14379TIP3    H264629   2.172   4.278  11.451
14380TIP3   OH264630   2.516   0.141  10.923
14380TIP3    H164631   2.551   0.057  10.953
14380TIP3    H264632   2.587   0.179  10.871
14381TIP3   OH264633   6.261   4.022   3.363
14381TIP3    H164634   6.238   4.102   3.315
14381TIP3    H264635   6.347   4.042   3.401
14382TIP3   OH264636   3.651   6.482  11.485
14382TIP3    H164637   3.565   6.447  11.464
14382TIP3    H264638   3.709   6.406  11.486
14383TIP3   OH264639   4.812   1.264  12.728
14383TIP3    H164640   4.823   1.306  12.814
14383TIP3    H264641   4.743   1.199  12.742
14384TIP3   OH264642   2.024   5.396   4.922
14384TIP3    H164643   1.947   5.396   4.979
14384TIP3    H264644   2.039   5.488   4.901
14385TIP3   OH264645   1.642   5.364  15.424
14385TIP3    H164646   1.644   5.349  15.519
14385TIP3    H264647   1.731   5.345  15.396
14386TIP3   OH264648   2.654   4.675   5.986
14386TIP3    H164649   2.731   4.717   6.025
14386TIP3    H264650   2.583   4.738   5.997
14387TIP3   OH264651   0.126   1.113  11.937
14387TIP3    H164652   0.137   1.184  11.999
14387TIP3    H264653   0.091   1.041  11.989
14388TIP3   OH264654   0.958   5.458  13.008
14388TIP3    H164655   1.015   5.519  12.962
14388TIP3    H264656   1.018   5.402  13.057
14389TIP3   OH264657   2.669   3.190   3.374
14389TIP3    H164658   2.665   3.227   3.285
14389TIP3    H264659   2.656   3.096   3.361
14390TIP3   OH264660   5.918   1.873  16.830
14390TIP3    H164661   5.835   1.842  16.867
14390TIP3    H264662   5.895   1.910  16.745
14391TIP3   OH264663   3.928   6.721  16.459
14391TIP3    H164664   4.010   6.769  16.447
14391TIP3    H264665   3.895   6.750  16.543
14392TIP3   OH264666   5.888   2.115  15.682
14392TIP3    H164667   5.831   2.061  15.629
14392TIP3    H264668   5.963   2.059  15.702
14393TIP3   OH264669   0.812   4.995  16.745
14393TIP3    H164670   0.796   4.919  16.688
14393TIP3    H264671   0.843   5.063  16.685
14394TIP3   OH264672   5.940   4.733   2.194
14394TIP3    H164673   5.911   4.822   2.174
14394TIP3    H264674   5.877   4.701   2.258
14395TIP3   OH264675   0.271   3.648   0.630
14395TIP3    H164676   0.203   3.678   0.690
14395TIP3    H264677   0.266   3.553   0.635
14396TIP3   OH264678   2.728   5.565   0.464
14396TIP3    H164679   2.644   5.606   0.485
14396TIP3    H264680   2.773   5.558   0.548
14397TIP3   OH264681   1.859   2.556  16.496
14397TIP3    H164682   1.900   2.515  16.420
14397TIP3    H264683   1.831   2.482  16.551
14398TIP3   OH264684   2.826   0.518  12.246
14398TIP3    H164685   2.893   0.513  12.179
14398TIP3    H264686   2.874   0.527  12.328
14399TIP3   OH264687   2.890   6.659  17.249
14399TIP3    H164688   2.983   6.658  17.269
14399TIP3    H264689   2.850   6.707  17.322
14400TIP3   OH264690   5.401   2.095   2.522
14400TIP3    H164691   5.450   2.170   2.488
14400TIP3    H264692   5.414   2.100   2.617
14401TIP3   OH264693   3.598   4.894   2.049
14401TIP3    H164694   3.622   4.963   1.986
14401TIP3    H264695   3.599   4.813   1.997
14402TIP3   OH264696   6.433   6.692   2.372
14402TIP3    H164697   6.413   6.746   2.448
14402TIP3    H264698   6.501   6.633   2.402
14403TIP3   OH264699   2.148   2.975   1.157
14403TIP3    H164700   2.152   2.902   1.219
14403TIP3    H264701   2.149   2.934   1.071
14404TIP3   OH264702   4.259   4.224  13.194
14404TIP3    H164703   4.177   4.204  13.149
14404TIP3    H264704   4.262   4.162  13.266
14405TIP3   OH264705   3.006   2.942  14.668
14405TIP3    H164706   3.032   2.912  14.580
14405TIP3    H264707   3.023   3.036  14.667
14406TIP3   OH264708   2.643   1.565  14.829
14406TIP3    H164709   2.686   1.624  14.891
14406TIP3    H264710   2.563   1.610  14.803
14407TIP3   OH264711   2.997   4.692  15.386
14407TIP3    H164712   2.950   4.674  15.467
14407TIP3    H264713   2.930   4.691  15.318
14408TIP3   OH264714   1.683   2.964  12.553
14408TIP3    H164715   1.775   2.992  12.547
14408TIP3    H264716   1.649   3.008  12.631
14409TIP3   OH264717   2.780   4.070  11.655
14409TIP3    H164718   2.705   4.048  11.712
14409TIP3    H264719   2.740   4.111  11.579
14410TIP3   OH264720   5.851   3.069  14.774
14410TIP3    H164721   5.809   2.991  14.810
14410TIP3    H264722   5.915   3.036  14.711
14411TIP3   OH264723   5.245   1.907   2.017
14411TIP3    H164724   5.165   1.921   2.066
14411TIP3    H264725   5.216   1.876   1.931
14412TIP3   OH264726   3.771   4.771  11.490
14412TIP3    H164727   3.725   4.742  11.411
14412TIP3    H264728   3.822   4.846  11.462
14413TIP3   OH264729   5.561   4.955  14.854
14413TIP3    H164730   5.614   4.905  14.916
14413TIP3    H264731   5.471   4.929  14.874
14414TIP3   OH264732   1.780   5.748   3.645
14414TIP3    H164733   1.763   5.654   3.653
14414TIP3    H264734   1.855   5.753   3.585
14415TIP3   OH264735   2.596   2.005  15.161
14415TIP3    H164736   2.544   2.077  15.127
14415TIP3    H264737   2.543   1.970  15.233
14416TIP3   OH264738   2.404   4.174  14.006
14416TIP3    H164739   2.488   4.154  13.964
14416TIP3    H264740   2.344   4.189  13.933
14417TIP3   OH264741   1.740   2.924  15.927
14417TIP3    H164742   1.733   3.017  15.906
14417TIP3    H264743   1.654   2.901  15.962
14418TIP3   OH264744   3.074   5.751  11.829
14418TIP3    H164745   3.053   5.717  11.742
14418TIP3    H264746   3.045   5.842  11.827
14419TIP3   OH264747   6.160   3.538  12.452
14419TIP3    H164748   6.244   3.494  12.439
14419TIP3    H264749   6.174   3.627  12.421
14420TIP3   OH264750   5.790   6.804  17.270
14420TIP3    H164751   5.698   6.829  17.279
14420TIP3    H264752   5.795   6.717  17.310
14421TIP3   OH264753   6.056   0.851  13.541
14421TIP3    H164754   5.971   0.818  13.511
14421TIP3    H264755   6.053   0.839  13.636
14422TIP3   OH264756   3.755   0.581   4.981
14422TIP3    H164757   3.689   0.589   5.050
14422TIP3    H264758   3.773   0.488   4.975
14423TIP3   OH264759   3.460   5.769   0.991
14423TIP3    H164760   3.534   5.798   1.045
14423TIP3    H264761   3.466   5.674   0.991
14424TIP3   OH264762   4.180   2.917  13.207
14424TIP3    H164763   4.156   2.866  13.285
14424TIP3    H264764   4.276   2.923  13.212
14425TIP3   OH264765   0.387   4.761   5.964
14425TIP3    H164766   0.344   4.843   5.988
14425TIP3    H264767   0.345   4.734   5.883
14426TIP3   OH264768   1.252   0.689   5.021
14426TIP3    H164769   1.333   0.664   4.976
14426TIP3    H264770   1.182   0.646   4.971
14427TIP3   OH264771   6.657   0.719  16.063
14427TIP3    H164772   6.583   0.689  16.117
14427TIP3    H264773   6.715   0.643  16.058
14428TIP3   OH264774   3.080   2.427  11.449
14428TIP3    H164775   3.054   2.435  11.357
14428TIP3    H264776   3.170   2.461  11.452
14429TIP3   OH264777   6.100   2.567  15.221
14429TIP3    H164778   6.082   2.653  15.258
14429TIP3    H264779   6.014   2.532  15.197
14430TIP3   OH264780   1.087   1.490  10.721
14430TIP3    H164781   1.058   1.540  10.644
14430TIP3    H264782   1.007   1.447  10.752
14431TIP3   OH264783   5.003   2.927   3.570
14431TIP3    H164784   5.017   2.886   3.655
14431TIP3    H264785   5.063   3.001   3.568
14432TIP3   OH264786   6.722   6.331   0.771
14432TIP3    H164787   6.762   6.245   0.757
14432TIP3    H264788   6.777   6.373   0.837
14433TIP3   OH264789   6.479   1.915  13.174
14433TIP3    H164790   6.479   1.876  13.261
14433TIP3    H264791   6.486   2.009  13.189
14434TIP3   OH264792   4.548   4.553  13.009
14434TIP3    H164793   4.553   4.572  13.102
14434TIP3    H264794   4.455   4.542  12.991
14435TIP3   OH264795   4.132   2.049   4.099
14435TIP3    H164796   4.154   2.092   4.016
14435TIP3    H264797   4.039   2.027   4.091
14436TIP3   OH264798   6.149   3.388   0.463
14436TIP3    H164799   6.154   3.387   0.367
14436TIP3    H264800   6.118   3.476   0.485
14437TIP3   OH264801   0.991   5.561  16.435
14437TIP3    H164802   0.987   5.471  16.402
14437TIP3    H264803   0.908   5.601  16.407
14438TIP3   OH264804   2.901   0.715   2.166
14438TIP3    H164805   2.879   0.770   2.091
14438TIP3    H264806   2.928   0.776   2.234
14439TIP3   OH264807   4.042   3.415  11.139
14439TIP3    H164808   3.976   3.468  11.096
14439TIP3    H264809   4.036   3.439  11.232
14440TIP3   OH264810   5.614   5.128  12.862
14440TIP3    H164811   5.693   5.095  12.819
14440TIP3    H264812   5.555   5.053  12.865
14441TIP3   OH264813   0.049   5.566   3.396
14441TIP3    H164814   0.085   5.645   3.356
14441TIP3    H264815   0.016   5.594   3.481
14442TIP3   OH264816   0.278   0.859  17.199
14442TIP3    H164817   0.248   0.941  17.240
14442TIP3    H264818   0.200   0.826  17.154
14443TIP3   OH264819   1.708   6.274  12.360
14443TIP3    H164820   1.717   6.242  12.270
14443TIP3    H264821   1.642   6.217  12.400
14444TIP3   OH264822   4.828   3.098  16.453
14444TIP3    H164823   4.869   3.182  16.431
14444TIP3    H264824   4.798   3.108  16.543
14445TIP3   OH264825   4.508   1.604  12.287
14445TIP3    H164826   4.560   1.662  12.232
14445TIP3    H264827   4.501   1.522  12.237
14446TIP3   OH264828   4.777   1.023   0.034
14446TIP3    H164829   4.781   1.006  -0.060
14446TIP3    H264830   4.738   0.944   0.071
14447TIP3   OH264831   5.297   2.241  16.469
14447TIP3    H164832   5.314   2.149  16.487
14447TIP3    H264833   5.251   2.242  16.385
14448TIP3   OH264834   4.782   1.385  11.994
14448TIP3    H164835   4.809   1.444  12.065
14448TIP3    H264836   4.806   1.297  12.027
14449TIP3   OH264837   1.206   2.679  17.178
14449TIP3    H164838   1.214   2.680  17.274
14449TIP3    H264839   1.209   2.586  17.155
14450TIP3   OH264840   1.484   3.322  13.129
14450TIP3    H164841   1.479   3.328  13.034
14450TIP3    H264842   1.576   3.340  13.150
14451TIP3   OH264843   3.550   3.338  13.094
14451TIP3    H164844   3.507   3.252  13.101
14451TIP3    H264845   3.486   3.394  13.051
14452TIP3   OH264846   2.139   1.069  11.074
14452TIP3    H164847   2.079   1.020  11.131
14452TIP3    H264848   2.210   1.007  11.056
14453TIP3   OH264849   3.927   5.285   4.705
14453TIP3    H164850   3.953   5.307   4.794
14453TIP3    H264851   4.002   5.312   4.651
14454TIP3   OH264852   4.632   4.413  10.638
14454TIP3    H164853   4.683   4.338  10.607
14454TIP3    H264854   4.563   4.424  10.573
14455TIP3   OH264855   3.711   3.811   0.307
14455TIP3    H164856   3.664   3.771   0.234
14455TIP3    H264857   3.801   3.779   0.297
14456TIP3   OH264858   3.408   2.506  15.708
14456TIP3    H164859   3.464   2.571  15.751
14456TIP3    H264860   3.324   2.514  15.752
14457TIP3   OH264861   3.548   5.374   4.141
14457TIP3    H164862   3.549   5.316   4.217
14457TIP3    H264863   3.633   5.418   4.143
14458TIP3   OH264864   2.653   3.181   2.633
14458TIP3    H164865   2.732   3.139   2.599
14458TIP3    H264866   2.648   3.152   2.724
14459TIP3   OH264867   6.230   1.750   3.134
14459TIP3    H164868   6.295   1.792   3.189
14459TIP3    H264869   6.250   1.656   3.139
14460TIP3   OH264870   2.728   5.482  12.822
14460TIP3    H164871   2.685   5.407  12.866
14460TIP3    H264872   2.821   5.461  12.824
14461TIP3   OH264873   6.425   0.387   1.885
14461TIP3    H164874   6.488   0.448   1.848
14461TIP3    H264875   6.366   0.442   1.937
14462TIP3   OH264876   2.525   2.269   2.727
14462TIP3    H164877   2.509   2.266   2.822
14462TIP3    H264878   2.599   2.211   2.714
14463TIP3   OH264879   6.539   3.378   5.114
14463TIP3    H164880   6.476   3.389   5.185
14463TIP3    H264881   6.572   3.289   5.125
14464TIP3   OH264882   2.292   0.871   3.328
14464TIP3    H164883   2.358   0.806   3.350
14464TIP3    H264884   2.212   0.821   3.314
14465TIP3   OH264885   1.104   0.297   0.048
14465TIP3    H164886   1.035   0.346   0.004
14465TIP3    H264887   1.058   0.233   0.102
14466TIP3   OH264888   0.874   1.521   1.959
14466TIP3    H164889   0.897   1.586   2.025
14466TIP3    H264890   0.956   1.500   1.916
14467TIP3   OH264891   6.203   0.449  12.038
14467TIP3    H164892   6.186   0.411  12.124
14467TIP3    H264893   6.288   0.414  12.012
14468TIP3   OH264894   5.530   1.392  15.616
14468TIP3    H164895   5.435   1.393  15.618
14468TIP3    H264896   5.553   1.396  15.523
14469TIP3   OH264897   5.338   1.060  13.659
14469TIP3    H164898   5.356   0.970  13.633
14469TIP3    H264899   5.343   1.058  13.755
14470TIP3   OH264900   2.778   4.256   5.701
14470TIP3    H164901   2.684   4.243   5.695
14470TIP3    H264902   2.812   4.224   5.618
14471TIP3   OH264903   1.326   2.458   0.193
14471TIP3    H164904   1.418   2.443   0.214
14471TIP3    H264905   1.323   2.549   0.164
14472TIP3   OH264906   3.262   1.061  11.346
14472TIP3    H164907   3.249   1.019  11.431
14472TIP3    H264908   3.302   0.993  11.291
14473TIP3   OH264909   4.355   0.649   4.102
14473TIP3    H164910   4.389   0.708   4.169
14473TIP3    H264911   4.288   0.699   4.057
14474TIP3   OH264912   4.401   1.314   3.742
14474TIP3    H164913   4.373   1.267   3.821
14474TIP3    H264914   4.461   1.255   3.697
14475TIP3   OH264915   5.678   1.389  14.424
14475TIP3    H164916   5.738   1.444  14.474
14475TIP3    H264917   5.705   1.400  14.333
14476TIP3   OH264918   3.289   4.342  10.982
14476TIP3    H164919   3.252   4.357  11.068
14476TIP3    H264920   3.216   4.351  10.922
14477TIP3   OH264921   6.715   0.393  14.632
14477TIP3    H164922   6.702   0.301  14.654
14477TIP3    H264923   6.783   0.423  14.693
14478TIP3   OH264924   6.151   5.848   4.431
14478TIP3    H164925   6.133   5.826   4.522
14478TIP3    H264926   6.183   5.939   4.434
14479TIP3   OH264927   2.465   6.302   2.175
14479TIP3    H164928   2.558   6.320   2.188
14479TIP3    H264929   2.431   6.286   2.263
14480TIP3   OH264930   2.866   4.663  16.536
14480TIP3    H164931   2.805   4.729  16.567
14480TIP3    H264932   2.899   4.698  16.453
14481TIP3   OH264933   0.929   6.088  12.651
14481TIP3    H164934   0.865   6.080  12.721
14481TIP3    H264935   1.010   6.113  12.695
14482TIP3   OH264936   2.282   3.945  14.714
14482TIP3    H164937   2.214   3.880  14.698
14482TIP3    H264938   2.270   3.971  14.805
14483TIP3   OH264939   0.492   3.666  16.662
14483TIP3    H164940   0.523   3.714  16.585
14483TIP3    H264941   0.546   3.587  16.664
14484TIP3   OH264942   1.345   6.033   6.516
14484TIP3    H164943   1.250   6.032   6.519
14484TIP3    H264944   1.372   5.945   6.541
14485TIP3   OH264945   4.266   3.876  11.582
14485TIP3    H164946   4.203   3.900  11.650
14485TIP3    H264947   4.344   3.847  11.629
14486TIP3   OH264948   2.117   4.870  15.608
14486TIP3    H164949   2.069   4.909  15.681
14486TIP3    H264950   2.079   4.909  15.530
14487TIP3   OH264951   6.713   6.625  16.857
14487TIP3    H164952   6.790   6.673  16.826
14487TIP3    H264953   6.667   6.687  16.912
14488TIP3   OH264954   4.461   3.383   2.253
14488TIP3    H164955   4.537   3.440   2.261
14488TIP3    H264956   4.451   3.367   2.159
14489TIP3   OH264957   2.809   3.169   4.406
14489TIP3    H164958   2.870   3.195   4.337
14489TIP3    H264959   2.722   3.184   4.368
14490TIP3   OH264960   5.154   3.028  15.343
14490TIP3    H164961   5.114   3.041  15.257
14490TIP3    H264962   5.093   2.972  15.390
14491TIP3   OH264963   0.614   0.751  16.854
14491TIP3    H164964   0.527   0.750  16.894
14491TIP3    H264965   0.607   0.692  16.779
14492TIP3   OH264966   1.465   4.970  10.503
14492TIP3    H164967   1.540   5.025  10.522
14492TIP3    H264968   1.502   4.885  10.479
14493TIP3   OH264969   5.995   5.367  16.801
14493TIP3    H164970   5.900   5.366  16.798
14493TIP3    H264971   6.016   5.388  16.892
14494TIP3   OH264972   2.875   0.188   4.373
14494TIP3    H164973   2.927   0.266   4.351
14494TIP3    H264974   2.936   0.115   4.362
14495TIP3   OH264975   5.102   4.214   5.936
14495TIP3    H164976   5.022   4.262   5.916
14495TIP3    H264977   5.126   4.173   5.852
14496TIP3   OH264978   1.102   6.070   2.826
14496TIP3    H164979   1.118   6.109   2.740
14496TIP3    H264980   1.033   6.006   2.811
14497TIP3   OH264981   4.555   5.669   2.056
14497TIP3    H164982   4.626   5.729   2.077
14497TIP3    H264983   4.554   5.665   1.960
14498TIP3   OH264984   5.817   0.914  16.439
14498TIP3    H164985   5.842   0.879  16.353
14498TIP3    H264986   5.873   0.867  16.501
14499TIP3   OH264987   1.123   4.244   5.216
14499TIP3    H164988   1.148   4.313   5.155
14499TIP3    H264989   1.128   4.163   5.164
14500TIP3   OH264990   4.919   3.983  12.720
14500TIP3    H164991   4.886   4.073  12.713
14500TIP3    H264992   4.871   3.945  12.793
14501TIP3   OH264993   0.801   0.970   5.676
14501TIP3    H164994   0.756   0.924   5.747
14501TIP3    H264995   0.880   1.006   5.717
14502TIP3   OH264996   1.285   2.721   0.158
14502TIP3    H164997   1.254   2.704   0.247
14502TIP3    H264998   1.272   2.815   0.146
14503TIP3   OH264999   5.240   3.786   4.523
14503TIP3    H165000   5.298   3.794   4.447
14503TIP3    H265001   5.153   3.769   4.485
14504TIP3   OH265002   1.801   3.290  12.660
14504TIP3    H165003   1.845   3.236  12.726
14504TIP3    H265004   1.819   3.246  12.577
14505TIP3   OH265005   0.855   3.869  12.936
14505TIP3    H165006   0.894   3.786  12.960
14505TIP3    H265007   0.869   3.876  12.841
14506TIP3   OH265008   5.286   0.919  11.383
14506TIP3    H165009   5.197   0.910  11.349
14506TIP3    H265010   5.280   0.891  11.474
14507TIP3   OH265011   6.038   3.426  11.710
14507TIP3    H165012   5.990   3.505  11.736
14507TIP3    H265013   6.125   3.458  11.687
14508TIP3   OH265014   5.825   5.843  16.077
14508TIP3    H165015   5.809   5.828  15.984
14508TIP3    H265016   5.906   5.893  16.080
14509TIP3   OH265017   0.986   6.251   1.166
14509TIP3    H165018   1.057   6.195   1.133
14509TIP3    H265019   0.971   6.314   1.096
14510TIP3   OH265020   6.773   0.671   5.153
14510TIP3    H165021   6.699   0.726   5.130
14510TIP3    H265022   6.803   0.705   5.237
14511TIP3   OH265023   6.491   4.305   0.732
14511TIP3    H165024   6.400   4.304   0.762
14511TIP3    H265025   6.539   4.256   0.798
14512TIP3   OH265026   6.606   6.184  12.400
14512TIP3    H165027   6.567   6.248  12.341
14512TIP3    H265028   6.576   6.100  12.367
14513TIP3   OH265029   1.351   3.411   1.611
14513TIP3    H165030   1.420   3.422   1.546
14513TIP3    H265031   1.385   3.454   1.690
14514TIP3   OH265032   0.035   3.410   2.286
14514TIP3    H165033   0.075   3.329   2.255
14514TIP3    H265034   0.102   3.451   2.341
14515TIP3   OH265035   2.995   6.549  14.145
14515TIP3    H165036   3.089   6.542  14.164
14515TIP3    H265037   2.985   6.636  14.108
14516TIP3   OH265038   5.304   6.788  14.540
14516TIP3    H165039   5.222   6.835  14.555
14516TIP3    H265040   5.280   6.717  14.479
14517TIP3   OH265041   6.721   1.491   0.243
14517TIP3    H165042   6.771   1.441   0.308
14517TIP3    H265043   6.731   1.582   0.270
14518TIP3   OH265044   4.422   4.889  11.430
14518TIP3    H165045   4.397   4.850  11.346
14518TIP3    H265046   4.341   4.929  11.462
14519TIP3   OH265047   2.408   4.928   0.968
14519TIP3    H165048   2.440   4.957   0.883
14519TIP3    H265049   2.439   4.838   0.976
14520TIP3   OH265050   0.615   6.710   0.384
14520TIP3    H165051   0.621   6.616   0.400
14520TIP3    H265052   0.610   6.718   0.289
14521TIP3   OH265053   5.153   0.292   4.940
14521TIP3    H165054   5.081   0.265   4.883
14521TIP3    H265055   5.195   0.210   4.966
14522TIP3   OH265056   2.891   4.128  14.233
14522TIP3    H165057   2.883   4.210  14.185
14522TIP3    H265058   2.801   4.100  14.249
14523TIP3   OH265059   2.356   0.399  11.523
14523TIP3    H165060   2.278   0.357  11.487
14523TIP3    H265061   2.421   0.392  11.453
14524TIP3   OH265062   2.202   3.334  10.502
14524TIP3    H165063   2.179   3.260  10.557
14524TIP3    H265064   2.134   3.399  10.519
14525TIP3   OH265065   1.787   1.335   6.459
14525TIP3    H165066   1.863   1.363   6.408
14525TIP3    H265067   1.715   1.390   6.427
14526TIP3   OH265068   5.586   5.695  14.394
14526TIP3    H165069   5.630   5.646  14.324
14526TIP3    H265070   5.526   5.631  14.432
14527TIP3   OH265071   4.744   4.746  15.689
14527TIP3    H165072   4.712   4.682  15.752
14527TIP3    H265073   4.730   4.831  15.732
14528TIP3   OH265074   1.846   3.816  12.818
14528TIP3    H165075   1.875   3.865  12.741
14528TIP3    H265076   1.822   3.730  12.784
14529TIP3   OH265077   0.696   3.450   1.133
14529TIP3    H165078   0.783   3.435   1.170
14529TIP3    H265079   0.683   3.378   1.072
14530TIP3   OH265080   5.981   1.104  14.689
14530TIP3    H165081   5.912   1.170  14.700
14530TIP3    H265082   5.936   1.030  14.650
14531TIP3   OH265083   1.904   2.803   4.572
14531TIP3    H165084   1.975   2.867   4.574
14531TIP3    H265085   1.914   2.757   4.489
14532TIP3   OH265086   3.450   4.173  12.717
14532TIP3    H165087   3.422   4.234  12.786
14532TIP3    H265088   3.544   4.186  12.711
14533TIP3   OH265089   1.396   1.596  13.299
14533TIP3    H165090   1.410   1.590  13.393
14533TIP3    H265091   1.410   1.507  13.267
14534TIP3   OH265092   4.855   2.732   4.847
14534TIP3    H165093   4.834   2.758   4.757
14534TIP3    H265094   4.912   2.802   4.879
14535TIP3   OH265095   1.375   4.628  13.269
14535TIP3    H165096   1.455   4.575  13.256
14535TIP3    H265097   1.403   4.718  13.254
14536TIP3   OH265098   3.288   0.781   3.670
14536TIP3    H165099   3.241   0.729   3.604
14536TIP3    H265100   3.219   0.833   3.712
14537TIP3   OH265101   6.173   5.559   2.227
14537TIP3    H165102   6.106   5.572   2.160
14537TIP3    H265103   6.138   5.490   2.283
14538TIP3   OH265104   0.264   2.652   2.779
14538TIP3    H165105   0.181   2.611   2.805
14538TIP3    H265106   0.261   2.652   2.683
14539TIP3   OH265107   5.756   2.875   2.928
14539TIP3    H165108   5.661   2.882   2.939
14539TIP3    H265109   5.767   2.800   2.870
14540TIP3   OH265110   5.971   6.688   4.980
14540TIP3    H165111   6.039   6.662   4.917
14540TIP3    H265112   5.913   6.745   4.929
14541TIP3   OH265113   1.180   1.458  14.161
14541TIP3    H165114   1.184   1.424  14.251
14541TIP3    H265115   1.199   1.382  14.106
14542TIP3   OH265116   5.304   0.997   2.774
14542TIP3    H165117   5.219   1.038   2.758
14542TIP3    H265118   5.315   0.936   2.701
14543TIP3   OH265119   3.353   4.695  13.882
14543TIP3    H165120   3.299   4.696  13.803
14543TIP3    H265121   3.416   4.623  13.867
14544TIP3   OH265122   1.939   2.443  16.267
14544TIP3    H165123   1.985   2.360  16.254
14544TIP3    H265124   1.866   2.440  16.205
14545TIP3   OH265125   3.632   1.577  14.111
14545TIP3    H165126   3.676   1.531  14.039
14545TIP3    H265127   3.701   1.629  14.152
14546TIP3   OH265128   6.006   5.491   4.017
14546TIP3    H165129   6.013   5.580   4.052
14546TIP3    H265130   5.951   5.499   3.940
14547TIP3   OH265131   4.997   6.138   1.163
14547TIP3    H165132   5.005   6.214   1.105
14547TIP3    H265133   5.086   6.127   1.199
14548TIP3   OH265134   3.955   5.906   0.761
14548TIP3    H165135   4.030   5.966   0.758
14548TIP3    H265136   3.989   5.829   0.806
14549TIP3   OH265137   4.034   4.682   2.296
14549TIP3    H165138   4.048   4.668   2.202
14549TIP3    H265139   3.939   4.677   2.308
14550TIP3   OH265140   6.139   1.794   1.001
14550TIP3    H165141   6.139   1.839   0.917
14550TIP3    H265142   6.117   1.704   0.981
14551TIP3   OH265143   1.871   0.317  14.789
14551TIP3    H165144   1.918   0.387  14.744
14551TIP3    H265145   1.916   0.308  14.873
14552TIP3   OH265146   2.778   3.490   6.086
14552TIP3    H165147   2.801   3.508   6.177
14552TIP3    H265148   2.728   3.408   6.090
14553TIP3   OH265149   0.354   3.262  16.597
14553TIP3    H165150   0.380   3.316  16.522
14553TIP3    H265151   0.260   3.273  16.603
14554TIP3   OH265152   2.460   4.080   6.715
14554TIP3    H165153   2.378   4.087   6.764
14554TIP3    H265154   2.507   4.008   6.757
14555TIP3   OH265155   2.758   0.089   5.168
14555TIP3    H165156   2.800   0.023   5.114
14555TIP3    H265157   2.816   0.165   5.163
14556TIP3   OH265158   6.373   4.137  11.025
14556TIP3    H165159   6.379   4.105  11.115
14556TIP3    H265160   6.413   4.067  10.972
14557TIP3   OH265161   3.960   4.392  12.860
14557TIP3    H165162   3.878   4.427  12.894
14557TIP3    H265163   3.992   4.334  12.929
14558TIP3   OH265164   4.518   5.878  13.645
14558TIP3    H165165   4.455   5.826  13.695
14558TIP3    H265166   4.472   5.959  13.625
14559TIP3   OH265167   1.108   3.833  15.927
14559TIP3    H165168   1.048   3.885  15.980
14559TIP3    H265169   1.179   3.810  15.988
14560TIP3   OH265170   6.418   4.379   1.244
14560TIP3    H165171   6.394   4.432   1.321
14560TIP3    H265172   6.440   4.294   1.280
14561TIP3   OH265173   1.338   5.737  13.471
14561TIP3    H165174   1.292   5.661  13.505
14561TIP3    H265175   1.334   5.801  13.542
14562TIP3   OH265176   0.193   1.112  10.830
14562TIP3    H165177   0.210   1.093  10.737
14562TIP3    H265178   0.108   1.072  10.847
14563TIP3   OH265179   0.152   4.920   5.678
14563TIP3    H165180   0.130   4.931   5.586
14563TIP3    H265181   0.237   4.964   5.688
14564TIP3   OH265182   2.016   4.621  13.133
14564TIP3    H165183   2.041   4.534  13.100
14564TIP3    H265184   2.069   4.632  13.212
14565TIP3   OH265185   5.317   4.655  11.381
14565TIP3    H165186   5.365   4.625  11.458
14565TIP3    H265187   5.324   4.582  11.319
14566TIP3   OH265188   6.114   5.366   6.787
14566TIP3    H165189   6.044   5.408   6.738
14566TIP3    H265190   6.126   5.421   6.864
14567TIP3   OH265191   5.680   2.577  15.494
14567TIP3    H165192   5.715   2.488  15.498
14567TIP3    H265193   5.641   2.584  15.407
14568TIP3   OH265194   5.937   5.068  14.819
14568TIP3    H165195   5.927   5.085  14.912
14568TIP3    H265196   5.847   5.058  14.787
14569TIP3   OH265197   2.942   0.130   3.070
14569TIP3    H165198   2.901   0.216   3.078
14569TIP3    H265199   2.974   0.126   2.980
14570TIP3   OH265200   1.267   2.296  14.958
14570TIP3    H165201   1.309   2.264  15.037
14570TIP3    H265202   1.255   2.219  14.903
14571TIP3   OH265203   5.645   1.213   4.502
14571TIP3    H165204   5.658   1.206   4.408
14571TIP3    H265205   5.626   1.124   4.530
14572TIP3   OH265206   6.491   1.514   1.373
14572TIP3    H165207   6.457   1.425   1.363
14572TIP3    H265208   6.562   1.520   1.309
14573TIP3   OH265209   3.057   6.767   2.858
14573TIP3    H165210   3.090   6.690   2.905
14573TIP3    H265211   3.123   6.835   2.872
14574TIP3   OH265212   6.500   2.915  14.078
14574TIP3    H165213   6.492   2.929  14.172
14574TIP3    H265214   6.529   2.824  14.070
14575TIP3   OH265215   4.064   3.469   4.377
14575TIP3    H165216   4.143   3.465   4.323
14575TIP3    H265217   4.057   3.381   4.416
14576TIP3   OH265218   4.391   6.237  15.918
14576TIP3    H165219   4.359   6.187  15.843
14576TIP3    H265220   4.362   6.187  15.994
14577TIP3   OH265221   0.882   4.809   0.191
14577TIP3    H165222   0.868   4.747   0.120
14577TIP3    H265223   0.839   4.889   0.162
14578TIP3   OH265224   1.394   2.847  14.894
14578TIP3    H165225   1.328   2.916  14.896
14578TIP3    H265226   1.457   2.873  14.962
14579TIP3   OH265227   4.900   5.027   1.556
14579TIP3    H165228   4.926   5.099   1.499
14579TIP3    H265229   4.978   5.009   1.609
14580TIP3   OH265230   2.379   2.575   1.942
14580TIP3    H165231   2.374   2.600   1.850
14580TIP3    H265232   2.401   2.482   1.941
14581TIP3   OH265233   1.395   3.264  15.089
14581TIP3    H165234   1.380   3.339  15.032
14581TIP3    H265235   1.437   3.300  15.167
14582TIP3   OH265236   1.288   6.754   5.569
14582TIP3    H165237   1.369   6.804   5.557
14582TIP3    H265238   1.302   6.674   5.517
14583TIP3   OH265239   1.884   0.714  13.508
14583TIP3    H165240   1.942   0.717  13.432
14583TIP3    H265241   1.845   0.627  13.506
14584TIP3   OH265242   5.178   4.421  13.061
14584TIP3    H165243   5.261   4.424  13.013
14584TIP3    H265244   5.190   4.351  13.126
14585TIP3   OH265245   1.863   2.129   6.708
14585TIP3    H165246   1.957   2.146   6.717
14585TIP3    H265247   1.825   2.166   6.788
14586TIP3   OH265248   5.927   4.690  17.288
14586TIP3    H165249   5.964   4.758  17.344
14586TIP3    H265250   5.858   4.650  17.341
14587TIP3   OH265251   2.169   1.833   1.248
14587TIP3    H165252   2.194   1.820   1.156
14587TIP3    H265253   2.252   1.845   1.294
14588TIP3   OH265254   1.598   2.862   3.893
14588TIP3    H165255   1.661   2.932   3.875
14588TIP3    H265256   1.557   2.845   3.808
14589TIP3   OH265257   1.446   3.069  11.432
14589TIP3    H165258   1.422   3.121  11.355
14589TIP3    H265259   1.482   2.988  11.396
14590TIP3   OH265260   5.530   0.923  16.717
14590TIP3    H165261   5.507   0.930  16.624
14590TIP3    H265262   5.532   0.828  16.734
14591TIP3   OH265263   2.543   1.067  13.611
14591TIP3    H165264   2.562   1.129  13.682
14591TIP3    H265265   2.455   1.092  13.581
14592TIP3   OH265266   5.472   0.628   0.675
14592TIP3    H165267   5.521   0.626   0.593
14592TIP3    H265268   5.462   0.535   0.698
14593TIP3   OH265269   2.759   5.129   3.735
14593TIP3    H165270   2.780   5.123   3.829
14593TIP3    H265271   2.698   5.058   3.719
14594TIP3   OH265272   1.214   0.251  14.172
14594TIP3    H165273   1.183   0.264  14.082
14594TIP3    H265274   1.199   0.158  14.189
14595TIP3   OH265275   6.556   3.562   4.123
14595TIP3    H165276   6.506   3.571   4.042
14595TIP3    H265277   6.604   3.480   4.113
14596TIP3   OH265278   4.937   4.828   6.553
14596TIP3    H165279   4.946   4.922   6.566
14596TIP3    H265280   4.864   4.819   6.491
14597TIP3   OH265281   5.558   4.742   3.814
14597TIP3    H165282   5.486   4.775   3.760
14597TIP3    H265283   5.567   4.808   3.883
14598TIP3   OH265284   2.098   5.839   2.323
14598TIP3    H165285   2.056   5.808   2.243
14598TIP3    H265286   2.134   5.925   2.300
14599TIP3   OH265287   2.349   0.958  15.447
14599TIP3    H165288   2.254   0.961  15.443
14599TIP3    H265289   2.369   0.906  15.525
14600TIP3   OH265290   2.189   0.217   1.265
14600TIP3    H165291   2.248   0.262   1.326
14600TIP3    H265292   2.218   0.126   1.267
14601TIP3   OH265293   3.557   1.714  10.673
14601TIP3    H165294   3.629   1.757  10.719
14601TIP3    H265295   3.572   1.620  10.690
14602TIP3   OH265296   3.179   3.489   5.121
14602TIP3    H165297   3.196   3.576   5.083
14602TIP3    H265298   3.247   3.433   5.083
14603TIP3   OH265299   4.100   6.814   3.269
14603TIP3    H165300   4.038   6.748   3.240
14603TIP3    H265301   4.053   6.897   3.259
14604TIP3   OH265302   2.180   5.333   1.179
14604TIP3    H165303   2.182   5.263   1.244
14604TIP3    H265304   2.140   5.407   1.226
14605TIP3   OH265305   3.192   5.531  11.426
14605TIP3    H165306   3.230   5.619  11.425
14605TIP3    H265307   3.155   5.520  11.338
14606TIP3   OH265308   4.449   5.330   2.994
14606TIP3    H165309   4.483   5.280   2.920
14606TIP3    H265310   4.526   5.364   3.038
14607TIP3   OH265311   0.928   3.770   0.899
14607TIP3    H165312   0.921   3.855   0.855
14607TIP3    H265313   0.838   3.744   0.916
14608TIP3   OH265314   6.697   2.648   5.995
14608TIP3    H165315   6.639   2.635   5.920
14608TIP3    H265316   6.706   2.744   6.001
14609TIP3   OH265317   0.548   3.603  11.872
14609TIP3    H165318   0.579   3.592  11.783
14609TIP3    H265319   0.595   3.537  11.923
14610TIP3   OH265320   4.188   6.618   0.702
14610TIP3    H165321   4.160   6.662   0.621
14610TIP3    H265322   4.107   6.600   0.749
14611TIP3   OH265323   4.481   0.198  13.516
14611TIP3    H165324   4.449   0.133  13.578
14611TIP3    H265325   4.441   0.174  13.432
14612TIP3   OH265326   5.727   1.392  12.526
14612TIP3    H165327   5.746   1.471  12.576
14612TIP3    H265328   5.634   1.377  12.540
14613TIP3   OH265329   0.417   5.176   0.658
14613TIP3    H165330   0.449   5.207   0.743
14613TIP3    H265331   0.368   5.097   0.678
14614TIP3   OH265332   1.345   4.511   2.817
14614TIP3    H165333   1.373   4.440   2.876
14614TIP3    H265334   1.406   4.583   2.836
14615TIP3   OH265335   2.018   3.877   5.987
14615TIP3    H165336   2.050   3.938   6.053
14615TIP3    H265337   1.949   3.828   6.032
14616TIP3   OH265338   3.821   6.444   3.871
14616TIP3    H165339   3.857   6.530   3.892
14616TIP3    H265340   3.837   6.434   3.777
14617TIP3   OH265341   3.990   2.693  11.414
14617TIP3    H165342   3.939   2.750  11.471
14617TIP3    H265343   4.049   2.752  11.368
14618TIP3   OH265344   6.513   3.993  12.867
14618TIP3    H165345   6.587   3.933  12.859
14618TIP3    H265346   6.467   3.984  12.783
14619TIP3   OH265347   2.170   2.586  16.106
14619TIP3    H165348   2.076   2.597  16.091
14619TIP3    H265349   2.183   2.491  16.104
14620TIP3   OH265350   0.147   0.035  12.129
14620TIP3    H165351   0.081   0.036  12.198
14620TIP3    H265352   0.227   0.007  12.173
14621TIP3   OH265353   4.996   1.557  17.040
14621TIP3    H165354   4.906   1.574  17.012
14621TIP3    H265355   4.987   1.495  17.113
14622TIP3   OH265356   6.371   3.342   1.796
14622TIP3    H165357   6.354   3.248   1.800
14622TIP3    H265358   6.399   3.365   1.885
14623TIP3   OH265359   6.293   0.946  11.968
14623TIP3    H165360   6.221   0.954  11.907
14623TIP3    H265361   6.361   1.003  11.933
14624TIP3   OH265362   2.666   4.648   1.674
14624TIP3    H165363   2.663   4.666   1.768
14624TIP3    H265364   2.731   4.579   1.665
14625TIP3   OH265365   6.380   1.708  12.494
14625TIP3    H165366   6.460   1.686  12.543
14625TIP3    H265367   6.340   1.778  12.545
14626TIP3   OH265368   4.594   1.153  15.169
14626TIP3    H165369   4.629   1.152  15.258
14626TIP3    H265370   4.544   1.234  15.164
14627TIP3   OH265371   1.005   2.375  16.497
14627TIP3    H165372   1.008   2.330  16.413
14627TIP3    H265373   0.915   2.408  16.503
14628TIP3   OH265374   2.080   5.947  15.600
14628TIP3    H165375   2.073   5.941  15.696
14628TIP3    H265376   2.041   5.866  15.569
14629TIP3   OH265377   6.368   6.734   3.741
14629TIP3    H165378   6.299   6.706   3.681
14629TIP3    H265379   6.374   6.829   3.727
14630TIP3   OH265380   0.285   4.715   1.590
14630TIP3    H165381   0.226   4.654   1.635
14630TIP3    H265382   0.314   4.666   1.513
14631TIP3   OH265383   1.018   4.866   3.439
14631TIP3    H165384   1.109   4.877   3.411
14631TIP3    H265385   1.006   4.933   3.506
14632TIP3   OH265386   4.769   6.104   3.024
14632TIP3    H165387   4.716   6.134   3.098
14632TIP3    H265388   4.858   6.096   3.058
14633TIP3   OH265389   5.228   1.170   4.249
14633TIP3    H165390   5.138   1.151   4.272
14633TIP3    H265391   5.260   1.228   4.319
14634TIP3   OH265392   4.668   5.891  12.419
14634TIP3    H165393   4.690   5.830  12.349
14634TIP3    H265394   4.657   5.836  12.496
14635TIP3   OH265395   0.120   1.003   0.717
14635TIP3    H165396   0.101   1.034   0.629
14635TIP3    H265397   0.139   0.910   0.707
14636TIP3   OH265398   2.556   4.419  15.084
14636TIP3    H165399   2.485   4.386  15.029
14636TIP3    H265400   2.514   4.484  15.140
14637TIP3   OH265401   5.319   6.436   0.100
14637TIP3    H165402   5.400   6.394   0.128
14637TIP3    H265403   5.288   6.483   0.177
14638TIP3   OH265404   5.427   1.689  12.542
14638TIP3    H165405   5.437   1.596  12.522
14638TIP3    H265406   5.334   1.706  12.528
14639TIP3   OH265407   0.012   4.146  10.366
14639TIP3    H165408   0.025   4.090  10.442
14639TIP3    H265409   0.084   4.209  10.369
14640TIP3   OH265410   5.302   2.094  12.075
14640TIP3    H165411   5.358   2.157  12.119
14640TIP3    H265412   5.247   2.148  12.017
14641TIP3   OH265413   0.981   5.856  13.620
14641TIP3    H165414   1.035   5.928  13.652
14641TIP3    H265415   0.914   5.899  13.567
14642TIP3   OH265416   4.976   3.757  13.734
14642TIP3    H165417   4.887   3.727  13.717
14642TIP3    H265418   4.968   3.852  13.746
14643TIP3   OH265419   6.129   3.988   6.131
14643TIP3    H165420   6.187   3.953   6.200
14643TIP3    H265421   6.162   4.076   6.115
14644TIP3   OH265422   0.277   4.349  16.787
14644TIP3    H165423   0.264   4.254  16.788
14644TIP3    H265424   0.372   4.360  16.794
14645TIP3   OH265425   3.224   4.911   0.609
14645TIP3    H165426   3.223   4.975   0.538
14645TIP3    H265427   3.131   4.896   0.629
14646TIP3   OH265428   5.512   1.004  15.008
14646TIP3    H165429   5.492   0.912  14.993
14646TIP3    H265430   5.594   1.019  14.962
14647TIP3   OH265431   5.260   2.586  16.144
14647TIP3    H165432   5.295   2.516  16.089
14647TIP3    H265433   5.214   2.644  16.083
14648TIP3   OH265434   6.375   0.750  14.317
14648TIP3    H165435   6.326   0.723  14.239
14648TIP3    H265436   6.407   0.838  14.296
14649TIP3   OH265437   5.854   5.824  14.948
14649TIP3    H165438   5.829   5.826  15.040
14649TIP3    H265439   5.946   5.795  14.948
14650TIP3   OH265440   1.758   5.180   2.912
14650TIP3    H165441   1.702   5.252   2.941
14650TIP3    H265442   1.817   5.165   2.986
14651TIP3   OH265443   6.661   2.079   5.975
14651TIP3    H165444   6.625   2.117   6.056
14651TIP3    H265445   6.587   2.081   5.914
14652TIP3   OH265446   3.002   1.083   2.558
14652TIP3    H165447   2.947   1.067   2.481
14652TIP3    H265448   3.045   1.166   2.540
14653TIP3   OH265449   3.881   0.815   2.359
14653TIP3    H165450   3.976   0.804   2.356
14653TIP3    H265451   3.867   0.909   2.370
14654TIP3   OH265452   3.274   5.215   5.385
14654TIP3    H165453   3.352   5.245   5.430
14654TIP3    H265454   3.263   5.124   5.412
14655TIP3   OH265455   0.920   2.184  13.061
14655TIP3    H165456   0.852   2.172  12.994
14655TIP3    H265457   0.942   2.094  13.088
14656TIP3   OH265458   6.785   0.962  16.059
14656TIP3    H165459   6.738   0.880  16.045
14656TIP3    H265460   6.866   0.952  16.010
14657TIP3   OH265461   4.209   2.384  11.630
14657TIP3    H165462   4.124   2.425  11.646
14657TIP3    H265463   4.259   2.451  11.583
14658TIP3   OH265464   2.348   3.486  13.752
14658TIP3    H165465   2.304   3.569  13.770
14658TIP3    H265466   2.367   3.489  13.658
14659TIP3   OH265467   5.157   5.959   1.893
14659TIP3    H165468   5.212   5.915   1.829
14659TIP3    H265469   5.109   5.889   1.937
14660TIP3   OH265470   3.647   2.698   5.818
14660TIP3    H165471   3.586   2.732   5.753
14660TIP3    H265472   3.721   2.664   5.766
14661TIP3   OH265473   5.782   5.566  12.353
14661TIP3    H165474   5.843   5.576  12.280
14661TIP3    H265475   5.837   5.565  12.431
14662TIP3   OH265476   0.696   2.236  10.522
14662TIP3    H165477   0.654   2.275  10.598
14662TIP3    H265478   0.666   2.289  10.448
14663TIP3   OH265479   4.772   4.374  12.055
14663TIP3    H165480   4.788   4.461  12.018
14663TIP3    H265481   4.769   4.316  11.978
14664TIP3   OH265482   3.809   6.131   5.516
14664TIP3    H165483   3.786   6.076   5.441
14664TIP3    H265484   3.888   6.177   5.489
14665TIP3   OH265485   4.689   0.777  13.549
14665TIP3    H165486   4.726   0.689  13.543
14665TIP3    H265487   4.706   0.803  13.640
14666TIP3   OH265488   3.819   1.223  16.833
14666TIP3    H165489   3.852   1.198  16.746
14666TIP3    H265490   3.737   1.270  16.814
14667TIP3   OH265491   1.896   4.046   2.615
14667TIP3    H165492   1.946   4.109   2.667
14667TIP3    H265493   1.929   3.960   2.642
14668TIP3   OH265494   2.883   4.623   2.071
14668TIP3    H165495   2.917   4.668   1.994
14668TIP3    H265496   2.948   4.640   2.139
14669TIP3   OH265497   6.254   6.566   5.446
14669TIP3    H165498   6.288   6.593   5.531
14669TIP3    H265499   6.183   6.505   5.466
14670TIP3   OH265500   3.186   3.622   0.259
14670TIP3    H165501   3.273   3.616   0.220
14670TIP3    H265502   3.185   3.708   0.302
14671TIP3   OH265503   2.904   0.385  11.593
14671TIP3    H165504   2.968   0.431  11.538
14671TIP3    H265505   2.944   0.382  11.680
14672TIP3   OH265506   3.213   5.390  15.996
14672TIP3    H165507   3.287   5.450  16.009
14672TIP3    H265508   3.137   5.441  16.024
14673TIP3   OH265509   3.906   1.287  13.470
14673TIP3    H165510   3.991   1.329  13.455
14673TIP3    H265511   3.913   1.249  13.558
14674TIP3   OH265512   2.226   3.239   0.612
14674TIP3    H165513   2.225   3.161   0.668
14674TIP3    H265514   2.155   3.224   0.550
14675TIP3   OH265515   1.137   1.327   3.706
14675TIP3    H165516   1.152   1.233   3.708
14675TIP3    H265517   1.174   1.358   3.789
14676TIP3   OH265518   4.929   5.674   0.732
14676TIP3    H165519   4.952   5.756   0.687
14676TIP3    H265520   4.937   5.607   0.664
14677TIP3   OH265521   0.888   1.331   0.685
14677TIP3    H165522   0.949   1.269   0.725
14677TIP3    H265523   0.819   1.343   0.751
14678TIP3   OH265524   1.939   0.242  13.921
14678TIP3    H165525   1.878   0.222  13.992
14678TIP3    H265526   2.020   0.267  13.966
14679TIP3   OH265527   0.065   2.141   0.654
14679TIP3    H165528   0.109   2.062   0.687
14679TIP3    H265529   0.046   2.120   0.562
14680TIP3   OH265530   1.498   4.020  11.286
14680TIP3    H165531   1.586   4.026  11.248
14680TIP3    H265532   1.440   4.014  11.210
14681TIP3   OH265533   1.767   0.228  12.111
14681TIP3    H165534   1.807   0.250  12.195
14681TIP3    H265535   1.690   0.176  12.134
14682TIP3   OH265536   3.794   2.483   2.557
14682TIP3    H165537   3.723   2.528   2.512
14682TIP3    H265538   3.860   2.551   2.573
14683TIP3   OH265539   6.610   6.334   2.131
14683TIP3    H165540   6.584   6.308   2.219
14683TIP3    H265541   6.535   6.311   2.076
14684TIP3   OH265542   5.447   0.456  13.926
14684TIP3    H165543   5.502   0.474  13.849
14684TIP3    H265544   5.454   0.361  13.937
14685TIP3   OH265545   4.035   3.614  16.940
14685TIP3    H165546   4.027   3.615  17.035
14685TIP3    H265547   3.947   3.591  16.909
14686TIP3   OH265548   1.079   3.454   6.395
14686TIP3    H165549   1.146   3.508   6.437
14686TIP3    H265550   1.090   3.368   6.434
14687TIP3   OH265551   3.548   5.947  16.607
14687TIP3    H165552   3.474   6.003  16.582
14687TIP3    H265553   3.517   5.901  16.685
14688TIP3   OH265554   6.669   2.059  17.288
14688TIP3    H165555   6.752   2.091  17.323
14688TIP3    H265556   6.676   2.070  17.194
14689TIP3   OH265557   3.625   2.012  16.753
14689TIP3    H165558   3.693   2.034  16.817
14689TIP3    H265559   3.553   2.071  16.774
14690TIP3   OH265560   1.279   2.249   0.634
14690TIP3    H165561   1.323   2.290   0.708
14690TIP3    H265562   1.263   2.159   0.663
14691TIP3   OH265563   3.373   3.730  14.043
14691TIP3    H165564   3.448   3.786  14.066
14691TIP3    H265565   3.412   3.646  14.021
14692TIP3   OH265566   3.659   2.825  13.359
14692TIP3    H165567   3.598   2.758  13.389
14692TIP3    H265568   3.703   2.855  13.438
14693TIP3   OH265569   3.103   2.397   1.256
14693TIP3    H165570   3.093   2.325   1.195
14693TIP3    H265571   3.156   2.362   1.327
14694TIP3   OH265572   5.182   3.224  12.036
14694TIP3    H165573   5.094   3.248  12.063
14694TIP3    H265574   5.179   3.128  12.027
14695TIP3   OH265575   1.206   3.131   3.264
14695TIP3    H165576   1.269   3.139   3.336
14695TIP3    H265577   1.155   3.053   3.285
14696TIP3   OH265578   4.275   5.091  16.807
14696TIP3    H165579   4.260   4.997  16.798
14696TIP3    H265580   4.370   5.100  16.806
14697TIP3   OH265581   5.769   2.889  14.167
14697TIP3    H165582   5.799   2.805  14.134
14697TIP3    H265583   5.681   2.872  14.201
14698TIP3   OH265584   5.551   0.726  11.824
14698TIP3    H165585   5.516   0.645  11.785
14698TIP3    H265586   5.476   0.784  11.831
14699TIP3   OH265587   3.347   2.687  10.854
14699TIP3    H165588   3.290   2.648  10.920
14699TIP3    H265589   3.336   2.633  10.777
14700TIP3   OH265590   4.404   3.176  14.945
14700TIP3    H165591   4.315   3.196  14.974
14700TIP3    H265592   4.426   3.247  14.884
14701TIP3   OH265593   0.064   4.599  13.959
14701TIP3    H165594   0.056   4.690  13.929
14701TIP3    H265595  -0.000   4.592  14.030
14702TIP3   OH265596   4.389   6.126  15.198
14702TIP3    H165597   4.317   6.151  15.141
14702TIP3    H265598   4.353   6.134  15.287
14703TIP3   OH265599   4.869   4.180  13.909
14703TIP3    H165600   4.786   4.169  13.956
14703TIP3    H265601   4.934   4.189  13.978
14704TIP3   OH265602   2.318   3.159  12.232
14704TIP3    H165603   2.367   3.103  12.171
14704TIP3    H265604   2.235   3.175  12.188
14705TIP3   OH265605   1.532   3.905  17.206
14705TIP3    H165606   1.619   3.881  17.175
14705TIP3    H265607   1.480   3.825  17.197
14706TIP3   OH265608   0.030   3.287  13.115
14706TIP3    H165609   0.112   3.238  13.121
14706TIP3    H265610   0.045   3.365  13.170
14707TIP3   OH265611   5.615   0.560  14.514
14707TIP3    H165612   5.646   0.639  14.560
14707TIP3    H265613   5.663   0.489  14.555
14708TIP3   OH265614   0.832   6.337  12.515
14708TIP3    H165615   0.861   6.253  12.550
14708TIP3    H265616   0.763   6.366  12.574
14709TIP3   OH265617   5.900   3.378  17.244
14709TIP3    H165618   5.905   3.284  17.263
14709TIP3    H265619   5.863   3.416  17.324
14710TIP3   OH265620   0.254   5.637  16.268
14710TIP3    H165621   0.266   5.637  16.173
14710TIP3    H265622   0.264   5.729  16.293
14711TIP3   OH265623   6.385   2.934  15.284
14711TIP3    H165624   6.402   2.844  15.258
14711TIP3    H265625   6.365   2.980  15.202
14712TIP3   OH265626   2.496   0.852   1.387
14712TIP3    H165627   2.548   0.807   1.321
14712TIP3    H265628   2.453   0.923   1.340
14713TIP3   OH265629   0.592   0.291  15.417
14713TIP3    H165630   0.530   0.218  15.416
14713TIP3    H265631   0.649   0.272  15.492
14714TIP3   OH265632   4.854   3.565  10.269
14714TIP3    H165633   4.774   3.527  10.233
14714TIP3    H265634   4.919   3.495  10.262
14715TIP3   OH265635   1.040   2.617   1.100
14715TIP3    H165636   1.016   2.709   1.098
14715TIP3    H265637   1.044   2.594   1.193
14716TIP3   OH265638   0.211   6.530  14.844
14716TIP3    H165639   0.234   6.451  14.796
14716TIP3    H265640   0.116   6.525  14.854
14717TIP3   OH265641   6.335   6.511  16.704
14717TIP3    H165642   6.407   6.452  16.682
14717TIP3    H265643   6.364   6.557  16.782
14718TIP3   OH265644   1.824   6.659   3.229
14718TIP3    H165645   1.840   6.635   3.321
14718TIP3    H265646   1.843   6.753   3.225
14719TIP3   OH265647   4.318   4.500   4.294
14719TIP3    H165648   4.374   4.557   4.241
14719TIP3    H265649   4.380   4.447   4.345
14720TIP3   OH265650   6.402   1.868  16.940
14720TIP3    H165651   6.398   1.777  16.966
14720TIP3    H265652   6.491   1.881  16.909
14721TIP3   OH265653   1.874   0.490   3.684
14721TIP3    H165654   1.807   0.501   3.617
14721TIP3    H265655   1.825   0.490   3.767
14722TIP3   OH265656   5.715   4.215  17.192
14722TIP3    H165657   5.737   4.305  17.166
14722TIP3    H265658   5.793   4.165  17.169
14723TIP3   OH265659   3.988   5.875  14.447
14723TIP3    H165660   3.960   5.811  14.382
14723TIP3    H265661   3.996   5.825  14.528
14724TIP3   OH265662   1.346   2.341   1.382
14724TIP3    H165663   1.279   2.333   1.315
14724TIP3    H265664   1.423   2.373   1.336
14725TIP3   OH265665   6.218   5.308   4.016
14725TIP3    H165666   6.148   5.372   4.026
14725TIP3    H265667   6.260   5.304   4.102
14726TIP3   OH265668   3.363   2.363  11.723
14726TIP3    H165669   3.282   2.412  11.714
14726TIP3    H265670   3.423   2.422  11.768
14727TIP3   OH265671   6.135   1.451  11.950
14727TIP3    H165672   6.136   1.505  12.029
14727TIP3    H265673   6.144   1.361  11.983
14728TIP3   OH265674   5.731   5.417  12.955
14728TIP3    H165675   5.682   5.448  12.879
14728TIP3    H265676   5.663   5.388  13.017
14729TIP3   OH265677   0.166   5.514   2.398
14729TIP3    H165678   0.077   5.533   2.368
14729TIP3    H265679   0.161   5.425   2.432
14730TIP3   OH265680   1.522   5.387   4.493
14730TIP3    H165681   1.585   5.393   4.422
14730TIP3    H265682   1.456   5.324   4.461
14731TIP3   OH265683   2.800   2.904   4.908
14731TIP3    H165684   2.708   2.877   4.906
14731TIP3    H265685   2.824   2.905   5.000
14732TIP3   OH265686   4.889   6.154  15.863
14732TIP3    H165687   4.803   6.163  15.903
14732TIP3    H265688   4.914   6.063  15.878
14733TIP3   OH265689   0.317   3.734   2.626
14733TIP3    H165690   0.352   3.789   2.556
14733TIP3    H265691   0.390   3.723   2.687
14734TIP3   OH265692   0.485   3.042  16.009
14734TIP3    H165693   0.562   3.056  16.065
14734TIP3    H265694   0.505   2.961  15.961
14735TIP3   OH265695   0.294   4.310  13.841
14735TIP3    H165696   0.285   4.369  13.766
14735TIP3    H265697   0.242   4.351  13.910
14736TIP3   OH265698   5.246   4.226  15.967
14736TIP3    H165699   5.323   4.223  15.910
14736TIP3    H265700   5.179   4.268  15.913
14737TIP3   OH265701   6.508   4.520   1.019
14737TIP3    H165702   6.485   4.467   1.095
14737TIP3    H265703   6.553   4.459   0.961
14738TIP3   OH265704   2.443   5.900   5.055
14738TIP3    H165705   2.476   5.880   5.143
14738TIP3    H265706   2.518   5.942   5.011
14739TIP3   OH265707   1.502   0.338   6.212
14739TIP3    H165708   1.537   0.416   6.255
14739TIP3    H265709   1.579   0.291   6.180
14740TIP3   OH265710   4.650   2.365  12.730
14740TIP3    H165711   4.694   2.338  12.650
14740TIP3    H265712   4.578   2.303  12.739
14741TIP3   OH265713   0.805   2.491  15.223
14741TIP3    H165714   0.786   2.428  15.293
14741TIP3    H265715   0.751   2.462  15.149
14742TIP3   OH265716   0.287   5.015  15.527
14742TIP3    H165717   0.295   5.097  15.478
14742TIP3    H265718   0.378   4.987  15.541
14743TIP3   OH265719   5.916   2.873   0.697
14743TIP3    H165720   5.951   2.841   0.613
14743TIP3    H265721   5.915   2.795   0.753
14744TIP3   OH265722   0.583   5.690  12.451
14744TIP3    H165723   0.529   5.740  12.390
14744TIP3    H265724   0.665   5.739  12.456
14745TIP3   OH265725   4.191   5.030  12.886
14745TIP3    H165726   4.184   5.005  12.978
14745TIP3    H265727   4.118   5.092  12.873
14746TIP3   OH265728   6.355   1.719   5.848
14746TIP3    H165729   6.270   1.759   5.865
14746TIP3    H265730   6.402   1.785   5.796
14747TIP3   OH265731   2.035   3.249   2.699
14747TIP3    H165732   2.054   3.325   2.644
14747TIP3    H265733   1.964   3.278   2.757
14748TIP3   OH265734   6.048   1.774  11.859
14748TIP3    H165735   6.115   1.762  11.926
14748TIP3    H265736   6.043   1.868  11.846
14749TIP3   OH265737   1.391   4.707   0.230
14749TIP3    H165738   1.372   4.782   0.287
14749TIP3    H265739   1.486   4.694   0.239
14750TIP3   OH265740   2.042   2.050  17.198
14750TIP3    H165741   2.002   2.003  17.271
14750TIP3    H265742   2.133   2.063  17.224
14751TIP3   OH265743   4.489   2.321  13.854
14751TIP3    H165744   4.574   2.365  13.860
14751TIP3    H265745   4.427   2.392  13.840
14752TIP3   OH265746   3.445   5.474  12.381
14752TIP3    H165747   3.401   5.481  12.297
14752TIP3    H265748   3.457   5.380  12.394
14753TIP3   OH265749   5.549   1.578  11.462
14753TIP3    H165750   5.574   1.505  11.519
14753TIP3    H265751   5.453   1.574  11.458
14754TIP3   OH265752   2.615   5.234   4.453
14754TIP3    H165753   2.615   5.330   4.449
14754TIP3    H265754   2.696   5.213   4.501
14755TIP3   OH265755   5.407   1.557  11.936
14755TIP3    H165756   5.378   1.648  11.945
14755TIP3    H265757   5.333   1.504  11.963
14756TIP3   OH265758   1.667   5.167  11.476
14756TIP3    H165759   1.734   5.177  11.543
14756TIP3    H265760   1.705   5.109  11.411
14757TIP3   OH265761   5.489   6.284  12.974
14757TIP3    H165762   5.444   6.321  12.898
14757TIP3    H265763   5.580   6.314  12.965
14758TIP3   OH265764   4.854   1.555  15.027
14758TIP3    H165765   4.906   1.626  14.990
14758TIP3    H265766   4.916   1.483  15.038
14759TIP3   OH265767   0.313   1.313  13.960
14759TIP3    H165768   0.326   1.272  14.045
14759TIP3    H265769   0.225   1.349  13.964
14760TIP3   OH265770   0.868   5.885   2.213
14760TIP3    H165771   0.822   5.956   2.168
14760TIP3    H265772   0.953   5.880   2.171
14761TIP3   OH265773   3.884   3.444  16.118
14761TIP3    H165774   3.813   3.442  16.054
14761TIP3    H265775   3.848   3.491  16.194
14762TIP3   OH265776   5.995   2.345  14.184
14762TIP3    H165777   6.075   2.297  14.164
14762TIP3    H265778   6.019   2.437  14.176
14763TIP3   OH265779   6.716   4.432  12.629
14763TIP3    H165780   6.772   4.489  12.681
14763TIP3    H265781   6.698   4.482  12.549
14764TIP3   OH265782   0.156   1.928   4.012
14764TIP3    H165783   0.177   1.930   4.106
14764TIP3    H265784   0.241   1.936   3.969
14765TIP3   OH265785   2.936   3.555   1.391
14765TIP3    H165786   2.978   3.535   1.308
14765TIP3    H265787   2.914   3.648   1.386
14766TIP3   OH265788   5.232   4.149  12.079
14766TIP3    H165789   5.204   4.095  12.005
14766TIP3    H265790   5.302   4.204  12.043
14767TIP3   OH265791   5.660   0.849   5.725
14767TIP3    H165792   5.664   0.872   5.818
14767TIP3    H265793   5.571   0.817   5.712
14768TIP3   OH265794   5.903   4.516   1.465
14768TIP3    H165795   5.843   4.573   1.514
14768TIP3    H265796   5.868   4.428   1.477
14769TIP3   OH265797   2.529   4.168  13.262
14769TIP3    H165798   2.608   4.163  13.317
14769TIP3    H265799   2.475   4.234  13.305
14770TIP3   OH265800   0.899   4.354  14.810
14770TIP3    H165801   0.943   4.427  14.767
14770TIP3    H265802   0.941   4.348  14.896
14771TIP3   OH265803   4.150   5.634  14.784
14771TIP3    H165804   4.222   5.693  14.804
14771TIP3    H265805   4.088   5.687  14.735
14772TIP3   OH265806   6.420   0.257  14.694
14772TIP3    H165807   6.492   0.196  14.709
14772TIP3    H265808   6.435   0.291  14.606
14773TIP3   OH265809   4.432   4.398   0.527
14773TIP3    H165810   4.356   4.346   0.553
14773TIP3    H265811   4.489   4.337   0.481
14774TIP3   OH265812   5.901   6.659   3.707
14774TIP3    H165813   5.959   6.590   3.740
14774TIP3    H265814   5.961   6.727   3.674
14775TIP3   OH265815   4.294   4.382   1.824
14775TIP3    H165816   4.280   4.440   1.749
14775TIP3    H265817   4.323   4.299   1.786
14776TIP3   OH265818   0.369   2.839  16.253
14776TIP3    H165819   0.374   2.756  16.299
14776TIP3    H265820   0.447   2.840  16.197
14777TIP3   OH265821   0.765   1.975  10.546
14777TIP3    H165822   0.742   2.066  10.528
14777TIP3    H265823   0.781   1.937  10.460
14778TIP3   OH265824   4.892   4.310  15.392
14778TIP3    H165825   4.897   4.228  15.441
14778TIP3    H265826   4.928   4.376  15.452
14779TIP3   OH265827   2.128   6.063   1.676
14779TIP3    H165828   2.146   6.147   1.634
14779TIP3    H265829   2.166   6.071   1.764
14780TIP3   OH265830   6.109   0.616  15.161
14780TIP3    H165831   6.019   0.584  15.156
14780TIP3    H265832   6.113   0.687  15.097
14781TIP3   OH265833   1.497   2.971  11.686
14781TIP3    H165834   1.423   2.993  11.742
14781TIP3    H265835   1.467   2.994  11.597
14782TIP3   OH265836   6.209   1.088  13.554
14782TIP3    H165837   6.159   1.008  13.536
14782TIP3    H265838   6.147   1.146  13.598
14783TIP3   OH265839   0.562   1.913  13.460
14783TIP3    H165840   0.474   1.878  13.471
14783TIP3    H265841   0.615   1.838  13.434
14784TIP3   OH265842   4.083   2.070  15.642
14784TIP3    H165843   4.145   2.053  15.571
14784TIP3    H265844   4.052   2.160  15.626
14785TIP3   OH265845   1.082   3.153  14.861
14785TIP3    H165846   1.019   3.219  14.891
14785TIP3    H265847   1.111   3.185  14.776
14786TIP3   OH265848   2.056   5.804  13.706
14786TIP3    H165849   2.135   5.790  13.759
14786TIP3    H265850   1.985   5.776  13.763
14787TIP3   OH265851   5.576   6.764  13.366
14787TIP3    H165852   5.640   6.800  13.305
14787TIP3    H265853   5.582   6.669  13.355
14788TIP3   OH265854   0.502   1.000  16.201
14788TIP3    H165855   0.551   0.995  16.283
14788TIP3    H265856   0.538   1.077  16.157
14789TIP3   OH265857   4.218   1.252   0.660
14789TIP3    H165858   4.252   1.299   0.736
14789TIP3    H265859   4.220   1.160   0.685
14790TIP3   OH265860   2.589   1.698   0.124
14790TIP3    H165861   2.678   1.676   0.153
14790TIP3    H265862   2.569   1.780   0.170
14791TIP3   OH265863   2.114   4.992   4.701
14791TIP3    H165864   2.167   5.015   4.625
14791TIP3    H265865   2.032   5.040   4.687
14792TIP3   OH265866   4.026   6.270  13.511
14792TIP3    H165867   3.945   6.301  13.470
14792TIP3    H265868   4.088   6.265  13.438
14793TIP3   OH265869   5.081   5.544  16.188
14793TIP3    H165870   5.032   5.477  16.236
14793TIP3    H265871   5.102   5.501  16.104
14794TIP3   OH265872   1.584   5.001   6.379
14794TIP3    H165873   1.561   4.909   6.371
14794TIP3    H265874   1.505   5.048   6.351
14795TIP3   OH265875   1.884   6.641   1.516
14795TIP3    H165876   1.835   6.640   1.598
14795TIP3    H265877   1.817   6.627   1.449
14796TIP3   OH265878   5.257   3.756   0.432
14796TIP3    H165879   5.287   3.807   0.357
14796TIP3    H265880   5.330   3.697   0.451
14797TIP3   OH265881   5.098   5.407  11.687
14797TIP3    H165882   5.068   5.360  11.609
14797TIP3    H265883   5.085   5.345  11.759
14798TIP3   OH265884   5.856   0.020   4.779
14798TIP3    H165885   5.770   0.012   4.737
14798TIP3    H265886   5.870   0.115   4.787
14799TIP3   OH265887   0.678   3.111  14.022
14799TIP3    H165888   0.636   3.030  13.993
14799TIP3    H265889   0.748   3.082  14.081
14800TIP3   OH265890   1.411   2.925  16.941
14800TIP3    H165891   1.436   2.871  17.016
14800TIP3    H265892   1.485   2.984  16.928
14801TIP3   OH265893   2.468   3.059  14.123
14801TIP3    H165894   2.478   3.130  14.060
14801TIP3    H265895   2.388   3.082  14.172
14802TIP3   OH265896   2.552   1.692   0.875
14802TIP3    H165897   2.570   1.636   0.950
14802TIP3    H265898   2.538   1.779   0.912
14803TIP3   OH265899   2.033   2.731   3.862
14803TIP3    H165900   2.056   2.776   3.781
14803TIP3    H265901   2.117   2.702   3.898
14804TIP3   OH265902   1.705   5.965   1.584
14804TIP3    H165903   1.621   5.918   1.591
14804TIP3    H265904   1.715   6.007   1.669
14805TIP3   OH265905   5.767   4.704  15.737
14805TIP3    H165906   5.832   4.634  15.736
14805TIP3    H265907   5.798   4.767  15.672
14806TIP3   OH265908   2.846   2.666  16.662
14806TIP3    H165909   2.804   2.593  16.706
14806TIP3    H265910   2.804   2.744  16.700
14807TIP3   OH265911   0.150   0.188  15.203
14807TIP3    H165912   0.079   0.233  15.249
14807TIP3    H265913   0.204   0.150  15.273
14808TIP3   OH265914   2.240   5.782  13.929
14808TIP3    H165915   2.231   5.878  13.924
14808TIP3    H265916   2.191   5.758  14.007
14809TIP3   OH265917   6.617   0.988   5.508
14809TIP3    H165918   6.523   1.005   5.508
14809TIP3    H265919   6.655   1.063   5.555
14810TIP3   OH265920   0.982   6.149  13.613
14810TIP3    H165921   0.943   6.125  13.697
14810TIP3    H265922   0.964   6.243  13.604
14811TIP3   OH265923   3.640   2.390   5.576
14811TIP3    H165924   3.545   2.389   5.558
14811TIP3    H265925   3.677   2.335   5.507
14812TIP3   OH265926   0.519   0.352   1.754
14812TIP3    H165927   0.561   0.412   1.693
14812TIP3    H265928   0.554   0.376   1.840
14813TIP3   OH265929   4.364   0.429  16.923
14813TIP3    H165930   4.433   0.485  16.887
14813TIP3    H265931   4.322   0.483  16.989
14814TIP3   OH265932   0.811   1.261   3.588
14814TIP3    H165933   0.847   1.224   3.669
14814TIP3    H265934   0.882   1.254   3.524
14815TIP3   OH265935   3.133   3.883   0.375
14815TIP3    H165936   3.126   3.885   0.471
14815TIP3    H265937   3.042   3.880   0.345
14816TIP3   OH265938   6.373   6.606  13.724
14816TIP3    H165939   6.461   6.642  13.721
14816TIP3    H265940   6.315   6.682  13.711
14817TIP3   OH265941   2.388   2.283  14.260
14817TIP3    H165942   2.296   2.310  14.247
14817TIP3    H265943   2.383   2.194  14.293
14818TIP3   OH265944   5.187   1.210  15.935
14818TIP3    H165945   5.127   1.174  15.870
14818TIP3    H265946   5.254   1.142  15.947
14819TIP3   OH265947   0.884   4.427   3.760
14819TIP3    H165948   0.921   4.497   3.705
14819TIP3    H265949   0.936   4.429   3.840
14820TIP3   OH265950   0.813   3.948   1.767
14820TIP3    H165951   0.867   3.915   1.696
14820TIP3    H265952   0.867   3.938   1.845
14821TIP3   OH265953   3.658   1.313   3.526
14821TIP3    H165954   3.617   1.337   3.609
14821TIP3    H265955   3.718   1.242   3.549
14822TIP3   OH265956   1.445   1.991  17.035
14822TIP3    H165957   1.432   2.021  16.945
14822TIP3    H265958   1.539   2.001  17.050
14823TIP3   OH265959   0.265   6.459   4.403
14823TIP3    H165960   0.344   6.460   4.457
14823TIP3    H265961   0.194   6.479   4.465
14824TIP3   OH265962   3.288   5.057   0.351
14824TIP3    H165963   3.339   5.126   0.308
14824TIP3    H265964   3.259   5.000   0.280
14825TIP3   OH265965   2.402   0.616   5.091
14825TIP3    H165966   2.363   0.663   5.017
14825TIP3    H265967   2.475   0.568   5.053
14826TIP3   OH265968   2.487   5.991   3.623
14826TIP3    H165969   2.507   5.979   3.530
14826TIP3    H265970   2.425   5.920   3.643
14827TIP3   OH265971   2.492   6.215   6.241
14827TIP3    H165972   2.414   6.228   6.187
14827TIP3    H265973   2.478   6.130   6.282
14828TIP3   OH265974   0.557   0.741  13.318
14828TIP3    H165975   0.463   0.737  13.301
14828TIP3    H265976   0.597   0.720  13.234
14829TIP3   OH265977   5.770   4.529   6.131
14829TIP3    H165978   5.696   4.475   6.157
14829TIP3    H265979   5.748   4.559   6.043
14830TIP3   OH265980   3.463   2.184  13.872
14830TIP3    H165981   3.526   2.176  13.943
14830TIP3    H265982   3.516   2.211  13.796
14831TIP3   OH265983   4.800   0.382  13.868
14831TIP3    H165984   4.761   0.296  13.851
14831TIP3    H265985   4.736   0.427  13.922
14832TIP3   OH265986   5.912   1.553   0.098
14832TIP3    H165987   5.960   1.513   0.026
14832TIP3    H265988   5.944   1.508   0.176
14833TIP3   OH265989   1.938   0.743   3.753
14833TIP3    H165990   1.928   0.654   3.719
14833TIP3    H265991   1.940   0.799   3.676
14834TIP3   OH265992   2.376   4.414  12.406
14834TIP3    H165993   2.456   4.412  12.353
14834TIP3    H265994   2.308   4.377  12.349
14835TIP3   OH265995   4.227   6.247   5.226
14835TIP3    H165996   4.192   6.271   5.140
14835TIP3    H265997   4.250   6.154   5.217
14836TIP3   OH265998   3.054   2.088  16.374
14836TIP3    H165999   3.122   2.155  16.365
14836TIP3    H266000   3.084   2.016  16.319
14837TIP3   OH266001   5.870   6.569  16.718
14837TIP3    H166002   5.881   6.559  16.812
14837TIP3    H266003   5.775   6.575  16.706
14838TIP3   OH266004   0.747   0.413   2.810
14838TIP3    H166005   0.754   0.330   2.763
14838TIP3    H266006   0.786   0.395   2.895
14839TIP3   OH266007   3.829   6.685   2.988
14839TIP3    H166008   3.828   6.607   2.932
14839TIP3    H266009   3.738   6.714   2.989
14840TIP3   OH266010   5.539   5.559   0.465
14840TIP3    H166011   5.459   5.547   0.516
14840TIP3    H266012   5.597   5.489   0.494
14841TIP3   OH266013   0.017   4.943   3.979
14841TIP3    H166014   0.111   4.929   3.990
14841TIP3    H266015   0.008   5.038   3.969
14842TIP3   OH266016   1.473   4.739   6.108
14842TIP3    H166017   1.544   4.736   6.044
14842TIP3    H266018   1.418   4.811   6.078
14843TIP3   OH266019   3.362   0.174   6.257
14843TIP3    H166020   3.269   0.198   6.265
14843TIP3    H266021   3.364   0.112   6.185
14844TIP3   OH266022   2.241   0.594  11.312
14844TIP3    H166023   2.260   0.538  11.237
14844TIP3    H266024   2.197   0.536  11.375
14845TIP3   OH266025   3.216   6.311   2.822
14845TIP3    H166026   3.304   6.286   2.851
14845TIP3    H266027   3.202   6.397   2.862
14846TIP3   OH266028   5.690   2.802   2.226
14846TIP3    H166029   5.762   2.792   2.164
14846TIP3    H266030   5.682   2.896   2.239
14847TIP3   OH266031   1.025   1.882   0.482
14847TIP3    H166032   0.952   1.942   0.496
14847TIP3    H266033   0.985   1.795   0.491
14848TIP3   OH266034   3.728   0.063  14.719
14848TIP3    H166035   3.683   0.014  14.787
14848TIP3    H266036   3.820   0.063  14.745
14849TIP3   OH266037   5.886   2.571   5.705
14849TIP3    H166038   5.834   2.511   5.650
14849TIP3    H266039   5.837   2.576   5.787
14850TIP3   OH266040   2.053   1.987  15.041
14850TIP3    H166041   2.069   1.897  15.012
14850TIP3    H266042   2.096   2.041  14.975
14851TIP3   OH266043   2.851   2.901  14.395
14851TIP3    H166044   2.769   2.950  14.389
14851TIP3    H266045   2.859   2.856  14.311
14852TIP3   OH266046   4.140   1.647   4.677
14852TIP3    H166047   4.228   1.683   4.689
14852TIP3    H266048   4.150   1.577   4.613
14853TIP3   OH266049   0.652   2.095   2.393
14853TIP3    H166050   0.561   2.121   2.404
14853TIP3    H266051   0.696   2.174   2.362
14854TIP3   OH266052   2.534   5.844  12.112
14854TIP3    H166053   2.615   5.805  12.144
14854TIP3    H266054   2.562   5.909  12.048
14855TIP3   OH266055   4.725   0.987  14.457
14855TIP3    H166056   4.724   0.897  14.489
14855TIP3    H266057   4.674   0.985  14.377
14856TIP3   OH266058   4.139   6.515  14.506
14856TIP3    H166059   4.121   6.571  14.581
14856TIP3    H266060   4.222   6.547  14.470
14857TIP3   OH266061   3.662   1.961  10.833
14857TIP3    H166062   3.739   2.011  10.858
14857TIP3    H266063   3.611   1.952  10.914
14858TIP3   OH266064   3.111   2.983   6.267
14858TIP3    H166065   3.069   2.915   6.319
14858TIP3    H266066   3.205   2.973   6.286
14859TIP3   OH266067   2.174   0.883   0.163
14859TIP3    H166068   2.213   0.899   0.076
14859TIP3    H266069   2.219   0.945   0.220
14860TIP3   OH266070   3.938   4.214   2.450
14860TIP3    H166071   4.019   4.223   2.400
14860TIP3    H266072   3.964   4.226   2.541
14861TIP3   OH266073   4.056   4.281   4.423
14861TIP3    H166074   4.018   4.227   4.355
14861TIP3    H266075   4.040   4.232   4.504
14862TIP3   OH266076   0.270   6.451  16.331
14862TIP3    H166077   0.189   6.431  16.285
14862TIP3    H266078   0.256   6.419  16.420
14863TIP3   OH266079   5.410   3.195  15.600
14863TIP3    H166080   5.410   3.102  15.579
14863TIP3    H266081   5.322   3.210  15.637
14864TIP3   OH266082   1.811   3.769   1.339
14864TIP3    H166083   1.843   3.686   1.374
14864TIP3    H266084   1.729   3.785   1.386
14865TIP3   OH266085   1.544   1.339  11.650
14865TIP3    H166086   1.477   1.273  11.629
14865TIP3    H266087   1.627   1.294  11.633
14866TIP3   OH266088   5.926   2.535   1.847
14866TIP3    H166089   5.957   2.446   1.829
14866TIP3    H266090   5.848   2.545   1.792
14867TIP3   OH266091   0.810   3.948  16.366
14867TIP3    H166092   0.752   3.932  16.292
14867TIP3    H266093   0.867   4.019  16.337
14868TIP3   OH266094   2.651   3.832  15.555
14868TIP3    H166095   2.631   3.909  15.502
14868TIP3    H266096   2.746   3.831  15.560
14869TIP3   OH266097   3.496   2.401  12.869
14869TIP3    H166098   3.419   2.441  12.828
14869TIP3    H266099   3.495   2.310  12.839
14870TIP3   OH266100   3.869   2.472  14.812
14870TIP3    H166101   3.778   2.449  14.831
14870TIP3    H266102   3.897   2.408  14.747
14871TIP3   OH266103   2.369   2.651   2.430
14871TIP3    H166104   2.279   2.682   2.425
14871TIP3    H266105   2.405   2.666   2.342
14872TIP3   OH266106   0.583   4.223   5.741
14872TIP3    H166107   0.489   4.236   5.726
14872TIP3    H266108   0.625   4.258   5.663
14873TIP3   OH266109   0.448   4.246   2.578
14873TIP3    H166110   0.499   4.272   2.655
14873TIP3    H266111   0.475   4.309   2.510
14874TIP3   OH266112   2.394   3.998  12.547
14874TIP3    H166113   2.340   4.064  12.505
14874TIP3    H266114   2.371   4.002  12.640
14875TIP3   OH266115   1.752   4.775  15.221
14875TIP3    H166116   1.833   4.773  15.272
14875TIP3    H266117   1.772   4.832  15.147
14876TIP3   OH266118   0.539   0.334   4.431
14876TIP3    H166119   0.485   0.394   4.380
14876TIP3    H266120   0.498   0.249   4.420
14877TIP3   OH266121   4.312   3.342  11.130
14877TIP3    H166122   4.313   3.382  11.217
14877TIP3    H266123   4.219   3.325  11.113
14878TIP3   OH266124   4.842   2.679   3.506
14878TIP3    H166125   4.803   2.655   3.590
14878TIP3    H266126   4.936   2.686   3.524
14879TIP3   OH266127   5.978   2.244   2.735
14879TIP3    H166128   5.925   2.322   2.753
14879TIP3    H266129   5.968   2.230   2.641
14880TIP3   OH266130   4.873   1.838   5.168
14880TIP3    H166131   4.825   1.911   5.128
14880TIP3    H266132   4.854   1.763   5.112
14881TIP3   OH266133   5.493   5.799   1.911
14881TIP3    H166134   5.415   5.800   1.857
14881TIP3    H266135   5.540   5.719   1.885
14882TIP3   OH266136   6.029   6.819  12.711
14882TIP3    H166137   6.004   6.911  12.701
14882TIP3    H266138   5.971   6.786  12.779
14883TIP3   OH266139   2.319   6.547   1.840
14883TIP3    H166140   2.390   6.519   1.782
14883TIP3    H266141   2.239   6.531   1.791
14884TIP3   OH266142   5.405   3.142   1.890
14884TIP3    H166143   5.491   3.175   1.865
14884TIP3    H266144   5.346   3.170   1.820
14885TIP3   OH266145   5.310   5.304  15.329
14885TIP3    H166146   5.268   5.388  15.312
14885TIP3    H266147   5.385   5.326  15.385
14886TIP3   OH266148   2.777   3.352  11.956
14886TIP3    H166149   2.715   3.406  11.908
14886TIP3    H266150   2.812   3.292  11.889
14887TIP3   OH266151   2.297   4.460  16.067
14887TIP3    H166152   2.236   4.457  15.993
14887TIP3    H266153   2.263   4.530  16.123
14888TIP3   OH266154   4.950   3.059   6.476
14888TIP3    H166155   5.044   3.040   6.476
14888TIP3    H266156   4.926   3.059   6.569
14889TIP3   OH266157   2.192   5.802  14.727
14889TIP3    H166158   2.154   5.785  14.813
14889TIP3    H266159   2.127   5.769  14.665
14890TIP3   OH266160   4.958   2.939  14.331
14890TIP3    H166161   5.001   2.967  14.412
14890TIP3    H266162   5.019   2.877  14.292
14891TIP3   OH266163   6.367   6.710  14.721
14891TIP3    H166164   6.391   6.769  14.649
14891TIP3    H266165   6.450   6.689  14.764
14892TIP3   OH266166   6.351   0.543   0.924
14892TIP3    H166167   6.312   0.630   0.929
14892TIP3    H266168   6.365   0.528   0.830
14893TIP3   OH266169   1.310   2.829  14.024
14893TIP3    H166170   1.349   2.825  13.937
14893TIP3    H266171   1.294   2.922  14.039
14894TIP3   OH266172   1.235   5.182   5.480
14894TIP3    H166173   1.240   5.275   5.461
14894TIP3    H266174   1.239   5.139   5.394
14895TIP3   OH266175   6.797   2.678  14.002
14895TIP3    H166176   6.867   2.707  14.061
14895TIP3    H266177   6.768   2.758  13.958
14896TIP3   OH266178   5.264   3.003   5.144
14896TIP3    H166179   5.340   2.950   5.120
14896TIP3    H266180   5.213   2.947   5.203
14897TIP3   OH266181   6.717   4.666  12.405
14897TIP3    H166182   6.808   4.681  12.431
14897TIP3    H266183   6.689   4.749  12.367
14898TIP3   OH266184   5.969   0.090   4.282
14898TIP3    H166185   5.899   0.044   4.236
14898TIP3    H266186   5.944   0.087   4.374
14899TIP3   OH266187   5.083   6.254  14.990
14899TIP3    H166188   5.057   6.163  14.980
14899TIP3    H266189   5.177   6.252  15.004
14900TIP3   OH266190   4.368   2.779  12.354
14900TIP3    H166191   4.367   2.798  12.448
14900TIP3    H266192   4.291   2.825  12.320
14901TIP3   OH266193   5.234   0.026   4.951
14901TIP3    H166194   5.191  -0.010   4.874
14901TIP3    H266195   5.207  -0.032   5.022
14902TIP3   OH266196   1.929   4.896   0.649
14902TIP3    H166197   2.021   4.892   0.675
14902TIP3    H266198   1.915   4.987   0.623
14903TIP3   OH266199   0.371   0.519   5.572
14903TIP3    H166200   0.390   0.557   5.658
14903TIP3    H266201   0.278   0.499   5.574
14904TIP3   OH266202   0.558   5.394   0.542
14904TIP3    H166203   0.525   5.314   0.584
14904TIP3    H266204   0.606   5.439   0.612
14905TIP3   OH266205   1.148   3.120   5.708
14905TIP3    H166206   1.242   3.133   5.722
14905TIP3    H266207   1.107   3.198   5.746
14906TIP3   OH266208   1.747   6.105  14.032
14906TIP3    H166209   1.796   6.114  14.114
14906TIP3    H266210   1.675   6.046  14.052
14907TIP3   OH266211   2.148   5.524  13.338
14907TIP3    H166212   2.237   5.499  13.313
14907TIP3    H266213   2.092   5.464  13.290
14908TIP3   OH266214   3.040   0.919   1.323
14908TIP3    H166215   2.970   0.881   1.376
14908TIP3    H266216   3.112   0.856   1.331
14909TIP3   OH266217   0.427   0.767  12.799
14909TIP3    H166218   0.381   0.764  12.716
14909TIP3    H266219   0.425   0.859  12.825
14910TIP3   OH266220   5.967   4.497  11.291
14910TIP3    H166221   6.032   4.546  11.341
14910TIP3    H266222   5.899   4.561  11.270
14911TIP3   OH266223   5.287   4.705  12.464
14911TIP3    H166224   5.301   4.651  12.542
14911TIP3    H266225   5.212   4.666  12.420
14912TIP3   OH266226   3.050   4.558   6.090
14912TIP3    H166227   3.036   4.627   6.155
14912TIP3    H266228   3.056   4.477   6.140
14913TIP3   OH266229   0.521   1.468  15.106
14913TIP3    H166230   0.515   1.389  15.159
14913TIP3    H266231   0.614   1.491  15.106
14914TIP3   OH266232   5.630   5.439  12.661
14914TIP3    H166233   5.703   5.445  12.599
14914TIP3    H266234   5.611   5.346  12.666
14915TIP3   OH266235   0.803   1.844   3.909
14915TIP3    H166236   0.757   1.868   3.828
14915TIP3    H266237   0.883   1.896   3.908
14916TIP3   OH266238   3.948   1.198  15.463
14916TIP3    H166239   3.906   1.272  15.418
14916TIP3    H266240   3.948   1.223  15.555
14917TIP3   OH266241   5.737   3.551   3.724
14917TIP3    H166242   5.670   3.489   3.752
14917TIP3    H266243   5.811   3.496   3.699
14918TIP3   OH266244   6.523   2.665  16.803
14918TIP3    H166245   6.594   2.650  16.741
14918TIP3    H266246   6.528   2.591  16.863
14919TIP3   OH266247   6.004   3.009  15.197
14919TIP3    H166248   6.027   2.931  15.248
14919TIP3    H266249   5.933   2.980  15.140
14920TIP3   OH266250   4.759   1.912  12.473
14920TIP3    H166251   4.835   1.935  12.527
14920TIP3    H266252   4.782   1.942  12.385
14921TIP3   OH266253   0.032   0.312  15.414
14921TIP3    H166254   0.018   0.404  15.433
14921TIP3    H266255   0.001   0.266  15.492
14922TIP3   OH266256   1.623   5.928  16.971
14922TIP3    H166257   1.603   5.861  17.037
14922TIP3    H266258   1.582   6.008  17.005
14923TIP3   OH266259   0.375   1.579   1.734
14923TIP3    H166260   0.332   1.518   1.794
14923TIP3    H266261   0.464   1.544   1.725
14924TIP3   OH266262   4.559   0.623  13.895
14924TIP3    H166263   4.508   0.681  13.838
14924TIP3    H266264   4.519   0.537  13.884
14925TIP3   OH266265   2.269   2.174  16.905
14925TIP3    H166266   2.320   2.130  16.973
14925TIP3    H266267   2.325   2.244  16.874
14926TIP3   OH266268   2.770   1.156  13.253
14926TIP3    H166269   2.691   1.109  13.226
14926TIP3    H266270   2.841   1.110  13.209
14927TIP3   OH266271   2.208   4.546   2.743
14927TIP3    H166272   2.156   4.626   2.753
14927TIP3    H266273   2.151   4.476   2.774
14928TIP3   OH266274   2.127   4.952   3.206
14928TIP3    H166275   2.132   4.956   3.302
14928TIP3    H266276   2.156   4.863   3.185
14929TIP3   OH266277   3.158   3.151  15.707
14929TIP3    H166278   3.222   3.187  15.645
14929TIP3    H266279   3.101   3.226  15.728
14930TIP3   OH266280   0.574   2.125  17.272
14930TIP3    H166281   0.669   2.121  17.262
14930TIP3    H266282   0.539   2.104  17.185
14931TIP3   OH266283   1.743   4.706   2.993
14931TIP3    H166284   1.831   4.706   2.955
14931TIP3    H266285   1.752   4.751   3.077
14932TIP3   OH266286   1.018   2.528   3.639
14932TIP3    H166287   1.054   2.615   3.624
14932TIP3    H266288   0.925   2.543   3.655
14933TIP3   OH266289   3.812   4.718  13.393
14933TIP3    H166290   3.803   4.693  13.301
14933TIP3    H266291   3.771   4.646  13.441
14934TIP3   OH266292   0.193   2.534   2.515
14934TIP3    H166293   0.174   2.551   2.422
14934TIP3    H266294   0.132   2.465   2.540
14935TIP3   OH266295   0.817   2.608   5.841
14935TIP3    H166296   0.789   2.551   5.769
14935TIP3    H266297   0.745   2.603   5.904
14936TIP3   OH266298   4.270   3.096   2.873
14936TIP3    H166299   4.335   3.091   2.803
14936TIP3    H266300   4.186   3.102   2.827
14937TIP3   OH266301   3.590   4.466   3.485
14937TIP3    H166302   3.520   4.400   3.481
14937TIP3    H266303   3.622   4.462   3.575
14938TIP3   OH266304   2.965   5.617  11.595
14938TIP3    H166305   3.023   5.568  11.537
14938TIP3    H266306   2.896   5.554  11.619
14939TIP3   OH266307   4.720   3.669   5.777
14939TIP3    H166308   4.791   3.609   5.800
14939TIP3    H266309   4.653   3.612   5.739
14940TIP3   OH266310   3.875   3.014  13.435
14940TIP3    H166311   3.950   3.057  13.477
14940TIP3    H266312   3.903   2.999  13.345
14941TIP3   OH266313   1.675   2.054   2.966
14941TIP3    H166314   1.643   2.045   2.876
14941TIP3    H266315   1.752   1.997   2.969
14942TIP3   OH266316   1.200   3.408   2.873
14942TIP3    H166317   1.151   3.446   2.945
14942TIP3    H266318   1.135   3.359   2.822
14943TIP3   OH266319   1.041   2.688   4.725
14943TIP3    H166320   1.035   2.712   4.818
14943TIP3    H266321   1.132   2.661   4.713
14944TIP3   OH266322   2.910   4.261   4.560
14944TIP3    H166323   2.827   4.296   4.592
14944TIP3    H266324   2.886   4.179   4.516
14945TIP3   OH266325   2.261   0.323   3.084
14945TIP3    H166326   2.354   0.336   3.069
14945TIP3    H266327   2.221   0.335   2.998
14946TIP3   OH266328   2.468   4.322  11.860
14946TIP3    H166329   2.503   4.408  11.835
14946TIP3    H266330   2.375   4.336  11.873
14947TIP3   OH266331   1.189   5.217   0.651
14947TIP3    H166332   1.185   5.153   0.580
14947TIP3    H266333   1.172   5.167   0.731
14948TIP3   OH266334   1.166   6.205   5.749
14948TIP3    H166335   1.187   6.155   5.670
14948TIP3    H266336   1.073   6.223   5.742
14949TIP3   OH266337   0.284   4.832  17.285
14949TIP3    H166338   0.213   4.841  17.348
14949TIP3    H266339   0.242   4.800  17.205
14950TIP3   OH266340   4.344   3.068   1.299
14950TIP3    H166341   4.416   3.017   1.261
14950TIP3    H266342   4.380   3.101   1.382
14951TIP3   OH266343   3.534   2.760  12.119
14951TIP3    H166344   3.451   2.744  12.075
14951TIP3    H266345   3.582   2.678  12.109
14952TIP3   OH266346   3.570   6.780  16.745
14952TIP3    H166347   3.502   6.717  16.720
14952TIP3    H266348   3.528   6.865  16.734
14953TIP3   OH266349   4.173   2.513   3.390
14953TIP3    H166350   4.146   2.483   3.477
14953TIP3    H266351   4.121   2.592   3.375
14954TIP3   OH266352   3.689   3.796   9.978
14954TIP3    H166353   3.686   3.873  10.034
14954TIP3    H266354   3.598   3.765   9.975
14955TIP3   OH266355   0.878   2.645  14.468
14955TIP3    H166356   0.850   2.663  14.557
14955TIP3    H266357   0.800   2.609  14.425
14956TIP3   OH266358   4.604   5.990  17.251
14956TIP3    H166359   4.542   6.034  17.193
14956TIP3    H266360   4.652   5.930  17.193
14957TIP3   OH266361   1.063   1.827   1.725
14957TIP3    H166362   1.140   1.773   1.742
14957TIP3    H266363   1.059   1.889   1.798
14958TIP3   OH266364   0.974   2.687   1.632
14958TIP3    H166365   0.881   2.710   1.630
14958TIP3    H266366   0.978   2.607   1.684
14959TIP3   OH266367   1.584   2.319  11.110
14959TIP3    H166368   1.510   2.298  11.054
14959TIP3    H266369   1.656   2.337  11.049
14960TIP3   OH266370   5.485   0.126   1.985
14960TIP3    H166371   5.403   0.175   1.987
14960TIP3    H266372   5.544   0.173   2.044
14961TIP3   OH266373   1.036   6.278  13.928
14961TIP3    H166374   1.008   6.339  13.860
14961TIP3    H266375   0.960   6.221  13.942
14962TIP3   OH266376   6.066   3.297  11.057
14962TIP3    H166377   6.100   3.285  11.146
14962TIP3    H266378   6.138   3.272  11.000
14963TIP3   OH266379   5.208   6.647   5.137
14963TIP3    H166380   5.260   6.602   5.204
14963TIP3    H266381   5.128   6.596   5.130
14964TIP3   OH266382   1.641   0.599   2.657
14964TIP3    H166383   1.702   0.672   2.644
14964TIP3    H266384   1.585   0.628   2.729
14965TIP3   OH266385   6.121   0.083   0.125
14965TIP3    H166386   6.074   0.166   0.116
14965TIP3    H266387   6.052   0.018   0.138
14966TIP3   OH266388   0.916   2.126  16.657
14966TIP3    H166389   0.982   2.195  16.665
14966TIP3    H266390   0.924   2.096  16.567
14967TIP3   OH266391   4.822   6.168   0.644
14967TIP3    H166392   4.790   6.258   0.637
14967TIP3    H266393   4.863   6.151   0.560
14968TIP3   OH266394   2.356   4.291  14.867
14968TIP3    H166395   2.302   4.255  14.937
14968TIP3    H266396   2.353   4.225  14.798
14969TIP3   OH266397   6.398   2.341  13.940
14969TIP3    H166398   6.397   2.436  13.953
14969TIP3    H266399   6.420   2.329  13.848
14970TIP3   OH266400   6.445   0.012   4.270
14970TIP3    H166401   6.537   0.039   4.276
14970TIP3    H266402   6.398   0.092   4.247
14971TIP3   OH266403   0.267   0.036  12.821
14971TIP3    H166404   0.315   0.085  12.754
14971TIP3    H266405   0.227  -0.037  12.773
14972TIP3   OH266406   6.416   5.568  11.398
14972TIP3    H166407   6.361   5.613  11.334
14972TIP3    H266408   6.356   5.538  11.465
14973TIP3   OH266409   3.540   1.578  11.624
14973TIP3    H166410   3.468   1.517  11.642
14973TIP3    H266411   3.497   1.659  11.596
14974TIP3   OH266412   2.499   1.091   3.275
14974TIP3    H166413   2.478   1.145   3.199
14974TIP3    H266414   2.511   1.003   3.240
14975TIP3   OH266415   3.603   2.206  14.511
14975TIP3    H166416   3.516   2.199  14.472
14975TIP3    H266417   3.658   2.243  14.441
14976TIP3   OH266418   3.943   4.873   4.473
14976TIP3    H166419   4.022   4.863   4.419
14976TIP3    H266420   3.938   4.792   4.523
14977TIP3   OH266421   4.409   1.245   2.248
14977TIP3    H166422   4.384   1.264   2.338
14977TIP3    H266423   4.404   1.329   2.203
14978TIP3   OH266424   0.331   0.307   2.121
14978TIP3    H166425   0.312   0.352   2.203
14978TIP3    H266426   0.344   0.378   2.058
14979TIP3   OH266427   0.853   3.400  15.583
14979TIP3    H166428   0.800   3.390  15.504
14979TIP3    H266429   0.796   3.371  15.654
14980TIP3   OH266430   0.763   6.699   6.022
14980TIP3    H166431   0.840   6.643   6.013
14980TIP3    H266432   0.798   6.786   6.042
14981TIP3   OH266433   1.292   5.157  16.409
14981TIP3    H166434   1.290   5.217  16.334
14981TIP3    H266435   1.365   5.098  16.390
14982TIP3   OH266436   1.837   5.829   1.812
14982TIP3    H166437   1.743   5.825   1.831
14982TIP3    H266438   1.858   5.922   1.809
14983TIP3   OH266439   1.402   0.351  16.475
14983TIP3    H166440   1.497   0.364  16.467
14983TIP3    H266441   1.364   0.429  16.435
14984TIP3   OH266442   2.746   0.489   2.188
14984TIP3    H166443   2.706   0.480   2.102
14984TIP3    H266444   2.802   0.566   2.181
14985TIP3   OH266445   2.888   0.746   3.835
14985TIP3    H166446   2.836   0.812   3.789
14985TIP3    H266447   2.829   0.709   3.900
14986TIP3   OH266448   5.119   3.999  16.009
14986TIP3    H166449   5.173   3.976  16.085
14986TIP3    H266450   5.153   4.085  15.982
14987TIP3   OH266451   2.684   0.652  16.214
14987TIP3    H166452   2.679   0.652  16.309
14987TIP3    H266453   2.764   0.700  16.194
14988TIP3   OH266454   2.954   6.141   2.002
14988TIP3    H166455   2.961   6.202   1.928
14988TIP3    H266456   2.867   6.100   1.991
14989TIP3   OH266457   0.526   6.004   5.283
14989TIP3    H166458   0.506   5.924   5.331
14989TIP3    H266459   0.561   5.974   5.199
14990TIP3   OH266460   2.415   3.380   4.359
14990TIP3    H166461   2.469   3.422   4.425
14990TIP3    H266462   2.464   3.301   4.334
14991TIP3   OH266463   1.348   1.793  13.842
14991TIP3    H166464   1.383   1.704  13.837
14991TIP3    H266465   1.265   1.785  13.888
14992TIP3   OH266466   5.540   2.605   4.254
14992TIP3    H166467   5.509   2.674   4.314
14992TIP3    H266468   5.612   2.646   4.206
14993TIP3   OH266469   4.260   6.310  16.724
14993TIP3    H166470   4.191   6.328  16.660
14993TIP3    H266471   4.290   6.397  16.752
14994TIP3   OH266472   1.932   2.154  16.340
14994TIP3    H166473   1.953   2.061  16.327
14994TIP3    H266474   1.991   2.183  16.409
14995TIP3   OH266475   4.271   1.766  12.360
14995TIP3    H166476   4.351   1.714  12.354
14995TIP3    H266477   4.251   1.790  12.269
14996TIP3   OH266478   3.250   2.322   2.611
14996TIP3    H166479   3.330   2.282   2.646
14996TIP3    H266480   3.210   2.254   2.557
14997TIP3   OH266481   5.798   6.019   3.510
14997TIP3    H166482   5.746   6.068   3.446
14997TIP3    H266483   5.766   6.047   3.595
14998TIP3   OH266484   5.953   4.349  14.275
14998TIP3    H166485   6.017   4.421  14.280
14998TIP3    H266486   5.939   4.323  14.366
14999TIP3   OH266487   0.430   2.120  12.111
14999TIP3    H166488   0.402   2.084  12.195
14999TIP3    H266489   0.375   2.198  12.099
15000TIP3   OH266490   5.372   0.592  11.617
15000TIP3    H166491   5.459   0.572  11.585
15000TIP3    H266492   5.359   0.531  11.690
15001TIP3   OH266493   5.189   3.858   1.422
15001TIP3    H166494   5.188   3.771   1.382
15001TIP3    H266495   5.186   3.919   1.348
15002TIP3   OH266496   1.134   2.748  16.081
15002TIP3    H166497   1.108   2.730  15.990
15002TIP3    H266498   1.065   2.804  16.115
15003TIP3   OH266499   5.014   2.330  11.131
15003TIP3    H166500   4.996   2.404  11.073
15003TIP3    H266501   5.103   2.345  11.162
15004TIP3   OH266502   4.798   3.845   1.775
15004TIP3    H166503   4.887   3.864   1.744
15004TIP3    H266504   4.753   3.929   1.771
15005TIP3   OH266505   1.333   2.310  12.667
15005TIP3    H166506   1.369   2.222  12.663
15005TIP3    H266507   1.407   2.366  12.690
15006TIP3   OH266508   1.028   0.544  13.420
15006TIP3    H166509   1.024   0.458  13.461
15006TIP3    H266510   0.945   0.551  13.372
15007TIP3   OH266511   4.594   5.115  11.603
15007TIP3    H166512   4.524   5.177  11.585
15007TIP3    H266513   4.560   5.060  11.674
15008TIP3   OH266514   4.690   5.169  12.482
15008TIP3    H166515   4.611   5.175  12.428
15008TIP3    H266516   4.754   5.225  12.439
15009TIP3   OH266517   4.218   6.205   3.754
15009TIP3    H166518   4.239   6.113   3.769
15009TIP3    H266519   4.183   6.235   3.838
15010TIP3   OH266520   2.260   0.766  16.135
15010TIP3    H166521   2.205   0.688  16.134
15010TIP3    H266522   2.293   0.772  16.224
15011TIP3   OH266523   6.480   0.634  16.278
15011TIP3    H166524   6.562   0.592  16.302
15011TIP3    H266525   6.412   0.568  16.296
15012TIP3   OH266526   3.490   3.452   4.139
15012TIP3    H166527   3.444   3.424   4.218
15012TIP3    H266528   3.534   3.533   4.164
15013TIP3   OH266529   1.806   0.809  15.256
15013TIP3    H166530   1.833   0.723  15.287
15013TIP3    H266531   1.798   0.862  15.336
15014TIP3   OH266532   2.541   6.695  12.063
15014TIP3    H166533   2.606   6.669  11.999
15014TIP3    H266534   2.474   6.742  12.013
15015TIP3   OH266535   0.665   1.915  14.313
15015TIP3    H166536   0.627   1.945  14.231
15015TIP3    H266537   0.635   1.825  14.323
15016TIP3   OH266538   5.031   1.447   1.255
15016TIP3    H166539   4.959   1.383   1.256
15016TIP3    H266540   5.074   1.436   1.340
15017TIP3   OH266541   1.000   4.640   0.373
15017TIP3    H166542   0.975   4.696   0.300
15017TIP3    H266543   0.977   4.551   0.344
15018TIP3   OH266544   5.755   2.003  11.803
15018TIP3    H166545   5.682   2.001  11.865
15018TIP3    H266546   5.743   1.924  11.750
15019TIP3   OH266547   2.872   3.248  14.285
15019TIP3    H166548   2.874   3.344  14.292
15019TIP3    H266549   2.796   3.221  14.336
15020TIP3   OH266550   0.992   5.166   0.894
15020TIP3    H166551   0.934   5.089   0.893
15020TIP3    H266552   0.944   5.231   0.944
15021TIP3   OH266553   1.243   4.352   0.671
15021TIP3    H166554   1.236   4.441   0.635
15021TIP3    H266555   1.337   4.337   0.680
15022TIP3   OH266556   6.186   0.947   1.248
15022TIP3    H166557   6.100   0.977   1.217
15022TIP3    H266558   6.167   0.890   1.322
15023TIP3   OH266559   6.348   4.815   3.357
15023TIP3    H166560   6.273   4.810   3.416
15023TIP3    H266561   6.381   4.904   3.369
15024TIP3   OH266562   3.536   1.533  16.012
15024TIP3    H166563   3.514   1.614  16.057
15024TIP3    H266564   3.631   1.528  16.016
15025TIP3   OH266565   3.271   2.494   2.370
15025TIP3    H166566   3.297   2.460   2.285
15025TIP3    H266567   3.307   2.433   2.433
15026TIP3   OH266568   2.997   0.585  12.470
15026TIP3    H166569   3.081   0.612  12.433
15026TIP3    H266570   3.020   0.521  12.538
15027TIP3   OH266571   4.449   5.549  16.781
15027TIP3    H166572   4.477   5.614  16.716
15027TIP3    H266573   4.455   5.595  16.864
15028TIP3   OH266574   4.357   5.107   0.769
15028TIP3    H166575   4.369   5.113   0.864
15028TIP3    H266576   4.263   5.100   0.756
15029TIP3   OH266577   1.292   4.052   4.665
15029TIP3    H166578   1.273   3.966   4.702
15029TIP3    H266579   1.234   4.112   4.712
15030TIP3   OH266580   4.433   1.465   1.436
15030TIP3    H166581   4.425   1.389   1.379
15030TIP3    H266582   4.478   1.531   1.383
15031TIP3   OH266583   1.194   5.415   0.121
15031TIP3    H166584   1.139   5.445   0.049
15031TIP3    H266585   1.202   5.320   0.107
15032TIP3   OH266586   3.304   0.810   2.422
15032TIP3    H166587   3.311   0.722   2.459
15032TIP3    H266588   3.318   0.869   2.496
15033TIP3   OH266589   4.255   4.903   0.387
15033TIP3    H166590   4.229   4.848   0.312
15033TIP3    H266591   4.172   4.933   0.424
15034TIP3   OH266592   4.305   1.581  16.479
15034TIP3    H166593   4.320   1.656  16.536
15034TIP3    H266594   4.340   1.506  16.529
15035TIP3   OH266595   2.373   3.729  12.114
15035TIP3    H166596   2.381   3.634  12.109
15035TIP3    H266597   2.352   3.746  12.206
15036TIP3   OH266598   6.709   1.100   0.815
15036TIP3    H166599   6.799   1.068   0.807
15036TIP3    H266600   6.685   1.126   0.726
15037TIP3   OH266601   6.694   2.923   6.178
15037TIP3    H166602   6.766   2.949   6.236
15037TIP3    H266603   6.629   2.885   6.237
15038TIP3   OH266604   5.029   5.766  17.086
15038TIP3    H166605   5.110   5.807  17.058
15038TIP3    H266606   5.056   5.685  17.129
15039TIP3   OH266607   4.206   6.766   4.316
15039TIP3    H166608   4.198   6.858   4.289
15039TIP3    H266609   4.196   6.768   4.411
15040TIP3   OH266610   2.694   5.070  13.773
15040TIP3    H166611   2.765   5.131  13.795
15040TIP3    H266612   2.667   5.033  13.857
15041TIP3   OH266613   0.677   3.878   4.354
15041TIP3    H166614   0.695   3.908   4.443
15041TIP3    H266615   0.597   3.827   4.361
15042TIP3   OH266616   2.794   6.742  10.499
15042TIP3    H166617   2.881   6.721  10.465
15042TIP3    H266618   2.777   6.675  10.565
15043TIP3   OH266619   0.772   0.304   3.060
15043TIP3    H166620   0.815   0.274   3.140
15043TIP3    H266621   0.679   0.281   3.073
15044TIP3   OH266622   3.776   4.128   4.560
15044TIP3    H166623   3.794   4.161   4.472
15044TIP3    H266624   3.795   4.034   4.554
15045TIP3   OH266625   3.817   3.349  12.907
15045TIP3    H166626   3.803   3.254  12.905
15045TIP3    H266627   3.912   3.360  12.907
15046TIP3   OH266628   5.244   2.077  16.254
15046TIP3    H166629   5.241   1.982  16.263
15046TIP3    H266630   5.241   2.092  16.159
15047TIP3   OH266631   5.601   2.703   6.140
15047TIP3    H166632   5.571   2.785   6.100
15047TIP3    H266633   5.540   2.687   6.212
15048TIP3   OH266634   0.453   4.858  14.182
15048TIP3    H166635   0.431   4.914  14.108
15048TIP3    H266636   0.433   4.911  14.259
15049TIP3   OH266637   4.938   3.279   5.512
15049TIP3    H166638   4.887   3.242   5.584
15049TIP3    H266639   4.979   3.203   5.471
15050TIP3   OH266640   4.288   6.238  11.407
15050TIP3    H166641   4.375   6.246  11.446
15050TIP3    H266642   4.249   6.163  11.451
15051TIP3   OH266643   3.799   0.010   3.361
15051TIP3    H166644   3.815   0.082   3.300
15051TIP3    H266645   3.859  -0.059   3.334
15052TIP3   OH266646   5.662   4.634   1.550
15052TIP3    H166647   5.608   4.559   1.573
15052TIP3    H266648   5.601   4.698   1.515
15053TIP3   OH266649   4.448   5.320  12.579
15053TIP3    H166650   4.523   5.279  12.621
15053TIP3    H266651   4.485   5.386  12.521
15054TIP3   OH266652   0.523   6.247   4.358
15054TIP3    H166653   0.569   6.168   4.330
15054TIP3    H266654   0.520   6.302   4.279
15055TIP3   OH266655   3.469   6.006  11.125
15055TIP3    H166656   3.409   6.065  11.172
15055TIP3    H266657   3.420   5.924  11.116
15056TIP3   OH266658   5.916   4.183   2.796
15056TIP3    H166659   5.867   4.263   2.814
15056TIP3    H266660   5.862   4.137   2.731
15057TIP3   OH266661   0.252   2.025   5.414
15057TIP3    H166662   0.322   2.076   5.453
15057TIP3    H266663   0.222   1.966   5.484
15058TIP3   OH266664   5.088   6.706  14.911
15058TIP3    H166665   5.070   6.636  14.848
15058TIP3    H266666   5.062   6.669  14.996
15059TIP3   OH266667   1.353   1.103   5.291
15059TIP3    H166668   1.340   1.127   5.199
15059TIP3    H266669   1.327   1.011   5.295
15060TIP3   OH266670   3.401   4.905   2.526
15060TIP3    H166671   3.374   4.969   2.592
15060TIP3    H266672   3.326   4.846   2.518
15061TIP3   OH266673   3.119   5.483  12.204
15061TIP3    H166674   3.206   5.492  12.164
15061TIP3    H266675   3.066   5.549  12.160
15062TIP3   OH266676   0.930   0.828  13.340
15062TIP3    H166677   0.884   0.910  13.321
15062TIP3    H266678   0.976   0.807  13.259
15063TIP3   OH266679   2.949   4.570   0.629
15063TIP3    H166680   2.860   4.535   0.634
15063TIP3    H266681   2.997   4.524   0.697
15064TIP3   OH266682   0.770   4.005  13.170
15064TIP3    H166683   0.812   3.951  13.102
15064TIP3    H266684   0.843   4.037  13.223
15065TIP3   OH266685   4.740   3.615  14.575
15065TIP3    H166686   4.682   3.688  14.551
15065TIP3    H266687   4.828   3.647  14.555
15066TIP3   OH266688   3.710   4.693  13.871
15066TIP3    H166689   3.750   4.617  13.914
15066TIP3    H266690   3.659   4.735  13.941
15067TIP3   OH266691   3.554   3.529   3.080
15067TIP3    H166692   3.605   3.585   3.020
15067TIP3    H266693   3.620   3.480   3.129
15068TIP3   OH266694   6.619   5.744  15.437
15068TIP3    H166695   6.628   5.751  15.342
15068TIP3    H266696   6.543   5.689  15.450
15069TIP3   OH266697   3.610   5.353  12.957
15069TIP3    H166698   3.526   5.356  12.912
15069TIP3    H266699   3.599   5.285  13.024
15070TIP3   OH266700   1.977   4.847   2.392
15070TIP3    H166701   1.924   4.893   2.327
15070TIP3    H266702   2.064   4.885   2.383
15071TIP3   OH266703   1.969   0.454   4.480
15071TIP3    H166704   1.966   0.365   4.444
15071TIP3    H266705   1.890   0.496   4.446
15072TIP3   OH266706   1.284   0.935  11.415
15072TIP3    H166707   1.288   0.958  11.322
15072TIP3    H266708   1.344   0.860  11.423
15073TIP3   OH266709   2.960   5.181   5.062
15073TIP3    H166710   2.874   5.218   5.039
15073TIP3    H266711   2.962   5.097   5.016
15074TIP3   OH266712   3.215   0.864   5.199
15074TIP3    H166713   3.205   0.906   5.114
15074TIP3    H266714   3.308   0.871   5.220
15075TIP3   OH266715   3.367   2.906   3.963
15075TIP3    H166716   3.276   2.911   3.991
15075TIP3    H266717   3.363   2.912   3.868
15076TIP3   OH266718   3.217   2.011   1.723
15076TIP3    H166719   3.156   2.071   1.682
15076TIP3    H266720   3.235   2.049   1.809
15077TIP3   OH266721   3.925   6.093   6.378
15077TIP3    H166722   3.878   6.097   6.461
15077TIP3    H266723   3.951   6.001   6.370
15078TIP3   OH266724   4.250   3.460  12.500
15078TIP3    H166725   4.184   3.390  12.500
15078TIP3    H266726   4.205   3.535  12.461
15079TIP3   OH266727   3.698   0.118   5.377
15079TIP3    H166728   3.647   0.184   5.330
15079TIP3    H266729   3.769   0.168   5.417
15080TIP3   OH266730   2.710   2.543  12.554
15080TIP3    H166731   2.637   2.481  12.559
15080TIP3    H266732   2.765   2.510  12.484
15081TIP3   OH266733   5.538   1.449  15.066
15081TIP3    H166734   5.575   1.420  15.150
15081TIP3    H266735   5.556   1.543  15.063
15082TIP3   OH266736   2.578   3.834   2.060
15082TIP3    H166737   2.658   3.809   2.013
15082TIP3    H266738   2.610   3.865   2.145
15083TIP3   OH266739   6.180   4.760   1.523
15083TIP3    H166740   6.216   4.847   1.536
15083TIP3    H266741   6.087   4.769   1.542
15084TIP3   OH266742   2.658   1.115  11.758
15084TIP3    H166743   2.649   1.151  11.670
15084TIP3    H266744   2.690   1.026  11.745
15085TIP3   OH266745   6.706   4.932  12.993
15085TIP3    H166746   6.763   4.931  12.916
15085TIP3    H266747   6.680   5.024  13.002
15086TIP3   OH266748   0.456   3.566  11.578
15086TIP3    H166749   0.365   3.541  11.593
15086TIP3    H266750   0.453   3.620  11.499
15087TIP3   OH266751   2.700   1.262  14.937
15087TIP3    H166752   2.617   1.269  14.889
15087TIP3    H266753   2.743   1.346  14.924
15088TIP3   OH266754   6.816   5.418   5.394
15088TIP3    H166755   6.733   5.380   5.365
15088TIP3    H266756   6.850   5.462   5.316
15089TIP3   OH266757   0.544   3.219   3.203
15089TIP3    H166758   0.537   3.206   3.297
15089TIP3    H266759   0.606   3.152   3.174
15090TIP3   OH266760   0.779   6.100  12.910
15090TIP3    H166761   0.732   6.175  12.946
15090TIP3    H266762   0.714   6.054  12.858
15091TIP3   OH266763   1.524   6.684   3.884
15091TIP3    H166764   1.539   6.598   3.923
15091TIP3    H266765   1.603   6.734   3.904
15092TIP3   OH266766   6.407   0.239   1.611
15092TIP3    H166767   6.330   0.270   1.564
15092TIP3    H266768   6.384   0.245   1.703
15093TIP3   OH266769   5.867   5.623   6.875
15093TIP3    H166770   5.864   5.562   6.801
15093TIP3    H266771   5.775   5.634   6.900
15094TIP3   OH266772   6.571   4.259  15.261
15094TIP3    H166773   6.591   4.189  15.198
15094TIP3    H266774   6.578   4.216  15.346
15095TIP3   OH266775   5.922   5.817   4.906
15095TIP3    H166776   5.910   5.904   4.867
15095TIP3    H266777   6.017   5.808   4.917
15096TIP3   OH266778   5.512   3.693  13.198
15096TIP3    H166779   5.529   3.638  13.275
15096TIP3    H266780   5.447   3.645  13.148
15097TIP3   OH266781   2.098   1.281   0.499
15097TIP3    H166782   2.065   1.193   0.485
15097TIP3    H266783   2.061   1.307   0.584
15098TIP3   OH266784   4.307   2.598  13.848
15098TIP3    H166785   4.222   2.555  13.856
15098TIP3    H266786   4.323   2.602  13.754
15099TIP3   OH266787   3.166   4.096   3.766
15099TIP3    H166788   3.073   4.102   3.747
15099TIP3    H266789   3.171   4.073   3.859
15100TIP3   OH266790   6.191   3.340   0.748
15100TIP3    H166791   6.276   3.299   0.765
15100TIP3    H266792   6.188   3.352   0.653
15101TIP3   OH266793   5.010   2.904  15.593
15101TIP3    H166794   4.927   2.921  15.548
15101TIP3    H266795   5.024   2.810  15.581
15102TIP3   OH266796   0.845   0.526  11.885
15102TIP3    H166797   0.847   0.432  11.866
15102TIP3    H266798   0.763   0.557  11.847
15103TIP3   OH266799   4.551   2.107   3.541
15103TIP3    H166800   4.573   2.096   3.449
15103TIP3    H266801   4.573   2.023   3.582
15104TIP3   OH266802   5.365   2.036   3.135
15104TIP3    H166803   5.308   2.095   3.185
15104TIP3    H266804   5.318   1.953   3.134
15105TIP3   OH266805   0.003   0.248  13.070
15105TIP3    H166806   0.039   0.209  12.990
15105TIP3    H266807   0.063   0.320  13.090
15106TIP3   OH266808   6.212   1.959  11.640
15106TIP3    H166809   6.239   1.955  11.731
15106TIP3    H266810   6.265   2.030  11.602
15107TIP3   OH266811   5.531   5.681  11.167
15107TIP3    H166812   5.531   5.739  11.090
15107TIP3    H266813   5.505   5.596  11.133
15108TIP3   OH266814   3.204   0.712  16.954
15108TIP3    H166815   3.175   0.801  16.933
15108TIP3    H266816   3.123   0.661  16.956
15109TIP3   OH266817   4.813   3.753  12.924
15109TIP3    H166818   4.757   3.830  12.933
15109TIP3    H266819   4.770   3.700  12.856
15110TIP3   OH266820   1.601   2.930  10.539
15110TIP3    H166821   1.527   2.990  10.539
15110TIP3    H266822   1.564   2.845  10.562
15111TIP3   OH266823   2.018   1.376   3.012
15111TIP3    H166824   2.060   1.443   2.958
15111TIP3    H266825   1.957   1.332   2.953
15112TIP3   OH266826   5.046   3.611  12.119
15112TIP3    H166827   5.122   3.552  12.118
15112TIP3    H266828   5.012   3.605  12.208
15113TIP3   OH266829   3.925   4.984   6.439
15113TIP3    H166830   3.920   4.919   6.369
15113TIP3    H266831   3.842   5.032   6.434
15114TIP3   OH266832   3.356   3.002  13.987
15114TIP3    H166833   3.279   2.972  13.939
15114TIP3    H266834   3.393   2.922  14.024
15115TIP3   OH266835   3.503   4.643  16.020
15115TIP3    H166836   3.413   4.618  15.997
15115TIP3    H266837   3.558   4.588  15.964
15116TIP3   OH266838   5.795   5.522   2.822
15116TIP3    H166839   5.785   5.480   2.736
15116TIP3    H266840   5.714   5.570   2.834
15117TIP3   OH266841   4.985   5.675   5.455
15117TIP3    H166842   5.059   5.727   5.425
15117TIP3    H266843   5.020   5.587   5.465
15118TIP3   OH266844   2.177   3.417   5.273
15118TIP3    H166845   2.220   3.352   5.217
15118TIP3    H266846   2.092   3.431   5.231
15119TIP3   OH266847   2.003   5.010  17.123
15119TIP3    H166848   1.919   5.041  17.158
15119TIP3    H266849   2.035   4.949  17.190
15120TIP3   OH266850   3.505   3.785  11.868
15120TIP3    H166851   3.578   3.817  11.920
15120TIP3    H266852   3.495   3.850  11.798
15121TIP3   OH266853   0.556   0.799  11.964
15121TIP3    H166854   0.592   0.761  11.884
15121TIP3    H266855   0.598   0.884  11.970
15122TIP3   OH266856   5.394   2.460  17.131
15122TIP3    H166857   5.428   2.375  17.106
15122TIP3    H266858   5.471   2.511  17.158
15123TIP3   OH266859   5.515   2.430  16.786
15123TIP3    H166860   5.486   2.497  16.724
15123TIP3    H266861   5.580   2.475  16.840
15124TIP3   OH266862   5.287   3.845   3.486
15124TIP3    H166863   5.235   3.919   3.519
15124TIP3    H266864   5.352   3.829   3.554
15125TIP3   OH266865   3.019   1.049   0.344
15125TIP3    H166866   3.026   1.129   0.397
15125TIP3    H266867   3.098   1.000   0.365
15126TIP3   OH266868   1.472   1.796   0.247
15126TIP3    H166869   1.484   1.702   0.262
15126TIP3    H266870   1.397   1.819   0.303
15127TIP3   OH266871   1.206   3.926  12.224
15127TIP3    H166872   1.243   3.917  12.136
15127TIP3    H266873   1.218   3.839  12.264
15128TIP3   OH266874   0.452   3.075   2.550
15128TIP3    H166875   0.468   3.169   2.559
15128TIP3    H266876   0.428   3.063   2.458
15129TIP3   OH266877   0.204   0.360  16.686
15129TIP3    H166878   0.119   0.385  16.721
15129TIP3    H266879   0.185   0.289  16.624
15130TIP3   OH266880   1.362   5.888  10.809
15130TIP3    H166881   1.306   5.838  10.868
15130TIP3    H266882   1.335   5.859  10.721
15131TIP3   OH266883   5.437   4.323  11.941
15131TIP3    H166884   5.525   4.360  11.951
15131TIP3    H266885   5.436   4.289  11.852
15132TIP3   OH266886   4.663   3.788   4.177
15132TIP3    H166887   4.613   3.715   4.142
15132TIP3    H266888   4.735   3.800   4.116
15133TIP3   OH266889   6.641   2.243  16.284
15133TIP3    H166890   6.577   2.313  16.272
15133TIP3    H266891   6.659   2.211  16.196
15134TIP3   OH266892   5.327   5.438   3.119
15134TIP3    H166893   5.399   5.421   3.180
15134TIP3    H266894   5.277   5.357   3.117
15135TIP3   OH266895   3.777   3.495  15.540
15135TIP3    H166896   3.717   3.439  15.589
15135TIP3    H266897   3.803   3.442  15.465
15136TIP3   OH266898   5.334   2.404  12.052
15136TIP3    H166899   5.338   2.477  12.113
15136TIP3    H266900   5.401   2.423  11.987
15137TIP3   OH266901   5.900   5.409  11.581
15137TIP3    H166902   5.957   5.333  11.580
15137TIP3    H266903   5.827   5.383  11.637
15138TIP3   OH266904   3.557   0.716   5.744
15138TIP3    H166905   3.497   0.646   5.718
15138TIP3    H266906   3.576   0.698   5.836
15139TIP3   OH266907   5.263   3.650   4.145
15139TIP3    H166908   5.212   3.712   4.093
15139TIP3    H266909   5.263   3.687   4.234
15140TIP3   OH266910   3.656   4.351  15.059
15140TIP3    H166911   3.613   4.413  15.117
15140TIP3    H266912   3.748   4.378  15.059
15141TIP3   OH266913   3.933   3.825   0.703
15141TIP3    H166914   4.004   3.800   0.644
15141TIP3    H266915   3.976   3.876   0.772
15142TIP3   OH266916   1.690   0.920   0.407
15142TIP3    H166917   1.653   0.915   0.319
15142TIP3    H266918   1.770   0.868   0.403
15143TIP3   OH266919   1.743   3.284  13.191
15143TIP3    H166920   1.743   3.193  13.223
15143TIP3    H266921   1.753   3.337  13.270
15144TIP3   OH266922   3.592   5.612   1.949
15144TIP3    H166923   3.569   5.562   2.027
15144TIP3    H266924   3.511   5.657   1.924
15145TIP3   OH266925   1.891   6.429   2.277
15145TIP3    H166926   1.910   6.418   2.184
15145TIP3    H266927   1.952   6.370   2.321
15146TIP3   OH266928   0.885   5.037  15.519
15146TIP3    H166929   0.869   5.057  15.611
15146TIP3    H266930   0.854   5.115  15.472
15147TIP3   OH266931   0.228   2.063   0.380
15147TIP3    H166932   0.138   2.046   0.352
15147TIP3    H266933   0.278   2.070   0.299
15148TIP3   OH266934   6.748   1.212  13.499
15148TIP3    H166935   6.785   1.203  13.411
15148TIP3    H266936   6.796   1.285  13.538
15149TIP3   OH266937   2.686   0.204  11.652
15149TIP3    H166938   2.728   0.164  11.729
15149TIP3    H266939   2.749   0.271  11.624
15150TIP3   OH266940   1.407   0.465   3.362
15150TIP3    H166941   1.348   0.540   3.371
15150TIP3    H266942   1.435   0.467   3.271
15151TIP3   OH266943   3.200   6.293   2.368
15151TIP3    H166944   3.185   6.263   2.457
15151TIP3    H266945   3.274   6.353   2.375
15152TIP3   OH266946   0.635   2.433  15.027
15152TIP3    H166947   0.586   2.496  14.973
15152TIP3    H266948   0.588   2.351  15.016
15153TIP3   OH266949   3.400   2.623  16.487
15153TIP3    H166950   3.438   2.705  16.520
15153TIP3    H266951   3.474   2.577  16.447
15154TIP3   OH266952   5.767   2.085   4.275
15154TIP3    H166953   5.709   2.161   4.289
15154TIP3    H266954   5.785   2.053   4.363
15155TIP3   OH266955   4.331   5.676  12.967
15155TIP3    H166956   4.343   5.631  13.051
15155TIP3    H266957   4.417   5.712  12.946
15156TIP3   OH266958   2.069   3.078   5.327
15156TIP3    H166959   2.119   3.103   5.405
15156TIP3    H266960   1.986   3.126   5.336
15157TIP3   OH266961   3.257   1.564  11.532
15157TIP3    H166962   3.223   1.649  11.506
15157TIP3    H266963   3.244   1.508  11.455
15158TIP3   OH266964   6.788   1.015  11.719
15158TIP3    H166965   6.864   0.990  11.771
15158TIP3    H266966   6.819   1.013  11.629
15159TIP3   OH266967   1.768   5.205   0.305
15159TIP3    H166968   1.803   5.281   0.259
15159TIP3    H266969   1.709   5.242   0.370
15160TIP3   OH266970   0.955   1.801   1.237
15160TIP3    H166971   0.920   1.721   1.277
15160TIP3    H266972   0.997   1.847   1.310
15161TIP3   OH266973   2.064   0.775  16.464
15161TIP3    H166974   2.112   0.856  16.449
15161TIP3    H266975   2.056   0.768  16.559
15162TIP3   OH266976   0.950   3.391  15.026
15162TIP3    H166977   1.007   3.466  15.043
15162TIP3    H266978   0.944   3.346  15.111
15163TIP3   OH266979   0.938   0.456  14.628
15163TIP3    H166980   0.898   0.499  14.704
15163TIP3    H266981   1.029   0.486  14.629
15164TIP3   OH266982   5.289   4.825  17.236
15164TIP3    H166983   5.368   4.838  17.183
15164TIP3    H266984   5.268   4.912  17.269
15165TIP3   OH266985   2.691   4.342   6.252
15165TIP3    H166986   2.649   4.307   6.331
15165TIP3    H266987   2.709   4.433   6.273
15166TIP3   OH266988   0.728   2.758   2.530
15166TIP3    H166989   0.696   2.720   2.448
15166TIP3    H266990   0.762   2.844   2.505
15167TIP3   OH266991   4.602   3.358  13.749
15167TIP3    H166992   4.697   3.368  13.739
15167TIP3    H266993   4.589   3.349  13.843
15168TIP3   OH266994   3.358   0.019   3.236
15168TIP3    H166995   3.356   0.025   3.331
15168TIP3    H266996   3.304   0.093   3.206
15169TIP3   OH266997   3.675   5.082   1.638
15169TIP3    H166998   3.629   5.099   1.720
15169TIP3    H266999   3.636   5.144   1.576
15170TIP3   OH267000   5.865   1.311  15.363
15170TIP3    H167001   5.866   1.304  15.267
15170TIP3    H267002   5.908   1.395  15.381
15171TIP3   OH267003   3.049   5.761   2.717
15171TIP3    H167004   3.005   5.794   2.638
15171TIP3    H267005   3.029   5.826   2.784
15172TIP3   OH267006   4.136   3.766  12.082
15172TIP3    H167007   4.129   3.849  12.128
15172TIP3    H267008   4.045   3.741  12.064
15173TIP3   OH267009   4.585   2.490   2.316
15173TIP3    H167010   4.565   2.397   2.323
15173TIP3    H267011   4.515   2.526   2.262
15174TIP3   OH267012   0.782   6.019  11.444
15174TIP3    H167013   0.787   5.927  11.416
15174TIP3    H267014   0.706   6.022  11.502
15175TIP3   OH267015   0.979   6.677  16.830
15175TIP3    H167016   0.980   6.681  16.735
15175TIP3    H267017   0.906   6.734  16.855
15176TIP3   OH267018   5.799   0.235   3.844
15176TIP3    H167019   5.780   0.309   3.787
15176TIP3    H267020   5.895   0.227   3.841
15177TIP3   OH267021   2.463   6.136   5.716
15177TIP3    H167022   2.374   6.113   5.688
15177TIP3    H267023   2.483   6.216   5.666
15178TIP3   OH267024   3.118   6.260  14.505
15178TIP3    H167025   3.126   6.197  14.576
15178TIP3    H267026   3.147   6.343  14.542
15179TIP3   OH267027   2.900   3.387  13.947
15179TIP3    H167028   2.837   3.435  14.002
15179TIP3    H267029   2.854   3.306  13.924
15180TIP3   OH267030   0.651   0.151   5.201
15180TIP3    H167031   0.591   0.192   5.138
15180TIP3    H267032   0.731   0.135   5.151
15181TIP3   OH267033   5.211   2.342  17.279
15181TIP3    H167034   5.268   2.294  17.338
15181TIP3    H267035   5.270   2.400  17.230
15182TIP3   OH267036   4.905   2.378   5.328
15182TIP3    H167037   4.991   2.404   5.361
15182TIP3    H267038   4.860   2.343   5.405
15183TIP3   OH267039   3.973   3.419   5.481
15183TIP3    H167040   4.028   3.342   5.471
15183TIP3    H267041   3.899   3.404   5.422
15184TIP3   OH267042   6.009   4.420  14.958
15184TIP3    H167043   6.052   4.409  14.873
15184TIP3    H267044   5.938   4.482  14.941
15185TIP3   OH267045   3.636   4.143  12.374
15185TIP3    H167046   3.555   4.166  12.330
15185TIP3    H267047   3.705   4.167  12.312
15186TIP3   OH267048   6.033   5.691  12.987
15186TIP3    H167049   5.977   5.707  12.911
15186TIP3    H267050   6.055   5.598  12.982
15187TIP3   OH267051   2.600   5.216   0.940
15187TIP3    H167052   2.638   5.194   1.024
15187TIP3    H267053   2.506   5.204   0.952
15188TIP3   OH267054   1.599   5.854   3.345
15188TIP3    H167055   1.611   5.759   3.354
15188TIP3    H267056   1.527   5.863   3.283
15189TIP3   OH267057   0.255   3.555   3.977
15189TIP3    H167058   0.253   3.604   4.059
15189TIP3    H267059   0.314   3.481   3.995
15190TIP3   OH267060   5.366   2.537  11.705
15190TIP3    H167061   5.392   2.589  11.781
15190TIP3    H267062   5.373   2.446  11.733
15191TIP3   OH267063   1.917   5.226   2.711
15191TIP3    H167064   1.858   5.190   2.777
15191TIP3    H267065   1.861   5.244   2.635
15192TIP3   OH267066   1.541   4.770  15.930
15192TIP3    H167067   1.452   4.793  15.903
15192TIP3    H267068   1.532   4.683  15.969
15193TIP3   OH267069   2.209   4.091  10.939
15193TIP3    H167070   2.198   4.100  11.033
15193TIP3    H267071   2.246   4.174  10.910
15194TIP3   OH267072   1.691   1.005   5.594
15194TIP3    H167073   1.623   0.954   5.551
15194TIP3    H267074   1.651   1.091   5.608
15195TIP3   OH267075   1.298   6.622   0.651
15195TIP3    H167076   1.290   6.694   0.588
15195TIP3    H267077   1.300   6.666   0.736
15196TIP3   OH267078   1.736   5.809   5.402
15196TIP3    H167079   1.735   5.902   5.381
15196TIP3    H267080   1.772   5.768   5.323
15197TIP3   OH267081   4.144   6.266   4.960
15197TIP3    H167082   4.091   6.188   4.939
15197TIP3    H267083   4.142   6.318   4.879
15198TIP3   OH267084   1.009   0.788   0.337
15198TIP3    H167085   0.963   0.846   0.276
15198TIP3    H267086   1.101   0.793   0.311
15199TIP3   OH267087   2.575   6.373   1.311
15199TIP3    H167088   2.613   6.297   1.267
15199TIP3    H267089   2.482   6.352   1.318
15200TIP3   OH267090   3.166   3.324   3.739
15200TIP3    H167091   3.204   3.350   3.823
15200TIP3    H267092   3.084   3.373   3.734
15201TIP3   OH267093   4.595   1.319  13.305
15201TIP3    H167094   4.593   1.270  13.387
15201TIP3    H267095   4.510   1.362  13.300
15202TIP3   OH267096   3.771   5.808   2.225
15202TIP3    H167097   3.803   5.747   2.159
15202TIP3    H267098   3.836   5.877   2.228
15203TIP3   OH267099   1.848   5.128  12.336
15203TIP3    H167100   1.823   5.171  12.254
15203TIP3    H267101   1.941   5.108  12.325
15204TIP3   OH267102   3.131   6.258  15.577
15204TIP3    H167103   3.133   6.335  15.635
15204TIP3    H267104   3.071   6.282  15.507
15205TIP3   OH267105   3.903   0.394   2.926
15205TIP3    H167106   3.894   0.423   2.835
15205TIP3    H267107   3.939   0.470   2.972
15206TIP3   OH267108   4.243   2.205   1.909
15206TIP3    H167109   4.295   2.125   1.919
15206TIP3    H267110   4.220   2.229   1.999
15207TIP3   OH267111   6.186   5.218  15.205
15207TIP3    H167112   6.165   5.311  15.202
15207TIP3    H267113   6.168   5.193  15.296
15208TIP3   OH267114   4.687   2.054  13.496
15208TIP3    H167115   4.724   1.980  13.544
15208TIP3    H267116   4.707   2.035  13.404
15209TIP3   OH267117   2.078   0.544   0.675
15209TIP3    H167118   2.101   0.466   0.726
15209TIP3    H267119   2.074   0.614   0.740
15210TIP3   OH267120   0.870   0.005  15.768
15210TIP3    H167121   0.855  -0.089  15.758
15210TIP3    H267122   0.937   0.026  15.703
15211TIP3   OH267123   6.098   5.598  17.281
15211TIP3    H167124   6.045   5.525  17.314
15211TIP3    H267125   6.175   5.557  17.243
15212TIP3   OH267126   4.028   6.694  13.299
15212TIP3    H167127   4.011   6.717  13.390
15212TIP3    H267128   3.968   6.750  13.249
15213TIP3   OH267129   5.156   2.841  10.833
15213TIP3    H167130   5.168   2.853  10.738
15213TIP3    H267131   5.063   2.822  10.843
15214TIP3   OH267132   0.441   1.648  12.568
15214TIP3    H167133   0.509   1.588  12.536
15214TIP3    H267134   0.490   1.718  12.612
15215TIP3   OH267135   6.283   0.014  16.235
15215TIP3    H167136   6.224   0.020  16.161
15215TIP3    H267137   6.232  -0.031  16.303
15216TIP3   OH267138   6.562   1.518  14.038
15216TIP3    H167139   6.548   1.588  13.973
15216TIP3    H267140   6.656   1.519  14.054
15217TIP3   OH267141   0.464   4.180  14.848
15217TIP3    H167142   0.534   4.227  14.803
15217TIP3    H267143   0.447   4.103  14.793
15218TIP3   OH267144   1.307   4.440   1.152
15218TIP3    H167145   1.296   4.502   1.225
15218TIP3    H267146   1.228   4.453   1.098
15219TIP3   OH267147   6.355   6.455   1.272
15219TIP3    H167148   6.275   6.479   1.226
15219TIP3    H267149   6.412   6.419   1.204
15220TIP3   OH267150   1.351   5.115   6.281
15220TIP3    H167151   1.268   5.067   6.289
15220TIP3    H267152   1.326   5.200   6.245
15221TIP3   OH267153   4.206   0.531  13.262
15221TIP3    H167154   4.118   0.553  13.233
15221TIP3    H267155   4.248   0.495  13.184
15222TIP3   OH267156   0.691   1.356  14.532
15222TIP3    H167157   0.763   1.410  14.499
15222TIP3    H267158   0.704   1.354  14.627
15223TIP3   OH267159   6.599   3.567   1.240
15223TIP3    H167160   6.639   3.641   1.194
15223TIP3    H267161   6.672   3.509   1.262
15224TIP3   OH267162   0.713   3.977  14.909
15224TIP3    H167163   0.623   3.960  14.881
15224TIP3    H267164   0.725   4.071  14.896
15225TIP3   OH267165   3.676   5.033   0.875
15225TIP3    H167166   3.630   5.114   0.854
15225TIP3    H267167   3.670   4.981   0.795
15226TIP3   OH267168   5.515   6.486  14.653
15226TIP3    H167169   5.465   6.418  14.607
15226TIP3    H267170   5.521   6.455  14.743
15227TIP3   OH267171   3.879   3.417  10.697
15227TIP3    H167172   3.855   3.479  10.766
15227TIP3    H267173   3.796   3.383  10.664
15228TIP3   OH267174   2.686   1.815  11.106
15228TIP3    H167175   2.606   1.829  11.157
15228TIP3    H267176   2.663   1.841  11.017
15229TIP3   OH267177   3.196   1.348  12.546
15229TIP3    H167178   3.172   1.330  12.455
15229TIP3    H267179   3.215   1.262  12.584
15230TIP3   OH267180   5.557   4.162   5.139
15230TIP3    H167181   5.551   4.078   5.185
15230TIP3    H267182   5.468   4.197   5.144
15231TIP3   OH267183   2.650   3.821   4.074
15231TIP3    H167184   2.722   3.880   4.050
15231TIP3    H267185   2.583   3.879   4.112
15232TIP3   OH267186   2.654   0.729   0.625
15232TIP3    H167187   2.640   0.659   0.561
15232TIP3    H267188   2.588   0.714   0.692
15233TIP3   OH267189   6.209   3.859   1.954
15233TIP3    H167190   6.294   3.821   1.979
15233TIP3    H267191   6.172   3.796   1.893
15234TIP3   OH267192   5.446   3.878   5.358
15234TIP3    H167193   5.477   3.836   5.438
15234TIP3    H267194   5.392   3.951   5.389
15235TIP3   OH267195   0.222   4.466   6.485
15235TIP3    H167196   0.134   4.442   6.514
15235TIP3    H267197   0.241   4.548   6.531
15236TIP3   OH267198   3.674   4.473  12.873
15236TIP3    H167199   3.617   4.424  12.814
15236TIP3    H267200   3.654   4.565  12.854
15237TIP3   OH267201   5.350   0.018   2.797
15237TIP3    H167202   5.354   0.108   2.826
15237TIP3    H267203   5.331   0.024   2.703
15238TIP3   OH267204   2.652   5.426  15.347
15238TIP3    H167205   2.584   5.417  15.280
15238TIP3    H267206   2.606   5.407  15.429
15239TIP3   OH267207   2.435   6.174   6.723
15239TIP3    H167208   2.504   6.185   6.788
15239TIP3    H267209   2.408   6.263   6.701
15240TIP3   OH267210   3.337   5.496   3.978
15240TIP3    H167211   3.394   5.572   3.972
15240TIP3    H267212   3.389   5.430   4.023
15241TIP3   OH267213   4.427   1.443   5.031
15241TIP3    H167214   4.448   1.363   5.078
15241TIP3    H267215   4.492   1.506   5.061
15242TIP3   OH267216   2.976   3.583  16.126
15242TIP3    H167217   2.903   3.549  16.176
15242TIP3    H267218   2.970   3.540  16.040
15243TIP3   OH267219   3.661   6.809   4.133
15243TIP3    H167220   3.659   6.856   4.216
15243TIP3    H267221   3.572   6.816   4.099
15244TIP3   OH267222   3.395   2.220  10.626
15244TIP3    H167223   3.365   2.256  10.542
15244TIP3    H267224   3.396   2.126  10.613
15245TIP3   OH267225   4.229   2.398   1.640
15245TIP3    H167226   4.201   2.338   1.710
15245TIP3    H267227   4.322   2.413   1.658
15246TIP3   OH267228   1.835   2.675   5.292
15246TIP3    H167229   1.824   2.679   5.387
15246TIP3    H267230   1.884   2.594   5.276
15247TIP3   OH267231   0.133   6.696   3.182
15247TIP3    H167232   0.139   6.780   3.228
15247TIP3    H267233   0.089   6.638   3.245
15248TIP3   OH267234   2.635   0.783   4.702
15248TIP3    H167235   2.592   0.787   4.617
15248TIP3    H267236   2.726   0.805   4.684
15249TIP3   OH267237   1.777   3.383  14.191
15249TIP3    H167238   1.744   3.327  14.262
15249TIP3    H267239   1.720   3.363  14.117
15250TIP3   OH267240   5.425   0.095  14.309
15250TIP3    H167241   5.399   0.067  14.397
15250TIP3    H267242   5.343   0.111  14.264
15251TIP3   OH267243   2.309   4.907  14.586
15251TIP3    H167244   2.329   4.978  14.525
15251TIP3    H267245   2.263   4.950  14.658
15252TIP3   OH267246   0.264   1.256  11.169
15252TIP3    H167247   0.281   1.287  11.081
15252TIP3    H267248   0.304   1.322  11.226
15253TIP3   OH267249   1.574   6.510  14.581
15253TIP3    H167250   1.622   6.563  14.645
15253TIP3    H267251   1.593   6.420  14.605
15254TIP3   OH267252   3.453   1.205   0.117
15254TIP3    H167253   3.427   1.276   0.058
15254TIP3    H267254   3.548   1.197   0.106
15255TIP3   OH267255   5.456   1.285   1.187
15255TIP3    H167256   5.456   1.335   1.105
15255TIP3    H267257   5.369   1.245   1.190
15256TIP3   OH267258   4.324   6.643  13.295
15256TIP3    H167259   4.325   6.731  13.333
15256TIP3    H267260   4.232   6.625  13.279
15257TIP3   OH267261   3.085   3.627   3.512
15257TIP3    H167262   3.052   3.539   3.531
15257TIP3    H267263   3.126   3.656   3.593
15258TIP3   OH267264   5.667   6.673   0.332
15258TIP3    H167265   5.606   6.624   0.387
15258TIP3    H267266   5.633   6.664   0.243
15259TIP3   OH267267   0.234   1.387  10.902
15259TIP3    H167268   0.150   1.428  10.918
15259TIP3    H267269   0.213   1.298  10.873
15260TIP3   OH267270   0.133   5.718  14.323
15260TIP3    H167271   0.045   5.680  14.330
15260TIP3    H267272   0.119   5.812  14.333
15261TIP3   OH267273   5.791   6.359   2.351
15261TIP3    H167274   5.792   6.341   2.445
15261TIP3    H267275   5.846   6.290   2.313
15262TIP3   OH267276   0.771   5.912   6.345
15262TIP3    H167277   0.690   5.960   6.362
15262TIP3    H267278   0.765   5.834   6.399
15263TIP3   OH267279   4.160   4.607  11.677
15263TIP3    H167280   4.102   4.576  11.607
15263TIP3    H267281   4.172   4.531  11.733
15264TIP3   OH267282   2.190   1.982   5.446
15264TIP3    H167283   2.101   1.974   5.412
15264TIP3    H267284   2.215   2.072   5.427
15265TIP3   OH267285   2.551   2.864  15.571
15265TIP3    H167286   2.486   2.931  15.592
15265TIP3    H267287   2.509   2.781  15.594
15266TIP3   OH267288   0.226   1.928   2.061
15266TIP3    H167289   0.281   1.874   2.005
15266TIP3    H267290   0.285   1.996   2.094
15267TIP3   OH267291   2.809   2.510   5.001
15267TIP3    H167292   2.744   2.567   5.043
15267TIP3    H267293   2.867   2.569   4.955
15268TIP3   OH267294   5.328   0.356   3.475
15268TIP3    H167295   5.333   0.425   3.541
15268TIP3    H267296   5.296   0.401   3.396
15269TIP3   OH267297   5.427   1.713  13.718
15269TIP3    H167298   5.360   1.670  13.664
15269TIP3    H267299   5.385   1.793  13.749
15270TIP3   OH267300   3.410   5.136   3.516
15270TIP3    H167301   3.336   5.158   3.460
15270TIP3    H267302   3.409   5.202   3.585
15271TIP3   OH267303   1.200   6.402  15.869
15271TIP3    H167304   1.197   6.351  15.788
15271TIP3    H267305   1.109   6.406  15.899
15272TIP3   OH267306   2.709   4.529   1.276
15272TIP3    H167307   2.654   4.608   1.280
15272TIP3    H267308   2.767   4.537   1.352
15273TIP3   OH267309   4.388   5.446   4.025
15273TIP3    H167310   4.482   5.439   4.039
15273TIP3    H267311   4.362   5.359   3.992
15274TIP3   OH267312   2.463   3.697  16.075
15274TIP3    H167313   2.461   3.625  16.013
15274TIP3    H267314   2.382   3.745  16.059
15275TIP3   OH267315   5.240   0.947   0.988
15275TIP3    H167316   5.262   0.871   0.933
15275TIP3    H267317   5.146   0.960   0.974
15276TIP3   OH267318   0.428   4.015  13.501
15276TIP3    H167319   0.372   3.980  13.432
15276TIP3    H267320   0.423   4.110  13.490
15277TIP3   OH267321   2.609   4.377  12.260
15277TIP3    H167322   2.614   4.466  12.226
15277TIP3    H267323   2.657   4.324  12.196
15278TIP3   OH267324   5.207   6.217  11.805
15278TIP3    H167325   5.211   6.246  11.714
15278TIP3    H267326   5.289   6.250  11.844
15279TIP3   OH267327   4.716   5.475  13.410
15279TIP3    H167328   4.626   5.497  13.435
15279TIP3    H267329   4.722   5.500  13.318
15280TIP3   OH267330   6.329   1.839   4.815
15280TIP3    H167331   6.396   1.779   4.781
15280TIP3    H267332   6.367   1.872   4.896
15281TIP3   OH267333   5.775   5.636   2.030
15281TIP3    H167334   5.781   5.663   2.122
15281TIP3    H267335   5.735   5.549   2.033
15282TIP3   OH267336   3.820   1.951  16.486
15282TIP3    H167337   3.851   1.921  16.572
15282TIP3    H267338   3.856   2.040  16.477
15283TIP3   OH267339   6.110   5.288  12.702
15283TIP3    H167340   6.074   5.217  12.650
15283TIP3    H267341   6.135   5.355  12.638
15284TIP3   OH267342   4.422   3.767   1.192
15284TIP3    H167343   4.468   3.710   1.130
15284TIP3    H267344   4.352   3.712   1.228
15285TIP3   OH267345   3.808   0.403  13.469
15285TIP3    H167346   3.759   0.446  13.399
15285TIP3    H267347   3.744   0.344  13.510
15286TIP3   OH267348   0.749   3.617   4.722
15286TIP3    H167349   0.788   3.664   4.648
15286TIP3    H267350   0.823   3.602   4.782
15287TIP3   OH267351   4.919   5.595  12.477
15287TIP3    H167352   5.005   5.623  12.445
15287TIP3    H267353   4.924   5.609  12.572
15288TIP3   OH267354   5.983   2.520  15.855
15288TIP3    H167355   6.048   2.522  15.784
15288TIP3    H267356   6.025   2.566  15.927
15289TIP3   OH267357   2.003   2.310  13.263
15289TIP3    H167358   1.989   2.357  13.181
15289TIP3    H267359   2.062   2.238  13.240
15290TIP3   OH267360   5.339   4.024   2.383
15290TIP3    H167361   5.315   4.036   2.292
15290TIP3    H267362   5.399   4.096   2.402
15291TIP3   OH267363   5.741   0.310  16.233
15291TIP3    H167364   5.822   0.278  16.272
15291TIP3    H267365   5.718   0.386  16.286
15292TIP3   OH267366   5.524   2.931   6.003
15292TIP3    H167367   5.436   2.922   5.965
15292TIP3    H267368   5.535   3.025   6.016
15293TIP3   OH267369   2.191   1.838   1.964
15293TIP3    H167370   2.261   1.815   1.903
15293TIP3    H267371   2.221   1.806   2.049
15294TIP3   OH267372   6.080   0.289   0.984
15294TIP3    H167373   6.032   0.207   0.978
15294TIP3    H267374   6.022   0.354   0.943
15295TIP3   OH267375   5.592   1.181  11.850
15295TIP3    H167376   5.523   1.194  11.784
15295TIP3    H267377   5.673   1.193  11.801
15296TIP3   OH267378   5.277   0.797  13.509
15296TIP3    H167379   5.314   0.852  13.441
15296TIP3    H267380   5.221   0.735  13.462
15297TIP3   OH267381   3.990   4.220  11.790
15297TIP3    H167382   3.973   4.273  11.867
15297TIP3    H267383   4.060   4.267  11.743
15298TIP3   OH267384   4.546   5.222  12.023
15298TIP3    H167385   4.527   5.315  12.011
15298TIP3    H267386   4.636   5.220  12.054
15299TIP3   OH267387   0.117   1.547  16.365
15299TIP3    H167388   0.076   1.514  16.285
15299TIP3    H267389   0.081   1.492  16.435
15300TIP3   OH267390   1.208   3.268  11.715
15300TIP3    H167391   1.148   3.299  11.647
15300TIP3    H267392   1.294   3.295  11.685
15301TIP3   OH267393   4.090   2.551  14.975
15301TIP3    H167394   4.083   2.554  14.880
15301TIP3    H267395   4.031   2.621  15.005
15302TIP3   OH267396   5.166   0.228  13.288
15302TIP3    H167397   5.091   0.286  13.276
15302TIP3    H267398   5.188   0.236  13.381
15303TIP3   OH267399   5.678   4.358   3.264
15303TIP3    H167400   5.730   4.293   3.216
15303TIP3    H267401   5.595   4.362   3.216
15304TIP3   OH267402   0.338   2.164  15.153
15304TIP3    H167403   0.383   2.203  15.228
15304TIP3    H267404   0.245   2.168  15.176
15305TIP3   OH267405   2.984   6.427   0.985
15305TIP3    H167406   3.025   6.401   1.068
15305TIP3    H267407   3.012   6.361   0.922
15306TIP3   OH267408   2.254   0.738   4.910
15306TIP3    H167409   2.198   0.684   4.854
15306TIP3    H267410   2.291   0.803   4.850
15307TIP3   OH267411   1.587   0.574   5.494
15307TIP3    H167412   1.658   0.513   5.514
15307TIP3    H267413   1.620   0.660   5.521
15308TIP3   OH267414   3.029   4.468   0.050
15308TIP3    H167415   3.084   4.392   0.064
15308TIP3    H267416   3.000   4.493   0.138
15309TIP3   OH267417   0.777   2.780  16.979
15309TIP3    H167418   0.715   2.853  16.982
15309TIP3    H267419   0.728   2.707  17.017
15310TIP3   OH267420   4.443   0.191  15.072
15310TIP3    H167421   4.459   0.206  15.165
15310TIP3    H267422   4.524   0.219  15.029
15311TIP3   OH267423   6.259   2.415  13.481
15311TIP3    H167424   6.245   2.322  13.463
15311TIP3    H267425   6.326   2.416  13.549
15312TIP3   OH267426   1.133   5.218   5.882
15312TIP3    H167427   1.169   5.288   5.827
15312TIP3    H267428   1.143   5.251   5.971
15313TIP3   OH267429   0.832   4.803   0.798
15313TIP3    H167430   0.880   4.838   0.723
15313TIP3    H267431   0.889   4.819   0.873
15314TIP3   OH267432   4.337   6.644   3.285
15314TIP3    H167433   4.271   6.713   3.287
15314TIP3    H267434   4.378   6.647   3.372
15315TIP3   OH267435   1.902   1.130  11.322
15315TIP3    H167436   1.846   1.168  11.254
15315TIP3    H267437   1.943   1.054  11.280
15316TIP3   OH267438   3.901   2.952  14.354
15316TIP3    H167439   3.864   2.888  14.414
15316TIP3    H267440   3.971   2.905  14.308
15317TIP3   OH267441   5.760   2.364  16.409
15317TIP3    H167442   5.812   2.344  16.331
15317TIP3    H267443   5.687   2.417  16.377
15318TIP3   OH267444   3.181   5.982   6.079
15318TIP3    H167445   3.152   6.068   6.046
15318TIP3    H267446   3.140   5.976   6.166
15319TIP3   OH267447   4.155   0.524  15.181
15319TIP3    H167448   4.224   0.563  15.235
15319TIP3    H267449   4.095   0.596  15.162
15320TIP3   OH267450   5.598   2.866  17.113
15320TIP3    H167451   5.545   2.871  17.033
15320TIP3    H267452   5.573   2.784  17.154
15321TIP3   OH267453   3.335   5.693   2.670
15321TIP3    H167454   3.285   5.730   2.598
15321TIP3    H267455   3.269   5.674   2.737
15322TIP3   OH267456   2.079   5.345   4.316
15322TIP3    H167457   2.121   5.325   4.232
15322TIP3    H267458   1.995   5.384   4.293
15323TIP3   OH267459   2.786   5.447   4.481
15323TIP3    H167460   2.796   5.495   4.399
15323TIP3    H267461   2.837   5.496   4.545
15324TIP3   OH267462   3.152   6.502  15.176
15324TIP3    H167463   3.165   6.407  15.172
15324TIP3    H267464   3.070   6.517  15.129
15325TIP3   OH267465   3.646   4.690  11.720
15325TIP3    H167466   3.569   4.745  11.735
15325TIP3    H267467   3.695   4.735  11.651
15326TIP3   OH267468   4.809   4.871  11.136
15326TIP3    H167469   4.881   4.912  11.087
15326TIP3    H267470   4.750   4.944  11.155
15327TIP3   OH267471   2.467   5.798  14.863
15327TIP3    H167472   2.404   5.797  14.791
15327TIP3    H267473   2.414   5.812  14.941
15328TIP3   OH267474   0.132   0.780  12.981
15328TIP3    H167475   0.061   0.728  13.019
15328TIP3    H267476   0.103   0.800  12.893
15329TIP3   OH267477   1.644   6.182   1.235
15329TIP3    H167478   1.687   6.138   1.309
15329TIP3    H267479   1.693   6.263   1.223
15330TIP3   OH267480   3.710   1.940  11.424
15330TIP3    H167481   3.706   2.031  11.455
15330TIP3    H267482   3.640   1.934  11.359
15331TIP3   OH267483   2.237   5.483  16.680
15331TIP3    H167484   2.321   5.483  16.633
15331TIP3    H267485   2.255   5.435  16.761
15332TIP3   OH267486   3.334   5.137  13.843
15332TIP3    H167487   3.238   5.129  13.843
15332TIP3    H267488   3.351   5.226  13.813
15333TIP3   OH267489   4.719   5.761  14.205
15333TIP3    H167490   4.745   5.705  14.133
15333TIP3    H267491   4.756   5.847  14.183
15334TIP3   OH267492   2.171   2.166   6.018
15334TIP3    H167493   2.263   2.150   6.039
15334TIP3    H267494   2.151   2.248   6.062
15335TIP3   OH267495   6.080   0.869  16.844
15335TIP3    H167496   6.163   0.851  16.889
15335TIP3    H267497   6.048   0.950  16.883
15336TIP3   OH267498   1.819   0.343   5.200
15336TIP3    H167499   1.869   0.269   5.235
15336TIP3    H267500   1.858   0.420   5.241
15337TIP3   OH267501   1.202   1.911   5.658
15337TIP3    H167502   1.124   1.944   5.614
15337TIP3    H267503   1.275   1.953   5.612
15338TIP3   OH267504   5.449   2.801   5.043
15338TIP3    H167505   5.434   2.793   5.137
15338TIP3    H267506   5.509   2.730   5.022
15339TIP3   OH267507   1.349   2.907   0.702
15339TIP3    H167508   1.421   2.936   0.758
15339TIP3    H267509   1.330   2.818   0.731
15340TIP3   OH267510   5.458   0.327  16.785
15340TIP3    H167511   5.377   0.313  16.835
15340TIP3    H267512   5.524   0.275  16.831
15341TIP3   OH267513   3.837   3.283   1.300
15341TIP3    H167514   3.913   3.252   1.350
15341TIP3    H267515   3.764   3.232   1.333
15342TIP3   OH267516   2.270   0.182  12.565
15342TIP3    H167517   2.309   0.206  12.649
15342TIP3    H267518   2.344   0.177  12.505
15343TIP3   OH267519   1.053   4.432  16.187
15343TIP3    H167520   0.999   4.406  16.262
15343TIP3    H267521   0.993   4.480  16.130
15344TIP3   OH267522   4.993   1.591   4.771
15344TIP3    H167523   5.049   1.603   4.848
15344TIP3    H267524   5.053   1.594   4.697
15345TIP3   OH267525   4.942   4.955   2.786
15345TIP3    H167526   4.907   4.866   2.778
15345TIP3    H267527   4.910   4.986   2.871
15346TIP3   OH267528   6.361   3.248   5.545
15346TIP3    H167529   6.321   3.193   5.478
15346TIP3    H267530   6.361   3.195   5.624
15347TIP3   OH267531   3.808   5.041  14.276
15347TIP3    H167532   3.718   5.031  14.246
15347TIP3    H267533   3.857   5.064  14.197
15348TIP3   OH267534   0.940   2.172  15.747
15348TIP3    H167535   1.005   2.232  15.712
15348TIP3    H267536   0.955   2.090  15.699
15349TIP3   OH267537   2.762   5.565   0.760
15349TIP3    H167538   2.690   5.521   0.804
15349TIP3    H267539   2.784   5.639   0.816
15350TIP3   OH267540   5.369   3.822  14.593
15350TIP3    H167541   5.317   3.742  14.607
15350TIP3    H267542   5.355   3.843  14.501
15351TIP3   OH267543   4.534   6.447  14.428
15351TIP3    H167544   4.483   6.512  14.380
15351TIP3    H267545   4.559   6.383  14.362
15352TIP3   OH267546   2.585   4.405   4.236
15352TIP3    H167547   2.582   4.381   4.328
15352TIP3    H267548   2.556   4.497   4.234
15353TIP3   OH267549   2.361   6.711  14.428
15353TIP3    H167550   2.379   6.667  14.511
15353TIP3    H267551   2.409   6.660  14.363
15354TIP3   OH267552   3.626   0.194  15.235
15354TIP3    H167553   3.692   0.246  15.190
15354TIP3    H267554   3.641   0.211  15.328
15355TIP3   OH267555   2.340   0.823   5.320
15355TIP3    H167556   2.302   0.860   5.400
15355TIP3    H267557   2.283   0.854   5.250
15356TIP3   OH267558   1.436   0.407  10.824
15356TIP3    H167559   1.378   0.331  10.829
15356TIP3    H267560   1.406   0.454  10.746
15357TIP3   OH267561   5.076   4.917   3.590
15357TIP3    H167562   5.159   4.960   3.570
15357TIP3    H267563   5.100   4.829   3.618
15358TIP3   OH267564   6.601   0.512  15.367
15358TIP3    H167565   6.675   0.512  15.307
15358TIP3    H267566   6.559   0.597  15.354
15359TIP3   OH267567   4.831   6.648  16.175
15359TIP3    H167568   4.802   6.563  16.140
15359TIP3    H267569   4.881   6.625  16.254
15360TIP3   OH267570   1.455   3.245   0.149
15360TIP3    H167571   1.497   3.165   0.119
15360TIP3    H267572   1.450   3.300   0.070
15361TIP3   OH267573   2.878   3.710   0.934
15361TIP3    H167574   2.785   3.736   0.932
15361TIP3    H267575   2.876   3.615   0.939
15362TIP3   OH267576   5.447   0.378   2.505
15362TIP3    H167577   5.540   0.385   2.482
15362TIP3    H267578   5.418   0.468   2.514
15363TIP3   OH267579   2.031   5.219  11.885
15363TIP3    H167580   2.087   5.239  11.960
15363TIP3    H267581   2.014   5.125  11.892
15364TIP3   OH267582   6.161   1.715  15.622
15364TIP3    H167583   6.124   1.795  15.658
15364TIP3    H267584   6.153   1.651  15.692
15365TIP3   OH267585   5.357   0.056  12.772
15365TIP3    H167586   5.450   0.052  12.796
15365TIP3    H267587   5.315   0.096  12.848
15366TIP3   OH267588   4.902   1.983  13.216
15366TIP3    H167589   4.834   2.034  13.173
15366TIP3    H267590   4.939   1.929  13.146
15367TIP3   OH267591   5.289   4.589  13.746
15367TIP3    H167592   5.217   4.601  13.684
15367TIP3    H267593   5.330   4.507  13.719
15368TIP3   OH267594   0.648   2.157   3.860
15368TIP3    H167595   0.702   2.236   3.856
15368TIP3    H267596   0.682   2.101   3.790
15369TIP3   OH267597   1.274   6.097  15.705
15369TIP3    H167598   1.349   6.112  15.763
15369TIP3    H267599   1.218   6.035  15.752
15370TIP3   OH267600   3.390   1.677  14.246
15370TIP3    H167601   3.442   1.615  14.194
15370TIP3    H267602   3.400   1.646  14.336
15371TIP3   OH267603   1.770   4.341  12.454
15371TIP3    H167604   1.690   4.306  12.494
15371TIP3    H267605   1.782   4.288  12.375
15372TIP3   OH267606   6.259   3.945  12.155
15372TIP3    H167607   6.318   3.968  12.227
15372TIP3    H267608   6.287   3.858  12.127
15373TIP3   OH267609   6.544   4.069  11.578
15373TIP3    H167610   6.620   4.023  11.614
15373TIP3    H267611   6.577   4.110  11.498
15374TIP3   OH267612   6.043   0.046   5.935
15374TIP3    H167613   6.024   0.040   6.028
15374TIP3    H267614   5.969   0.003   5.892
15375TIP3   OH267615   2.626   4.868  16.421
15375TIP3    H167616   2.599   4.806  16.353
15375TIP3    H267617   2.577   4.948  16.401
15376TIP3   OH267618   5.261   0.020   4.058
15376TIP3    H167619   5.281   0.074   3.982
15376TIP3    H267620   5.346   0.001   4.098
15377TIP3   OH267621   2.836   0.855  17.216
15377TIP3    H167622   2.828   0.760  17.203
15377TIP3    H267623   2.748   0.883  17.242
15378TIP3   OH267624   5.476   1.428   1.686
15378TIP3    H167625   5.568   1.454   1.680
15378TIP3    H267626   5.468   1.388   1.772
15379TIP3   OH267627   2.079   4.868  16.329
15379TIP3    H167628   2.001   4.894  16.378
15379TIP3    H267629   2.083   4.928  16.254
15380TIP3   OH267630   3.368   1.130   5.097
15380TIP3    H167631   3.318   1.108   5.018
15380TIP3    H267632   3.307   1.111   5.169
15381TIP3   OH267633   1.067   4.957   6.120
15381TIP3    H167634   0.989   4.934   6.070
15381TIP3    H267635   1.034   5.016   6.188
15382TIP3   OH267636   3.544   4.928   3.278
15382TIP3    H167637   3.504   4.954   3.361
15382TIP3    H267638   3.551   4.833   3.284
15383TIP3   OH267639   2.601   1.586   6.714
15383TIP3    H167640   2.630   1.637   6.638
15383TIP3    H267641   2.626   1.496   6.694
15384TIP3   OH267642   2.429   1.855   1.353
15384TIP3    H167643   2.506   1.812   1.390
15384TIP3    H267644   2.463   1.936   1.315
15385TIP3   OH267645   4.001   1.022  16.084
15385TIP3    H167646   4.009   1.105  16.036
15385TIP3    H267647   3.965   1.047  16.169
15386TIP3   OH267648   0.030   4.285   6.750
15386TIP3    H167649  -0.009   4.316   6.668
15386TIP3    H267650   0.078   4.360   6.784
15387TIP3   OH267651   2.855   3.468   6.335
15387TIP3    H167652   2.851   3.400   6.402
15387TIP3    H267653   2.942   3.458   6.296
15388TIP3   OH267654   2.889   4.576  11.385
15388TIP3    H167655   2.826   4.510  11.357
15388TIP3    H267656   2.949   4.529  11.443
15389TIP3   OH267657   0.124   3.685   2.876
15389TIP3    H167658   0.163   3.615   2.928
15389TIP3    H267659   0.198   3.730   2.836
15390TIP3   OH267660   2.042   1.449   1.579
15390TIP3    H167661   2.087   1.440   1.663
15390TIP3    H267662   2.087   1.522   1.536
15391TIP3   OH267663   3.192   4.578   3.098
15391TIP3    H167664   3.169   4.565   3.007
15391TIP3    H267665   3.183   4.492   3.138
15392TIP3   OH267666   2.320   3.044  11.529
15392TIP3    H167667   2.338   3.138  11.531
15392TIP3    H267668   2.335   3.019  11.438
15393TIP3   OH267669   1.007   6.190  14.183
15393TIP3    H167670   1.056   6.250  14.128
15393TIP3    H267671   0.921   6.232  14.194
15394TIP3   OH267672   5.468   5.201   3.375
15394TIP3    H167673   5.492   5.291   3.354
15394TIP3    H267674   5.551   5.157   3.392
15395TIP3   OH267675   3.679   3.185  14.071
15395TIP3    H167676   3.700   3.278  14.063
15395TIP3    H267677   3.588   3.184  14.102
15396TIP3   OH267678   4.973   2.598   6.608
15396TIP3    H167679   4.999   2.655   6.680
15396TIP3    H267680   4.906   2.540   6.645
15397TIP3   OH267681   0.550   6.233   1.293
15397TIP3    H167682   0.633   6.185   1.301
15397TIP3    H267683   0.483   6.170   1.319
15398TIP3   OH267684   1.132   2.017   1.903
15398TIP3    H167685   1.073   2.014   1.979
15398TIP3    H267686   1.218   2.037   1.940
15399TIP3   OH267687   5.042   6.470   3.359
15399TIP3    H167688   5.051   6.393   3.416
15399TIP3    H267689   4.954   6.463   3.322
15400TIP3   OH267690   0.158   3.988  16.508
15400TIP3    H167691   0.163   3.912  16.566
15400TIP3    H267692   0.201   3.960  16.427
15401TIP3   OH267693   3.891   3.843   4.470
15401TIP3    H167694   3.864   3.821   4.381
15401TIP3    H267695   3.902   3.759   4.514
15402TIP3   OH267696   6.592   0.837  15.482
15402TIP3    H167697   6.498   0.839  15.502
15402TIP3    H267698   6.596   0.829  15.387
15403TIP3   OH267699   0.760   4.831   4.340
15403TIP3    H167700   0.761   4.737   4.355
15403TIP3    H267701   0.718   4.867   4.418
15404TIP3   OH267702   5.489   1.065   0.862
15404TIP3    H167703   5.443   1.137   0.818
15404TIP3    H267704   5.425   1.028   0.922
15405TIP3   OH267705   4.604   3.551   2.571
15405TIP3    H167706   4.652   3.542   2.653
15405TIP3    H267707   4.547   3.474   2.567
15406TIP3   OH267708   6.226   6.016  14.302
15406TIP3    H167709   6.191   5.989  14.217
15406TIP3    H267710   6.318   5.990  14.300
15407TIP3   OH267711   2.871   4.334  13.076
15407TIP3    H167712   2.835   4.254  13.037
15407TIP3    H267713   2.795   4.391  13.087
15408TIP3   OH267714   2.859   3.969   3.223
15408TIP3    H167715   2.887   4.039   3.282
15408TIP3    H267716   2.882   3.888   3.269
15409TIP3   OH267717   2.634   1.029   5.806
15409TIP3    H167718   2.722   1.033   5.768
15409TIP3    H267719   2.584   1.097   5.759
15410TIP3   OH267720   6.171   1.498  14.908
15410TIP3    H167721   6.173   1.405  14.927
15410TIP3    H267722   6.253   1.515  14.860
15411TIP3   OH267723   3.537   1.142   1.320
15411TIP3    H167724   3.444   1.119   1.319
15411TIP3    H267725   3.579   1.073   1.270
15412TIP3   OH267726   4.333   2.262  16.756
15412TIP3    H167727   4.339   2.262  16.661
15412TIP3    H267728   4.317   2.354  16.779
15413TIP3   OH267729   1.099   6.249   6.024
15413TIP3    H167730   1.134   6.335   6.046
15413TIP3    H267731   1.143   6.225   5.943
15414TIP3   OH267732   4.301   3.071  12.449
15414TIP3    H167733   4.226   3.094  12.504
15414TIP3    H267734   4.265   3.011  12.384
15415TIP3   OH267735   1.903   5.668  10.890
15415TIP3    H167736   1.920   5.616  10.969
15415TIP3    H267737   1.837   5.731  10.917
15416TIP3   OH267738   3.700   0.567  11.119
15416TIP3    H167739   3.627   0.523  11.164
15416TIP3    H267740   3.659   0.638  11.071
15417TIP3   OH267741   4.067   0.529   1.056
15417TIP3    H167742   4.024   0.444   1.057
15417TIP3    H267743   4.105   0.538   1.144
15418TIP3   OH267744   2.798   3.508  14.414
15418TIP3    H167745   2.770   3.591  14.452
15418TIP3    H267746   2.800   3.448  14.489
15419TIP3   OH267747   5.742   6.172  12.936
15419TIP3    H167748   5.707   6.115  13.004
15419TIP3    H267749   5.719   6.129  12.854
15420TIP3   OH267750   2.368   0.033  17.155
15420TIP3    H167751   2.377   0.005  17.064
15420TIP3    H267752   2.299  -0.023  17.191
15421TIP3   OH267753   1.261   1.166   5.572
15421TIP3    H167754   1.268   1.151   5.478
15421TIP3    H267755   1.202   1.241   5.579
15422TIP3   OH267756   3.436   3.798   2.336
15422TIP3    H167757   3.522   3.761   2.355
15422TIP3    H267758   3.378   3.722   2.326
15423TIP3   OH267759   6.516   5.196  15.685
15423TIP3    H167760   6.585   5.153  15.735
15423TIP3    H267761   6.439   5.193  15.741
15424TIP3   OH267762   2.684   2.157  15.758
15424TIP3    H167763   2.673   2.220  15.687
15424TIP3    H267764   2.611   2.173  15.817
15425TIP3   OH267765   4.228   1.477  14.066
15425TIP3    H167766   4.199   1.448  13.980
15425TIP3    H267767   4.147   1.491  14.115
15426TIP3   OH267768   6.209   1.988  13.309
15426TIP3    H167769   6.194   1.919  13.244
15426TIP3    H267770   6.296   1.969  13.344
15427TIP3   OH267771   0.019   3.589   4.644
15427TIP3    H167772  -0.033   3.509   4.632
15427TIP3    H267773  -0.041   3.651   4.685
15428TIP3   OH267774   5.977   0.106  12.027
15428TIP3    H167775   6.070   0.099  12.050
15428TIP3    H267776   5.976   0.156  11.946
15429TIP3   OH267777   0.075   6.164   4.429
15429TIP3    H167778  -0.008   6.119   4.412
15429TIP3    H267779   0.068   6.195   4.519
15430TIP3   OH267780   2.377   2.007  14.863
15430TIP3    H167781   2.294   2.049  14.843
15430TIP3    H267782   2.401   2.041  14.950
15431TIP3   OH267783   4.014   3.232   5.089
15431TIP3    H167784   3.964   3.241   5.007
15431TIP3    H267785   4.048   3.320   5.105
15432TIP3   OH267786   3.206   5.190   1.954
15432TIP3    H167787   3.127   5.194   1.901
15432TIP3    H267788   3.241   5.103   1.940
15433TIP3   OH267789   4.283   3.665  16.378
15433TIP3    H167790   4.326   3.605  16.316
15433TIP3    H267791   4.249   3.607  16.446
15434TIP3   OH267792   1.470   1.797   5.774
15434TIP3    H167793   1.393   1.844   5.741
15434TIP3    H267794   1.440   1.758   5.857
15435TIP3   OH267795   5.067   2.783  12.312
15435TIP3    H167796   4.975   2.796  12.335
15435TIP3    H267797   5.108   2.868  12.330
15436TIP3   OH267798   5.937   1.214  12.631
15436TIP3    H167799   5.897   1.281  12.575
15436TIP3    H267800   5.890   1.223  12.714
15437TIP3   OH267801   2.339   6.650   3.520
15437TIP3    H167802   2.414   6.655   3.579
15437TIP3    H267803   2.306   6.739   3.514
15438TIP3   OH267804   1.406   2.079   4.314
15438TIP3    H167805   1.435   2.090   4.405
15438TIP3    H267806   1.311   2.067   4.321
15439TIP3   OH267807   6.719   5.280   4.975
15439TIP3    H167808   6.702   5.312   5.063
15439TIP3    H267809   6.783   5.210   4.986
15440TIP3   OH267810   1.544   1.821  12.967
15440TIP3    H167811   1.616   1.867  12.923
15440TIP3    H267812   1.541   1.859  13.054
15441TIP3   OH267813   6.579   4.656  11.522
15441TIP3    H167814   6.639   4.726  11.547
15441TIP3    H267815   6.575   4.661  11.427
15442TIP3   OH267816   0.190   4.548  13.726
15442TIP3    H167817   0.117   4.523  13.670
15442TIP3    H267818   0.151   4.560  13.812
15443TIP3   OH267819   0.830   5.471   4.041
15443TIP3    H167820   0.923   5.449   4.036
15443TIP3    H267821   0.828   5.567   4.035
15444TIP3   OH267822   5.235   0.346   5.299
15444TIP3    H167823   5.229   0.251   5.298
15444TIP3    H267824   5.159   0.375   5.249
15445TIP3   OH267825   1.256   2.585  11.792
15445TIP3    H167826   1.186   2.645  11.767
15445TIP3    H267827   1.331   2.641  11.811
15446TIP3   OH267828   4.932   5.572   4.412
15446TIP3    H167829   4.929   5.549   4.505
15446TIP3    H267830   4.881   5.503   4.369
15447TIP3   OH267831   1.180   0.828  12.221
15447TIP3    H167832   1.118   0.820  12.294
15447TIP3    H267833   1.166   0.750  12.168
15448TIP3   OH267834   2.550   5.143   1.660
15448TIP3    H167835   2.485   5.160   1.728
15448TIP3    H267836   2.616   5.212   1.673
15449TIP3   OH267837   2.467   3.434  10.544
15449TIP3    H167838   2.535   3.450  10.478
15449TIP3    H267839   2.391   3.404  10.494
15450TIP3   OH267840   2.793   6.789  11.432
15450TIP3    H167841   2.775   6.719  11.369
15450TIP3    H267842   2.711   6.838  11.438
15451TIP3   OH267843   3.282   6.003  17.092
15451TIP3    H167844   3.204   6.000  17.037
15451TIP3    H267845   3.310   5.912  17.100
15452TIP3   OH267846   3.738   0.864  14.725
15452TIP3    H167847   3.756   0.925  14.797
15452TIP3    H267848   3.648   0.886  14.699
15453TIP3   OH267849   1.251   2.361  16.332
15453TIP3    H167850   1.231   2.452  16.355
15453TIP3    H267851   1.339   2.347  16.366
15454TIP3   OH267852   3.156   1.307  15.450
15454TIP3    H167853   3.090   1.345  15.392
15454TIP3    H267854   3.220   1.377  15.463
15455TIP3   OH267855   5.645   4.476  13.540
15455TIP3    H167856   5.616   4.558  13.499
15455TIP3    H267857   5.658   4.416  13.468
15456TIP3   OH267858   3.221   4.997  14.137
15456TIP3    H167859   3.202   5.059  14.207
15456TIP3    H267860   3.152   4.931  14.144
15457TIP3   OH267861   0.174   3.565  13.711
15457TIP3    H167862   0.104   3.517  13.754
15457TIP3    H267863   0.197   3.634  13.774
15458TIP3   OH267864   0.573   1.070  14.600
15458TIP3    H167865   0.581   1.102  14.510
15458TIP3    H267866   0.488   1.103  14.629
15459TIP3   OH267867   6.107   2.581  14.393
15459TIP3    H167868   6.107   2.524  14.470
15459TIP3    H267869   6.049   2.654  14.417
15460TIP3   OH267870   1.472   1.572  16.815
15460TIP3    H167871   1.491   1.593  16.906
15460TIP3    H267872   1.457   1.657  16.773
15461TIP3   OH267873   0.607   1.402   2.891
15461TIP3    H167874   0.602   1.467   2.822
15461TIP3    H267875   0.517   1.393   2.922
15462TIP3   OH267876   3.661   5.622   0.374
15462TIP3    H167877   3.706   5.658   0.298
15462TIP3    H267878   3.593   5.687   0.395
15463TIP3   OH267879   1.130   1.550   1.884
15463TIP3    H167880   1.180   1.631   1.872
15463TIP3    H267881   1.188   1.481   1.851
15464TIP3   OH267882   0.453   5.254  15.095
15464TIP3    H167883   0.538   5.263  15.051
15464TIP3    H267884   0.397   5.320  15.054
15465TIP3   OH267885   2.802   0.541   5.326
15465TIP3    H167886   2.847   0.593   5.259
15465TIP3    H267887   2.731   0.498   5.279
15466TIP3   OH267888   1.287   5.648   2.231
15466TIP3    H167889   1.379   5.629   2.212
15466TIP3    H267890   1.249   5.563   2.256
15467TIP3   OH267891   3.813   5.782   0.151
15467TIP3    H167892   3.838   5.874   0.136
15467TIP3    H267893   3.886   5.732   0.117
15468TIP3   OH267894   6.102   3.766   1.528
15468TIP3    H167895   6.159   3.740   1.600
15468TIP3    H267896   6.047   3.689   1.512
15469TIP3   OH267897   3.829   0.326   4.937
15469TIP3    H167898   3.833   0.353   4.845
15469TIP3    H267899   3.910   0.276   4.951
15470TIP3   OH267900   5.396   4.610  12.683
15470TIP3    H167901   5.455   4.677  12.719
15470TIP3    H267902   5.450   4.532  12.677
15471TIP3   OH267903   4.783   1.163   2.435
15471TIP3    H167904   4.859   1.218   2.457
15471TIP3    H267905   4.791   1.147   2.341
15472TIP3   OH267906   5.154   4.394  10.875
15472TIP3    H167907   5.176   4.345  10.954
15472TIP3    H267908   5.094   4.336  10.827
15473TIP3   OH267909   3.898   5.668  16.004
15473TIP3    H167910   3.954   5.656  15.927
15473TIP3    H267911   3.953   5.641  16.078
15474TIP3   OH267912   3.146   4.572  11.544
15474TIP3    H167913   3.183   4.484  11.541
15474TIP3    H267914   3.185   4.612  11.622
15475TIP3   OH267915   1.186   5.723   1.574
15475TIP3    H167916   1.164   5.631   1.590
15475TIP3    H267917   1.142   5.744   1.492
15476TIP3   OH267918   3.652   1.011  15.142
15476TIP3    H167919   3.649   1.060  15.060
15476TIP3    H267920   3.569   0.965  15.147
15477TIP3   OH267921   5.833   5.124   5.708
15477TIP3    H167922   5.755   5.070   5.694
15477TIP3    H267923   5.868   5.138   5.620
15478TIP3   OH267924   4.417   1.903   2.809
15478TIP3    H167925   4.423   1.897   2.904
15478TIP3    H267926   4.493   1.956   2.783
15479TIP3   OH267927   5.216   1.751   5.766
15479TIP3    H167928   5.262   1.709   5.838
15479TIP3    H267929   5.179   1.831   5.804
15480TIP3   OH267930   1.414   2.482  10.854
15480TIP3    H167931   1.503   2.511  10.875
15480TIP3    H267932   1.402   2.506  10.762
15481TIP3   OH267933   4.694   2.122   2.534
15481TIP3    H167934   4.652   2.160   2.458
15481TIP3    H267935   4.647   2.039   2.548
15482TIP3   OH267936   1.636   3.732   0.173
15482TIP3    H167937   1.572   3.798   0.201
15482TIP3    H267938   1.713   3.749   0.227
15483TIP3   OH267939   3.059   0.287  16.830
15483TIP3    H167940   3.051   0.194  16.808
15483TIP3    H267941   2.970   0.313  16.855
15484TIP3   OH267942   1.735   5.530   2.330
15484TIP3    H167943   1.690   5.510   2.247
15484TIP3    H267944   1.671   5.507   2.398
15485TIP3   OH267945   5.910   5.594  13.742
15485TIP3    H167946   5.815   5.600  13.756
15485TIP3    H267947   5.919   5.541  13.663
15486TIP3   OH267948   3.102   6.091  15.809
15486TIP3    H167949   3.196   6.105  15.820
15486TIP3    H267950   3.080   6.133  15.726
15487TIP3   OH267951   6.231   5.555   1.502
15487TIP3    H167952   6.158   5.496   1.487
15487TIP3    H267953   6.308   5.498   1.511
15488TIP3   OH267954   2.702   6.688  13.367
15488TIP3    H167955   2.683   6.781  13.357
15488TIP3    H267956   2.767   6.685  13.438
15489TIP3   OH267957   4.209   4.108  15.954
15489TIP3    H167958   4.269   4.155  15.897
15489TIP3    H267959   4.266   4.062  16.016
15490TIP3   OH267960   2.355   5.300  16.476
15490TIP3    H167961   2.409   5.379  16.487
15490TIP3    H267962   2.269   5.334  16.448
15491TIP3   OH267963   1.140   4.908   5.659
15491TIP3    H167964   1.189   4.985   5.688
15491TIP3    H267965   1.180   4.834   5.704
15492TIP3   OH267966   0.617   2.598  11.707
15492TIP3    H167967   0.685   2.578  11.642
15492TIP3    H267968   0.639   2.685  11.738
15493TIP3   OH267969   4.280   2.058  12.947
15493TIP3    H167970   4.210   2.121  12.929
15493TIP3    H267971   4.253   1.979  12.901
15494TIP3   OH267972   6.461   6.067   2.970
15494TIP3    H167973   6.457   5.979   2.933
15494TIP3    H267974   6.380   6.076   3.021
15495TIP3   OH267975   0.037   2.945  16.552
15495TIP3    H167976  -0.021   2.917  16.481
15495TIP3    H267977   0.117   2.895  16.538
15496TIP3   OH267978   2.012   4.351   4.279
15496TIP3    H167979   2.094   4.360   4.328
15496TIP3    H267980   1.977   4.266   4.305
15497TIP3   OH267981   0.767   6.517   2.193
15497TIP3    H167982   0.741   6.441   2.141
15497TIP3    H267983   0.724   6.591   2.150
15498TIP3   OH267984   2.368   0.172   5.056
15498TIP3    H167985   2.385   0.231   4.982
15498TIP3    H267986   2.293   0.211   5.100
15499TIP3   OH267987   6.664   5.135  15.171
15499TIP3    H167988   6.700   5.058  15.127
15499TIP3    H267989   6.740   5.178  15.210
15500TIP3   OH267990   0.296   6.484   0.720
15500TIP3    H167991   0.272   6.420   0.653
15500TIP3    H267992   0.213   6.528   0.742
15501TIP3   OH267993   4.327   0.240  16.180
15501TIP3    H167994   4.363   0.310  16.234
15501TIP3    H267995   4.401   0.183  16.161
15502TIP3   OH267996   6.075   6.187   3.801
15502TIP3    H167997   6.160   6.156   3.768
15502TIP3    H267998   6.066   6.145   3.886
15503TIP3   OH267999   0.643   2.438   3.495
15503TIP3    H168000   0.707   2.368   3.508
15503TIP3    H268001   0.574   2.419   3.558
15504TIP3   OH268002   1.104   5.387   3.615
15504TIP3    H168003   1.148   5.327   3.555
15504TIP3    H268004   1.161   5.464   3.619
15505TIP3   OH268005   2.564   1.891   4.695
15505TIP3    H168006   2.472   1.866   4.685
15505TIP3    H268007   2.588   1.860   4.782
15506TIP3   OH268008   3.405   6.359  15.498
15506TIP3    H168009   3.332   6.297  15.504
15506TIP3    H268010   3.366   6.438  15.462
15507TIP3   OH268011   4.950   1.709   5.814
15507TIP3    H168012   4.874   1.742   5.862
15507TIP3    H268013   5.025   1.747   5.859
15508TIP3   OH268014   0.721   3.573  12.436
15508TIP3    H168015   0.647   3.597  12.491
15508TIP3    H268016   0.724   3.641  12.369
15509TIP3   OH268017   1.412   3.881   0.626
15509TIP3    H168018   1.347   3.857   0.692
15509TIP3    H268019   1.473   3.807   0.623
15510TIP3   OH268020   4.913   3.866   0.831
15510TIP3    H168021   4.827   3.835   0.802
15510TIP3    H268022   4.961   3.882   0.750
15511TIP3   OH268023   3.305   5.787   1.792
15511TIP3    H168024   3.285   5.880   1.799
15511TIP3    H268025   3.400   5.782   1.782
15512TIP3   OH268026   6.430   1.605  15.135
15512TIP3    H168027   6.417   1.699  15.148
15512TIP3    H268028   6.379   1.564  15.206
15513TIP3   OH268029   4.996   2.055   5.384
15513TIP3    H168030   5.039   2.077   5.467
15513TIP3    H268031   4.905   2.038   5.407
15514TIP3   OH268032   1.921   0.169   2.909
15514TIP3    H168033   1.914   0.142   3.000
15514TIP3    H268034   1.934   0.087   2.861
15515TIP3   OH268035   1.076   1.109  15.599
15515TIP3    H168036   1.155   1.058  15.581
15515TIP3    H268037   1.083   1.185  15.541
15516TIP3   OH268038   0.493   5.609  14.863
15516TIP3    H168039   0.539   5.621  14.946
15516TIP3    H268040   0.513   5.520  14.836
15517TIP3   OH268041   0.483   1.554   0.852
15517TIP3    H168042   0.545   1.602   0.796
15517TIP3    H268043   0.400   1.599   0.840
15518TIP3   OH268044   2.016   3.911   5.298
15518TIP3    H168045   2.051   3.841   5.353
15518TIP3    H268046   2.080   3.919   5.227
15519TIP3   OH268047   1.228   1.371  14.910
15519TIP3    H168048   1.293   1.440  14.911
15519TIP3    H268049   1.249   1.316  14.985
15520TIP3   OH268050   1.095   1.283   5.861
15520TIP3    H168051   1.160   1.353   5.866
15520TIP3    H268052   1.023   1.312   5.917
15521TIP3   OH268053   1.450   0.758   2.767
15521TIP3    H168054   1.426   0.735   2.856
15521TIP3    H268055   1.475   0.850   2.771
15522TIP3   OH268056   4.894   3.581   2.227
15522TIP3    H168057   4.952   3.632   2.172
15522TIP3    H268058   4.946   3.505   2.254
15523TIP3   OH268059   5.386   5.495  16.232
15523TIP3    H168060   5.297   5.520  16.257
15523TIP3    H268061   5.443   5.554  16.281
15524TIP3   OH268062   1.786   5.834   0.969
15524TIP3    H168063   1.735   5.854   0.891
15524TIP3    H268064   1.841   5.912   0.982
15525TIP3   OH268065   1.418   5.171  13.374
15525TIP3    H168066   1.456   5.213  13.296
15525TIP3    H268067   1.325   5.189  13.367
15526TIP3   OH268068   0.092   4.050   2.350
15526TIP3    H168069   0.102   4.103   2.271
15526TIP3    H268070   0.021   3.990   2.330
15527TIP3   OH268071   4.665   6.524  15.587
15527TIP3    H168072   4.628   6.587  15.649
15527TIP3    H268073   4.599   6.456  15.578
15528TIP3   OH268074   0.845   0.529   3.953
15528TIP3    H168075   0.803   0.521   3.868
15528TIP3    H268076   0.776   0.559   4.012
15529TIP3   OH268077   4.866   2.299  15.783
15529TIP3    H168078   4.772   2.297  15.765
15529TIP3    H268079   4.882   2.388  15.815
15530TIP3   OH268080   6.305   2.894  10.754
15530TIP3    H168081   6.381   2.952  10.753
15530TIP3    H268082   6.287   2.877  10.661
15531TIP3   OH268083   5.828   6.300   4.091
15531TIP3    H168084   5.868   6.380   4.128
15531TIP3    H268085   5.903   6.243   4.073
15532TIP3   OH268086   2.579   3.189  11.025
15532TIP3    H168087   2.568   3.099  10.993
15532TIP3    H268088   2.523   3.242  10.969
15533TIP3   OH268089   5.805   2.049  12.078
15533TIP3    H168090   5.788   1.958  12.103
15533TIP3    H268091   5.879   2.045  12.018
15534TIP3   OH268092   3.490   1.409   1.447
15534TIP3    H168093   3.582   1.425   1.464
15534TIP3    H268094   3.482   1.313   1.444
15535TIP3   OH268095   3.125   1.791  17.240
15535TIP3    H168096   3.142   1.850  17.313
15535TIP3    H268097   3.211   1.759  17.214
15536TIP3   OH268098   0.410   4.151  16.046
15536TIP3    H168099   0.437   4.238  16.016
15536TIP3    H268100   0.379   4.107  15.967
15537TIP3   OH268101   1.364   2.600   4.663
15537TIP3    H168102   1.399   2.512   4.677
15537TIP3    H268103   1.356   2.637   4.750
15538TIP3   OH268104   6.301   2.608  12.012
15538TIP3    H168105   6.349   2.623  11.931
15538TIP3    H268106   6.308   2.513  12.027
15539TIP3   OH268107   2.568   0.905   4.937
15539TIP3    H168108   2.637   0.966   4.910
15539TIP3    H268109   2.567   0.838   4.869
15540TIP3   OH268110   4.157   4.008  14.679
15540TIP3    H168111   4.090   4.047  14.736
15540TIP3    H268112   4.117   3.927  14.648
15541TIP3   OH268113   1.929   5.794  14.805
15541TIP3    H168114   1.868   5.811  14.734
15541TIP3    H268115   1.908   5.704  14.833
15542TIP3   OH268116   6.368   0.294  12.215
15542TIP3    H168117   6.443   0.354  12.218
15542TIP3    H268118   6.329   0.301  12.302
15543TIP3   OH268119   5.197   5.308  13.304
15543TIP3    H168120   5.266   5.265  13.354
15543TIP3    H268121   5.119   5.255  13.319
15544TIP3   OH268122   2.948   4.222  17.154
15544TIP3    H168123   3.033   4.204  17.114
15544TIP3    H268124   2.966   4.290  17.219
15545TIP3   OH268125   1.651   5.415  12.607
15545TIP3    H168126   1.664   5.338  12.551
15545TIP3    H268127   1.644   5.380  12.695
15546TIP3   OH268128   4.770   0.307   2.197
15546TIP3    H168129   4.761   0.395   2.235
15546TIP3    H268130   4.749   0.319   2.105
15547TIP3   OH268131   1.782   6.200   6.187
15547TIP3    H168132   1.872   6.233   6.178
15547TIP3    H268133   1.740   6.222   6.104
15548TIP3   OH268134   5.583   5.377  12.302
15548TIP3    H168135   5.540   5.455  12.267
15548TIP3    H268136   5.666   5.408  12.337
15549TIP3   OH268137   2.979   2.218   0.491
15549TIP3    H168138   2.982   2.311   0.471
15549TIP3    H268139   2.933   2.179   0.417
15550TIP3   OH268140   0.225   3.290  14.791
15550TIP3    H168141   0.319   3.283  14.775
15550TIP3    H268142   0.199   3.369  14.744
15551TIP3   OH268143   4.426   5.967   1.851
15551TIP3    H168144   4.439   5.872   1.847
15551TIP3    H268145   4.480   5.997   1.924
15552TIP3   OH268146   0.621   0.368   0.223
15552TIP3    H168147   0.539   0.418   0.219
15552TIP3    H268148   0.594   0.281   0.254
15553TIP3   OH268149   0.578   0.573  14.469
15553TIP3    H168150   0.565   0.657  14.512
15553TIP3    H268151   0.530   0.510  14.524
15554TIP3   OH268152   0.917   3.472  15.950
15554TIP3    H168153   0.871   3.537  15.897
15554TIP3    H268154   0.992   3.518  15.986
15555TIP3   OH268155   1.570   2.661   2.493
15555TIP3    H168156   1.564   2.744   2.446
15555TIP3    H268157   1.508   2.670   2.566
15556TIP3   OH268158   3.361   5.771  15.404
15556TIP3    H168159   3.333   5.769  15.312
15556TIP3    H268160   3.334   5.686  15.439
15557TIP3   OH268161   0.326   1.363   2.229
15557TIP3    H168162   0.286   1.287   2.187
15557TIP3    H268163   0.403   1.383   2.174
15558TIP3   OH268164   0.458   2.126  13.043
15558TIP3    H168165   0.435   2.044  13.000
15558TIP3    H268166   0.513   2.172  12.980
15559TIP3   OH268167   3.945   1.170   5.842
15559TIP3    H168168   3.958   1.076   5.829
15559TIP3    H268169   3.856   1.176   5.878
15560TIP3   OH268170   1.282   4.292  13.583
15560TIP3    H168171   1.236   4.251  13.509
15560TIP3    H268172   1.293   4.383  13.556
15561TIP3   OH268173   1.067   4.922  14.533
15561TIP3    H168174   1.100   4.998  14.581
15561TIP3    H268175   1.035   4.958  14.451
15562TIP3   OH268176   2.842   3.581   5.034
15562TIP3    H168177   2.884   3.667   5.039
15562TIP3    H268178   2.883   3.531   5.104
15563TIP3   OH268179   5.623   2.240  11.528
15563TIP3    H168180   5.569   2.235  11.607
15563TIP3    H268181   5.603   2.326  11.491
15564TIP3   OH268182   4.155   1.137  13.341
15564TIP3    H168183   4.133   1.077  13.412
15564TIP3    H268184   4.081   1.131  13.280
15565TIP3   OH268185   3.019   0.548   0.709
15565TIP3    H168186   3.100   0.594   0.730
15565TIP3    H268187   3.023   0.467   0.759
15566TIP3   OH268188   1.898   2.658   1.834
15566TIP3    H168189   1.915   2.592   1.766
15566TIP3    H268190   1.803   2.661   1.841
15567TIP3   OH268191   1.768   1.875  16.088
15567TIP3    H168192   1.738   1.785  16.075
15567TIP3    H268193   1.859   1.874  16.060
15568TIP3   OH268194   2.868   1.038   3.544
15568TIP3    H168195   2.910   0.956   3.518
15568TIP3    H268196   2.797   1.011   3.601
15569TIP3   OH268197   2.065   1.206   1.387
15569TIP3    H168198   2.049   1.113   1.368
15569TIP3    H268199   2.079   1.209   1.481
15570TIP3   OH268200   2.780   2.259  12.351
15570TIP3    H168201   2.717   2.208  12.401
15570TIP3    H268202   2.776   2.222  12.263
15571TIP3   OH268203   5.386   3.517   2.967
15571TIP3    H168204   5.351   3.485   3.050
15571TIP3    H268205   5.349   3.459   2.900
15572TIP3   OH268206   1.631   6.613   4.181
15572TIP3    H168207   1.724   6.629   4.160
15572TIP3    H268208   1.613   6.674   4.252
15573TIP3   OH268209   1.729   1.700   2.763
15573TIP3    H168210   1.820   1.700   2.792
15573TIP3    H268211   1.725   1.767   2.694
15574TIP3   OH268212   2.675   5.804   3.820
15574TIP3    H168213   2.672   5.892   3.783
15574TIP3    H268214   2.649   5.746   3.748
15575TIP3   OH268215   4.944   0.443  15.238
15575TIP3    H168216   4.979   0.445  15.328
15575TIP3    H268217   5.009   0.492  15.187
15576TIP3   OH268218   0.950   1.639   4.179
15576TIP3    H168219   1.015   1.675   4.238
15576TIP3    H268220   0.866   1.663   4.218
15577TIP3   OH268221   1.034   6.341  12.209
15577TIP3    H168222   1.058   6.249  12.196
15577TIP3    H268223   1.042   6.355  12.303
15578TIP3   OH268224   3.817   5.214   3.150
15578TIP3    H168225   3.782   5.302   3.144
15578TIP3    H268226   3.778   5.167   3.076
15579TIP3   OH268227   3.369   0.269   1.132
15579TIP3    H168228   3.431   0.229   1.194
15579TIP3    H268229   3.338   0.197   1.078
15580TIP3   OH268230   4.811   0.759   2.866
15580TIP3    H168231   4.800   0.797   2.779
15580TIP3    H268232   4.764   0.676   2.862
15581TIP3   OH268233   5.358   1.630  14.072
15581TIP3    H168234   5.413   1.708  14.066
15581TIP3    H268235   5.418   1.561  14.102
15582TIP3   OH268236   2.933   3.403   3.578
15582TIP3    H168237   2.859   3.435   3.629
15582TIP3    H268238   2.926   3.308   3.582
15583TIP3   OH268239   1.813   4.338  12.897
15583TIP3    H168240   1.792   4.306  12.809
15583TIP3    H268241   1.734   4.320  12.948
15584TIP3   OH268242   0.241   3.449  16.864
15584TIP3    H168243   0.316   3.487  16.910
15584TIP3    H268244   0.165   3.492  16.904
15585TIP3   OH268245   5.414   4.833  13.193
15585TIP3    H168246   5.349   4.888  13.148
15585TIP3    H268247   5.394   4.744  13.164
15586TIP3   OH268248   2.419   6.620   3.208
15586TIP3    H168249   2.347   6.671   3.245
15586TIP3    H268250   2.473   6.684   3.163
15587TIP3   OH268251   4.363   4.206  14.644
15587TIP3    H168252   4.326   4.245  14.565
15587TIP3    H268253   4.291   4.156  14.682
15588TIP3   OH268254   2.278   2.812  12.612
15588TIP3    H168255   2.183   2.812  12.599
15588TIP3    H268256   2.290   2.823  12.706
15589TIP3   OH268257   5.604   6.115  15.979
15589TIP3    H168258   5.641   6.093  15.894
15589TIP3    H268259   5.579   6.031  16.017
15590TIP3   OH268260   4.590   4.054   3.583
15590TIP3    H168261   4.530   4.024   3.651
15590TIP3    H268262   4.588   3.985   3.517
15591TIP3   OH268263   1.347   5.720  11.383
15591TIP3    H168264   1.258   5.748  11.363
15591TIP3    H268265   1.337   5.662  11.458
15592TIP3   OH268266   0.738   6.085   4.846
15592TIP3    H168267   0.652   6.117   4.873
15592TIP3    H268268   0.735   6.086   4.750
15593TIP3   OH268269   0.003   4.358   3.714
15593TIP3    H168270   0.079   4.413   3.732
15593TIP3    H268271  -0.070   4.420   3.707
15594TIP3   OH268272   4.631   2.840  12.728
15594TIP3    H168273   4.677   2.915  12.690
15594TIP3    H268274   4.578   2.877  12.799
15595TIP3   OH268275   2.592   2.474   0.816
15595TIP3    H168276   2.603   2.433   0.729
15595TIP3    H268277   2.519   2.426   0.856
15596TIP3   OH268278   2.609   0.133   5.684
15596TIP3    H168279   2.633   0.153   5.594
15596TIP3    H268280   2.692   0.130   5.731
15597TIP3   OH268281   1.074   5.020  15.994
15597TIP3    H168282   0.990   4.990  16.030
15597TIP3    H268283   1.139   4.992  16.058
15598TIP3   OH268284   1.330   0.731   3.320
15598TIP3    H168285   1.266   0.799   3.301
15598TIP3    H268286   1.396   0.775   3.374
15599TIP3   OH268287   2.866   2.504   0.932
15599TIP3    H168288   2.792   2.457   0.894
15599TIP3    H268289   2.827   2.561   0.998
15600TIP3   OH268290   0.509   0.201  11.272
15600TIP3    H168291   0.601   0.213  11.248
15600TIP3    H268292   0.513   0.167  11.362
15601TIP3   OH268293   5.399   5.114  17.068
15601TIP3    H168294   5.361   5.130  16.982
15601TIP3    H268295   5.348   5.167  17.128
15602TIP3   OH268296   5.184   2.369  14.738
15602TIP3    H168297   5.230   2.380  14.821
15602TIP3    H268298   5.097   2.340  14.763
15603TIP3   OH268299   5.746   1.635  15.615
15603TIP3    H168300   5.730   1.670  15.703
15603TIP3    H268301   5.694   1.554  15.612
15604TIP3   OH268302   1.167   6.696   6.516
15604TIP3    H168303   1.191   6.710   6.608
15604TIP3    H268304   1.098   6.630   6.519
15605TIP3   OH268305   2.421   4.065   2.753
15605TIP3    H168306   2.435   4.136   2.690
15605TIP3    H268307   2.347   4.093   2.806
15606TIP3   OH268308   3.873   1.391  16.548
15606TIP3    H168309   3.817   1.314  16.553
15606TIP3    H268310   3.825   1.459  16.596
15607TIP3   OH268311   0.707   4.339  12.075
15607TIP3    H168312   0.689   4.339  12.169
15607TIP3    H268313   0.637   4.392  12.037
15608TIP3   OH268314   4.341   2.599   2.550
15608TIP3    H168315   4.332   2.687   2.588
15608TIP3    H268316   4.417   2.562   2.594
15609TIP3   OH268317   1.719   5.723   3.931
15609TIP3    H168318   1.742   5.742   3.840
15609TIP3    H268319   1.739   5.805   3.977
15610TIP3   OH268320   2.645   5.752  11.104
15610TIP3    H168321   2.705   5.825  11.116
15610TIP3    H268322   2.696   5.687  11.055
15611TIP3   OH268323   5.471   1.859  14.301
15611TIP3    H168324   5.445   1.818  14.219
15611TIP3    H268325   5.565   1.875  14.291
15612TIP3   OH268326   0.422   1.646  17.292
15612TIP3    H168327   0.411   1.705  17.216
15612TIP3    H268328   0.504   1.600  17.274
15613TIP3   OH268329   5.436   3.527   4.942
15613TIP3    H168330   5.420   3.584   5.017
15613TIP3    H268331   5.447   3.587   4.868
15614TIP3   OH268332   5.481   6.437  12.337
15614TIP3    H168333   5.559   6.477  12.301
15614TIP3    H268334   5.445   6.385  12.265
15615TIP3   OH268335   5.754   4.602  11.585
15615TIP3    H168336   5.680   4.655  11.555
15615TIP3    H268337   5.829   4.634  11.534
15616TIP3   OH268338   3.535   0.887   4.198
15616TIP3    H168339   3.443   0.862   4.201
15616TIP3    H268340   3.567   0.847   4.117
15617TIP3   OH268341   5.859   0.970  14.128
15617TIP3    H168342   5.865   1.047  14.184
15617TIP3    H268343   5.937   0.919  14.150
15618TIP3   OH268344   2.954   4.567  13.727
15618TIP3    H168345   2.907   4.542  13.807
15618TIP3    H268346   2.889   4.558  13.657
15619TIP3   OH268347   4.581   0.698  15.812
15619TIP3    H168348   4.636   0.620  15.803
15619TIP3    H268349   4.504   0.668  15.859
15620TIP3   OH268350   6.189   6.561   3.586
15620TIP3    H168351   6.157   6.521   3.667
15620TIP3    H268352   6.196   6.488   3.525
15621TIP3   OH268353   0.989   0.648   4.163
15621TIP3    H168354   0.996   0.738   4.133
15621TIP3    H268355   0.973   0.597   4.084
15622TIP3   OH268356   1.395   3.365   0.400
15622TIP3    H168357   1.476   3.365   0.451
15622TIP3    H268358   1.419   3.321   0.318
15623TIP3   OH268359   2.460   2.550  17.097
15623TIP3    H168360   2.472   2.539  17.002
15623TIP3    H268361   2.375   2.509  17.114
15624TIP3   OH268362   3.636   1.128   5.140
15624TIP3    H168363   3.547   1.116   5.107
15624TIP3    H268364   3.638   1.081   5.223
15625TIP3   OH268365   0.017   6.149  14.699
15625TIP3    H168366  -0.075   6.123  14.709
15625TIP3    H268367   0.056   6.135  14.785
15626TIP3   OH268368   5.326   2.809  13.563
15626TIP3    H168369   5.252   2.835  13.510
15626TIP3    H268370   5.350   2.889  13.611
15627TIP3   OH268371   6.816   5.504  15.770
15627TIP3    H168372   6.822   5.426  15.825
15627TIP3    H268373   6.889   5.494  15.707
15628TIP3   OH268374   1.218   0.216   1.407
15628TIP3    H168375   1.258   0.151   1.349
15628TIP3    H268376   1.207   0.293   1.352
15629TIP3   OH268377   3.266   2.864   3.401
15629TIP3    H168378   3.264   2.808   3.324
15629TIP3    H268379   3.213   2.940   3.377
15630TIP3   OH268380   0.194   0.801  15.949
15630TIP3    H168381   0.208   0.802  16.044
15630TIP3    H268382   0.277   0.832  15.912
15631TIP3   OH268383   1.281   3.134   3.793
15631TIP3    H168384   1.292   3.150   3.887
15631TIP3    H268385   1.278   3.221   3.755
15632TIP3   OH268386   0.340   5.977   4.969
15632TIP3    H168387   0.406   5.963   4.901
15632TIP3    H268388   0.361   5.913   5.037
15633TIP3   OH268389   0.087   2.461   1.369
15633TIP3    H168390   0.057   2.426   1.285
15633TIP3    H268391   0.017   2.521   1.396
15634TIP3   OH268392   2.323   1.414  16.472
15634TIP3    H168393   2.352   1.502  16.449
15634TIP3    H268394   2.383   1.385  16.541
15635TIP3   OH268395   0.298   1.197   0.829
15635TIP3    H168396   0.228   1.246   0.873
15635TIP3    H268397   0.254   1.124   0.787
15636TIP3   OH268398   3.292   4.700   0.799
15636TIP3    H168399   3.328   4.754   0.869
15636TIP3    H268400   3.256   4.763   0.736
15637TIP3   OH268401   1.910   3.367  13.744
15637TIP3    H168402   1.983   3.330  13.794
15637TIP3    H268403   1.951   3.432  13.687
15638TIP3   OH268404   2.465   0.105  15.649
15638TIP3    H168405   2.401   0.168  15.617
15638TIP3    H268406   2.515   0.079  15.570
15639TIP3   OH268407   1.048   5.227  14.471
15639TIP3    H168408   1.070   5.303  14.416
15639TIP3    H268409   1.119   5.220  14.534
15640TIP3   OH268410   0.263   5.395  17.169
15640TIP3    H168411   0.290   5.470  17.116
15640TIP3    H268412   0.183   5.363  17.127
15641TIP3   OH268413   3.379   0.589   4.107
15641TIP3    H168414   3.296   0.579   4.060
15641TIP3    H268415   3.430   0.649   4.054
15642TIP3   OH268416   4.487   6.323   1.442
15642TIP3    H168417   4.563   6.303   1.387
15642TIP3    H268418   4.464   6.239   1.482
15643TIP3   OH268419   6.614   5.383   1.262
15643TIP3    H168420   6.662   5.377   1.179
15643TIP3    H268421   6.562   5.463   1.254
15644TIP3   OH268422   5.051   5.929  13.417
15644TIP3    H168423   5.122   5.900  13.359
15644TIP3    H268424   5.058   6.024  13.418
15645TIP3   OH268425   1.533   6.363   3.600
15645TIP3    H168426   1.490   6.437   3.643
15645TIP3    H268427   1.626   6.380   3.611
15646TIP3   OH268428   1.580   6.347  15.066
15646TIP3    H168429   1.505   6.323  15.121
15646TIP3    H268430   1.651   6.291  15.097
15647TIP3   OH268431   5.820   4.704  14.204
15647TIP3    H168432   5.756   4.635  14.188
15647TIP3    H268433   5.890   4.686  14.141
15648TIP3   OH268434   4.464   0.984  17.221
15648TIP3    H168435   4.541   0.952  17.176
15648TIP3    H268436   4.457   0.930  17.299
15649TIP3   OH268437   0.800   4.894  14.590
15649TIP3    H168438   0.895   4.894  14.589
15649TIP3    H268439   0.776   4.804  14.610
15650TIP3   OH268440   1.718   3.993  13.136
15650TIP3    H168441   1.808   3.974  13.110
15650TIP3    H268442   1.689   3.914  13.181
15651TIP3   OH268443   2.798   2.006  14.196
15651TIP3    H168444   2.801   1.978  14.288
15651TIP3    H268445   2.752   1.935  14.151
15652TIP3   OH268446   5.811   3.287  13.697
15652TIP3    H168447   5.902   3.264  13.718
15652TIP3    H268448   5.781   3.216  13.640
15653TIP3   OH268449   0.462   2.041   2.928
15653TIP3    H168450   0.412   2.019   3.007
15653TIP3    H268451   0.549   2.062   2.959
15654TIP3   OH268452   2.491   3.675  16.512
15654TIP3    H168453   2.436   3.730  16.568
15654TIP3    H268454   2.504   3.595  16.563
15655TIP3   OH268455   0.555   4.012  12.945
15655TIP3    H168456   0.525   3.989  13.032
15655TIP3    H268457   0.647   4.035  12.956
15656TIP3   OH268458   2.397   2.209  13.607
15656TIP3    H168459   2.417   2.258  13.687
15656TIP3    H268460   2.404   2.273  13.537
15657TIP3   OH268461   3.161   1.743   3.870
15657TIP3    H168462   3.229   1.714   3.809
15657TIP3    H268463   3.100   1.670   3.876
15658TIP3   OH268464   4.000   2.654   6.008
15658TIP3    H168465   3.947   2.729   6.036
15658TIP3    H268466   3.941   2.579   6.015
15659TIP3   OH268467   6.151   0.930  15.308
15659TIP3    H168468   6.160   0.941  15.213
15659TIP3    H268469   6.056   0.932  15.323
15660TIP3   OH268470   0.591   5.524  16.639
15660TIP3    H168471   0.521   5.486  16.586
15660TIP3    H268472   0.585   5.618  16.623
15661TIP3   OH268473   3.342   0.447  16.298
15661TIP3    H168474   3.293   0.529  16.298
15661TIP3    H268475   3.283   0.384  16.339
15662TIP3   OH268476   2.682   1.382   4.158
15662TIP3    H168477   2.736   1.449   4.199
15662TIP3    H268478   2.662   1.320   4.228
15663TIP3   OH268479   6.697   3.729   5.535
15663TIP3    H168480   6.735   3.702   5.619
15663TIP3    H268481   6.746   3.808   5.512
15664TIP3   OH268482   4.566   4.542   2.560
15664TIP3    H168483   4.529   4.619   2.603
15664TIP3    H268484   4.544   4.469   2.617
15665TIP3   OH268485   0.678   4.222  14.154
15665TIP3    H168486   0.694   4.131  14.129
15665TIP3    H268487   0.672   4.219  14.250
15666TIP3   OH268488   2.185   3.717   4.085
15666TIP3    H168489   2.161   3.656   4.015
15666TIP3    H268490   2.184   3.665   4.165
15667TIP3   OH268491   4.607   3.162   1.848
15667TIP3    H168492   4.694   3.191   1.821
15667TIP3    H268493   4.586   3.089   1.789
15668TIP3   OH268494   2.403   2.992  11.260
15668TIP3    H168495   2.329   2.979  11.201
15668TIP3    H268496   2.479   2.962  11.210
15669TIP3   OH268497   1.054   4.532  13.368
15669TIP3    H168498   1.084   4.600  13.307
15669TIP3    H268499   1.123   4.526  13.433
15670TIP3   OH268500   1.559   0.191   4.968
15670TIP3    H168501   1.544   0.239   5.049
15670TIP3    H268502   1.640   0.228   4.932
15671TIP3   OH268503   2.394   5.999   0.372
15671TIP3    H168504   2.333   5.935   0.336
15671TIP3    H268505   2.362   6.084   0.341
15672TIP3   OH268506   4.476   0.733   0.900
15672TIP3    H168507   4.429   0.806   0.940
15672TIP3    H268508   4.413   0.661   0.898
15673TIP3   OH268509   0.524   6.102  14.778
15673TIP3    H168510   0.455   6.077  14.716
15673TIP3    H268511   0.596   6.133  14.722
15674TIP3   OH268512   1.970   4.660  13.885
15674TIP3    H168513   1.952   4.726  13.818
15674TIP3    H268514   2.061   4.635  13.869
15675TIP3   OH268515   5.365   4.593   2.095
15675TIP3    H168516   5.456   4.605   2.068
15675TIP3    H268517   5.320   4.672   2.065
15676TIP3   OH268518   3.402   3.359   4.998
15676TIP3    H168519   3.441   3.277   5.028
15676TIP3    H268520   3.477   3.415   4.977
15677TIP3   OH268521   3.509   2.379  17.018
15677TIP3    H168522   3.453   2.332  16.956
15677TIP3    H268523   3.451   2.402  17.090
15678TIP3   OH268524   3.958   1.628   1.292
15678TIP3    H168525   3.939   1.715   1.325
15678TIP3    H268526   3.943   1.569   1.366
15679TIP3   OH268527   3.895   4.575   0.190
15679TIP3    H168528   3.840   4.569   0.112
15679TIP3    H268529   3.833   4.574   0.263
15680TIP3   OH268530   4.113   4.752   0.118
15680TIP3    H168531   4.110   4.757   0.022
15680TIP3    H268532   4.054   4.680   0.140
15681TIP3   OH268533   5.904   5.847   1.127
15681TIP3    H168534   5.895   5.940   1.104
15681TIP3    H268535   5.821   5.825   1.169
15682TIP3   OH268536   0.913   3.253   3.021
15682TIP3    H168537   0.952   3.275   3.106
15682TIP3    H268538   0.835   3.202   3.043
15683TIP3   OH268539   1.585   2.209   1.652
15683TIP3    H168540   1.515   2.271   1.672
15683TIP3    H268541   1.539   2.128   1.627
15684TIP3   OH268542   4.447   5.504  12.062
15684TIP3    H168543   4.454   5.593  12.098
15684TIP3    H268544   4.360   5.475  12.091
15685TIP3   OH268545   6.764   5.723  14.042
15685TIP3    H168546   6.745   5.640  14.000
15685TIP3    H268547   6.828   5.765  13.985
15686TIP3   OH268548   0.131   2.705   3.190
15686TIP3    H168549   0.178   2.640   3.137
15686TIP3    H268550   0.040   2.675   3.188
15687TIP3   OH268551   3.306   2.063  15.435
15687TIP3    H168552   3.275   2.112  15.511
15687TIP3    H268553   3.303   2.126  15.363
15688TIP3   OH268554   4.697   2.509  12.169
15688TIP3    H168555   4.782   2.552  12.160
15688TIP3    H268556   4.713   2.434  12.225
15689TIP3   OH268557   1.871   0.598  16.026
15689TIP3    H168558   1.783   0.627  16.002
15689TIP3    H268559   1.882   0.627  16.117
15690TIP3   OH268560   3.111   4.571  16.668
15690TIP3    H168561   3.166   4.642  16.634
15690TIP3    H268562   3.022   4.609  16.670
15691TIP3   OH268563   6.271   0.554  13.832
15691TIP3    H168564   6.323   0.586  13.758
15691TIP3    H268565   6.293   0.461  13.838
15692TIP3   OH268566   6.461   2.603   5.823
15692TIP3    H168567   6.417   2.608   5.908
15692TIP3    H268568   6.403   2.650   5.763
15693TIP3   OH268569   1.573   1.781   2.984
15693TIP3    H168570   1.623   1.750   2.908
15693TIP3    H268571   1.626   1.756   3.059
15694TIP3   OH268572   3.939   4.166  12.413
15694TIP3    H168573   3.947   4.257  12.443
15694TIP3    H268574   3.951   4.114  12.493
15695TIP3   OH268575   4.192   3.828   3.068
15695TIP3    H168576   4.201   3.919   3.040
15695TIP3    H268577   4.247   3.778   3.008
15696TIP3   OH268578   2.341   0.602   0.192
15696TIP3    H168579   2.335   0.634   0.282
15696TIP3    H268580   2.262   0.636   0.150
15697TIP3   OH268581   6.319   0.461   5.361
15697TIP3    H168582   6.245   0.511   5.397
15697TIP3    H268583   6.305   0.464   5.266
15698TIP3   OH268584   6.755   2.330  15.888
15698TIP3    H168585   6.781   2.240  15.905
15698TIP3    H268586   6.663   2.335  15.915
15699TIP3   OH268587   5.430   1.557   0.725
15699TIP3    H168588   5.354   1.529   0.674
15699TIP3    H268589   5.501   1.500   0.696
15700TIP3   OH268590   3.211   5.427   6.224
15700TIP3    H168591   3.161   5.383   6.294
15700TIP3    H268592   3.194   5.520   6.238
15701TIP3   OH268593   0.159   5.220  11.685
15701TIP3    H168594   0.079   5.251  11.643
15701TIP3    H268595   0.194   5.154  11.626
15702TIP3   OH268596   6.319   1.710  15.384
15702TIP3    H168597   6.332   1.616  15.402
15702TIP3    H268598   6.290   1.746  15.468
15703TIP3   OH268599   5.778   6.654  16.032
15703TIP3    H168600   5.746   6.698  15.953
15703TIP3    H268601   5.844   6.593  16.000
15704TIP3   OH268602   3.187   5.786   4.856
15704TIP3    H168603   3.152   5.872   4.880
15704TIP3    H268604   3.202   5.792   4.761
15705TIP3   OH268605   6.024   0.436   4.413
15705TIP3    H168606   6.069   0.428   4.329
15705TIP3    H268607   5.933   0.415   4.393
15706TIP3   OH268608   5.604   4.622   1.951
15706TIP3    H168609   5.555   4.576   1.882
15706TIP3    H268610   5.677   4.663   1.906
15707TIP3   OH268611   6.060   3.638   0.545
15707TIP3    H168612   6.012   3.691   0.481
15707TIP3    H268613   6.004   3.637   0.622
15708TIP3   OH268614   5.364   5.042  15.064
15708TIP3    H168615   5.412   5.124  15.049
15708TIP3    H268616   5.363   5.033  15.159
15709TIP3   OH268617   0.180   1.690  13.739
15709TIP3    H168618   0.203   1.732  13.822
15709TIP3    H268619   0.085   1.680  13.742
15710TIP3   OH268620   0.418   4.335   0.994
15710TIP3    H168621   0.436   4.241   0.994
15710TIP3    H268622   0.370   4.351   1.075
15711TIP3   OH268623   3.689   6.734   4.499
15711TIP3    H168624   3.671   6.654   4.449
15711TIP3    H268625   3.606   6.782   4.497
15712TIP3   OH268626   5.155   3.064  16.274
15712TIP3    H168627   5.191   2.976  16.264
15712TIP3    H268628   5.196   3.098  16.353
15713TIP3   OH268629   3.415   6.500  12.699
15713TIP3    H168630   3.350   6.429  12.690
15713TIP3    H268631   3.401   6.554  12.622
15714TIP3   OH268632   0.740   4.530  13.834
15714TIP3    H168633   0.798   4.503  13.905
15714TIP3    H268634   0.674   4.462  13.830
15715TIP3   OH268635   2.589   3.883   0.305
15715TIP3    H168636   2.645   3.811   0.333
15715TIP3    H268637   2.537   3.847   0.233
15716TIP3   OH268638   6.006   3.972   5.097
15716TIP3    H168639   6.068   4.009   5.160
15716TIP3    H268640   6.059   3.955   5.019
15717TIP3   OH268641   5.131   6.722   1.996
15717TIP3    H168642   5.059   6.743   2.056
15717TIP3    H268643   5.093   6.729   1.909
15718TIP3   OH268644   3.016   2.366  12.732
15718TIP3    H168645   3.041   2.457  12.716
15718TIP3    H268646   3.099   2.317  12.728
15719TIP3   OH268647   1.607   3.253   4.298
15719TIP3    H168648   1.633   3.337   4.259
15719TIP3    H268649   1.667   3.189   4.261
15720TIP3   OH268650   3.472   6.185  14.817
15720TIP3    H168651   3.516   6.230  14.889
15720TIP3    H268652   3.453   6.253  14.753
15721TIP3   OH268653   4.590   5.400  17.194
15721TIP3    H168654   4.651   5.339  17.153
15721TIP3    H268655   4.504   5.370  17.167
15722TIP3   OH268656   2.050   0.009   2.246
15722TIP3    H168657   2.108  -0.033   2.182
15722TIP3    H268658   1.962  -0.023   2.223
15723TIP3   OH268659   3.732   1.591  16.655
15723TIP3    H168660   3.669   1.599  16.584
15723TIP3    H268661   3.798   1.658  16.637
15724TIP3   OH268662   4.967   0.033   3.955
15724TIP3    H168663   4.931   0.118   3.928
15724TIP3    H268664   5.051   0.054   3.995
15725TIP3   OH268665   3.687   4.113   2.530
15725TIP3    H168666   3.642   4.115   2.446
15725TIP3    H268667   3.779   4.124   2.509
15726TIP3   OH268668   6.704   6.395  13.639
15726TIP3    H168669   6.711   6.473  13.583
15726TIP3    H268670   6.651   6.334  13.589
15727TIP3   OH268671   3.363   5.741  12.800
15727TIP3    H168672   3.318   5.688  12.866
15727TIP3    H268673   3.388   5.678  12.733
15728TIP3   OH268674   4.705   0.682  12.261
15728TIP3    H168675   4.660   0.621  12.203
15728TIP3    H268676   4.717   0.761  12.208
15729TIP3   OH268677   3.285   5.931   1.222
15729TIP3    H168678   3.231   5.854   1.203
15729TIP3    H268679   3.347   5.936   1.150
15730TIP3   OH268680   6.372   3.339   3.914
15730TIP3    H168681   6.465   3.320   3.925
15730TIP3    H268682   6.366   3.381   3.828
15731TIP3   OH268683   1.965   2.922  11.282
15731TIP3    H168684   1.956   3.017  11.276
15731TIP3    H268685   1.981   2.894  11.192
15732TIP3   OH268686   5.413   6.467  16.246
15732TIP3    H168687   5.402   6.391  16.190
15732TIP3    H268688   5.329   6.512  16.244
15733TIP3   OH268689   6.108   1.649   4.981
15733TIP3    H168690   6.097   1.636   5.075
15733TIP3    H268691   6.149   1.735   4.973
15734TIP3   OH268692   4.231   2.266   5.291
15734TIP3    H168693   4.151   2.258   5.238
15734TIP3    H268694   4.292   2.315   5.236
15735TIP3   OH268695   3.849   0.084  15.613
15735TIP3    H168696   3.819   0.016  15.674
15735TIP3    H268697   3.916   0.132  15.662
15736TIP3   OH268698   3.523   4.281  17.073
15736TIP3    H168699   3.480   4.281  17.158
15736TIP3    H268700   3.515   4.191  17.042
15737TIP3   OH268701   1.113   3.964   3.145
15737TIP3    H168702   1.063   4.035   3.105
15737TIP3    H268703   1.196   4.004   3.170
15738TIP3   OH268704   6.769   1.554  11.550
15738TIP3    H168705   6.756   1.594  11.465
15738TIP3    H268706   6.693   1.580  11.602
15739TIP3   OH268707   1.572   1.346   4.950
15739TIP3    H168708   1.560   1.435   4.983
15739TIP3    H268709   1.607   1.297   5.024
15740TIP3   OH268710   5.404   5.024   5.093
15740TIP3    H168711   5.490   5.059   5.115
15740TIP3    H268712   5.421   4.953   5.031
15741TIP3   OH268713   6.429   0.176   4.552
15741TIP3    H168714   6.421   0.088   4.515
15741TIP3    H268715   6.339   0.199   4.577
15742TIP3   OH268716   6.704   0.821   4.011
15742TIP3    H168717   6.797   0.834   3.994
15742TIP3    H268718   6.690   0.854   4.099
15743TIP3   OH268719   1.405   4.092   4.964
15743TIP3    H168720   1.428   4.180   4.934
15743TIP3    H268721   1.487   4.043   4.958
15744TIP3   OH268722   4.965   2.745   2.497
15744TIP3    H168723   4.893   2.734   2.435
15744TIP3    H268724   4.970   2.839   2.512
15745TIP3   OH268725   5.668   4.517  14.467
15745TIP3    H168726   5.735   4.513  14.398
15745TIP3    H268727   5.609   4.445  14.447
15746TIP3   OH268728   0.278   3.078  11.485
15746TIP3    H168729   0.233   3.113  11.562
15746TIP3    H268730   0.371   3.083  11.508
15747TIP3   OH268731   0.923   6.799   0.147
15747TIP3    H168732   0.991   6.753   0.198
15747TIP3    H268733   0.892   6.868   0.205
15748TIP3   OH268734   1.541   6.486   5.941
15748TIP3    H168735   1.483   6.412   5.956
15748TIP3    H268736   1.486   6.553   5.901
15749TIP3   OH268737   4.351   0.745  16.949
15749TIP3    H168738   4.379   0.781  17.033
15749TIP3    H268739   4.275   0.690  16.970
15750TIP3   OH268740   4.959   1.342   3.495
15750TIP3    H168741   4.994   1.274   3.437
15750TIP3    H268742   4.864   1.328   3.494
15751TIP3   OH268743   2.969   2.713   5.213
15751TIP3    H168744   3.006   2.711   5.301
15751TIP3    H268745   2.975   2.623   5.183
15752TIP3   OH268746   6.541   6.475  11.260
15752TIP3    H168747   6.557   6.526  11.181
15752TIP3    H268748   6.603   6.401  11.255
15753TIP3   OH268749   1.729   0.565  15.042
15753TIP3    H168750   1.779   0.556  15.123
15753TIP3    H268751   1.694   0.478  15.026
15754TIP3   OH268752   5.828   2.510  17.195
15754TIP3    H168753   5.922   2.524  17.184
15754TIP3    H268754   5.821   2.417  17.218
15755TIP3   OH268755   1.229   3.655  15.746
15755TIP3    H168756   1.273   3.726  15.699
15755TIP3    H268757   1.164   3.700  15.801
15756TIP3   OH268758   1.060   5.069  11.519
15756TIP3    H168759   1.146   5.111  11.527
15756TIP3    H268760   1.021   5.112  11.443
15757TIP3   OH268761   5.188   4.153   5.672
15757TIP3    H168762   5.209   4.070   5.630
15757TIP3    H268763   5.213   4.219   5.607
15758TIP3   OH268764   3.685   4.456  16.290
15758TIP3    H168765   3.734   4.534  16.264
15758TIP3    H268766   3.748   4.384  16.281
15759TIP3   OH268767   3.487   0.505   2.733
15759TIP3    H168768   3.545   0.572   2.769
15759TIP3    H268769   3.527   0.422   2.760
15760TIP3   OH268770   2.101   5.052  14.751
15760TIP3    H168771   2.035   5.016  14.810
15760TIP3    H268772   2.123   5.137  14.788
15761TIP3   OH268773   0.438   6.280  17.049
15761TIP3    H168774   0.473   6.191  17.050
15761TIP3    H268775   0.417   6.296  16.958
15762TIP3   OH268776   0.299   5.841   3.042
15762TIP3    H168777   0.321   5.923   2.998
15762TIP3    H268778   0.241   5.796   2.981
15763TIP3   OH268779   2.444   6.290   0.037
15763TIP3    H168780   2.360   6.246   0.028
15763TIP3    H268781   2.440   6.363  -0.023
15764TIP3   OH268782   6.606   3.109   0.278
15764TIP3    H168783   6.682   3.064   0.314
15764TIP3    H268784   6.629   3.125   0.186
15765TIP3   OH268785   4.911   6.607  16.437
15765TIP3    H168786   4.963   6.664  16.494
15765TIP3    H268787   4.965   6.529  16.425
15766TIP3   OH268788   3.197   4.402  11.830
15766TIP3    H168789   3.217   4.320  11.785
15766TIP3    H268790   3.108   4.424  11.802
15767TIP3   OH268791   5.653   0.663   6.717
15767TIP3    H168792   5.648   0.583   6.664
15767TIP3    H268793   5.565   0.673   6.752
15768TIP3   OH268794   1.473   3.844  15.095
15768TIP3    H168795   1.427   3.792  15.161
15768TIP3    H268796   1.516   3.914  15.145
15769TIP3   OH268797   2.820   2.791  14.141
15769TIP3    H168798   2.866   2.786  14.057
15769TIP3    H268799   2.779   2.877  14.141
15770TIP3   OH268800   0.385   5.049  16.273
15770TIP3    H168801   0.341   5.133  16.262
15770TIP3    H268802   0.314   4.984  16.270
15771TIP3   OH268803   4.356   6.506   3.957
15771TIP3    H168804   4.323   6.417   3.971
15771TIP3    H268805   4.286   6.562   3.990
15772TIP3   OH268806   6.012   4.417  17.204
15772TIP3    H168807   6.003   4.389  17.295
15772TIP3    H268808   6.029   4.511  17.208
15773TIP3   OH268809   0.254   0.396   2.437
15773TIP3    H168810   0.241   0.463   2.504
15773TIP3    H268811   0.177   0.404   2.380
15774TIP3   OH268812   4.164   5.589  15.831
15774TIP3    H168813   4.182   5.496  15.846
15774TIP3    H268814   4.128   5.592  15.743
15775TIP3   OH268815   6.367   3.988   5.823
15775TIP3    H168816   6.393   3.911   5.874
15775TIP3    H268817   6.379   3.960   5.732
15776TIP3   OH268818   5.342   5.446   5.455
15776TIP3    H168819   5.338   5.535   5.491
15776TIP3    H268820   5.251   5.416   5.454
15777TIP3   OH268821   4.519   1.849   3.627
15777TIP3    H168822   4.483   1.771   3.586
15777TIP3    H268823   4.468   1.860   3.708
15778TIP3   OH268824   5.679   0.439  11.975
15778TIP3    H168825   5.595   0.473  11.944
15778TIP3    H268826   5.715   0.510  12.029
15779TIP3   OH268827   3.517   3.563  14.303
15779TIP3    H168828   3.432   3.521  14.291
15779TIP3    H268829   3.518   3.632  14.236
15780TIP3   OH268830   2.624   3.811   1.303
15780TIP3    H168831   2.590   3.742   1.246
15780TIP3    H268832   2.551   3.831   1.363
15781TIP3   OH268833   3.980   2.043   1.982
15781TIP3    H168834   3.891   2.010   1.967
15781TIP3    H268835   3.980   2.075   2.072
15782TIP3   OH268836   3.988   0.144  12.630
15782TIP3    H168837   4.066   0.121  12.681
15782TIP3    H268838   4.015   0.135  12.539
15783TIP3   OH268839   0.416   0.741  15.632
15783TIP3    H168840   0.374   0.812  15.679
15783TIP3    H268841   0.500   0.729  15.675
15784TIP3   OH268842   0.691   2.819  13.896
15784TIP3    H168843   0.665   2.737  13.855
15784TIP3    H268844   0.768   2.847  13.846
15785TIP3   OH268845   4.089   3.286  12.854
15785TIP3    H168846   4.163   3.232  12.881
15785TIP3    H268847   4.075   3.264  12.762
15786TIP3   OH268848   4.094   5.913   2.946
15786TIP3    H168849   4.088   5.823   2.917
15786TIP3    H268850   4.013   5.954   2.917
15787TIP3   OH268851   2.095   4.245  15.032
15787TIP3    H168852   2.129   4.156  15.024
15787TIP3    H268853   2.027   4.251  14.965
15788TIP3   OH268854   1.150   0.580  12.074
15788TIP3    H168855   1.206   0.530  12.014
15788TIP3    H268856   1.079   0.612  12.019
15789TIP3   OH268857   6.675   3.552  17.259
15789TIP3    H168858   6.588   3.522  17.232
15789TIP3    H268859   6.666   3.647  17.263
15790TIP3   OH268860   6.242   1.770  15.968
15790TIP3    H168861   6.209   1.688  15.932
15790TIP3    H268862   6.261   1.750  16.060
15791TIP3   OH268863   3.806   3.946  11.489
15791TIP3    H168864   3.785   3.882  11.556
15791TIP3    H268865   3.722   3.974  11.454
15792TIP3   OH268866   2.719   5.474   5.423
15792TIP3    H168867   2.640   5.470   5.478
15792TIP3    H268868   2.698   5.417   5.349
15793TIP3   OH268869   5.067   2.533   1.674
15793TIP3    H168870   5.008   2.602   1.703
15793TIP3    H268871   5.152   2.555   1.712
15794TIP3   OH268872   2.366   1.483  14.578
15794TIP3    H168873   2.385   1.570  14.614
15794TIP3    H268874   2.306   1.500  14.505
15795TIP3   OH268875   1.006   0.303   7.075
15795TIP3    H168876   1.057   0.246   7.018
15795TIP3    H268877   0.945   0.244   7.119
15796TIP3   OH268878   0.797   5.834  11.684
15796TIP3    H168879   0.722   5.889  11.704
15796TIP3    H268880   0.776   5.793  11.600
15797TIP3   OH268881   3.068   4.928  15.536
15797TIP3    H168882   3.058   4.888  15.450
15797TIP3    H268883   2.979   4.938  15.569
15798TIP3   OH268884   5.692   5.440  13.959
15798TIP3    H168885   5.631   5.368  13.976
15798TIP3    H268886   5.653   5.489  13.888
15799TIP3   OH268887   2.395   4.191  15.360
15799TIP3    H168888   2.340   4.266  15.340
15799TIP3    H268889   2.474   4.229  15.399
15800TIP3   OH268890   2.314   1.691  13.881
15800TIP3    H168891   2.327   1.708  13.788
15800TIP3    H268892   2.307   1.778  13.920
15801TIP3   OH268893   3.028   4.641   1.339
15801TIP3    H168894   3.004   4.610   1.252
15801TIP3    H268895   3.015   4.566   1.396
15802TIP3   OH268896   6.000   6.357   4.727
15802TIP3    H168897   5.998   6.262   4.742
15802TIP3    H268898   6.054   6.391   4.798
15803TIP3   OH268899   0.710   5.930  13.883
15803TIP3    H168900   0.727   5.843  13.848
15803TIP3    H268901   0.615   5.940  13.876
15804TIP3   OH268902   2.866   5.359   4.149
15804TIP3    H168903   2.835   5.437   4.196
15804TIP3    H268904   2.898   5.393   4.065
15805TIP3   OH268905   5.184   0.096   0.415
15805TIP3    H168906   5.133   0.016   0.401
15805TIP3    H268907   5.228   0.111   0.331
15806TIP3   OH268908   2.766   1.057   0.470
15806TIP3    H168909   2.781   1.011   0.552
15806TIP3    H268910   2.847   1.045   0.420
15807TIP3   OH268911   0.956   5.090  17.180
15807TIP3    H168912   0.926   5.152  17.113
15807TIP3    H268913   0.982   5.013  17.130
15808TIP3   OH268914   4.389   4.558   2.290
15808TIP3    H168915   4.458   4.617   2.261
15808TIP3    H268916   4.398   4.557   2.386
15809TIP3   OH268917   2.915   1.619  14.274
15809TIP3    H168918   2.915   1.655  14.186
15809TIP3    H268919   2.978   1.547  14.271
15810TIP3   OH268920   0.942   6.592   4.214
15810TIP3    H168921   0.950   6.601   4.309
15810TIP3    H268922   0.930   6.682   4.183
15811TIP3   OH268923   5.245   4.443   6.627
15811TIP3    H168924   5.259   4.535   6.651
15811TIP3    H268925   5.213   4.446   6.537
15812TIP3   OH268926   3.829   5.393   5.638
15812TIP3    H168927   3.857   5.484   5.634
15812TIP3    H268928   3.776   5.380   5.560
15813TIP3   OH268929   4.364   2.088  11.087
15813TIP3    H168930   4.301   2.126  11.025
15813TIP3    H268931   4.433   2.153  11.093
15814TIP3   OH268932   3.293   6.679  11.977
15814TIP3    H168933   3.230   6.609  11.958
15814TIP3    H268934   3.257   6.724  12.053
15815TIP3   OH268935   4.789   3.390  14.982
15815TIP3    H168936   4.791   3.363  15.073
15815TIP3    H268937   4.801   3.309  14.932
15816TIP3   OH268938   3.404   0.136  13.722
15816TIP3    H168939   3.338   0.197  13.690
15816TIP3    H268940   3.356   0.058  13.747
15817TIP3   OH268941   5.190   1.161   1.169
15817TIP3    H168942   5.199   1.107   1.091
15817TIP3    H268943   5.097   1.152   1.193
15818TIP3   OH268944   1.755   0.659  16.581
15818TIP3    H168945   1.741   0.700  16.666
15818TIP3    H268946   1.693   0.703  16.522
15819TIP3   OH268947   4.536   3.797  14.172
15819TIP3    H168948   4.585   3.781  14.091
15819TIP3    H268949   4.494   3.882  14.159
15820TIP3   OH268950   1.085   5.405  12.114
15820TIP3    H168951   1.126   5.457  12.045
15820TIP3    H268952   1.158   5.382  12.173
15821TIP3   OH268953   4.996   3.125  16.934
15821TIP3    H168954   5.036   3.190  16.993
15821TIP3    H268955   5.067   3.101  16.874
15822TIP3   OH268956   1.261   4.541   6.105
15822TIP3    H168957   1.278   4.447   6.102
15822TIP3    H268958   1.333   4.581   6.057
15823TIP3   OH268959   0.948   0.440   1.522
15823TIP3    H168960   0.917   0.498   1.452
15823TIP3    H268961   0.986   0.500   1.587
15824TIP3   OH268962   5.185   0.084  16.543
15824TIP3    H168963   5.264   0.091  16.596
15824TIP3    H268964   5.203   0.010  16.484
15825TIP3   OH268965   1.618   2.668  10.620
15825TIP3    H168966   1.648   2.599  10.561
15825TIP3    H268967   1.635   2.634  10.708
15826TIP3   OH268968   4.031   6.521  14.022
15826TIP3    H168969   3.938   6.504  14.008
15826TIP3    H268970   4.054   6.468  14.098
15827TIP3   OH268971   4.964   2.771  11.284
15827TIP3    H168972   4.884   2.718  11.290
15827TIP3    H268973   5.024   2.731  11.346
15828TIP3   OH268974   3.459   5.379  13.903
15828TIP3    H168975   3.404   5.345  13.974
15828TIP3    H268976   3.423   5.465  13.884
15829TIP3   OH268977   0.035   4.076   1.166
15829TIP3    H168978  -0.023   4.072   1.242
15829TIP3    H268979   0.008   4.154   1.119
15830TIP3   OH268980   6.085   0.845   1.515
15830TIP3    H168981   5.996   0.866   1.484
15830TIP3    H268982   6.088   0.750   1.517
15831TIP3   OH268983   6.380   1.267   1.377
15831TIP3    H168984   6.366   1.193   1.317
15831TIP3    H268985   6.293   1.286   1.412
15832TIP3   OH268986   3.926   4.956   3.975
15832TIP3    H168987   3.834   4.932   3.983
15832TIP3    H268988   3.935   5.035   4.026
15833TIP3   OH268989   6.122   4.097   2.953
15833TIP3    H168990   6.047   4.129   2.902
15833TIP3    H268991   6.085   4.032   3.012
15834TIP3   OH268992   1.650   6.306   5.315
15834TIP3    H168993   1.605   6.322   5.398
15834TIP3    H268994   1.742   6.327   5.333
15835TIP3   OH268995   5.649   0.057  14.996
15835TIP3    H168996   5.580   0.016  14.943
15835TIP3    H268997   5.725   0.059  14.937
15836TIP3   OH268998   5.460   6.308  11.844
15836TIP3    H168999   5.518   6.236  11.868
15836TIP3    H269000   5.474   6.320  11.750
15837TIP3   OH269001   6.447   5.943  13.845
15837TIP3    H169002   6.379   5.926  13.780
15837TIP3    H269003   6.431   6.034  13.873
15838TIP3   OH269004   4.933   0.078   2.263
15838TIP3    H169005   4.883   0.153   2.230
15838TIP3    H269006   4.927   0.086   2.358
15839TIP3   OH269007   0.476   2.044  15.970
15839TIP3    H169008   0.525   2.067  16.049
15839TIP3    H269009   0.388   2.026  16.000
15840TIP3   OH269010   0.274   0.111   2.400
15840TIP3    H169011   0.362   0.096   2.366
15840TIP3    H269012   0.266   0.206   2.406
15841TIP3   OH269013   0.655   4.875   1.821
15841TIP3    H169014   0.669   4.894   1.729
15841TIP3    H269015   0.625   4.784   1.823
15842TIP3   OH269016   6.685   6.393   0.321
15842TIP3    H169017   6.672   6.421   0.231
15842TIP3    H269018   6.631   6.453   0.373
15843TIP3   OH269019   2.956   3.105  11.283
15843TIP3    H169020   3.037   3.128  11.328
15843TIP3    H269021   2.894   3.173  11.308
15844TIP3   OH269022   0.221   2.466   4.899
15844TIP3    H169023   0.235   2.396   4.962
15844TIP3    H269024   0.233   2.547   4.949
15845TIP3   OH269025   6.520   4.213   4.785
15845TIP3    H169026   6.554   4.302   4.795
15845TIP3    H269027   6.592   4.157   4.814
15846TIP3   OH269028   1.162   6.517   1.476
15846TIP3    H169029   1.236   6.572   1.504
15846TIP3    H269030   1.090   6.579   1.464
15847TIP3   OH269031   2.399   5.468   0.601
15847TIP3    H169032   2.445   5.551   0.593
15847TIP3    H269033   2.452   5.407   0.549
15848TIP3   OH269034   5.466   2.009  11.520
15848TIP3    H169035   5.532   1.973  11.461
15848TIP3    H269036   5.482   2.103  11.520
15849TIP3   OH269037   5.961   0.427  14.863
15849TIP3    H169038   6.047   0.427  14.819
15849TIP3    H269039   5.917   0.505  14.828
15850TIP3   OH269040   3.011   4.983   1.634
15850TIP3    H169041   3.090   5.033   1.653
15850TIP3    H269042   3.039   4.892   1.635
15851TIP3   OH269043   6.301   1.361   5.186
15851TIP3    H169044   6.264   1.341   5.100
15851TIP3    H269045   6.365   1.291   5.201
15852TIP3   OH269046   2.136   4.679  14.603
15852TIP3    H169047   2.213   4.737  14.600
15852TIP3    H269048   2.154   4.619  14.675
15853TIP3   OH269049   2.368   4.340  12.710
15853TIP3    H169050   2.394   4.377  12.626
15853TIP3    H269051   2.444   4.290  12.738
15854TIP3   OH269052   2.591   3.513   2.818
15854TIP3    H169053   2.618   3.537   2.906
15854TIP3    H269054   2.512   3.460   2.830
15855TIP3   OH269055   4.503   1.739   0.595
15855TIP3    H169056   4.497   1.769   0.504
15855TIP3    H269057   4.529   1.647   0.588
15856TIP3   OH269058   6.008   4.872  11.998
15856TIP3    H169059   5.945   4.935  11.963
15856TIP3    H269060   5.996   4.794  11.944
15857TIP3   OH269061   0.630   3.587   5.675
15857TIP3    H169062   0.693   3.634   5.729
15857TIP3    H269063   0.592   3.654   5.618
15858TIP3   OH269064   4.652   3.797   6.280
15858TIP3    H169065   4.647   3.886   6.246
15858TIP3    H269066   4.740   3.767   6.256
15859TIP3   OH269067   6.576   5.318  13.165
15859TIP3    H169068   6.495   5.295  13.119
15859TIP3    H269069   6.645   5.272  13.117
15860TIP3   OH269070   6.255   0.977  13.215
15860TIP3    H169071   6.320   0.929  13.267
15860TIP3    H269072   6.295   0.985  13.128
15861TIP3   OH269073   0.189   3.769  13.908
15861TIP3    H169074   0.098   3.798  13.899
15861TIP3    H269075   0.241   3.849  13.904
15862TIP3   OH269076   5.382   1.708   2.900
15862TIP3    H169077   5.433   1.755   2.834
15862TIP3    H269078   5.342   1.777   2.953
15863TIP3   OH269079   2.469   2.651   5.811
15863TIP3    H169080   2.521   2.648   5.891
15863TIP3    H269081   2.390   2.600   5.831
15864TIP3   OH269082   3.576   5.358  11.946
15864TIP3    H169083   3.652   5.307  11.973
15864TIP3    H269084   3.505   5.295  11.942
15865TIP3   OH269085   1.330   2.956   2.660
15865TIP3    H169086   1.320   3.009   2.739
15865TIP3    H269087   1.312   3.016   2.588
15866TIP3   OH269088   0.978   2.051   3.408
15866TIP3    H169089   1.030   2.005   3.474
15866TIP3    H269090   0.899   1.998   3.398
15867TIP3   OH269091   0.048   3.045   6.345
15867TIP3    H169092   0.072   3.130   6.382
15867TIP3    H269093   0.012   2.996   6.419
15868TIP3   OH269094   5.930   4.095   5.863
15868TIP3    H169095   6.025   4.095   5.853
15868TIP3    H269096   5.914   4.140   5.946
15869TIP3   OH269097   5.043   4.423  11.790
15869TIP3    H169098   4.998   4.507  11.791
15869TIP3    H269099   5.075   4.411  11.879
15870TIP3   OH269100   1.202   1.437   1.170
15870TIP3    H169101   1.207   1.342   1.170
15870TIP3    H269102   1.262   1.465   1.101
15871TIP3   OH269103   6.544   0.694  15.038
15871TIP3    H169104   6.490   0.631  14.990
15871TIP3    H269105   6.587   0.745  14.969
15872TIP3   OH269106   6.375   3.524   5.444
15872TIP3    H169107   6.464   3.520   5.409
15872TIP3    H269108   6.358   3.436   5.477
15873TIP3   OH269109   5.363   4.124   1.885
15873TIP3    H169110   5.284   4.157   1.928
15873TIP3    H269111   5.408   4.203   1.855
15874TIP3   OH269112   6.624   0.461  13.910
15874TIP3    H169113   6.611   0.545  13.954
15874TIP3    H269114   6.718   0.447  13.912
15875TIP3   OH269115   1.346   1.898  13.604
15875TIP3    H169116   1.347   1.837  13.678
15875TIP3    H269117   1.435   1.894  13.569
15876TIP3   OH269118   5.490   2.813   5.311
15876TIP3    H169119   5.432   2.834   5.384
15876TIP3    H269120   5.553   2.885   5.309
15877TIP3   OH269121   2.627   0.146  12.601
15877TIP3    H169122   2.645   0.236  12.628
15877TIP3    H269123   2.652   0.143  12.509
15878TIP3   OH269124   6.503   0.179   5.884
15878TIP3    H169125   6.511   0.144   5.795
15878TIP3    H269126   6.409   0.191   5.896
15879TIP3   OH269127   3.099   5.517  11.156
15879TIP3    H169128   3.078   5.507  11.063
15879TIP3    H269129   3.037   5.583  11.187
15880TIP3   OH269130   4.222   1.069  17.118
15880TIP3    H169131   4.297   1.033  17.165
15880TIP3    H269132   4.149   1.011  17.141
15881TIP3   OH269133   3.836   5.225  11.185
15881TIP3    H169134   3.845   5.313  11.222
15881TIP3    H269135   3.809   5.239  11.095
15882TIP3   OH269136   6.030   3.616  13.035
15882TIP3    H169137   6.063   3.684  13.094
15882TIP3    H269138   6.005   3.543  13.093
15883TIP3   OH269139   2.977   3.128   4.811
15883TIP3    H169140   2.948   3.040   4.836
15883TIP3    H269141   3.016   3.116   4.725
15884TIP3   OH269142   2.715   0.704   5.528
15884TIP3    H169143   2.682   0.738   5.446
15884TIP3    H269144   2.751   0.618   5.506
15885TIP3   OH269145   5.790   4.325  12.680
15885TIP3    H169146   5.853   4.383  12.721
15885TIP3    H269147   5.843   4.255  12.642
15886TIP3   OH269148   1.758   4.169   5.475
15886TIP3    H169149   1.781   4.146   5.385
15886TIP3    H269150   1.828   4.228   5.504
15887TIP3   OH269151   0.335   2.354  13.410
15887TIP3    H169152   0.402   2.293  13.377
15887TIP3    H269153   0.303   2.313  13.490
15888TIP3   OH269154   6.311   3.438  11.459
15888TIP3    H169155   6.253   3.490  11.404
15888TIP3    H269156   6.376   3.402  11.398
15889TIP3   OH269157   5.938   1.494   0.379
15889TIP3    H169158   5.993   1.571   0.366
15889TIP3    H269159   5.980   1.446   0.450
15890TIP3   OH269160   4.204   4.697  16.247
15890TIP3    H169161   4.287   4.686  16.295
15890TIP3    H269162   4.198   4.620  16.191
15891TIP3   OH269163   2.864   6.366  14.611
15891TIP3    H169164   2.802   6.296  14.594
15891TIP3    H269165   2.942   6.322  14.646
15892TIP3   OH269166   2.101   5.654  15.038
15892TIP3    H169167   2.149   5.735  15.058
15892TIP3    H269168   2.030   5.651  15.102
15893TIP3   OH269169   5.662   4.395   1.120
15893TIP3    H169170   5.571   4.367   1.109
15893TIP3    H269171   5.682   4.442   1.040
15894TIP3   OH269172   2.790   1.823  13.343
15894TIP3    H169173   2.718   1.760  13.337
15894TIP3    H269174   2.835   1.815  13.259
15895TIP3   OH269175   2.248   5.200   4.901
15895TIP3    H169176   2.219   5.141   4.831
15895TIP3    H269177   2.176   5.262   4.912
15896TIP3   OH269178   5.804   1.824   0.070
15896TIP3    H169179   5.719   1.801   0.033
15896TIP3    H269180   5.851   1.741   0.076
15897TIP3   OH269181   3.703   2.984   4.507
15897TIP3    H169182   3.793   2.996   4.475
15897TIP3    H269183   3.665   2.920   4.448
15898TIP3   OH269184   4.360   0.050  13.739
15898TIP3    H169185   4.400  -0.033  13.715
15898TIP3    H269186   4.284   0.026  13.791
15899TIP3   OH269187   5.183   1.853   3.750
15899TIP3    H169188   5.196   1.768   3.792
15899TIP3    H269189   5.112   1.838   3.688
15900TIP3   OH269190   5.517   6.674   3.175
15900TIP3    H169191   5.597   6.722   3.197
15900TIP3    H269192   5.461   6.739   3.131
15901TIP3   OH269193   5.659   3.904  13.170
15901TIP3    H169194   5.598   3.831  13.182
15901TIP3    H269195   5.717   3.875  13.100
15902TIP3   OH269196   1.952   5.069  15.476
15902TIP3    H169197   1.906   5.082  15.559
15902TIP3    H269198   2.002   5.149  15.463
15903TIP3   OH269199   6.456   5.963  12.333
15903TIP3    H169200   6.501   5.915  12.403
15903TIP3    H269201   6.503   5.938  12.253
15904TIP3   OH269202   3.413   3.143  12.646
15904TIP3    H169203   3.483   3.192  12.604
15904TIP3    H269204   3.441   3.052  12.640
15905TIP3   OH269205   4.263   1.166   2.518
15905TIP3    H169206   4.336   1.105   2.518
15905TIP3    H269207   4.203   1.131   2.452
15906TIP3   OH269208   4.360   0.430   2.016
15906TIP3    H169209   4.339   0.359   2.077
15906TIP3    H269210   4.290   0.427   1.951
15907TIP3   OH269211   3.025   3.580  12.770
15907TIP3    H169212   2.943   3.599  12.725
15907TIP3    H269213   3.018   3.628  12.853
15908TIP3   OH269214   3.983   4.810  11.777
15908TIP3    H169215   4.058   4.790  11.722
15908TIP3    H269216   3.931   4.729  11.777
15909TIP3   OH269217   3.092   5.479   2.523
15909TIP3    H169218   3.140   5.557   2.497
15909TIP3    H269219   3.003   5.493   2.489
15910TIP3   OH269220   0.979   4.366   0.305
15910TIP3    H169221   1.015   4.329   0.224
15910TIP3    H269222   1.048   4.353   0.370
15911TIP3   OH269223   4.249   2.450   0.832
15911TIP3    H169224   4.341   2.445   0.858
15911TIP3    H269225   4.252   2.463   0.737
15912TIP3   OH269226   6.587   0.801  13.059
15912TIP3    H169227   6.644   0.836  13.128
15912TIP3    H269228   6.515   0.863  13.053
15913TIP3   OH269229   5.639   5.548   0.076
15913TIP3    H169230   5.660   5.480   0.012
15913TIP3    H269231   5.544   5.555   0.073
15914TIP3   OH269232   1.845   4.379  11.276
15914TIP3    H169233   1.928   4.370  11.322
15914TIP3    H269234   1.784   4.411  11.343
15915TIP3   OH269235   5.929   4.472  15.662
15915TIP3    H169236   6.015   4.431  15.673
15915TIP3    H269237   5.872   4.423  15.722
15916TIP3   OH269238   2.918   6.422  12.583
15916TIP3    H169239   2.929   6.514  12.603
15916TIP3    H269240   2.829   6.415  12.549
15917TIP3   OH269241   6.419   5.669   1.243
15917TIP3    H169242   6.358   5.705   1.307
15917TIP3    H269243   6.363   5.642   1.170
15918TIP3   OH269244   1.751   3.431   5.231
15918TIP3    H169245   1.664   3.407   5.262
15918TIP3    H269246   1.745   3.429   5.136
15919TIP3   OH269247   5.210   2.317  10.549
15919TIP3    H169248   5.305   2.322  10.556
15919TIP3    H269249   5.188   2.375  10.476
15920TIP3   OH269250   6.328   1.363   1.884
15920TIP3    H169251   6.241   1.337   1.853
15920TIP3    H269252   6.340   1.452   1.850
15921TIP3   OH269253   4.196   0.563   5.438
15921TIP3    H169254   4.115   0.614   5.429
15921TIP3    H269255   4.262   0.626   5.466
15922TIP3   OH269256   4.008   3.018  11.857
15922TIP3    H169257   3.946   3.085  11.828
15922TIP3    H269258   4.035   2.975  11.776
15923TIP3   OH269259   0.945   6.430  13.594
15923TIP3    H169260   0.857   6.468  13.602
15923TIP3    H269261   0.996   6.496  13.548
15924TIP3   OH269262   4.146   2.405  10.945
15924TIP3    H169263   4.124   2.312  10.946
15924TIP3    H269264   4.112   2.436  10.861
15925TIP3   OH269265   5.318   2.782  11.543
15925TIP3    H169266   5.355   2.761  11.629
15925TIP3    H269267   5.383   2.749  11.481
15926TIP3   OH269268   2.977   0.195  14.171
15926TIP3    H169269   2.965   0.239  14.086
15926TIP3    H269270   2.901   0.222  14.223
15927TIP3   OH269271   3.646   2.893  16.748
15927TIP3    H169272   3.613   2.883  16.837
15927TIP3    H269273   3.713   2.825  16.740
15928TIP3   OH269274   1.647   1.408  17.095
15928TIP3    H169275   1.563   1.416  17.141
15928TIP3    H269276   1.713   1.422  17.163
15929TIP3   OH269277   0.662   5.562  15.989
15929TIP3    H169278   0.585   5.585  16.042
15929TIP3    H269279   0.653   5.468  15.973
15930TIP3   OH269280   2.571   1.125   1.940
15930TIP3    H169281   2.567   1.073   1.860
15930TIP3    H269282   2.622   1.202   1.916
15931TIP3   OH269283   5.277   1.782  11.575
15931TIP3    H169284   5.235   1.765  11.490
15931TIP3    H269285   5.342   1.850  11.556
15932TIP3   OH269286   1.592   3.085  12.325
15932TIP3    H169287   1.653   3.028  12.279
15932TIP3    H269288   1.599   3.058  12.417
15933TIP3   OH269289   1.886   2.694  15.809
15933TIP3    H169290   1.815   2.631  15.820
15933TIP3    H269291   1.850   2.776  15.844
15934TIP3   OH269292   1.719   4.866  13.609
15934TIP3    H169293   1.770   4.918  13.547
15934TIP3    H269294   1.746   4.775  13.591
15935TIP3   OH269295   6.504   2.607  14.579
15935TIP3    H169296   6.580   2.625  14.633
15935TIP3    H269297   6.437   2.668  14.610
15936TIP3   OH269298   0.775   3.469  16.305
15936TIP3    H169299   0.801   3.393  16.253
15936TIP3    H269300   0.855   3.521  16.312
15937TIP3   OH269301   5.688   5.342  11.766
15937TIP3    H169302   5.688   5.354  11.861
15937TIP3    H269303   5.598   5.360  11.740
15938TIP3   OH269304   5.229   5.649   4.411
15938TIP3    H169305   5.238   5.592   4.335
15938TIP3    H269306   5.292   5.720   4.397
15939TIP3   OH269307   6.263   3.084   1.835
15939TIP3    H169308   6.169   3.099   1.846
15939TIP3    H269309   6.281   3.006   1.887
15940TIP3   OH269310   0.366   1.607   2.371
15940TIP3    H169311   0.337   1.677   2.312
15940TIP3    H269312   0.355   1.527   2.320
15941TIP3   OH269313   2.954   1.741   4.094
15941TIP3    H169314   2.975   1.763   4.185
15941TIP3    H269315   2.987   1.652   4.083
15942TIP3   OH269316   6.131   5.894  15.084
15942TIP3    H169317   6.137   5.906  14.989
15942TIP3    H269318   6.178   5.813  15.101
15943TIP3   OH269319   4.978   4.436  16.866
15943TIP3    H169320   4.964   4.360  16.809
15943TIP3    H269321   5.063   4.470  16.841
15944TIP3   OH269322   6.678   1.427   4.527
15944TIP3    H169323   6.730   1.443   4.449
15944TIP3    H269324   6.741   1.425   4.598
15945TIP3   OH269325   5.385   0.734  14.333
15945TIP3    H169326   5.317   0.666  14.327
15945TIP3    H269327   5.467   0.687  14.317
15946TIP3   OH269328   4.795   0.235   3.148
15946TIP3    H169329   4.879   0.274   3.122
15946TIP3    H269330   4.787   0.256   3.241
15947TIP3   OH269331   1.815   0.147   0.377
15947TIP3    H169332   1.800   0.140   0.283
15947TIP3    H269333   1.808   0.241   0.395
15948TIP3   OH269334   3.936   4.324  16.617
15948TIP3    H169335   3.854   4.309  16.664
15948TIP3    H269336   4.005   4.299  16.678
15949TIP3   OH269337   1.236   0.812   3.903
15949TIP3    H169338   1.158   0.845   3.947
15949TIP3    H269339   1.203   0.744   3.844
15950TIP3   OH269340   6.776   6.138  16.917
15950TIP3    H169341   6.855   6.125  16.969
15950TIP3    H269342   6.746   6.226  16.940
15951TIP3   OH269343   0.641   0.163   5.608
15951TIP3    H169344   0.726   0.126   5.584
15951TIP3    H269345   0.658   0.256   5.624
15952TIP3   OH269346   0.121   0.162   0.398
15952TIP3    H169347   0.169   0.079   0.395
15952TIP3    H269348   0.040   0.144   0.350
15953TIP3   OH269349   2.932   3.852   3.769
15953TIP3    H169350   2.919   3.927   3.827
15953TIP3    H269351   2.844   3.829   3.740
15954TIP3   OH269352   4.279   6.173  10.422
15954TIP3    H169353   4.298   6.184  10.515
15954TIP3    H269354   4.364   6.178  10.380
15955TIP3   OH269355   1.058   0.783  13.880
15955TIP3    H169356   1.121   0.720  13.914
15955TIP3    H269357   1.072   0.782  13.785
15956TIP3   OH269358   3.463   5.425   5.128
15956TIP3    H169359   3.398   5.417   5.197
15956TIP3    H269360   3.425   5.487   5.066
15957TIP3   OH269361   2.856   2.007  16.946
15957TIP3    H169362   2.917   2.063  16.993
15957TIP3    H269363   2.871   1.920  16.982
15958TIP3   OH269364   6.201   4.372   5.093
15958TIP3    H169365   6.205   4.342   5.002
15958TIP3    H269366   6.290   4.401   5.112
15959TIP3   OH269367   6.645   1.296  11.467
15959TIP3    H169368   6.668   1.301  11.559
15959TIP3    H269369   6.727   1.274  11.423
15960TIP3   OH269370   1.690   1.438   6.795
15960TIP3    H169371   1.659   1.520   6.835
15960TIP3    H269372   1.780   1.429   6.826
15961TIP3   OH269373   0.928   2.462  12.767
15961TIP3    H169374   0.911   2.556  12.763
15961TIP3    H269375   0.994   2.446  12.701
15962TIP3   OH269376   1.338   0.358  13.393
15962TIP3    H169377   1.414   0.415  13.386
15962TIP3    H269378   1.266   0.409  13.357
15963TIP3   OH269379   0.229   1.144  16.313
15963TIP3    H169380   0.222   1.120  16.221
15963TIP3    H269381   0.166   1.088  16.358
15964TIP3   OH269382   0.517   0.015   5.408
15964TIP3    H169383   0.571   0.059   5.474
15964TIP3    H269384   0.544   0.055   5.325
15965TIP3   OH269385   4.921   4.208   3.248
15965TIP3    H169386   4.925   4.301   3.228
15965TIP3    H269387   4.989   4.168   3.193
15966TIP3   OH269388   5.064   4.247   0.768
15966TIP3    H169389   5.002   4.204   0.709
15966TIP3    H269390   5.069   4.337   0.738
15967TIP3   OH269391   1.866   0.927   4.272
15967TIP3    H169392   1.877   0.871   4.195
15967TIP3    H269393   1.839   0.866   4.341
15968TIP3   OH269394   3.870   2.174   4.293
15968TIP3    H169395   3.845   2.193   4.202
15968TIP3    H269396   3.815   2.233   4.345
15969TIP3   OH269397   5.537   3.843   1.960
15969TIP3    H169398   5.508   3.929   1.987
15969TIP3    H269399   5.552   3.795   2.041
15970TIP3   OH269400   5.860   0.060  14.169
15970TIP3    H169401   5.906   0.140  14.196
15970TIP3    H269402   5.828   0.022  14.251
15971TIP3   OH269403   5.827   6.688  15.538
15971TIP3    H169404   5.813   6.659  15.448
15971TIP3    H269405   5.890   6.760  15.531
15972TIP3   OH269406   4.667   5.502  12.407
15972TIP3    H169407   4.661   5.486  12.313
15972TIP3    H269408   4.760   5.514  12.423
15973TIP3   OH269409   5.664   1.824  13.602
15973TIP3    H169410   5.579   1.787  13.624
15973TIP3    H269411   5.650   1.869  13.519
15974TIP3   OH269412   2.883   6.080  12.122
15974TIP3    H169413   2.823   6.100  12.194
15974TIP3    H269414   2.852   6.135  12.050
15975TIP3   OH269415   2.944   3.766  11.795
15975TIP3    H169416   2.859   3.741  11.831
15975TIP3    H269417   2.989   3.808  11.867
15976TIP3   OH269418   0.780   1.962  11.320
15976TIP3    H169419   0.686   1.983  11.317
15976TIP3    H269420   0.799   1.926  11.234
15977TIP3   OH269421   5.331   3.492  11.274
15977TIP3    H169422   5.322   3.425  11.342
15977TIP3    H269423   5.360   3.444  11.197
15978TIP3   OH269424   4.608   0.525  16.847
15978TIP3    H169425   4.676   0.570  16.897
15978TIP3    H269426   4.629   0.543  16.755
15979TIP3   OH269427   4.418   4.843  12.904
15979TIP3    H169428   4.345   4.890  12.865
15979TIP3    H269429   4.391   4.827  12.994
15980TIP3   OH269430   1.953   0.476  16.657
15980TIP3    H169431   1.914   0.470  16.744
15980TIP3    H269432   1.887   0.521  16.604
15981TIP3   OH269433   5.747   3.800  16.910
15981TIP3    H169434   5.817   3.861  16.885
15981TIP3    H269435   5.682   3.810  16.841
15982TIP3   OH269436   2.415   3.641   5.572
15982TIP3    H169437   2.489   3.681   5.527
15982TIP3    H269438   2.450   3.616   5.658
15983TIP3   OH269439   0.473   1.312  16.669
15983TIP3    H169440   0.411   1.254  16.713
15983TIP3    H269441   0.435   1.324  16.581
15984TIP3   OH269442   5.492   4.787   6.200
15984TIP3    H169443   5.422   4.801   6.136
15984TIP3    H269444   5.505   4.693   6.202
15985TIP3   OH269445   3.543   0.535  17.087
15985TIP3    H169446   3.507   0.612  17.130
15985TIP3    H269447   3.493   0.526  17.006
15986TIP3   OH269448   0.307   3.207   5.061
15986TIP3    H169449   0.361   3.249   5.128
15986TIP3    H269450   0.302   3.116   5.088
15987TIP3   OH269451   1.505   4.132   2.389
15987TIP3    H169452   1.595   4.113   2.362
15987TIP3    H269453   1.512   4.163   2.479
15988TIP3   OH269454   0.206   0.182  14.747
15988TIP3    H169455   0.114   0.154  14.742
15988TIP3    H269456   0.244   0.153  14.664
15989TIP3   OH269457   1.073   5.627   2.483
15989TIP3    H169458   0.997   5.591   2.437
15989TIP3    H269459   1.148   5.598   2.430
15990TIP3   OH269460   1.549   1.221  12.933
15990TIP3    H169461   1.625   1.177  12.969
15990TIP3    H269462   1.586   1.297  12.886
15991TIP3   OH269463   3.913   1.002   1.987
15991TIP3    H169464   3.997   0.956   1.988
15991TIP3    H269465   3.929   1.081   2.038
15992TIP3   OH269466   6.711   1.513   1.851
15992TIP3    H169467   6.650   1.479   1.786
15992TIP3    H269468   6.778   1.559   1.800
15993TIP3   OH269469   6.356   3.488  13.025
15993TIP3    H169470   6.432   3.528  12.983
15993TIP3    H269471   6.306   3.449  12.953
15994TIP3   OH269472   2.206   6.178   0.061
15994TIP3    H169473   2.136   6.115   0.044
15994TIP3    H269474   2.214   6.180   0.156
15995TIP3   OH269475   2.953   4.219  14.821
15995TIP3    H169476   2.886   4.276  14.858
15995TIP3    H269477   2.905   4.156  14.767
15996TIP3   OH269478   5.447   1.592   1.249
15996TIP3    H169479   5.426   1.685   1.259
15996TIP3    H269480   5.413   1.569   1.163
15997TIP3   OH269481   1.210   1.328   2.990
15997TIP3    H169482   1.230   1.379   2.912
15997TIP3    H269483   1.272   1.360   3.056
15998TIP3   OH269484   3.512   4.050   6.108
15998TIP3    H169485   3.551   4.137   6.118
15998TIP3    H269486   3.562   3.995   6.168
15999TIP3   OH269487   1.156   1.460  13.266
15999TIP3    H169488   1.180   1.369  13.249
15999TIP3    H269489   1.239   1.507  13.263
16000TIP3   OH269490   3.826   4.738  16.728
16000TIP3    H169491   3.757   4.672  16.729
16000TIP3    H269492   3.819   4.781  16.813
16001TIP3   OH269493   0.192   3.119  15.282
16001TIP3    H169494   0.240   3.070  15.349
16001TIP3    H269495   0.137   3.180  15.330
16002TIP3   OH269496   4.993   1.460   5.740
16002TIP3    H169497   5.083   1.491   5.727
16002TIP3    H269498   4.947   1.536   5.774
16003TIP3   OH269499   4.988   4.805  14.879
16003TIP3    H169500   5.058   4.750  14.845
16003TIP3    H269501   5.029   4.857  14.948
16004TIP3   OH269502   5.288   4.588   1.088
16004TIP3    H169503   5.207   4.632   1.062
16004TIP3    H269504   5.353   4.658   1.093
16005TIP3   OH269505   1.988   0.325   1.915
16005TIP3    H169506   2.021   0.326   1.825
16005TIP3    H269507   1.995   0.416   1.945
16006TIP3   OH269508   5.137   5.003   0.942
16006TIP3    H169509   5.115   4.965   1.027
16006TIP3    H269510   5.096   4.944   0.878
16007TIP3   OH269511   1.379   1.407  11.312
16007TIP3    H169512   1.435   1.468  11.359
16007TIP3    H269513   1.430   1.326  11.307
16008TIP3   OH269514   1.206   6.705  15.304
16008TIP3    H169515   1.290   6.660  15.293
16008TIP3    H269516   1.225   6.776  15.365
16009TIP3   OH269517   0.590   3.449   3.512
16009TIP3    H169518   0.571   3.500   3.590
16009TIP3    H269519   0.671   3.486   3.478
16010TIP3   OH269520   5.514   3.413   5.651
16010TIP3    H169521   5.445   3.356   5.617
16010TIP3    H269522   5.467   3.484   5.695
16011TIP3   OH269523   0.647   6.474  14.068
16011TIP3    H169524   0.558   6.506  14.085
16011TIP3    H269525   0.643   6.440  13.979
16012TIP3   OH269526   5.146   4.079   6.182
16012TIP3    H169527   5.161   4.158   6.234
16012TIP3    H269528   5.116   4.112   6.097
16013TIP3   OH269529   2.532   2.705  13.751
16013TIP3    H169530   2.502   2.616  13.731
16013TIP3    H269531   2.524   2.713  13.846
16014TIP3   OH269532   0.083   5.121   0.016
16014TIP3    H169533   0.088   5.124   0.111
16014TIP3    H269534   0.006   5.066  -0.002
16015TIP3   OH269535   1.589   0.568   6.018
16015TIP3    H169536   1.605   0.590   6.110
16015TIP3    H269537   1.505   0.609   5.998
16016TIP3   OH269538   2.821   5.487  14.729
16016TIP3    H169539   2.740   5.516  14.686
16016TIP3    H269540   2.860   5.567  14.763
16017TIP3   OH269541   4.299   1.210   0.292
16017TIP3    H169542   4.246   1.131   0.299
16017TIP3    H269543   4.355   1.209   0.370
16018TIP3   OH269544   2.932   2.851  12.652
16018TIP3    H169545   2.917   2.939  12.619
16018TIP3    H269546   2.921   2.859  12.747
16019TIP3   OH269547   3.597   4.454   0.974
16019TIP3    H169548   3.527   4.495   1.025
16019TIP3    H269549   3.577   4.360   0.976
16020TIP3   OH269550   3.768   6.379   3.214
16020TIP3    H169551   3.733   6.333   3.290
16020TIP3    H269552   3.690   6.410   3.167
16021TIP3   OH269553   5.580   6.583  11.506
16021TIP3    H169554   5.532   6.604  11.427
16021TIP3    H269555   5.541   6.639  11.574
16022TIP3   OH269556   4.994   0.178  12.194
16022TIP3    H169557   5.032   0.232  12.264
16022TIP3    H269558   4.952   0.105  12.240
16023TIP3   OH269559   2.724   1.332   0.417
16023TIP3    H169560   2.710   1.243   0.448
16023TIP3    H269561   2.764   1.378   0.491
16024TIP3   OH269562   6.416   6.022   5.197
16024TIP3    H169563   6.423   6.085   5.269
16024TIP3    H269564   6.483   6.049   5.135
16025TIP3   OH269565   4.809   5.398  16.127
16025TIP3    H169566   4.767   5.396  16.213
16025TIP3    H269567   4.796   5.309  16.093
16026TIP3   OH269568   0.454   3.071  14.507
16026TIP3    H169569   0.380   3.111  14.462
16026TIP3    H269570   0.459   3.117  14.591
16027TIP3   OH269571   4.471   1.470  10.596
16027TIP3    H169572   4.449   1.551  10.641
16027TIP3    H269573   4.388   1.438  10.562
16028TIP3   OH269574   3.863   2.532  15.454
16028TIP3    H169575   3.928   2.598  15.429
16028TIP3    H269576   3.821   2.508  15.371
16029TIP3   OH269577   6.452   6.706  16.538
16029TIP3    H169578   6.409   6.787  16.566
16029TIP3    H269579   6.397   6.636  16.574
16030TIP3   OH269580   3.929   6.614   3.238
16030TIP3    H169581   3.900   6.524   3.255
16030TIP3    H269582   3.890   6.636   3.154
16031TIP3   OH269583   3.215   4.141  17.010
16031TIP3    H169584   3.195   4.181  16.925
16031TIP3    H269585   3.292   4.086  16.994
16032TIP3   OH269586   0.756   6.458   5.362
16032TIP3    H169587   0.781   6.374   5.399
16032TIP3    H269588   0.698   6.436   5.289
16033TIP3   OH269589   6.296   2.842   2.438
16033TIP3    H169590   6.345   2.922   2.422
16033TIP3    H269591   6.259   2.819   2.353
16034TIP3   OH269592   2.924   3.131   0.173
16034TIP3    H169593   2.991   3.131   0.105
16034TIP3    H269594   2.847   3.170   0.132
16035TIP3   OH269595   3.592   4.858   2.330
16035TIP3    H169596   3.606   4.877   2.237
16035TIP3    H269597   3.510   4.903   2.352
16036TIP3   OH269598   5.219   4.365  15.433
16036TIP3    H169599   5.175   4.374  15.348
16036TIP3    H269600   5.218   4.453  15.470
16037TIP3   OH269601   1.011   3.498   4.156
16037TIP3    H169602   1.057   3.571   4.113
16037TIP3    H269603   0.962   3.457   4.085
16038TIP3   OH269604   3.210   6.819  10.599
16038TIP3    H169605   3.177   6.732  10.576
16038TIP3    H269606   3.210   6.820  10.695
16039TIP3   OH269607   0.647   3.609   2.435
16039TIP3    H169608   0.700   3.619   2.513
16039TIP3    H269609   0.697   3.651   2.365
16040TIP3   OH269610   3.944   5.158   2.827
16040TIP3    H169611   3.924   5.251   2.828
16040TIP3    H269612   4.038   5.153   2.813
16041TIP3   OH269613   1.471   4.822  12.577
16041TIP3    H169614   1.489   4.803  12.670
16041TIP3    H269615   1.443   4.738  12.540
16042TIP3   OH269616   3.934   0.786   1.097
16042TIP3    H169617   3.988   0.769   1.020
16042TIP3    H269618   3.926   0.700   1.139
16043TIP3   OH269619   3.166   6.184   1.649
16043TIP3    H169620   3.114   6.112   1.616
16043TIP3    H269621   3.114   6.221   1.720
16044TIP3   OH269622   4.224   0.683  11.922
16044TIP3    H169623   4.138   0.681  11.880
16044TIP3    H269624   4.208   0.652  12.011
16045TIP3   OH269625   1.856   0.460   5.962
16045TIP3    H169626   1.764   0.467   5.988
16045TIP3    H269627   1.904   0.495   6.037
16046TIP3   OH269628   0.008   2.501   4.762
16046TIP3    H169629  -0.022   2.414   4.785
16046TIP3    H269630   0.072   2.523   4.830
16047TIP3   OH269631   6.755   4.051   3.188
16047TIP3    H169632   6.771   4.029   3.096
16047TIP3    H269633   6.722   4.140   3.186
16048TIP3   OH269634   3.706   6.019  14.677
16048TIP3    H169635   3.697   6.115  14.673
16048TIP3    H269636   3.790   6.005  14.720
16049TIP3   OH269637   2.892   3.797  11.511
16049TIP3    H169638   2.902   3.796  11.606
16049TIP3    H269639   2.802   3.827  11.497
16050TIP3   OH269640   3.467   6.223  16.492
16050TIP3    H169641   3.562   6.229  16.495
16050TIP3    H269642   3.439   6.238  16.582
16051TIP3   OH269643   2.015   4.157  11.721
16051TIP3    H169644   1.981   4.113  11.799
16051TIP3    H269645   2.098   4.112  11.702
16052TIP3   OH269646   4.510   0.876   2.235
16052TIP3    H169647   4.459   0.795   2.233
16052TIP3    H269648   4.592   0.854   2.191
16053TIP3   OH269649   5.074   1.875   2.245
16053TIP3    H169650   4.980   1.878   2.267
16053TIP3    H269651   5.114   1.942   2.301
16054TIP3   OH269652   4.433   0.703   6.101
16054TIP3    H169653   4.445   0.718   6.195
16054TIP3    H269654   4.474   0.779   6.060
16055TIP3   OH269655   2.928   1.379  13.260
16055TIP3    H169656   2.885   1.295  13.247
16055TIP3    H269657   2.875   1.424  13.325
16056TIP3   OH269658   4.234   5.096  10.341
16056TIP3    H169659   4.246   5.191  10.331
16056TIP3    H269660   4.235   5.081  10.435
16057TIP3   OH269661   2.510   1.753  17.141
16057TIP3    H169662   2.568   1.719  17.209
16057TIP3    H269663   2.545   1.716  17.060
16058TIP3   OH269664   0.396   0.485  13.483
16058TIP3    H169665   0.436   0.566  13.516
16058TIP3    H269666   0.305   0.489  13.515
16059TIP3   OH269667   5.736   3.506  12.019
16059TIP3    H169668   5.700   3.458  12.094
16059TIP3    H269669   5.774   3.585  12.056
16060TIP3   OH269670   3.248   0.777   6.101
16060TIP3    H169671   3.340   0.787   6.128
16060TIP3    H269672   3.253   0.759   6.007
16061TIP3   OH269673   6.807   3.833  13.100
16061TIP3    H169674   6.852   3.781  13.034
16061TIP3    H269675   6.837   3.797  13.184
16062TIP3   OH269676   1.986   6.035   3.859
16062TIP3    H169677   1.908   6.033   3.803
16062TIP3    H269678   2.036   5.958   3.834
16063TIP3   OH269679   5.539   3.473  13.366
16063TIP3    H169680   5.578   3.439  13.447
16063TIP3    H269681   5.472   3.408  13.344
16064TIP3   OH269682   5.350   1.979   5.349
16064TIP3    H169683   5.401   1.904   5.319
16064TIP3    H269684   5.389   2.054   5.305
16065TIP3   OH269685   1.121   3.324   3.553
16065TIP3    H169686   1.211   3.322   3.522
16065TIP3    H269687   1.115   3.404   3.606
16066TIP3   OH269688   6.091   6.711   0.546
16066TIP3    H169689   6.094   6.625   0.504
16066TIP3    H269690   6.169   6.756   0.515
16067TIP3   OH269691   0.572   5.230  12.318
16067TIP3    H169692   0.549   5.166  12.251
16067TIP3    H269693   0.643   5.189  12.367
16068TIP3   OH269694   6.210   6.746   0.877
16068TIP3    H169695   6.183   6.695   0.801
16068TIP3    H269696   6.240   6.830   0.840
16069TIP3   OH269697   5.877   1.933   6.048
16069TIP3    H169698   5.941   1.904   6.113
16069TIP3    H269699   5.899   2.025   6.032
16070TIP3   OH269700   5.334   5.748  11.351
16070TIP3    H169701   5.362   5.742  11.442
16070TIP3    H269702   5.414   5.739  11.300
16071TIP3   OH269703   6.232   6.664  15.301
16071TIP3    H169704   6.148   6.711  15.294
16071TIP3    H269705   6.225   6.616  15.384
16072TIP3   OH269706   2.794   4.638  11.661
16072TIP3    H169707   2.757   4.725  11.648
16072TIP3    H269708   2.818   4.609  11.573
16073TIP3   OH269709   4.599   2.192  15.645
16073TIP3    H169710   4.594   2.270  15.589
16073TIP3    H269711   4.546   2.127  15.599
16074TIP3   OH269712   2.038   0.683  15.086
16074TIP3    H169713   2.044   0.774  15.059
16074TIP3    H269714   1.998   0.638  15.012
16075TIP3   OH269715   3.451   2.444   1.094
16075TIP3    H169716   3.399   2.369   1.124
16075TIP3    H269717   3.426   2.455   1.002
16076TIP3   OH269718   2.512   1.940   3.959
16076TIP3    H169719   2.575   1.869   3.962
16076TIP3    H269720   2.562   2.018   3.984
16077TIP3   OH269721   2.001   0.075  11.811
16077TIP3    H169722   2.094   0.053  11.817
16077TIP3    H269723   1.995   0.163  11.850
16078TIP3   OH269724   4.649   3.931  12.841
16078TIP3    H169725   4.570   3.919  12.894
16078TIP3    H269726   4.624   3.995  12.775
16079TIP3   OH269727   1.260   2.501  13.883
16079TIP3    H169728   1.286   2.419  13.925
16079TIP3    H269729   1.180   2.527  13.929
16080TIP3   OH269730   1.691   2.605   4.548
16080TIP3    H169731   1.648   2.601   4.633
16080TIP3    H269732   1.754   2.678   4.556
16081TIP3   OH269733   6.169   4.142  14.236
16081TIP3    H169734   6.141   4.232  14.224
16081TIP3    H269735   6.131   4.095  14.162
16082TIP3   OH269736   5.672   0.102   2.316
16082TIP3    H169737   5.751   0.048   2.312
16082TIP3    H269738   5.600   0.039   2.314
16083TIP3   OH269739   1.542   1.163   0.043
16083TIP3    H169740   1.508   1.155  -0.047
16083TIP3    H269741   1.635   1.144   0.035
16084TIP3   OH269742   3.211   3.326  14.422
16084TIP3    H169743   3.270   3.388  14.380
16084TIP3    H269744   3.246   3.240  14.398
16085TIP3   OH269745   2.406   2.465   4.073
16085TIP3    H169746   2.425   2.413   4.152
16085TIP3    H269747   2.481   2.449   4.016
16086TIP3   OH269748   0.224   1.818  11.050
16086TIP3    H169749   0.250   1.902  11.012
16086TIP3    H269750   0.263   1.818  11.137
16087TIP3   OH269751   6.795   0.515   3.192
16087TIP3    H169752   6.762   0.442   3.140
16087TIP3    H269753   6.874   0.481   3.235
16088TIP3   OH269754   2.030   6.651  13.828
16088TIP3    H169755   1.986   6.567  13.815
16088TIP3    H269756   1.989   6.687  13.907
16089TIP3   OH269757   6.761   0.327   2.936
16089TIP3    H169758   6.666   0.340   2.943
16089TIP3    H269759   6.771   0.235   2.912
16090TIP3   OH269760   3.387   5.631  13.859
16090TIP3    H169761   3.353   5.701  13.915
16090TIP3    H269762   3.341   5.642  13.776
16091TIP3   OH269763   4.420   3.146   6.498
16091TIP3    H169764   4.499   3.095   6.516
16091TIP3    H269765   4.349   3.083   6.504
16092TIP3   OH269766   4.270   5.363   0.203
16092TIP3    H169767   4.272   5.382   0.296
16092TIP3    H269768   4.324   5.284   0.193
16093TIP3   OH269769   4.075   1.419  10.854
16093TIP3    H169770   4.170   1.428  10.861
16093TIP3    H269771   4.049   1.375  10.935
16094TIP3   OH269772   0.956   3.909  12.092
16094TIP3    H169773   0.965   3.985  12.033
16094TIP3    H269774   1.035   3.911  12.146
16095TIP3   OH269775   5.561   1.301   1.966
16095TIP3    H169776   5.626   1.259   2.023
16095TIP3    H269777   5.567   1.394   1.986
16096TIP3   OH269778   5.210   1.121  16.379
16096TIP3    H169779   5.188   1.032  16.351
16096TIP3    H269780   5.207   1.173  16.299
16097TIP3   OH269781   1.855   0.695  16.292
16097TIP3    H169782   1.911   0.744  16.353
16097TIP3    H269783   1.769   0.736  16.301
16098TIP3   OH269784   0.881   3.043  14.199
16098TIP3    H169785   0.859   3.080  14.284
16098TIP3    H269786   0.977   3.036  14.200
16099TIP3   OH269787   4.809   6.370  11.908
16099TIP3    H169788   4.806   6.398  11.816
16099TIP3    H269789   4.824   6.450  11.957
16100TIP3   OH269790   1.537   4.236  17.124
16100TIP3    H169791   1.560   4.196  17.208
16100TIP3    H269792   1.551   4.330  17.138
16101TIP3   OH269793   4.575   6.158  11.084
16101TIP3    H169794   4.569   6.127  10.993
16101TIP3    H269795   4.495   6.208  11.097
16102TIP3   OH269796   2.836   3.086   1.459
16102TIP3    H169797   2.773   3.058   1.392
16102TIP3    H269798   2.921   3.073   1.419
16103TIP3   OH269799   2.564   5.712  11.836
16103TIP3    H169800   2.598   5.623  11.825
16103TIP3    H269801   2.605   5.744  11.916
16104TIP3   OH269802   4.826   2.562   3.250
16104TIP3    H169803   4.805   2.639   3.198
16104TIP3    H269804   4.822   2.592   3.341
16105TIP3   OH269805   2.442   4.113   5.376
16105TIP3    H169806   2.526   4.069   5.388
16105TIP3    H269807   2.377   4.045   5.393
16106TIP3   OH269808   0.018   0.682   2.104
16106TIP3    H169809   0.048   0.733   2.030
16106TIP3    H269810  -0.061   0.726   2.134
16107TIP3   OH269811   6.556   3.775   3.414
16107TIP3    H169812   6.476   3.749   3.459
16107TIP3    H269813   6.627   3.755   3.475
16108TIP3   OH269814   1.916   5.352  11.410
16108TIP3    H169815   1.954   5.265  11.415
16108TIP3    H269816   1.900   5.366  11.316
16109TIP3   OH269817   0.228   6.422  12.367
16109TIP3    H169818   0.251   6.456  12.281
16109TIP3    H269819   0.279   6.341  12.375
16110TIP3   OH269820   3.231   5.186   1.430
16110TIP3    H169821   3.209   5.162   1.339
16110TIP3    H269822   3.183   5.267   1.446
16111TIP3   OH269823   4.857   6.758   3.317
16111TIP3    H169824   4.906   6.720   3.390
16111TIP3    H269825   4.790   6.692   3.297
16112TIP3   OH269826   5.849   4.964   4.723
16112TIP3    H169827   5.905   4.908   4.777
16112TIP3    H269828   5.895   5.048   4.718
16113TIP3   OH269829   3.492   0.000   5.787
16113TIP3    H169830   3.458  -0.013   5.876
16113TIP3    H269831   3.444  -0.063   5.733
16114TIP3   OH269832   5.712   3.591  10.529
16114TIP3    H169833   5.727   3.672  10.577
16114TIP3    H269834   5.799   3.562  10.502
16115TIP3   OH269835   3.289   1.402   0.379
16115TIP3    H169836   3.345   1.453   0.437
16115TIP3    H269837   3.334   1.404   0.295
16116TIP3   OH269838   2.406   0.412   0.726
16116TIP3    H169839   2.346   0.348   0.688
16116TIP3    H269840   2.493   0.380   0.701
16117TIP3   OH269841   0.394   6.466   6.378
16117TIP3    H169842   0.437   6.381   6.390
16117TIP3    H269843   0.451   6.528   6.422
16118TIP3   OH269844   1.044   1.143   1.990
16118TIP3    H169845   1.120   1.107   1.944
16118TIP3    H269846   0.985   1.172   1.920
16119TIP3   OH269847   1.413   6.485  11.401
16119TIP3    H169848   1.341   6.547  11.388
16119TIP3    H269849   1.406   6.424  11.328
16120TIP3   OH269850   1.330   5.558   2.609
16120TIP3    H169851   1.320   5.520   2.522
16120TIP3    H269852   1.269   5.508   2.664
16121TIP3   OH269853   0.098   3.113  14.604
16121TIP3    H169854   0.162   3.164  14.653
16121TIP3    H269855   0.082   3.036  14.659
16122TIP3   OH269856   5.331   0.968  14.239
16122TIP3    H169857   5.333   0.938  14.148
16122TIP3    H269858   5.349   0.891  14.291
16123TIP3   OH269859   4.021   1.466   4.047
16123TIP3    H169860   3.994   1.444   4.136
16123TIP3    H269861   4.104   1.511   4.056
16124TIP3   OH269862   2.849   6.099   6.230
16124TIP3    H169863   2.801   6.017   6.220
16124TIP3    H269864   2.932   6.073   6.270
16125TIP3   OH269865   5.781   6.051  11.354
16125TIP3    H169866   5.690   6.029  11.374
16125TIP3    H269867   5.829   5.970  11.369
16126TIP3   OH269868   2.673   4.333  16.176
16126TIP3    H169869   2.761   4.301  16.196
16126TIP3    H269870   2.640   4.364  16.260
16127TIP3   OH269871   6.796   6.531   5.233
16127TIP3    H169872   6.872   6.507   5.287
16127TIP3    H269873   6.729   6.467   5.257
16128TIP3   OH269874   0.574   0.483  16.078
16128TIP3    H169875   0.610   0.427  16.009
16128TIP3    H269876   0.613   0.569  16.062
16129TIP3   OH269877   2.423   4.558   2.949
16129TIP3    H169878   2.349   4.540   2.891
16129TIP3    H269879   2.468   4.474   2.957
16130TIP3   OH269880   1.179   3.659   3.988
16130TIP3    H169881   1.176   3.753   4.009
16130TIP3    H269882   1.239   3.622   4.053
16131TIP3   OH269883   1.228   1.298   1.590
16131TIP3    H169884   1.252   1.241   1.517
16131TIP3    H269885   1.310   1.311   1.638
16132TIP3   OH269886   6.330   1.616  16.998
16132TIP3    H169887   6.358   1.591  16.910
16132TIP3    H269888   6.250   1.666  16.985
16133TIP3   OH269889   4.542   2.462  14.471
16133TIP3    H169890   4.558   2.470  14.565
16133TIP3    H269891   4.607   2.519  14.430
16134TIP3   OH269892   5.760   3.450  15.863
16134TIP3    H169893   5.706   3.412  15.932
16134TIP3    H269894   5.727   3.409  15.783
16135TIP3   OH269895   2.188   2.121   1.377
16135TIP3    H169896   2.167   2.039   1.333
16135TIP3    H269897   2.108   2.172   1.372
16136TIP3   OH269898   4.799   0.526  15.810
16136TIP3    H169899   4.890   0.509  15.833
16136TIP3    H269900   4.759   0.439  15.806
16137TIP3   OH269901   0.681   6.340  13.047
16137TIP3    H169902   0.752   6.385  13.002
16137TIP3    H269903   0.673   6.385  13.131
16138TIP3   OH269904   6.175   6.486  13.195
16138TIP3    H169905   6.119   6.409  13.191
16138TIP3    H269906   6.244   6.463  13.258
16139TIP3   OH269907   4.809   1.571   3.653
16139TIP3    H169908   4.843   1.507   3.715
16139TIP3    H269909   4.734   1.527   3.613
16140TIP3   OH269910   5.278   5.930   0.517
16140TIP3    H169911   5.324   5.858   0.561
16140TIP3    H269912   5.332   6.007   0.536
16141TIP3   OH269913   2.031   2.530  12.739
16141TIP3    H169914   2.074   2.492  12.662
16141TIP3    H269915   1.960   2.583  12.703
16142TIP3   OH269916   1.840   3.850  17.197
16142TIP3    H169917   1.888   3.768  17.210
16142TIP3    H269918   1.888   3.914  17.250
16143TIP3   OH269919   3.675   2.713   2.457
16143TIP3    H169920   3.642   2.702   2.368
16143TIP3    H269921   3.670   2.807   2.473
16144TIP3   OH269922   5.594   6.739   0.727
16144TIP3    H169923   5.660   6.670   0.719
16144TIP3    H269924   5.633   6.803   0.788
16145TIP3   OH269925   1.491   4.474   5.944
16145TIP3    H169926   1.530   4.413   6.006
16145TIP3    H269927   1.555   4.545   5.938
16146TIP3   OH269928   3.463   4.778   0.563
16146TIP3    H169929   3.398   4.837   0.600
16146TIP3    H269930   3.411   4.711   0.517
16147TIP3   OH269931   6.602   5.355   3.250
16147TIP3    H169932   6.552   5.331   3.173
16147TIP3    H269933   6.693   5.333   3.228
16148TIP3   OH269934   0.524   6.464   4.146
16148TIP3    H169935   0.530   6.484   4.240
16148TIP3    H269936   0.541   6.547   4.103
16149TIP3   OH269937   0.240   2.262  11.800
16149TIP3    H169938   0.318   2.314  11.778
16149TIP3    H269939   0.233   2.269  11.895
16150TIP3   OH269940   2.770   2.195  11.560
16150TIP3    H169941   2.752   2.149  11.478
16150TIP3    H269942   2.861   2.224  11.552
16151TIP3   OH269943   2.293   3.891  16.963
16151TIP3    H169944   2.364   3.934  17.011
16151TIP3    H269945   2.214   3.938  16.988
16152TIP3   OH269946   1.088   6.121   1.565
16152TIP3    H169947   1.167   6.080   1.529
16152TIP3    H269948   1.051   6.055   1.624
16153TIP3   OH269949   2.336   1.024   0.336
16153TIP3    H169950   2.342   1.099   0.395
16153TIP3    H269951   2.399   0.960   0.372
16154TIP3   OH269952   1.764   5.392  16.885
16154TIP3    H169953   1.716   5.335  16.824
16154TIP3    H269954   1.712   5.391  16.965
16155TIP3   OH269955   5.494   3.714  11.364
16155TIP3    H169956   5.459   3.643  11.310
16155TIP3    H269957   5.570   3.676  11.408
16156TIP3   OH269958   1.659   5.226  15.116
16156TIP3    H169959   1.655   5.149  15.173
16156TIP3    H269960   1.597   5.206  15.046
16157TIP3   OH269961   0.839   0.986  15.508
16157TIP3    H169962   0.844   0.891  15.515
16157TIP3    H269963   0.919   1.017  15.550
16158TIP3   OH269964   3.227   2.464   5.693
16158TIP3    H169965   3.305   2.418   5.660
16158TIP3    H269966   3.222   2.442   5.786
16159TIP3   OH269967   3.734   5.470   4.709
16159TIP3    H169968   3.805   5.407   4.717
16159TIP3    H269969   3.700   5.479   4.798
16160TIP3   OH269970   3.400   5.618   2.971
16160TIP3    H169971   3.322   5.584   2.929
16160TIP3    H269972   3.368   5.672   3.043
16161TIP3   OH269973   2.690   6.505  15.178
16161TIP3    H169974   2.758   6.499  15.245
16161TIP3    H269975   2.676   6.415  15.150
16162TIP3   OH269976   2.118   4.472   3.747
16162TIP3    H169977   2.137   4.562   3.776
16162TIP3    H269978   2.047   4.444   3.804
16163TIP3   OH269979   5.954   0.755   2.770
16163TIP3    H169980   6.007   0.818   2.818
16163TIP3    H269981   6.018   0.700   2.724
16164TIP3   OH269982   5.066   2.568  11.872
16164TIP3    H169983   5.160   2.560  11.855
16164TIP3    H269984   5.026   2.563  11.785
16165TIP3   OH269985   3.998   0.810  13.711
16165TIP3    H169986   4.017   0.852  13.795
16165TIP3    H269987   3.976   0.719  13.734
16166TIP3   OH269988   5.790   2.962   4.059
16166TIP3    H169989   5.852   2.956   4.132
16166TIP3    H269990   5.845   2.968   3.981
16167TIP3   OH269991   4.507   6.695   2.781
16167TIP3    H169992   4.418   6.660   2.773
16167TIP3    H269993   4.505   6.747   2.862
16168TIP3   OH269994   5.455   1.881  14.005
16168TIP3    H169995   5.366   1.892  13.971
16168TIP3    H269996   5.507   1.858  13.928
16169TIP3   OH269997   3.391   3.408   0.670
16169TIP3    H169998   3.398   3.345   0.597
16169TIP3    H269999   3.318   3.464   0.647
16170TIP3   OH270000   2.407   2.624   4.430
16170TIP3    H170001   2.460   2.551   4.461
16170TIP3    H270002   2.322   2.611   4.471
16171TIP3   OH270003   3.905   6.012  13.540
16171TIP3    H170004   3.896   6.107  13.532
16171TIP3    H270005   3.987   5.992  13.496
16172TIP3   OH270006   0.928   5.051   5.823
16172TIP3    H170007   0.946   4.996   5.746
16172TIP3    H270008   0.995   5.119   5.820
16173TIP3   OH270009   5.582   3.871   4.621
16173TIP3    H170010   5.558   3.961   4.644
16173TIP3    H270011   5.642   3.880   4.547
16174TIP3   OH270012   1.920   3.061   1.448
16174TIP3    H170013   1.963   2.976   1.454
16174TIP3    H270014   1.918   3.080   1.354
16175TIP3   OH270015   6.357   2.679  16.449
16175TIP3    H170016   6.420   2.617  16.486
16175TIP3    H270017   6.389   2.697  16.361
16176TIP3   OH270018   6.530   0.261   3.329
16176TIP3    H170019   6.508   0.319   3.256
16176TIP3    H270020   6.517   0.315   3.407
16177TIP3   OH270021   1.334   5.648   4.034
16177TIP3    H170022   1.340   5.736   3.997
16177TIP3    H270023   1.415   5.637   4.083
16178TIP3   OH270024   3.905   2.194   4.876
16178TIP3    H170025   3.843   2.166   4.943
16178TIP3    H270026   3.891   2.133   4.803
16179TIP3   OH270027   0.817   4.282  10.964
16179TIP3    H170028   0.779   4.258  11.049
16179TIP3    H270029   0.836   4.198  10.922
16180TIP3   OH270030   3.645   1.227   1.811
16180TIP3    H170031   3.622   1.167   1.740
16180TIP3    H270032   3.563   1.269   1.835
16181TIP3   OH270033   4.012   0.621   3.051
16181TIP3    H170034   4.084   0.671   3.013
16181TIP3    H270035   4.027   0.626   3.146
16182TIP3   OH270036   0.399   4.635  11.708
16182TIP3    H170037   0.318   4.584  11.713
16182TIP3    H270038   0.426   4.645  11.800
16183TIP3   OH270039   0.374   1.968  14.856
16183TIP3    H170040   0.468   1.952  14.858
16183TIP3    H270041   0.343   1.943  14.943
16184TIP3   OH270042   2.690   3.496  14.134
16184TIP3    H170043   2.708   3.508  14.228
16184TIP3    H270044   2.602   3.529  14.122
16185TIP3   OH270045   0.837   2.919  14.681
16185TIP3    H170046   0.924   2.879  14.690
16185TIP3    H270047   0.776   2.845  14.685
16186TIP3   OH270048   1.014   3.926   4.053
16186TIP3    H170049   1.001   3.882   4.138
16186TIP3    H270050   1.078   3.995   4.071
16187TIP3   OH270051   6.629   1.178   4.792
16187TIP3    H170052   6.722   1.160   4.808
16187TIP3    H270053   6.584   1.141   4.868
16188TIP3   OH270054   4.436   1.789   0.323
16188TIP3    H170055   4.497   1.715   0.317
16188TIP3    H270056   4.405   1.802   0.233
16189TIP3   OH270057   0.835   2.930   3.748
16189TIP3    H170058   0.783   2.989   3.802
16189TIP3    H270059   0.846   2.976   3.665
16190TIP3   OH270060   2.297   1.715  13.321
16190TIP3    H170061   2.212   1.675  13.336
16190TIP3    H270062   2.286   1.766  13.240
16191TIP3   OH270063   2.680   2.173  16.429
16191TIP3    H170064   2.728   2.248  16.395
16191TIP3    H270065   2.713   2.163  16.519
16192TIP3   OH270066   2.398   3.963  16.515
16192TIP3    H170067   2.397   3.930  16.426
16192TIP3    H270068   2.327   4.028  16.518
16193TIP3   OH270069   2.653   4.026  16.433
16193TIP3    H170070   2.582   4.029  16.497
16193TIP3    H270071   2.645   3.939  16.392
16194TIP3   OH270072   1.198   5.122   2.138
16194TIP3    H170073   1.138   5.148   2.208
16194TIP3    H270074   1.205   5.027   2.146
16195TIP3   OH270075   4.857   0.493  14.897
16195TIP3    H170076   4.855   0.574  14.948
16195TIP3    H270077   4.795   0.507  14.827
16196TIP3   OH270078   2.172   0.929   5.111
16196TIP3    H170079   2.083   0.943   5.080
16196TIP3    H270080   2.213   0.876   5.043
16197TIP3   OH270081   4.668   0.593   3.964
16197TIP3    H170082   4.600   0.532   3.934
16197TIP3    H270083   4.728   0.539   4.016
16198TIP3   OH270084   1.938   1.143   3.906
16198TIP3    H170085   2.001   1.194   3.855
16198TIP3    H270086   1.866   1.126   3.845
16199TIP3   OH270087   1.727   1.593   2.339
16199TIP3    H170088   1.787   1.667   2.339
16199TIP3    H270089   1.658   1.616   2.277
16200TIP3   OH270090   2.342   4.649  12.072
16200TIP3    H170091   2.270   4.683  12.126
16200TIP3    H270092   2.315   4.560  12.050
16201TIP3   OH270093   1.831   0.552  15.320
16201TIP3    H170094   1.916   0.511  15.337
16201TIP3    H270095   1.766   0.488  15.350
16202TIP3   OH270096   2.915   0.422   0.505
16202TIP3    H170097   2.960   0.466   0.577
16202TIP3    H270098   2.924   0.481   0.431
16203TIP3   OH270099   0.763   1.805   1.948
16203TIP3    H170100   0.839   1.771   1.996
16203TIP3    H270101   0.745   1.738   1.882
16204TIP3   OH270102   4.055   4.553   1.398
16204TIP3    H170103   4.084   4.536   1.308
16204TIP3    H270104   3.969   4.511   1.404
16205TIP3   OH270105   5.828   1.044  12.826
16205TIP3    H170106   5.883   1.028  12.902
16205TIP3    H270107   5.760   0.976  12.831
16206TIP3   OH270108   1.868   6.300   6.621
16206TIP3    H170109   1.841   6.219   6.578
16206TIP3    H270110   1.787   6.348   6.636
16207TIP3   OH270111   0.661   4.457  12.851
16207TIP3    H170112   0.619   4.535  12.885
16207TIP3    H270113   0.682   4.478  12.760
16208TIP3   OH270114   0.034   0.802  14.226
16208TIP3    H170115   0.079   0.788  14.309
16208TIP3    H270116  -0.053   0.763  14.239
16209TIP3   OH270117   3.042   4.172   2.228
16209TIP3    H170118   2.960   4.197   2.270
16209TIP3    H270119   3.028   4.083   2.197
16210TIP3   OH270120   4.523   2.200   2.817
16210TIP3    H170121   4.586   2.271   2.801
16210TIP3    H270122   4.451   2.218   2.758
16211TIP3   OH270123   6.090   5.556   4.355
16211TIP3    H170124   6.136   5.496   4.297
16211TIP3    H270125   6.125   5.642   4.334
16212TIP3   OH270126   4.806   3.140  13.136
16212TIP3    H170127   4.730   3.196  13.119
16212TIP3    H270128   4.772   3.067  13.187
16213TIP3   OH270129   4.188   3.844  17.284
16213TIP3    H170130   4.104   3.858  17.241
16213TIP3    H270131   4.197   3.916  17.346
16214TIP3   OH270132   5.223   4.878  11.505
16214TIP3    H170133   5.151   4.906  11.448
16214TIP3    H270134   5.243   4.789  11.475
16215TIP3   OH270135   2.673   4.334  14.392
16215TIP3    H170136   2.712   4.267  14.335
16215TIP3    H270137   2.596   4.364  14.344
16216TIP3   OH270138   4.269   0.076  12.683
16216TIP3    H170139   4.291   0.120  12.765
16216TIP3    H270140   4.318   0.123  12.616
16217TIP3   OH270141   0.488   3.894   6.174
16217TIP3    H170142   0.417   3.832   6.160
16217TIP3    H270143   0.543   3.852   6.241
16218TIP3   OH270144   2.350   2.733  14.421
16218TIP3    H170145   2.410   2.699  14.487
16218TIP3    H270146   2.361   2.675  14.346
16219TIP3   OH270147   0.895   4.351   1.375
16219TIP3    H170148   0.898   4.387   1.286
16219TIP3    H270149   0.861   4.262   1.365
16220TIP3   OH270150   5.613   1.303  13.573
16220TIP3    H170151   5.644   1.390  13.596
16220TIP3    H270152   5.609   1.256  13.656
16221TIP3   OH270153   6.021   2.048  17.009
16221TIP3    H170154   5.977   2.131  16.991
16221TIP3    H270155   6.005   1.995  16.931
16222TIP3   OH270156   6.672   3.337  11.607
16222TIP3    H170157   6.704   3.339  11.517
16222TIP3    H270158   6.639   3.248  11.619
16223TIP3   OH270159   2.866   0.522   4.962
16223TIP3    H170160   2.921   0.537   4.886
16223TIP3    H270161   2.901   0.581   5.029
16224TIP3   OH270162   1.693   0.314  11.215
16224TIP3    H170163   1.746   0.237  11.195
16224TIP3    H270164   1.746   0.389  11.187
16225TIP3   OH270165   6.470   3.131  12.943
16225TIP3    H170166   6.406   3.170  12.884
16225TIP3    H270167   6.553   3.138  12.896
16226TIP3   OH270168   5.088   4.904  14.595
16226TIP3    H170169   5.166   4.912  14.539
16226TIP3    H270170   5.118   4.928  14.682
16227TIP3   OH270171   5.127   4.410  15.182
16227TIP3    H170172   5.208   4.363  15.165
16227TIP3    H270173   5.141   4.497  15.145
16228TIP3   OH270174   5.260   5.033   4.605
16228TIP3    H170175   5.179   5.045   4.655
16228TIP3    H270176   5.323   5.002   4.669
16229TIP3   OH270177   5.508   4.770  15.745
16229TIP3    H170178   5.600   4.746  15.736
16229TIP3    H270179   5.479   4.791  15.656
16230TIP3   OH270180   3.695   6.222  17.145
16230TIP3    H170181   3.671   6.144  17.095
16230TIP3    H270182   3.654   6.295  17.097
16231TIP3   OH270183   0.025   2.600   2.897
16231TIP3    H170184  -0.034   2.536   2.857
16231TIP3    H270185  -0.031   2.674   2.920
16232TIP3   OH270186   5.957   4.973   3.180
16232TIP3    H170187   6.025   4.907   3.169
16232TIP3    H270188   5.887   4.945   3.121
16233TIP3   OH270189   4.410   2.979  11.207
16233TIP3    H170190   4.473   3.042  11.171
16233TIP3    H270191   4.465   2.910  11.245
16234TIP3   OH270192   2.650   5.533   1.134
16234TIP3    H170193   2.647   5.474   1.059
16234TIP3    H270194   2.561   5.534   1.168
16235TIP3   OH270195   3.476   3.459  14.054
16235TIP3    H170196   3.572   3.460  14.058
16235TIP3    H270197   3.452   3.373  14.089
16236TIP3   OH270198   1.756   3.381   3.344
16236TIP3    H170199   1.734   3.384   3.437
16236TIP3    H270200   1.848   3.407   3.341
16237TIP3   OH270201   3.145   4.702   3.711
16237TIP3    H170202   3.230   4.702   3.666
16237TIP3    H270203   3.104   4.785   3.685
16238TIP3   OH270204   5.119   3.693   6.671
16238TIP3    H170205   5.040   3.689   6.617
16238TIP3    H270206   5.167   3.769   6.639
16239TIP3   OH270207   2.616   1.231  12.789
16239TIP3    H170208   2.569   1.314  12.795
16239TIP3    H270209   2.693   1.252  12.736
16240TIP3   OH270210   3.858   4.452   4.525
16240TIP3    H170211   3.924   4.388   4.499
16240TIP3    H270212   3.860   4.518   4.455
16241TIP3   OH270213   6.753   6.632  15.614
16241TIP3    H170214   6.690   6.642  15.543
16241TIP3    H270215   6.749   6.539  15.637
16242TIP3   OH270216   1.830   1.142   0.022
16242TIP3    H170217   1.828   1.114  -0.069
16242TIP3    H270218   1.923   1.147   0.044
16243TIP3   OH270219   2.016   5.620   3.224
16243TIP3    H170220   1.944   5.557   3.225
16243TIP3    H270221   1.997   5.677   3.149
16244TIP3   OH270222   6.109   2.479   3.893
16244TIP3    H170223   6.178   2.439   3.839
16244TIP3    H270224   6.157   2.532   3.957
16245TIP3   OH270225   2.995   2.200   5.138
16245TIP3    H170226   2.927   2.190   5.071
16245TIP3    H270227   2.981   2.287   5.174
16246TIP3   OH270228   5.305   5.050   5.435
16246TIP3    H170229   5.228   5.081   5.482
16246TIP3    H270230   5.305   5.100   5.353
16247TIP3   OH270231   4.097   2.272  12.938
16247TIP3    H170232   4.180   2.316  12.920
16247TIP3    H270233   4.031   2.341  12.929
16248TIP3   OH270234   5.585   1.132   5.199
16248TIP3    H170235   5.592   1.206   5.138
16248TIP3    H270236   5.629   1.162   5.278
16249TIP3   OH270237   2.717   0.466   1.897
16249TIP3    H170238   2.768   0.515   1.831
16249TIP3    H270239   2.692   0.385   1.852
16250TIP3   OH270240   5.318   1.252   0.751
16250TIP3    H170241   5.301   1.266   0.658
16250TIP3    H270242   5.237   1.279   0.795
16251TIP3   OH270243   2.367   5.112   3.357
16251TIP3    H170244   2.436   5.149   3.412
16251TIP3    H270245   2.311   5.064   3.417
16252TIP3   OH270246   5.613   1.045   3.353
16252TIP3    H170247   5.536   1.077   3.401
16252TIP3    H270248   5.578   1.012   3.270
16253TIP3   OH270249   3.986   3.497  15.793
16253TIP3    H170250   3.972   3.563  15.724
16253TIP3    H270251   3.920   3.517  15.859
16254TIP3   OH270252   2.530   2.161   4.749
16254TIP3    H170253   2.569   2.073   4.745
16254TIP3    H270254   2.490   2.166   4.836
16255TIP3   OH270255   5.447   4.622  14.660
16255TIP3    H170256   5.470   4.552  14.599
16255TIP3    H270257   5.497   4.603  14.739
16256TIP3   OH270258   4.354   1.652  11.938
16256TIP3    H170259   4.406   1.588  11.987
16256TIP3    H270260   4.278   1.603  11.909
16257TIP3   OH270261   6.097   1.531   1.726
16257TIP3    H170262   6.082   1.566   1.814
16257TIP3    H270263   6.090   1.436   1.737
16258TIP3   OH270264   5.593   0.543  15.143
16258TIP3    H170265   5.549   0.487  15.207
16258TIP3    H270266   5.611   0.486  15.069
16259TIP3   OH270267   4.367   2.771  11.497
16259TIP3    H170268   4.371   2.753  11.403
16259TIP3    H270269   4.430   2.710  11.536
16260TIP3   OH270270   3.905   6.077   4.914
16260TIP3    H170271   3.850   6.117   4.982
16260TIP3    H270272   3.897   5.983   4.930
16261TIP3   OH270273   0.596   0.628   3.120
16261TIP3    H170274   0.549   0.562   3.172
16261TIP3    H270275   0.623   0.581   3.041
16262TIP3   OH270276   5.978   6.454   5.453
16262TIP3    H170277   5.952   6.519   5.518
16262TIP3    H270278   5.938   6.373   5.483
16263TIP3   OH270279   1.418   3.920  16.913
16263TIP3    H170280   1.412   3.967  16.996
16263TIP3    H270281   1.397   3.829  16.935
16264TIP3   OH270282   5.730   5.973  14.712
16264TIP3    H170283   5.727   5.927  14.795
16264TIP3    H270284   5.668   6.045  14.721
16265TIP3   OH270285   6.773   2.249  16.532
16265TIP3    H170286   6.820   2.329  16.510
16265TIP3    H270287   6.714   2.236  16.458
16266TIP3   OH270288   0.585   5.677  13.239
16266TIP3    H170289   0.528   5.600  13.237
16266TIP3    H270290   0.565   5.724  13.158
16267TIP3   OH270291   5.441   1.793  16.049
16267TIP3    H170292   5.452   1.706  16.011
16267TIP3    H270293   5.514   1.803  16.110
16268TIP3   OH270294   6.610   0.306  15.077
16268TIP3    H170295   6.546   0.367  15.043
16268TIP3    H270296   6.671   0.361  15.127
16269TIP3   OH270297   3.314   2.567   2.759
16269TIP3    H170298   3.404   2.535   2.759
16269TIP3    H270299   3.266   2.500   2.710
16270TIP3   OH270300   2.233   3.941   5.124
16270TIP3    H170301   2.279   3.911   5.203
16270TIP3    H270302   2.278   3.896   5.052
16271TIP3   OH270303   1.194   3.320  11.377
16271TIP3    H170304   1.278   3.331  11.420
16271TIP3    H270305   1.213   3.268  11.299
16272TIP3   OH270306   5.256   4.585   5.281
16272TIP3    H170307   5.347   4.594   5.308
16272TIP3    H270308   5.210   4.653   5.329
16273TIP3   OH270309   0.070   1.721  15.981
16273TIP3    H170310  -0.020   1.697  15.960
16273TIP3    H270311   0.108   1.642  16.021
16274TIP3   OH270312   0.361   6.290  15.055
16274TIP3    H170313   0.399   6.372  15.025
16274TIP3    H270314   0.435   6.241  15.091
16275TIP3   OH270315   5.816   5.566   6.155
16275TIP3    H170316   5.764   5.629   6.105
16275TIP3    H270317   5.906   5.580   6.125
16276TIP3   OH270318   2.204   6.236   3.814
16276TIP3    H170319   2.248   6.236   3.899
16276TIP3    H270320   2.121   6.191   3.829
16277TIP3   OH270321   1.178   0.561   3.753
16277TIP3    H170322   1.229   0.508   3.814
16277TIP3    H270323   1.087   0.533   3.766
16278TIP3   OH270324   5.180   4.566   3.429
16278TIP3    H170325   5.117   4.559   3.502
16278TIP3    H270326   5.224   4.481   3.428
16279TIP3   OH270327   0.207   0.394   3.275
16279TIP3    H170328   0.240   0.343   3.202
16279TIP3    H270329   0.236   0.346   3.353
16280TIP3   OH270330   5.987   0.037   2.680
16280TIP3    H170331   6.016   0.081   2.600
16280TIP3    H270332   5.936  -0.038   2.648
16281TIP3   OH270333   5.159   2.376  13.039
16281TIP3    H170334   5.068   2.366  13.008
16281TIP3    H270335   5.209   2.392  12.959
16282TIP3   OH270336   0.784   0.626  10.924
16282TIP3    H170337   0.721   0.555  10.910
16282TIP3    H270338   0.823   0.607  11.009
16283TIP3   OH270339   5.511   4.489   6.256
16283TIP3    H170340   5.483   4.557   6.317
16283TIP3    H270341   5.429   4.444   6.232
16284TIP3   OH270342   4.659   0.490   0.874
16284TIP3    H170343   4.574   0.459   0.906
16284TIP3    H270344   4.645   0.583   0.857
16285TIP3   OH270345   2.295   2.859  13.632
16285TIP3    H170346   2.385   2.826  13.630
16285TIP3    H270347   2.302   2.944  13.677
16286TIP3   OH270348   3.472   2.378   2.011
16286TIP3    H170349   3.545   2.418   1.963
16286TIP3    H270350   3.412   2.451   2.027
16287TIP3   OH270351   2.613   2.735   4.082
16287TIP3    H170352   2.629   2.646   4.051
16287TIP3    H270353   2.590   2.725   4.174
16288TIP3   OH270354   0.451   5.046  15.893
16288TIP3    H170355   0.445   4.955  15.865
16288TIP3    H270356   0.379   5.057  15.955
16289TIP3   OH270357   1.307   3.754  16.314
16289TIP3    H170358   1.343   3.696  16.381
16289TIP3    H270359   1.219   3.775  16.345
16290TIP3   OH270360   1.581   5.035  12.799
16290TIP3    H170361   1.612   5.098  12.733
16290TIP3    H270362   1.626   4.953  12.776
16291TIP3   OH270363   3.595   6.754  17.156
16291TIP3    H170364   3.654   6.802  17.097
16291TIP3    H270365   3.650   6.731  17.231
16292TIP3   OH270366   2.761   5.190  11.130
16292TIP3    H170367   2.805   5.153  11.053
16292TIP3    H270368   2.668   5.187  11.107
16293TIP3   OH270369   3.938   1.237   3.480
16293TIP3    H170370   4.032   1.226   3.489
16293TIP3    H270371   3.929   1.317   3.428
16294TIP3   OH270372   4.423   5.136   0.346
16294TIP3    H170373   4.371   5.067   0.387
16294TIP3    H270374   4.472   5.175   0.419
16295TIP3   OH270375   3.119   3.651  10.245
16295TIP3    H170376   3.203   3.689  10.268
16295TIP3    H270377   3.088   3.611  10.326
16296TIP3   OH270378   1.829   1.765   5.925
16296TIP3    H170379   1.847   1.859   5.918
16296TIP3    H270380   1.733   1.760   5.926
16297TIP3   OH270381   3.636   5.764  14.697
16297TIP3    H170382   3.647   5.859  14.689
16297TIP3    H270383   3.647   5.731  14.608
16298TIP3   OH270384   3.548   6.787   2.264
16298TIP3    H170385   3.575   6.730   2.336
16298TIP3    H270386   3.561   6.734   2.185
16299TIP3   OH270387   0.310   5.074  14.027
16299TIP3    H170388   0.281   5.060  13.937
16299TIP3    H270389   0.370   5.148  14.022
16300TIP3   OH270390   3.276   6.812  14.801
16300TIP3    H170391   3.318   6.893  14.830
16300TIP3    H270392   3.284   6.752  14.876
16301TIP3   OH270393   3.534   1.564  15.213
16301TIP3    H170394   3.479   1.568  15.135
16301TIP3    H270395   3.505   1.637  15.266
16302TIP3   OH270396   5.730   5.374  12.039
16302TIP3    H170397   5.759   5.462  12.015
16302TIP3    H270398   5.641   5.385  12.072
16303TIP3   OH270399   2.378   0.590  14.197
16303TIP3    H170400   2.303   0.617  14.143
16303TIP3    H270401   2.437   0.546  14.136
16304TIP3   OH270402   5.572   0.062  15.243
16304TIP3    H170403   5.614   0.052  15.158
16304TIP3    H270404   5.568  -0.027  15.278
16305TIP3   OH270405   4.239   4.960   3.785
16305TIP3    H170406   4.246   4.865   3.771
16305TIP3    H270407   4.318   4.996   3.745
16306TIP3   OH270408   2.892   2.908  16.183
16306TIP3    H170409   2.797   2.910  16.172
16306TIP3    H270410   2.923   2.852  16.112
16307TIP3   OH270411   4.627   6.563   4.220
16307TIP3    H170412   4.655   6.635   4.276
16307TIP3    H270413   4.705   6.540   4.170
16308TIP3   OH270414   2.338   1.729   2.173
16308TIP3    H170415   2.323   1.700   2.263
16308TIP3    H270416   2.422   1.689   2.149
16309TIP3   OH270417   6.102   3.730  14.092
16309TIP3    H170418   6.064   3.655  14.047
16309TIP3    H270419   6.117   3.795  14.023
16310TIP3   OH270420   0.453   4.940   1.574
16310TIP3    H170421   0.404   5.010   1.618
16310TIP3    H270422   0.399   4.862   1.588
16311TIP3   OH270423   0.878   5.720  13.147
16311TIP3    H170424   0.865   5.651  13.213
16311TIP3    H270425   0.970   5.745  13.158
16312TIP3   OH270426   6.031   3.134   2.588
16312TIP3    H170427   5.967   3.162   2.653
16312TIP3    H270428   6.044   3.041   2.605
16313TIP3   OH270429   1.556   1.152  17.016
16313TIP3    H170430   1.631   1.123  16.965
16313TIP3    H270431   1.570   1.246  17.028
16314TIP3   OH270432   4.601   6.128   4.812
16314TIP3    H170433   4.521   6.077   4.801
16314TIP3    H270434   4.571   6.218   4.829
16315TIP3   OH270435   6.301   4.915  17.214
16315TIP3    H170436   6.318   4.997  17.262
16315TIP3    H270437   6.358   4.851  17.256
16316TIP3   OH270438   1.142   0.550  15.177
16316TIP3    H170439   1.070   0.587  15.126
16316TIP3    H270440   1.207   0.523  15.111
16317TIP3   OH270441   0.487   0.068   4.456
16317TIP3    H170442   0.518  -0.011   4.411
16317TIP3    H270443   0.546   0.078   4.530
16318TIP3   OH270444   1.654   3.108  16.904
16318TIP3    H170445   1.737   3.150  16.925
16318TIP3    H270446   1.620   3.158  16.829
16319TIP3   OH270447   2.153   5.338   4.591
16319TIP3    H170448   2.122   5.330   4.501
16319TIP3    H270449   2.202   5.420   4.593
16320TIP3   OH270450   3.404   4.043   1.522
16320TIP3    H170451   3.475   4.076   1.577
16320TIP3    H270452   3.349   3.993   1.582
16321TIP3   OH270453   3.850   3.678   5.402
16321TIP3    H170454   3.788   3.623   5.450
16321TIP3    H270455   3.920   3.618   5.376
16322TIP3   OH270456   3.317   2.789  14.586
16322TIP3    H170457   3.247   2.792  14.521
16322TIP3    H270458   3.295   2.858  14.648
16323TIP3   OH270459   2.794   3.310   2.389
16323TIP3    H170460   2.768   3.234   2.441
16323TIP3    H270461   2.847   3.274   2.318
16324TIP3   OH270462   2.388   0.090  11.966
16324TIP3    H170463   2.340   0.153  12.019
16324TIP3    H270464   2.373   0.117  11.876
16325TIP3   OH270465   5.276   5.087  16.599
16325TIP3    H170466   5.313   5.116  16.516
16325TIP3    H270467   5.186   5.063  16.578
16326TIP3   OH270468   1.654   2.422  11.694
16326TIP3    H170469   1.669   2.328  11.687
16326TIP3    H270470   1.560   2.433  11.678
16327TIP3   OH270471   5.270   3.218   4.167
16327TIP3    H170472   5.217   3.286   4.210
16327TIP3    H270473   5.337   3.195   4.232
16328TIP3   OH270474   5.094   5.275  13.817
16328TIP3    H170475   5.117   5.189  13.851
16328TIP3    H270476   5.177   5.324  13.817
16329TIP3   OH270477   2.040   5.203  16.600
16329TIP3    H170478   2.120   5.151  16.605
16329TIP3    H270479   2.015   5.216  16.692
16330TIP3   OH270480   3.028   5.776   2.203
16330TIP3    H170481   2.938   5.750   2.226
16330TIP3    H270482   3.033   5.759   2.109
16331TIP3   OH270483   1.867   5.361  15.273
16331TIP3    H170484   1.811   5.313  15.211
16331TIP3    H270485   1.956   5.343  15.244
16332TIP3   OH270486   4.723   3.267  10.910
16332TIP3    H170487   4.763   3.197  10.960
16332TIP3    H270488   4.772   3.346  10.935
16333TIP3   OH270489   1.027   6.127   3.096
16333TIP3    H170490   0.934   6.105   3.095
16333TIP3    H270491   1.055   6.120   3.005
16334TIP3   OH270492   5.777   0.163  13.329
16334TIP3    H170493   5.834   0.137  13.401
16334TIP3    H270494   5.813   0.245  13.298
16335TIP3   OH270495   2.322   3.568   3.438
16335TIP3    H170496   2.401   3.522   3.410
16335TIP3    H270497   2.292   3.613   3.359
16336TIP3   OH270498   1.762   1.598  14.824
16336TIP3    H170499   1.711   1.673  14.794
16336TIP3    H270500   1.713   1.522  14.794
16337TIP3   OH270501   0.065   1.311  14.067
16337TIP3    H170502   0.014   1.256  14.007
16337TIP3    H270503   0.064   1.264  14.150
16338TIP3   OH270504   4.931   6.263  12.959
16338TIP3    H170505   4.839   6.285  12.973
16338TIP3    H270506   4.974   6.347  12.946
16339TIP3   OH270507   1.926   5.280  13.710
16339TIP3    H170508   1.999   5.312  13.762
16339TIP3    H270509   1.887   5.211  13.763
16340TIP3   OH270510   3.459   1.657  13.530
16340TIP3    H170511   3.383   1.695  13.486
16340TIP3    H270512   3.423   1.603  13.600
16341TIP3   OH270513   4.561   5.185   0.594
16341TIP3    H170514   4.590   5.276   0.587
16341TIP3    H270515   4.506   5.183   0.672
16342TIP3   OH270516   5.859   0.846  15.227
16342TIP3    H170517   5.856   0.910  15.298
16342TIP3    H270518   5.863   0.761  15.271
16343TIP3   OH270519   6.471   5.993   2.339
16343TIP3    H170520   6.463   5.901   2.365
16343TIP3    H270521   6.482   5.989   2.244
16344TIP3   OH270522   0.332   3.352   3.480
16344TIP3    H170523   0.308   3.384   3.567
16344TIP3    H270524   0.425   3.370   3.473
16345TIP3   OH270525   3.992   3.511  11.396
16345TIP3    H170526   3.993   3.587  11.454
16345TIP3    H270527   3.901   3.480  11.399
16346TIP3   OH270528   0.952   0.787  15.207
16346TIP3    H170529   0.903   0.844  15.148
16346TIP3    H270530   0.889   0.764  15.275
16347TIP3   OH270531   1.748   1.317   4.145
16347TIP3    H170532   1.721   1.233   4.109
16347TIP3    H270533   1.816   1.349   4.086
16348TIP3   OH270534   3.681   0.669   0.918
16348TIP3    H170535   3.659   0.744   0.861
16348TIP3    H270536   3.758   0.630   0.876
16349TIP3   OH270537   1.737   6.054  16.643
16349TIP3    H170538   1.693   6.015  16.568
16349TIP3    H270539   1.678   6.039  16.717
16350TIP3   OH270540   5.656   3.546   6.321
16350TIP3    H170541   5.617   3.630   6.346
16350TIP3    H270542   5.663   3.550   6.226
16351TIP3   OH270543   1.593   1.949  13.203
16351TIP3    H170544   1.614   1.897  13.281
16351TIP3    H270545   1.677   1.982  13.173
16352TIP3   OH270546   6.525   0.136  16.344
16352TIP3    H170547   6.564   0.162  16.261
16352TIP3    H270548   6.472   0.059  16.322
16353TIP3   OH270549   1.050   2.849  17.031
16353TIP3    H170550   0.967   2.804  17.016
16353TIP3    H270551   1.094   2.795  17.098
16354TIP3   OH270552   6.256   1.296   4.451
16354TIP3    H170553   6.169   1.288   4.491
16354TIP3    H270554   6.245   1.261   4.363
16355TIP3   OH270555   0.097   4.886  14.116
16355TIP3    H170556   0.166   4.949  14.134
16355TIP3    H270557   0.110   4.817  14.181
16356TIP3   OH270558   6.272   3.687  15.022
16356TIP3    H170559   6.203   3.660  15.081
16356TIP3    H270560   6.334   3.613  15.022
16357TIP3   OH270561   5.674   5.231   6.722
16357TIP3    H170562   5.597   5.182   6.692
16357TIP3    H270563   5.705   5.182   6.798
16358TIP3   OH270564   1.399   4.364   2.160
16358TIP3    H170565   1.398   4.271   2.137
16358TIP3    H270566   1.372   4.409   2.079
16359TIP3   OH270567   5.623   1.420  15.359
16359TIP3    H170568   5.706   1.372  15.354
16359TIP3    H270569   5.646   1.510  15.337
16360TIP3   OH270570   4.179   2.182   3.486
16360TIP3    H170571   4.126   2.229   3.422
16360TIP3    H270572   4.250   2.242   3.508
16361TIP3   OH270573   0.452   4.254   6.964
16361TIP3    H170574   0.365   4.214   6.966
16361TIP3    H270575   0.442   4.336   7.013
16362TIP3   OH270576   3.288   1.913  13.880
16362TIP3    H170577   3.339   1.992  13.862
16362TIP3    H270578   3.351   1.841  13.875
16363TIP3   OH270579   6.119   2.230  12.953
16363TIP3    H170580   6.065   2.306  12.973
16363TIP3    H270581   6.194   2.237  13.013
16364TIP3   OH270582   5.125   3.683  11.215
16364TIP3    H170583   5.192   3.638  11.267
16364TIP3    H270584   5.173   3.716  11.138
16365TIP3   OH270585   5.334   3.960  11.579
16365TIP3    H170586   5.411   3.941  11.526
16365TIP3    H270587   5.342   4.054  11.599
16366TIP3   OH270588   1.133   3.208  16.763
16366TIP3    H170589   1.216   3.257  16.759
16366TIP3    H270590   1.128   3.164  16.678
16367TIP3   OH270591   6.286   5.936  13.369
16367TIP3    H170592   6.275   5.844  13.393
16367TIP3    H270593   6.278   5.938  13.274
16368TIP3   OH270594   5.677   4.155  14.564
16368TIP3    H170595   5.702   4.112  14.646
16368TIP3    H270596   5.674   4.085  14.500
16369TIP3   OH270597   0.414   1.866   3.603
16369TIP3    H170598   0.336   1.834   3.649
16369TIP3    H270599   0.392   1.861   3.510
16370TIP3   OH270600   0.644   4.531  14.902
16370TIP3    H170601   0.713   4.581  14.945
16370TIP3    H270602   0.577   4.518  14.969
16371TIP3   OH270603   5.314   4.145  14.450
16371TIP3    H170604   5.312   4.141  14.354
16371TIP3    H270605   5.228   4.111  14.476
16372TIP3   OH270606   0.532   2.214  14.131
16372TIP3    H170607   0.593   2.288  14.136
16372TIP3    H270608   0.514   2.191  14.222
16373TIP3   OH270609   1.423   5.889   3.941
16373TIP3    H170610   1.388   5.956   3.999
16373TIP3    H270611   1.446   5.936   3.860
16374TIP3   OH270612   4.397   3.554  12.244
16374TIP3    H170613   4.306   3.582  12.238
16374TIP3    H270614   4.404   3.480  12.183
16375TIP3   OH270615   5.203   3.382  13.173
16375TIP3    H170616   5.271   3.314  13.176
16375TIP3    H270617   5.129   3.339  13.130
16376TIP3   OH270618   5.251   2.169  10.923
16376TIP3    H170619   5.179   2.220  10.960
16376TIP3    H270620   5.330   2.214  10.952
16377TIP3   OH270621   5.970   4.183  13.455
16377TIP3    H170622   5.930   4.142  13.378
16377TIP3    H270623   6.060   4.151  13.455
16378TIP3   OH270624   2.020   3.508   6.549
16378TIP3    H170625   2.046   3.418   6.566
16378TIP3    H270626   2.091   3.545   6.497
16379TIP3   OH270627   2.573   3.393  11.750
16379TIP3    H170628   2.560   3.304  11.717
16379TIP3    H270629   2.487   3.419  11.784
16380TIP3   OH270630   5.082   4.314  16.637
16380TIP3    H170631   5.119   4.240  16.686
16380TIP3    H270632   5.101   4.295  16.546
16381TIP3   OH270633   2.837   6.141   3.298
16381TIP3    H170634   2.844   6.217   3.356
16381TIP3    H270635   2.926   6.106   3.295
16382TIP3   OH270636   3.763   1.657  11.465
16382TIP3    H170637   3.753   1.745  11.430
16382TIP3    H270638   3.691   1.647  11.528
16383TIP3   OH270639   3.807   4.783  16.000
16383TIP3    H170640   3.801   4.687  15.997
16383TIP3    H270641   3.849   4.802  16.084
16384TIP3   OH270642   1.186   1.310  15.418
16384TIP3    H170643   1.109   1.363  15.398
16384TIP3    H270644   1.227   1.295  15.333
16385TIP3   OH270645   6.179   6.490  16.095
16385TIP3    H170646   6.251   6.448  16.048
16385TIP3    H270647   6.216   6.512  16.181
16386TIP3   OH270648   2.318   3.603   2.471
16386TIP3    H170649   2.346   3.676   2.526
16386TIP3    H270650   2.366   3.528   2.507
16387TIP3   OH270651   3.080   3.458  10.428
16387TIP3    H170652   3.024   3.389  10.392
16387TIP3    H270653   3.055   3.464  10.520
16388TIP3   OH270654   1.887   6.126  13.617
16388TIP3    H170655   1.845   6.146  13.700
16388TIP3    H270656   1.980   6.117  13.638
16389TIP3   OH270657   1.125   2.582  12.037
16389TIP3    H170658   1.172   2.659  12.069
16389TIP3    H270659   1.178   2.549  11.964
16390TIP3   OH270660   3.652   6.465  16.146
16390TIP3    H170661   3.729   6.517  16.125
16390TIP3    H270662   3.588   6.527  16.181
16391TIP3   OH270663   5.855   1.179  13.942
16391TIP3    H170664   5.915   1.251  13.963
16391TIP3    H270665   5.870   1.114  14.010
16392TIP3   OH270666   6.122   6.161  13.802
16392TIP3    H170667   6.095   6.242  13.759
16392TIP3    H270668   6.115   6.180  13.895
16393TIP3   OH270669   3.838   6.473   3.584
16393TIP3    H170670   3.788   6.548   3.552
16393TIP3    H270671   3.894   6.448   3.511
16394TIP3   OH270672   5.381   6.020  12.676
16394TIP3    H170673   5.452   6.076  12.643
16394TIP3    H270674   5.363   5.959  12.604
16395TIP3   OH270675   3.744   6.071   0.791
16395TIP3    H170676   3.806   6.004   0.762
16395TIP3    H270677   3.658   6.031   0.776
16396TIP3   OH270678   6.278   6.355   2.400
16396TIP3    H170679   6.231   6.432   2.432
16396TIP3    H270680   6.313   6.313   2.479
16397TIP3   OH270681   2.196   3.300   1.692
16397TIP3    H170682   2.174   3.306   1.785
16397TIP3    H270683   2.283   3.260   1.691
16398TIP3   OH270684   6.311   6.059  13.638
16398TIP3    H170685   6.241   6.086  13.696
16398TIP3    H270686   6.267   6.038  13.555
16399TIP3   OH270687   2.403   2.532   6.069
16399TIP3    H170688   2.376   2.480   6.144
16399TIP3    H270689   2.484   2.575   6.096
16400TIP3   OH270690   2.969   6.014  11.323
16400TIP3    H170691   2.917   6.007  11.403
16400TIP3    H270692   3.005   6.103  11.326
16401TIP3   OH270693   3.855   2.214  16.237
16401TIP3    H170694   3.772   2.168  16.251
16401TIP3    H270695   3.846   2.296  16.286
16402TIP3   OH270696   3.104   0.249   0.360
16402TIP3    H170697   3.033   0.279   0.416
16402TIP3    H270698   3.061   0.210   0.284
16403TIP3   OH270699   0.141   0.009  15.625
16403TIP3    H170700   0.086   0.087  15.636
16403TIP3    H270701   0.083  -0.064  15.644
16404TIP3   OH270702   1.549   1.145  15.348
16404TIP3    H170703   1.599   1.091  15.287
16404TIP3    H270704   1.532   1.226  15.300
16405TIP3   OH270705   4.182   0.234  11.411
16405TIP3    H170706   4.252   0.169  11.412
16405TIP3    H270707   4.153   0.240  11.502
16406TIP3   OH270708   2.582   5.626  17.275
16406TIP3    H170709   2.595   5.691  17.206
16406TIP3    H270710   2.615   5.544  17.238
16407TIP3   OH270711   2.864   4.286   0.680
16407TIP3    H170712   2.916   4.293   0.760
16407TIP3    H270713   2.813   4.206   0.692
16408TIP3   OH270714   1.709   1.447  16.712
16408TIP3    H170715   1.625   1.481  16.741
16408TIP3    H270716   1.769   1.466  16.785
16409TIP3   OH270717   5.654   6.250  11.213
16409TIP3    H170718   5.711   6.179  11.241
16409TIP3    H270719   5.712   6.326  11.205
16410TIP3   OH270720   6.745   1.006  16.388
16410TIP3    H170721   6.791   0.926  16.363
16410TIP3    H270722   6.685   0.977  16.458
16411TIP3   OH270723   0.222   0.984   5.538
16411TIP3    H170724   0.282   0.960   5.609
16411TIP3    H270725   0.195   1.073   5.559
16412TIP3   OH270726   6.629   5.095   5.479
16412TIP3    H170727   6.536   5.107   5.496
16412TIP3    H270728   6.633   5.056   5.392
16413TIP3   OH270729   0.519   6.755   4.069
16413TIP3    H170730   0.429   6.786   4.076
16413TIP3    H270731   0.531   6.734   3.977
16414TIP3   OH270732   1.669   3.910   2.730
16414TIP3    H170733   1.682   3.842   2.665
16414TIP3    H270734   1.750   3.962   2.728
16415TIP3   OH270735   3.286   0.504  10.985
16415TIP3    H170736   3.293   0.482  10.892
16415TIP3    H270737   3.301   0.599  10.988
16416TIP3   OH270738   2.087   3.871  10.775
16416TIP3    H170739   2.140   3.802  10.734
16416TIP3    H270740   2.151   3.923  10.823
16417TIP3   OH270741   2.005   5.510  14.178
16417TIP3    H170742   2.071   5.454  14.138
16417TIP3    H270743   1.929   5.454  14.189
16418TIP3   OH270744   5.931   2.752  16.135
16418TIP3    H170745   6.022   2.726  16.125
16418TIP3    H270746   5.929   2.803  16.216
16419TIP3   OH270747   5.732   3.419  10.829
16419TIP3    H170748   5.771   3.332  10.837
16419TIP3    H270749   5.798   3.478  10.866
16420TIP3   OH270750   5.245   1.609   4.584
16420TIP3    H170751   5.252   1.681   4.521
16420TIP3    H270752   5.336   1.585   4.604
16421TIP3   OH270753   2.661   0.264  15.102
16421TIP3    H170754   2.571   0.293  15.084
16421TIP3    H270755   2.688   0.218  15.022
16422TIP3   OH270756   1.170   0.898   2.947
16422TIP3    H170757   1.121   0.973   2.914
16422TIP3    H270758   1.255   0.935   2.974
16423TIP3   OH270759   1.910   4.095   4.381
16423TIP3    H170760   1.886   4.002   4.378
16423TIP3    H270761   1.954   4.104   4.466
16424TIP3   OH270762   0.064   2.665   6.308
16424TIP3    H170763   0.135   2.712   6.351
16424TIP3    H270764  -0.015   2.710   6.337
16425TIP3   OH270765   5.445   6.361  14.250
16425TIP3    H170766   5.507   6.325  14.186
16425TIP3    H270767   5.483   6.339  14.335
16426TIP3   OH270768   3.229   2.262  16.217
16426TIP3    H170769   3.176   2.314  16.157
16426TIP3    H270770   3.310   2.245  16.168
16427TIP3   OH270771   4.874   3.421  13.741
16427TIP3    H170772   4.949   3.421  13.682
16427TIP3    H270773   4.816   3.489  13.707
16428TIP3   OH270774   0.037   6.066  15.755
16428TIP3    H170775   0.119   6.047  15.800
16428TIP3    H270776   0.063   6.097  15.668
16429TIP3   OH270777   3.052   2.100  14.234
16429TIP3    H170778   2.960   2.085  14.213
16429TIP3    H270779   3.093   2.014  14.226
16430TIP3   OH270780   2.258   4.314  10.785
16430TIP3    H170781   2.198   4.329  10.712
16430TIP3    H270782   2.303   4.398  10.797
16431TIP3   OH270783   2.735   3.825   4.359
16431TIP3    H170784   2.797   3.893   4.385
16431TIP3    H270785   2.702   3.853   4.274
16432TIP3   OH270786   2.233   5.697  11.676
16432TIP3    H170787   2.156   5.670  11.625
16432TIP3    H270788   2.274   5.615  11.702
16433TIP3   OH270789   0.589   2.689  16.146
16433TIP3    H170790   0.670   2.661  16.187
16433TIP3    H270791   0.553   2.610  16.106
16434TIP3   OH270792   1.640   2.256  14.502
16434TIP3    H170793   1.705   2.286  14.565
16434TIP3    H270794   1.594   2.185  14.547
16435TIP3   OH270795   1.700   0.368  14.406
16435TIP3    H170796   1.738   0.303  14.465
16435TIP3    H270797   1.770   0.388  14.344
16436TIP3   OH270798   6.456   5.853  16.575
16436TIP3    H170799   6.402   5.854  16.654
16436TIP3    H270800   6.481   5.944  16.561
16437TIP3   OH270801   2.949   4.766  13.426
16437TIP3    H170802   2.918   4.779  13.516
16437TIP3    H270803   2.950   4.854  13.388
16438TIP3   OH270804   6.014   2.046  11.866
16438TIP3    H170805   6.054   2.131  11.851
16438TIP3    H270806   5.926   2.054  11.830
16439TIP3   OH270807   1.028   4.780  13.932
16439TIP3    H170808   0.934   4.794  13.924
16439TIP3    H270809   1.062   4.861  13.970
16440TIP3   OH270810   6.703   5.978   0.993
16440TIP3    H170811   6.651   5.964   1.072
16440TIP3    H270812   6.716   6.073   0.989
16441TIP3   OH270813   6.178   6.631  11.098
16441TIP3    H170814   6.115   6.559  11.096
16441TIP3    H270815   6.213   6.635  11.009
16442TIP3   OH270816   5.156   6.456  15.582
16442TIP3    H170817   5.085   6.457  15.646
16442TIP3    H270818   5.125   6.396  15.513
16443TIP3   OH270819   3.025   1.258   3.107
16443TIP3    H170820   2.976   1.337   3.087
16443TIP3    H270821   3.049   1.222   3.022
16444TIP3   OH270822   0.377   4.910  13.216
16444TIP3    H170823   0.369   4.888  13.309
16444TIP3    H270824   0.460   4.959  13.211
16445TIP3   OH270825   3.058   6.518  14.878
16445TIP3    H170826   3.029   6.514  14.787
16445TIP3    H270827   2.993   6.572  14.922
16446TIP3   OH270828   0.108   0.480  12.088
16446TIP3    H170829   0.160   0.428  12.149
16446TIP3    H270830   0.099   0.565  12.131
16447TIP3   OH270831   1.861   6.322   1.618
16447TIP3    H170832   1.769   6.301   1.605
16447TIP3    H270833   1.884   6.278   1.701
16448TIP3   OH270834   2.384   1.496   1.743
16448TIP3    H170835   2.357   1.525   1.656
16448TIP3    H270836   2.416   1.575   1.786
16449TIP3   OH270837   6.322   6.722  11.826
16449TIP3    H170838   6.364   6.689  11.906
16449TIP3    H270839   6.228   6.712  11.843
16450TIP3   OH270840   1.330   2.593  14.811
16450TIP3    H170841   1.395   2.522  14.812
16450TIP3    H270842   1.373   2.666  14.854
16451TIP3   OH270843   2.249   6.697  16.281
16451TIP3    H170844   2.301   6.661  16.210
16451TIP3    H270845   2.304   6.685  16.359
16452TIP3   OH270846   5.013   2.989  10.551
16452TIP3    H170847   4.919   2.988  10.536
16452TIP3    H270848   5.034   2.899  10.579
16453TIP3   OH270849   3.178   1.880  15.257
16453TIP3    H170850   3.143   1.806  15.306
16453TIP3    H270851   3.220   1.936  15.322
16454TIP3   OH270852   2.034   3.006   0.180
16454TIP3    H170853   1.975   3.012   0.105
16454TIP3    H270854   2.071   2.918   0.175
16455TIP3   OH270855   0.211   3.371  13.506
16455TIP3    H170856   0.297   3.330  13.516
16455TIP3    H270857   0.207   3.436  13.577
16456TIP3   OH270858   2.566   0.001  13.062
16456TIP3    H170859   2.575  -0.022  12.970
16456TIP3    H270860   2.478   0.036  13.069
16457TIP3   OH270861   5.733   1.754   1.863
16457TIP3    H170862   5.677   1.812   1.914
16457TIP3    H270863   5.780   1.813   1.804
16458TIP3   OH270864   2.485   4.038   4.040
16458TIP3    H170865   2.397   4.045   4.076
16458TIP3    H270866   2.509   4.129   4.018
16459TIP3   OH270867   2.668   1.871  15.980
16459TIP3    H170868   2.721   1.839  15.907
16459TIP3    H270869   2.722   1.938  16.022
16460TIP3   OH270870   3.560   4.144  11.584
16460TIP3    H170871   3.487   4.097  11.625
16460TIP3    H270872   3.638   4.110  11.627
16461TIP3   OH270873   4.566   0.394   3.135
16461TIP3    H170874   4.649   0.353   3.108
16461TIP3    H270875   4.509   0.320   3.156
16462TIP3   OH270876   2.467   0.692  15.204
16462TIP3    H170877   2.393   0.741  15.169
16462TIP3    H270878   2.541   0.751  15.195
16463TIP3   OH270879   1.049   5.106  13.142
16463TIP3    H170880   1.058   5.076  13.232
16463TIP3    H270881   1.121   5.169  13.130
16464TIP3   OH270882   6.548   4.949  14.195
16464TIP3    H170883   6.457   4.959  14.225
16464TIP3    H270884   6.601   4.979  14.269
16465TIP3   OH270885   0.704   1.342   5.374
16465TIP3    H170886   0.624   1.379   5.411
16465TIP3    H270887   0.751   1.307   5.449
16466TIP3   OH270888   2.968   4.364   5.895
16466TIP3    H170889   2.969   4.431   5.963
16466TIP3    H270890   2.875   4.351   5.876
16467TIP3   OH270891   4.893   5.543   0.954
16467TIP3    H170892   4.818   5.584   0.998
16467TIP3    H270893   4.898   5.588   0.869
16468TIP3   OH270894   0.973   1.776  14.905
16468TIP3    H170895   0.980   1.734  14.819
16468TIP3    H270896   0.981   1.869  14.887
16469TIP3   OH270897   4.163   3.326  16.052
16469TIP3    H170898   4.158   3.303  15.959
16469TIP3    H270899   4.076   3.361  16.073
16470TIP3   OH270900   1.724   1.597   3.574
16470TIP3    H170901   1.817   1.597   3.593
16470TIP3    H270902   1.699   1.689   3.570
16471TIP3   OH270903   2.727   2.969  16.676
16471TIP3    H170904   2.801   3.008  16.630
16471TIP3    H270905   2.682   2.917  16.610
16472TIP3   OH270906   5.926   4.470   3.805
16472TIP3    H170907   5.831   4.478   3.797
16472TIP3    H270908   5.953   4.427   3.724
16473TIP3   OH270909   2.566   0.821  14.220
16473TIP3    H170910   2.607   0.816  14.306
16473TIP3    H270911   2.516   0.740  14.212
16474TIP3   OH270912   0.816   3.178  13.773
16474TIP3    H170913   0.731   3.183  13.729
16474TIP3    H270914   0.795   3.177  13.867
16475TIP3   OH270915   0.638   0.480   1.531
16475TIP3    H170916   0.634   0.574   1.546
16475TIP3    H270917   0.630   0.470   1.437
16476TIP3   OH270918   4.957   4.974   5.660
16476TIP3    H170919   4.995   5.037   5.598
16476TIP3    H270920   4.941   5.025   5.739
16477TIP3   OH270921   4.058   3.242   4.582
16477TIP3    H170922   4.065   3.190   4.662
16477TIP3    H270923   4.110   3.320   4.601
16478TIP3   OH270924   1.053   3.807  16.490
16478TIP3    H170925   1.123   3.860  16.529
16478TIP3    H270926   0.974   3.837  16.534
16479TIP3   OH270927   2.383   3.982   5.630
16479TIP3    H170928   2.343   3.914   5.575
16479TIP3    H270929   2.320   4.054   5.628
16480TIP3   OH270930   1.230   0.120  16.048
16480TIP3    H170931   1.259   0.084  16.132
16480TIP3    H270932   1.254   0.054  15.983
16481TIP3   OH270933   3.005   5.643  15.660
16481TIP3    H170934   2.976   5.647  15.752
16481TIP3    H270935   2.924   5.644  15.609
16482TIP3   OH270936   6.083   0.409  16.385
16482TIP3    H170937   6.153   0.376  16.329
16482TIP3    H270938   6.021   0.337  16.391
16483TIP3   OH270939   1.847   5.382   0.106
16483TIP3    H170940   1.786   5.433   0.052
16483TIP3    H270941   1.926   5.437   0.111
16484TIP3   OH270942   4.237   0.587   0.833
16484TIP3    H170943   4.210   0.539   0.754
16484TIP3    H270944   4.166   0.571   0.896
16485TIP3   OH270945   6.664   3.369   3.006
16485TIP3    H170946   6.757   3.361   2.983
16485TIP3    H270947   6.665   3.396   3.098
16486TIP3   OH270948   2.075   0.170   4.673
16486TIP3    H170949   1.982   0.190   4.662
16486TIP3    H270950   2.110   0.244   4.722
16487TIP3   OH270951   1.732   1.196   1.984
16487TIP3    H170952   1.800   1.206   1.918
16487TIP3    H270953   1.660   1.153   1.938
16488TIP3   OH270954   5.735   5.105   1.177
16488TIP3    H170955   5.640   5.109   1.172
16488TIP3    H270956   5.765   5.142   1.094
16489TIP3   OH270957   3.965   1.254   3.130
16489TIP3    H170958   4.057   1.247   3.104
16489TIP3    H270959   3.950   1.178   3.187
16490TIP3   OH270960   0.568   2.039   0.692
16490TIP3    H170961   0.561   2.110   0.629
16490TIP3    H270962   0.506   1.973   0.661
16491TIP3   OH270963   0.284   6.814  17.192
16491TIP3    H170964   0.299   6.720  17.184
16491TIP3    H270965   0.191   6.826  17.171
16492TIP3   OH270966   0.534   6.754  13.330
16492TIP3    H170967   0.474   6.818  13.293
16492TIP3    H270968   0.593   6.732  13.258
16493TIP3   OH270969   1.449   0.478  15.081
16493TIP3    H170970   1.464   0.424  15.159
16493TIP3    H270971   1.496   0.433  15.011
16494TIP3   OH270972   6.144   3.415   4.876
16494TIP3    H170973   6.147   3.485   4.812
16494TIP3    H270974   6.132   3.459   4.960
16495TIP3   OH270975   2.859   4.234   3.337
16495TIP3    H170976   2.852   4.230   3.432
16495TIP3    H270977   2.819   4.318   3.314
16496TIP3   OH270978   5.419   6.323   1.139
16496TIP3    H170979   5.450   6.299   1.227
16496TIP3    H270980   5.437   6.246   1.086
16497TIP3   OH270981   4.794   6.155   3.886
16497TIP3    H170982   4.866   6.146   3.949
16497TIP3    H270983   4.726   6.203   3.934
16498TIP3   OH270984   6.441   4.887  16.775
16498TIP3    H170985   6.405   4.966  16.735
16498TIP3    H270986   6.383   4.868  16.849
16499TIP3   OH270987   6.200   5.602  13.310
16499TIP3    H170988   6.154   5.525  13.276
16499TIP3    H270989   6.176   5.604  13.403
16500TIP3   OH270990   0.697   6.687   3.096
16500TIP3    H170991   0.742   6.615   3.052
16500TIP3    H270992   0.656   6.737   3.026
16501TIP3   OH270993   1.549   5.131   3.132
16501TIP3    H170994   1.564   5.193   3.203
16501TIP3    H270995   1.549   5.184   3.052
16502TIP3   OH270996   3.545   2.911  11.452
16502TIP3    H170997   3.503   2.932  11.368
16502TIP3    H270998   3.566   2.818  11.445
16503TIP3   OH270999   5.448   1.925   0.082
16503TIP3    H171000   5.471   1.949   0.172
16503TIP3    H271001   5.479   1.835   0.073
16504TIP3   OH271002   3.371   2.326  14.926
16504TIP3    H171003   3.343   2.281  14.846
16504TIP3    H271004   3.448   2.376  14.901
16505TIP3   OH271005   4.047   1.276  11.358
16505TIP3    H171006   4.074   1.367  11.369
16505TIP3    H271007   4.085   1.230  11.434
16506TIP3   OH271008   3.052   1.383  13.631
16506TIP3    H171009   2.957   1.381  13.624
16506TIP3    H271010   3.078   1.291  13.630
16507TIP3   OH271011   0.502   5.662  15.164
16507TIP3    H171012   0.570   5.724  15.193
16507TIP3    H271013   0.450   5.712  15.101
16508TIP3   OH271014   6.241   0.235   5.909
16508TIP3    H171015   6.185   0.160   5.890
16508TIP3    H271016   6.216   0.300   5.843
16509TIP3   OH271017   2.575   0.324  13.015
16509TIP3    H171018   2.654   0.340  12.962
16509TIP3    H271019   2.599   0.252  13.073
16510TIP3   OH271020   5.113   5.397  16.427
16510TIP3    H171021   5.079   5.347  16.502
16510TIP3    H271022   5.179   5.455  16.465
16511TIP3   OH271023   5.120   5.018  13.491
16511TIP3    H171024   5.071   5.081  13.544
16511TIP3    H271025   5.055   4.952  13.465
16512TIP3   OH271026   4.050   4.734   3.758
16512TIP3    H171027   3.996   4.683   3.818
16512TIP3    H271028   4.071   4.673   3.687
16513TIP3   OH271029   6.427   1.093  10.945
16513TIP3    H171030   6.373   1.051  10.878
16513TIP3    H271031   6.369   1.157  10.986
16514TIP3   OH271032   3.312   4.317   5.513
16514TIP3    H171033   3.231   4.364   5.492
16514TIP3    H271034   3.290   4.266   5.591
16515TIP3   OH271035   4.467   5.940  11.615
16515TIP3    H171036   4.396   5.972  11.671
16515TIP3    H271037   4.536   6.006  11.624
16516TIP3   OH271038   2.383   5.328  12.886
16516TIP3    H171039   2.385   5.271  12.963
16516TIP3    H271040   2.320   5.396  12.909
16517TIP3   OH271041   0.098   0.487  13.868
16517TIP3    H171042   0.178   0.480  13.920
16517TIP3    H271043   0.056   0.567  13.900
16518TIP3   OH271044   2.633   2.531   2.600
16518TIP3    H171045   2.614   2.524   2.694
16518TIP3    H271046   2.552   2.566   2.562
16519TIP3   OH271047   2.213   2.359  10.813
16519TIP3    H171048   2.145   2.356  10.746
16519TIP3    H271049   2.192   2.287  10.872
16520TIP3   OH271050   6.500   0.943  11.697
16520TIP3    H171051   6.465   1.012  11.753
16520TIP3    H271052   6.590   0.970  11.678
16521TIP3   OH271053   6.281   5.525  12.227
16521TIP3    H171054   6.320   5.603  12.188
16521TIP3    H271055   6.337   5.453  12.197
16522TIP3   OH271056   1.538   2.423   1.181
16522TIP3    H171057   1.587   2.344   1.157
16522TIP3    H271058   1.521   2.466   1.097
16523TIP3   OH271059   0.572   4.183  11.556
16523TIP3    H171060   0.510   4.221  11.493
16523TIP3    H271061   0.532   4.100  11.582
16524TIP3   OH271062   0.184   3.607  11.419
16524TIP3    H171063   0.117   3.675  11.411
16524TIP3    H271064   0.237   3.616  11.340
16525TIP3   OH271065   4.861   4.381  13.095
16525TIP3    H171066   4.789   4.319  13.088
16525TIP3    H271067   4.841   4.432  13.173
16526TIP3   OH271068   0.532   6.534   5.782
16526TIP3    H171069   0.487   6.607   5.824
16526TIP3    H271070   0.507   6.542   5.690
16527TIP3   OH271071   1.618   0.066   5.801
16527TIP3    H171072   1.676   0.123   5.751
16527TIP3    H271073   1.592   0.119   5.877
16528TIP3   OH271074   1.974   5.136  16.056
16528TIP3    H171075   1.918   5.203  16.017
16528TIP3    H271076   2.062   5.174  16.054
16529TIP3   OH271077   6.734   2.942  13.875
16529TIP3    H171078   6.707   2.990  13.953
16529TIP3    H271079   6.823   2.974  13.858
16530TIP3   OH271080   1.502   2.734   5.397
16530TIP3    H171081   1.539   2.711   5.312
16530TIP3    H271082   1.556   2.687   5.460
16531TIP3   OH271083   3.452   5.986   2.009
16531TIP3    H171084   3.461   5.904   2.058
16531TIP3    H271085   3.358   5.992   1.991
16532TIP3   OH271086   1.148   6.207  16.961
16532TIP3    H171087   1.105   6.155  17.029
16532TIP3    H271088   1.076   6.249  16.913
16533TIP3   OH271089   3.118   4.078   5.579
16533TIP3    H171090   3.191   4.026   5.546
16533TIP3    H271091   3.151   4.121   5.657
16534TIP3   OH271092   4.562   0.686   3.371
16534TIP3    H171093   4.550   0.670   3.278
16534TIP3    H271094   4.475   0.714   3.402
16535TIP3   OH271095   3.641   2.868   3.092
16535TIP3    H171096   3.727   2.908   3.099
16535TIP3    H271097   3.597   2.891   3.174
16536TIP3   OH271098   4.743   3.288  12.346
16536TIP3    H171099   4.799   3.230  12.295
16536TIP3    H271100   4.654   3.259  12.326
16537TIP3   OH271101   2.888   2.761  11.804
16537TIP3    H171102   2.806   2.711  11.809
16537TIP3    H271103   2.882   2.823  11.877
16538TIP3   OH271104   3.804   6.616   1.065
16538TIP3    H171105   3.788   6.576   1.150
16538TIP3    H271106   3.817   6.709   1.085
16539TIP3   OH271107   1.973   4.364   4.874
16539TIP3    H171108   1.891   4.319   4.853
16539TIP3    H271109   2.027   4.297   4.917
16540TIP3   OH271110   1.950   1.744   2.939
16540TIP3    H171111   2.001   1.822   2.917
16540TIP3    H271112   2.011   1.671   2.928
16541TIP3   OH271113   1.446   2.787   3.594
16541TIP3    H171114   1.482   2.705   3.627
16541TIP3    H271115   1.374   2.761   3.537
16542TIP3   OH271116   4.999   3.753   1.149
16542TIP3    H171117   4.944   3.763   1.227
16542TIP3    H271118   4.961   3.813   1.085
16543TIP3   OH271119   1.156   3.271  12.856
16543TIP3    H171120   1.169   3.364  12.877
16543TIP3    H271121   1.243   3.232  12.868
16544TIP3   OH271122   2.580   4.752  15.043
16544TIP3    H171123   2.485   4.747  15.054
16544TIP3    H271124   2.592   4.809  14.968
16545TIP3   OH271125   6.648   3.852   5.196
16545TIP3    H171126   6.719   3.789   5.185
16545TIP3    H271127   6.572   3.810   5.157
16546TIP3   OH271128   5.738   2.407   1.351
16546TIP3    H171129   5.646   2.419   1.329
16546TIP3    H271130   5.786   2.448   1.279
16547TIP3   OH271131   3.817   4.601   4.316
16547TIP3    H171132   3.906   4.623   4.289
16547TIP3    H271133   3.763   4.627   4.242
16548TIP3   OH271134   3.150   6.651  16.776
16548TIP3    H171135   3.228   6.609  16.740
16548TIP3    H271136   3.171   6.667  16.868
16549TIP3   OH271137   5.209   0.540  15.135
16549TIP3    H171138   5.217   0.477  15.064
16549TIP3    H271139   5.228   0.624  15.095
16550TIP3   OH271140   1.435   3.368  11.485
16550TIP3    H171141   1.478   3.452  11.499
16550TIP3    H271142   1.471   3.311  11.553
16551TIP3   OH271143   2.173   3.502   1.913
16551TIP3    H171144   2.229   3.542   1.846
16551TIP3    H271145   2.112   3.572   1.939
16552TIP3   OH271146   5.977   0.943   5.142
16552TIP3    H171147   6.001   1.034   5.159
16552TIP3    H271148   5.907   0.947   5.077
16553TIP3   OH271149   5.427   1.805   4.420
16553TIP3    H171150   5.428   1.892   4.460
16553TIP3    H271151   5.375   1.816   4.340
16554TIP3   OH271152   2.053   3.353   3.424
16554TIP3    H171153   2.140   3.331   3.456
16554TIP3    H271154   2.004   3.378   3.503
16555TIP3   OH271155   6.368   4.529  14.623
16555TIP3    H171156   6.386   4.462  14.688
16555TIP3    H271157   6.392   4.489  14.539
16556TIP3   OH271158   2.257   2.296  11.675
16556TIP3    H171159   2.297   2.209  11.669
16556TIP3    H271160   2.331   2.357  11.665
16557TIP3   OH271161   4.693   2.845   5.276
16557TIP3    H171162   4.604   2.876   5.256
16557TIP3    H271163   4.715   2.887   5.359
16558TIP3   OH271164   2.497   2.637   3.623
16558TIP3    H171165   2.568   2.581   3.657
16558TIP3    H271166   2.537   2.723   3.614
16559TIP3   OH271167   2.531   3.734  11.738
16559TIP3    H171168   2.595   3.704  11.803
16559TIP3    H271169   2.524   3.828  11.753
16560TIP3   OH271170   0.257   3.144  13.123
16560TIP3    H171171   0.293   3.102  13.045
16560TIP3    H271172   0.330   3.193  13.160
16561TIP3   OH271173   4.123   2.032  13.829
16561TIP3    H171174   4.188   2.010  13.763
16561TIP3    H271175   4.046   1.979  13.807
16562TIP3   OH271176   2.121   1.385  14.332
16562TIP3    H171177   2.213   1.390  14.308
16562TIP3    H271178   2.112   1.445  14.406
16563TIP3   OH271179   6.139   4.541  15.177
16563TIP3    H171180   6.219   4.496  15.203
16563TIP3    H271181   6.107   4.491  15.102
16564TIP3   OH271182   1.755   5.934   6.743
16564TIP3    H171183   1.757   5.957   6.836
16564TIP3    H271184   1.846   5.936   6.716
16565TIP3   OH271185   4.339   0.277  15.770
16565TIP3    H171186   4.248   0.251  15.755
16565TIP3    H271187   4.364   0.230  15.849
16566TIP3   OH271188   3.452   5.920  11.865
16566TIP3    H171189   3.498   5.836  11.863
16566TIP3    H271190   3.375   5.904  11.920
16567TIP3   OH271191   5.641   3.401  16.870
16567TIP3    H171192   5.720   3.400  16.817
16567TIP3    H271193   5.656   3.335  16.938
16568TIP3   OH271194   3.932   4.663  12.551
16568TIP3    H171195   3.996   4.685  12.618
16568TIP3    H271196   3.965   4.705  12.471
16569TIP3   OH271197   0.632   6.067  16.275
16569TIP3    H171198   0.545   6.105  16.274
16569TIP3    H271199   0.624   5.987  16.224
16570TIP3   OH271200   0.476   2.257   5.842
16570TIP3    H171201   0.471   2.351   5.861
16570TIP3    H271202   0.554   2.227   5.888
16571TIP3   OH271203   2.429   5.054  11.341
16571TIP3    H171204   2.457   4.964  11.323
16571TIP3    H271205   2.494   5.086  11.404
16572TIP3   OH271206   1.398   4.245  14.562
16572TIP3    H171207   1.308   4.224  14.587
16572TIP3    H271208   1.405   4.340  14.574
16573TIP3   OH271209   0.735   4.208   3.904
16573TIP3    H171210   0.796   4.280   3.910
16573TIP3    H271211   0.755   4.153   3.980
16574TIP3   OH271212   2.136   2.793   2.975
16574TIP3    H171213   2.079   2.864   3.002
16574TIP3    H271214   2.207   2.837   2.927
16575TIP3   OH271215   2.382   2.143  16.614
16575TIP3    H171216   2.412   2.053  16.599
16575TIP3    H271217   2.288   2.135  16.629
16576TIP3   OH271218   3.897   0.666  14.506
16576TIP3    H171219   3.894   0.584  14.555
16576TIP3    H271220   3.944   0.727  14.563
16577TIP3   OH271221   6.414   2.948   5.090
16577TIP3    H171222   6.444   3.008   5.022
16577TIP3    H271223   6.322   2.931   5.067
16578TIP3   OH271224   6.109   5.664  16.885
16578TIP3    H171225   6.191   5.712  16.896
16578TIP3    H271226   6.126   5.603  16.813
16579TIP3   OH271227   4.002   0.446  12.025
16579TIP3    H171228   4.057   0.509  12.072
16579TIP3    H271229   3.920   0.445  12.074
16580TIP3   OH271230   3.600   4.305   1.261
16580TIP3    H171231   3.615   4.212   1.278
16580TIP3    H271232   3.610   4.314   1.166
16581TIP3   OH271233   4.641   6.405  12.208
16581TIP3    H171234   4.634   6.476  12.144
16581TIP3    H271235   4.735   6.391  12.217
16582TIP3   OH271236   6.687   2.256   5.630
16582TIP3    H171237   6.751   2.267   5.560
16582TIP3    H271238   6.614   2.209   5.590
16583TIP3   OH271239   0.631   6.023  16.726
16583TIP3    H171240   0.694   6.023  16.798
16583TIP3    H271241   0.568   5.954  16.749
16584TIP3   OH271242   4.664   6.096  15.967
16584TIP3    H171243   4.661   6.007  15.931
16584TIP3    H271244   4.585   6.138  15.933
16585TIP3   OH271245   5.132   1.085  13.249
16585TIP3    H171246   5.122   1.094  13.154
16585TIP3    H271247   5.226   1.074  13.262
16586TIP3   OH271248   1.960   0.224   6.237
16586TIP3    H171249   1.937   0.316   6.221
16586TIP3    H271250   1.971   0.218   6.332
16587TIP3   OH271251   2.705   5.301   1.338
16587TIP3    H171252   2.682   5.387   1.302
16587TIP3    H271253   2.798   5.290   1.316
16588TIP3   OH271254   6.375   4.573   3.969
16588TIP3    H171255   6.378   4.481   3.992
16588TIP3    H271256   6.328   4.576   3.885
16589TIP3   OH271257   0.034   2.314  17.069
16589TIP3    H171258  -0.009   2.400  17.069
16589TIP3    H271259   0.117   2.330  17.025
16590TIP3   OH271260   3.537   5.616  11.849
16590TIP3    H171261   3.578   5.532  11.869
16590TIP3    H271262   3.445   5.595  11.835
16591TIP3   OH271263   1.227   2.602  15.491
16591TIP3    H171264   1.246   2.601  15.397
16591TIP3    H271265   1.146   2.552  15.499
16592TIP3   OH271266   6.046   2.860   1.292
16592TIP3    H171267   6.032   2.951   1.317
16592TIP3    H271268   6.141   2.847   1.298
16593TIP3   OH271269   4.654   0.641   4.811
16593TIP3    H171270   4.613   0.690   4.882
16593TIP3    H271271   4.588   0.579   4.783
16594TIP3   OH271272   5.258   4.975  15.900
16594TIP3    H171273   5.287   5.036  15.833
16594TIP3    H271274   5.209   4.907  15.853
16595TIP3   OH271275   3.388   4.205  11.359
16595TIP3    H171276   3.452   4.203  11.430
16595TIP3    H271277   3.307   4.234  11.401
16596TIP3   OH271278   6.146   5.727  12.564
16596TIP3    H171279   6.174   5.818  12.580
16596TIP3    H271280   6.220   5.674  12.593
16597TIP3   OH271281   5.267   3.974   3.813
16597TIP3    H171282   5.262   4.011   3.902
16597TIP3    H271283   5.176   3.950   3.793
16598TIP3   OH271284   0.199   4.100  15.858
16598TIP3    H171285   0.207   4.031  15.792
16598TIP3    H271286   0.174   4.053  15.938
16599TIP3   OH271287   0.471   2.651   1.532
16599TIP3    H171288   0.477   2.565   1.573
16599TIP3    H271289   0.418   2.636   1.454
16600TIP3   OH271290   3.161   2.461  15.371
16600TIP3    H171291   3.142   2.545  15.410
16600TIP3    H271292   3.242   2.475  15.322
16601TIP3   OH271293   1.120   1.999  15.240
16601TIP3    H171294   1.150   1.995  15.149
16601TIP3    H271295   1.046   1.939  15.243
16602TIP3   OH271296   1.151   3.116  14.143
16602TIP3    H171297   1.242   3.099  14.167
16602TIP3    H271298   1.154   3.201  14.098
16603TIP3   OH271299   6.049   0.140   1.527
16603TIP3    H171300   6.002   0.153   1.609
16603TIP3    H271301   6.115   0.073   1.548
16604TIP3   OH271302   0.895   1.086  15.855
16604TIP3    H171303   0.946   1.141  15.796
16604TIP3    H271304   0.918   0.996  15.833
16605TIP3   OH271305   4.694   3.248  11.895
16605TIP3    H171306   4.621   3.253  11.833
16605TIP3    H271307   4.654   3.216  11.976
16606TIP3   OH271308   4.742   5.945  11.386
16606TIP3    H171309   4.771   5.951  11.477
16606TIP3    H271310   4.823   5.936  11.336
16607TIP3   OH271311   5.666   4.282  15.675
16607TIP3    H171312   5.687   4.188  15.675
16607TIP3    H271313   5.616   4.295  15.595
16608TIP3   OH271314   4.742   1.300   4.957
16608TIP3    H171315   4.675   1.321   5.023
16608TIP3    H271316   4.693   1.285   4.877
16609TIP3   OH271317   4.241   6.158  15.421
16609TIP3    H171318   4.217   6.182  15.510
16609TIP3    H271319   4.164   6.114  15.386
16610TIP3   OH271320   3.127   0.981  14.928
16610TIP3    H171321   3.037   0.984  14.896
16610TIP3    H271322   3.164   0.902  14.890
16611TIP3   OH271323   3.157   2.351  12.272
16611TIP3    H171324   3.206   2.269  12.276
16611TIP3    H271325   3.218   2.417  12.305
16612TIP3   OH271326   3.486   2.235   2.710
16612TIP3    H171327   3.526   2.149   2.698
16612TIP3    H271328   3.559   2.294   2.724
16613TIP3   OH271329   6.790   3.301  15.316
16613TIP3    H171330   6.768   3.354  15.239
16613TIP3    H271331   6.707   3.264  15.344
16614TIP3   OH271332   2.535   4.332  17.242
16614TIP3    H171333   2.568   4.302  17.327
16614TIP3    H271334   2.581   4.414  17.225
16615TIP3   OH271335   5.979   3.064  13.349
16615TIP3    H171336   6.027   2.985  13.323
16615TIP3    H271337   6.025   3.136  13.307
16616TIP3   OH271338   0.342   2.296   5.082
16616TIP3    H171339   0.432   2.328   5.080
16616TIP3    H271340   0.348   2.205   5.056
16617TIP3   OH271341   3.273   1.293   0.733
16617TIP3    H171342   3.320   1.376   0.724
16617TIP3    H271343   3.228   1.299   0.817
16618TIP3   OH271344   6.137   0.282   2.910
16618TIP3    H171345   6.072   0.284   2.980
16618TIP3    H271346   6.151   0.189   2.892
16619TIP3   OH271347   1.838   2.337   0.740
16619TIP3    H171348   1.851   2.426   0.774
16619TIP3    H271349   1.823   2.284   0.818
16620TIP3   OH271350   0.649   2.893  14.421
16620TIP3    H171351   0.564   2.920  14.456
16620TIP3    H271352   0.713   2.945  14.471
16621TIP3   OH271353   0.198   1.290  12.153
16621TIP3    H171354   0.125   1.312  12.210
16621TIP3    H271355   0.250   1.370  12.146
16622TIP3   OH271356   2.140   0.078  12.212
16622TIP3    H171357   2.058   0.106  12.252
16622TIP3    H271358   2.164   0.149  12.153
16623TIP3   OH271359   1.789   0.339  17.148
16623TIP3    H171360   1.755   0.250  17.156
16623TIP3    H271361   1.742   0.388  17.216
16624TIP3   OH271362   3.337   1.520  12.871
16624TIP3    H171363   3.295   1.556  12.793
16624TIP3    H271364   3.265   1.502  12.931
16625TIP3   OH271365   3.435   6.764   3.993
16625TIP3    H171366   3.345   6.737   3.976
16625TIP3    H271367   3.488   6.710   3.934
16626TIP3   OH271368   0.005   4.968   1.159
16626TIP3    H171369  -0.069   5.027   1.142
16626TIP3    H271370  -0.035   4.883   1.175
16627TIP3   OH271371   3.383   3.521   3.630
16627TIP3    H171372   3.422   3.475   3.704
16627TIP3    H271373   3.290   3.498   3.634
16628TIP3   OH271374   2.826   6.374  17.220
16628TIP3    H171375   2.897   6.335  17.169
16628TIP3    H271376   2.830   6.468  17.198
16629TIP3   OH271377   6.300   6.124   3.681
16629TIP3    H171378   6.358   6.121   3.756
16629TIP3    H271379   6.358   6.127   3.605
16630TIP3   OH271380   5.265   5.031  15.320
16630TIP3    H171381   5.265   5.125  15.338
16630TIP3    H271382   5.176   5.003  15.341
16631TIP3   OH271383   6.092   3.978  17.140
16631TIP3    H171384   6.073   4.054  17.085
16631TIP3    H271385   6.041   3.992  17.219
16632TIP3   OH271386   1.726   3.577   4.422
16632TIP3    H171387   1.745   3.526   4.343
16632TIP3    H271388   1.739   3.515   4.494
16633TIP3   OH271389   4.152   3.330  10.662
16633TIP3    H171390   4.119   3.341  10.573
16633TIP3    H271391   4.086   3.372  10.718
16634TIP3   OH271392   1.078   5.441   1.161
16634TIP3    H171393   1.003   5.396   1.120
16634TIP3    H271394   1.136   5.461   1.088
16635TIP3   OH271395   6.123   6.148   1.248
16635TIP3    H171396   6.073   6.121   1.325
16635TIP3    H271397   6.056   6.175   1.184
16636TIP3   OH271398   1.433   5.427   6.055
16636TIP3    H171399   1.365   5.434   5.988
16636TIP3    H271400   1.387   5.441   6.137
16637TIP3   OH271401   3.534   6.201   4.757
16637TIP3    H171402   3.562   6.174   4.669
16637TIP3    H271403   3.608   6.253   4.790
16638TIP3   OH271404   3.934   5.750  11.696
16638TIP3    H171405   4.004   5.714  11.751
16638TIP3    H271406   3.915   5.836  11.734
16639TIP3   OH271407   2.410   5.871  11.193
16639TIP3    H171408   2.481   5.809  11.175
16639TIP3    H271409   2.444   5.927  11.262
16640TIP3   OH271410   2.510   6.555  16.720
16640TIP3    H171411   2.578   6.569  16.786
16640TIP3    H271412   2.548   6.492  16.659
16641TIP3   OH271413   2.724   5.922  15.775
16641TIP3    H171414   2.633   5.947  15.760
16641TIP3    H271415   2.763   5.921  15.687
16642TIP3   OH271416   4.268   2.542  13.466
16642TIP3    H171417   4.177   2.514  13.481
16642TIP3    H271418   4.267   2.585  13.381
16643TIP3   OH271419   4.559   3.700   4.521
16643TIP3    H171420   4.586   3.708   4.430
16643TIP3    H271421   4.494   3.630   4.521
16644TIP3   OH271422   5.892   1.555  16.618
16644TIP3    H171423   5.865   1.646  16.607
16644TIP3    H271424   5.979   1.561  16.659
16645TIP3   OH271425   1.851   0.810   2.618
16645TIP3    H171426   1.818   0.844   2.535
16645TIP3    H271427   1.858   0.887   2.674
16646TIP3   OH271428   0.518   5.717  13.503
16646TIP3    H171429   0.555   5.724  13.416
16646TIP3    H271430   0.429   5.684  13.489
16647TIP3   OH271431   4.626   3.521   0.217
16647TIP3    H171432   4.676   3.439   0.224
16647TIP3    H271433   4.541   3.494   0.183
16648TIP3   OH271434   0.638   6.198   3.327
16648TIP3    H171435   0.603   6.109   3.333
16648TIP3    H271436   0.624   6.223   3.235
16649TIP3   OH271437   0.839   6.265  16.311
16649TIP3    H171438   0.790   6.329  16.364
16649TIP3    H271439   0.777   6.193  16.299
16650TIP3   OH271440   0.392   2.820  14.936
16650TIP3    H171441   0.384   2.862  14.850
16650TIP3    H271442   0.425   2.732  14.916
16651TIP3   OH271443   5.343   1.087  13.063
16651TIP3    H171444   5.351   1.090  12.968
16651TIP3    H271445   5.339   1.179  13.090
16652TIP3   OH271446   5.533   5.113  14.255
16652TIP3    H171447   5.601   5.059  14.215
16652TIP3    H271448   5.465   5.051  14.281
16653TIP3   OH271449   1.634   4.732  11.717
16653TIP3    H171450   1.666   4.642  11.720
16653TIP3    H271451   1.692   4.777  11.656
16654TIP3   OH271452   3.841   4.585  11.887
16654TIP3    H171453   3.822   4.640  11.963
16654TIP3    H271454   3.758   4.581  11.839
16655TIP3   OH271455   0.605   5.551  16.938
16655TIP3    H171456   0.515   5.560  16.968
16655TIP3    H271457   0.600   5.490  16.864
16656TIP3   OH271458   5.711   1.646  15.215
16656TIP3    H171459   5.754   1.616  15.135
16656TIP3    H271460   5.690   1.738  15.199
16657TIP3   OH271461   6.084   3.010   2.987
16657TIP3    H171462   6.050   2.979   2.903
16657TIP3    H271463   6.133   3.089   2.966
16658TIP3   OH271464   0.494   3.469   0.135
16658TIP3    H171465   0.443   3.517   0.200
16658TIP3    H271466   0.446   3.387   0.123
16659TIP3   OH271467   1.104   5.215  15.688
16659TIP3    H171468   1.186   5.219  15.737
16659TIP3    H271469   1.126   5.251  15.601
16660TIP3   OH271470   1.797   4.762   3.761
16660TIP3    H171471   1.829   4.740   3.849
16660TIP3    H271472   1.766   4.679   3.726
16661TIP3   OH271473   5.503   4.765  14.131
16661TIP3    H171474   5.582   4.818  14.119
16661TIP3    H271475   5.535   4.675  14.130
16662TIP3   OH271476   1.534   0.511   3.020
16662TIP3    H171477   1.442   0.519   2.994
16662TIP3    H271478   1.558   0.422   2.996
16663TIP3   OH271479   5.372   0.942   1.229
16663TIP3    H171480   5.354   0.865   1.282
16663TIP3    H271481   5.320   0.929   1.149
16664TIP3   OH271482   6.498   0.598   4.270
16664TIP3    H171483   6.587   0.572   4.245
16664TIP3    H271484   6.449   0.596   4.188
16665TIP3   OH271485   1.401   0.825  16.632
16665TIP3    H171486   1.483   0.806  16.677
16665TIP3    H271487   1.415   0.912  16.593
16666TIP3   OH271488   0.969   2.603   4.479
16666TIP3    H171489   1.031   2.641   4.417
16666TIP3    H271490   0.982   2.652   4.560
16667TIP3   OH271491   5.577   1.369   4.073
16667TIP3    H171492   5.657   1.391   4.121
16667TIP3    H271493   5.507   1.412   4.123
16668TIP3   OH271494   2.975   2.302   3.137
16668TIP3    H171495   2.884   2.289   3.163
16668TIP3    H271496   2.981   2.260   3.051
16669TIP3   OH271497   5.511   0.944   3.105
16669TIP3    H171498   5.544   0.977   3.021
16669TIP3    H271499   5.568   0.871   3.126
16670TIP3   OH271500   1.374   2.822  12.832
16670TIP3    H171501   1.377   2.784  12.920
16670TIP3    H271502   1.316   2.762  12.784
16671TIP3   OH271503   5.153   6.207  16.213
16671TIP3    H171504   5.237   6.227  16.171
16671TIP3    H271505   5.088   6.249  16.157
16672TIP3   OH271506   5.060   0.057  11.959
16672TIP3    H171507   5.051   0.103  12.042
16672TIP3    H271508   5.154   0.061  11.940
16673TIP3   OH271509   6.637   2.747   6.402
16673TIP3    H171510   6.570   2.690   6.365
16673TIP3    H271511   6.606   2.767   6.490
16674TIP3   OH271512   0.048   2.146   3.071
16674TIP3    H171513   0.016   2.184   2.989
16674TIP3    H271514  -0.029   2.147   3.130
16675TIP3   OH271515   6.230   0.641  14.113
16675TIP3    H171516   6.175   0.564  14.127
16675TIP3    H271517   6.228   0.655  14.018
16676TIP3   OH271518   0.643   1.488  13.122
16676TIP3    H171519   0.596   1.447  13.195
16676TIP3    H271520   0.734   1.460  13.133
16677TIP3   OH271521   1.843   3.517   2.340
16677TIP3    H171522   1.772   3.457   2.321
16677TIP3    H271523   1.888   3.530   2.256
16678TIP3   OH271524   4.013   3.686   0.948
16678TIP3    H171525   4.001   3.736   1.029
16678TIP3    H271526   3.924   3.672   0.915
16679TIP3   OH271527   4.592   3.770  10.530
16679TIP3    H171528   4.687   3.785  10.529
16679TIP3    H271529   4.574   3.740  10.619
16680TIP3   OH271530   5.421   5.637   3.460
16680TIP3    H171531   5.435   5.644   3.554
16680TIP3    H271532   5.438   5.724   3.426
16681TIP3   OH271533   1.519   6.030   0.535
16681TIP3    H171534   1.520   6.110   0.483
16681TIP3    H271535   1.599   5.983   0.509
16682TIP3   OH271536   3.463   1.382  17.125
16682TIP3    H171537   3.550   1.402  17.159
16682TIP3    H271538   3.474   1.299  17.078
16683TIP3   OH271539   1.095   1.651  13.941
16683TIP3    H171540   1.085   1.588  13.869
16683TIP3    H271541   1.127   1.598  14.014
16684TIP3   OH271542   4.073   5.843   4.728
16684TIP3    H171543   4.168   5.839   4.735
16684TIP3    H271544   4.043   5.863   4.817
16685TIP3   OH271545   3.698   0.915   3.721
16685TIP3    H171546   3.640   0.911   3.645
16685TIP3    H271547   3.739   1.001   3.714
16686TIP3   OH271548   3.304   0.080  10.917
16686TIP3    H171549   3.218   0.121  10.926
16686TIP3    H271550   3.285  -0.011  10.894
16687TIP3   OH271551   6.788   2.015   4.716
16687TIP3    H171552   6.730   2.042   4.787
16687TIP3    H271553   6.827   2.097   4.685
16688TIP3   OH271554   1.740   1.858   4.590
16688TIP3    H171555   1.755   1.950   4.609
16688TIP3    H271556   1.822   1.815   4.615
16689TIP3   OH271557   4.991   3.509   3.859
16689TIP3    H171558   4.909   3.485   3.816
16689TIP3    H271559   5.037   3.427   3.871
16690TIP3   OH271560   1.994   2.332   1.310
16690TIP3    H171561   2.025   2.372   1.391
16690TIP3    H271562   1.915   2.382   1.287
16691TIP3   OH271563   0.833   4.608  14.307
16691TIP3    H171564   0.908   4.667  14.313
16691TIP3    H271565   0.786   4.638  14.229
16692TIP3   OH271566   2.056   3.300   6.227
16692TIP3    H171567   2.129   3.263   6.179
16692TIP3    H271568   2.082   3.294   6.319
16693TIP3   OH271569   0.645   3.514   6.186
16693TIP3    H171570   0.580   3.454   6.223
16693TIP3    H271571   0.729   3.481   6.218
16694TIP3   OH271572   6.755   4.287   2.625
16694TIP3    H171573   6.831   4.239   2.591
16694TIP3    H271574   6.685   4.221   2.629
16695TIP3   OH271575   6.560   0.106  17.284
16695TIP3    H171576   6.577   0.126  17.376
16695TIP3    H271577   6.559   0.010  17.280
16696TIP3   OH271578   3.288   2.172  13.373
16696TIP3    H171579   3.307   2.263  13.396
16696TIP3    H271580   3.192   2.167  13.376
16697TIP3   OH271581   0.073   4.382  13.482
16697TIP3    H171582   0.028   4.344  13.406
16697TIP3    H271583   0.008   4.380  13.552
16698TIP3   OH271584   6.222   4.733   0.258
16698TIP3    H171585   6.138   4.777   0.268
16698TIP3    H271586   6.286   4.794   0.295
16699TIP3   OH271587   3.374   2.343  10.369
16699TIP3    H171588   3.423   2.420  10.341
16699TIP3    H271589   3.284   2.361  10.341
16700TIP3   OH271590   4.046   1.966   4.414
16700TIP3    H171591   3.977   2.026   4.384
16700TIP3    H271592   4.041   1.892   4.354
16701TIP3   OH271593   2.248   2.017   3.940
16701TIP3    H171594   2.334   1.974   3.939
16701TIP3    H271595   2.268   2.110   3.952
16702TIP3   OH271596   6.492   4.919   2.477
16702TIP3    H171597   6.471   4.898   2.568
16702TIP3    H271598   6.484   4.836   2.431
16703TIP3   OH271599   2.201   2.162  15.698
16703TIP3    H171600   2.268   2.105  15.738
16703TIP3    H271601   2.233   2.178  15.610
16704TIP3   OH271602   3.197   6.745  12.215
16704TIP3    H171603   3.221   6.789  12.297
16704TIP3    H271604   3.177   6.655  12.242
16705TIP3   OH271605   5.261   6.101   4.614
16705TIP3    H171606   5.180   6.059   4.644
16705TIP3    H271607   5.325   6.082   4.682
16706TIP3   OH271608   2.569   1.461  15.561
16706TIP3    H171609   2.486   1.494  15.596
16706TIP3    H271610   2.560   1.366  15.564
16707TIP3   OH271611   3.672   5.083   6.422
16707TIP3    H171612   3.661   5.087   6.517
16707TIP3    H271613   3.624   5.004   6.396
16708TIP3   OH271614   2.535   2.570  13.430
16708TIP3    H171615   2.454   2.619  13.420
16708TIP3    H271616   2.581   2.581  13.347
16709TIP3   OH271617   6.727   0.797  14.821
16709TIP3    H171618   6.723   0.892  14.831
16709TIP3    H271619   6.820   0.778  14.811
16710TIP3   OH271620   0.945   1.848  17.130
16710TIP3    H171621   0.898   1.786  17.186
16710TIP3    H271622   1.030   1.806  17.114
16711TIP3   OH271623   0.249   1.262   3.589
16711TIP3    H171624   0.332   1.267   3.636
16711TIP3    H271625   0.261   1.192   3.525
16712TIP3   OH271626   0.277   4.081  16.806
16712TIP3    H171627   0.248   4.014  16.744
16712TIP3    H271628   0.231   4.059  16.887
16713TIP3   OH271629   1.824   3.846   4.414
16713TIP3    H171630   1.775   3.819   4.337
16713TIP3    H271631   1.879   3.771   4.435
16714TIP3   OH271632   6.472   3.033  14.477
16714TIP3    H171633   6.479   3.129  14.475
16714TIP3    H271634   6.517   3.008  14.558
16715TIP3   OH271635   0.418   2.824  11.354
16715TIP3    H171636   0.502   2.816  11.308
16715TIP3    H271637   0.437   2.880  11.429
16716TIP3   OH271638   1.167   0.806   1.490
16716TIP3    H171639   1.108   0.814   1.414
16716TIP3    H271640   1.122   0.746   1.549
16717TIP3   OH271641   2.288   5.847   1.607
16717TIP3    H171642   2.219   5.913   1.614
16717TIP3    H271643   2.366   5.890   1.642
16718TIP3   OH271644   2.207   6.502   5.114
16718TIP3    H171645   2.206   6.503   5.018
16718TIP3    H271646   2.122   6.467   5.138
16719TIP3   OH271647   2.075   1.185   3.625
16719TIP3    H171648   2.167   1.199   3.646
16719TIP3    H271649   2.040   1.272   3.608
16720TIP3   OH271650   2.157   1.377   4.668
16720TIP3    H171651   2.125   1.456   4.623
16720TIP3    H271652   2.120   1.305   4.617
16721TIP3   OH271653   2.935   1.140  15.156
16721TIP3    H171654   3.024   1.105  15.156
16721TIP3    H271655   2.946   1.235  15.150
16722TIP3   OH271656   3.463   1.761  15.393
16722TIP3    H171657   3.404   1.784  15.465
16722TIP3    H271658   3.539   1.818  15.405
16723TIP3   OH271659   3.305   2.171   5.398
16723TIP3    H171660   3.263   2.107   5.456
16723TIP3    H271661   3.274   2.148   5.310
16724TIP3   OH271662   4.992   4.292  16.137
16724TIP3    H171663   5.073   4.267  16.092
16724TIP3    H271664   4.923   4.249  16.086
16725TIP3   OH271665   3.615   3.787  17.084
16725TIP3    H171666   3.552   3.806  17.153
16725TIP3    H271667   3.690   3.749  17.130
16726TIP3   OH271668   5.735   1.794  13.869
16726TIP3    H171669   5.712   1.815  13.779
16726TIP3    H271670   5.705   1.704  13.882
16727TIP3   OH271671   1.885   1.410   1.283
16727TIP3    H171672   1.901   1.320   1.309
16727TIP3    H271673   1.965   1.457   1.304
16728TIP3   OH271674   5.113   4.331  13.479
16728TIP3    H171675   5.198   4.289  13.495
16728TIP3    H271676   5.079   4.288  13.401
16729TIP3   OH271677   0.000   6.236   1.172
16729TIP3    H171678   0.036   6.223   1.084
16729TIP3    H271679   0.027   6.325   1.195
16730TIP3   OH271680   4.462   3.623   0.844
16730TIP3    H171681   4.396   3.592   0.782
16730TIP3    H271682   4.417   3.624   0.928
16731TIP3   OH271683   0.221   6.086  14.904
16731TIP3    H171684   0.176   6.130  14.977
16731TIP3    H271685   0.298   6.141  14.887
16732TIP3   OH271686   2.698   5.967   0.411
16732TIP3    H171687   2.624   6.027   0.402
16732TIP3    H271688   2.684   5.902   0.341
16733TIP3   OH271689   0.575   6.706  11.645
16733TIP3    H171690   0.527   6.634  11.605
16733TIP3    H271691   0.650   6.720  11.586
16734TIP3   OH271692   3.794   0.028  12.866
16734TIP3    H171693   3.875  -0.008  12.902
16734TIP3    H271694   3.726   0.001  12.928
16735TIP3   OH271695   1.004   5.059  15.167
16735TIP3    H171696   0.960   4.986  15.211
16735TIP3    H271697   0.943   5.132  15.175
16736TIP3   OH271698   3.542   1.439   3.745
16736TIP3    H171699   3.542   1.519   3.692
16736TIP3    H271700   3.515   1.468   3.832
16737TIP3   OH271701   2.892   6.465   0.415
16737TIP3    H171702   2.934   6.379   0.411
16737TIP3    H271703   2.814   6.456   0.360
16738TIP3   OH271704   5.193   1.189   0.241
16738TIP3    H171705   5.150   1.274   0.247
16738TIP3    H271706   5.205   1.175   0.147
16739TIP3   OH271707   0.965   2.604   0.792
16739TIP3    H171708   0.959   2.569   0.881
16739TIP3    H271709   0.892   2.666   0.786
16740TIP3   OH271710   0.116   4.696  12.951
16740TIP3    H171711   0.142   4.780  12.914
16740TIP3    H271712   0.109   4.638  12.875
16741TIP3   OH271713   4.148   3.686  14.362
16741TIP3    H171714   4.192   3.601  14.365
16741TIP3    H271715   4.105   3.693  14.448
16742TIP3   OH271716   4.040   6.110   0.289
16742TIP3    H171717   3.999   6.186   0.329
16742TIP3    H271718   4.125   6.142   0.259
16743TIP3   OH271719   2.609   4.541  10.985
16743TIP3    H171720   2.561   4.474  11.034
16743TIP3    H271721   2.572   4.624  11.015
16744TIP3   OH271722   3.731   3.752   0.897
16744TIP3    H171723   3.642   3.780   0.877
16744TIP3    H271724   3.786   3.823   0.863
16745TIP3   OH271725   2.429   1.473  14.013
16745TIP3    H171726   2.510   1.481  13.963
16745TIP3    H271727   2.365   1.527  13.966
16746TIP3   OH271728   3.230   0.777  14.804
16746TIP3    H171729   3.322   0.791  14.785
16746TIP3    H271730   3.186   0.789  14.720
16747TIP3   OH271731   5.564   6.287   3.520
16747TIP3    H171732   5.519   6.366   3.549
16747TIP3    H271733   5.584   6.239   3.601
16748TIP3   OH271734   4.240   6.467   5.540
16748TIP3    H171735   4.302   6.408   5.582
16748TIP3    H271736   4.238   6.544   5.598
16749TIP3   OH271737   1.881   2.829   2.419
16749TIP3    H171738   1.838   2.907   2.384
16749TIP3    H271739   1.967   2.860   2.447
16750TIP3   OH271740   5.437   4.523  15.800
16750TIP3    H171741   5.452   4.614  15.775
16750TIP3    H271742   5.465   4.472  15.724
16751TIP3   OH271743   3.686   3.542  12.275
16751TIP3    H171744   3.610   3.554  12.333
16751TIP3    H271745   3.756   3.516  12.334
16752TIP3   OH271746   5.945   2.965  10.724
16752TIP3    H171747   5.868   2.908  10.721
16752TIP3    H271748   6.010   2.915  10.773
16753TIP3   OH271749   6.706   1.084  15.702
16753TIP3    H171750   6.622   1.082  15.748
16753TIP3    H271751   6.704   1.165  15.652
16754TIP3   OH271752   2.362   0.192   0.342
16754TIP3    H171753   2.413   0.113   0.359
16754TIP3    H271754   2.384   0.216   0.252
16755TIP3   OH271755   5.427   2.139  12.481
16755TIP3    H171756   5.478   2.148  12.400
16755TIP3    H271757   5.339   2.168  12.457
16756TIP3   OH271758   0.894   0.440  11.498
16756TIP3    H171759   0.876   0.348  11.517
16756TIP3    H271760   0.984   0.454  11.528
16757TIP3   OH271761   4.863   3.644  14.968
16757TIP3    H171762   4.840   3.551  14.961
16757TIP3    H271763   4.785   3.690  14.939
16758TIP3   OH271764   1.821   1.290   2.811
16758TIP3    H171765   1.830   1.353   2.739
16758TIP3    H271766   1.730   1.300   2.840
16759TIP3   OH271767   0.984   4.557   6.093
16759TIP3    H171768   1.075   4.528   6.098
16759TIP3    H271769   0.960   4.577   6.184
16760TIP3   OH271770   1.712   0.688  14.080
16760TIP3    H171771   1.768   0.720  14.151
16760TIP3    H271772   1.697   0.765  14.025
16761TIP3   OH271773   0.634   2.729  13.617
16761TIP3    H171774   0.724   2.709  13.591
16761TIP3    H271775   0.613   2.665  13.685
16762TIP3   OH271776   2.413   3.572  14.557
16762TIP3    H171777   2.492   3.585  14.610
16762TIP3    H271778   2.384   3.660  14.534
16763TIP3   OH271779   4.764   2.956  10.657
16763TIP3    H171780   4.747   2.868  10.692
16763TIP3    H271781   4.752   3.014  10.732
16764TIP3   OH271782   5.639   6.663   1.469
16764TIP3    H171783   5.719   6.627   1.508
16764TIP3    H271784   5.665   6.686   1.380
16765TIP3   OH271785   5.264   3.558  15.374
16765TIP3    H171786   5.305   3.631  15.328
16765TIP3    H271787   5.321   3.483  15.356
16766TIP3   OH271788   0.339   6.300   6.074
16766TIP3    H171789   0.275   6.230   6.061
16766TIP3    H271790   0.416   6.257   6.110
16767TIP3   OH271791   4.815   0.728   6.439
16767TIP3    H171792   4.877   0.687   6.499
16767TIP3    H271793   4.862   0.802   6.402
16768TIP3   OH271794   1.988   5.893   2.814
16768TIP3    H171795   1.976   5.933   2.728
16768TIP3    H271796   1.900   5.866   2.840
16769TIP3   OH271797   3.130   6.067  13.526
16769TIP3    H171798   3.106   6.156  13.552
16769TIP3    H271799   3.136   6.071  13.430
16770TIP3   OH271800   2.525   1.976  13.525
16770TIP3    H171801   2.483   2.057  13.555
16770TIP3    H271802   2.523   1.983  13.429
16771TIP3   OH271803   6.794   2.228   1.141
16771TIP3    H171804   6.797   2.184   1.226
16771TIP3    H271805   6.719   2.189   1.096
16772TIP3   OH271806   2.887   4.069   4.796
16772TIP3    H171807   2.947   4.003   4.761
16772TIP3    H271808   2.896   4.144   4.737
16773TIP3   OH271809   3.749   0.301  15.480
16773TIP3    H171810   3.817   0.330  15.419
16773TIP3    H271811   3.786   0.223  15.521
16774TIP3   OH271812   2.875   2.943  15.125
16774TIP3    H171813   2.789   2.978  15.149
16774TIP3    H271814   2.919   2.929  15.209
16775TIP3   OH271815   1.445   5.536  15.375
16775TIP3    H171816   1.520   5.479  15.393
16775TIP3    H271817   1.399   5.492  15.304
16776TIP3   OH271818   3.512   2.673  14.748
16776TIP3    H171819   3.439   2.700  14.693
16776TIP3    H271820   3.590   2.688  14.694
16777TIP3   OH271821   2.517   0.440  15.314
16777TIP3    H171822   2.482   0.515  15.267
16777TIP3    H271823   2.572   0.395  15.250
16778TIP3   OH271824   1.801   0.341   4.910
16778TIP3    H171825   1.804   0.362   5.003
16778TIP3    H271826   1.834   0.252   4.904
16779TIP3   OH271827   2.362   2.659  11.293
16779TIP3    H171828   2.448   2.636  11.257
16779TIP3    H271829   2.316   2.701  11.221
16780TIP3   OH271830   0.017   3.649   5.197
16780TIP3    H171831   0.036   3.634   5.105
16780TIP3    H271832   0.084   3.599   5.244
16781TIP3   OH271833   4.087   4.889   1.023
16781TIP3    H171834   4.155   4.922   1.081
16781TIP3    H271835   4.005   4.907   1.069
16782TIP3   OH271836   1.016   3.262   4.338
16782TIP3    H171837   0.948   3.288   4.400
16782TIP3    H271838   1.022   3.335   4.276
16783TIP3   OH271839   3.890   6.448  13.332
16783TIP3    H171840   3.954   6.519  13.336
16783TIP3    H271841   3.918   6.395  13.257
16784TIP3   OH271842   2.663   0.133   2.289
16784TIP3    H171843   2.670   0.076   2.365
16784TIP3    H271844   2.753   0.159   2.270
16785TIP3   OH271845   5.660   5.029   5.456
16785TIP3    H171846   5.604   5.101   5.426
16785TIP3    H271847   5.632   5.012   5.546
16786TIP3   OH271848   3.772   5.700  12.052
16786TIP3    H171849   3.718   5.690  12.131
16786TIP3    H271850   3.709   5.721  11.983
16787TIP3   OH271851   5.124   2.405   6.220
16787TIP3    H171852   5.192   2.341   6.201
16787TIP3    H271853   5.160   2.488   6.192
16788TIP3   OH271854   3.557   3.429   3.360
16788TIP3    H171855   3.602   3.357   3.405
16788TIP3    H271856   3.464   3.408   3.369
16789TIP3   OH271857   1.514   5.173   6.060
16789TIP3    H171858   1.489   5.265   6.047
16789TIP3    H271859   1.536   5.167   6.153
16790TIP3   OH271860   2.100   2.302   4.250
16790TIP3    H171861   2.074   2.246   4.322
16790TIP3    H271862   2.081   2.251   4.171
16791TIP3   OH271863   0.502   3.008   0.741
16791TIP3    H171864   0.526   2.945   0.674
16791TIP3    H271865   0.578   3.066   0.748
16792TIP3   OH271866   5.585   3.784  16.125
16792TIP3    H171867   5.661   3.769  16.070
16792TIP3    H271868   5.610   3.856  16.182
16793TIP3   OH271869   6.593   5.850   3.294
16793TIP3    H171870   6.640   5.924   3.256
16793TIP3    H271871   6.535   5.820   3.224
16794TIP3   OH271872   3.273   6.487   6.130
16794TIP3    H171873   3.360   6.513   6.160
16794TIP3    H271874   3.216   6.560   6.157
16795TIP3   OH271875   4.342   3.226   5.753
16795TIP3    H171876   4.412   3.248   5.814
16795TIP3    H271877   4.369   3.143   5.714
16796TIP3   OH271878   4.840   4.993   1.915
16796TIP3    H171879   4.790   5.062   1.960
16796TIP3    H271880   4.805   4.911   1.950
16797TIP3   OH271881   0.212   2.435   3.466
16797TIP3    H171882   0.292   2.386   3.445
16797TIP3    H271883   0.243   2.523   3.489
16798TIP3   OH271884   4.468   5.618   6.135
16798TIP3    H171885   4.498   5.624   6.226
16798TIP3    H271886   4.415   5.539   6.133
16799TIP3   OH271887   4.905   0.844  16.741
16799TIP3    H171888   4.895   0.791  16.820
16799TIP3    H271889   4.919   0.780  16.671
16800TIP3   OH271890   0.878   0.053   4.300
16800TIP3    H171891   0.955   0.069   4.355
16800TIP3    H271892   0.858   0.138   4.261
16801TIP3   OH271893   6.482   5.391  11.818
16801TIP3    H171894   6.561   5.412  11.868
16801TIP3    H271895   6.444   5.477  11.797
16802TIP3   OH271896   5.761   4.704   5.627
16802TIP3    H171897   5.694   4.765   5.659
16802TIP3    H271898   5.747   4.701   5.532
16803TIP3   OH271899   5.409   0.647   2.482
16803TIP3    H171900   5.367   0.637   2.396
16803TIP3    H271901   5.420   0.742   2.492
16804TIP3   OH271902   3.310   6.133  14.121
16804TIP3    H171903   3.362   6.123  14.041
16804TIP3    H271904   3.228   6.087  14.101
16805TIP3   OH271905   6.568   5.046   4.638
16805TIP3    H171906   6.634   4.984   4.607
16805TIP3    H271907   6.526   5.078   4.559
16806TIP3   OH271908   3.735   6.377   4.845
16806TIP3    H171909   3.799   6.350   4.912
16806TIP3    H271910   3.684   6.447   4.888
16807TIP3   OH271911   0.484   3.203  14.743
16807TIP3    H171912   0.505   3.176  14.833
16807TIP3    H271913   0.533   3.284  14.731
16808TIP3   OH271914   1.650   6.478  12.069
16808TIP3    H171915   1.730   6.500  12.022
16808TIP3    H271916   1.674   6.403  12.124
16809TIP3   OH271917   1.699   6.202  11.509
16809TIP3    H171918   1.696   6.153  11.427
16809TIP3    H271919   1.748   6.146  11.569
16810TIP3   OH271920   3.197   4.189   4.274
16810TIP3    H171921   3.246   4.204   4.354
16810TIP3    H271922   3.188   4.276   4.234
16811TIP3   OH271923   5.887   2.742  13.298
16811TIP3    H171924   5.945   2.691  13.242
16811TIP3    H271925   5.932   2.746  13.382
16812TIP3   OH271926   3.184   5.591   1.630
16812TIP3    H171927   3.225   5.641   1.701
16812TIP3    H271928   3.210   5.637   1.550
16813TIP3   OH271929   5.443   4.776   3.062
16813TIP3    H171930   5.490   4.785   3.144
16813TIP3    H271931   5.507   4.796   2.994
16814TIP3   OH271932   3.611   1.249   5.604
16814TIP3    H171933   3.699   1.225   5.576
16814TIP3    H271934   3.560   1.253   5.523
16815TIP3   OH271935   2.476   6.362   0.580
16815TIP3    H171936   2.438   6.275   0.592
16815TIP3    H271937   2.449   6.389   0.492
16816TIP3   OH271938   4.469   3.961   2.836
16816TIP3    H171939   4.558   3.987   2.811
16816TIP3    H271940   4.417   3.975   2.756
16817TIP3   OH271941   6.459   5.070   3.384
16817TIP3    H171942   6.385   5.130   3.392
16817TIP3    H271943   6.535   5.121   3.413
16818TIP3   OH271944   4.044   6.023  11.914
16818TIP3    H171945   4.126   6.046  11.871
16818TIP3    H271946   3.976   6.059  11.858
16819TIP3   OH271947   4.888   5.585  14.852
16819TIP3    H171948   4.909   5.492  14.844
16819TIP3    H271949   4.915   5.623  14.768
16820TIP3   OH271950   4.624   5.038  11.248
16820TIP3    H171951   4.678   5.088  11.309
16820TIP3    H271952   4.537   5.040  11.286
16821TIP3   OH271953   5.893   3.553   3.001
16821TIP3    H171954   5.811   3.553   3.051
16821TIP3    H271955   5.944   3.481   3.037
16822TIP3   OH271956   3.823   2.086   3.435
16822TIP3    H171957   3.756   2.141   3.394
16822TIP3    H271958   3.875   2.053   3.361
16823TIP3   OH271959   5.568   5.102   3.142
16823TIP3    H171960   5.641   5.156   3.173
16823TIP3    H271961   5.490   5.147   3.174
16824TIP3   OH271962   2.165   0.238  15.807
16824TIP3    H171963   2.180   0.162  15.863
16824TIP3    H271964   2.222   0.306  15.843
16825TIP3   OH271965   1.179   1.663  15.339
16825TIP3    H171966   1.096   1.680  15.383
16825TIP3    H271967   1.161   1.679  15.247
16826TIP3   OH271968   0.017   4.266  14.827
16826TIP3    H171969   0.021   4.354  14.790
16826TIP3    H271970  -0.008   4.210  14.755
16827TIP3   OH271971   4.201   1.057  15.412
16827TIP3    H171972   4.273   1.106  15.451
16827TIP3    H271973   4.123   1.110  15.432
16828TIP3   OH271974   2.757   4.990   2.302
16828TIP3    H171975   2.824   4.938   2.346
16828TIP3    H271976   2.790   5.001   2.212
16829TIP3   OH271977   5.062   3.748  14.598
16829TIP3    H171978   5.013   3.736  14.679
16829TIP3    H271979   5.082   3.659  14.568
16830TIP3   OH271980   5.219   6.171  16.925
16830TIP3    H171981   5.161   6.114  16.976
16830TIP3    H271982   5.216   6.255  16.970
16831TIP3   OH271983   4.073   4.586   5.824
16831TIP3    H171984   4.140   4.653   5.837
16831TIP3    H271985   4.013   4.625   5.760
16832TIP3   OH271986   2.659   2.617  14.023
16832TIP3    H171987   2.606   2.582  14.095
16832TIP3    H271988   2.720   2.678  14.065
16833TIP3   OH271989   3.594   6.586   0.382
16833TIP3    H171990   3.539   6.652   0.339
16833TIP3    H271991   3.665   6.571   0.321
16834TIP3   OH271992   3.535   3.784   1.719
16834TIP3    H171993   3.549   3.861   1.774
16834TIP3    H271994   3.526   3.712   1.781
16835TIP3   OH271995   4.164   2.073   1.659
16835TIP3    H171996   4.151   1.978   1.657
16835TIP3    H271997   4.186   2.093   1.750
16836TIP3   OH271998   3.504   6.790   4.822
16836TIP3    H171999   3.548   6.785   4.736
16836TIP3    H272000   3.566   6.751   4.883
16837TIP3   OH272001   2.423   1.858  14.561
16837TIP3    H172002   2.482   1.923  14.601
16837TIP3    H272003   2.390   1.807  14.635
16838TIP3   OH272004   3.883   1.812   2.956
16838TIP3    H172005   3.971   1.779   2.940
16838TIP3    H272006   3.878   1.893   2.904
16839TIP3   OH272007   0.490   0.801  14.616
16839TIP3    H172008   0.439   0.802  14.698
16839TIP3    H272009   0.514   0.892  14.602
16840TIP3   OH272010   6.605   3.638  10.770
16840TIP3    H172011   6.521   3.683  10.781
16840TIP3    H272012   6.661   3.702  10.727
16841TIP3   OH272013   1.433   3.830   1.873
16841TIP3    H172014   1.491   3.841   1.948
16841TIP3    H272015   1.347   3.860   1.903
16842TIP3   OH272016   0.499   0.578   5.840
16842TIP3    H172017   0.591   0.579   5.814
16842TIP3    H272018   0.500   0.545   5.930
16843TIP3   OH272019   0.463   5.584   4.033
16843TIP3    H172020   0.509   5.655   3.990
16843TIP3    H272021   0.432   5.528   3.962
16844TIP3   OH272022   0.651   3.203  12.808
16844TIP3    H172023   0.716   3.163  12.750
16844TIP3    H272024   0.700   3.264  12.862
16845TIP3   OH272025   3.613   4.835   2.689
16845TIP3    H172026   3.628   4.929   2.687
16845TIP3    H272027   3.529   4.823   2.644
16846TIP3   OH272028   4.654   1.590   0.338
16846TIP3    H172029   4.729   1.628   0.291
16846TIP3    H272030   4.671   1.496   0.339
16847TIP3   OH272031   3.937   1.448   4.898
16847TIP3    H172032   4.024   1.414   4.881
16847TIP3    H272033   3.940   1.539   4.870
16848TIP3   OH272034   0.816   4.923  11.611
16848TIP3    H172035   0.748   4.879  11.561
16848TIP3    H272036   0.863   4.976  11.546
16849TIP3   OH272037   5.707   4.035  15.368
16849TIP3    H172038   5.677   4.035  15.277
16849TIP3    H272039   5.802   4.040  15.362
16850TIP3   OH272040   2.613   3.409   0.240
16850TIP3    H172041   2.530   3.399   0.287
16850TIP3    H272042   2.587   3.425   0.150
16851TIP3   OH272043   4.180   6.169  15.027
16851TIP3    H172044   4.200   6.104  14.960
16851TIP3    H272045   4.123   6.233  14.983
16852TIP3   OH272046   2.807   6.487   4.040
16852TIP3    H172047   2.848   6.573   4.055
16852TIP3    H272048   2.816   6.442   4.124
16853TIP3   OH272049   2.661   1.457  13.101
16853TIP3    H172050   2.600   1.413  13.042
16853TIP3    H272051   2.669   1.398  13.176
16854TIP3   OH272052   0.127   1.340   3.300
16854TIP3    H172053   0.214   1.370   3.326
16854TIP3    H272054   0.141   1.255   3.259
16855TIP3   OH272055   4.877   4.580   4.325
16855TIP3    H172056   4.787   4.565   4.352
16855TIP3    H272057   4.872   4.651   4.262
16856TIP3   OH272058   2.997   1.770  11.499
16856TIP3    H172059   2.915   1.783  11.547
16856TIP3    H272060   2.970   1.758  11.408
16857TIP3   OH272061   5.718   4.659   0.934
16857TIP3    H172062   5.628   4.691   0.941
16857TIP3    H272063   5.770   4.739   0.924
16858TIP3   OH272064   1.396   3.918   5.340
16858TIP3    H172065   1.456   3.974   5.290
16858TIP3    H272066   1.405   3.949   5.430
16859TIP3   OH272067   0.693   4.802  12.659
16859TIP3    H172068   0.746   4.723  12.665
16859TIP3    H272069   0.646   4.807  12.742
16860TIP3   OH272070   2.829   4.037  15.502
16860TIP3    H172071   2.905   4.025  15.558
16860TIP3    H272072   2.850   4.112  15.448
16861TIP3   OH272073   2.628   4.925  13.277
16861TIP3    H172074   2.673   4.950  13.358
16861TIP3    H272075   2.647   4.996  13.216
16862TIP3   OH272076   0.225   1.203   1.444
16862TIP3    H172077   0.250   1.130   1.388
16862TIP3    H272078   0.215   1.165   1.531
16863TIP3   OH272079   2.829   5.753  12.563
16863TIP3    H172080   2.884   5.676  12.550
16863TIP3    H272081   2.740   5.717  12.568
16864TIP3   OH272082   1.132   2.505   0.609
16864TIP3    H172083   1.156   2.413   0.607
16864TIP3    H272084   1.080   2.515   0.689
16865TIP3   OH272085   0.146   1.863  12.088
16865TIP3    H172086   0.212   1.908  12.140
16865TIP3    H272087   0.120   1.925  12.021
16866TIP3   OH272088   3.106   5.148   1.111
16866TIP3    H172089   3.147   5.104   1.036
16866TIP3    H272090   3.072   5.230   1.075
16867TIP3   OH272091   1.179   2.251  13.141
16867TIP3    H172092   1.100   2.213  13.102
16867TIP3    H272093   1.228   2.176  13.173
16868TIP3   OH272094   2.456   4.119   0.259
16868TIP3    H172095   2.402   4.087   0.187
16868TIP3    H272096   2.495   4.040   0.296
16869TIP3   OH272097   4.945   6.695  15.765
16869TIP3    H172098   4.966   6.727  15.853
16869TIP3    H272099   4.959   6.601  15.769
16870TIP3   OH272100   4.238   2.624   4.136
16870TIP3    H172101   4.164   2.648   4.080
16870TIP3    H272102   4.287   2.560   4.084
16871TIP3   OH272103   4.860   4.179   3.552
16871TIP3    H172104   4.869   4.204   3.460
16871TIP3    H272105   4.793   4.110   3.552
16872TIP3   OH272106   1.126   5.276  12.746
16872TIP3    H172107   1.192   5.324  12.796
16872TIP3    H272108   1.156   5.185  12.746
16873TIP3   OH272109   4.988   6.157  10.984
16873TIP3    H172110   4.935   6.083  10.954
16873TIP3    H272111   4.924   6.222  11.011
16874TIP3   OH272112   1.978   1.992  14.102
16874TIP3    H172113   2.031   2.016  14.178
16874TIP3    H272114   1.948   1.903  14.119
16875TIP3   OH272115   5.111   0.783  13.982
16875TIP3    H172116   5.054   0.805  13.908
16875TIP3    H272117   5.057   0.802  14.059
16876TIP3   OH272118   6.229   0.274   3.210
16876TIP3    H172119   6.237   0.322   3.292
16876TIP3    H272120   6.185   0.335   3.151
16877TIP3   OH272121   5.672   3.379   2.169
16877TIP3    H172122   5.666   3.470   2.139
16877TIP3    H272123   5.730   3.383   2.245
16878TIP3   OH272124   4.991   1.623  16.414
16878TIP3    H172125   4.991   1.590  16.324
16878TIP3    H272126   5.061   1.575  16.457
16879TIP3   OH272127   0.218   1.777  12.441
16879TIP3    H172128   0.295   1.725  12.463
16879TIP3    H272129   0.168   1.723  12.380
16880TIP3   OH272130   2.035   3.826  12.206
16880TIP3    H172131   2.121   3.785  12.215
16880TIP3    H272132   2.050   3.919  12.227
16881TIP3   OH272133   3.855   0.359   1.441
16881TIP3    H172134   3.854   0.297   1.514
16881TIP3    H272135   3.942   0.400   1.446
16882TIP3   OH272136   0.085   2.335  11.296
16882TIP3    H172137   0.044   2.405  11.244
16882TIP3    H272138   0.117   2.272  11.230
16883TIP3   OH272139   2.702   3.557   3.655
16883TIP3    H172140   2.707   3.545   3.749
16883TIP3    H272141   2.700   3.652   3.643
16884TIP3   OH272142   5.561   1.079   2.865
16884TIP3    H172143   5.588   0.993   2.835
16884TIP3    H272144   5.478   1.095   2.821
16885TIP3   OH272145   3.598   4.475  13.131
16885TIP3    H172146   3.637   4.484  13.044
16885TIP3    H272147   3.589   4.565  13.163
16886TIP3   OH272148   3.833   5.955  12.147
16886TIP3    H172149   3.814   5.865  12.174
16886TIP3    H272150   3.870   5.946  12.059
16887TIP3   OH272151   4.649   0.377  13.381
16887TIP3    H172152   4.592   0.324  13.437
16887TIP3    H272153   4.703   0.427  13.441
16888TIP3   OH272154   0.931   3.915   1.529
16888TIP3    H172155   0.962   4.003   1.509
16888TIP3    H272156   0.972   3.859   1.463
16889TIP3   OH272157   0.444   1.416   1.098
16889TIP3    H172158   0.457   1.476   1.025
16889TIP3    H272159   0.349   1.405   1.104
16890TIP3   OH272160   1.767   5.862   6.150
16890TIP3    H172161   1.729   5.838   6.066
16890TIP3    H272162   1.855   5.894   6.128
16891TIP3   OH272163   0.867   5.656  16.919
16891TIP3    H172164   0.782   5.615  16.912
16891TIP3    H272165   0.858   5.721  16.989
16892TIP3   OH272166   6.167   5.510  15.524
16892TIP3    H172167   6.214   5.427  15.514
16892TIP3    H272168   6.136   5.530  15.436
16893TIP3   OH272169   4.596   6.689  14.609
16893TIP3    H172170   4.535   6.755  14.577
16893TIP3    H272171   4.607   6.628  14.536
16894TIP3   OH272172   0.753   3.291   5.783
16894TIP3    H172173   0.679   3.325   5.833
16894TIP3    H272174   0.727   3.202   5.758
16895TIP3   OH272175   5.085   6.597  14.153
16895TIP3    H172176   5.091   6.549  14.071
16895TIP3    H272177   5.037   6.677  14.131
16896TIP3   OH272178   0.380   4.897   6.537
16896TIP3    H172179   0.391   4.944   6.454
16896TIP3    H272180   0.304   4.938   6.577
16897TIP3   OH272181   1.475   0.986  11.905
16897TIP3    H172182   1.526   1.034  11.970
16897TIP3    H272183   1.515   0.898  11.904
16898TIP3   OH272184   5.754   0.444  13.269
16898TIP3    H172185   5.673   0.462  13.317
16898TIP3    H272186   5.732   0.463  13.178
16899TIP3   OH272187   0.494   2.464   1.151
16899TIP3    H172188   0.451   2.518   1.217
16899TIP3    H272189   0.539   2.526   1.095
16900TIP3   OH272190   0.126   0.725  11.555
16900TIP3    H172191   0.062   0.656  11.540
16900TIP3    H272192   0.202   0.699  11.504
16901TIP3   OH272193   1.274   5.822  16.889
16901TIP3    H172194   1.213   5.797  16.957
16901TIP3    H272195   1.349   5.860  16.936
16902TIP3   OH272196   6.351   6.138   5.490
16902TIP3    H172197   6.324   6.201   5.423
16902TIP3    H272198   6.274   6.083   5.504
16903TIP3   OH272199   0.340   6.373  14.642
16903TIP3    H172200   0.423   6.418  14.654
16903TIP3    H272201   0.345   6.334  14.555
16904TIP3   OH272202   5.897   4.908  11.302
16904TIP3    H172203   5.821   4.951  11.340
16904TIP3    H272204   5.870   4.886  11.213
16905TIP3   OH272205   1.098   5.019   0.189
16905TIP3    H172206   1.135   5.040   0.103
16905TIP3    H272207   1.024   4.962   0.170
16906TIP3   OH272208   2.569   4.988   5.608
16906TIP3    H172209   2.554   5.055   5.675
16906TIP3    H272210   2.657   5.006   5.575
16907TIP3   OH272211   0.845   1.094   4.472
16907TIP3    H172212   0.891   1.026   4.521
16907TIP3    H272213   0.754   1.062   4.467
16908TIP3   OH272214   4.323   2.141  12.118
16908TIP3    H172215   4.365   2.106  12.196
16908TIP3    H272216   4.272   2.068  12.083
16909TIP3   OH272217   2.381   4.519   4.792
16909TIP3    H172218   2.344   4.591   4.844
16909TIP3    H272219   2.447   4.561   4.736
16910TIP3   OH272220   4.432   0.815  11.474
16910TIP3    H172221   4.459   0.727  11.501
16910TIP3    H272222   4.514   0.865  11.473
16911TIP3   OH272223   3.694   6.171  16.826
16911TIP3    H172224   3.734   6.107  16.886
16911TIP3    H272225   3.740   6.157  16.743
16912TIP3   OH272226   3.442   2.102   5.100
16912TIP3    H172227   3.428   2.196   5.114
16912TIP3    H272228   3.355   2.063   5.109
16913TIP3   OH272229   6.257   1.156  14.552
16913TIP3    H172230   6.204   1.170  14.474
16913TIP3    H272231   6.197   1.113  14.614
16914TIP3   OH272232   4.034   2.194   3.080
16914TIP3    H172233   4.055   2.175   2.989
16914TIP3    H272234   4.013   2.109   3.119
16915TIP3   OH272235   5.547   5.562   4.304
16915TIP3    H172236   5.591   5.641   4.336
16915TIP3    H272237   5.607   5.527   4.238
16916TIP3   OH272238   6.297   3.974   4.623
16916TIP3    H172239   6.320   4.000   4.534
16916TIP3    H272240   6.202   3.966   4.622
16917TIP3   OH272241   3.814   0.321   3.880
16917TIP3    H172242   3.722   0.344   3.883
16917TIP3    H272243   3.859   0.402   3.856
16918TIP3   OH272244   1.253   0.107  14.762
16918TIP3    H172245   1.174   0.112  14.709
16918TIP3    H272246   1.289   0.196  14.759
16919TIP3   OH272247   2.960   6.577  13.472
16919TIP3    H172248   2.962   6.583  13.568
16919TIP3    H272249   2.944   6.484  13.455
16920TIP3   OH272250   5.852   4.256  16.639
16920TIP3    H172251   5.926   4.255  16.700
16920TIP3    H272252   5.858   4.341  16.596
16921TIP3   OH272253   2.867   5.455  14.158
16921TIP3    H172254   2.950   5.502  14.162
16921TIP3    H272255   2.800   5.524  14.154
16922TIP3   OH272256   1.671   3.300   3.626
16922TIP3    H172257   1.601   3.331   3.684
16922TIP3    H272258   1.632   3.226   3.580
16923TIP3   OH272259   3.452   3.013   2.199
16923TIP3    H172260   3.413   2.981   2.281
16923TIP3    H272261   3.512   3.082   2.227
16924TIP3   OH272262   1.118   4.754   3.726
16924TIP3    H172263   1.132   4.755   3.820
16924TIP3    H272264   1.105   4.845   3.702
16925TIP3   OH272265   1.107   6.099  13.362
16925TIP3    H172266   1.057   6.109  13.443
16925TIP3    H272267   1.041   6.079  13.296
16926TIP3   OH272268   5.548   2.301   5.767
16926TIP3    H172269   5.545   2.344   5.853
16926TIP3    H272270   5.633   2.257   5.765
16927TIP3   OH272271   2.894   5.651  15.941
16927TIP3    H172272   2.927   5.741  15.950
16927TIP3    H272273   2.800   5.659  15.954
16928TIP3   OH272274   1.420   3.182   5.701
16928TIP3    H172275   1.434   3.246   5.631
16928TIP3    H272276   1.417   3.234   5.781
16929TIP3   OH272277   5.610   0.602  11.451
16929TIP3    H172278   5.578   0.589  11.362
16929TIP3    H272279   5.705   0.609  11.441
16930TIP3   OH272280   0.053   5.622  12.693
16930TIP3    H172281   0.106   5.569  12.752
16930TIP3    H272282  -0.014   5.660  12.749
16931TIP3   OH272283   0.175   2.816  16.779
16931TIP3    H172284   0.190   2.731  16.820
16931TIP3    H272285   0.209   2.879  16.843
16932TIP3   OH272286   0.674   4.784   2.605
16932TIP3    H172287   0.743   4.764   2.668
16932TIP3    H272288   0.699   4.870   2.570
16933TIP3   OH272289   2.372   5.582   2.826
16933TIP3    H172290   2.306   5.643   2.857
16933TIP3    H272291   2.393   5.528   2.903
16934TIP3   OH272292   2.536   1.147   5.593
16934TIP3    H172293   2.522   1.213   5.525
16934TIP3    H272294   2.586   1.078   5.549
16935TIP3   OH272295   0.140   3.246  12.373
16935TIP3    H172296   0.116   3.226  12.282
16935TIP3    H272297   0.196   3.173  12.400
16936TIP3   OH272298   4.541   4.011  16.788
16936TIP3    H172299   4.573   3.933  16.832
16936TIP3    H272300   4.571   4.001  16.697
16937TIP3   OH272301   1.081   2.382  17.158
16937TIP3    H172302   0.987   2.364  17.162
16937TIP3    H272303   1.123   2.297  17.175
16938TIP3   OH272304   0.680   3.204   4.393
16938TIP3    H172305   0.729   3.247   4.463
16938TIP3    H272306   0.614   3.269   4.367
16939TIP3   OH272307   1.614   2.402   0.626
16939TIP3    H172308   1.695   2.361   0.655
16939TIP3    H272309   1.595   2.467   0.694
16940TIP3   OH272310   5.878   6.637  13.446
16940TIP3    H172311   5.972   6.629  13.456
16940TIP3    H272312   5.844   6.549  13.464
16941TIP3   OH272313   5.147   1.661  14.258
16941TIP3    H172314   5.218   1.643  14.197
16941TIP3    H272315   5.131   1.577  14.301
16942TIP3   OH272316   2.288   5.752   0.287
16942TIP3    H172317   2.368   5.700   0.282
16942TIP3    H272318   2.228   5.700   0.340
16943TIP3   OH272319   2.652   4.694   6.301
16943TIP3    H172320   2.685   4.778   6.269
16943TIP3    H272321   2.731   4.641   6.316
16944TIP3   OH272322   6.053   0.417  12.251
16944TIP3    H172323   5.984   0.481  12.239
16944TIP3    H272324   6.009   0.340  12.286
16945TIP3   OH272325   2.212   0.359  13.875
16945TIP3    H172326   2.281   0.362  13.808
16945TIP3    H272327   2.142   0.414  13.839
16946TIP3   OH272328   6.488   1.775  13.930
16946TIP3    H172329   6.509   1.858  13.887
16946TIP3    H272330   6.524   1.783  14.018
16947TIP3   OH272331   2.993   0.404  13.424
16947TIP3    H172332   2.955   0.462  13.489
16947TIP3    H272333   3.077   0.377  13.461
16948TIP3   OH272334   4.028   5.122   5.046
16948TIP3    H172335   4.029   5.082   5.133
16948TIP3    H272336   4.008   5.049   4.987
16949TIP3   OH272337   0.209   6.736   5.062
16949TIP3    H172338   0.131   6.752   5.115
16949TIP3    H272339   0.205   6.643   5.040
16950TIP3   OH272340   6.399   3.679  15.728
16950TIP3    H172341   6.431   3.680  15.638
16950TIP3    H272342   6.378   3.588  15.746
16951TIP3   OH272343   5.952   6.114  16.822
16951TIP3    H172344   6.000   6.154  16.895
16951TIP3    H272345   5.918   6.188  16.773
16952TIP3   OH272346   3.426   6.219  11.703
16952TIP3    H172347   3.512   6.227  11.744
16952TIP3    H272348   3.442   6.169  11.623
16953TIP3   OH272349   5.741   0.204   4.116
16953TIP3    H172350   5.749   0.110   4.129
16953TIP3    H272351   5.766   0.217   4.024
16954TIP3   OH272352   3.067   0.228  10.508
16954TIP3    H172353   3.104   0.274  10.433
16954TIP3    H272354   3.137   0.170  10.538
16955TIP3   OH272355   3.549   0.588  16.635
16955TIP3    H172356   3.504   0.559  16.715
16955TIP3    H272357   3.481   0.629  16.583
16956TIP3   OH272358   1.642   2.826   6.097
16956TIP3    H172359   1.622   2.830   6.191
16956TIP3    H272360   1.577   2.883   6.056
16957TIP3   OH272361   3.285   1.449  11.852
16957TIP3    H172362   3.298   1.381  11.786
16957TIP3    H272363   3.234   1.517  11.806
16958TIP3   OH272364   4.417   6.510  12.996
16958TIP3    H172365   4.332   6.554  12.999
16958TIP3    H272366   4.396   6.418  12.981
16959TIP3   OH272367   4.791   1.488   1.694
16959TIP3    H172368   4.858   1.478   1.626
16959TIP3    H272369   4.763   1.399   1.712
16960TIP3   OH272370   6.539   2.441  15.495
16960TIP3    H172371   6.447   2.414  15.485
16960TIP3    H272372   6.534   2.532  15.522
16961TIP3   OH272373   4.168   2.900  11.316
16961TIP3    H172374   4.127   2.970  11.367
16961TIP3    H272375   4.230   2.946  11.259
16962TIP3   OH272376   0.924   0.887   1.279
16962TIP3    H172377   0.939   0.961   1.338
16962TIP3    H272378   0.829   0.874   1.281
16963TIP3   OH272379   0.493   5.360  14.743
16963TIP3    H172380   0.412   5.320  14.776
16963TIP3    H272381   0.547   5.285  14.717
16964TIP3   OH272382   4.800   1.539   2.524
16964TIP3    H172383   4.792   1.625   2.485
16964TIP3    H272384   4.775   1.551   2.616
16965TIP3   OH272385   2.328   1.364   1.327
16965TIP3    H172386   2.294   1.453   1.343
16965TIP3    H272387   2.254   1.317   1.289
16966TIP3   OH272388   0.606   2.058   2.672
16966TIP3    H172389   0.632   2.068   2.580
16966TIP3    H272390   0.689   2.060   2.721
16967TIP3   OH272391   5.881   0.091  17.024
16967TIP3    H172392   5.844   0.048  17.102
16967TIP3    H272393   5.885   0.183  17.047
16968TIP3   OH272394   3.268   1.872  14.978
16968TIP3    H172395   3.244   1.861  15.070
16968TIP3    H272396   3.212   1.943  14.947
16969TIP3   OH272397   1.517   6.667   0.260
16969TIP3    H172398   1.580   6.647   0.330
16969TIP3    H272399   1.490   6.582   0.226
16970TIP3   OH272400   6.039   2.588   2.482
16970TIP3    H172401   6.105   2.549   2.539
16970TIP3    H272402   6.088   2.619   2.406
16971TIP3   OH272403   1.709   3.390   5.613
16971TIP3    H172404   1.636   3.444   5.585
16971TIP3    H272405   1.709   3.316   5.552
16972TIP3   OH272406   1.848   1.956   4.241
16972TIP3    H172407   1.770   2.003   4.269
16972TIP3    H272408   1.893   2.016   4.182
16973TIP3   OH272409   3.679   1.359   4.452
16973TIP3    H172410   3.675   1.378   4.546
16973TIP3    H272411   3.604   1.302   4.436
16974TIP3   OH272412   2.515   2.604   0.059
16974TIP3    H172413   2.551   2.587  -0.028
16974TIP3    H272414   2.464   2.684   0.049
16975TIP3   OH272415   6.180   5.682   1.733
16975TIP3    H172416   6.140   5.759   1.691
16975TIP3    H272417   6.213   5.630   1.660
16976TIP3   OH272418   0.083   0.977   6.609
16976TIP3    H172419   0.036   0.953   6.688
16976TIP3    H272420   0.176   0.968   6.631
16977TIP3   OH272421   5.555   4.799  12.818
16977TIP3    H172422   5.596   4.719  12.850
16977TIP3    H272423   5.611   4.827  12.746
16978TIP3   OH272424   3.217   5.835  13.882
16978TIP3    H172425   3.169   5.899  13.935
16978TIP3    H272426   3.163   5.825  13.803
16979TIP3   OH272427   1.848   3.938  10.922
16979TIP3    H172428   1.934   3.909  10.890
16979TIP3    H272429   1.807   3.978  10.845
16980TIP3   OH272430   2.269   6.326  11.472
16980TIP3    H172431   2.182   6.291  11.487
16980TIP3    H272432   2.315   6.314  11.555
16981TIP3   OH272433   2.612   5.137  14.743
16981TIP3    H172434   2.576   5.050  14.760
16981TIP3    H272435   2.571   5.164  14.660
16982TIP3   OH272436   5.890   0.885  14.976
16982TIP3    H172437   5.982   0.861  14.983
16982TIP3    H272438   5.859   0.888  15.067
16983TIP3   OH272439   5.211   0.067  13.069
16983TIP3    H172440   5.180  -0.011  13.115
16983TIP3    H272441   5.202   0.138  13.133
16984TIP3   OH272442   0.389   6.520  14.044
16984TIP3    H172443   0.339   6.518  14.126
16984TIP3    H272444   0.347   6.454  13.989
16985TIP3   OH272445   4.113   5.704   5.398
16985TIP3    H172446   4.031   5.729   5.439
16985TIP3    H272447   4.169   5.781   5.405
16986TIP3   OH272448   5.979   6.716   0.276
16986TIP3    H172449   5.982   6.747   0.366
16986TIP3    H272450   5.886   6.699   0.260
16987TIP3   OH272451   5.223   3.165  14.842
16987TIP3    H172452   5.254   3.181  14.931
16987TIP3    H272453   5.301   3.143  14.793
16988TIP3   OH272454   5.356   0.235   1.296
16988TIP3    H172455   5.383   0.242   1.204
16988TIP3    H272456   5.261   0.236   1.293
16989TIP3   OH272457   1.023   5.170  12.434
16989TIP3    H172458   1.085   5.103  12.462
16989TIP3    H272459   0.940   5.145  12.475
16990TIP3   OH272460   3.786   4.442   3.130
16990TIP3    H172461   3.734   4.446   3.050
16990TIP3    H272462   3.874   4.471   3.103
16991TIP3   OH272463   2.846   1.026   4.690
16991TIP3    H172464   2.756   1.042   4.660
16991TIP3    H272465   2.871   1.107   4.733
16992TIP3   OH272466   0.201   1.850   6.556
16992TIP3    H172467   0.265   1.904   6.510
16992TIP3    H272468   0.221   1.761   6.527
16993TIP3   OH272469   5.285   0.422  17.080
16993TIP3    H172470   5.216   0.359  17.061
16993TIP3    H272471   5.266   0.498  17.025
16994TIP3   OH272472   3.750   3.600   0.653
16994TIP3    H172473   3.719   3.667   0.714
16994TIP3    H272474   3.724   3.517   0.693
16995TIP3   OH272475   2.608   1.786   3.039
16995TIP3    H172476   2.586   1.696   3.014
16995TIP3    H272477   2.673   1.814   2.975
16996TIP3   OH272478   0.027   3.608   5.746
16996TIP3    H172479   0.093   3.539   5.738
16996TIP3    H272480   0.038   3.642   5.834
16997TIP3   OH272481   1.013   2.664  15.324
16997TIP3    H172482   1.027   2.693  15.233
16997TIP3    H272483   0.963   2.583  15.316
16998TIP3   OH272484   3.271   2.545  13.960
16998TIP3    H172485   3.251   2.452  13.957
16998TIP3    H272486   3.193   2.587  13.922
16999TIP3   OH272487   5.031   6.046  17.082
16999TIP3    H172488   5.071   6.054  17.169
16999TIP3    H272489   4.989   5.960  17.084
17000TIP3   OH272490   5.793   4.785   3.020
17000TIP3    H172491   5.817   4.694   2.999
17000TIP3    H272492   5.725   4.807   2.957
17001TIP3   OH272493   3.683   3.166  17.277
17001TIP3    H172494   3.589   3.162  17.260
17001TIP3    H272495   3.709   3.075  17.289
17002TIP3   OH272496   3.857   6.783  16.726
17002TIP3    H172497   3.878   6.873  16.751
17002TIP3    H272498   3.765   6.772  16.748
17003TIP3   OH272499   0.855   2.122   0.249
17003TIP3    H172500   0.766   2.153   0.269
17003TIP3    H272501   0.857   2.115   0.154
17004TIP3   OH272502   0.377   0.755   3.583
17004TIP3    H172503   0.464   0.770   3.544
17004TIP3    H272504   0.323   0.724   3.510
17005TIP3   OH272505   0.816   3.520  13.668
17005TIP3    H172506   0.742   3.515  13.729
17005TIP3    H272507   0.776   3.509  13.582
17006TIP3   OH272508   6.453   5.513   5.079
17006TIP3    H172509   6.371   5.487   5.037
17006TIP3    H272510   6.473   5.599   5.043
17007TIP3   OH272511   4.352   5.366  15.067
17007TIP3    H172512   4.356   5.446  15.120
17007TIP3    H272513   4.443   5.338  15.059
17008TIP3   OH272514   2.610   5.588   1.523
17008TIP3    H172515   2.694   5.626   1.547
17008TIP3    H272516   2.606   5.505   1.570
17009TIP3   OH272517   3.805   6.242  16.533
17009TIP3    H172518   3.739   6.297  16.576
17009TIP3    H272519   3.858   6.304  16.483
17010TIP3   OH272520   5.923   0.266   3.105
17010TIP3    H172521   5.862   0.333   3.137
17010TIP3    H272522   5.868   0.207   3.053
17011TIP3   OH272523   5.030   1.258  15.087
17011TIP3    H172524   5.090   1.186  15.066
17011TIP3    H272525   4.950   1.238  15.038
17012TIP3   OH272526   0.979   6.166   1.918
17012TIP3    H172527   0.974   6.255   1.884
17012TIP3    H272528   0.955   6.111   1.843
17013TIP3   OH272529   0.573   3.059  11.238
17013TIP3    H172530   0.589   3.021  11.324
17013TIP3    H272531   0.630   3.136  11.235
17014TIP3   OH272532   4.721   2.663  14.360
17014TIP3    H172533   4.803   2.615  14.354
17014TIP3    H272534   4.674   2.642  14.279
17015TIP3   OH272535   1.737   1.573   5.128
17015TIP3    H172536   1.790   1.621   5.064
17015TIP3    H272537   1.780   1.487   5.133
17016TIP3   OH272538   4.774   2.846  12.407
17016TIP3    H172539   4.716   2.894  12.348
17016TIP3    H272540   4.802   2.912  12.472
17017TIP3   OH272541   5.749   5.520   4.550
17017TIP3    H172542   5.705   5.589   4.500
17017TIP3    H272543   5.752   5.554   4.640
17018TIP3   OH272544   4.519   1.362  11.370
17018TIP3    H172545   4.449   1.298  11.361
17018TIP3    H272546   4.593   1.323  11.323
17019TIP3   OH272547   2.025   5.972   6.089
17019TIP3    H172548   2.059   5.989   6.177
17019TIP3    H272549   2.026   6.057   6.047
17020TIP3   OH272550   0.684   0.006  13.820
17020TIP3    H172551   0.722   0.025  13.734
17020TIP3    H272552   0.704   0.083  13.873
17021TIP3   OH272553   6.750   2.953  12.443
17021TIP3    H172554   6.844   2.962  12.432
17021TIP3    H272555   6.714   2.973  12.356
17022TIP3   OH272556   0.297   5.819  17.142
17022TIP3    H172557   0.308   5.763  17.065
17022TIP3    H272558   0.360   5.890  17.129
17023TIP3   OH272559   1.171   4.012  15.436
17023TIP3    H172560   1.248   3.979  15.484
17023TIP3    H272561   1.102   4.016  15.502
17024TIP3   OH272562   4.095   3.374   5.778
17024TIP3    H172563   4.111   3.446   5.716
17024TIP3    H272564   4.169   3.315   5.765
17025TIP3   OH272565   5.241   6.200   3.084
17025TIP3    H172566   5.266   6.286   3.052
17025TIP3    H272567   5.313   6.142   3.056
17026TIP3   OH272568   1.919   1.924  13.056
17026TIP3    H172569   1.881   2.007  13.027
17026TIP3    H272570   1.905   1.923  13.151
17027TIP3   OH272571   2.912   5.849   2.472
17027TIP3    H172572   2.855   5.925   2.486
17027TIP3    H272573   2.984   5.883   2.419
17028TIP3   OH272574   2.447   1.459  12.798
17028TIP3    H172575   2.374   1.401  12.776
17028TIP3    H272576   2.416   1.547  12.777
17029TIP3   OH272577   1.746   2.478   6.558
17029TIP3    H172578   1.746   2.382   6.548
17029TIP3    H272579   1.697   2.493   6.639
17030TIP3   OH272580   3.535   3.135   3.844
17030TIP3    H172581   3.629   3.119   3.852
17030TIP3    H272582   3.501   3.057   3.802
17031TIP3   OH272583   6.542   0.337  13.075
17031TIP3    H172584   6.630   0.308  13.054
17031TIP3    H272585   6.525   0.301  13.162
17032TIP3   OH272586   5.323   4.376  16.173
17032TIP3    H172587   5.284   4.307  16.120
17032TIP3    H272588   5.300   4.457  16.128
17033TIP3   OH272589   6.159   2.323  16.784
17033TIP3    H172590   6.113   2.248  16.821
17033TIP3    H272591   6.098   2.361  16.721
17034TIP3   OH272592   2.046   5.263   3.970
17034TIP3    H172593   2.134   5.269   4.007
17034TIP3    H272594   2.014   5.353   3.967
17035TIP3   OH272595   5.132   5.540  17.241
17035TIP3    H172596   5.052   5.488  17.235
17035TIP3    H272597   5.151   5.543  17.335
17036TIP3   OH272598   0.783   0.234   0.673
17036TIP3    H172599   0.751   0.144   0.681
17036TIP3    H272600   0.706   0.288   0.689
17037TIP3   OH272601   4.415   5.461  13.497
17037TIP3    H172602   4.385   5.552  13.496
17037TIP3    H272603   4.361   5.418  13.564
17038TIP3   OH272604   6.665   0.773   5.694
17038TIP3    H172605   6.588   0.718   5.676
17038TIP3    H272606   6.667   0.835   5.621
17039TIP3   OH272607   6.639   3.598  12.236
17039TIP3    H172608   6.573   3.666  12.249
17039TIP3    H272609   6.704   3.638  12.178
17040TIP3   OH272610   1.664   4.760  17.055
17040TIP3    H172611   1.690   4.669  17.039
17040TIP3    H272612   1.692   4.778  17.145
17041TIP3   OH272613   1.111   4.180   0.497
17041TIP3    H172614   1.024   4.178   0.537
17041TIP3    H272615   1.155   4.254   0.539
17042TIP3   OH272616   5.612   5.296  13.232
17042TIP3    H172617   5.691   5.296  13.178
17042TIP3    H272618   5.600   5.205  13.258
17043TIP3   OH272619   2.397   5.373  13.312
17043TIP3    H172620   2.426   5.338  13.396
17043TIP3    H272621   2.397   5.298  13.253
17044TIP3   OH272622   1.555   3.709   3.935
17044TIP3    H172623   1.523   3.627   3.972
17044TIP3    H272624   1.649   3.695   3.925
17045TIP3   OH272625   0.129   4.541  11.688
17045TIP3    H172626   0.110   4.493  11.608
17045TIP3    H272627   0.082   4.494  11.757
17046TIP3   OH272628   0.505   2.630   4.783
17046TIP3    H172629   0.582   2.630   4.841
17046TIP3    H272630   0.482   2.537   4.775
17047TIP3   OH272631   6.496   3.623  12.638
17047TIP3    H172632   6.514   3.712  12.608
17047TIP3    H272633   6.545   3.614  12.719
17048TIP3   OH272634   6.449   0.795  16.616
17048TIP3    H172635   6.429   0.876  16.570
17048TIP3    H272636   6.545   0.796  16.625
17049TIP3   OH272637   1.823   0.092  16.884
17049TIP3    H172638   1.904   0.131  16.918
17049TIP3    H272639   1.806   0.139  16.802
17050TIP3   OH272640   6.356   4.142  15.916
17050TIP3    H172641   6.391   4.093  15.991
17050TIP3    H272642   6.261   4.138  15.927
17051TIP3   OH272643   4.803   1.412  13.685
17051TIP3    H172644   4.757   1.432  13.767
17051TIP3    H272645   4.858   1.337  13.706
17052TIP3   OH272646   5.856   2.264  16.944
17052TIP3    H172647   5.898   2.344  16.975
17052TIP3    H272648   5.793   2.294  16.878
17053TIP3   OH272649   5.317   5.684   0.915
17053TIP3    H172650   5.259   5.758   0.897
17053TIP3    H272651   5.361   5.707   0.996
17054TIP3   OH272652   0.541   6.412  15.833
17054TIP3    H172653   0.471   6.405  15.768
17054TIP3    H272654   0.503   6.465  15.903
17055TIP3   OH272655   1.799   5.556  11.776
17055TIP3    H172656   1.784   5.619  11.846
17055TIP3    H272657   1.894   5.540  11.777
17056TIP3   OH272658   1.415   0.928  16.258
17056TIP3    H172659   1.331   0.970  16.279
17056TIP3    H272660   1.411   0.913  16.164
17057TIP3   OH272661   5.344   2.234   0.219
17057TIP3    H172662   5.402   2.208   0.290
17057TIP3    H272663   5.316   2.323   0.242
17058TIP3   OH272664   4.965   0.349   3.912
17058TIP3    H172665   5.053   0.387   3.915
17058TIP3    H272666   4.928   0.371   3.998
17059TIP3   OH272667   6.550   1.158  16.188
17059TIP3    H172668   6.492   1.097  16.142
17059TIP3    H272669   6.612   1.101  16.233
17060TIP3   OH272670   4.487   5.468   2.564
17060TIP3    H172671   4.401   5.474   2.607
17060TIP3    H272672   4.548   5.505   2.627
17061TIP3   OH272673   6.777   3.649  15.722
17061TIP3    H172674   6.689   3.633  15.689
17061TIP3    H272675   6.773   3.622  15.814
17062TIP3   OH272676   0.024   3.909  15.485
17062TIP3    H172677  -0.044   3.973  15.504
17062TIP3    H272678   0.087   3.918  15.556
17063TIP3   OH272679   0.460   6.528  16.179
17063TIP3    H172680   0.533   6.551  16.236
17063TIP3    H272681   0.392   6.495  16.239
17064TIP3   OH272682   5.336   2.438   4.173
17064TIP3    H172683   5.259   2.494   4.177
17064TIP3    H272684   5.410   2.498   4.178
17065TIP3   OH272685   6.076   2.206  14.486
17065TIP3    H172686   6.149   2.206  14.424
17065TIP3    H272687   6.098   2.274  14.550
17066TIP3   OH272688   6.215   2.535  11.317
17066TIP3    H172689   6.162   2.605  11.280
17066TIP3    H272690   6.296   2.536  11.265
17067TIP3   OH272691   0.470   0.825   2.767
17067TIP3    H172692   0.512   0.756   2.715
17067TIP3    H272693   0.400   0.780   2.814
17068TIP3   OH272694   3.941   4.893  12.291
17068TIP3    H172695   4.014   4.840  12.323
17068TIP3    H272696   3.978   4.944  12.219
17069TIP3   OH272697   3.566   5.885   1.296
17069TIP3    H172698   3.493   5.928   1.340
17069TIP3    H272699   3.626   5.861   1.366
17070TIP3   OH272700   3.438   1.411   4.251
17070TIP3    H172701   3.489   1.331   4.263
17070TIP3    H272702   3.412   1.409   4.158
17071TIP3   OH272703   0.684   2.679   3.402
17071TIP3    H172704   0.608   2.695   3.347
17071TIP3    H272705   0.677   2.587   3.427
17072TIP3   OH272706   1.716   4.313   3.412
17072TIP3    H172707   1.756   4.252   3.350
17072TIP3    H272708   1.662   4.371   3.358
17073TIP3   OH272709   2.918   2.675   2.341
17073TIP3    H172710   2.832   2.716   2.354
17073TIP3    H272711   2.933   2.626   2.422
17074TIP3   OH272712   5.352   2.475   2.063
17074TIP3    H172713   5.408   2.398   2.062
17074TIP3    H272714   5.380   2.523   2.141
17075TIP3   OH272715   6.118   1.005  12.213
17075TIP3    H172716   6.026   0.978  12.203
17075TIP3    H272717   6.166   0.949  12.153
17076TIP3   OH272718   0.676   5.121  14.694
17076TIP3    H172719   0.608   5.069  14.735
17076TIP3    H272720   0.743   5.057  14.669
17077TIP3   OH272721   0.851   5.409  12.430
17077TIP3    H172722   0.885   5.487  12.385
17077TIP3    H272723   0.925   5.348  12.430
17078TIP3   OH272724   5.933   5.185  10.852
17078TIP3    H172725   6.028   5.191  10.859
17078TIP3    H272726   5.914   5.091  10.850
17079TIP3   OH272727   5.549   1.773   4.928
17079TIP3    H172728   5.569   1.720   4.851
17079TIP3    H272729   5.554   1.864   4.896
17080TIP3   OH272730   5.134   0.593   1.666
17080TIP3    H172731   5.142   0.514   1.612
17080TIP3    H272732   5.223   0.627   1.671
17081TIP3   OH272733   4.145   5.729   2.586
17081TIP3    H172734   4.150   5.749   2.493
17081TIP3    H272735   4.071   5.669   2.594
17082TIP3   OH272736   4.826   4.463   2.003
17082TIP3    H172737   4.915   4.485   2.032
17082TIP3    H272738   4.783   4.430   2.081
17083TIP3   OH272739   2.655   2.824   1.391
17083TIP3    H172740   2.710   2.885   1.342
17083TIP3    H272741   2.566   2.844   1.363
17084TIP3   OH272742   0.334   6.217  13.086
17084TIP3    H172743   0.417   6.171  13.095
17084TIP3    H272744   0.355   6.308  13.107
17085TIP3   OH272745   3.804   5.225   1.884
17085TIP3    H172746   3.858   5.254   1.810
17085TIP3    H272747   3.715   5.253   1.862
17086TIP3   OH272748   6.487   0.172   2.072
17086TIP3    H172749   6.467   0.229   1.999
17086TIP3    H272750   6.441   0.090   2.052
17087TIP3   OH272751   0.380   3.771   1.794
17087TIP3    H172752   0.359   3.733   1.708
17087TIP3    H272753   0.391   3.696   1.852
17088TIP3   OH272754   3.445   3.414   1.479
17088TIP3    H172755   3.431   3.508   1.493
17088TIP3    H272756   3.526   3.395   1.526
17089TIP3   OH272757   4.421   2.119   5.030
17089TIP3    H172758   4.404   2.198   5.081
17089TIP3    H272759   4.343   2.110   4.974
17090TIP3   OH272760   1.074   2.654  15.843
17090TIP3    H172761   1.053   2.682  15.754
17090TIP3    H272762   1.106   2.564  15.833
17091TIP3   OH272763   6.259   1.286  12.169
17091TIP3    H172764   6.214   1.207  12.138
17091TIP3    H272765   6.208   1.313  12.246
17092TIP3   OH272766   1.007   2.791   4.962
17092TIP3    H172767   0.966   2.876   4.973
17092TIP3    H272768   1.066   2.783   5.037
17093TIP3   OH272769   0.553   3.322  11.773
17093TIP3    H172770   0.549   3.322  11.678
17093TIP3    H272771   0.633   3.370  11.794
17094TIP3   OH272772   3.623   3.187   3.414
17094TIP3    H172773   3.674   3.188   3.495
17094TIP3    H272774   3.662   3.116   3.362
17095TIP3   OH272775   2.970   3.217   6.202
17095TIP3    H172776   2.931   3.238   6.287
17095TIP3    H272777   3.022   3.138   6.219
17096TIP3   OH272778   1.340   6.251   3.847
17096TIP3    H172779   1.373   6.327   3.894
17096TIP3    H272780   1.374   6.260   3.758
17097TIP3   OH272781   0.751   3.162   6.063
17097TIP3    H172782   0.812   3.184   6.133
17097TIP3    H272783   0.716   3.076   6.088
17098TIP3   OH272784   1.443   0.345   5.616
17098TIP3    H172785   1.382   0.297   5.559
17098TIP3    H272786   1.462   0.426   5.568
17099TIP3   OH272787   6.749   6.476  12.309
17099TIP3    H172788   6.839   6.455  12.332
17099TIP3    H272789   6.728   6.419  12.236
17100TIP3   OH272790   2.844   5.195  12.677
17100TIP3    H172791   2.748   5.195  12.677
17100TIP3    H272792   2.868   5.287  12.685
17101TIP3   OH272793   3.310   6.754  13.888
17101TIP3    H172794   3.337   6.797  13.969
17101TIP3    H272795   3.217   6.773  13.880
17102TIP3   OH272796   4.976   0.888   6.297
17102TIP3    H172797   5.007   0.911   6.209
17102TIP3    H272798   4.968   0.972   6.342
17103TIP3   OH272799   4.806   0.920   3.476
17103TIP3    H172800   4.798   0.826   3.491
17103TIP3    H272801   4.775   0.960   3.558
17104TIP3   OH272802   2.569   1.587   5.445
17104TIP3    H172803   2.632   1.604   5.375
17104TIP3    H272804   2.619   1.598   5.526
17105TIP3   OH272805   4.986   5.749   3.838
17105TIP3    H172806   5.001   5.718   3.749
17105TIP3    H272807   4.919   5.816   3.829
17106TIP3   OH272808   5.068   0.434  14.067
17106TIP3    H172809   4.997   0.422  14.004
17106TIP3    H272810   5.126   0.497  14.025
17107TIP3   OH272811   2.081   5.627   4.809
17107TIP3    H172812   2.128   5.692   4.863
17107TIP3    H272813   2.101   5.652   4.719
17108TIP3   OH272814   6.034   6.267  15.565
17108TIP3    H172815   6.123   6.286  15.535
17108TIP3    H272816   5.997   6.213  15.497
17109TIP3   OH272817   3.184   1.052   2.863
17109TIP3    H172818   3.171   0.972   2.913
17109TIP3    H272819   3.128   1.043   2.786
17110TIP3   OH272820   0.955   4.423   5.482
17110TIP3    H172821   0.943   4.410   5.388
17110TIP3    H272822   0.959   4.335   5.518
17111TIP3   OH272823   3.539   4.585   1.609
17111TIP3    H172824   3.632   4.577   1.586
17111TIP3    H272825   3.493   4.559   1.529
17112TIP3   OH272826   6.572   5.435  15.566
17112TIP3    H172827   6.507   5.429  15.495
17112TIP3    H272828   6.549   5.363  15.625
17113TIP3   OH272829   1.139   1.382  11.479
17113TIP3    H172830   1.150   1.288  11.493
17113TIP3    H272831   1.220   1.410  11.436
17114TIP3   OH272832   0.776   3.162  11.415
17114TIP3    H172833   0.821   3.101  11.357
17114TIP3    H272834   0.844   3.222  11.445
17115TIP3   OH272835   3.224   3.116  15.394
17115TIP3    H172836   3.145   3.064  15.378
17115TIP3    H272837   3.293   3.068  15.347
17116TIP3   OH272838   1.972   3.480  15.387
17116TIP3    H172839   1.971   3.571  15.359
17116TIP3    H272840   1.987   3.484  15.482
17117TIP3   OH272841   2.152   5.095   2.668
17117TIP3    H172842   2.065   5.118   2.701
17117TIP3    H272843   2.202   5.177   2.673
17118TIP3   OH272844   1.037   3.235  11.047
17118TIP3    H172845   1.124   3.227  11.008
17118TIP3    H272846   0.976   3.214  10.976
17119TIP3   OH272847   5.203   0.076   5.291
17119TIP3    H172848   5.208   0.024   5.371
17119TIP3    H272849   5.193   0.011   5.221
17120TIP3   OH272850   5.564   5.600  10.556
17120TIP3    H172851   5.536   5.659  10.626
17120TIP3    H272852   5.642   5.641  10.520
17121TIP3   OH272853   5.651   6.718   5.043
17121TIP3    H172854   5.705   6.690   5.117
17121TIP3    H272855   5.705   6.699   4.966
17122TIP3   OH272856   5.204   4.635  10.777
17122TIP3    H172857   5.160   4.551  10.793
17122TIP3    H272858   5.134   4.699  10.775
17123TIP3   OH272859   1.852   3.349  16.006
17123TIP3    H172860   1.785   3.319  15.944
17123TIP3    H272861   1.812   3.336  16.092
17124TIP3   OH272862   3.314   3.891  15.829
17124TIP3    H172863   3.237   3.835  15.825
17124TIP3    H272864   3.314   3.937  15.745
17125TIP3   OH272865   6.689   4.811   6.228
17125TIP3    H172866   6.688   4.739   6.290
17125TIP3    H272867   6.727   4.774   6.148
17126TIP3   OH272868   0.085   4.832  11.724
17126TIP3    H172869   0.131   4.749  11.714
17126TIP3    H272870   0.153   4.894  11.751
17127TIP3   OH272871   6.016   4.064  15.366
17127TIP3    H172872   6.004   3.998  15.298
17127TIP3    H272873   6.024   4.147  15.318
17128TIP3   OH272874   6.005   5.240   0.766
17128TIP3    H172875   6.028   5.214   0.855
17128TIP3    H272876   6.061   5.187   0.710
17129TIP3   OH272877   4.585   0.725  12.614
17129TIP3    H172878   4.661   0.694  12.662
17129TIP3    H272879   4.575   0.817  12.641
17130TIP3   OH272880   5.222   5.159  16.846
17130TIP3    H172881   5.244   5.121  16.761
17130TIP3    H272882   5.168   5.235  16.825
17131TIP3   OH272883   1.838   1.545  16.926
17131TIP3    H172884   1.781   1.506  16.992
17131TIP3    H272885   1.911   1.582  16.976
17132TIP3   OH272886   0.458   5.999   3.503
17132TIP3    H172887   0.390   6.000   3.436
17132TIP3    H272888   0.467   6.091   3.530
17133TIP3   OH272889   0.279   2.507  16.634
17133TIP3    H172890   0.192   2.546  16.633
17133TIP3    H272891   0.306   2.511  16.726
17134TIP3   OH272892   2.471   0.536   4.664
17134TIP3    H172893   2.529   0.592   4.715
17134TIP3    H272894   2.495   0.553   4.572
17135TIP3   OH272895   4.166   2.750  15.215
17135TIP3    H172896   4.227   2.798  15.271
17135TIP3    H272897   4.184   2.784  15.127
17136TIP3   OH272898   6.389   0.876   5.804
17136TIP3    H172899   6.402   0.965   5.839
17136TIP3    H272900   6.476   0.837   5.807
17137TIP3   OH272901   3.009   1.752  13.155
17137TIP3    H172902   3.022   1.659  13.139
17137TIP3    H272903   3.033   1.764  13.247
17138TIP3   OH272904   1.184   2.075   6.439
17138TIP3    H172905   1.184   2.114   6.526
17138TIP3    H272906   1.226   1.989   6.451
17139TIP3   OH272907   1.450   3.098  14.169
17139TIP3    H172908   1.503   3.072  14.245
17139TIP3    H272909   1.439   3.192  14.180
17140TIP3   OH272910   2.941   6.089  12.710
17140TIP3    H172911   2.928   6.122  12.621
17140TIP3    H272912   3.007   6.021  12.701
17141TIP3   OH272913   0.383   4.214  12.495
17141TIP3    H172914   0.296   4.244  12.522
17141TIP3    H272915   0.435   4.216  12.575
17142TIP3   OH272916   3.993   1.067   2.675
17142TIP3    H172917   3.982   0.993   2.734
17142TIP3    H272918   4.027   1.028   2.594
17143TIP3   OH272919   1.943   5.140   3.133
17143TIP3    H172920   1.869   5.137   3.193
17143TIP3    H272921   1.992   5.060   3.150
17144TIP3   OH272922   1.538   4.048  14.728
17144TIP3    H172923   1.496   4.088  14.804
17144TIP3    H272924   1.510   4.101  14.654
17145TIP3   OH272925   0.873   0.800  17.029
17145TIP3    H172926   0.792   0.750  17.023
17145TIP3    H272927   0.912   0.793  16.942
17146TIP3   OH272928   1.678   5.907   4.711
17146TIP3    H172929   1.677   5.811   4.720
17146TIP3    H272930   1.621   5.938   4.782
17147TIP3   OH272931   0.079   4.202   5.747
17147TIP3    H172932   0.011   4.144   5.713
17147TIP3    H272933   0.032   4.275   5.787
17148TIP3   OH272934   1.764   4.129  12.300
17148TIP3    H172935   1.693   4.079  12.341
17148TIP3    H272936   1.729   4.157  12.216
17149TIP3   OH272937   0.372   0.872   5.212
17149TIP3    H172938   0.293   0.831   5.246
17149TIP3    H272939   0.409   0.919   5.287
17150TIP3   OH272940   2.466   4.080  15.104
17150TIP3    H172941   2.474   4.151  15.168
17150TIP3    H272942   2.480   4.000  15.156
17151TIP3   OH272943   6.593   4.586  11.235
17151TIP3    H172944   6.592   4.585  11.140
17151TIP3    H272945   6.624   4.499  11.260
17152TIP3   OH272946   0.608   6.038   2.597
17152TIP3    H172947   0.674   5.982   2.558
17152TIP3    H272948   0.532   6.031   2.539
17153TIP3   OH272949   5.866   5.708  17.126
17153TIP3    H172950   5.845   5.618  17.148
17153TIP3    H272951   5.962   5.712  17.127
17154TIP3   OH272952   1.215   4.486   6.425
17154TIP3    H172953   1.216   4.409   6.481
17154TIP3    H272954   1.124   4.516   6.426
17155TIP3   OH272955   3.455   4.982   1.395
17155TIP3    H172956   3.495   5.035   1.326
17155TIP3    H272957   3.403   5.044   1.446
17156TIP3   OH272958   3.672   0.550  15.835
17156TIP3    H172959   3.680   0.548  15.740
17156TIP3    H272960   3.652   0.642  15.855
17157TIP3   OH272961   4.625   4.393   2.858
17157TIP3    H172962   4.686   4.320   2.860
17157TIP3    H272963   4.679   4.471   2.872
17158TIP3   OH272964   6.723   2.092  14.379
17158TIP3    H172965   6.648   2.107  14.321
17158TIP3    H272966   6.750   2.180  14.405
17159TIP3   OH272967   6.795   6.568   4.964
17159TIP3    H172968   6.801   6.562   5.060
17159TIP3    H272969   6.758   6.655   4.948
17160TIP3   OH272970   0.778   6.813  16.927
17160TIP3    H172971   0.689   6.788  16.904
17160TIP3    H272972   0.771   6.847  17.017
17161TIP3   OH272973   5.372   4.146  15.720
17161TIP3    H172974   5.438   4.079  15.738
17161TIP3    H272975   5.406   4.191  15.642
17162TIP3   OH272976   5.786   0.093   0.428
17162TIP3    H172977   5.804   0.068   0.519
17162TIP3    H272978   5.721   0.030   0.398
17163TIP3   OH272979   5.005   2.138   1.427
17163TIP3    H172980   5.054   2.139   1.345
17163TIP3    H272981   5.062   2.183   1.490
17164TIP3   OH272982   1.828   3.102   0.592
17164TIP3    H172983   1.739   3.126   0.566
17164TIP3    H272984   1.878   3.100   0.511
17165TIP3   OH272985   5.676   2.629   0.518
17165TIP3    H172986   5.729   2.555   0.545
17165TIP3    H272987   5.632   2.658   0.598
17166TIP3   OH272988   3.037   5.156   5.667
17166TIP3    H172989   2.988   5.166   5.749
17166TIP3    H272990   3.040   5.244   5.630
17167TIP3   OH272991   6.382   1.301  13.136
17167TIP3    H172992   6.353   1.300  13.228
17167TIP3    H272993   6.463   1.251  13.136
17168TIP3   OH272994   0.940   5.332   0.491
17168TIP3    H172995   0.919   5.343   0.583
17168TIP3    H272996   1.035   5.317   0.489
17169TIP3   OH272997   5.848   1.997   5.638
17169TIP3    H172998   5.910   2.068   5.651
17169TIP3    H272999   5.762   2.038   5.645
17170TIP3   OH273000   0.696   1.093   1.996
17170TIP3    H173001   0.683   1.188   1.998
17170TIP3    H273002   0.761   1.076   2.064
17171TIP3   OH273003   1.723   5.491  14.560
17171TIP3    H173004   1.748   5.583  14.570
17171TIP3    H273005   1.646   5.493  14.505
17172TIP3   OH273006   2.918   1.598  16.468
17172TIP3    H173007   2.840   1.548  16.444
17172TIP3    H273008   2.936   1.652  16.390
17173TIP3   OH273009   0.539   1.119   3.846
17173TIP3    H173010   0.509   1.203   3.809
17173TIP3    H273011   0.556   1.139   3.938
17174TIP3   OH273012   3.210   6.573  15.450
17174TIP3    H173013   3.192   6.544  15.361
17174TIP3    H273014   3.251   6.659  15.438
17175TIP3   OH273015   0.979   2.455   1.784
17175TIP3    H173016   0.969   2.375   1.733
17175TIP3    H273017   0.934   2.437   1.867
17176TIP3   OH273018   0.269   5.931   3.838
17176TIP3    H173019   0.301   6.014   3.873
17176TIP3    H273020   0.184   5.919   3.880
17177TIP3   OH273021   3.837   3.461  12.490
17177TIP3    H173022   3.854   3.522  12.562
17177TIP3    H273023   3.897   3.388  12.507
17178TIP3   OH273024   3.424   0.316   4.491
17178TIP3    H173025   3.430   0.406   4.459
17178TIP3    H273026   3.470   0.317   4.574
17179TIP3   OH273027   0.434   2.892  16.559
17179TIP3    H173028   0.431   2.925  16.649
17179TIP3    H273029   0.474   2.806  16.566
17180TIP3   OH273030   0.287   2.570  15.146
17180TIP3    H173031   0.274   2.663  15.162
17180TIP3    H273032   0.358   2.545  15.206
17181TIP3   OH273033   6.464   0.061  10.689
17181TIP3    H173034   6.499   0.148  10.670
17181TIP3    H273035   6.393   0.049  10.626
17182TIP3   OH273036   1.167   2.463  13.307
17182TIP3    H173037   1.163   2.398  13.237
17182TIP3    H273038   1.136   2.544  13.265
17183TIP3   OH273039   5.648   0.692  15.452
17183TIP3    H173040   5.643   0.787  15.451
17183TIP3    H273041   5.735   0.673  15.487
17184TIP3   OH273042   1.392   4.416   4.985
17184TIP3    H173043   1.436   4.459   4.911
17184TIP3    H273044   1.428   4.459   5.062
17185TIP3   OH273045   5.317   4.335   3.467
17185TIP3    H173046   5.283   4.262   3.519
17185TIP3    H273047   5.292   4.314   3.377
17186TIP3   OH273048   6.096   0.290   3.844
17186TIP3    H173049   6.136   0.223   3.899
17186TIP3    H273050   6.163   0.308   3.777
17187TIP3   OH273051   3.649   3.241  11.151
17187TIP3    H173052   3.739   3.250  11.119
17187TIP3    H273053   3.633   3.147  11.151
17188TIP3   OH273054   1.875   1.119  15.979
17188TIP3    H173055   1.902   1.034  15.942
17188TIP3    H273056   1.781   1.109  15.995
17189TIP3   OH273057   6.172   1.101  11.561
17189TIP3    H173058   6.103   1.148  11.514
17189TIP3    H273059   6.246   1.162  11.561
17190TIP3   OH273060   6.597   0.971   3.166
17190TIP3    H173061   6.639   0.892   3.201
17190TIP3    H273062   6.657   1.003   3.098
17191TIP3   OH273063   4.977   2.268   6.021
17191TIP3    H173064   4.908   2.330   6.000
17191TIP3    H273065   5.045   2.321   6.063
17192TIP3   OH273066   0.835   4.942   5.244
17192TIP3    H173067   0.926   4.925   5.221
17192TIP3    H273068   0.841   4.999   5.321
17193TIP3   OH273069   3.776   6.214   5.108
17193TIP3    H173070   3.789   6.305   5.136
17193TIP3    H273071   3.683   6.197   5.127
17194TIP3   OH273072   3.859   5.392  16.828
17194TIP3    H173073   3.941   5.432  16.799
17194TIP3    H273074   3.868   5.384  16.923
17195TIP3   OH273075   4.261   5.369  11.346
17195TIP3    H173076   4.316   5.345  11.420
17195TIP3    H273077   4.225   5.455  11.369
17196TIP3   OH273078   3.474   0.982   3.578
17196TIP3    H173079   3.450   0.901   3.622
17196TIP3    H273080   3.462   1.050   3.644
17197TIP3   OH273081   1.168   6.724  14.041
17197TIP3    H173082   1.183   6.800  13.986
17197TIP3    H273083   1.112   6.667  13.988
17198TIP3   OH273084   3.363   2.418  13.436
17198TIP3    H173085   3.442   2.407  13.488
17198TIP3    H273086   3.393   2.446  13.350
17199TIP3   OH273087   4.154   3.598   0.073
17199TIP3    H173088   4.176   3.545  -0.004
17199TIP3    H273089   4.190   3.685   0.053
17200TIP3   OH273090   4.641   1.900   3.934
17200TIP3    H173091   4.562   1.920   3.884
17200TIP3    H273092   4.633   1.953   4.013
17201TIP3   OH273093   6.756   2.565  13.124
17201TIP3    H173094   6.789   2.484  13.162
17201TIP3    H273095   6.716   2.611  13.198
17202TIP3   OH273096   4.119   4.539  15.410
17202TIP3    H173097   4.083   4.616  15.365
17202TIP3    H273098   4.050   4.512  15.470
17203TIP3   OH273099   4.670   0.410   5.099
17203TIP3    H173100   4.576   0.426   5.106
17203TIP3    H273101   4.709   0.496   5.086
17204TIP3   OH273102   0.502   3.560   3.187
17204TIP3    H173103   0.506   3.615   3.265
17204TIP3    H273104   0.514   3.471   3.220
17205TIP3   OH273105   1.283   6.265   3.218
17205TIP3    H173106   1.215   6.204   3.189
17205TIP3    H273107   1.340   6.211   3.273
17206TIP3   OH273108   1.825   1.317   3.690
17206TIP3    H173109   1.874   1.380   3.637
17206TIP3    H273110   1.742   1.305   3.643
17207TIP3   OH273111   1.401   3.142  16.505
17207TIP3    H173112   1.446   3.197  16.570
17207TIP3    H273113   1.313   3.179  16.500
17208TIP3   OH273114   3.898   4.127   4.282
17208TIP3    H173115   3.813   4.084   4.273
17208TIP3    H273116   3.962   4.059   4.258
17209TIP3   OH273117   2.575   0.895  12.105
17209TIP3    H173118   2.605   0.856  12.188
17209TIP3    H273119   2.655   0.931  12.067
17210TIP3   OH273120   3.580   2.688  10.984
17210TIP3    H173121   3.508   2.714  10.926
17210TIP3    H273122   3.543   2.694  11.072
17211TIP3   OH273123   5.314   5.472   0.166
17211TIP3    H173124   5.250   5.528   0.210
17211TIP3    H273125   5.313   5.391   0.216
17212TIP3   OH273126   6.151   1.823   0.696
17212TIP3    H173127   6.071   1.806   0.647
17212TIP3    H273128   6.136   1.907   0.738
17213TIP3   OH273129   4.174   0.970  16.815
17213TIP3    H173130   4.203   1.043  16.870
17213TIP3    H273131   4.239   0.901  16.832
17214TIP3   OH273132   3.201   4.233   5.789
17214TIP3    H173133   3.223   4.208   5.878
17214TIP3    H273134   3.115   4.274   5.795
17215TIP3   OH273135   5.673   6.669  16.992
17215TIP3    H173136   5.674   6.693  16.900
17215TIP3    H273137   5.586   6.631  17.007
17216TIP3   OH273138   2.909   1.755  10.887
17216TIP3    H173139   2.858   1.678  10.862
17216TIP3    H273140   2.990   1.720  10.923
17217TIP3   OH273141   2.617   6.257  17.051
17217TIP3    H173142   2.558   6.331  17.037
17217TIP3    H273143   2.669   6.281  17.127
17218TIP3   OH273144   6.377   3.537   0.310
17218TIP3    H173145   6.398   3.616   0.259
17218TIP3    H273146   6.329   3.481   0.249
17219TIP3   OH273147   5.029   4.285   2.405
17219TIP3    H173148   4.972   4.341   2.458
17219TIP3    H273149   5.070   4.226   2.468
17220TIP3   OH273150   0.194   1.291   5.956
17220TIP3    H173151   0.121   1.229   5.963
17220TIP3    H273152   0.191   1.341   6.037
17221TIP3   OH273153   6.537   1.444   1.653
17221TIP3    H173154   6.492   1.360   1.662
17221TIP3    H273155   6.586   1.436   1.572
17222TIP3   OH273156   6.260   5.335   1.117
17222TIP3    H173157   6.270   5.428   1.098
17222TIP3    H273158   6.343   5.296   1.089
17223TIP3   OH273159   5.857   3.738  11.156
17223TIP3    H173160   5.852   3.670  11.089
17223TIP3    H273161   5.913   3.701  11.224
17224TIP3   OH273162   4.223   2.774  12.701
17224TIP3    H173163   4.173   2.853  12.683
17224TIP3    H273164   4.159   2.712  12.737
17225TIP3   OH273165   0.858   4.284  15.581
17225TIP3    H173166   0.893   4.347  15.643
17225TIP3    H273167   0.841   4.335  15.502
17226TIP3   OH273168   2.879   3.650  15.474
17226TIP3    H173169   2.963   3.656  15.427
17226TIP3    H273170   2.816   3.622  15.407
17227TIP3   OH273171   2.030   5.224  16.931
17227TIP3    H173172   1.943   5.265  16.925
17227TIP3    H273173   2.014   5.141  16.976
17228TIP3   OH273174   4.774   6.211  15.567
17228TIP3    H173175   4.837   6.257  15.512
17228TIP3    H273176   4.829   6.168  15.634
17229TIP3   OH273177   1.303   4.837  11.879
17229TIP3    H173178   1.235   4.863  11.941
17229TIP3    H273179   1.293   4.743  11.870
17230TIP3   OH273180   6.818   5.228   3.917
17230TIP3    H173181   6.855   5.314   3.936
17230TIP3    H273182   6.730   5.231   3.956
17231TIP3   OH273183   0.089   3.706   4.402
17231TIP3    H173184   0.029   3.635   4.380
17231TIP3    H273185   0.131   3.677   4.483
17232TIP3   OH273186   2.379   0.315   1.471
17232TIP3    H173187   2.403   0.407   1.488
17232TIP3    H273188   2.422   0.266   1.541
17233TIP3   OH273189   0.977   3.061   2.493
17233TIP3    H173190   0.978   3.007   2.413
17233TIP3    H273191   0.903   3.120   2.481
17234TIP3   OH273192   5.800   5.330   2.623
17234TIP3    H173193   5.705   5.334   2.633
17234TIP3    H273194   5.818   5.238   2.606
17235TIP3   OH273195   1.177   1.377  14.436
17235TIP3    H173196   1.272   1.376  14.443
17235TIP3    H273197   1.146   1.377  14.526
17236TIP3   OH273198   3.544   2.845   0.324
17236TIP3    H173199   3.587   2.821   0.406
17236TIP3    H273200   3.478   2.910   0.350
17237TIP3   OH273201   5.057   0.887  15.962
17237TIP3    H173202   5.063   0.982  15.953
17237TIP3    H273203   4.964   0.871  15.976
17238TIP3   OH273204   2.658   6.234   4.527
17238TIP3    H173205   2.671   6.156   4.581
17238TIP3    H273206   2.620   6.298   4.587
17239TIP3   OH273207   4.143   5.128   4.597
17239TIP3    H173208   4.047   5.128   4.592
17239TIP3    H273209   4.168   5.036   4.594
17240TIP3   OH273210   2.237   6.738  15.599
17240TIP3    H173211   2.153   6.778  15.574
17240TIP3    H273212   2.297   6.812  15.608
17241TIP3   OH273213   2.784   0.179   3.456
17241TIP3    H173214   2.761   0.258   3.505
17241TIP3    H273215   2.739   0.188   3.372
17242TIP3   OH273216   2.177   5.572  10.677
17242TIP3    H173217   2.271   5.560  10.691
17242TIP3    H273218   2.146   5.485  10.652
17243TIP3   OH273219   2.386   3.800   3.924
17243TIP3    H173220   2.337   3.798   4.006
17243TIP3    H273221   2.456   3.864   3.940
17244TIP3   OH273222   0.470   5.021   5.191
17244TIP3    H173223   0.455   5.023   5.096
17244TIP3    H273224   0.434   4.936   5.218
17245TIP3   OH273225   3.537   0.415  12.462
17245TIP3    H173226   3.590   0.343  12.497
17245TIP3    H273227   3.579   0.494  12.496
17246TIP3   OH273228   4.265   0.535   3.565
17246TIP3    H173229   4.335   0.582   3.612
17246TIP3    H273230   4.312   0.485   3.498
17247TIP3   OH273231   3.386   4.072  14.919
17247TIP3    H173232   3.408   4.160  14.889
17247TIP3    H273233   3.339   4.032  14.846
17248TIP3   OH273234   3.995   4.142   0.726
17248TIP3    H173235   4.085   4.128   0.697
17248TIP3    H273236   3.996   4.228   0.768
17249TIP3   OH273237   3.271   4.217  13.897
17249TIP3    H173238   3.307   4.171  13.972
17249TIP3    H273239   3.191   4.259  13.930
17250TIP3   OH273240   0.154   5.702   4.886
17250TIP3    H173241   0.216   5.764   4.849
17250TIP3    H273242   0.150   5.631   4.822
17251TIP3   OH273243   5.233   4.723   3.897
17251TIP3    H173244   5.315   4.745   3.942
17251TIP3    H273245   5.252   4.640   3.853
17252TIP3   OH273246   0.597   4.366   1.292
17252TIP3    H173247   0.576   4.275   1.311
17252TIP3    H273248   0.632   4.401   1.374
17253TIP3   OH273249   2.955   3.658  15.092
17253TIP3    H173250   3.049   3.665  15.109
17253TIP3    H273251   2.949   3.610  15.009
17254TIP3   OH273252   3.781   5.054   3.414
17254TIP3    H173253   3.773   5.123   3.348
17254TIP3    H273254   3.773   4.973   3.365
17255TIP3   OH273255   6.744   5.610  11.703
17255TIP3    H173256   6.808   5.599  11.773
17255TIP3    H273257   6.663   5.636  11.747
17256TIP3   OH273258   6.756   4.899  13.715
17256TIP3    H173259   6.740   4.805  13.708
17256TIP3    H273260   6.743   4.919  13.807
17257TIP3   OH273261   2.234   2.644  12.914
17257TIP3    H173262   2.166   2.617  12.852
17257TIP3    H273263   2.187   2.696  12.979
17258TIP3   OH273264   0.460   1.260  15.885
17258TIP3    H173265   0.411   1.312  15.950
17258TIP3    H273266   0.538   1.230  15.932
17259TIP3   OH273267   5.088   3.630   2.702
17259TIP3    H173268   5.102   3.535   2.698
17259TIP3    H273269   5.163   3.664   2.751
17260TIP3   OH273270   4.684   1.817  12.999
17260TIP3    H173271   4.603   1.775  13.027
17260TIP3    H273272   4.733   1.748  12.955
17261TIP3   OH273273   5.877   0.010  13.680
17261TIP3    H173274   5.903  -0.081  13.689
17261TIP3    H273275   5.942   0.049  13.622
17262TIP3   OH273276   2.865   3.124  13.339
17262TIP3    H173277   2.909   3.113  13.423
17262TIP3    H273278   2.842   3.035  13.313
17263TIP3   OH273279   2.267   2.738  14.785
17263TIP3    H173280   2.248   2.703  14.698
17263TIP3    H273281   2.283   2.831  14.771
17264TIP3   OH273282   3.228   1.729   1.768
17264TIP3    H173283   3.293   1.720   1.698
17264TIP3    H273284   3.191   1.816   1.756
17265TIP3   OH273285   5.443   5.349   4.433
17265TIP3    H173286   5.479   5.431   4.399
17265TIP3    H273287   5.369   5.330   4.375
17266TIP3   OH273288   0.167   2.876   1.346
17266TIP3    H173289   0.121   2.826   1.279
17266TIP3    H273290   0.098   2.908   1.403
17267TIP3   OH273291   1.189   6.508   6.088
17267TIP3    H173292   1.111   6.549   6.050
17267TIP3    H273293   1.255   6.578   6.088
17268TIP3   OH273294   3.001   5.946  14.822
17268TIP3    H173295   3.056   6.024  14.812
17268TIP3    H273296   2.961   5.955  14.909
17269TIP3   OH273297   1.927   1.582   4.691
17269TIP3    H173298   1.841   1.540   4.683
17269TIP3    H273299   1.920   1.635   4.770
17270TIP3   OH273300   2.510   2.840  13.001
17270TIP3    H173301   2.454   2.887  12.939
17270TIP3    H273302   2.566   2.786  12.945
17271TIP3   OH273303   5.543   6.667   1.780
17271TIP3    H173304   5.604   6.707   1.842
17271TIP3    H273305   5.508   6.592   1.827
17272TIP3   OH273306   0.797   5.796   4.506
17272TIP3    H173307   0.750   5.720   4.471
17272TIP3    H273308   0.860   5.819   4.439
17273TIP3   OH273309   0.232   2.093  14.639
17273TIP3    H173310   0.166   2.097  14.708
17273TIP3    H273311   0.292   2.024  14.668
17274TIP3   OH273312   6.651   5.543   3.637
17274TIP3    H173313   6.654   5.556   3.732
17274TIP3    H273314   6.666   5.630   3.600
17275TIP3   OH273315   0.281   0.616   4.687
17275TIP3    H173316   0.202   0.653   4.648
17275TIP3    H273317   0.277   0.523   4.665
17276TIP3   OH273318   2.811   1.006  14.869
17276TIP3    H173319   2.779   1.088  14.907
17276TIP3    H273320   2.772   0.937  14.923
17277TIP3   OH273321   1.221   0.675  16.175
17277TIP3    H173322   1.191   0.588  16.150
17277TIP3    H273323   1.144   0.717  16.214
17278TIP3   OH273324   5.626   6.491   5.667
17278TIP3    H173325   5.663   6.567   5.712
17278TIP3    H273326   5.552   6.526   5.618
17279TIP3   OH273327   1.922   6.740  13.234
17279TIP3    H173328   1.866   6.802  13.281
17279TIP3    H273329   1.866   6.702  13.167
17280TIP3   OH273330   2.328   0.630  15.460
17280TIP3    H173331   2.343   0.686  15.537
17280TIP3    H273332   2.370   0.676  15.388
17281TIP3   OH273333   1.946   5.950   1.462
17281TIP3    H173334   1.993   5.995   1.534
17281TIP3    H273335   1.854   5.954   1.488
17282TIP3   OH273336   1.309   3.947   2.684
17282TIP3    H173337   1.342   3.907   2.604
17282TIP3    H273338   1.297   4.039   2.662
17283TIP3   OH273339   2.086   2.073   4.437
17283TIP3    H173340   1.997   2.056   4.465
17283TIP3    H273341   2.132   2.101   4.516
17284TIP3   OH273342   2.984   5.728   4.517
17284TIP3    H173343   3.033   5.795   4.470
17284TIP3    H273344   2.935   5.682   4.449
17285TIP3   OH273345   4.584   4.870  16.353
17285TIP3    H173346   4.520   4.799  16.344
17285TIP3    H273347   4.661   4.827  16.390
17286TIP3   OH273348   0.296   1.086   5.805
17286TIP3    H173349   0.272   1.163   5.857
17286TIP3    H273350   0.366   1.044   5.855
17287TIP3   OH273351   3.284   0.031  16.493
17287TIP3    H173352   3.293  -0.064  16.487
17287TIP3    H273353   3.190   0.045  16.503
17288TIP3   OH273354   4.088   4.714  15.201
17288TIP3    H173355   4.182   4.697  15.200
17288TIP3    H273356   4.081   4.808  15.218
17289TIP3   OH273357   0.533   2.394  17.180
17289TIP3    H173358   0.540   2.317  17.236
17289TIP3    H273359   0.450   2.382  17.133
17290TIP3   OH273360   1.439   5.204  14.888
17290TIP3    H173361   1.392   5.188  14.807
17290TIP3    H273362   1.378   5.179  14.957
17291TIP3   OH273363   5.603   6.609   4.378
17291TIP3    H173364   5.594   6.629   4.284
17291TIP3    H273365   5.576   6.689   4.422
17292TIP3   OH273366   2.647   3.851   3.691
17292TIP3    H173367   2.555   3.835   3.670
17292TIP3    H273368   2.647   3.933   3.740
17293TIP3   OH273369   1.833   2.823  17.245
17293TIP3    H173370   1.909   2.779  17.284
17293TIP3    H273371   1.846   2.812  17.150
17294TIP3   OH273372   0.002   4.449   5.592
17294TIP3    H173373   0.005   4.497   5.509
17294TIP3    H273374  -0.012   4.358   5.566
17295TIP3   OH273375   0.727   3.761  14.378
17295TIP3    H173376   0.649   3.796  14.420
17295TIP3    H273377   0.733   3.670  14.408
17296TIP3   OH273378   6.498   3.863   1.067
17296TIP3    H173379   6.445   3.863   1.147
17296TIP3    H273380   6.582   3.827   1.095
17297TIP3   OH273381   4.099   6.635   1.222
17297TIP3    H173382   4.148   6.609   1.144
17297TIP3    H273383   4.037   6.564   1.236
17298TIP3   OH273384   1.434   2.112  15.503
17298TIP3    H173385   1.497   2.046  15.531
17298TIP3    H273386   1.349   2.067  15.506
17299TIP3   OH273387   1.816   3.606  15.770
17299TIP3    H173388   1.851   3.523  15.738
17299TIP3    H273389   1.746   3.628  15.709
17300TIP3   OH273390   2.601   4.737  10.529
17300TIP3    H173391   2.613   4.692  10.446
17300TIP3    H273392   2.633   4.675  10.595
17301TIP3   OH273393   0.249   1.292  12.708
17301TIP3    H173394   0.175   1.344  12.676
17301TIP3    H273395   0.294   1.263  12.629
17302TIP3   OH273396   5.667   4.312  13.316
17302TIP3    H173397   5.577   4.286  13.338
17302TIP3    H273398   5.656   4.391  13.264
17303TIP3   OH273399   4.025   0.328  14.754
17303TIP3    H173400   4.016   0.285  14.839
17303TIP3    H273401   4.062   0.414  14.775
17304TIP3   OH273402   5.459   1.384   5.341
17304TIP3    H173403   5.442   1.291   5.356
17304TIP3    H273404   5.517   1.385   5.265
17305TIP3   OH273405   2.463   5.787   6.347
17305TIP3    H173406   2.397   5.717   6.352
17305TIP3    H273407   2.463   5.825   6.435
17306TIP3   OH273408   2.752   1.572   5.208
17306TIP3    H173409   2.753   1.509   5.136
17306TIP3    H273410   2.836   1.559   5.251
17307TIP3   OH273411   0.427   0.465   3.844
17307TIP3    H173412   0.391   0.478   3.756
17307TIP3    H273413   0.520   0.487   3.835
17308TIP3   OH273414   2.348   6.693  12.863
17308TIP3    H173415   2.324   6.697  12.770
17308TIP3    H273416   2.284   6.633  12.902
17309TIP3   OH273417   1.493   5.847   2.800
17309TIP3    H173418   1.462   5.903   2.871
17309TIP3    H273419   1.427   5.857   2.731
17310TIP3   OH273420   2.564   2.233   1.703
17310TIP3    H173421   2.581   2.313   1.653
17310TIP3    H273422   2.539   2.169   1.636
17311TIP3   OH273423   1.030   5.278   1.395
17311TIP3    H173424   1.068   5.339   1.331
17311TIP3    H273425   0.936   5.286   1.382
17312TIP3   OH273426   1.439   5.038   4.931
17312TIP3    H173427   1.525   5.037   4.888
17312TIP3    H273428   1.446   5.107   4.996
17313TIP3   OH273429   5.075   4.705   2.376
17313TIP3    H173430   5.164   4.700   2.411
17313TIP3    H273431   5.074   4.786   2.325
17314TIP3   OH273432   2.396   3.382  16.613
17314TIP3    H173433   2.353   3.463  16.640
17314TIP3    H273434   2.340   3.313  16.648
17315TIP3   OH273435   4.113   3.067   4.800
17315TIP3    H173436   4.147   3.029   4.880
17315TIP3    H273437   4.018   3.071   4.813
17316TIP3   OH273438   5.072   1.201  12.034
17316TIP3    H173439   5.065   1.142  11.959
17316TIP3    H273440   4.991   1.189  12.082
17317TIP3   OH273441   1.531   4.793  14.759
17317TIP3    H173442   1.491   4.851  14.694
17317TIP3    H273443   1.530   4.707  14.717
17318TIP3   OH273444   1.559   6.758   1.065
17318TIP3    H173445   1.635   6.817   1.068
17318TIP3    H273446   1.484   6.817   1.060
17319TIP3   OH273447   4.573   3.812  13.390
17319TIP3    H173448   4.506   3.753  13.354
17319TIP3    H273449   4.581   3.881  13.324
17320TIP3   OH273450   4.930   0.454   4.175
17320TIP3    H173451   4.920   0.510   4.252
17320TIP3    H273452   4.915   0.365   4.208
17321TIP3   OH273453   2.628   5.618   3.593
17321TIP3    H173454   2.717   5.591   3.570
17321TIP3    H273455   2.574   5.583   3.522
17322TIP3   OH273456   0.792   3.895  13.635
17322TIP3    H173457   0.852   3.834  13.678
17322TIP3    H273458   0.791   3.971  13.693
17323TIP3   OH273459   0.919   6.066  13.141
17323TIP3    H173460   0.849   6.012  13.177
17323TIP3    H273461   0.888   6.091  13.054
17324TIP3   OH273462   4.305   1.736   4.916
17324TIP3    H173463   4.219   1.746   4.959
17324TIP3    H273464   4.327   1.644   4.929
17325TIP3   OH273465   1.531   0.277   5.251
17325TIP3    H173466   1.516   0.368   5.227
17325TIP3    H273467   1.627   0.268   5.253
17326TIP3   OH273468   2.126   6.286  13.435
17326TIP3    H173469   2.089   6.234  13.364
17326TIP3    H273470   2.131   6.226  13.509
17327TIP3   OH273471   5.566   0.531  16.001
17327TIP3    H173472   5.479   0.530  16.042
17327TIP3    H273473   5.577   0.443  15.965
17328TIP3   OH273474   3.321   6.620   1.191
17328TIP3    H173475   3.356   6.534   1.214
17328TIP3    H273476   3.373   6.682   1.243
17329TIP3   OH273477   6.418   1.358  14.240
17329TIP3    H173478   6.449   1.396  14.157
17329TIP3    H273479   6.488   1.377  14.302
17330TIP3   OH273480   0.852   2.876   0.001
17330TIP3    H173481   0.921   2.910  -0.056
17330TIP3    H273482   0.815   2.802  -0.047
17331TIP3   OH273483   3.677   1.265   0.461
17331TIP3    H173484   3.708   1.303   0.543
17331TIP3    H273485   3.685   1.337   0.398
17332TIP3   OH273486   2.758   4.189  14.638
17332TIP3    H173487   2.704   4.183  14.718
17332TIP3    H273488   2.741   4.277  14.605
17333TIP3   OH273489   2.825   2.730  15.691
17333TIP3    H173490   2.845   2.814  15.648
17333TIP3    H273491   2.758   2.752  15.755
17334TIP3   OH273492   5.203   3.435   0.235
17334TIP3    H173493   5.287   3.481   0.248
17334TIP3    H273494   5.205   3.363   0.298
17335TIP3   OH273495   6.158   1.084   6.002
17335TIP3    H173496   6.076   1.073   6.049
17335TIP3    H273497   6.213   1.012   6.034
17336TIP3   OH273498   1.900   3.078   4.906
17336TIP3    H173499   1.866   3.069   4.816
17336TIP3    H273500   1.829   3.044   4.961
17337TIP3   OH273501   0.250   6.012  16.832
17337TIP3    H173502   0.209   6.067  16.899
17337TIP3    H273503   0.315   5.960  16.879
17338TIP3   OH273504   0.579   3.926  15.741
17338TIP3    H173505   0.546   4.014  15.721
17338TIP3    H273506   0.658   3.942  15.792
17339TIP3   OH273507   1.272   5.724   4.754
17339TIP3    H173508   1.365   5.724   4.732
17339TIP3    H273509   1.248   5.817   4.753
17340TIP3   OH273510   0.072   4.121   0.437
17340TIP3    H173511   0.145   4.115   0.376
17340TIP3    H273512   0.049   4.030   0.456
17341TIP3   OH273513   2.693   1.612   1.808
17341TIP3    H173514   2.764   1.675   1.794
17341TIP3    H273515   2.621   1.665   1.842
17342TIP3   OH273516   5.954   5.462   2.398
17342TIP3    H173517   5.897   5.490   2.326
17342TIP3    H273518   5.894   5.436   2.467
17343TIP3   OH273519   0.243   5.724   6.572
17343TIP3    H173520   0.217   5.796   6.630
17343TIP3    H273521   0.301   5.670   6.626
17344TIP3   OH273522   3.182   5.083   0.854
17344TIP3    H173523   3.209   5.021   0.787
17344TIP3    H273524   3.137   5.153   0.806
17345TIP3   OH273525   6.244   0.377  16.029
17345TIP3    H173526   6.308   0.444  16.006
17345TIP3    H273527   6.267   0.352  16.119
17346TIP3   OH273528   6.002   1.162   6.237
17346TIP3    H173529   5.991   1.069   6.259
17346TIP3    H273530   6.060   1.196   6.304
17347TIP3   OH273531   6.163   0.367   0.212
17347TIP3    H173532   6.206   0.404   0.135
17347TIP3    H273533   6.231   0.316   0.256
17348TIP3   OH273534   4.255   5.198   3.147
17348TIP3    H173535   4.281   5.195   3.239
17348TIP3    H273536   4.317   5.259   3.106
17349TIP3   OH273537   6.302   2.940  16.507
17349TIP3    H173538   6.344   2.856  16.491
17349TIP3    H273539   6.258   2.961  16.425
17350TIP3   OH273540   5.826   2.920   5.202
17350TIP3    H173541   5.755   2.977   5.230
17350TIP3    H273542   5.827   2.849   5.265
17351TIP3   OH273543   3.929   6.311  11.514
17351TIP3    H173544   3.938   6.335  11.606
17351TIP3    H273545   3.987   6.372  11.468
17352TIP3   OH273546   2.942   0.472  14.365
17352TIP3    H173547   2.887   0.412  14.315
17352TIP3    H273548   2.903   0.473  14.453
17353TIP3   OH273549   5.432   5.457  11.058
17353TIP3    H173550   5.367   5.443  11.127
17353TIP3    H273551   5.383   5.445  10.977
17354TIP3   OH273552   3.569   1.207  15.360
17354TIP3    H173553   3.477   1.184  15.377
17354TIP3    H273554   3.593   1.156  15.283
17355TIP3   OH273555   6.139   1.624   2.035
17355TIP3    H173556   6.126   1.575   2.117
17355TIP3    H273557   6.195   1.698   2.060
17356TIP3   OH273558   0.612   1.217   0.452
17356TIP3    H173559   0.565   1.244   0.531
17356TIP3    H273560   0.636   1.126   0.469
17357TIP3   OH273561   2.735   3.596  15.245
17357TIP3    H173562   2.682   3.560  15.174
17357TIP3    H273563   2.820   3.615  15.203
17358TIP3   OH273564   0.023   6.663   0.614
17358TIP3    H173565  -0.025   6.592   0.658
17358TIP3    H273566   0.068   6.709   0.685
17359TIP3   OH273567   1.437   2.292   2.634
17359TIP3    H173568   1.526   2.302   2.603
17359TIP3    H273569   1.383   2.340   2.570
17360TIP3   OH273570   5.436   0.041  11.383
17360TIP3    H173571   5.387  -0.039  11.364
17360TIP3    H273572   5.436   0.089  11.301
17361TIP3   OH273573   1.726   0.842  14.932
17361TIP3    H173574   1.727   0.763  14.986
17361TIP3    H273575   1.816   0.874  14.935
17362TIP3   OH273576   5.666   5.667  14.856
17362TIP3    H173577   5.676   5.599  14.922
17362TIP3    H273578   5.728   5.735  14.881
17363TIP3   OH273579   4.120   3.155  12.068
17363TIP3    H173580   4.104   3.088  12.002
17363TIP3    H273581   4.072   3.126  12.145
17364TIP3   OH273582   1.653   2.324   3.089
17364TIP3    H173583   1.692   2.248   3.047
17364TIP3    H273584   1.637   2.386   3.018
17365TIP3   OH273585   3.838   3.976  14.184
17365TIP3    H173586   3.855   3.889  14.149
17365TIP3    H273587   3.924   4.016  14.193
17366TIP3   OH273588   1.694   2.483  16.775
17366TIP3    H173589   1.604   2.471  16.803
17366TIP3    H273590   1.694   2.567  16.729
17367TIP3   OH273591   5.423   6.642   5.542
17367TIP3    H173592   5.362   6.711   5.568
17367TIP3    H273593   5.419   6.643   5.446
17368TIP3   OH273594   0.485   1.035  13.408
17368TIP3    H173595   0.551   1.097  13.439
17368TIP3    H273596   0.527   0.990  13.334
17369TIP3   OH273597   0.944   5.514   5.706
17369TIP3    H173598   1.038   5.528   5.719
17369TIP3    H273599   0.939   5.433   5.654
17370TIP3   OH273600   2.819   6.265   0.694
17370TIP3    H173601   2.898   6.259   0.748
17370TIP3    H273602   2.851   6.254   0.604
17371TIP3   OH273603   5.479   0.431   5.279
17371TIP3    H173604   5.538   0.418   5.353
17371TIP3    H273605   5.397   0.388   5.305
17372TIP3   OH273606   4.906   6.072  12.534
17372TIP3    H173607   4.881   6.163  12.546
17372TIP3    H273608   4.823   6.026  12.523
17373TIP3   OH273609   2.279   3.611  17.040
17373TIP3    H173610   2.295   3.581  17.129
17373TIP3    H273611   2.305   3.703  17.041
17374TIP3   OH273612   4.590   5.084   3.947
17374TIP3    H173613   4.598   5.162   4.001
17374TIP3    H273614   4.587   5.117   3.857
17375TIP3   OH273615   2.612   2.682   3.231
17375TIP3    H173616   2.616   2.613   3.164
17375TIP3    H273617   2.529   2.726   3.215
17376TIP3   OH273618   2.937   5.501  12.413
17376TIP3    H173619   3.002   5.523  12.345
17376TIP3    H273620   2.988   5.457  12.481
17377TIP3   OH273621   3.234   6.303   0.281
17377TIP3    H173622   3.193   6.284   0.197
17377TIP3    H273623   3.218   6.225   0.334
17378TIP3   OH273624   1.555   3.090   5.974
17378TIP3    H173625   1.536   3.094   5.881
17378TIP3    H273626   1.473   3.112   6.017
17379TIP3   OH273627   2.849   2.226   4.924
17379TIP3    H173628   2.839   2.318   4.950
17379TIP3    H273629   2.928   2.225   4.871
17380TIP3   OH273630   4.887   2.510  14.582
17380TIP3    H173631   4.905   2.429  14.629
17380TIP3    H273632   4.917   2.493  14.492
17381TIP3   OH273633   3.292   1.143  15.266
17381TIP3    H173634   3.238   1.201  15.319
17381TIP3    H273635   3.242   1.061  15.262
17382TIP3   OH273636   0.427   5.761  11.980
17382TIP3    H173637   0.380   5.677  11.983
17382TIP3    H273638   0.357   5.827  11.986
17383TIP3   OH273639   6.812   2.953  12.987
17383TIP3    H173640   6.817   3.008  12.908
17383TIP3    H273641   6.794   2.865  12.954
17384TIP3   OH273642   1.423   2.108  10.954
17384TIP3    H173643   1.377   2.058  10.887
17384TIP3    H273644   1.462   2.042  11.011
17385TIP3   OH273645   0.114   6.141   2.998
17385TIP3    H173646   0.209   6.127   3.007
17385TIP3    H273647   0.098   6.136   2.904
17386TIP3   OH273648   3.977   5.697  14.053
17386TIP3    H173649   3.930   5.665  13.976
17386TIP3    H273650   3.992   5.790  14.036
17387TIP3   OH273651   3.915   0.269   5.450
17387TIP3    H173652   3.886   0.360   5.451
17387TIP3    H273653   3.901   0.238   5.540
17388TIP3   OH273654   5.767   4.836  14.998
17388TIP3    H173655   5.809   4.771  14.941
17388TIP3    H273656   5.840   4.886  15.035
17389TIP3   OH273657   5.330   3.459  14.632
17389TIP3    H173658   5.368   3.502  14.709
17389TIP3    H273659   5.374   3.375  14.627
17390TIP3   OH273660   5.690   3.921   3.632
17390TIP3    H173661   5.627   3.984   3.668
17390TIP3    H273662   5.670   3.917   3.539
17391TIP3   OH273663   1.235   4.047   2.287
17391TIP3    H173664   1.328   4.068   2.289
17391TIP3    H273665   1.192   4.124   2.326
17392TIP3   OH273666   1.021   6.643  13.335
17392TIP3    H173667   1.116   6.656  13.337
17392TIP3    H273668   1.010   6.560  13.288
17393TIP3   OH273669   5.753   6.697   2.947
17393TIP3    H173670   5.747   6.762   3.017
17393TIP3    H273671   5.829   6.644   2.971
17394TIP3   OH273672   6.248   3.229  10.850
17394TIP3    H173673   6.237   3.192  10.762
17394TIP3    H273674   6.327   3.281  10.844
17395TIP3   OH273675   1.560   5.088  10.811
17395TIP3    H173676   1.598   5.086  10.723
17395TIP3    H273677   1.514   5.172  10.815
17396TIP3   OH273678   4.681   4.823  11.968
17396TIP3    H173679   4.685   4.858  12.057
17396TIP3    H273680   4.592   4.787  11.961
17397TIP3   OH273681   3.747   0.186   2.276
17397TIP3    H173682   3.683   0.118   2.300
17397TIP3    H273683   3.739   0.252   2.345
17398TIP3   OH273684   3.567   6.431  14.174
17398TIP3    H173685   3.597   6.351  14.218
17398TIP3    H273686   3.620   6.435  14.095
17399TIP3   OH273687   0.597   2.150   0.283
17399TIP3    H173688   0.593   2.164   0.188
17399TIP3    H273689   0.577   2.057   0.294
17400TIP3   OH273690   0.422   1.412   4.171
17400TIP3    H173691   0.446   1.320   4.161
17400TIP3    H273692   0.425   1.426   4.266
17401TIP3   OH273693   0.479   0.409   1.046
17401TIP3    H173694   0.404   0.468   1.037
17401TIP3    H273695   0.475   0.353   0.969
17402TIP3   OH273696   5.593   2.724  14.621
17402TIP3    H173697   5.514   2.761  14.661
17402TIP3    H273698   5.560   2.684  14.540
17403TIP3   OH273699   3.141   0.303   4.507
17403TIP3    H173700   3.125   0.298   4.412
17403TIP3    H273701   3.236   0.309   4.514
17404TIP3   OH273702   2.555   0.691   3.634
17404TIP3    H173703   2.563   0.751   3.708
17404TIP3    H273704   2.529   0.608   3.674
17405TIP3   OH273705   5.025   4.386   5.186
17405TIP3    H173706   5.035   4.389   5.281
17405TIP3    H273707   5.083   4.454   5.153
17406TIP3   OH273708   4.084   5.051   0.771
17406TIP3    H173709   4.090   4.991   0.845
17406TIP3    H273710   3.996   5.039   0.738
17407TIP3   OH273711   4.832   5.545  11.043
17407TIP3    H173712   4.921   5.569  11.068
17407TIP3    H273713   4.793   5.626  11.009
17408TIP3   OH273714   3.228   1.739  14.706
17408TIP3    H173715   3.297   1.805  14.703
17408TIP3    H273716   3.270   1.659  14.672
17409TIP3   OH273717   1.752   0.718   4.420
17409TIP3    H173718   1.755   0.641   4.364
17409TIP3    H273719   1.681   0.700   4.482
17410TIP3   OH273720   0.258   0.499  15.169
17410TIP3    H173721   0.289   0.439  15.101
17410TIP3    H273722   0.292   0.462  15.250
17411TIP3   OH273723   4.854   4.570  14.936
17411TIP3    H173724   4.853   4.513  15.013
17411TIP3    H273725   4.918   4.638  14.958
17412TIP3   OH273726   2.567   4.530  15.978
17412TIP3    H173727   2.472   4.524  15.989
17412TIP3    H273728   2.603   4.485  16.055
17413TIP3   OH273729   1.578   0.535   1.921
17413TIP3    H173730   1.614   0.535   2.009
17413TIP3    H273731   1.494   0.579   1.929
17414TIP3   OH273732   6.148   5.753  16.356
17414TIP3    H173733   6.148   5.660  16.377
17414TIP3    H273734   6.117   5.796  16.436
17415TIP3   OH273735   5.655   5.159   2.355
17415TIP3    H173736   5.580   5.161   2.415
17415TIP3    H273737   5.695   5.073   2.369
17416TIP3   OH273738   5.371   6.086   2.069
17416TIP3    H173739   5.356   6.152   2.001
17416TIP3    H273740   5.344   6.003   2.029
17417TIP3   OH273741   3.840   2.872  14.048
17417TIP3    H173742   3.842   2.867  13.952
17417TIP3    H273743   3.906   2.809  14.076
17418TIP3   OH273744   1.216   0.921  15.235
17418TIP3    H173745   1.134   0.891  15.275
17418TIP3    H273746   1.238   0.852  15.172
17419TIP3   OH273747   3.041   4.130  12.432
17419TIP3    H173748   3.136   4.145  12.440
17419TIP3    H273749   3.022   4.146  12.339
17420TIP3   OH273750   3.963   4.165  11.470
17420TIP3    H173751   3.914   4.084  11.455
17420TIP3    H273752   3.932   4.197  11.554
17421TIP3   OH273753   6.804   1.371  12.315
17421TIP3    H173754   6.731   1.429  12.297
17421TIP3    H273755   6.770   1.283  12.295
17422TIP3   OH273756   2.235   5.502   3.834
17422TIP3    H173757   2.142   5.521   3.845
17422TIP3    H273758   2.279   5.566   3.889
17423TIP3   OH273759   1.469   4.534   0.012
17423TIP3    H173760   1.482   4.599   0.081
17423TIP3    H273761   1.381   4.501   0.027
17424TIP3   OH273762   2.586   3.064   3.860
17424TIP3    H173763   2.557   3.092   3.773
17424TIP3    H273764   2.529   2.990   3.882
17425TIP3   OH273765   1.805   2.294  12.469
17425TIP3    H173766   1.750   2.256  12.537
17425TIP3    H273767   1.758   2.276  12.387
17426TIP3   OH273768   4.822   5.087  15.197
17426TIP3    H173769   4.897   5.146  15.205
17426TIP3    H273770   4.839   5.018  15.260
17427TIP3   OH273771   4.548   5.218   2.276
17427TIP3    H173772   4.570   5.161   2.350
17427TIP3    H273773   4.564   5.306   2.308
17428TIP3   OH273774   5.225   4.198  13.219
17428TIP3    H173775   5.291   4.134  13.243
17428TIP3    H273776   5.141   4.156  13.239
17429TIP3   OH273777   1.263   1.347   0.271
17429TIP3    H173778   1.224   1.266   0.239
17429TIP3    H273779   1.195   1.388   0.324
17430TIP3   OH273780   0.239   4.504  11.304
17430TIP3    H173781   0.199   4.526  11.220
17430TIP3    H273782   0.278   4.586  11.334
17431TIP3   OH273783   2.496   2.212   0.932
17431TIP3    H173784   2.554   2.230   1.006
17431TIP3    H273785   2.420   2.268   0.946
17432TIP3   OH273786   0.841   2.788   3.983
17432TIP3    H173787   0.890   2.821   4.058
17432TIP3    H273788   0.859   2.851   3.913
17433TIP3   OH273789   2.235   3.381   5.538
17433TIP3    H173790   2.214   3.398   5.446
17433TIP3    H273791   2.279   3.460   5.568
17434TIP3   OH273792   4.863   2.111  12.643
17434TIP3    H173793   4.777   2.071  12.651
17434TIP3    H273794   4.888   2.134  12.732
17435TIP3   OH273795   6.032   3.664   1.824
17435TIP3    H173796   6.037   3.578   1.865
17435TIP3    H273797   5.942   3.669   1.790
17436TIP3   OH273798   4.285   4.788  14.624
17436TIP3    H173799   4.202   4.781  14.578
17436TIP3    H273800   4.285   4.876  14.661
17437TIP3   OH273801   4.303   5.038  14.757
17437TIP3    H173802   4.264   5.065  14.840
17437TIP3    H273803   4.387   5.085  14.754
17438TIP3   OH273804   3.690   5.431   0.777
17438TIP3    H173805   3.730   5.441   0.691
17438TIP3    H273806   3.685   5.519   0.812
17439TIP3   OH273807   4.112   0.999  11.478
17439TIP3    H173808   4.132   0.915  11.518
17439TIP3    H273809   4.093   0.978  11.387
17440TIP3   OH273810   1.287   2.484  16.061
17440TIP3    H173811   1.204   2.447  16.030
17440TIP3    H273812   1.263   2.572  16.093
17441TIP3   OH273813   2.289   3.757  12.398
17441TIP3    H173814   2.264   3.674  12.439
17441TIP3    H273815   2.294   3.819  12.471
17442TIP3   OH273816   3.658   5.157  13.208
17442TIP3    H173817   3.571   5.121  13.192
17442TIP3    H273818   3.686   5.118  13.291
17443TIP3   OH273819   5.466   6.556   3.566
17443TIP3    H173820   5.388   6.571   3.512
17443TIP3    H273821   5.538   6.593   3.515
17444TIP3   OH273822   5.738   3.199  14.125
17444TIP3    H173823   5.822   3.188  14.169
17444TIP3    H273824   5.704   3.110  14.115
17445TIP3   OH273825   6.749   2.289   0.228
17445TIP3    H173826   6.781   2.316   0.314
17445TIP3    H273827   6.661   2.255   0.246
17446TIP3   OH273828   0.951   0.756  11.994
17446TIP3    H173829   0.889   0.797  12.055
17446TIP3    H273830   0.909   0.673  11.971
17447TIP3   OH273831   3.762   2.494  16.010
17447TIP3    H173832   3.828   2.563  16.006
17447TIP3    H273833   3.689   2.533  16.059
17448TIP3   OH273834   4.217   5.863   1.661
17448TIP3    H173835   4.213   5.924   1.734
17448TIP3    H273836   4.159   5.791   1.687
17449TIP3   OH273837   4.425   1.833  17.082
17449TIP3    H173838   4.407   1.795  16.996
17449TIP3    H273839   4.515   1.865  17.076
17450TIP3   OH273840   6.169   0.836  15.012
17450TIP3    H173841   6.221   0.913  14.990
17450TIP3    H273842   6.162   0.787  14.930
17451TIP3   OH273843   2.918   1.162  15.551
17451TIP3    H173844   2.949   1.072  15.548
17451TIP3    H273845   2.987   1.213  15.508
17452TIP3   OH273846   5.552   3.856   4.074
17452TIP3    H173847   5.538   3.949   4.056
17452TIP3    H273848   5.595   3.823   3.995
17453TIP3   OH273849   3.337   0.417   5.848
17453TIP3    H173850   3.295   0.331   5.854
17453TIP3    H273851   3.323   0.456   5.934
17454TIP3   OH273852   4.304   2.137  13.979
17454TIP3    H173853   4.383   2.089  13.954
17454TIP3    H273854   4.236   2.104  13.920
17455TIP3   OH273855   1.080   2.789   3.609
17455TIP3    H173856   0.988   2.812   3.623
17455TIP3    H273857   1.104   2.838   3.530
17456TIP3   OH273858   1.140   0.018  15.620
17456TIP3    H173859   1.129   0.047  15.530
17456TIP3    H273860   1.109  -0.073  15.620
17457TIP3   OH273861   5.169   3.104  16.724
17457TIP3    H173862   5.255   3.139  16.747
17457TIP3    H273863   5.155   3.132  16.633
17458TIP3   OH273864   0.599   1.414  17.215
17458TIP3    H173865   0.594   1.328  17.257
17458TIP3    H273866   0.688   1.445  17.235
17459TIP3   OH273867   3.785   5.203  16.148
17459TIP3    H173868   3.728   5.129  16.166
17459TIP3    H273869   3.726   5.279  16.145
17460TIP3   OH273870   0.448   4.477  14.207
17460TIP3    H173871   0.374   4.418  14.193
17460TIP3    H273872   0.509   4.427  14.261
17461TIP3   OH273873   6.390   0.308  13.971
17461TIP3    H173874   6.478   0.323  13.934
17461TIP3    H273875   6.385   0.213  13.983
17462TIP3   OH273876   5.391   6.715   2.083
17462TIP3    H173877   5.422   6.790   2.034
17462TIP3    H273878   5.296   6.716   2.071
17463TIP3   OH273879   4.490   1.762  11.750
17463TIP3    H173880   4.435   1.733  11.823
17463TIP3    H273881   4.452   1.718  11.674
17464TIP3   OH273882   1.935   3.508   1.375
17464TIP3    H173883   2.008   3.446   1.385
17464TIP3    H273884   1.882   3.496   1.453
17465TIP3   OH273885   6.157   4.013   2.493
17465TIP3    H173886   6.230   4.027   2.433
17465TIP3    H273887   6.197   4.003   2.579
17466TIP3   OH273888   4.944   1.981  11.436
17466TIP3    H173889   4.955   1.986  11.341
17466TIP3    H273890   4.875   1.917  11.449
17467TIP3   OH273891   3.746   2.307  13.146
17467TIP3    H173892   3.769   2.399  13.132
17467TIP3    H273893   3.729   2.273  13.058
17468TIP3   OH273894   3.110   3.882  13.480
17468TIP3    H173895   3.128   3.944  13.551
17468TIP3    H273896   3.189   3.883  13.426
17469TIP3   OH273897   4.691   1.544   4.694
17469TIP3    H173898   4.741   1.624   4.686
17469TIP3    H273899   4.741   1.478   4.646
17470TIP3   OH273900   3.029   3.305  12.715
17470TIP3    H173901   3.118   3.297  12.750
17470TIP3    H273902   3.016   3.399  12.701
17471TIP3   OH273903   6.435   1.237  13.936
17471TIP3    H173904   6.400   1.280  13.858
17471TIP3    H273905   6.358   1.200  13.980
17472TIP3   OH273906   4.660   6.751   5.119
17472TIP3    H173907   4.698   6.826   5.071
17472TIP3    H273908   4.668   6.775   5.211
17473TIP3   OH273909   0.305   1.678   5.644
17473TIP3    H173910   0.321   1.618   5.717
17473TIP3    H273911   0.391   1.717   5.627
17474TIP3   OH273912   0.209   6.059  11.613
17474TIP3    H173913   0.232   6.145  11.650
17474TIP3    H273914   0.128   6.075  11.564
17475TIP3   OH273915   6.098   6.470   5.183
17475TIP3    H173916   6.031   6.461   5.250
17475TIP3    H273917   6.121   6.563   5.184
17476TIP3   OH273918   2.070   3.597   2.771
17476TIP3    H173919   2.146   3.548   2.741
17476TIP3    H273920   2.099   3.638   2.852
17477TIP3   OH273921   4.297   6.022  16.149
17477TIP3    H173922   4.332   5.963  16.216
17477TIP3    H273923   4.254   5.963  16.086
17478TIP3   OH273924   1.652   2.020   3.750
17478TIP3    H173925   1.655   2.094   3.810
17478TIP3    H273926   1.596   1.956   3.793
17479TIP3   OH273927   4.328   1.748   5.680
17479TIP3    H173928   4.317   1.840   5.706
17479TIP3    H273929   4.279   1.741   5.598
17480TIP3   OH273930   2.672   2.775   2.327
17480TIP3    H173931   2.641   2.707   2.268
17480TIP3    H273932   2.616   2.850   2.309
17481TIP3   OH273933   3.319   3.966  11.197
17481TIP3    H173934   3.275   3.920  11.268
17481TIP3    H273935   3.343   4.051  11.235
17482TIP3   OH273936   5.845   5.995   5.512
17482TIP3    H173937   5.787   5.965   5.442
17482TIP3    H273938   5.822   5.942   5.588
17483TIP3   OH273939   4.895   0.041  13.090
17483TIP3    H173940   4.942   0.075  13.014
17483TIP3    H273941   4.863  -0.045  13.062
17484TIP3   OH273942   2.861   1.815   5.081
17484TIP3    H173943   2.822   1.744   5.132
17484TIP3    H273944   2.839   1.895   5.129
17485TIP3   OH273945   5.352   2.797   0.996
17485TIP3    H173946   5.347   2.809   1.091
17485TIP3    H273947   5.445   2.810   0.976
17486TIP3   OH273948   0.929   6.747  13.571
17486TIP3    H173949   0.858   6.812  13.571
17486TIP3    H273950   0.941   6.724  13.479
17487TIP3   OH273951   4.694   6.098  11.707
17487TIP3    H173952   4.680   6.074  11.798
17487TIP3    H273953   4.782   6.135  11.704
17488TIP3   OH273954   2.516   0.303  11.221
17488TIP3    H173955   2.539   0.363  11.292
17488TIP3    H273956   2.500   0.219  11.265
17489TIP3   OH273957   4.217   6.544   0.372
17489TIP3    H173958   4.200   6.573   0.283
17489TIP3    H273959   4.309   6.565   0.387
17490TIP3   OH273960   2.274   6.512   2.427
17490TIP3    H173961   2.230   6.475   2.503
17490TIP3    H273962   2.365   6.524   2.455
17491TIP3   OH273963   0.026   6.091  12.281
17491TIP3    H173964   0.079   6.115  12.205
17491TIP3    H273965  -0.064   6.095  12.249
17492TIP3   OH273966   3.716   2.868   4.049
17492TIP3    H173967   3.750   2.941   4.101
17492TIP3    H273968   3.691   2.908   3.965
17493TIP3   OH273969   1.378   5.843   3.177
17493TIP3    H173970   1.359   5.917   3.120
17493TIP3    H273971   1.293   5.802   3.193
17494TIP3   OH273972   2.079   1.979  16.920
17494TIP3    H173973   2.101   1.979  17.014
17494TIP3    H273974   2.141   2.041  16.882
17495TIP3   OH273975   3.700   0.693   4.720
17495TIP3    H173976   3.609   0.665   4.722
17495TIP3    H273977   3.735   0.665   4.805
17496TIP3   OH273978   4.314   4.896   4.113
17496TIP3    H173979   4.329   4.904   4.019
17496TIP3    H273980   4.328   4.984   4.148
17497TIP3   OH273981   6.617   3.131  16.760
17497TIP3    H173982   6.710   3.107  16.757
17497TIP3    H273983   6.587   3.122  16.670
17498TIP3   OH273984   6.076   0.651   3.517
17498TIP3    H173985   6.009   0.690   3.461
17498TIP3    H273986   6.158   0.670   3.473
17499TIP3   OH273987   4.416   0.812  12.370
17499TIP3    H173988   4.401   0.902  12.401
17499TIP3    H273989   4.509   0.797  12.387
17500TIP3   OH273990   0.241   5.799   0.263
17500TIP3    H173991   0.284   5.714   0.253
17500TIP3    H273992   0.179   5.803   0.190
17501TIP3   OH273993   0.918   1.673  10.279
17501TIP3    H173994   0.904   1.654  10.371
17501TIP3    H273995   0.838   1.717  10.251
17502TIP3   OH273996   3.240   3.194  11.078
17502TIP3    H173997   3.210   3.103  11.075
17502TIP3    H273998   3.282   3.209  10.993
17503TIP3   OH273999   4.961   1.590  11.601
17503TIP3    H174000   5.025   1.659  11.619
17503TIP3    H274001   4.941   1.600  11.508
17504TIP3   OH274002   4.116   2.203  14.748
17504TIP3    H174003   4.080   2.176  14.833
17504TIP3    H274004   4.040   2.224  14.695
17505TIP3   OH274005   3.890   6.391  11.781
17505TIP3    H174006   3.970   6.406  11.831
17505TIP3    H274007   3.871   6.475  11.740
17506TIP3   OH274008   2.720   5.344   1.603
17506TIP3    H174009   2.809   5.334   1.637
17506TIP3    H274010   2.726   5.314   1.512
17507TIP3   OH274011   6.097   3.343  12.082
17507TIP3    H174012   6.151   3.332  12.160
17507TIP3    H274013   6.007   3.342  12.114
17508TIP3   OH274014   4.064   3.785  13.077
17508TIP3    H174015   4.042   3.817  13.165
17508TIP3    H274016   3.984   3.742  13.047
17509TIP3   OH274017   4.993   2.777   1.866
17509TIP3    H174018   4.976   2.856   1.917
17509TIP3    H274019   5.018   2.711   1.931
17510TIP3   OH274020   5.459   1.773   0.995
17510TIP3    H174021   5.370   1.805   1.006
17510TIP3    H274022   5.453   1.706   0.927
17511TIP3   OH274023   1.475   4.505  12.746
17511TIP3    H174024   1.506   4.524  12.657
17511TIP3    H274025   1.459   4.591  12.784
17512TIP3   OH274026   1.597   0.399  16.902
17512TIP3    H174027   1.600   0.313  16.944
17512TIP3    H274028   1.568   0.459  16.971
17513TIP3   OH274029   2.636   1.730  13.063
17513TIP3    H174030   2.648   1.635  13.064
17513TIP3    H274031   2.721   1.765  13.036
17514TIP3   OH274032   3.284   2.514  12.774
17514TIP3    H174033   3.288   2.577  12.701
17514TIP3    H274034   3.219   2.551  12.833
17515TIP3   OH274035   0.493   1.164   1.040
17515TIP3    H174036   0.446   1.242   1.067
17515TIP3    H274037   0.453   1.138   0.957
17516TIP3   OH274038   0.007   0.273   4.888
17516TIP3    H174039  -0.007   0.288   4.982
17516TIP3    H274040  -0.061   0.325   4.845
17517TIP3   OH274041   1.636   4.066  15.169
17517TIP3    H174042   1.712   4.008  15.174
17517TIP3    H274043   1.669   4.152  15.191
17518TIP3   OH274044   0.028   1.550   0.896
17518TIP3    H174045  -0.047   1.591   0.939
17518TIP3    H274046   0.003   1.547   0.803
17519TIP3   OH274047   0.812   1.782   3.419
17519TIP3    H174048   0.837   1.744   3.504
17519TIP3    H274049   0.751   1.718   3.382
17520TIP3   OH274050   0.218   0.315   1.713
17520TIP3    H174051   0.212   0.268   1.630
17520TIP3    H274052   0.303   0.289   1.749
17521TIP3   OH274053   2.369   5.313  15.466
17521TIP3    H174054   2.424   5.235  15.454
17521TIP3    H274055   2.391   5.343  15.554
17522TIP3   OH274056   6.143   3.478   3.454
17522TIP3    H174057   6.221   3.497   3.403
17522TIP3    H274058   6.084   3.551   3.437
17523TIP3   OH274059   0.012   4.274  15.465
17523TIP3    H174060  -0.064   4.222  15.437
17523TIP3    H274061  -0.020   4.329  15.536
17524TIP3   OH274062   1.968   2.843  11.002
17524TIP3    H174063   1.929   2.755  11.004
17524TIP3    H274064   1.904   2.895  10.953
17525TIP3   OH274065   2.658   3.638  12.248
17525TIP3    H174066   2.621   3.554  12.224
17525TIP3    H274067   2.634   3.649  12.340
17526TIP3   OH274068   3.741   1.426  15.409
17526TIP3    H174069   3.677   1.356  15.393
17526TIP3    H274070   3.693   1.507  15.389
17527TIP3   OH274071   4.938   4.331  11.185
17527TIP3    H174072   4.897   4.386  11.119
17527TIP3    H274073   5.013   4.291  11.140
17528TIP3   OH274074   1.618   2.377  15.369
17528TIP3    H174075   1.554   2.420  15.425
17528TIP3    H274076   1.669   2.321  15.428
17529TIP3   OH274077   5.850   5.022  11.848
17529TIP3    H174078   5.833   5.116  11.852
17529TIP3    H274079   5.893   5.008  11.764
17530TIP3   OH274080   6.157   0.417   2.267
17530TIP3    H174081   6.200   0.503   2.264
17530TIP3    H274082   6.066   0.437   2.290
17531TIP3   OH274083   5.715   1.021  14.841
17531TIP3    H174084   5.787   0.984  14.893
17531TIP3    H274085   5.717   0.971  14.759
17532TIP3   OH274086   4.122   5.609   1.641
17532TIP3    H174087   4.179   5.543   1.682
17532TIP3    H274088   4.160   5.624   1.555
17533TIP3   OH274089   4.357   3.627  13.847
17533TIP3    H174090   4.296   3.699  13.831
17533TIP3    H274091   4.330   3.590  13.931
17534TIP3   OH274092   4.515   5.227  13.426
17534TIP3    H174093   4.470   5.310  13.443
17534TIP3    H274094   4.567   5.244  13.347
17535TIP3   OH274095   3.418   6.393  14.626
17535TIP3    H174096   3.463   6.472  14.596
17535TIP3    H274097   3.360   6.424  14.695
17536TIP3   OH274098   5.278   2.520  10.871
17536TIP3    H174099   5.317   2.513  10.783
17536TIP3    H274100   5.319   2.598  10.909
17537TIP3   OH274101   0.742   1.483  15.939
17537TIP3    H174102   0.707   1.499  16.026
17537TIP3    H274103   0.744   1.569  15.897
17538TIP3   OH274104   3.128   2.879  11.438
17538TIP3    H174105   3.193   2.886  11.508
17538TIP3    H274106   3.044   2.880  11.484
17539TIP3   OH274107   5.796   2.015  16.328
17539TIP3    H174108   5.864   2.007  16.261
17539TIP3    H274109   5.717   2.039  16.279
17540TIP3   OH274110   6.035   3.116   0.071
17540TIP3    H174111   5.940   3.103   0.067
17540TIP3    H274112   6.059   3.090   0.160
17541TIP3   OH274113   2.468   5.175  17.170
17541TIP3    H174114   2.395   5.229  17.201
17541TIP3    H274115   2.427   5.094  17.140
17542TIP3   OH274116   5.036   2.636  16.368
17542TIP3    H174117   5.126   2.654  16.339
17542TIP3    H274118   5.032   2.541  16.375
17543TIP3   OH274119   6.006   0.309   4.986
17543TIP3    H174120   5.915   0.281   4.995
17543TIP3    H274121   6.056   0.227   4.982
17544TIP3   OH274122   5.098   2.391  15.459
17544TIP3    H174123   5.182   2.371  15.500
17544TIP3    H274124   5.052   2.306  15.457
17545TIP3   OH274125   6.083   6.706   4.535
17545TIP3    H174126   6.065   6.800   4.537
17545TIP3    H274127   5.999   6.666   4.512
17546TIP3   OH274128   2.914   5.550   6.241
17546TIP3    H174129   2.828   5.572   6.278
17546TIP3    H274130   2.941   5.471   6.288
17547TIP3   OH274131   5.221   0.005   5.581
17547TIP3    H174132   5.156  -0.062   5.599
17547TIP3    H274133   5.225   0.057   5.662
17548TIP3   OH274134   4.275   5.912   2.743
17548TIP3    H174135   4.232   5.914   2.828
17548TIP3    H274136   4.218   5.856   2.689
17549TIP3   OH274137   5.854   1.171  14.324
17549TIP3    H174138   5.939   1.191  14.362
17549TIP3    H274139   5.791   1.216  14.381
17550TIP3   OH274140   0.787   3.965  15.913
17550TIP3    H174141   0.847   4.036  15.936
17550TIP3    H274142   0.750   3.937  15.997
17551TIP3   OH274143   5.290   6.594  12.688
17551TIP3    H174144   5.221   6.634  12.635
17551TIP3    H274145   5.328   6.667  12.737
17552TIP3   OH274146   5.945   4.928   5.297
17552TIP3    H174147   5.877   4.922   5.365
17552TIP3    H274148   6.011   4.865   5.324
17553TIP3   OH274149   3.738   2.402   6.163
17553TIP3    H174150   3.756   2.496   6.163
17553TIP3    H274151   3.644   2.396   6.181
17554TIP3   OH274152   4.187   3.729   6.013
17554TIP3    H174153   4.245   3.654   6.001
17554TIP3    H274154   4.212   3.791   5.945
17555TIP3   OH274155   0.149   3.785  16.694
17555TIP3    H174156   0.161   3.715  16.630
17555TIP3    H274157   0.153   3.740  16.779
17556TIP3   OH274158   2.908   2.605   2.921
17556TIP3    H174159   2.819   2.633   2.898
17556TIP3    H274160   2.921   2.523   2.873
17557TIP3   OH274161   2.363   5.131  14.445
17557TIP3    H174162   2.441   5.177  14.476
17557TIP3    H274163   2.295   5.199  14.441
17558TIP3   OH274164   3.114   1.483   4.285
17558TIP3    H174165   3.164   1.562   4.261
17558TIP3    H274166   3.083   1.448   4.202
17559TIP3   OH274167   5.249   0.933   5.496
17559TIP3    H174168   5.168   0.886   5.478
17559TIP3    H274169   5.299   0.874   5.553
17560TIP3   OH274170   6.128   1.898   2.765
17560TIP3    H174171   6.062   1.943   2.817
17560TIP3    H274172   6.211   1.919   2.807
17561TIP3   OH274173   5.691   5.660  11.676
17561TIP3    H174174   5.692   5.736  11.617
17561TIP3    H274175   5.603   5.622  11.664
17562TIP3   OH274176   0.551   6.042  15.340
17562TIP3    H174177   0.459   6.017  15.354
17562TIP3    H274178   0.547   6.118  15.282
17563TIP3   OH274179   6.622   4.044  17.286
17563TIP3    H174180   6.634   4.052  17.192
17563TIP3    H274181   6.536   4.081  17.303
17564TIP3   OH274182   0.394   5.138   4.940
17564TIP3    H174183   0.460   5.202   4.913
17564TIP3    H274184   0.352   5.111   4.858
17565TIP3   OH274185   3.803   6.455   0.249
17565TIP3    H174186   3.763   6.372   0.223
17565TIP3    H274187   3.853   6.434   0.328
17566TIP3   OH274188   5.792   3.147   4.359
17566TIP3    H174189   5.832   3.228   4.390
17566TIP3    H274190   5.866   3.090   4.338
17567TIP3   OH274191   6.479   5.578  14.773
17567TIP3    H174192   6.558   5.631  14.776
17567TIP3    H274193   6.505   5.493  14.810
17568TIP3   OH274194   4.847   5.158   2.938
17568TIP3    H174195   4.799   5.237   2.963
17568TIP3    H274196   4.804   5.087   2.986
17569TIP3   OH274197   4.815   2.359   5.579
17569TIP3    H174198   4.872   2.431   5.606
17569TIP3    H274199   4.853   2.282   5.622
17570TIP3   OH274200   3.906   4.239   4.990
17570TIP3    H174201   3.964   4.225   5.065
17570TIP3    H274202   3.850   4.312   5.017
17571TIP3   OH274203   0.555   4.441  13.612
17571TIP3    H174204   0.542   4.361  13.663
17571TIP3    H274205   0.650   4.446  13.599
17572TIP3   OH274206   4.602   0.157   4.695
17572TIP3    H174207   4.540   0.208   4.643
17572TIP3    H274208   4.681   0.154   4.642
17573TIP3   OH274209   6.130   2.691  12.190
17573TIP3    H174210   6.125   2.786  12.179
17573TIP3    H274211   6.204   2.663  12.136
17574TIP3   OH274212   0.696   1.060   0.817
17574TIP3    H174213   0.613   1.017   0.834
17574TIP3    H274214   0.672   1.149   0.790
17575TIP3   OH274215   1.448   3.669   3.292
17575TIP3    H174216   1.483   3.651   3.380
17575TIP3    H274217   1.482   3.599   3.238
17576TIP3   OH274218   0.685   4.979  10.931
17576TIP3    H174219   0.706   4.903  10.877
17576TIP3    H274220   0.592   4.996  10.912
17577TIP3   OH274221   2.038   6.620  16.740
17577TIP3    H174222   1.947   6.637  16.765
17577TIP3    H274223   2.033   6.592  16.648
17578TIP3   OH274224   0.763   3.698   5.364
17578TIP3    H174225   0.673   3.720   5.384
17578TIP3    H274226   0.806   3.782   5.348
17579TIP3   OH274227   5.201   0.268  16.866
17579TIP3    H174228   5.126   0.300  16.816
17579TIP3    H274229   5.185   0.174  16.877
17580TIP3   OH274230   4.015   6.357   0.426
17580TIP3    H174231   3.994   6.366   0.519
17580TIP3    H274232   4.101   6.397   0.417
17581TIP3   OH274233   2.089   4.778   5.487
17581TIP3    H174234   2.149   4.752   5.416
17581TIP3    H274235   2.146   4.792   5.562
17582TIP3   OH274236   2.663   2.068   5.844
17582TIP3    H174237   2.742   2.118   5.864
17582TIP3    H274238   2.659   2.001   5.913
17583TIP3   OH274239   2.744   4.352   2.567
17583TIP3    H174240   2.754   4.395   2.652
17583TIP3    H274241   2.718   4.422   2.507
17584TIP3   OH274242   0.396   0.398   6.109
17584TIP3    H174243   0.457   0.404   6.182
17584TIP3    H274244   0.328   0.463   6.129
17585TIP3   OH274245   2.808   5.143   0.555
17585TIP3    H174246   2.902   5.134   0.566
17585TIP3    H274247   2.796   5.153   0.460
17586TIP3   OH274248   1.770   5.569   1.062
17586TIP3    H174249   1.749   5.657   1.031
17586TIP3    H274250   1.756   5.513   0.986
17587TIP3   OH274251   4.225   5.725  16.525
17587TIP3    H174252   4.193   5.782  16.455
17587TIP3    H274253   4.257   5.786  16.592
17588TIP3   OH274254   4.476   6.637  14.010
17588TIP3    H174255   4.567   6.653  14.037
17588TIP3    H274256   4.454   6.711  13.954
17589TIP3   OH274257   6.503   6.025  15.888
17589TIP3    H174258   6.544   5.950  15.844
17589TIP3    H274259   6.409   6.014  15.871
17590TIP3   OH274260   6.325   5.005   4.172
17590TIP3    H174261   6.310   4.912   4.156
17590TIP3    H274262   6.313   5.016   4.266
17591TIP3   OH274263   0.091   2.708  12.114
17591TIP3    H174264   0.185   2.699  12.128
17591TIP3    H274265   0.051   2.646  12.174
17592TIP3   OH274266   6.624   0.563   6.908
17592TIP3    H174267   6.608   0.559   7.002
17592TIP3    H274268   6.696   0.625   6.898
17593TIP3   OH274269   4.568   6.031   4.263
17593TIP3    H174270   4.605   6.119   4.269
17593TIP3    H274271   4.546   6.020   4.171
17594TIP3   OH274272   6.457   0.469  14.180
17594TIP3    H174273   6.492   0.409  14.114
17594TIP3    H274274   6.383   0.513  14.136
17595TIP3   OH274275   4.209   4.847   4.663
17595TIP3    H174276   4.259   4.794   4.726
17595TIP3    H274277   4.194   4.788   4.589
17596TIP3   OH274278   4.759   6.713  10.351
17596TIP3    H174279   4.664   6.703  10.356
17596TIP3    H274280   4.789   6.637  10.303
17597TIP3   OH274281   3.393   1.287  12.256
17597TIP3    H174282   3.418   1.194  12.253
17597TIP3    H274283   3.475   1.334  12.241
17598TIP3   OH274284   4.602   6.303   4.023
17598TIP3    H174285   4.509   6.281   4.026
17598TIP3    H274286   4.605   6.398   4.030
17599TIP3   OH274287   5.169   0.531  14.324
17599TIP3    H174288   5.152   0.456  14.382
17599TIP3    H274289   5.125   0.509  14.242
17600TIP3   OH274290   0.446   3.454  12.918
17600TIP3    H174291   0.371   3.453  12.978
17600TIP3    H274292   0.434   3.377  12.863
17601TIP3   OH274293   4.878   0.117   5.873
17601TIP3    H174294   4.827   0.183   5.921
17601TIP3    H274295   4.949   0.095   5.933
17602TIP3   OH274296   0.661   3.333  11.132
17602TIP3    H174297   0.619   3.391  11.068
17602TIP3    H274298   0.728   3.388  11.173
17603TIP3   OH274299   6.529   2.510  11.595
17603TIP3    H174300   6.567   2.423  11.584
17603TIP3    H274301   6.502   2.513  11.687
17604TIP3   OH274302   4.738   6.534  10.731
17604TIP3    H174303   4.819   6.496  10.698
17604TIP3    H274304   4.674   6.463  10.727
17605TIP3   OH274305   5.303   4.731   0.229
17605TIP3    H174306   5.318   4.734   0.135
17605TIP3    H274307   5.335   4.645   0.256
17606TIP3   OH274308   3.824   2.100  17.031
17606TIP3    H174309   3.856   2.171  17.087
17606TIP3    H274310   3.881   2.026  17.051
17607TIP3   OH274311   5.154   2.807   1.639
17607TIP3    H174312   5.082   2.844   1.588
17607TIP3    H274313   5.111   2.768   1.715
17608TIP3   OH274314   3.143   4.023  14.709
17608TIP3    H174315   3.064   4.031  14.655
17608TIP3    H274316   3.167   4.113  14.730
17609TIP3   OH274317   1.132   3.862   0.108
17609TIP3    H174318   1.155   3.906   0.190
17609TIP3    H274319   1.191   3.899   0.043
17610TIP3   OH274320   5.423   4.731   1.434
17610TIP3    H174321   5.384   4.789   1.369
17610TIP3    H274322   5.368   4.653   1.433
17611TIP3   OH274323   6.652   5.383  12.846
17611TIP3    H174324   6.629   5.349  12.760
17611TIP3    H274325   6.740   5.348  12.863
17612TIP3   OH274326   2.660   2.485   1.664
17612TIP3    H174327   2.642   2.568   1.707
17612TIP3    H274328   2.752   2.466   1.686
17613TIP3   OH274329   0.288   0.808  16.223
17613TIP3    H174330   0.260   0.829  16.312
17613TIP3    H274331   0.357   0.871  16.204
17614TIP3   OH274332   1.921   2.303  14.306
17614TIP3    H174333   1.927   2.212  14.333
17614TIP3    H274334   1.861   2.343  14.370
17615TIP3   OH274335   5.410   4.972   0.281
17615TIP3    H174336   5.392   4.881   0.256
17615TIP3    H274337   5.353   5.024   0.224
17616TIP3   OH274338   0.478   2.330   4.296
17616TIP3    H174339   0.552   2.280   4.262
17616TIP3    H274340   0.404   2.303   4.241
17617TIP3   OH274341   3.718   0.731   5.979
17617TIP3    H174342   3.681   0.819   5.981
17617TIP3    H274343   3.810   0.743   5.955
17618TIP3   OH274344   1.216   3.416   4.665
17618TIP3    H174345   1.132   3.369   4.662
17618TIP3    H274346   1.260   3.392   4.584
17619TIP3   OH274347   2.523   2.991   2.283
17619TIP3    H174348   2.428   2.991   2.293
17619TIP3    H274349   2.539   3.046   2.206
17620TIP3   OH274350   2.280   1.805   0.007
17620TIP3    H174351   2.210   1.744  -0.016
17620TIP3    H274352   2.350   1.785  -0.055
17621TIP3   OH274353   5.744   6.437  12.216
17621TIP3    H174354   5.698   6.469  12.138
17621TIP3    H274355   5.731   6.342  12.214
17622TIP3   OH274356   2.831   6.675   2.320
17622TIP3    H174357   2.877   6.671   2.404
17622TIP3    H274358   2.893   6.717   2.261
17623TIP3   OH274359   0.288   6.330  13.882
17623TIP3    H174360   0.267   6.267  13.813
17623TIP3    H274361   0.202   6.360  13.913
17624TIP3   OH274362   4.140   2.148  17.082
17624TIP3    H174363   4.119   2.062  17.044
17624TIP3    H274364   4.235   2.145  17.095
17625TIP3   OH274365   5.354   3.654   5.759
17625TIP3    H174366   5.322   3.645   5.848
17625TIP3    H274367   5.283   3.620   5.704
17626TIP3   OH274368   6.442   2.290   2.913
17626TIP3    H174369   6.462   2.207   2.869
17626TIP3    H274370   6.392   2.340   2.848
17627TIP3   OH274371   4.954   2.529   0.796
17627TIP3    H174372   5.010   2.525   0.874
17627TIP3    H274373   4.913   2.615   0.801
17628TIP3   OH274374   2.916   6.764  10.806
17628TIP3    H174375   2.936   6.718  10.887
17628TIP3    H274376   2.927   6.698  10.737
17629TIP3   OH274377   1.233   1.070   3.754
17629TIP3    H174378   1.289   1.116   3.816
17629TIP3    H274379   1.229   0.980   3.788
17630TIP3   OH274380   4.589   2.326  14.713
17630TIP3    H174381   4.626   2.384  14.779
17630TIP3    H274382   4.652   2.326  14.641
17631TIP3   OH274383   3.102   3.474   1.750
17631TIP3    H174384   3.125   3.528   1.674
17631TIP3    H274385   3.059   3.535   1.810
17632TIP3   OH274386   6.357   5.932   0.218
17632TIP3    H174387   6.383   6.006   0.162
17632TIP3    H274388   6.346   5.859   0.157
17633TIP3   OH274389   4.249   6.188   2.047
17633TIP3    H174390   4.278   6.197   2.138
17633TIP3    H274391   4.203   6.269   2.028
17634TIP3   OH274392   4.766   0.661  10.767
17634TIP3    H174393   4.743   0.659  10.674
17634TIP3    H274394   4.805   0.575  10.784
17635TIP3   OH274395   6.577   1.526  11.947
17635TIP3    H174396   6.626   1.578  12.011
17635TIP3    H274397   6.567   1.441  11.989
17636TIP3   OH274398   3.307   1.012  17.235
17636TIP3    H174399   3.339   1.075  17.300
17636TIP3    H274400   3.222   0.985  17.269
17637TIP3   OH274401   1.397   4.862  15.133
17637TIP3    H174402   1.418   4.818  15.216
17637TIP3    H274403   1.475   4.914  15.113
17638TIP3   OH274404   0.273   2.070  16.168
17638TIP3    H174405   0.248   2.029  16.251
17638TIP3    H274406   0.341   2.133  16.193
17639TIP3   OH274407   0.357   4.353  13.009
17639TIP3    H174408   0.347   4.290  13.080
17639TIP3    H274409   0.409   4.424  13.046
17640TIP3   OH274410   3.253   0.798  15.710
17640TIP3    H174411   3.286   0.775  15.797
17640TIP3    H274412   3.167   0.837  15.725
17641TIP3   OH274413   1.713   1.456  16.257
17641TIP3    H174414   1.712   1.508  16.176
17641TIP3    H274415   1.624   1.421  16.264
17642TIP3   OH274416   3.333   3.489  13.039
17642TIP3    H174417   3.359   3.549  12.969
17642TIP3    H274418   3.297   3.413  12.994
17643TIP3   OH274419   2.052   5.646  11.482
17643TIP3    H174420   2.090   5.704  11.416
17643TIP3    H274421   2.037   5.563  11.436
17644TIP3   OH274422   2.312   2.016   0.608
17644TIP3    H174423   2.299   2.013   0.513
17644TIP3    H274424   2.289   1.928   0.638
17645TIP3   OH274425   2.479   1.442  12.193
17645TIP3    H174426   2.485   1.517  12.134
17645TIP3    H274427   2.548   1.383  12.163
17646TIP3   OH274428   5.785   5.642  11.957
17646TIP3    H174429   5.735   5.675  11.882
17646TIP3    H274430   5.868   5.691  11.955
17647TIP3   OH274431   1.136   3.202   5.090
17647TIP3    H174432   1.190   3.253   5.150
17647TIP3    H274433   1.081   3.266   5.046
17648TIP3   OH274434   4.931   0.257   4.806
17648TIP3    H174435   4.936   0.179   4.750
17648TIP3    H274436   4.869   0.233   4.875
17649TIP3   OH274437   4.419   4.249  15.558
17649TIP3    H174438   4.475   4.310  15.511
17649TIP3    H274439   4.390   4.187  15.491
17650TIP3   OH274440   5.594   2.939   3.698
17650TIP3    H174441   5.656   3.012   3.692
17650TIP3    H274442   5.614   2.884   3.622
17651TIP3   OH274443   4.062   3.028   2.698
17651TIP3    H174444   3.984   3.051   2.749
17651TIP3    H274445   4.028   2.983   2.621
17652TIP3   OH274446   3.310   2.479  12.510
17652TIP3    H174447   3.236   2.540  12.520
17652TIP3    H274448   3.287   2.405  12.567
17653TIP3   OH274449   4.405   3.749  11.966
17653TIP3    H174450   4.323   3.799  11.974
17653TIP3    H274451   4.384   3.664  12.004
17654TIP3   OH274452   4.403   5.602  15.174
17654TIP3    H174453   4.376   5.615  15.265
17654TIP3    H274454   4.465   5.672  15.158
17655TIP3   OH274455   1.130   5.497   4.294
17655TIP3    H174456   1.195   5.545   4.345
17655TIP3    H274457   1.103   5.558   4.225
17656TIP3   OH274458   6.182   6.388  17.196
17656TIP3    H174459   6.173   6.455  17.264
17656TIP3    H274460   6.275   6.368  17.194
17657TIP3   OH274461   5.342   5.328  12.464
17657TIP3    H174462   5.311   5.239  12.476
17657TIP3    H274463   5.416   5.320  12.404
17658TIP3   OH274464   4.732   1.273  11.203
17658TIP3    H174465   4.676   1.276  11.125
17658TIP3    H274466   4.819   1.252  11.169
17659TIP3   OH274467   0.967   0.561   5.092
17659TIP3    H174468   1.013   0.481   5.067
17659TIP3    H274469   0.879   0.532   5.113
17660TIP3   OH274470   1.388   0.876   6.079
17660TIP3    H174471   1.390   0.854   6.172
17660TIP3    H274472   1.377   0.793   6.035
17661TIP3   OH274473   2.476   4.970   0.156
17661TIP3    H174474   2.402   5.013   0.113
17661TIP3    H274475   2.460   4.876   0.143
17662TIP3   OH274476   3.017   1.697   0.789
17662TIP3    H174477   2.929   1.733   0.783
17662TIP3    H274478   3.014   1.617   0.738
17663TIP3   OH274479   5.020   1.755  14.566
17663TIP3    H174480   4.936   1.789  14.535
17663TIP3    H274481   5.061   1.717  14.488
17664TIP3   OH274482   0.569   4.027   3.753
17664TIP3    H174483   0.610   3.942   3.738
17664TIP3    H274484   0.641   4.084   3.780
17665TIP3   OH274485   1.225   5.831   0.297
17665TIP3    H174486   1.241   5.925   0.287
17665TIP3    H274487   1.134   5.818   0.270
17666TIP3   OH274488   2.522   0.947  16.820
17666TIP3    H174489   2.562   0.961  16.734
17666TIP3    H274490   2.465   1.023  16.833
17667TIP3   OH274491   5.645   5.060   0.850
17667TIP3    H174492   5.628   5.078   0.758
17667TIP3    H274493   5.740   5.066   0.859
17668TIP3   OH274494   1.935   6.268   3.607
17668TIP3    H174495   1.918   6.300   3.518
17668TIP3    H274496   1.891   6.183   3.610
17669TIP3   OH274497   5.979   1.377   4.021
17669TIP3    H174498   5.978   1.415   3.933
17669TIP3    H274499   6.051   1.314   4.019
17670TIP3   OH274500   2.836   5.982  11.555
17670TIP3    H174501   2.789   5.899  11.546
17670TIP3    H274502   2.791   6.027  11.627
17671TIP3   OH274503   1.791   4.920   4.567
17671TIP3    H174504   1.812   5.004   4.526
17671TIP3    H274505   1.709   4.893   4.526
17672TIP3   OH274506   0.762   6.816   4.641
17672TIP3    H174507   0.733   6.726   4.658
17672TIP3    H274508   0.844   6.806   4.593
17673TIP3   OH274509   0.410   3.716   1.528
17673TIP3    H174510   0.330   3.722   1.475
17673TIP3    H274511   0.464   3.652   1.482
17674TIP3   OH274512   5.091   1.190   5.398
17674TIP3    H174513   5.184   1.209   5.402
17674TIP3    H274514   5.050   1.271   5.367
17675TIP3   OH274515   0.350   1.483   5.829
17675TIP3    H174516   0.431   1.483   5.878
17675TIP3    H274517   0.298   1.412   5.867
17676TIP3   OH274518   3.767   6.634   5.818
17676TIP3    H174519   3.767   6.713   5.764
17676TIP3    H274520   3.813   6.659   5.898
17677TIP3   OH274521   0.170   2.252  12.542
17677TIP3    H174522   0.107   2.307  12.589
17677TIP3    H274523   0.119   2.176  12.515
17678TIP3   OH274524   1.888   1.158  14.954
17678TIP3    H174525   1.911   1.240  15.000
17678TIP3    H274526   1.800   1.138  14.984
17679TIP3   OH274527   1.789   1.134  15.499
17679TIP3    H174528   1.715   1.119  15.441
17679TIP3    H274529   1.751   1.181  15.574
17680TIP3   OH274530   5.835   2.493  15.222
17680TIP3    H174531   5.817   2.455  15.308
17680TIP3    H274532   5.758   2.470  15.170
17681TIP3   OH274533   4.714   2.479  13.819
17681TIP3    H174534   4.639   2.529  13.786
17681TIP3    H274535   4.790   2.519  13.776
17682TIP3   OH274536   6.634   3.996  15.161
17682TIP3    H174537   6.586   3.914  15.152
17682TIP3    H274538   6.714   3.982  15.111
17683TIP3   OH274539   6.038   5.520  10.633
17683TIP3    H174540   6.066   5.451  10.572
17683TIP3    H274541   5.975   5.476  10.690
17684TIP3   OH274542   4.365   5.278  11.585
17684TIP3    H174543   4.332   5.191  11.563
17684TIP3    H274544   4.344   5.288  11.678
17685TIP3   OH274545   2.184   0.078  11.298
17685TIP3    H174546   2.193   0.137  11.372
17685TIP3    H274547   2.158   0.135  11.225
17686TIP3   OH274548   3.484   3.422  17.142
17686TIP3    H174549   3.474   3.414  17.236
17686TIP3    H274550   3.494   3.516  17.127
17687TIP3   OH274551   1.350   4.326  12.906
17687TIP3    H174552   1.400   4.397  12.865
17687TIP3    H274553   1.390   4.317  12.993
17688TIP3   OH274554   0.126   5.431   3.654
17688TIP3    H174555   0.031   5.443   3.660
17688TIP3    H274556   0.160   5.517   3.630
17689TIP3   OH274557   6.189   1.750  14.401
17689TIP3    H174558   6.206   1.809  14.474
17689TIP3    H274559   6.145   1.804  14.335
17690TIP3   OH274560   3.384   5.422   3.444
17690TIP3    H174561   3.352   5.443   3.532
17690TIP3    H274562   3.315   5.454   3.385
17691TIP3   OH274563   3.270   4.891   0.111
17691TIP3    H174564   3.196   4.869   0.054
17691TIP3    H274565   3.283   4.813   0.165
17692TIP3   OH274566   5.447   0.663  16.742
17692TIP3    H174567   5.448   0.645  16.836
17692TIP3    H274568   5.354   0.659  16.718
17693TIP3   OH274569   0.699   3.031   5.720
17693TIP3    H174570   0.636   2.960   5.706
17693TIP3    H274571   0.770   2.991   5.769
17694TIP3   OH274572   2.192   1.305  13.322
17694TIP3    H174573   2.202   1.369  13.393
17694TIP3    H274574   2.196   1.356  13.242
17695TIP3   OH274575   1.747   1.177  16.612
17695TIP3    H174576   1.760   1.265  16.646
17695TIP3    H274577   1.805   1.171  16.536
17696TIP3   OH274578   1.616   3.710   0.654
17696TIP3    H174579   1.605   3.692   0.748
17696TIP3    H274580   1.701   3.753   0.648
17697TIP3   OH274581   2.952   1.664  15.117
17697TIP3    H174582   2.977   1.666  15.209
17697TIP3    H274583   2.878   1.724  15.110
17698TIP3   OH274584   0.325   4.792   5.348
17698TIP3    H174585   0.404   4.808   5.401
17698TIP3    H274586   0.258   4.847   5.388
17699TIP3   OH274587   2.076   0.807   5.436
17699TIP3    H174588   2.002   0.748   5.449
17699TIP3    H274589   2.038   0.894   5.431
17700TIP3   OH274590   2.652   1.543  15.862
17700TIP3    H174591   2.580   1.579  15.810
17700TIP3    H274592   2.709   1.500  15.799
17701TIP3   OH274593   2.562   4.733  12.996
17701TIP3    H174594   2.604   4.692  13.072
17701TIP3    H274595   2.469   4.710  13.005
17702TIP3   OH274596   1.148   4.756  12.706
17702TIP3    H174597   1.172   4.664  12.698
17702TIP3    H274598   1.080   4.768  12.640
17703TIP3   OH274599   2.930   4.024  14.509
17703TIP3    H174600   2.915   4.039  14.415
17703TIP3    H274601   2.868   4.084  14.552
17704TIP3   OH274602   2.579   0.852   3.192
17704TIP3    H174603   2.663   0.811   3.173
17704TIP3    H274604   2.536   0.792   3.254
17705TIP3   OH274605   4.494   3.166   1.494
17705TIP3    H174606   4.487   3.247   1.545
17705TIP3    H274607   4.580   3.131   1.517
17706TIP3   OH274608   4.037   5.176   4.138
17706TIP3    H174609   4.098   5.202   4.207
17706TIP3    H274610   4.023   5.255   4.087
17707TIP3   OH274611   4.277   5.876   0.747
17707TIP3    H174612   4.242   5.902   0.662
17707TIP3    H274613   4.253   5.947   0.806
17708TIP3   OH274614   6.596   2.052  12.683
17708TIP3    H174615   6.582   2.130  12.629
17708TIP3    H274616   6.680   2.018  12.654
17709TIP3   OH274617   3.809   5.612  17.116
17709TIP3    H174618   3.820   5.576  17.203
17709TIP3    H274619   3.736   5.563  17.078
17710TIP3   OH274620   4.931   5.364  11.338
17710TIP3    H174621   4.928   5.299  11.409
17710TIP3    H274622   4.895   5.318  11.262
17711TIP3   OH274623   4.417   0.014   5.948
17711TIP3    H174624   4.473   0.049   5.879
17711TIP3    H274625   4.363   0.088   5.975
17712TIP3   OH274626   0.205   4.920  14.448
17712TIP3    H174627   0.273   4.984  14.430
17712TIP3    H274628   0.209   4.859  14.374
17713TIP3   OH274629   0.916   1.951   6.088
17713TIP3    H174630   0.894   1.915   6.002
17713TIP3    H274631   0.863   2.030   6.095
17714TIP3   OH274632   5.478   3.363   6.182
17714TIP3    H174633   5.566   3.348   6.217
17714TIP3    H274634   5.423   3.299   6.228
17715TIP3   OH274635   4.831   4.710  16.308
17715TIP3    H174636   4.830   4.663  16.224
17715TIP3    H274637   4.923   4.721  16.329
17716TIP3   OH274638   6.144   3.482   1.339
17716TIP3    H174639   6.073   3.461   1.400
17716TIP3    H274640   6.202   3.406   1.343
17717TIP3   OH274641   1.245   3.881   0.876
17717TIP3    H174642   1.205   3.805   0.919
17717TIP3    H274643   1.211   3.956   0.925
17718TIP3   OH274644   5.504   4.306  14.323
17718TIP3    H174645   5.547   4.260  14.395
17718TIP3    H274646   5.470   4.237  14.267
17719TIP3   OH274647   5.386   2.752   4.448
17719TIP3    H174648   5.297   2.770   4.476
17719TIP3    H274649   5.439   2.763   4.527
17720TIP3   OH274650   4.485   5.536  15.773
17720TIP3    H174651   4.432   5.551  15.851
17720TIP3    H274652   4.421   5.532  15.701
17721TIP3   OH274653   3.819   5.626   5.194
17721TIP3    H174654   3.780   5.647   5.279
17721TIP3    H274655   3.878   5.553   5.212
17722TIP3   OH274656   1.647   0.661   1.649
17722TIP3    H174657   1.618   0.631   1.736
17722TIP3    H274658   1.710   0.594   1.621
17723TIP3   OH274659   5.663   4.802  11.843
17723TIP3    H174660   5.571   4.828  11.850
17723TIP3    H274661   5.690   4.831  11.756
17724TIP3   OH274662   0.361   5.098  17.250
17724TIP3    H174663   0.279   5.144  17.265
17724TIP3    H274664   0.335   5.008  17.229
17725TIP3   OH274665   6.564   4.685  15.735
17725TIP3    H174666   6.630   4.716  15.796
17725TIP3    H274667   6.607   4.616  15.684
17726TIP3   OH274668   1.147   1.548  16.488
17726TIP3    H174669   1.240   1.564  16.506
17726TIP3    H274670   1.140   1.555  16.393
17727TIP3   OH274671   0.390   4.502   2.895
17727TIP3    H174672   0.384   4.573   2.831
17727TIP3    H274673   0.462   4.448   2.863
17728TIP3   OH274674   4.802   6.660   2.337
17728TIP3    H174675   4.865   6.720   2.296
17728TIP3    H274676   4.852   6.619   2.408
17729TIP3   OH274677   5.420   2.606  13.140
17729TIP3    H174678   5.334   2.577  13.170
17729TIP3    H274679   5.467   2.524  13.120
17730TIP3   OH274680   4.095   1.812  14.282
17730TIP3    H174681   4.144   1.731  14.296
17730TIP3    H274682   4.036   1.792  14.210
17731TIP3   OH274683   1.705   2.754  11.589
17731TIP3    H174684   1.634   2.695  11.616
17731TIP3    H274685   1.665   2.841  11.591
17732TIP3   OH274686   6.122   6.055   2.873
17732TIP3    H174687   6.140   6.040   2.780
17732TIP3    H274688   6.101   5.968   2.908
17733TIP3   OH274689   4.795   1.658   0.779
17733TIP3    H174690   4.863   1.723   0.763
17733TIP3    H274691   4.816   1.587   0.718
17734TIP3   OH274692   5.265   5.604  13.437
17734TIP3    H174693   5.267   5.683  13.490
17734TIP3    H274694   5.356   5.593  13.407
17735TIP3   OH274695   4.073   0.415   5.165
17735TIP3    H174696   4.107   0.502   5.146
17735TIP3    H274697   4.005   0.429   5.231
17736TIP3   OH274698   4.762   0.598   1.226
17736TIP3    H174699   4.790   0.605   1.135
17736TIP3    H274700   4.780   0.685   1.263
17737TIP3   OH274701   0.375   0.650   1.267
17737TIP3    H174702   0.382   0.713   1.195
17737TIP3    H274703   0.284   0.620   1.263
17738TIP3   OH274704   0.149   6.386   6.452
17738TIP3    H174705   0.136   6.395   6.546
17738TIP3    H274706   0.215   6.451   6.430
17739TIP3   OH274707   2.633   4.046  14.280
17739TIP3    H174708   2.540   4.026  14.297
17739TIP3    H274709   2.649   4.014  14.192
17740TIP3   OH274710   6.000   5.500   0.692
17740TIP3    H174711   5.997   5.408   0.718
17740TIP3    H274712   6.022   5.547   0.773
17741TIP3   OH274713   2.630   3.024  11.674
17741TIP3    H174714   2.643   3.093  11.610
17741TIP3    H274715   2.574   2.960  11.630
17742TIP3   OH274716   1.356   1.049  12.302
17742TIP3    H174717   1.276   0.999  12.286
17742TIP3    H274718   1.346   1.127  12.247
17743TIP3   OH274719   1.395   2.801   3.063
17743TIP3    H174720   1.389   2.859   2.987
17743TIP3    H274721   1.398   2.713   3.026
17744TIP3   OH274722   5.905   0.376   0.550
17744TIP3    H174723   5.920   0.286   0.579
17744TIP3    H274724   5.815   0.376   0.517
17745TIP3   OH274725   4.055   5.123   2.456
17745TIP3    H174726   4.053   5.157   2.366
17745TIP3    H274727   3.978   5.066   2.461
17746TIP3   OH274728   3.405   1.117   2.244
17746TIP3    H174729   3.431   1.079   2.328
17746TIP3    H274730   3.471   1.085   2.182
17747TIP3   OH274731   0.747   5.375  16.390
17747TIP3    H174732   0.701   5.450  16.428
17747TIP3    H274733   0.716   5.371  16.299
17748TIP3   OH274734   4.150   6.072  12.831
17748TIP3    H174735   4.089   6.143  12.809
17748TIP3    H274736   4.111   5.994  12.792
17749TIP3   OH274737   3.676   1.024  15.700
17749TIP3    H174738   3.615   1.097  15.705
17749TIP3    H274739   3.629   0.950  15.738
17750TIP3   OH274740   1.076   0.013   5.744
17750TIP3    H174741   1.135  -0.006   5.671
17750TIP3    H274742   1.098   0.103   5.770
17751TIP3   OH274743   6.582   0.570   0.180
17751TIP3    H174744   6.573   0.590   0.273
17751TIP3    H274745   6.675   0.553   0.168
17752TIP3   OH274746   3.274   5.851  12.046
17752TIP3    H174747   3.249   5.940  12.071
17752TIP3    H274748   3.191   5.808  12.025
17753TIP3   OH274749   4.942   4.964  13.145
17753TIP3    H174750   4.947   5.038  13.205
17753TIP3    H274751   4.848   4.950  13.133
17754TIP3   OH274752   3.191   2.753   0.588
17754TIP3    H174753   3.112   2.754   0.535
17754TIP3    H274754   3.160   2.770   0.677
17755TIP3   OH274755   5.334   3.094  13.171
17755TIP3    H174756   5.371   3.080  13.084
17755TIP3    H274757   5.389   3.041  13.229
17756TIP3   OH274758   3.926   1.841  16.727
17756TIP3    H174759   3.937   1.914  16.788
17756TIP3    H274760   3.960   1.765  16.774
17757TIP3   OH274761   5.846   2.130   1.934
17757TIP3    H174762   5.778   2.095   1.876
17757TIP3    H274763   5.858   2.062   2.000
17758TIP3   OH274764   0.787   2.116  16.011
17758TIP3    H174765   0.879   2.093  16.025
17758TIP3    H274766   0.780   2.131  15.917
17759TIP3   OH274767   4.258   6.123   1.403
17759TIP3    H174768   4.292   6.033   1.405
17759TIP3    H274769   4.223   6.133   1.314
17760TIP3   OH274770   1.032   0.471   2.680
17760TIP3    H174771   1.004   0.458   2.771
17760TIP3    H274772   1.127   0.463   2.683
17761TIP3   OH274773   5.369   3.230   0.954
17761TIP3    H174774   5.315   3.207   0.878
17761TIP3    H274775   5.435   3.290   0.920
17762TIP3   OH274776   2.630   4.359   0.290
17762TIP3    H174777   2.710   4.336   0.338
17762TIP3    H274778   2.584   4.275   0.281
17763TIP3   OH274779   5.760   2.261   0.005
17763TIP3    H174780   5.816   2.184   0.009
17763TIP3    H274781   5.746   2.286   0.096
17764TIP3   OH274782   3.842   0.750  16.183
17764TIP3    H174783   3.891   0.803  16.121
17764TIP3    H274784   3.750   0.769  16.166
17765TIP3   OH274785   3.012   6.001  11.806
17765TIP3    H174786   3.097   6.044  11.806
17765TIP3    H274787   2.949   6.073  11.816
17766TIP3   OH274788   4.971   2.148   3.110
17766TIP3    H174789   5.049   2.161   3.163
17766TIP3    H274790   4.911   2.217   3.138
17767TIP3   OH274791   4.771   0.953  15.533
17767TIP3    H174792   4.685   0.913  15.543
17767TIP3    H274793   4.754   1.036  15.487
17768TIP3   OH274794   4.103   5.649   6.037
17768TIP3    H174795   4.176   5.591   6.014
17768TIP3    H274796   4.061   5.605   6.111
17769TIP3   OH274797   3.160   4.564   2.410
17769TIP3    H174798   3.100   4.533   2.477
17769TIP3    H274799   3.221   4.621   2.457
17770TIP3   OH274800   5.430   3.344  15.369
17770TIP3    H174801   5.498   3.280  15.347
17770TIP3    H274802   5.421   3.338  15.464
17771TIP3   OH274803   5.435   0.357  11.380
17771TIP3    H174804   5.482   0.373  11.298
17771TIP3    H274805   5.497   0.383  11.448
17772TIP3   OH274806   1.043   3.589   3.416
17772TIP3    H174807   1.090   3.635   3.486
17772TIP3    H274808   1.109   3.572   3.349
17773TIP3   OH274809   0.613   6.418   0.719
17773TIP3    H174810   0.648   6.507   0.727
17773TIP3    H274811   0.544   6.413   0.785
17774TIP3   OH274812   2.891   6.791  16.272
17774TIP3    H174813   2.825   6.742  16.223
17774TIP3    H274814   2.846   6.872  16.299
17775TIP3   OH274815   1.637   6.477   2.268
17775TIP3    H174816   1.655   6.410   2.201
17775TIP3    H274817   1.724   6.505   2.297
17776TIP3   OH274818   1.422   2.503  14.482
17776TIP3    H174819   1.433   2.547  14.398
17776TIP3    H274820   1.506   2.459  14.497
17777TIP3   OH274821   3.763   6.682  12.077
17777TIP3    H174822   3.857   6.694  12.066
17777TIP3    H274823   3.724   6.764  12.046
17778TIP3   OH274824   0.877   0.216  12.504
17778TIP3    H174825   0.888   0.204  12.598
17778TIP3    H274826   0.959   0.256  12.475
17779TIP3   OH274827   1.550   1.673   1.942
17779TIP3    H174828   1.633   1.627   1.927
17779TIP3    H274829   1.527   1.654   2.033
17780TIP3   OH274830   5.864   2.870   4.568
17780TIP3    H174831   5.893   2.902   4.482
17780TIP3    H274832   5.858   2.949   4.622
17781TIP3   OH274833   4.036   6.378  10.944
17781TIP3    H174834   3.966   6.333  10.896
17781TIP3    H274835   4.109   6.316  10.943
17782TIP3   OH274836   6.204   4.840  12.641
17782TIP3    H174837   6.164   4.757  12.668
17782TIP3    H274838   6.266   4.816  12.572
17783TIP3   OH274839   3.654   5.496  11.244
17783TIP3    H174840   3.687   5.494  11.155
17783TIP3    H274841   3.559   5.506  11.234
17784TIP3   OH274842   1.761   4.816  12.775
17784TIP3    H174843   1.803   4.773  12.700
17784TIP3    H274844   1.772   4.755  12.847
17785TIP3   OH274845   3.372   5.537  11.164
17785TIP3    H174846   3.410   5.512  11.079
17785TIP3    H274847   3.279   5.515  11.156
17786TIP3   OH274848   3.128   6.502   5.894
17786TIP3    H174849   3.056   6.439   5.896
17786TIP3    H274850   3.180   6.481   5.971
17787TIP3   OH274851   1.851   6.225  17.009
17787TIP3    H174852   1.828   6.154  17.069
17787TIP3    H274853   1.767   6.252  16.971
17788TIP3   OH274854   2.165   3.608   6.148
17788TIP3    H174855   2.149   3.682   6.207
17788TIP3    H274856   2.155   3.531   6.204
17789TIP3   OH274857   5.995   2.425  13.611
17789TIP3    H174858   5.998   2.353  13.675
17789TIP3    H274859   6.085   2.433  13.580
17790TIP3   OH274860   5.997   1.111  13.074
17790TIP3    H174861   6.017   1.141  13.162
17790TIP3    H274862   6.062   1.044  13.055
17791TIP3   OH274863   6.778   1.440   5.781
17791TIP3    H174864   6.699   1.458   5.832
17791TIP3    H274865   6.839   1.401   5.844
17792TIP3   OH274866   3.854   3.364   3.111
17792TIP3    H174867   3.772   3.319   3.094
17792TIP3    H274868   3.899   3.366   3.027
17793TIP3   OH274869   3.632   3.195   3.124
17793TIP3    H174870   3.603   3.228   3.209
17793TIP3    H274871   3.552   3.194   3.071
17794TIP3   OH274872   3.949   0.604   2.012
17794TIP3    H174873   3.896   0.530   2.044
17794TIP3    H274874   3.885   0.659   1.966
17795TIP3   OH274875   3.256   0.392  13.146
17795TIP3    H174876   3.199   0.460  13.181
17795TIP3    H274877   3.211   0.310  13.166
17796TIP3   OH274878   4.457   5.415   2.055
17796TIP3    H174879   4.484   5.499   2.091
17796TIP3    H274880   4.418   5.368   2.129
17797TIP3   OH274881   2.555   5.479   2.339
17797TIP3    H174882   2.471   5.441   2.313
17797TIP3    H274883   2.582   5.428   2.416
17798TIP3   OH274884   2.294   6.192   6.031
17798TIP3    H174885   2.285   6.101   6.058
17798TIP3    H274886   2.254   6.195   5.944
17799TIP3   OH274887   1.973   6.263   1.109
17799TIP3    H174888   1.938   6.337   1.158
17799TIP3    H274889   1.924   6.265   1.026
17800TIP3   OH274890   6.284   3.556  17.214
17800TIP3    H174891   6.199   3.593  17.236
17800TIP3    H274892   6.327   3.625  17.162
17801TIP3   OH274893   1.936   5.239  14.326
17801TIP3    H174894   1.902   5.152  14.347
17801TIP3    H274895   1.859   5.288  14.298
17802TIP3   OH274896   5.817   0.352   5.824
17802TIP3    H174897   5.817   0.441   5.788
17802TIP3    H274898   5.895   0.349   5.879
17803TIP3   OH274899   0.759   6.456   6.746
17803TIP3    H174900   0.718   6.450   6.833
17803TIP3    H274901   0.692   6.425   6.686
17804TIP3   OH274902   4.411   6.417  15.102
17804TIP3    H174903   4.379   6.452  15.185
17804TIP3    H274904   4.332   6.394  15.053
17805TIP3   OH274905   2.687   5.873  14.681
17805TIP3    H174906   2.615   5.847  14.739
17805TIP3    H274907   2.765   5.835  14.722
17806TIP3   OH274908   0.127   5.785   3.253
17806TIP3    H174909   0.069   5.736   3.194
17806TIP3    H274910   0.202   5.809   3.198
17807TIP3   OH274911   0.270   0.442  14.109
17807TIP3    H174912   0.322   0.503  14.161
17807TIP3    H274913   0.328   0.366  14.098
17808TIP3   OH274914   4.110   3.604   6.565
17808TIP3    H174915   4.052   3.617   6.640
17808TIP3    H274916   4.100   3.511   6.544
17809TIP3   OH274917   6.263   2.312   0.679
17809TIP3    H174918   6.323   2.352   0.616
17809TIP3    H274919   6.242   2.227   0.642
17810TIP3   OH274920   0.107   5.705   1.308
17810TIP3    H174921   0.111   5.799   1.329
17810TIP3    H274922   0.102   5.702   1.212
17811TIP3   OH274923   0.171   1.159  16.639
17811TIP3    H174924   0.101   1.216  16.606
17811TIP3    H274925   0.165   1.080  16.586
17812TIP3   OH274926   3.457   1.410  12.504
17812TIP3    H174927   3.369   1.382  12.532
17812TIP3    H274928   3.453   1.411  12.409
17813TIP3   OH274929   6.594   6.641  12.743
17813TIP3    H174930   6.617   6.557  12.702
17813TIP3    H274931   6.500   6.635  12.758
17814TIP3   OH274932   3.672   4.722   1.051
17814TIP3    H174933   3.592   4.763   1.018
17814TIP3    H274934   3.670   4.633   1.015
17815TIP3   OH274935   3.122   1.285  16.794
17815TIP3    H174936   3.117   1.299  16.888
17815TIP3    H274937   3.082   1.362  16.756
17816TIP3   OH274938   0.913   4.163   5.600
17816TIP3    H174939   0.880   4.215   5.673
17816TIP3    H274940   0.967   4.096   5.642
17817TIP3   OH274941   5.687   1.915  15.138
17817TIP3    H174942   5.629   1.975  15.090
17817TIP3    H274943   5.769   1.916  15.088
17818TIP3   OH274944   2.834   5.331   2.318
17818TIP3    H174945   2.749   5.338   2.275
17818TIP3    H274946   2.831   5.396   2.389
17819TIP3   OH274947   1.566   2.976   0.176
17819TIP3    H174948   1.571   2.933   0.262
17819TIP3    H274949   1.619   2.921   0.119
17820TIP3   OH274950   0.221   4.408   2.523
17820TIP3    H174951   0.189   4.414   2.432
17820TIP3    H274952   0.293   4.345   2.518
17821TIP3   OH274953   6.145   1.721  16.798
17821TIP3    H174954   6.188   1.786  16.742
17821TIP3    H274955   6.077   1.770  16.844
17822TIP3   OH274956   2.754   4.978   0.308
17822TIP3    H174957   2.667   4.988   0.268
17822TIP3    H274958   2.799   4.916   0.251
17823TIP3   OH274959   6.764   0.200  15.642
17823TIP3    H174960   6.768   0.289  15.676
17823TIP3    H274961   6.743   0.146  15.717
17824TIP3   OH274962   6.682   5.760  15.704
17824TIP3    H174963   6.651   5.757  15.613
17824TIP3    H274964   6.684   5.668  15.731
17825TIP3   OH274965   3.605   2.122  16.242
17825TIP3    H174966   3.560   2.131  16.326
17825TIP3    H274967   3.539   2.147  16.177
17826TIP3   OH274968   6.540   5.029   6.165
17826TIP3    H174969   6.608   4.964   6.182
17826TIP3    H274970   6.471   5.008   6.228
17827TIP3   OH274971   4.698   2.927  14.295
17827TIP3    H174972   4.686   2.833  14.308
17827TIP3    H274973   4.793   2.938  14.291
17828TIP3   OH274974   1.506   3.289  11.758
17828TIP3    H174975   1.546   3.374  11.737
17828TIP3    H274976   1.522   3.278  11.852
17829TIP3   OH274977   6.184   1.906   2.119
17829TIP3    H174978   6.093   1.934   2.113
17829TIP3    H274979   6.203   1.909   2.213
17830TIP3   OH274980   0.234   6.262   1.508
17830TIP3    H174981   0.287   6.263   1.588
17830TIP3    H274982   0.276   6.197   1.452
17831TIP3   OH274983   2.114   6.029  11.005
17831TIP3    H174984   2.069   6.076  11.076
17831TIP3    H274985   2.197   6.075  10.995
17832TIP3   OH274986   3.403   2.918   5.120
17832TIP3    H174987   3.449   2.997   5.092
17832TIP3    H274988   3.447   2.846   5.074
17833TIP3   OH274989   5.757   3.701  15.943
17833TIP3    H174990   5.759   3.614  15.902
17833TIP3    H274991   5.841   3.740  15.919
17834TIP3   OH274992   4.844   4.514  10.995
17834TIP3    H174993   4.825   4.571  10.921
17834TIP3    H274994   4.797   4.553  11.069
17835TIP3   OH274995   3.319   5.773  15.122
17835TIP3    H174996   3.268   5.696  15.100
17835TIP3    H274997   3.348   5.808  15.038
17836TIP3   OH274998   0.049   3.803   0.825
17836TIP3    H174999  -0.021   3.847   0.777
17836TIP3    H275000   0.116   3.871   0.837
17837TIP3   OH275001   4.993   1.587  16.147
17837TIP3    H175002   5.056   1.656  16.128
17837TIP3    H275003   4.937   1.584  16.069
17838TIP3   OH275004   2.056   1.555  10.963
17838TIP3    H175005   2.121   1.534  10.896
17838TIP3    H275006   2.056   1.478  11.021
17839TIP3   OH275007   1.101   2.713  15.064
17839TIP3    H175008   1.062   2.800  15.052
17839TIP3    H275009   1.140   2.693  14.979
17840TIP3   OH275010   0.749   5.074  13.905
17840TIP3    H175011   0.694   5.085  13.983
17840TIP3    H275012   0.745   4.980  13.886
17841TIP3   OH275013   6.418   1.157  11.843
17841TIP3    H175014   6.462   1.208  11.911
17841TIP3    H275015   6.413   1.217  11.768
17842TIP3   OH275016   6.540   1.044   0.319
17842TIP3    H175017   6.462   1.071   0.270
17842TIP3    H275018   6.609   1.040   0.253
17843TIP3   OH275019   3.434   1.746  13.089
17843TIP3    H175020   3.398   1.798  13.160
17843TIP3    H275021   3.427   1.656  13.120
17844TIP3   OH275022   5.873   4.475   2.637
17844TIP3    H175023   5.821   4.545   2.677
17844TIP3    H275024   5.808   4.420   2.593
17845TIP3   OH275025   4.803   2.639  12.591
17845TIP3    H175026   4.767   2.697  12.659
17845TIP3    H275027   4.804   2.693  12.512
17846TIP3   OH275028   4.281   5.193   5.277
17846TIP3    H175029   4.315   5.190   5.187
17846TIP3    H275030   4.258   5.285   5.289
17847TIP3   OH275031   1.401   5.884  16.146
17847TIP3    H175032   1.345   5.962  16.154
17847TIP3    H275033   1.454   5.884  16.225
17848TIP3   OH275034   3.848   1.814   2.139
17848TIP3    H175035   3.905   1.883   2.174
17848TIP3    H275036   3.818   1.849   2.055
17849TIP3   OH275037   2.252   5.582   1.014
17849TIP3    H175038   2.308   5.566   1.091
17849TIP3    H275039   2.180   5.635   1.047
17850TIP3   OH275040   6.584   1.325  14.888
17850TIP3    H175041   6.528   1.312  14.811
17850TIP3    H275042   6.559   1.255  14.948
17851TIP3   OH275043   2.821   3.965   6.770
17851TIP3    H175044   2.775   3.966   6.686
17851TIP3    H275045   2.914   3.961   6.746
17852TIP3   OH275046   4.262   4.357   0.165
17852TIP3    H175047   4.234   4.422   0.100
17852TIP3    H275048   4.218   4.384   0.246
17853TIP3   OH275049   0.433   6.704  14.825
17853TIP3    H175050   0.440   6.609  14.820
17853TIP3    H275051   0.384   6.720  14.905
17854TIP3   OH275052   0.180   6.118   2.263
17854TIP3    H175053   0.182   6.200   2.214
17854TIP3    H275054   0.179   6.050   2.196
17855TIP3   OH275055   5.293   3.581  11.552
17855TIP3    H175056   5.333   3.641  11.489
17855TIP3    H275057   5.364   3.560  11.613
17856TIP3   OH275058   3.624   6.219   4.220
17856TIP3    H175059   3.667   6.139   4.187
17856TIP3    H275060   3.626   6.279   4.146
17857TIP3   OH275061   4.748   3.369   1.238
17857TIP3    H175062   4.710   3.414   1.314
17857TIP3    H275063   4.674   3.356   1.179
17858TIP3   OH275064   5.750   3.196   6.133
17858TIP3    H175065   5.733   3.179   6.226
17858TIP3    H275066   5.844   3.187   6.123
17859TIP3   OH275067   5.782   1.318  14.813
17859TIP3    H175068   5.697   1.275  14.801
17859TIP3    H275069   5.830   1.261  14.873
17860TIP3   OH275070   5.783   0.859   4.978
17860TIP3    H175071   5.811   0.923   4.912
17860TIP3    H275072   5.822   0.777   4.949
17861TIP3   OH275073   0.301   1.133  11.737
17861TIP3    H175074   0.267   1.162  11.652
17861TIP3    H275075   0.224   1.110  11.788
17862TIP3   OH275076   2.301   6.281  16.688
17862TIP3    H175077   2.296   6.191  16.720
17862TIP3    H275078   2.338   6.331  16.760
17863TIP3   OH275079   2.249   6.371   2.033
17863TIP3    H175080   2.285   6.446   1.985
17863TIP3    H275081   2.324   6.336   2.082
17864TIP3   OH275082   0.993   3.284   5.920
17864TIP3    H175083   0.917   3.280   5.861
17864TIP3    H275084   0.961   3.329   5.998
17865TIP3   OH275085   3.902   3.764  12.409
17865TIP3    H175086   3.976   3.716  12.372
17865TIP3    H275087   3.889   3.724  12.495
17866TIP3   OH275088   3.405   5.743   0.055
17866TIP3    H175089   3.368   5.715  -0.029
17866TIP3    H275090   3.478   5.800   0.031
17867TIP3   OH275091   5.691   3.914   1.689
17867TIP3    H175092   5.741   3.917   1.770
17867TIP3    H275093   5.641   3.832   1.694
17868TIP3   OH275094   4.902   3.765   6.470
17868TIP3    H175095   4.880   3.672   6.472
17868TIP3    H275096   4.887   3.790   6.379
17869TIP3   OH275097   5.377   2.053   4.552
17869TIP3    H175098   5.344   2.110   4.483
17869TIP3    H275099   5.415   2.113   4.616
17870TIP3   OH275100   3.346   3.265  14.798
17870TIP3    H175101   3.398   3.303  14.727
17870TIP3    H275102   3.258   3.300  14.785
17871TIP3   OH275103   4.000   3.417  11.695
17871TIP3    H175104   3.979   3.496  11.646
17871TIP3    H275105   4.093   3.426  11.717
17872TIP3   OH275106   2.038   0.936  14.948
17872TIP3    H175107   2.040   0.919  14.853
17872TIP3    H275108   1.974   1.007  14.957
17873TIP3   OH275109   3.533   4.959   5.403
17873TIP3    H175110   3.542   4.933   5.311
17873TIP3    H275111   3.549   5.053   5.403
17874TIP3   OH275112   3.140   6.806   4.333
17874TIP3    H175113   3.197   6.853   4.272
17874TIP3    H275114   3.072   6.768   4.278
17875TIP3   OH275115   2.693   6.728   6.775
17875TIP3    H175116   2.672   6.817   6.803
17875TIP3    H275117   2.627   6.708   6.708
17876TIP3   OH275118   0.308   4.285  15.277
17876TIP3    H175119   0.234   4.227  15.260
17876TIP3    H275120   0.357   4.242  15.347
17877TIP3   OH275121   2.548   2.388  14.919
17877TIP3    H175122   2.532   2.355  14.830
17877TIP3    H275123   2.640   2.417  14.917
17878TIP3   OH275124   5.899   3.632   3.436
17878TIP3    H175125   5.953   3.704   3.404
17878TIP3    H275126   5.881   3.654   3.527
17879TIP3   OH275127   3.391   4.513   1.160
17879TIP3    H175128   3.382   4.501   1.254
17879TIP3    H275129   3.359   4.602   1.144
17880TIP3   OH275130   1.394   5.623  11.111
17880TIP3    H175131   1.362   5.636  11.200
17880TIP3    H275132   1.316   5.623  11.057
17881TIP3   OH275133   1.947   5.829  13.458
17881TIP3    H175134   1.853   5.844  13.443
17881TIP3    H275135   1.968   5.880  13.536
17882TIP3   OH275136   1.415   0.041  12.602
17882TIP3    H175137   1.342   0.009  12.549
17882TIP3    H275138   1.480   0.070  12.538
17883TIP3   OH275139   4.058   3.126  11.430
17883TIP3    H175140   4.104   3.154  11.509
17883TIP3    H275141   3.965   3.131  11.453
17884TIP3   OH275142   2.422   0.311   4.835
17884TIP3    H175143   2.486   0.381   4.820
17884TIP3    H275144   2.385   0.295   4.748
17885TIP3   OH275145   0.883   0.722   3.141
17885TIP3    H175146   0.797   0.688   3.117
17885TIP3    H275147   0.901   0.685   3.227
17886TIP3   OH275148   0.019   3.680   2.174
17886TIP3    H175149   0.076   3.646   2.105
17886TIP3    H275150   0.002   3.604   2.229
17887TIP3   OH275151   2.867   3.400  17.233
17887TIP3    H175152   2.808   3.328  17.212
17887TIP3    H275153   2.880   3.393  17.328
17888TIP3   OH275154   3.756   6.243  13.836
17888TIP3    H175155   3.716   6.239  13.750
17888TIP3    H275156   3.840   6.197  13.826
17889TIP3   OH275157   4.627   3.613  15.955
17889TIP3    H175158   4.570   3.646  15.885
17889TIP3    H275159   4.637   3.686  16.015
17890TIP3   OH275160   0.491   3.120  15.036
17890TIP3    H175161   0.560   3.055  15.018
17890TIP3    H275162   0.441   3.081  15.108
17891TIP3   OH275163   2.307   4.264   4.779
17891TIP3    H175164   2.340   4.353   4.769
17891TIP3    H275165   2.219   4.267   4.742
17892TIP3   OH275166   0.410   0.632  14.255
17892TIP3    H175167   0.485   0.619  14.312
17892TIP3    H275168   0.386   0.724  14.266
17893TIP3   OH275169   0.762   4.710   2.346
17893TIP3    H175170   0.748   4.776   2.278
17893TIP3    H275171   0.714   4.743   2.422
17894TIP3   OH275172   2.613   0.750   5.231
17894TIP3    H175173   2.663   0.801   5.168
17894TIP3    H275174   2.542   0.712   5.181
17895TIP3   OH275175   4.602   6.240   5.383
17895TIP3    H175176   4.679   6.186   5.401
17895TIP3    H275177   4.537   6.179   5.349
17896TIP3   OH275178   5.713   4.481  11.863
17896TIP3    H175179   5.706   4.541  11.937
17896TIP3    H275180   5.648   4.512  11.801
17897TIP3   OH275181   6.618   1.144   0.566
17897TIP3    H175182   6.645   1.121   0.477
17897TIP3    H275183   6.560   1.219   0.554
17898TIP3   OH275184   1.825   1.289   0.247
17898TIP3    H175185   1.815   1.239   0.165
17898TIP3    H275186   1.903   1.251   0.288
17899TIP3   OH275187   0.408   4.807   3.237
17899TIP3    H175188   0.402   4.900   3.263
17899TIP3    H275189   0.410   4.809   3.141
17900TIP3   OH275190   4.493   2.681   0.380
17900TIP3    H175191   4.496   2.771   0.348
17900TIP3    H275192   4.409   2.647   0.352
17901TIP3   OH275193   3.055   0.147   2.523
17901TIP3    H175194   3.031   0.240   2.528
17901TIP3    H275195   3.144   0.148   2.488
17902TIP3   OH275196   0.275   6.458   5.154
17902TIP3    H175197   0.261   6.504   5.237
17902TIP3    H275198   0.289   6.367   5.179
17903TIP3   OH275199   6.150   0.447   1.204
17903TIP3    H175200   6.122   0.399   1.126
17903TIP3    H275201   6.100   0.529   1.201
17904TIP3   OH275202   5.734   2.110  13.055
17904TIP3    H175203   5.676   2.045  13.017
17904TIP3    H275204   5.723   2.187  13.000
17905TIP3   OH275205   0.321   4.103   1.128
17905TIP3    H175206   0.389   4.129   1.191
17905TIP3    H275207   0.241   4.102   1.180
17906TIP3   OH275208   1.504   2.442  16.535
17906TIP3    H175209   1.570   2.378  16.509
17906TIP3    H275210   1.550   2.526  16.531
17907TIP3   OH275211   5.198   2.195  11.341
17907TIP3    H175212   5.273   2.219  11.287
17907TIP3    H275213   5.164   2.115  11.301
17908TIP3   OH275214   2.164   6.153   5.128
17908TIP3    H175215   2.150   6.074   5.181
17908TIP3    H275216   2.110   6.219   5.171
17909TIP3   OH275217   4.882   6.330   4.319
17909TIP3    H175218   4.789   6.310   4.326
17909TIP3    H275219   4.890   6.421   4.348
17910TIP3   OH275220   6.457   4.238   0.260
17910TIP3    H175221   6.542   4.258   0.223
17910TIP3    H275222   6.415   4.324   0.272
17911TIP3   OH275223   3.088   3.869  12.510
17911TIP3    H175224   3.056   3.954  12.482
17911TIP3    H275225   3.150   3.843  12.442
17912TIP3   OH275226   0.428   2.303   0.746
17912TIP3    H175227   0.488   2.315   0.673
17912TIP3    H275228   0.458   2.223   0.789
17913TIP3   OH275229   0.954   1.528  13.454
17913TIP3    H175230   1.015   1.602  13.459
17913TIP3    H275231   0.982   1.478  13.377
17914TIP3   OH275232   3.385   6.113  15.847
17914TIP3    H175233   3.473   6.079  15.829
17914TIP3    H275234   3.396   6.166  15.926
17915TIP3   OH275235   0.450   4.384   5.310
17915TIP3    H175236   0.360   4.355   5.293
17915TIP3    H275237   0.461   4.461   5.254
17916TIP3   OH275238   5.706   3.221  11.523
17916TIP3    H175239   5.771   3.161  11.560
17916TIP3    H275240   5.736   3.308  11.549
17917TIP3   OH275241   3.740   1.445   0.680
17917TIP3    H175242   3.732   1.518   0.742
17917TIP3    H275243   3.835   1.432   0.671
17918TIP3   OH275244   4.609   1.215  10.941
17918TIP3    H175245   4.640   1.235  10.853
17918TIP3    H275246   4.563   1.132  10.932
17919TIP3   OH275247   5.311   2.904  16.891
17919TIP3    H175248   5.353   2.990  16.887
17919TIP3    H275249   5.278   2.889  16.802
17920TIP3   OH275250   6.465   0.912  13.360
17920TIP3    H175251   6.463   1.004  13.384
17920TIP3    H275252   6.556   0.886  13.372
17921TIP3   OH275253   0.060   4.649  14.998
17921TIP3    H175254   0.057   4.570  15.052
17921TIP3    H275255   0.153   4.663  14.981
17922TIP3   OH275256   2.372   2.308   4.312
17922TIP3    H175257   2.365   2.326   4.406
17922TIP3    H275258   2.282   2.303   4.282
17923TIP3   OH275259   2.515   2.915   0.777
17923TIP3    H175260   2.599   2.899   0.733
17923TIP3    H275261   2.484   2.827   0.801
17924TIP3   OH275262   1.450   1.751   6.147
17924TIP3    H175263   1.515   1.689   6.112
17924TIP3    H275264   1.471   1.757   6.241
17925TIP3   OH275265   1.707   3.126  13.431
17925TIP3    H175266   1.687   3.159  13.519
17925TIP3    H275267   1.652   3.049  13.421
17926TIP3   OH275268   4.390   3.561  10.555
17926TIP3    H175269   4.313   3.615  10.538
17926TIP3    H275270   4.425   3.542  10.468
17927TIP3   OH275271   1.328   0.224   3.138
17927TIP3    H175272   1.422   0.208   3.143
17927TIP3    H275273   1.314   0.260   3.051
17928TIP3   OH275274   5.438   5.144  13.684
17928TIP3    H175275   5.391   5.121  13.604
17928TIP3    H275276   5.531   5.141  13.660
17929TIP3   OH275277   4.285   6.036  13.075
17929TIP3    H175278   4.365   5.984  13.067
17929TIP3    H275279   4.244   6.031  12.989
17930TIP3   OH275280   4.052   5.083   6.026
17930TIP3    H175281   4.072   5.170   5.992
17930TIP3    H275282   4.088   5.023   5.960
17931TIP3   OH275283   2.652   2.686   1.838
17931TIP3    H175284   2.727   2.740   1.861
17931TIP3    H275285   2.623   2.647   1.921
17932TIP3   OH275286   6.509   4.100  14.762
17932TIP3    H175287   6.603   4.101  14.745
17932TIP3    H275288   6.486   4.007  14.765
17933TIP3   OH275289   0.401   0.574   2.880
17933TIP3    H175290   0.386   0.511   2.810
17933TIP3    H275291   0.314   0.609   2.901
17934TIP3   OH275292   0.997   1.047  13.979
17934TIP3    H175293   1.090   1.069  13.985
17934TIP3    H275294   0.995   0.951  13.971
17935TIP3   OH275295   6.513   5.483  11.037
17935TIP3    H175296   6.475   5.395  11.040
17935TIP3    H275297   6.438   5.542  11.040
17936TIP3   OH275298   3.927   6.089   6.025
17936TIP3    H175299   3.924   6.135   5.941
17936TIP3    H275300   4.000   6.130   6.071
17937TIP3   OH275301   5.631   1.624   5.793
17937TIP3    H175302   5.574   1.663   5.727
17937TIP3    H275303   5.614   1.530   5.787
17938TIP3   OH275304   5.960   5.704  11.498
17938TIP3    H175305   5.920   5.621  11.526
17938TIP3    H275306   5.927   5.719  11.410
17939TIP3   OH275307   3.901   6.639   2.263
17939TIP3    H175308   3.943   6.723   2.248
17939TIP3    H275309   3.971   6.581   2.294
17940TIP3   OH275310   6.670   0.172   1.711
17940TIP3    H175311   6.581   0.183   1.677
17940TIP3    H275312   6.663   0.190   1.804
17941TIP3   OH275313   5.976   1.126   2.400
17941TIP3    H175314   6.064   1.157   2.421
17941TIP3    H275315   5.935   1.111   2.486
17942TIP3   OH275316   2.009   3.180   0.403
17942TIP3    H175317   2.004   3.264   0.356
17942TIP3    H275318   2.011   3.114   0.333
17943TIP3   OH275319   2.185   6.751  13.198
17943TIP3    H175320   2.219   6.671  13.239
17943TIP3    H275321   2.093   6.752  13.222
17944TIP3   OH275322   0.970   1.272  17.080
17944TIP3    H175323   0.969   1.367  17.069
17944TIP3    H275324   1.022   1.240  17.006
17945TIP3   OH275325   2.786   4.036  12.952
17945TIP3    H175326   2.723   3.966  12.938
17945TIP3    H275327   2.838   4.008  13.027
17946TIP3   OH275328   2.121   6.260  12.970
17946TIP3    H175329   2.107   6.188  12.908
17946TIP3    H275330   2.037   6.272  13.013
17947TIP3   OH275331   6.459   6.362  13.806
17947TIP3    H175332   6.420   6.445  13.778
17947TIP3    H275333   6.507   6.331  13.730
17948TIP3   OH275334   3.863   1.918  15.659
17948TIP3    H175335   3.861   1.912  15.754
17948TIP3    H275336   3.948   1.959  15.640
17949TIP3   OH275337   1.065   2.449  11.524
17949TIP3    H175338   1.130   2.382  11.546
17949TIP3    H275339   1.117   2.528  11.506
17950TIP3   OH275340   3.680   2.557  15.670
17950TIP3    H175341   3.765   2.540  15.630
17950TIP3    H275342   3.636   2.472  15.672
17951TIP3   OH275343   4.479   1.286   6.227
17951TIP3    H175344   4.445   1.371   6.197
17951TIP3    H275345   4.401   1.237   6.254
17952TIP3   OH275346   6.080   3.250  13.768
17952TIP3    H175347   6.108   3.226  13.856
17952TIP3    H275348   6.098   3.171  13.715
17953TIP3   OH275349   2.704   3.755  11.947
17953TIP3    H175350   2.708   3.843  11.984
17953TIP3    H275351   2.699   3.697  12.023
17954TIP3   OH275352   5.446   4.706  16.598
17954TIP3    H175353   5.447   4.617  16.561
17954TIP3    H275354   5.443   4.764  16.522
17955TIP3   OH275355   4.887   4.425   0.919
17955TIP3    H175356   4.810   4.372   0.938
17955TIP3    H275357   4.959   4.361   0.910
17956TIP3   OH275358   0.444   0.091  14.260
17956TIP3    H175359   0.402   0.170  14.294
17956TIP3    H275360   0.437   0.098  14.165
17957TIP3   OH275361   1.079   3.521  12.469
17957TIP3    H175362   1.003   3.481  12.428
17957TIP3    H275363   1.047   3.553  12.553
17958TIP3   OH275364   0.473   5.727  12.697
17958TIP3    H175365   0.482   5.640  12.736
17958TIP3    H275366   0.484   5.713  12.603
17959TIP3   OH275367   5.369   0.049  16.738
17959TIP3    H175368   5.315   0.008  16.806
17959TIP3    H275369   5.457   0.017  16.754
17960TIP3   OH275370   1.518   1.213   0.316
17960TIP3    H175371   1.599   1.248   0.353
17960TIP3    H275372   1.520   1.239   0.224
17961TIP3   OH275373   5.744   0.890  11.894
17961TIP3    H175374   5.690   0.827  11.846
17961TIP3    H275375   5.721   0.975  11.856
17962TIP3   OH275376   2.700   5.813  16.323
17962TIP3    H175377   2.669   5.839  16.236
17962TIP3    H275378   2.656   5.874  16.383
17963TIP3   OH275379   2.603   4.800   1.956
17963TIP3    H175380   2.512   4.818   1.933
17963TIP3    H275381   2.598   4.760   2.043
17964TIP3   OH275382   0.900   6.315   4.851
17964TIP3    H175383   0.903   6.361   4.935
17964TIP3    H275384   0.842   6.240   4.868
17965TIP3   OH275385   3.990   2.600   3.069
17965TIP3    H175386   4.029   2.661   3.132
17965TIP3    H275387   3.965   2.525   3.122
17966TIP3   OH275388   2.667   1.392   5.620
17966TIP3    H175389   2.737   1.348   5.572
17966TIP3    H275390   2.677   1.362   5.710
17967TIP3   OH275391   0.834   2.022  13.469
17967TIP3    H175392   0.818   2.105  13.425
17967TIP3    H275393   0.749   1.979  13.471
17968TIP3   OH275394   1.535   5.665  17.054
17968TIP3    H175395   1.475   5.595  17.028
17968TIP3    H275396   1.484   5.721  17.112
17969TIP3   OH275397   4.462   1.637   6.372
17969TIP3    H175398   4.514   1.565   6.406
17969TIP3    H275399   4.459   1.623   6.277
17970TIP3   OH275400   4.965   4.528   3.932
17970TIP3    H175401   5.054   4.549   3.959
17970TIP3    H275402   4.911   4.596   3.973
17971TIP3   OH275403   1.596   3.169   0.491
17971TIP3    H175404   1.530   3.155   0.559
17971TIP3    H275405   1.563   3.121   0.416
17972TIP3   OH275406   4.193   4.280   2.182
17972TIP3    H175407   4.205   4.186   2.167
17972TIP3    H275408   4.181   4.287   2.277
17973TIP3   OH275409   5.695   0.705   3.387
17973TIP3    H175410   5.699   0.626   3.441
17973TIP3    H275411   5.672   0.673   3.299
17974TIP3   OH275412   3.876   6.073  14.939
17974TIP3    H175413   3.908   5.982  14.941
17974TIP3    H275414   3.800   6.073  14.996
17975TIP3   OH275415   4.961   0.243  14.997
17975TIP3    H175416   4.913   0.322  14.973
17975TIP3    H275417   4.917   0.211  15.076
17976TIP3   OH275418   2.859   2.594  14.567
17976TIP3    H175419   2.910   2.530  14.616
17976TIP3    H275420   2.861   2.673  14.620
17977TIP3   OH275421   4.736   4.291  16.722
17977TIP3    H175422   4.712   4.384  16.730
17977TIP3    H275423   4.693   4.249  16.797
17978TIP3   OH275424   0.478   0.643   0.676
17978TIP3    H175425   0.545   0.705   0.703
17978TIP3    H275426   0.418   0.639   0.750
17979TIP3   OH275427   3.361   2.486  17.244
17979TIP3    H175428   3.341   2.528  17.328
17979TIP3    H275429   3.437   2.430  17.263
17980TIP3   OH275430   6.804   6.505  11.454
17980TIP3    H175431   6.713   6.535  11.457
17980TIP3    H275432   6.834   6.527  11.366
17981TIP3   OH275433   1.289   2.328   0.905
17981TIP3    H175434   1.277   2.359   0.994
17981TIP3    H275435   1.202   2.299   0.877
17982TIP3   OH275436   1.672   4.259   1.440
17982TIP3    H175437   1.671   4.325   1.370
17982TIP3    H275438   1.612   4.293   1.506
17983TIP3   OH275439   3.555   0.585  12.013
17983TIP3    H175440   3.552   0.612  12.105
17983TIP3    H275441   3.623   0.518  12.011
17984TIP3   OH275442   4.604   2.588   2.583
17984TIP3    H175443   4.604   2.589   2.487
17984TIP3    H275444   4.642   2.503   2.606
17985TIP3   OH275445   3.736   1.926  12.825
17985TIP3    H175446   3.783   1.903  12.745
17985TIP3    H275447   3.652   1.882  12.816
17986TIP3   OH275448   3.527   6.118   5.224
17986TIP3    H175449   3.477   6.107   5.143
17986TIP3    H275450   3.496   6.201   5.260
17987TIP3   OH275451   3.860   6.746   6.043
17987TIP3    H175452   3.823   6.759   6.130
17987TIP3    H275453   3.937   6.803   6.040
17988TIP3   OH275454   4.442   1.179  11.934
17988TIP3    H175455   4.427   1.085  11.947
17988TIP3    H275456   4.365   1.221  11.974
17989TIP3   OH275457   2.084   4.077  15.825
17989TIP3    H175458   2.099   4.033  15.742
17989TIP3    H275459   2.170   4.083  15.866
17990TIP3   OH275460   0.613   6.377  12.707
17990TIP3    H175461   0.563   6.306  12.747
17990TIP3    H275462   0.689   6.389  12.764
17991TIP3   OH275463   6.542   0.612  16.821
17991TIP3    H175464   6.470   0.549  16.834
17991TIP3    H275465   6.505   0.678  16.762
17992TIP3   OH275466   5.581   6.094   3.299
17992TIP3    H175467   5.561   6.182   3.330
17992TIP3    H275468   5.519   6.037   3.344
17993TIP3   OH275469   3.490   1.121   0.712
17993TIP3    H175470   3.521   1.124   0.622
17993TIP3    H275471   3.404   1.163   0.709
17994TIP3   OH275472   2.255   2.049   2.436
17994TIP3    H175473   2.164   2.020   2.430
17994TIP3    H275474   2.306   1.971   2.413
17995TIP3   OH275475   5.687   1.886  13.336
17995TIP3    H175476   5.734   1.831  13.273
17995TIP3    H275477   5.613   1.921  13.287
17996TIP3   OH275478   1.070   4.851   2.918
17996TIP3    H175479   1.102   4.928   2.872
17996TIP3    H275480   0.975   4.865   2.924
17997TIP3   OH275481   6.237   5.108  16.096
17997TIP3    H175482   6.311   5.057  16.062
17997TIP3    H275483   6.164   5.085  16.039
17998TIP3   OH275484   5.202   5.513   6.055
17998TIP3    H175485   5.293   5.542   6.057
17998TIP3    H275486   5.169   5.531   6.142
17999TIP3   OH275487   0.546   5.653  11.292
17999TIP3    H175488   0.552   5.578  11.232
17999TIP3    H275489   0.453   5.661  11.310
18000TIP3   OH275490   5.664   2.061   3.779
18000TIP3    H175491   5.715   2.045   3.858
18000TIP3    H275492   5.575   2.034   3.802
18001TIP3   OH275493   2.152   4.375   2.064
18001TIP3    H175494   2.099   4.381   1.984
18001TIP3    H275495   2.215   4.446   2.056
18002TIP3   OH275496   1.467   0.613  14.213
18002TIP3    H175497   1.548   0.641  14.171
18002TIP3    H275498   1.478   0.519  14.225
18003TIP3   OH275499   2.697   5.154  10.452
18003TIP3    H175500   2.750   5.211  10.396
18003TIP3    H275501   2.713   5.066  10.418
18004TIP3   OH275502   2.059   3.928  13.805
18004TIP3    H175503   2.061   3.903  13.897
18004TIP3    H275504   1.967   3.946  13.787
18005TIP3   OH275505   0.198   3.762  16.945
18005TIP3    H175506   0.122   3.809  16.980
18005TIP3    H275507   0.224   3.703  17.016
18006TIP3   OH275508   6.350   1.652  11.989
18006TIP3    H175509   6.406   1.580  11.961
18006TIP3    H275510   6.322   1.628  12.077
18007TIP3   OH275511   6.213   2.994  12.023
18007TIP3    H175512   6.237   3.069  11.968
18007TIP3    H275513   6.117   2.997  12.025
18008TIP3   OH275514   0.494   5.383   0.884
18008TIP3    H175515   0.423   5.404   0.823
18008TIP3    H275516   0.562   5.446   0.864
18009TIP3   OH275517   0.724   4.554  16.812
18009TIP3    H175518   0.631   4.558  16.789
18009TIP3    H275519   0.762   4.495  16.747
18010TIP3   OH275520   0.704   3.627   1.710
18010TIP3    H175521   0.732   3.551   1.761
18010TIP3    H275522   0.660   3.683   1.774
18011TIP3   OH275523   1.332   1.907   1.172
18011TIP3    H175524   1.418   1.892   1.211
18011TIP3    H275525   1.270   1.894   1.244
18012TIP3   OH275526   6.685   0.821   2.352
18012TIP3    H175527   6.638   0.739   2.368
18012TIP3    H275528   6.633   0.864   2.284
18013TIP3   OH275529   0.597   2.560   2.695
18013TIP3    H175530   0.649   2.633   2.660
18013TIP3    H275531   0.559   2.518   2.618
18014TIP3   OH275532   3.218   6.813  12.746
18014TIP3    H175533   3.203   6.795  12.838
18014TIP3    H275534   3.285   6.882  12.745
18015TIP3   OH275535   1.312   0.068  16.308
18015TIP3    H175536   1.282   0.013  16.380
18015TIP3    H275537   1.405   0.079  16.323
18016TIP3   OH275538   2.176   1.020  16.431
18016TIP3    H175539   2.264   1.056  16.447
18016TIP3    H275540   2.183   0.976  16.346
18017TIP3   OH275541   1.570   1.604   1.214
18017TIP3    H175542   1.561   1.652   1.297
18017TIP3    H275543   1.584   1.513   1.240
18018TIP3   OH275544   5.437   3.860  12.554
18018TIP3    H175545   5.364   3.864  12.492
18018TIP3    H275546   5.428   3.775  12.597
18019TIP3   OH275547   2.208   5.469   5.483
18019TIP3    H175548   2.169   5.401   5.537
18019TIP3    H275549   2.292   5.433   5.454
18020TIP3   OH275550   0.936   5.136   6.339
18020TIP3    H175551   0.978   5.148   6.425
18020TIP3    H275552   0.938   5.223   6.300
18021TIP3   OH275553   4.893   5.327  14.913
18021TIP3    H175554   4.894   5.245  14.962
18021TIP3    H275555   4.806   5.330  14.872
18022TIP3   OH275556   1.639   3.882  12.601
18022TIP3    H175557   1.612   3.839  12.682
18022TIP3    H275558   1.632   3.812  12.535
18023TIP3   OH275559   1.064   1.768  12.708
18023TIP3    H175560   1.055   1.839  12.644
18023TIP3    H275561   1.158   1.761  12.723
18024TIP3   OH275562   3.803   2.349  13.668
18024TIP3    H175563   3.779   2.346  13.761
18024TIP3    H275564   3.723   2.322  13.622
18025TIP3   OH275565   4.080   0.162  14.334
18025TIP3    H175566   4.013   0.223  14.304
18025TIP3    H275567   4.124   0.133  14.254
18026TIP3   OH275568   4.809   0.063   1.798
18026TIP3    H175569   4.719   0.034   1.784
18026TIP3    H275570   4.863  -0.007   1.762
18027TIP3   OH275571   6.741   6.287   3.766
18027TIP3    H175572   6.816   6.319   3.817
18027TIP3    H275573   6.681   6.362   3.762
18028TIP3   OH275574   1.190   6.071  11.224
18028TIP3    H175575   1.237   6.074  11.308
18028TIP3    H275576   1.260   6.072  11.158
18029TIP3   OH275577   0.975   0.710  14.402
18029TIP3    H175578   1.063   0.735  14.374
18029TIP3    H275579   0.961   0.623  14.364
18030TIP3   OH275580   2.695   4.627  13.276
18030TIP3    H175581   2.779   4.586  13.294
18030TIP3    H275582   2.706   4.718  13.305
18031TIP3   OH275583   1.662   2.510  14.289
18031TIP3    H175584   1.611   2.435  14.260
18031TIP3    H275585   1.628   2.583  14.237
18032TIP3   OH275586   2.592   2.356   0.536
18032TIP3    H175587   2.584   2.411   0.458
18032TIP3    H275588   2.581   2.266   0.504
18033TIP3   OH275589   4.591   2.822  11.325
18033TIP3    H175590   4.638   2.831  11.408
18033TIP3    H275591   4.620   2.739  11.289
18034TIP3   OH275592   2.771   5.445   3.088
18034TIP3    H175593   2.728   5.375   3.040
18034TIP3    H275594   2.824   5.491   3.023
18035TIP3   OH275595   2.561   1.082   4.711
18035TIP3    H175596   2.533   1.169   4.681
18035TIP3    H275597   2.479   1.034   4.722
18036TIP3   OH275598   4.960   1.705  13.299
18036TIP3    H175599   4.944   1.792  13.336
18036TIP3    H275600   5.026   1.720  13.231
18037TIP3   OH275601   3.607   5.805  13.875
18037TIP3    H175602   3.530   5.747  13.872
18037TIP3    H275603   3.681   5.745  13.884
18038TIP3   OH275604   1.556   4.472  15.750
18038TIP3    H175605   1.563   4.498  15.842
18038TIP3    H275606   1.628   4.410  15.738
18039TIP3   OH275607   0.129   1.007  14.059
18039TIP3    H175608   0.082   1.014  13.976
18039TIP3    H275609   0.073   0.953  14.114
18040TIP3   OH275610   5.942   6.691   3.153
18040TIP3    H175611   5.941   6.642   3.234
18040TIP3    H275612   5.918   6.780   3.178
18041TIP3   OH275613   6.627   2.730  10.270
18041TIP3    H175614   6.631   2.823  10.294
18041TIP3    H275615   6.712   2.711  10.231
18042TIP3   OH275616   1.148   2.740   3.186
18042TIP3    H175617   1.090   2.667   3.164
18042TIP3    H275618   1.183   2.769   3.102
18043TIP3   OH275619   6.447   1.156  15.781
18043TIP3    H175620   6.374   1.153  15.843
18043TIP3    H275621   6.409   1.128  15.698
18044TIP3   OH275622   6.414   6.170  11.763
18044TIP3    H175623   6.413   6.209  11.675
18044TIP3    H275624   6.431   6.244  11.822
18045TIP3   OH275625   2.834   5.406  16.682
18045TIP3    H175626   2.799   5.469  16.745
18045TIP3    H275627   2.926   5.396  16.707
18046TIP3   OH275628   5.286   1.378  13.112
18046TIP3    H175629   5.222   1.380  13.183
18046TIP3    H275630   5.344   1.451  13.130
18047TIP3   OH275631   6.303   4.006   0.218
18047TIP3    H175632   6.346   4.078   0.263
18047TIP3    H275633   6.222   3.991   0.267
18048TIP3   OH275634   0.910   6.117  16.637
18048TIP3    H175635   0.818   6.098  16.657
18048TIP3    H275636   0.960   6.060  16.696
18049TIP3   OH275637   1.936   5.247   4.719
18049TIP3    H175638   2.016   5.283   4.681
18049TIP3    H275639   1.934   5.283   4.808
18050TIP3   OH275640   1.557   2.653  13.507
18050TIP3    H175641   1.482   2.601  13.536
18050TIP3    H275642   1.526   2.697  13.428
18051TIP3   OH275643   0.960   6.640   1.334
18051TIP3    H175644   0.893   6.574   1.351
18051TIP3    H275645   0.915   6.708   1.286
18052TIP3   OH275646   0.045   3.251  11.191
18052TIP3    H175647   0.014   3.165  11.220
18052TIP3    H275648   0.139   3.241  11.181
18053TIP3   OH275649   0.680   5.777   4.771
18053TIP3    H175650   0.732   5.794   4.692
18053TIP3    H275651   0.706   5.689   4.798
18054TIP3   OH275652   1.933   0.180   2.460
18054TIP3    H175653   1.987   0.178   2.539
18054TIP3    H275654   1.983   0.131   2.395
18055TIP3   OH275655   3.677   2.553  11.982
18055TIP3    H175656   3.762   2.515  12.004
18055TIP3    H275657   3.693   2.604  11.903
18056TIP3   OH275658   2.525   6.167  14.924
18056TIP3    H175659   2.434   6.167  14.952
18056TIP3    H275660   2.564   6.244  14.966
18057TIP3   OH275661   2.031   0.390   5.437
18057TIP3    H175662   2.093   0.440   5.490
18057TIP3    H275663   2.050   0.299   5.458
18058TIP3   OH275664   6.631   0.601  13.525
18058TIP3    H175665   6.609   0.683  13.570
18058TIP3    H275666   6.598   0.613  13.436
18059TIP3   OH275667   4.672   2.775  17.292
18059TIP3    H175668   4.763   2.794  17.270
18059TIP3    H275669   4.653   2.691  17.251
18060TIP3   OH275670   4.144   1.656  12.912
18060TIP3    H175671   4.065   1.709  12.900
18060TIP3    H275672   4.186   1.657  12.826
18061TIP3   OH275673   2.651   2.941  13.427
18061TIP3    H175674   2.726   2.901  13.470
18061TIP3    H275675   2.623   3.010  13.486
18062TIP3   OH275676   4.680   0.057  16.124
18062TIP3    H175677   4.595   0.013  16.116
18062TIP3    H275678   4.744  -0.014  16.124
18063TIP3   OH275679   4.395   4.970   2.221
18063TIP3    H175680   4.452   5.046   2.232
18063TIP3    H275681   4.348   4.963   2.304
18064TIP3   OH275682   4.856   1.698   5.523
18064TIP3    H175683   4.761   1.700   5.518
18064TIP3    H275684   4.876   1.727   5.613
18065TIP3   OH275685   4.830   4.647   5.269
18065TIP3    H175686   4.884   4.657   5.191
18065TIP3    H275687   4.762   4.584   5.244
18066TIP3   OH275688   1.751   5.198   3.352
18066TIP3    H175689   1.666   5.242   3.346
18066TIP3    H275690   1.769   5.191   3.445
18067TIP3   OH275691   0.366   5.848  11.691
18067TIP3    H175692   0.317   5.928  11.672
18067TIP3    H275693   0.309   5.798  11.749
18068TIP3   OH275694   3.715   0.399  16.928
18068TIP3    H175695   3.786   0.458  16.904
18068TIP3    H275696   3.647   0.456  16.965
18069TIP3   OH275697   0.320   6.746   1.041
18069TIP3    H175698   0.366   6.710   0.966
18069TIP3    H275699   0.375   6.722   1.116
18070TIP3   OH275700   2.563   3.969   5.122
18070TIP3    H175701   2.529   4.058   5.118
18070TIP3    H275702   2.601   3.954   5.035
18071TIP3   OH275703   0.417   5.992   0.194
18071TIP3    H175704   0.338   5.941   0.212
18071TIP3    H275705   0.482   5.927   0.167
18072TIP3   OH275706   1.270   0.262  12.746
18072TIP3    H175707   1.306   0.187  12.699
18072TIP3    H275708   1.346   0.316  12.768
18073TIP3   OH275709   4.788   3.665  11.569
18073TIP3    H175710   4.860   3.602  11.565
18073TIP3    H275711   4.726   3.635  11.502
18074TIP3   OH275712   1.209   0.679  15.434
18074TIP3    H175713   1.147   0.718  15.374
18074TIP3    H275714   1.234   0.596  15.393
18075TIP3   OH275715   6.621   6.214  15.644
18075TIP3    H175716   6.692   6.163  15.683
18075TIP3    H275717   6.625   6.298  15.688
18076TIP3   OH275718   1.781   3.758  13.309
18076TIP3    H175719   1.826   3.800  13.381
18076TIP3    H275720   1.846   3.753  13.239
18077TIP3   OH275721   4.132   6.456  12.944
18077TIP3    H175722   4.038   6.444  12.958
18077TIP3    H275723   4.142   6.464  12.849
18078TIP3   OH275724   4.627   0.188  13.874
18078TIP3    H175725   4.585   0.225  13.951
18078TIP3    H275726   4.555   0.159  13.819
18079TIP3   OH275727   2.835   1.070   5.604
18079TIP3    H175728   2.826   1.024   5.521
18079TIP3    H275729   2.920   1.042   5.638
18080TIP3   OH275730   3.171   1.472   1.365
18080TIP3    H175731   3.082   1.501   1.343
18080TIP3    H275732   3.166   1.445   1.456
18081TIP3   OH275733   1.444   4.487  14.654
18081TIP3    H175734   1.414   4.456  14.739
18081TIP3    H275735   1.378   4.550  14.626
18082TIP3   OH275736   2.746   0.699  11.579
18082TIP3    H175737   2.721   0.747  11.500
18082TIP3    H275738   2.842   0.700  11.578
18083TIP3   OH275739   4.048   3.553  12.805
18083TIP3    H175740   4.006   3.569  12.890
18083TIP3    H275741   4.047   3.458  12.796
18084TIP3   OH275742   1.114   2.844   6.718
18084TIP3    H175743   1.200   2.858   6.756
18084TIP3    H275744   1.069   2.786   6.779
18085TIP3   OH275745   6.775   4.551   2.043
18085TIP3    H175746   6.808   4.474   2.090
18085TIP3    H275747   6.810   4.541   1.954
18086TIP3   OH275748   5.532   0.160  14.055
18086TIP3    H175749   5.488   0.136  14.137
18086TIP3    H275750   5.520   0.083  13.998
18087TIP3   OH275751   2.156   3.801   6.328
18087TIP3    H175752   2.123   3.888   6.304
18087TIP3    H275753   2.230   3.820   6.386
18088TIP3   OH275754   0.695   0.687   2.161
18088TIP3    H175755   0.605   0.679   2.193
18088TIP3    H275756   0.733   0.600   2.175
18089TIP3   OH275757   2.717   4.062   0.799
18089TIP3    H175758   2.655   4.032   0.733
18089TIP3    H275759   2.687   4.020   0.880
18090TIP3   OH275760   4.260   3.618   1.020
18090TIP3    H175761   4.248   3.559   1.094
18090TIP3    H275762   4.171   3.648   0.999
18091TIP3   OH275763   1.033   2.841  16.415
18091TIP3    H175764   0.986   2.776  16.363
18091TIP3    H275765   1.124   2.811  16.414
18092TIP3   OH275766   1.885   1.253  14.204
18092TIP3    H175767   1.908   1.238  14.112
18092TIP3    H275768   1.948   1.319  14.234
18093TIP3   OH275769   3.756   5.980   5.292
18093TIP3    H175770   3.813   6.000   5.218
18093TIP3    H275771   3.668   6.001   5.262
18094TIP3   OH275772   5.859   1.492  16.361
18094TIP3    H175773   5.876   1.534  16.445
18094TIP3    H275774   5.869   1.398  16.378
18095TIP3   OH275775   4.238   5.274   3.599
18095TIP3    H175776   4.172   5.205   3.600
18095TIP3    H275777   4.190   5.353   3.627
18096TIP3   OH275778   3.148   4.390  11.219
18096TIP3    H175779   3.089   4.322  11.186
18096TIP3    H275780   3.093   4.445  11.274
18097TIP3   OH275781   1.783   3.441  13.407
18097TIP3    H175782   1.845   3.504  13.445
18097TIP3    H275783   1.709   3.440  13.468
18098TIP3   OH275784   0.394   5.694  15.992
18098TIP3    H175785   0.428   5.606  15.976
18098TIP3    H275786   0.317   5.700  15.936
18099TIP3   OH275787   3.276   3.742   3.328
18099TIP3    H175788   3.201   3.726   3.386
18099TIP3    H275789   3.353   3.727   3.383
18100TIP3   OH275790   4.639   3.574  12.769
18100TIP3    H175791   4.557   3.622  12.786
18100TIP3    H275792   4.638   3.557  12.675
18101TIP3   OH275793   5.238   2.945   6.150
18101TIP3    H175794   5.250   2.945   6.055
18101TIP3    H275795   5.324   2.969   6.185
18102TIP3   OH275796   6.774   0.844   5.944
18102TIP3    H175797   6.749   0.768   5.997
18102TIP3    H275798   6.734   0.827   5.859
18103TIP3   OH275799   4.128   2.618   5.099
18103TIP3    H175800   4.177   2.633   5.018
18103TIP3    H275801   4.191   2.639   5.169
18104TIP3   OH275802   2.030   5.729  10.449
18104TIP3    H175803   2.121   5.757  10.448
18104TIP3    H275804   1.982   5.800  10.406
18105TIP3   OH275805   4.425   4.855   4.886
18105TIP3    H175806   4.473   4.828   4.963
18105TIP3    H275807   4.388   4.773   4.851
18106TIP3   OH275808   6.220   0.960   2.163
18106TIP3    H175809   6.304   0.933   2.125
18106TIP3    H275810   6.220   1.056   2.155
18107TIP3   OH275811   3.796   2.627   4.505
18107TIP3    H175812   3.718   2.578   4.532
18107TIP3    H275813   3.761   2.703   4.459
18108TIP3   OH275814   2.301   4.179   3.855
18108TIP3    H175815   2.386   4.224   3.852
18108TIP3    H275816   2.271   4.192   3.945
18109TIP3   OH275817   1.584   0.276   0.803
18109TIP3    H175818   1.588   0.371   0.807
18109TIP3    H275819   1.572   0.249   0.894
18110TIP3   OH275820   3.463   2.016   1.557
18110TIP3    H175821   3.381   2.013   1.605
18110TIP3    H275822   3.438   2.005   1.465
18111TIP3   OH275823   0.105   6.167   0.928
18111TIP3    H175824   0.077   6.103   0.862
18111TIP3    H275825   0.194   6.191   0.901
18112TIP3   OH275826   6.094   0.561   1.655
18112TIP3    H175827   6.011   0.532   1.693
18112TIP3    H275828   6.126   0.484   1.608
18113TIP3   OH275829   2.608   3.260  16.748
18113TIP3    H175830   2.580   3.314  16.674
18113TIP3    H275831   2.606   3.171  16.715
18114TIP3   OH275832   4.183   5.417  12.458
18114TIP3    H175833   4.262   5.471  12.460
18114TIP3    H275834   4.191   5.360  12.534
18115TIP3   OH275835   0.259   3.535  16.585
18115TIP3    H175836   0.334   3.591  16.605
18115TIP3    H275837   0.251   3.477  16.661
18116TIP3   OH275838   6.320   6.746  12.764
18116TIP3    H175839   6.248   6.799  12.728
18116TIP3    H275840   6.285   6.708  12.844
18117TIP3   OH275841   4.053   1.757   3.461
18117TIP3    H175842   3.963   1.737   3.485
18117TIP3    H275843   4.049   1.778   3.367
18118TIP3   OH275844   3.778   5.816   2.523
18118TIP3    H175845   3.762   5.741   2.467
18118TIP3    H275846   3.718   5.884   2.491
18119TIP3   OH275847   6.756   2.399  12.699
18119TIP3    H175848   6.721   2.345  12.770
18119TIP3    H275849   6.678   2.429  12.652
18120TIP3   OH275850   3.322   0.964  16.099
18120TIP3    H175851   3.347   1.008  16.018
18120TIP3    H275852   3.332   0.870  16.079
18121TIP3   OH275853   4.421   5.744  17.027
18121TIP3    H175854   4.416   5.839  17.015
18121TIP3    H275855   4.406   5.731  17.121
18122TIP3   OH275856   3.654   3.603   0.061
18122TIP3    H175857   3.570   3.558   0.071
18122TIP3    H275858   3.719   3.533   0.067
18123TIP3   OH275859   2.439   5.171  13.122
18123TIP3    H175860   2.392   5.095  13.157
18123TIP3    H275861   2.530   5.143  13.117
18124TIP3   OH275862   3.676   2.806  10.145
18124TIP3    H175863   3.607   2.869  10.125
18124TIP3    H275864   3.757   2.850  10.123
18125TIP3   OH275865   4.685   5.165   1.698
18125TIP3    H175866   4.691   5.158   1.793
18125TIP3    H275867   4.775   5.149   1.667
18126TIP3   OH275868   2.574   0.900   0.375
18126TIP3    H175869   2.570   0.819   0.425
18126TIP3    H275870   2.641   0.953   0.418
18127TIP3   OH275871   2.573   5.160  12.701
18127TIP3    H175872   2.605   5.085  12.750
18127TIP3    H275873   2.512   5.204  12.760
18128TIP3   OH275874   4.310   1.171   1.962
18128TIP3    H175875   4.246   1.229   1.921
18128TIP3    H275876   4.345   1.222   2.034
18129TIP3   OH275877   1.585   4.119   3.562
18129TIP3    H175878   1.641   4.178   3.512
18129TIP3    H275879   1.508   4.172   3.583
18130TIP3   OH275880   5.007   0.940  14.513
18130TIP3    H175881   5.094   0.979  14.521
18130TIP3    H275882   5.017   0.850  14.543
18131TIP3   OH275883   5.438   0.669   4.499
18131TIP3    H175884   5.506   0.674   4.566
18131TIP3    H275885   5.367   0.621   4.542
18132TIP3   OH275886   5.739   5.177  15.170
18132TIP3    H175887   5.804   5.122  15.127
18132TIP3    H275888   5.785   5.212  15.246
18133TIP3   OH275889   0.985   6.583   5.285
18133TIP3    H175890   0.904   6.569   5.334
18133TIP3    H275891   1.049   6.527   5.329
18134TIP3   OH275892   5.740   1.353   5.898
18134TIP3    H175893   5.745   1.274   5.845
18134TIP3    H275894   5.825   1.358   5.941
18135TIP3   OH275895   4.015   6.819   3.809
18135TIP3    H175896   3.922   6.820   3.785
18135TIP3    H275897   4.016   6.844   3.901
18136TIP3   OH275898   4.033   0.659   4.955
18136TIP3    H175899   3.961   0.598   4.938
18136TIP3    H275900   3.996   0.723   5.016
18137TIP3   OH275901   6.717   5.592  11.405
18137TIP3    H175902   6.747   5.629  11.489
18137TIP3    H275903   6.622   5.592  11.412
18138TIP3   OH275904   3.603   2.813  10.580
18138TIP3    H175905   3.511   2.825  10.556
18138TIP3    H275906   3.643   2.898  10.562
18139TIP3   OH275907   5.624   4.903   2.858
18139TIP3    H175908   5.654   4.990   2.884
18139TIP3    H275909   5.556   4.920   2.792
18140TIP3   OH275910   0.136   0.851   3.874
18140TIP3    H175911   0.189   0.927   3.850
18140TIP3    H275912   0.196   0.793   3.921
18141TIP3   OH275913   0.980   0.793  14.715
18141TIP3    H175914   0.920   0.866  14.729
18141TIP3    H275915   1.045   0.826  14.653
18142TIP3   OH275916   0.345   1.465  15.486
18142TIP3    H175917   0.388   1.544  15.454
18142TIP3    H275918   0.413   1.416  15.531
18143TIP3   OH275919   6.742   5.596  13.380
18143TIP3    H175920   6.813   5.658  13.400
18143TIP3    H275921   6.673   5.617  13.442
18144TIP3   OH275922   4.068   2.389  16.976
18144TIP3    H175923   3.977   2.391  17.007
18144TIP3    H275924   4.104   2.308  17.011
18145TIP3   OH275925   3.456   1.583   1.238
18145TIP3    H175926   3.392   1.653   1.249
18145TIP3    H275927   3.438   1.522   1.310
18146TIP3   OH275928   3.368   5.424   0.430
18146TIP3    H175929   3.354   5.442   0.523
18146TIP3    H275930   3.294   5.465   0.386
18147TIP3   OH275931   0.865   0.933   0.167
18147TIP3    H175932   0.806   0.863   0.140
18147TIP3    H275933   0.909   0.960   0.087
18148TIP3   OH275934   4.542   4.861   1.413
18148TIP3    H175935   4.484   4.794   1.376
18148TIP3    H275936   4.487   4.910   1.473
18149TIP3   OH275937   0.929   0.107   4.987
18149TIP3    H175938   1.006   0.069   4.944
18149TIP3    H275939   0.859   0.045   4.971
18150TIP3   OH275940   3.581   5.223   3.899
18150TIP3    H175941   3.510   5.286   3.887
18150TIP3    H275942   3.604   5.230   3.992
18151TIP3   OH275943   6.225   0.239   4.759
18151TIP3    H175944   6.251   0.331   4.757
18151TIP3    H275945   6.218   0.219   4.852
18152TIP3   OH275946   0.104   5.622  10.929
18152TIP3    H175947   0.175   5.564  10.956
18152TIP3    H275948   0.046   5.627  11.004
18153TIP3   OH275949   3.192   4.244  16.001
18153TIP3    H175950   3.169   4.237  16.094
18153TIP3    H275951   3.238   4.162  15.982
18154TIP3   OH275952   2.596   5.002  10.798
18154TIP3    H175953   2.509   5.030  10.768
18154TIP3    H275954   2.650   5.000  10.719
18155TIP3   OH275955   3.914   2.424   0.348
18155TIP3    H175956   3.914   2.345   0.294
18155TIP3    H275957   3.826   2.429   0.384
18156TIP3   OH275958   3.269   1.700   4.247
18156TIP3    H175959   3.280   1.734   4.336
18156TIP3    H275960   3.357   1.699   4.210
18157TIP3   OH275961   4.479   2.210   1.458
18157TIP3    H175962   4.517   2.153   1.391
18157TIP3    H275963   4.393   2.234   1.424
18158TIP3   OH275964   0.818   5.317  17.031
18158TIP3    H175965   0.819   5.326  16.936
18158TIP3    H275966   0.782   5.399  17.063
18159TIP3   OH275967   4.736   5.627  17.274
18159TIP3    H175968   4.752   5.686  17.201
18159TIP3    H275969   4.671   5.565  17.242
18160TIP3   OH275970   6.724   2.447  15.281
18160TIP3    H175971   6.674   2.446  15.363
18160TIP3    H275972   6.786   2.519  15.292
18161TIP3   OH275973   2.716   3.257   0.434
18161TIP3    H175974   2.774   3.296   0.500
18161TIP3    H275975   2.698   3.329   0.373
18162TIP3   OH275976   1.765   4.972   2.186
18162TIP3    H175977   1.718   5.052   2.208
18162TIP3    H275978   1.788   4.982   2.093
18163TIP3   OH275979   6.614   1.764  15.643
18163TIP3    H175980   6.573   1.761  15.556
18163TIP3    H275981   6.701   1.799  15.627
18164TIP3   OH275982   2.203   4.429  11.859
18164TIP3    H175983   2.131   4.421  11.797
18164TIP3    H275984   2.163   4.462  11.940
18165TIP3   OH275985   4.463   3.737  15.309
18165TIP3    H175986   4.368   3.746  15.313
18165TIP3    H275987   4.493   3.821  15.274
18166TIP3   OH275988   3.405   4.969  15.303
18166TIP3    H175989   3.398   5.040  15.367
18166TIP3    H275990   3.347   4.996  15.231
18167TIP3   OH275991   5.077   3.978  16.447
18167TIP3    H175992   5.075   4.070  16.422
18167TIP3    H275993   5.151   3.942  16.399
18168TIP3   OH275994   4.483   4.774  12.653
18168TIP3    H175995   4.470   4.798  12.745
18168TIP3    H275996   4.459   4.852  12.603
18169TIP3   OH275997   0.352   4.109   6.014
18169TIP3    H175998   0.333   4.049   5.941
18169TIP3    H275999   0.381   4.052   6.085
18170TIP3   OH276000   5.839   5.165  13.172
18170TIP3    H176001   5.873   5.112  13.245
18170TIP3    H276002   5.827   5.102  13.101
18171TIP3   OH276003   5.875   3.469  13.470
18171TIP3    H176004   5.966   3.439  13.472
18171TIP3    H276005   5.843   3.455  13.559
18172TIP3   OH276006   0.745   5.083  12.475
18172TIP3    H176007   0.758   5.145  12.547
18172TIP3    H276008   0.702   5.008  12.516
18173TIP3   OH276009   2.868   2.919   0.965
18173TIP3    H176010   2.818   2.882   0.893
18173TIP3    H276011   2.960   2.907   0.939
18174TIP3   OH276012   5.975   3.901   3.120
18174TIP3    H176013   5.911   3.891   3.050
18174TIP3    H276014   6.053   3.856   3.087
18175TIP3   OH276015   0.686   5.955  14.528
18175TIP3    H176016   0.657   5.981  14.440
18175TIP3    H276017   0.734   6.031  14.561
18176TIP3   OH276018   2.800   3.417   2.049
18176TIP3    H176019   2.869   3.369   2.094
18176TIP3    H276020   2.812   3.508   2.077
18177TIP3   OH276021   2.047   5.525  15.681
18177TIP3    H176022   1.982   5.586  15.646
18177TIP3    H276023   2.130   5.556  15.644
18178TIP3   OH276024   2.466   4.969  14.239
18178TIP3    H176025   2.431   5.019  14.312
18178TIP3    H276026   2.462   4.877  14.268
18179TIP3   OH276027   0.654   4.338   5.498
18179TIP3    H176028   0.584   4.362   5.436
18179TIP3    H276029   0.731   4.325   5.443
18180TIP3   OH276030   3.283   0.380   5.348
18180TIP3    H176031   3.310   0.299   5.392
18180TIP3    H276032   3.265   0.354   5.258
18181TIP3   OH276033   1.821   4.148  13.451
18181TIP3    H176034   1.807   4.243  13.455
18181TIP3    H276035   1.734   4.112  13.435
18182TIP3   OH276036   0.736   3.936  15.539
18182TIP3    H176037   0.802   3.946  15.608
18182TIP3    H276038   0.686   3.858  15.565
18183TIP3   OH276039   4.515   4.687   3.255
18183TIP3    H176040   4.444   4.627   3.279
18183TIP3    H276041   4.471   4.769   3.234
18184TIP3   OH276042   6.306   4.233  16.992
18184TIP3    H176043   6.330   4.240  17.085
18184TIP3    H276044   6.352   4.306  16.950
18185TIP3   OH276045   1.388   4.740  12.844
18185TIP3    H176046   1.386   4.807  12.912
18185TIP3    H276047   1.296   4.715  12.832
18186TIP3   OH276048   5.247   6.079  15.605
18186TIP3    H176049   5.183   6.097  15.536
18186TIP3    H276050   5.328   6.120  15.574
18187TIP3   OH276051   5.686   0.776   2.060
18187TIP3    H176052   5.749   0.773   1.987
18187TIP3    H276053   5.682   0.868   2.085
18188TIP3   OH276054   2.484   6.394  13.887
18188TIP3    H176055   2.402   6.426  13.924
18188TIP3    H276056   2.508   6.319  13.941
18189TIP3   OH276057   4.464   5.158   5.475
18189TIP3    H176058   4.475   5.252   5.489
18189TIP3    H276059   4.394   5.152   5.410
18190TIP3   OH276060   2.450   4.198   5.006
18190TIP3    H176061   2.397   4.242   5.073
18190TIP3    H276062   2.408   4.221   4.924
18191TIP3   OH276063   5.387   3.230   3.055
18191TIP3    H176064   5.292   3.223   3.053
18191TIP3    H276065   5.411   3.204   3.144
18192TIP3   OH276066   5.938   5.731   6.423
18192TIP3    H176067   5.876   5.681   6.370
18192TIP3    H276068   5.898   5.818   6.431
18193TIP3   OH276069   4.660   4.482   5.138
18193TIP3    H176070   4.694   4.441   5.058
18193TIP3    H276071   4.612   4.412   5.182
18194TIP3   OH276072   6.429   0.134   2.456
18194TIP3    H176073   6.423   0.214   2.508
18194TIP3    H276074   6.523   0.113   2.455
18195TIP3   OH276075   1.763   1.068   5.171
18195TIP3    H176076   1.840   1.118   5.143
18195TIP3    H276077   1.702   1.135   5.203
18196TIP3   OH276078   1.417   1.086  14.537
18196TIP3    H176079   1.489   1.025  14.553
18196TIP3    H276080   1.460   1.172  14.535
18197TIP3   OH276081   5.455   4.987   4.769
18197TIP3    H176082   5.524   4.944   4.820
18197TIP3    H276083   5.503   5.049   4.713
18198TIP3   OH276084   2.673   4.492   6.583
18198TIP3    H176085   2.751   4.516   6.534
18198TIP3    H276086   2.655   4.401   6.559
18199TIP3   OH276087   3.000   4.151   1.045
18199TIP3    H176088   3.024   4.243   1.040
18199TIP3    H276089   2.973   4.128   0.956
18200TIP3   OH276090   0.371   1.420  16.107
18200TIP3    H176091   0.364   1.390  16.198
18200TIP3    H276092   0.418   1.503  16.113
18201TIP3   OH276093   4.563   6.594  12.754
18201TIP3    H176094   4.597   6.597  12.843
18201TIP3    H276095   4.472   6.567  12.764
18202TIP3   OH276096   6.126   3.677   3.014
18202TIP3    H176097   6.044   3.628   3.004
18202TIP3    H276098   6.165   3.676   2.926
18203TIP3   OH276099   3.626   5.020   6.687
18203TIP3    H176100   3.546   4.967   6.690
18203TIP3    H276101   3.658   5.020   6.777
18204TIP3   OH276102   1.386   6.431   5.159
18204TIP3    H176103   1.416   6.442   5.250
18204TIP3    H276104   1.466   6.442   5.107
18205TIP3   OH276105   6.695   5.883   1.827
18205TIP3    H176106   6.622   5.877   1.765
18205TIP3    H276107   6.701   5.976   1.848
18206TIP3   OH276108   5.671   4.918  12.116
18206TIP3    H176109   5.696   4.891  12.028
18206TIP3    H276110   5.666   4.836  12.166
18207TIP3   OH276111   1.796   3.933  14.904
18207TIP3    H176112   1.808   4.028  14.893
18207TIP3    H276113   1.764   3.903  14.819
18208TIP3   OH276114   3.085   3.194  11.617
18208TIP3    H176115   3.129   3.204  11.533
18208TIP3    H276116   3.056   3.283  11.639
18209TIP3   OH276117   2.244   5.363  14.163
18209TIP3    H176118   2.234   5.384  14.256
18209TIP3    H276119   2.206   5.275  14.154
18210TIP3   OH276120   5.011   3.530  11.534
18210TIP3    H176121   5.099   3.567  11.535
18210TIP3    H276122   5.005   3.481  11.452
18211TIP3   OH276123   0.211   3.432  11.638
18211TIP3    H176124   0.219   3.338  11.625
18211TIP3    H276125   0.181   3.465  11.553
18212TIP3   OH276126   2.939   2.516   1.702
18212TIP3    H176127   2.920   2.609   1.685
18212TIP3    H276128   3.029   2.504   1.671
18213TIP3   OH276129   4.649   2.343   2.002
18213TIP3    H176130   4.635   2.273   1.939
18213TIP3    H276131   4.563   2.356   2.043
18214TIP3   OH276132   2.998   4.538  16.988
18214TIP3    H176133   2.933   4.562  16.922
18214TIP3    H276134   2.972   4.451  17.017
18215TIP3   OH276135   3.146   4.918   2.357
18215TIP3    H176136   3.213   4.884   2.298
18215TIP3    H276137   3.118   5.000   2.316
18216TIP3   OH276138   6.749   3.505  13.880
18216TIP3    H176139   6.817   3.446  13.911
18216TIP3    H276140   6.676   3.449  13.856
18217TIP3   OH276141   1.694   0.185  13.464
18217TIP3    H176142   1.696   0.143  13.378
18217TIP3    H276143   1.728   0.119  13.524
18218TIP3   OH276144   6.485   5.091  11.542
18218TIP3    H176145   6.570   5.048  11.529
18218TIP3    H276146   6.440   5.037  11.607
18219TIP3   OH276147   1.533   6.402   2.555
18219TIP3    H176148   1.579   6.333   2.604
18219TIP3    H276149   1.594   6.428   2.487
18220TIP3   OH276150   1.490   1.072   0.666
18220TIP3    H176151   1.570   1.055   0.616
18220TIP3    H276152   1.437   1.127   0.608
18221TIP3   OH276153   2.206   2.902  16.772
18221TIP3    H176154   2.155   2.835  16.727
18221TIP3    H276155   2.206   2.874  16.864
18222TIP3   OH276156   0.121   0.738   4.504
18222TIP3    H176157   0.150   0.673   4.441
18222TIP3    H276158   0.026   0.740   4.495
18223TIP3   OH276159   3.071   2.924   5.727
18223TIP3    H176160   3.055   3.015   5.700
18223TIP3    H276161   2.997   2.875   5.692
18224TIP3   OH276162   4.288   2.581   0.075
18224TIP3    H176163   4.326   2.529   0.004
18224TIP3    H276164   4.342   2.661   0.078
18225TIP3   OH276165   5.109   4.944  15.064
18225TIP3    H176166   5.190   4.982  15.030
18225TIP3    H276167   5.080   5.006  15.131
18226TIP3   OH276168   1.387   3.702   5.625
18226TIP3    H176169   1.297   3.733   5.625
18226TIP3    H276170   1.421   3.726   5.538
18227TIP3   OH276171   2.994   5.744  15.251
18227TIP3    H176172   3.029   5.798  15.180
18227TIP3    H276173   3.043   5.662  15.246
18228TIP3   OH276174   6.389   3.927  15.499
18228TIP3    H176175   6.411   3.845  15.542
18228TIP3    H276176   6.359   3.902  15.412
18229TIP3   OH276177   1.587   5.489   2.631
18229TIP3    H176178   1.491   5.498   2.626
18229TIP3    H276179   1.620   5.575   2.607
18230TIP3   OH276180   4.177   2.823   0.638
18230TIP3    H176181   4.218   2.799   0.555
18230TIP3    H276182   4.088   2.788   0.632
18231TIP3   OH276183   0.061   6.484   3.340
18231TIP3    H176184   0.017   6.422   3.282
18231TIP3    H276185  -0.000   6.495   3.414
18232TIP3   OH276186   2.342   3.719   4.581
18232TIP3    H176187   2.262   3.668   4.594
18232TIP3    H276188   2.315   3.792   4.525
18233TIP3   OH276189   4.383   1.945   4.479
18233TIP3    H176190   4.434   1.989   4.547
18233TIP3    H276191   4.383   1.853   4.505
18234TIP3   OH276192   3.122   5.210  12.272
18234TIP3    H176193   3.101   5.303  12.264
18234TIP3    H276194   3.056   5.174  12.331
18235TIP3   OH276195   2.109   5.643   5.930
18235TIP3    H176196   2.038   5.672   5.987
18235TIP3    H276197   2.070   5.642   5.842
18236TIP3   OH276198   3.588   5.866   4.636
18236TIP3    H176199   3.620   5.957   4.639
18236TIP3    H276200   3.668   5.813   4.641
18237TIP3   OH276201   2.386   4.894  10.444
18237TIP3    H176202   2.451   4.843  10.492
18237TIP3    H276203   2.384   4.856  10.357
18238TIP3   OH276204   3.373   1.785   2.713
18238TIP3    H176205   3.389   1.794   2.619
18238TIP3    H276206   3.448   1.737   2.746
18239TIP3   OH276207   3.620   2.352  14.779
18239TIP3    H176208   3.605   2.341  14.685
18239TIP3    H276209   3.621   2.263  14.814
18240TIP3   OH276210   6.775   0.169  12.813
18240TIP3    H176211   6.794   0.250  12.766
18240TIP3    H276212   6.681   0.173  12.830
18241TIP3   OH276213   3.821   4.436   3.987
18241TIP3    H176214   3.914   4.420   3.999
18241TIP3    H276215   3.778   4.375   4.047
18242TIP3   OH276216   5.237   4.042  11.318
18242TIP3    H176217   5.251   3.971  11.256
18242TIP3    H276218   5.285   4.016  11.397
18243TIP3   OH276219   4.595   1.043  16.440
18243TIP3    H176220   4.518   1.013  16.393
18243TIP3    H276221   4.575   1.027  16.532
18244TIP3   OH276222   0.559   1.717   5.958
18244TIP3    H176223   0.595   1.740   6.044
18244TIP3    H276224   0.480   1.770   5.950
18245TIP3   OH276225   3.777   1.917   1.211
18245TIP3    H176226   3.708   1.936   1.275
18245TIP3    H276227   3.752   1.833   1.173
18246TIP3   OH276228   1.676   2.241  16.447
18246TIP3    H176229   1.628   2.187  16.385
18246TIP3    H276230   1.768   2.227  16.424
18247TIP3   OH276231   1.575   5.930   5.692
18247TIP3    H176232   1.627   5.938   5.612
18247TIP3    H276233   1.504   5.871   5.667
18248TIP3   OH276234   1.315   2.869   6.894
18248TIP3    H176235   1.334   2.815   6.970
18248TIP3    H276236   1.360   2.952   6.912
18249TIP3   OH276237   5.582   1.419   2.807
18249TIP3    H176238   5.539   1.427   2.722
18249TIP3    H276239   5.536   1.482   2.863
18250TIP3   OH276240   1.490   0.318   5.909
18250TIP3    H176241   1.499   0.393   5.968
18250TIP3    H276242   1.503   0.355   5.821
18251TIP3   OH276243   5.769   0.215   4.575
18251TIP3    H176244   5.733   0.266   4.504
18251TIP3    H276245   5.863   0.209   4.555
18252TIP3   OH276246   5.527   2.776   0.737
18252TIP3    H176247   5.537   2.837   0.664
18252TIP3    H276248   5.569   2.820   0.811
18253TIP3   OH276249   2.074   1.067  16.768
18253TIP3    H176250   2.071   1.093  16.676
18253TIP3    H276251   2.167   1.054  16.786
18254TIP3   OH276252   0.736   1.124  17.103
18254TIP3    H176253   0.780   1.086  17.027
18254TIP3    H276254   0.796   1.192  17.133
18255TIP3   OH276255   3.024   2.880  13.333
18255TIP3    H176256   3.004   2.796  13.375
18255TIP3    H276257   3.003   2.866  13.241
18256TIP3   OH276258   5.769   5.228   1.432
18256TIP3    H176259   5.777   5.187   1.345
18256TIP3    H276260   5.835   5.184   1.485
18257TIP3   OH276261   2.500   1.752   3.307
18257TIP3    H176262   2.569   1.781   3.367
18257TIP3    H276263   2.535   1.771   3.220
18258TIP3   OH276264   3.178   5.218   2.250
18258TIP3    H176265   3.176   5.203   2.156
18258TIP3    H276266   3.088   5.239   2.274
18259TIP3   OH276267   2.879   1.660   0.176
18259TIP3    H176268   2.946   1.629   0.237
18259TIP3    H276269   2.879   1.755   0.187
18260TIP3   OH276270   1.195   1.479   4.446
18260TIP3    H176271   1.168   1.536   4.374
18260TIP3    H276272   1.115   1.465   4.497
18261TIP3   OH276273   0.400   3.365   1.720
18261TIP3    H176274   0.379   3.335   1.631
18261TIP3    H276275   0.493   3.385   1.718
18262TIP3   OH276276   4.410   2.499   2.037
18262TIP3    H176277   4.410   2.566   2.106
18262TIP3    H276278   4.317   2.484   2.019
18263TIP3   OH276279   5.087   6.599  13.116
18263TIP3    H176280   5.176   6.634  13.119
18263TIP3    H276281   5.079   6.560  13.030
18264TIP3   OH276282   0.728   4.451   0.385
18264TIP3    H176283   0.809   4.404   0.401
18264TIP3    H276284   0.712   4.441   0.291
18265TIP3   OH276285   2.569   5.051  11.628
18265TIP3    H176286   2.490   5.005  11.656
18265TIP3    H276287   2.554   5.142  11.653
18266TIP3   OH276288   6.464   5.401   3.795
18266TIP3    H176289   6.481   5.405   3.701
18266TIP3    H276290   6.481   5.310   3.819
18267TIP3   OH276291   0.918   3.372   2.296
18267TIP3    H176292   1.003   3.333   2.274
18267TIP3    H276293   0.921   3.459   2.257
18268TIP3   OH276294   4.831   4.962  14.700
18268TIP3    H176295   4.864   4.900  14.765
18268TIP3    H276296   4.896   4.959  14.630
18269TIP3   OH276297   3.707   5.512  10.980
18269TIP3    H176298   3.741   5.429  10.947
18269TIP3    H276299   3.715   5.572  10.906
18270TIP3   OH276300   0.010   6.013   0.719
18270TIP3    H176301   0.048   6.018   0.631
18270TIP3    H276302   0.000   5.919   0.735
18271TIP3   OH276303   0.960   0.289  13.489
18271TIP3    H176304   0.933   0.253  13.574
18271TIP3    H276305   0.879   0.295  13.439
18272TIP3   OH276306   5.802   6.521   0.075
18272TIP3    H176307   5.767   6.499  -0.011
18272TIP3    H276308   5.826   6.437   0.114
18273TIP3   OH276309   3.688   2.950   1.206
18273TIP3    H176310   3.658   3.034   1.239
18273TIP3    H276311   3.656   2.946   1.116
18274TIP3   OH276312   4.712   2.445  14.943
18274TIP3    H176313   4.655   2.432  15.018
18274TIP3    H276314   4.790   2.394  14.963
18275TIP3   OH276315   6.388   5.797   5.416
18275TIP3    H176316   6.324   5.726   5.416
18275TIP3    H276317   6.336   5.877   5.405
18276TIP3   OH276318   4.193   0.290   3.755
18276TIP3    H176319   4.191   0.249   3.669
18276TIP3    H276320   4.105   0.323   3.769
18277TIP3   OH276321   4.254   3.526  13.402
18277TIP3    H176322   4.287   3.599  13.350
18277TIP3    H276323   4.287   3.543  13.490
18278TIP3   OH276324   0.320   0.227  14.986
18278TIP3    H176325   0.277   0.218  14.901
18278TIP3    H276326   0.264   0.177  15.046
18279TIP3   OH276327   2.131   1.766   4.899
18279TIP3    H176328   2.214   1.725   4.876
18279TIP3    H276329   2.122   1.753   4.993
18280TIP3   OH276330   4.458   6.075   0.426
18280TIP3    H176331   4.391   6.006   0.426
18280TIP3    H276332   4.528   6.040   0.371
18281TIP3   OH276333   5.066   2.668  13.110
18281TIP3    H176334   5.096   2.626  13.191
18281TIP3    H276335   5.122   2.630  13.042
18282TIP3   OH276336   4.570   1.181  13.536
18282TIP3    H176337   4.520   1.100  13.541
18282TIP3    H276338   4.644   1.168  13.594
18283TIP3   OH276339   1.331   2.519  15.250
18283TIP3    H176340   1.341   2.558  15.163
18283TIP3    H276341   1.416   2.531  15.292
18284TIP3   OH276342   5.650   1.029   1.134
18284TIP3    H176343   5.690   1.116   1.128
18284TIP3    H276344   5.556   1.046   1.141
18285TIP3   OH276345   1.020   3.978  15.663
18285TIP3    H176346   0.985   4.064  15.686
18285TIP3    H276347   1.061   3.946  15.743
18286TIP3   OH276348   1.280   4.095  10.676
18286TIP3    H176349   1.226   4.164  10.638
18286TIP3    H276350   1.217   4.034  10.715
18287TIP3   OH276351   3.549   2.085   2.411
18287TIP3    H176352   3.622   2.142   2.385
18287TIP3    H276353   3.472   2.142   2.409
18288TIP3   OH276354   4.422   4.355  15.967
18288TIP3    H176355   4.371   4.373  16.046
18288TIP3    H276356   4.359   4.354  15.896
18289TIP3   OH276357   2.658   5.646   3.218
18289TIP3    H176358   2.627   5.592   3.291
18289TIP3    H276359   2.686   5.582   3.152
18290TIP3   OH276360   3.355   4.803   1.590
18290TIP3    H176361   3.409   4.726   1.574
18290TIP3    H276362   3.397   4.872   1.540
18291TIP3   OH276363   1.609   4.241  13.124
18291TIP3    H176364   1.657   4.158  13.124
18291TIP3    H276365   1.526   4.221  13.168
18292TIP3   OH276366   5.933   6.129  12.494
18292TIP3    H176367   5.874   6.077  12.440
18292TIP3    H276368   5.944   6.211  12.447
18293TIP3   OH276369   5.259   0.554   3.671
18293TIP3    H176370   5.176   0.570   3.628
18293TIP3    H276371   5.275   0.634   3.722
18294TIP3   OH276372   3.635   1.801  17.140
18294TIP3    H176373   3.607   1.789  17.050
18294TIP3    H276374   3.683   1.721  17.162
18295TIP3   OH276375   5.084   3.245   3.962
18295TIP3    H176376   5.037   3.162   3.970
18295TIP3    H276377   5.155   3.238   4.026
18296TIP3   OH276378   0.652   3.133   0.365
18296TIP3    H176379   0.645   3.159   0.273
18296TIP3    H276380   0.715   3.061   0.365
18297TIP3   OH276381   3.095   2.264  13.785
18297TIP3    H176382   3.006   2.242  13.811
18297TIP3    H276383   3.149   2.197  13.826
18298TIP3   OH276384   3.734   5.684   1.567
18298TIP3    H176385   3.819   5.718   1.539
18298TIP3    H276386   3.701   5.750   1.627
18299TIP3   OH276387   6.494   5.388  15.293
18299TIP3    H176388   6.587   5.382  15.270
18299TIP3    H276389   6.467   5.298  15.309
18300TIP3   OH276390   4.513   1.854  14.186
18300TIP3    H176391   4.507   1.760  14.167
18300TIP3    H276392   4.481   1.862  14.276
18301TIP3   OH276393   5.126   3.954   2.874
18301TIP3    H176394   5.189   3.883   2.888
18301TIP3    H276395   5.041   3.912   2.876
18302TIP3   OH276396   5.703   1.376  16.791
18302TIP3    H176397   5.738   1.287  16.792
18302TIP3    H276398   5.776   1.431  16.763
18303TIP3   OH276399   0.168   4.428  16.018
18303TIP3    H176400   0.264   4.433  16.016
18303TIP3    H276401   0.150   4.350  16.069
18304TIP3   OH276402   1.854   0.074   4.944
18304TIP3    H176403   1.804  -0.006   4.927
18304TIP3    H276404   1.941   0.044   4.969
18305TIP3   OH276405   2.240   5.441   6.142
18305TIP3    H176406   2.215   5.480   6.058
18305TIP3    H276407   2.198   5.496   6.208
18306TIP3   OH276408   5.113   6.239  13.427
18306TIP3    H176409   5.176   6.238  13.355
18306TIP3    H276410   5.142   6.312  13.482
18307TIP3   OH276411   0.766   3.544  14.559
18307TIP3    H176412   0.700   3.543  14.628
18307TIP3    H276413   0.847   3.520  14.603
18308TIP3   OH276414   4.804   5.229  13.575
18308TIP3    H176415   4.817   5.290  13.647
18308TIP3    H276416   4.730   5.265  13.526
18309TIP3   OH276417   2.780   5.222  15.034
18309TIP3    H176418   2.810   5.140  15.073
18309TIP3    H276419   2.690   5.204  15.005
18310TIP3   OH276420   2.349   1.505  14.267
18310TIP3    H176421   2.395   1.495  14.184
18310TIP3    H276422   2.383   1.586  14.304
18311TIP3   OH276423   6.688   3.207  13.663
18311TIP3    H176424   6.758   3.150  13.632
18311TIP3    H276425   6.673   3.181  13.754
18312TIP3   OH276426   5.775   6.742   2.029
18312TIP3    H176427   5.782   6.837   2.030
18312TIP3    H276428   5.852   6.712   1.980
18313TIP3   OH276429   0.635   5.825   1.733
18313TIP3    H176430   0.618   5.855   1.823
18313TIP3    H276431   0.548   5.819   1.693
18314TIP3   OH276432   0.558   1.424   2.057
18314TIP3    H176433   0.506   1.428   1.977
18314TIP3    H276434   0.646   1.448   2.029
18315TIP3   OH276435   2.349   2.978  12.024
18315TIP3    H176436   2.432   2.932  12.037
18315TIP3    H276437   2.361   3.027  11.943
18316TIP3   OH276438   6.770   4.823   2.996
18316TIP3    H176439   6.761   4.898   3.055
18316TIP3    H276440   6.794   4.751   3.054
18317TIP3   OH276441   1.858   4.151   1.616
18317TIP3    H176442   1.802   4.193   1.551
18317TIP3    H276443   1.823   4.180   1.700
18318TIP3   OH276444   3.821   5.978   3.368
18318TIP3    H176445   3.819   5.899   3.423
18318TIP3    H276446   3.909   5.978   3.331
18319TIP3   OH276447   1.897   4.391   5.191
18319TIP3    H176448   1.905   4.425   5.280
18319TIP3    H276449   1.930   4.462   5.136
18320TIP3   OH276450   6.065   5.712  13.927
18320TIP3    H176451   6.012   5.674  13.857
18320TIP3    H276452   6.005   5.718  14.002
18321TIP3   OH276453   4.960   5.475   5.096
18321TIP3    H176454   4.879   5.503   5.053
18321TIP3    H276455   5.013   5.554   5.102
18322TIP3   OH276456   5.527   1.872   3.294
18322TIP3    H176457   5.599   1.912   3.342
18322TIP3    H276458   5.493   1.941   3.237
18323TIP3   OH276459   0.569   6.002  11.623
18323TIP3    H176460   0.495   5.944  11.637
18323TIP3    H276461   0.531   6.090  11.622
18324TIP3   OH276462   2.088   0.327   1.621
18324TIP3    H176463   2.181   0.335   1.600
18324TIP3    H276464   2.053   0.271   1.552
18325TIP3   OH276465   2.024   1.450  14.827
18325TIP3    H176466   1.935   1.482  14.813
18325TIP3    H276467   2.034   1.447  14.922
18326TIP3   OH276468   2.209   4.526  16.540
18326TIP3    H176469   2.215   4.438  16.502
18326TIP3    H276470   2.116   4.537  16.560
18327TIP3   OH276471   5.391   2.988  14.528
18327TIP3    H176472   5.296   2.986  14.537
18327TIP3    H276473   5.407   2.983  14.434
18328TIP3   OH276474   0.942   1.188  15.146
18328TIP3    H176475   0.900   1.169  15.230
18328TIP3    H276476   0.967   1.281  15.152
18329TIP3   OH276477   6.699   4.012   5.685
18329TIP3    H176478   6.640   4.052   5.620
18329TIP3    H276479   6.642   3.955   5.737
18330TIP3   OH276480   4.190   1.802   5.455
18330TIP3    H176481   4.246   1.880   5.462
18330TIP3    H276482   4.101   1.837   5.450
18331TIP3   OH276483   2.986   4.421  14.281
18331TIP3    H176484   2.951   4.402  14.368
18331TIP3    H276485   3.059   4.480  14.296
18332TIP3   OH276486   0.556   0.615  10.480
18332TIP3    H176487   0.578   0.593  10.570
18332TIP3    H276488   0.566   0.711  10.476
18333TIP3   OH276489   4.564   3.410  15.319
18333TIP3    H176490   4.604   3.464  15.387
18333TIP3    H276491   4.474   3.398  15.347
18334TIP3   OH276492   4.885   1.949  16.930
18334TIP3    H176493   4.940   1.880  16.893
18334TIP3    H276494   4.886   2.018  16.864
18335TIP3   OH276495   0.291   2.242   1.478
18335TIP3    H176496   0.298   2.183   1.403
18335TIP3    H276497   0.224   2.306   1.453
18336TIP3   OH276498   5.310   1.404  13.722
18336TIP3    H176499   5.252   1.358  13.661
18336TIP3    H276500   5.302   1.354  13.804
18337TIP3   OH276501   3.868   4.288  15.404
18337TIP3    H176502   3.850   4.197  15.381
18337TIP3    H276503   3.781   4.327  15.416
18338TIP3   OH276504   1.378   4.660   2.322
18338TIP3    H176505   1.458   4.617   2.290
18338TIP3    H276506   1.351   4.609   2.398
18339TIP3   OH276507   0.128   2.580  11.658
18339TIP3    H176508   0.177   2.519  11.604
18339TIP3    H276509   0.073   2.524  11.714
18340TIP3   OH276510   0.692   4.088   4.184
18340TIP3    H176511   0.628   4.051   4.123
18340TIP3    H276512   0.694   4.026   4.257
18341TIP3   OH276513   1.551   0.476  15.467
18341TIP3    H176514   1.644   0.461  15.481
18341TIP3    H276515   1.547   0.557  15.416
18342TIP3   OH276516   2.217   3.035   6.077
18342TIP3    H176517   2.194   3.017   6.168
18342TIP3    H276518   2.253   3.123   6.078
18343TIP3   OH276519   4.039   2.145  15.003
18343TIP3    H176520   3.968   2.183  15.055
18343TIP3    H276521   4.056   2.060  15.045
18344TIP3   OH276522   5.176   3.595   2.056
18344TIP3    H176523   5.236   3.669   2.067
18344TIP3    H276524   5.098   3.633   2.017
18345TIP3   OH276525   2.722   3.640   0.323
18345TIP3    H176526   2.776   3.676   0.252
18345TIP3    H276527   2.693   3.555   0.290
18346TIP3   OH276528   4.633   3.385  14.015
18346TIP3    H176529   4.716   3.350  14.047
18346TIP3    H276530   4.580   3.397  14.094
18347TIP3   OH276531   1.755   6.604  16.796
18347TIP3    H176532   1.705   6.531  16.761
18347TIP3    H276533   1.689   6.666  16.827
18348TIP3   OH276534   6.293   3.354   3.150
18348TIP3    H176535   6.283   3.449   3.161
18348TIP3    H276536   6.365   3.331   3.209
18349TIP3   OH276537   6.290   3.805  12.530
18349TIP3    H176538   6.238   3.748  12.587
18349TIP3    H276539   6.303   3.885  12.581
18350TIP3   OH276540   3.361   3.080  14.411
18350TIP3    H176541   3.276   3.038  14.426
18350TIP3    H276542   3.412   3.059  14.489
18351TIP3   OH276543   1.460   5.874   1.291
18351TIP3    H176544   1.534   5.935   1.284
18351TIP3    H276545   1.484   5.815   1.362
18352TIP3   OH276546   0.451   6.311  16.785
18352TIP3    H176547   0.382   6.373  16.763
18352TIP3    H276548   0.459   6.255  16.708
18353TIP3   OH276549   6.453   0.825  14.780
18353TIP3    H176550   6.436   0.846  14.688
18353TIP3    H276551   6.480   0.733  14.779
18354TIP3   OH276552   4.675   4.069   5.189
18354TIP3    H176553   4.745   4.091   5.127
18354TIP3    H276554   4.615   4.144   5.183
18355TIP3   OH276555   0.129   4.482   0.738
18355TIP3    H176556   0.119   4.388   0.754
18355TIP3    H276557   0.127   4.491   0.643
18356TIP3   OH276558   0.044   4.259  12.261
18356TIP3    H176559   0.070   4.209  12.183
18356TIP3    H276560  -0.049   4.240  12.271
18357TIP3   OH276561   6.006   4.333   4.867
18357TIP3    H176562   5.958   4.323   4.950
18357TIP3    H276563   5.962   4.272   4.807
18358TIP3   OH276564   2.311   2.893   4.891
18358TIP3    H176565   2.245   2.833   4.858
18358TIP3    H276566   2.266   2.945   4.957
18359TIP3   OH276567   5.157   5.031   3.306
18359TIP3    H176568   5.208   4.955   3.276
18359TIP3    H276569   5.071   4.995   3.328
18360TIP3   OH276570   1.613   0.474  13.315
18360TIP3    H176571   1.593   0.538  13.383
18360TIP3    H276572   1.641   0.396  13.362
18361TIP3   OH276573   4.059   6.739  13.589
18361TIP3    H176574   4.143   6.767  13.627
18361TIP3    H276575   3.999   6.811  13.608
18362TIP3   OH276576   6.228   6.059  17.058
18362TIP3    H176577   6.233   6.153  17.042
18362TIP3    H276578   6.147   6.047  17.108
18363TIP3   OH276579   0.601   5.136  17.103
18363TIP3    H176580   0.683   5.179  17.126
18363TIP3    H276581   0.554   5.126  17.186
18364TIP3   OH276582   5.483   6.092   3.023
18364TIP3    H176583   5.527   6.090   3.109
18364TIP3    H276584   5.554   6.107   2.961
18365TIP3   OH276585   3.367   1.920  13.332
18365TIP3    H176586   3.461   1.931  13.325
18365TIP3    H276587   3.334   2.006  13.356
18366TIP3   OH276588   2.561   0.514  11.382
18366TIP3    H176589   2.628   0.548  11.443
18366TIP3    H276590   2.490   0.579  11.386
18367TIP3   OH276591   4.350   2.471   4.362
18367TIP3    H176592   4.302   2.526   4.299
18367TIP3    H276593   4.306   2.386   4.357
18368TIP3   OH276594   4.657   4.694   1.875
18368TIP3    H176595   4.723   4.625   1.880
18368TIP3    H276596   4.602   4.680   1.952
18369TIP3   OH276597   3.191   3.302   0.083
18369TIP3    H176598   3.185   3.314  -0.011
18369TIP3    H276599   3.135   3.372   0.119
18370TIP3   OH276600   0.156   0.011   0.811
18370TIP3    H176601   0.168   0.096   0.855
18370TIP3    H276602   0.148  -0.052   0.883
18371TIP3   OH276603   5.455   0.016   4.464
18371TIP3    H176604   5.455   0.089   4.402
18371TIP3    H276605   5.377  -0.034   4.441
18372TIP3   OH276606   1.265   6.341   0.605
18372TIP3    H176607   1.280   6.428   0.640
18372TIP3    H276608   1.175   6.319   0.632
18373TIP3   OH276609   3.649   1.818   5.189
18373TIP3    H176610   3.587   1.866   5.134
18373TIP3    H276611   3.638   1.856   5.276
18374TIP3   OH276612   6.191   0.752   0.579
18374TIP3    H176613   6.122   0.786   0.635
18374TIP3    H276614   6.144   0.703   0.511
18375TIP3   OH276615   5.560   4.549   0.612
18375TIP3    H176616   5.477   4.528   0.567
18375TIP3    H276617   5.541   4.536   0.705
18376TIP3   OH276618   4.347   5.043   1.955
18376TIP3    H176619   4.431   5.023   1.913
18376TIP3    H276620   4.357   5.010   2.044
18377TIP3   OH276621   1.002   0.611   0.056
18377TIP3    H176622   0.912   0.643   0.065
18377TIP3    H276623   1.027   0.584   0.145
18378TIP3   OH276624   2.456   2.750  12.376
18378TIP3    H176625   2.521   2.692  12.336
18378TIP3    H276626   2.493   2.838  12.369
18379TIP3   OH276627   0.139   3.651  15.512
18379TIP3    H176628   0.117   3.725  15.455
18379TIP3    H276629   0.080   3.659  15.587
18380TIP3   OH276630   1.970   4.332   5.979
18380TIP3    H176631   1.996   4.324   6.070
18380TIP3    H276632   2.002   4.418   5.952
18381TIP3   OH276633   4.262   6.392   3.208
18381TIP3    H176634   4.303   6.472   3.241
18381TIP3    H276635   4.330   6.349   3.156
18382TIP3   OH276636   3.563   4.632  16.794
18382TIP3    H176637   3.526   4.609  16.879
18382TIP3    H276638   3.515   4.578  16.732
18383TIP3   OH276639   5.872   3.143   5.450
18383TIP3    H176640   5.842   3.079   5.386
18383TIP3    H276641   5.822   3.223   5.430
18384TIP3   OH276642   1.559   2.153  11.907
18384TIP3    H176643   1.628   2.212  11.936
18384TIP3    H276644   1.563   2.155  11.812
18385TIP3   OH276645   0.787   5.362  16.768
18385TIP3    H176646   0.739   5.421  16.710
18385TIP3    H276647   0.822   5.294  16.711
18386TIP3   OH276648   0.506   0.662   5.093
18386TIP3    H176649   0.517   0.640   5.186
18386TIP3    H276650   0.428   0.718   5.092
18387TIP3   OH276651   5.354   6.230   1.835
18387TIP3    H176652   5.329   6.268   1.751
18387TIP3    H276653   5.413   6.294   1.874
18388TIP3   OH276654   1.990   4.631   1.483
18388TIP3    H176655   2.019   4.543   1.457
18388TIP3    H276656   1.896   4.621   1.500
18389TIP3   OH276657   1.030   5.489  11.271
18389TIP3    H176658   1.103   5.439  11.234
18389TIP3    H276659   0.979   5.518  11.196
18390TIP3   OH276660   3.903   6.751  10.622
18390TIP3    H176661   3.813   6.747  10.589
18390TIP3    H276662   3.957   6.728  10.546
18391TIP3   OH276663   2.649   4.715   2.930
18391TIP3    H176664   2.566   4.671   2.951
18391TIP3    H276665   2.624   4.782   2.866
18392TIP3   OH276666   2.178   6.196   2.859
18392TIP3    H176667   2.189   6.103   2.877
18392TIP3    H276668   2.182   6.238   2.945
18393TIP3   OH276669   1.708   5.828   0.508
18393TIP3    H176670   1.796   5.828   0.470
18393TIP3    H276671   1.705   5.748   0.562
18394TIP3   OH276672   5.222   4.420  12.362
18394TIP3    H176673   5.133   4.425  12.327
18394TIP3    H276674   5.276   4.464  12.297
18395TIP3   OH276675   0.968   2.344   4.943
18395TIP3    H176676   0.915   2.400   4.887
18395TIP3    H276677   0.944   2.255   4.917
18396TIP3   OH276678   5.295   6.785  15.850
18396TIP3    H176679   5.370   6.759  15.904
18396TIP3    H276680   5.272   6.706  15.801
18397TIP3   OH276681   2.508   1.779  14.297
18397TIP3    H176682   2.593   1.738  14.281
18397TIP3    H276683   2.498   1.778  14.392
18398TIP3   OH276684   1.912   2.825  11.957
18398TIP3    H176685   1.912   2.749  12.014
18398TIP3    H276686   1.828   2.821  11.911
18399TIP3   OH276687   0.043   2.766   0.618
18399TIP3    H176688   0.017   2.710   0.544
18399TIP3    H276689  -0.014   2.842   0.612
18400TIP3   OH276690   3.427   3.898  17.247
18400TIP3    H176691   3.415   3.904  17.342
18400TIP3    H276692   3.339   3.891  17.212
18401TIP3   OH276693   5.161   0.221  11.165
18401TIP3    H176694   5.117   0.245  11.083
18401TIP3    H276695   5.246   0.189  11.137
18402TIP3   OH276696   3.091   2.684   6.138
18402TIP3    H176697   3.086   2.737   6.217
18402TIP3    H276698   3.181   2.695   6.106
18403TIP3   OH276699   1.542   2.144   5.926
18403TIP3    H176700   1.469   2.085   5.909
18403TIP3    H276701   1.555   2.140   6.021
18404TIP3   OH276702   4.630   6.278  14.913
18404TIP3    H176703   4.694   6.349  14.902
18404TIP3    H276704   4.569   6.289  14.840
18405TIP3   OH276705   0.863   2.367   1.029
18405TIP3    H176706   0.780   2.323   1.013
18405TIP3    H276707   0.839   2.456   1.056
18406TIP3   OH276708   3.508   1.034  12.203
18406TIP3    H176709   3.573   1.058  12.269
18406TIP3    H276710   3.558   0.992  12.133
18407TIP3   OH276711   4.685   2.517  16.280
18407TIP3    H176712   4.694   2.427  16.312
18407TIP3    H276713   4.775   2.549  16.271
18408TIP3   OH276714   5.234   5.719  12.661
18408TIP3    H176715   5.279   5.637  12.683
18408TIP3    H276716   5.216   5.760  12.745
18409TIP3   OH276717   6.226   2.142  10.608
18409TIP3    H176718   6.283   2.106  10.540
18409TIP3    H276719   6.241   2.087  10.685
18410TIP3   OH276720   0.916   6.271   3.292
18410TIP3    H176721   0.944   6.205   3.230
18410TIP3    H276722   0.838   6.234   3.334
18411TIP3   OH276723   4.455   2.650   1.740
18411TIP3    H176724   4.509   2.573   1.722
18411TIP3    H276725   4.425   2.678   1.653
18412TIP3   OH276726   4.497   1.325   4.716
18412TIP3    H176727   4.529   1.407   4.681
18412TIP3    H276728   4.418   1.306   4.666
18413TIP3   OH276729   2.168   0.240   2.591
18413TIP3    H176730   2.219   0.282   2.522
18413TIP3    H276731   2.230   0.182   2.634
18414TIP3   OH276732   1.324   4.056  11.484
18414TIP3    H176733   1.387   4.051  11.412
18414TIP3    H276734   1.367   4.009  11.556
18415TIP3   OH276735   0.329   6.033   4.508
18415TIP3    H176736   0.265   6.098   4.479
18415TIP3    H276737   0.412   6.064   4.474
18416TIP3   OH276738   4.449   4.466  13.893
18416TIP3    H176739   4.512   4.407  13.852
18416TIP3    H276740   4.424   4.527  13.823
18417TIP3   OH276741   0.437   5.699   1.108
18417TIP3    H176742   0.523   5.741   1.097
18417TIP3    H276743   0.418   5.706   1.201
18418TIP3   OH276744   4.331   1.541  10.875
18418TIP3    H176745   4.382   1.586  10.808
18418TIP3    H276746   4.397   1.498  10.929
18419TIP3   OH276747   6.518   6.424  14.272
18419TIP3    H176748   6.588   6.402  14.334
18419TIP3    H276749   6.444   6.371  14.300
18420TIP3   OH276750   5.458   0.871  16.457
18420TIP3    H176751   5.454   0.949  16.400
18420TIP3    H276752   5.519   0.812  16.413
18421TIP3   OH276753   1.280   0.461   1.212
18421TIP3    H176754   1.263   0.462   1.118
18421TIP3    H276755   1.341   0.534   1.227
18422TIP3   OH276756   1.339   4.693  13.981
18422TIP3    H176757   1.345   4.786  14.004
18422TIP3    H276758   1.249   4.669  14.003
18423TIP3   OH276759   4.884   2.556  15.839
18423TIP3    H176760   4.877   2.649  15.820
18423TIP3    H276761   4.846   2.546  15.927
18424TIP3   OH276762   3.756   5.344   2.588
18424TIP3    H176763   3.665   5.318   2.601
18424TIP3    H276764   3.759   5.377   2.498
18425TIP3   OH276765   5.398   6.174   2.643
18425TIP3    H176766   5.426   6.084   2.663
18425TIP3    H276767   5.303   6.167   2.635
18426TIP3   OH276768   3.682   0.599   4.465
18426TIP3    H176769   3.710   0.651   4.541
18426TIP3    H276770   3.593   0.629   4.446
18427TIP3   OH276771   4.755   3.551   3.335
18427TIP3    H176772   4.671   3.505   3.340
18427TIP3    H276773   4.815   3.487   3.299
18428TIP3   OH276774   3.229   4.757   4.132
18428TIP3    H176775   3.270   4.812   4.199
18428TIP3    H276776   3.164   4.815   4.091
18429TIP3   OH276777   0.888   1.849  13.669
18429TIP3    H176778   0.857   1.922  13.616
18429TIP3    H276779   0.956   1.808  13.615
18430TIP3   OH276780   4.974   0.664  10.984
18430TIP3    H176781   4.922   0.633  11.058
18430TIP3    H276782   4.928   0.629  10.907
18431TIP3   OH276783   2.244   3.145  12.774
18431TIP3    H176784   2.154   3.121  12.749
18431TIP3    H276785   2.267   3.083  12.843
18432TIP3   OH276786   5.753   0.927   4.379
18432TIP3    H176787   5.673   0.884   4.411
18432TIP3    H276788   5.721   1.002   4.328
18433TIP3   OH276789   3.002   2.600  16.438
18433TIP3    H176790   3.066   2.672  16.440
18433TIP3    H276791   2.931   2.630  16.494
18434TIP3   OH276792   0.882   2.406   4.292
18434TIP3    H176793   0.905   2.480   4.347
18434TIP3    H276794   0.923   2.331   4.334
18435TIP3   OH276795   1.565   4.877   3.884
18435TIP3    H176796   1.543   4.797   3.930
18435TIP3    H276797   1.650   4.860   3.844
18436TIP3   OH276798   5.875   1.076   3.223
18436TIP3    H176799   5.906   1.153   3.270
18436TIP3    H276800   5.784   1.065   3.251
18437TIP3   OH276801   0.633   1.710   5.200
18437TIP3    H176802   0.588   1.717   5.284
18437TIP3    H276803   0.568   1.739   5.136
18438TIP3   OH276804   5.393   2.273   5.251
18438TIP3    H176805   5.327   2.258   5.183
18438TIP3    H276806   5.442   2.350   5.222
18439TIP3   OH276807   6.554   6.584  15.412
18439TIP3    H176808   6.623   6.529  15.375
18439TIP3    H276809   6.517   6.630  15.336
18440TIP3   OH276810   3.655   5.495   4.966
18440TIP3    H176811   3.596   5.457   5.031
18440TIP3    H276812   3.724   5.536   5.017
18441TIP3   OH276813   5.019   0.237   0.838
18441TIP3    H176814   5.079   0.312   0.841
18441TIP3    H276815   4.959   0.252   0.911
18442TIP3   OH276816   0.266   1.063   3.037
18442TIP3    H176817   0.205   1.074   2.964
18442TIP3    H276818   0.211   1.062   3.115
18443TIP3   OH276819   6.570   1.092   0.058
18443TIP3    H176820   6.510   1.058  -0.008
18443TIP3    H276821   6.655   1.095   0.014
18444TIP3   OH276822   1.553   4.108   4.632
18444TIP3    H176823   1.599   4.026   4.653
18444TIP3    H276824   1.461   4.090   4.652
18445TIP3   OH276825   5.807   2.005  12.763
18445TIP3    H176826   5.866   2.017  12.688
18445TIP3    H276827   5.720   1.998  12.724
18446TIP3   OH276828   5.944   5.886   3.202
18446TIP3    H176829   5.913   5.842   3.123
18446TIP3    H276830   5.968   5.814   3.261
18447TIP3   OH276831   4.036   2.306  15.510
18447TIP3    H176832   4.114   2.353  15.481
18447TIP3    H276833   3.974   2.376  15.533
18448TIP3   OH276834   4.169   2.126  15.273
18448TIP3    H176835   4.204   2.190  15.211
18448TIP3    H276836   4.076   2.147  15.279
18449TIP3   OH276837   6.107   5.985  12.673
18449TIP3    H176838   6.044   6.043  12.631
18449TIP3    H276839   6.185   6.038  12.684
18450TIP3   OH276840   5.164   4.703  13.171
18450TIP3    H176841   5.205   4.633  13.121
18450TIP3    H276842   5.158   4.776  13.109
18451TIP3   OH276843   2.174   3.727  15.073
18451TIP3    H176844   2.099   3.674  15.100
18451TIP3    H276845   2.224   3.739  15.154
18452TIP3   OH276846   0.419   4.306  11.369
18452TIP3    H176847   0.386   4.227  11.326
18452TIP3    H276848   0.349   4.370  11.359
18453TIP3   OH276849   0.737   6.428   1.196
18453TIP3    H176850   0.671   6.359   1.197
18453TIP3    H276851   0.820   6.381   1.202
18454TIP3   OH276852   3.327   0.554   2.490
18454TIP3    H176853   3.241   0.535   2.453
18454TIP3    H276854   3.331   0.504   2.571
18455TIP3   OH276855   6.283   6.487   4.022
18455TIP3    H176856   6.240   6.562   4.062
18455TIP3    H276857   6.376   6.498   4.044
18456TIP3   OH276858   1.506   3.327  14.728
18456TIP3    H176859   1.458   3.281  14.659
18456TIP3    H276860   1.438   3.358  14.787
18457TIP3   OH276861   1.219   4.399   0.085
18457TIP3    H176862   1.174   4.315   0.079
18457TIP3    H276863   1.239   4.409   0.178
18458TIP3   OH276864   1.254   0.215   5.457
18458TIP3    H176865   1.341   0.193   5.423
18458TIP3    H276866   1.196   0.150   5.418
18459TIP3   OH276867   1.242   4.223   6.099
18459TIP3    H176868   1.332   4.220   6.132
18459TIP3    H276869   1.204   4.140   6.126
18460TIP3   OH276870   3.020   5.202  14.946
18460TIP3    H176871   3.086   5.266  14.919
18460TIP3    H276872   2.944   5.254  14.970
18461TIP3   OH276873   4.302   0.757  13.825
18461TIP3    H176874   4.275   0.694  13.758
18461TIP3    H276875   4.270   0.719  13.907
18462TIP3   OH276876   1.741   6.582  11.696
18462TIP3    H176877   1.713   6.524  11.766
18462TIP3    H276878   1.744   6.669  11.735
18463TIP3   OH276879   0.593   4.953  16.890
18463TIP3    H176880   0.608   5.018  16.959
18463TIP3    H276881   0.656   4.977  16.821
18464TIP3   OH276882   6.107   5.154   5.681
18464TIP3    H176883   6.033   5.182   5.734
18464TIP3    H276884   6.108   5.058   5.690
18465TIP3   OH276885   4.371   0.540  14.477
18465TIP3    H176886   4.364   0.597  14.554
18465TIP3    H276887   4.329   0.458  14.504
18466TIP3   OH276888   6.211   0.261  12.737
18466TIP3    H176889   6.257   0.330  12.786
18466TIP3    H276890   6.123   0.260  12.774
18467TIP3   OH276891   5.751   5.566  14.197
18467TIP3    H176892   5.813   5.636  14.177
18467TIP3    H276893   5.741   5.519  14.114
18468TIP3   OH276894   6.696   5.324   2.293
18468TIP3    H176895   6.692   5.229   2.309
18468TIP3    H276896   6.607   5.355   2.309
18469TIP3   OH276897   3.782   1.714  16.287
18469TIP3    H176898   3.846   1.739  16.354
18469TIP3    H276899   3.782   1.787  16.226
18470TIP3   OH276900   6.474   3.861  12.316
18470TIP3    H176901   6.555   3.842  12.365
18470TIP3    H276902   6.406   3.865  12.383
18471TIP3   OH276903   1.964   0.486  13.753
18471TIP3    H176904   1.931   0.418  13.812
18471TIP3    H276905   1.926   0.465  13.668
18472TIP3   OH276906   3.024   0.118  11.483
18472TIP3    H176907   2.953   0.058  11.459
18472TIP3    H276908   2.999   0.150  11.570
18473TIP3   OH276909   2.812   0.619   0.933
18473TIP3    H176910   2.757   0.541   0.934
18473TIP3    H276911   2.840   0.627   0.842
18474TIP3   OH276912   2.941   5.036  15.286
18474TIP3    H176913   3.033   5.055  15.268
18474TIP3    H276914   2.902   5.122  15.304
18475TIP3   OH276915   4.676   2.918  13.268
18475TIP3    H176916   4.708   2.848  13.211
18475TIP3    H276917   4.707   2.893  13.356
18476TIP3   OH276918   3.856   5.483  14.649
18476TIP3    H176919   3.782   5.474  14.589
18476TIP3    H276920   3.815   5.498  14.735
18477TIP3   OH276921   2.207   5.476   2.474
18477TIP3    H176922   2.255   5.554   2.502
18477TIP3    H276923   2.239   5.459   2.385
18478TIP3   OH276924   6.232   0.154  12.487
18478TIP3    H176925   6.204   0.183  12.574
18478TIP3    H276926   6.318   0.114  12.502
18479TIP3   OH276927   2.292   2.636   3.845
18479TIP3    H176928   2.343   2.589   3.911
18479TIP3    H276929   2.321   2.600   3.761
18480TIP3   OH276930   6.425   1.951   6.345
18480TIP3    H176931   6.390   2.031   6.307
18480TIP3    H276932   6.400   1.882   6.283
18481TIP3   OH276933   1.583   1.715   1.468
18481TIP3    H176934   1.501   1.681   1.503
18481TIP3    H276935   1.650   1.686   1.530
18482TIP3   OH276936   4.703   2.122   4.123
18482TIP3    H176937   4.773   2.159   4.069
18482TIP3    H276938   4.748   2.068   4.188
18483TIP3   OH276939   2.009   4.679   5.146
18483TIP3    H176940   1.992   4.729   5.226
18483TIP3    H276941   1.966   4.730   5.077
18484TIP3   OH276942   6.409   6.261   1.924
18484TIP3    H176943   6.412   6.267   1.829
18484TIP3    H276944   6.354   6.334   1.952
18485TIP3   OH276945   4.793   0.623   2.542
18485TIP3    H176946   4.793   0.712   2.577
18485TIP3    H276947   4.703   0.593   2.551
18486TIP3   OH276948   2.155   3.749  16.112
18486TIP3    H176949   2.191   3.680  16.168
18486TIP3    H276950   2.071   3.715  16.083
18487TIP3   OH276951   4.910   0.743   0.956
18487TIP3    H176952   4.974   0.675   0.976
18487TIP3    H276953   4.878   0.722   0.869
18488TIP3   OH276954   4.581   3.798  13.793
18488TIP3    H176955   4.517   3.729  13.808
18488TIP3    H276956   4.635   3.798  13.872
18489TIP3   OH276957   0.015   4.603  13.188
18489TIP3    H176958   0.052   4.641  13.109
18489TIP3    H276959   0.058   4.518  13.197
18490TIP3   OH276960   5.082   0.612  17.239
18490TIP3    H176961   5.042   0.619  17.152
18490TIP3    H276962   5.090   0.518  17.254
18491TIP3   OH276963   5.824   3.912  10.562
18491TIP3    H176964   5.731   3.888  10.567
18491TIP3    H276965   5.863   3.872  10.640
18492TIP3   OH276966   1.206   0.219  16.600
18492TIP3    H176967   1.251   0.199  16.683
18492TIP3    H276968   1.272   0.266  16.548
18493TIP3   OH276969   3.363   0.390  15.707
18493TIP3    H176970   3.399   0.474  15.679
18493TIP3    H276971   3.440   0.333  15.717
18494TIP3   OH276972   2.653   4.626   0.251
18494TIP3    H176973   2.649   4.533   0.273
18494TIP3    H276974   2.703   4.666   0.321
18495TIP3   OH276975   1.293   5.698  15.736
18495TIP3    H176976   1.220   5.755  15.710
18495TIP3    H276977   1.254   5.611  15.743
18496TIP3   OH276978   1.889   2.913   3.155
18496TIP3    H176979   1.902   3.008   3.154
18496TIP3    H276980   1.885   2.890   3.248
18497TIP3   OH276981   1.559   0.883  12.612
18497TIP3    H176982   1.569   0.872  12.707
18497TIP3    H276983   1.647   0.900  12.580
18498TIP3   OH276984   3.929   4.804  11.081
18498TIP3    H176985   3.971   4.744  11.144
18498TIP3    H276986   3.956   4.769  10.995
18499TIP3   OH276987   2.635   0.347   3.289
18499TIP3    H176988   2.551   0.366   3.246
18499TIP3    H276989   2.701   0.363   3.221
18500TIP3   OH276990   5.621   0.122   5.433
18500TIP3    H176991   5.544   0.140   5.487
18500TIP3    H276992   5.586   0.081   5.354
18501TIP3   OH276993   2.731   5.386   0.118
18501TIP3    H176994   2.661   5.340   0.164
18501TIP3    H276995   2.708   5.379   0.026
18502TIP3   OH276996   2.880   3.982  13.325
18502TIP3    H176997   2.921   3.903  13.359
18502TIP3    H276998   2.933   4.004  13.248
18503TIP3   OH276999   0.395   2.329  15.384
18503TIP3    H177000   0.444   2.409  15.366
18503TIP3    H277001   0.325   2.357  15.444
18504TIP3   OH277002   3.276   4.737  11.719
18504TIP3    H177003   3.232   4.729  11.804
18504TIP3    H277004   3.355   4.787  11.737
18505TIP3   OH277005   3.378   0.118  14.522
18505TIP3    H177006   3.400   0.025  14.532
18505TIP3    H277007   3.459   0.164  14.543
18506TIP3   OH277008   0.231   2.744  15.819
18506TIP3    H177009   0.215   2.675  15.884
18506TIP3    H277010   0.204   2.824  15.863
18507TIP3   OH277011   2.696   1.290  12.437
18507TIP3    H177012   2.673   1.294  12.344
18507TIP3    H277013   2.667   1.204  12.466
18508TIP3   OH277014   2.876   4.463  12.703
18508TIP3    H177015   2.824   4.519  12.761
18508TIP3    H277016   2.814   4.432  12.637
18509TIP3   OH277017   6.168   6.739  14.059
18509TIP3    H177018   6.260   6.758  14.041
18509TIP3    H277019   6.144   6.801  14.127
18510TIP3   OH277020   3.759   0.540  16.424
18510TIP3    H177021   3.705   0.551  16.503
18510TIP3    H277022   3.830   0.603  16.435
18511TIP3   OH277023   3.395   5.472   0.734
18511TIP3    H177024   3.373   5.449   0.824
18511TIP3    H277025   3.490   5.464   0.730
18512TIP3   OH277026   0.922   2.112   6.392
18512TIP3    H177027   1.010   2.088   6.422
18512TIP3    H277028   0.937   2.168   6.316
18513TIP3   OH277029   2.997   5.490   4.665
18513TIP3    H177030   3.052   5.449   4.732
18513TIP3    H277031   3.032   5.579   4.656
18514TIP3   OH277032   6.412   0.233  11.571
18514TIP3    H177033   6.494   0.283  11.568
18514TIP3    H277034   6.425   0.170  11.641
18515TIP3   OH277035   5.024   6.222  14.506
18515TIP3    H177036   5.002   6.291  14.569
18515TIP3    H277037   5.095   6.174  14.549
18516TIP3   OH277038   0.761   4.796  13.893
18516TIP3    H177039   0.753   4.724  13.831
18516TIP3    H277040   0.743   4.757  13.979
18517TIP3   OH277041   3.663   0.178   0.506
18517TIP3    H177042   3.627   0.256   0.549
18517TIP3    H277043   3.655   0.196   0.413
18518TIP3   OH277044   5.352   3.391   2.074
18518TIP3    H177045   5.271   3.443   2.074
18518TIP3    H277046   5.331   3.313   2.023
18519TIP3   OH277047   4.099   1.670  17.219
18519TIP3    H177048   4.155   1.649  17.294
18519TIP3    H277049   4.131   1.614  17.149
18520TIP3   OH277050   5.689   5.739   0.800
18520TIP3    H177051   5.759   5.677   0.820
18520TIP3    H277052   5.719   5.822   0.836
18521TIP3   OH277053   6.264   1.306  15.187
18521TIP3    H177054   6.353   1.300  15.222
18521TIP3    H277055   6.265   1.254  15.107
18522TIP3   OH277056   2.043   1.391   5.907
18522TIP3    H177057   2.090   1.351   5.834
18522TIP3    H277058   2.099   1.376   5.983
18523TIP3   OH277059   1.850   1.866  12.288
18523TIP3    H177060   1.847   1.927  12.214
18523TIP3    H277061   1.943   1.842  12.296
18524TIP3   OH277062   6.374   1.018  14.945
18524TIP3    H177063   6.461   1.028  14.985
18524TIP3    H277064   6.385   0.949  14.880
18525TIP3   OH277065   0.547   4.654  15.340
18525TIP3    H177066   0.630   4.694  15.365
18525TIP3    H277067   0.481   4.722  15.358
18526TIP3   OH277068   3.751   4.067  11.777
18526TIP3    H177069   3.788   3.991  11.732
18526TIP3    H277070   3.826   4.114  11.813
18527TIP3   OH277071   5.749   4.888  14.413
18527TIP3    H177072   5.771   4.842  14.332
18527TIP3    H277073   5.813   4.958  14.420
18528TIP3   OH277074   3.104   6.243   4.055
18528TIP3    H177075   3.036   6.193   4.099
18528TIP3    H277076   3.185   6.218   4.099
18529TIP3   OH277077   0.744   0.627   5.697
18529TIP3    H177078   0.830   0.660   5.722
18529TIP3    H277079   0.762   0.550   5.643
18530TIP3   OH277080   4.921   1.295  11.769
18530TIP3    H177081   4.860   1.356  11.726
18530TIP3    H277082   4.864   1.233  11.815
18531TIP3   OH277083   0.520   6.620   5.142
18531TIP3    H177084   0.494   6.695   5.089
18531TIP3    H277085   0.445   6.561   5.139
18532TIP3   OH277086   5.801   4.377   2.184
18532TIP3    H177087   5.759   4.306   2.137
18532TIP3    H277088   5.890   4.380   2.149
18533TIP3   OH277089   3.947   0.804  15.877
18533TIP3    H177090   3.919   0.816  15.787
18533TIP3    H277091   3.972   0.891  15.907
18534TIP3   OH277092   1.125   4.143  16.479
18534TIP3    H177093   1.156   4.231  16.461
18534TIP3    H277094   1.198   4.102  16.527
18535TIP3   OH277095   2.303   6.495   1.536
18535TIP3    H177096   2.330   6.436   1.606
18535TIP3    H277097   2.213   6.470   1.516
18536TIP3   OH277098   3.547   3.901   2.681
18536TIP3    H177099   3.625   3.922   2.629
18536TIP3    H277100   3.474   3.932   2.627
18537TIP3   OH277101   3.087   2.751  12.176
18537TIP3    H177102   3.158   2.801  12.216
18537TIP3    H277103   3.026   2.817  12.143
18538TIP3   OH277104   3.739   0.630  14.841
18538TIP3    H177105   3.748   0.707  14.784
18538TIP3    H277106   3.786   0.654  14.921
18539TIP3   OH277107   4.109   5.973   3.394
18539TIP3    H177108   4.090   6.009   3.481
18539TIP3    H277109   4.162   6.041   3.352
18540TIP3   OH277110   3.309   2.450   3.147
18540TIP3    H177111   3.257   2.388   3.198
18540TIP3    H277112   3.305   2.416   3.057
18541TIP3   OH277113   0.549   4.027   1.871
18541TIP3    H177114   0.509   3.950   1.831
18541TIP3    H277115   0.642   4.019   1.851
18542TIP3   OH277116   5.243   1.525   5.498
18542TIP3    H177117   5.259   1.487   5.585
18542TIP3    H277118   5.316   1.495   5.445
18543TIP3   OH277119   0.046   4.854   5.099
18543TIP3    H177120  -0.045   4.873   5.124
18543TIP3    H277121   0.060   4.765   5.131
18544TIP3   OH277122   6.158   3.608  16.086
18544TIP3    H177123   6.142   3.537  16.148
18544TIP3    H277124   6.116   3.579  16.005
18545TIP3   OH277125   5.494   3.085   1.166
18545TIP3    H177126   5.427   3.106   1.101
18545TIP3    H277127   5.453   3.021   1.223
18546TIP3   OH277128   1.130   2.313  13.528
18546TIP3    H177129   1.131   2.353  13.441
18546TIP3    H277130   1.036   2.300  13.547
18547TIP3   OH277131   6.092   3.089   1.535
18547TIP3    H177132   6.051   3.154   1.592
18547TIP3    H277133   6.172   3.131   1.505
18548TIP3   OH277134   4.674   2.241  16.334
18548TIP3    H177135   4.622   2.174  16.289
18548TIP3    H277136   4.743   2.192  16.378
18549TIP3   OH277137   4.319   0.308  12.143
18549TIP3    H177138   4.249   0.255  12.183
18549TIP3    H277139   4.276   0.389  12.117
18550TIP3   OH277140   5.071   2.042  14.657
18550TIP3    H177141   5.165   2.055  14.653
18550TIP3    H277142   5.057   1.954  14.622
18551TIP3   OH277143   0.040   5.730   5.446
18551TIP3    H177144   0.088   5.685   5.377
18551TIP3    H277145  -0.050   5.732   5.415
18552TIP3   OH277146   2.281   2.621  10.900
18552TIP3    H177147   2.257   2.657  10.815
18552TIP3    H277148   2.269   2.527  10.890
18553TIP3   OH277149   4.846   3.863  15.974
18553TIP3    H177150   4.819   3.877  15.884
18553TIP3    H277151   4.921   3.922  15.986
18554TIP3   OH277152   2.584   3.108   0.205
18554TIP3    H177153   2.489   3.115   0.214
18554TIP3    H277154   2.618   3.149   0.285
18555TIP3   OH277155   1.202   0.439  16.870
18555TIP3    H177156   1.296   0.426  16.876
18555TIP3    H277157   1.178   0.484  16.950
18556TIP3   OH277158   0.871   4.016   0.291
18556TIP3    H177159   0.800   4.057   0.342
18556TIP3    H277160   0.866   3.924   0.315
18557TIP3   OH277161   3.228   4.132  11.758
18557TIP3    H177162   3.295   4.145  11.825
18557TIP3    H277163   3.257   4.054  11.710
18558TIP3   OH277164   5.159   1.598  13.886
18558TIP3    H177165   5.231   1.637  13.936
18558TIP3    H277166   5.201   1.529  13.834
18559TIP3   OH277167   3.662   6.209   3.445
18559TIP3    H177168   3.704   6.141   3.498
18559TIP3    H277169   3.617   6.264   3.509
18560TIP3   OH277170   4.973   2.215  16.040
18560TIP3    H177171   5.052   2.244  15.994
18560TIP3    H277172   4.918   2.178  15.971
18561TIP3   OH277173   5.714   1.173   1.761
18561TIP3    H177174   5.791   1.181   1.819
18561TIP3    H277175   5.659   1.248   1.785
18562TIP3   OH277176   6.693   4.395   0.560
18562TIP3    H177177   6.651   4.417   0.643
18562TIP3    H277178   6.725   4.306   0.573
18563TIP3   OH277179   5.706   2.578   0.927
18563TIP3    H177180   5.647   2.521   0.879
18563TIP3    H277181   5.649   2.644   0.967
18564TIP3   OH277182   4.961   4.214   4.105
18564TIP3    H177183   4.901   4.141   4.093
18564TIP3    H277184   4.969   4.252   4.017
18565TIP3   OH277185   3.470   2.545   4.102
18565TIP3    H177186   3.516   2.576   4.024
18565TIP3    H277187   3.443   2.625   4.148
18566TIP3   OH277188   3.607   4.378  15.408
18566TIP3    H177189   3.549   4.371  15.332
18566TIP3    H277190   3.572   4.314  15.470
18567TIP3   OH277191   0.722   3.064   3.056
18567TIP3    H177192   0.689   3.064   2.966
18567TIP3    H277193   0.745   2.972   3.072
18568TIP3   OH277194   3.334   1.759   0.279
18568TIP3    H177195   3.264   1.809   0.237
18568TIP3    H277196   3.299   1.736   0.365
18569TIP3   OH277197   3.829   2.871  17.214
18569TIP3    H177198   3.910   2.820  17.213
18569TIP3    H277199   3.815   2.893  17.307
18570TIP3   OH277200   6.527   5.297  11.315
18570TIP3    H177201   6.481   5.373  11.349
18570TIP3    H277202   6.482   5.277  11.233
18571TIP3   OH277203   4.858   5.350   1.146
18571TIP3    H177204   4.783   5.341   1.088
18571TIP3    H277205   4.914   5.416   1.104
18572TIP3   OH277206   2.990   1.495   2.875
18572TIP3    H177207   3.014   1.581   2.841
18572TIP3    H277208   2.937   1.513   2.953
18573TIP3   OH277209   4.821   2.018   2.269
18573TIP3    H177210   4.881   2.055   2.204
18573TIP3    H277211   4.734   2.049   2.242
18574TIP3   OH277212   2.841   4.853  15.084
18574TIP3    H177213   2.756   4.820  15.113
18574TIP3    H277214   2.868   4.913  15.153
18575TIP3   OH277215   1.468   5.532   1.268
18575TIP3    H177216   1.466   5.457   1.208
18575TIP3    H277217   1.387   5.580   1.250
18576TIP3   OH277218   6.755   5.381   1.506
18576TIP3    H177219   6.694   5.437   1.553
18576TIP3    H277220   6.709   5.356   1.426
18577TIP3   OH277221   4.045   3.740  10.760
18577TIP3    H177222   3.980   3.804  10.730
18577TIP3    H277223   4.063   3.686  10.683
18578TIP3   OH277224   4.707   1.995  16.004
18578TIP3    H177225   4.793   2.029  16.029
18578TIP3    H277226   4.698   1.913  16.053
18579TIP3   OH277227   1.376   5.663   5.357
18579TIP3    H177228   1.362   5.753   5.327
18579TIP3    H277229   1.426   5.671   5.438
18580TIP3   OH277230   6.453   5.458   2.350
18580TIP3    H177231   6.365   5.421   2.361
18580TIP3    H277232   6.485   5.467   2.440
18581TIP3   OH277233   2.892   4.583  11.958
18581TIP3    H177234   2.988   4.582  11.958
18581TIP3    H277235   2.868   4.577  11.866
18582TIP3   OH277236   6.362   6.593  15.623
18582TIP3    H177237   6.413   6.603  15.542
18582TIP3    H277238   6.365   6.680  15.663
18583TIP3   OH277239   6.165   6.459  12.711
18583TIP3    H177240   6.092   6.403  12.738
18583TIP3    H277241   6.124   6.542  12.688
18584TIP3   OH277242   1.901   1.887  16.345
18584TIP3    H177243   1.860   1.804  16.370
18584TIP3    H277244   1.837   1.927  16.286
18585TIP3   OH277245   2.643   0.944  16.032
18585TIP3    H177246   2.673   0.857  16.005
18585TIP3    H277247   2.609   0.984  15.951
18586TIP3   OH277248   3.923   5.445  16.413
18586TIP3    H177249   3.993   5.464  16.477
18586TIP3    H277250   3.943   5.357  16.382
18587TIP3   OH277251   1.351   0.744  15.061
18587TIP3    H177252   1.294   0.749  14.984
18587TIP3    H277253   1.396   0.660  15.051
18588TIP3   OH277254   3.442   0.252   4.990
18588TIP3    H177255   3.379   0.281   5.055
18588TIP3    H277256   3.401   0.175   4.950
18589TIP3   OH277257   4.668   5.987   3.471
18589TIP3    H177258   4.594   6.047   3.467
18589TIP3    H277259   4.630   5.900   3.460
18590TIP3   OH277260   4.974   3.492   5.371
18590TIP3    H177261   4.981   3.410   5.420
18590TIP3    H277262   4.944   3.465   5.284
18591TIP3   OH277263   2.977   5.162   5.340
18591TIP3    H177264   3.062   5.200   5.362
18591TIP3    H277265   2.966   5.179   5.247
18592TIP3   OH277266   1.668   1.582   6.141
18592TIP3    H177267   1.763   1.594   6.138
18592TIP3    H277268   1.656   1.489   6.164
18593TIP3   OH277269   5.572   0.720  16.246
18593TIP3    H177270   5.531   0.708  16.160
18593TIP3    H277271   5.651   0.666  16.242
18594TIP3   OH277272   4.197   3.175   2.283
18594TIP3    H177273   4.219   3.260   2.245
18594TIP3    H277274   4.109   3.188   2.320
18595TIP3   OH277275   4.607   1.975  11.365
18595TIP3    H177276   4.632   1.931  11.447
18595TIP3    H277277   4.541   1.917  11.326
18596TIP3   OH277278   0.460   3.674   4.651
18596TIP3    H177279   0.551   3.644   4.645
18596TIP3    H277280   0.461   3.740   4.720
18597TIP3   OH277281   0.954   2.401   5.505
18597TIP3    H177282   1.006   2.327   5.475
18597TIP3    H277283   0.978   2.412   5.597
18598TIP3   OH277284   5.463   2.645  15.285
18598TIP3    H177285   5.424   2.721  15.241
18598TIP3    H277286   5.391   2.583  15.295
18599TIP3   OH277287   0.235   6.695   5.675
18599TIP3    H177288   0.146   6.726   5.692
18599TIP3    H277289   0.291   6.764   5.712
18600TIP3   OH277290   1.539   3.050  12.791
18600TIP3    H177291   1.607   3.042  12.857
18600TIP3    H277292   1.493   2.966  12.792
18601TIP3   OH277293   6.434   4.620  16.155
18601TIP3    H177294   6.463   4.613  16.246
18601TIP3    H277295   6.384   4.539  16.139
18602TIP3   OH277296   6.785   3.047  13.236
18602TIP3    H177297   6.791   2.993  13.157
18602TIP3    H277298   6.777   3.137  13.202
18603TIP3   OH277299   4.517   0.819  16.729
18603TIP3    H177300   4.578   0.890  16.752
18603TIP3    H277301   4.494   0.779  16.812
18604TIP3   OH277302   5.641   1.319   3.089
18604TIP3    H177303   5.648   1.414   3.075
18604TIP3    H277304   5.646   1.309   3.184
18605TIP3   OH277305   6.635   1.075  15.026
18605TIP3    H177306   6.711   1.099  14.974
18605TIP3    H277307   6.668   1.065  15.115
18606TIP3   OH277308   3.530   0.885  11.392
18606TIP3    H177309   3.570   0.971  11.404
18606TIP3    H277310   3.492   0.888  11.304
18607TIP3   OH277311   3.035   1.370  14.286
18607TIP3    H177312   2.991   1.301  14.237
18607TIP3    H277313   3.064   1.329  14.367
18608TIP3   OH277314   2.285   4.867  10.863
18608TIP3    H177315   2.195   4.863  10.896
18608TIP3    H277316   2.278   4.916  10.781
18609TIP3   OH277317   5.329   6.299   5.677
18609TIP3    H177318   5.419   6.288   5.709
18609TIP3    H277319   5.340   6.319   5.584
18610TIP3   OH277320   4.501   1.403  16.830
18610TIP3    H177321   4.550   1.400  16.912
18610TIP3    H277322   4.474   1.494  16.821
18611TIP3   OH277323   6.148   0.397  14.199
18611TIP3    H177324   6.195   0.316  14.182
18611TIP3    H277325   6.065   0.368  14.238
18612TIP3   OH277326   0.224   2.082  14.316
18612TIP3    H177327   0.170   2.128  14.379
18612TIP3    H277328   0.310   2.074  14.358
18613TIP3   OH277329   3.025   4.865   5.240
18613TIP3    H177330   3.004   4.773   5.223
18613TIP3    H277331   2.941   4.905   5.262
18614TIP3   OH277332   5.863   4.053   4.382
18614TIP3    H177333   5.803   4.125   4.401
18614TIP3    H277334   5.806   3.980   4.357
18615TIP3   OH277335   2.772   4.744   3.198
18615TIP3    H177336   2.843   4.798   3.164
18615TIP3    H277337   2.767   4.767   3.291
18616TIP3   OH277338   3.509   2.096  12.893
18616TIP3    H177339   3.507   2.001  12.881
18616TIP3    H277340   3.598   2.115  12.920
18617TIP3   OH277341   1.521   4.276  10.700
18617TIP3    H177342   1.450   4.226  10.661
18617TIP3    H277343   1.594   4.214  10.707
18618TIP3   OH277344   1.679   2.591  17.112
18618TIP3    H177345   1.653   2.637  17.192
18618TIP3    H277346   1.735   2.653  17.065
18619TIP3   OH277347   0.346   2.389   2.149
18619TIP3    H177348   0.351   2.295   2.164
18619TIP3    H277349   0.393   2.428   2.222
18620TIP3   OH277350   0.284   6.514  12.108
18620TIP3    H177351   0.249   6.494  12.021
18620TIP3    H277352   0.354   6.577  12.092
18621TIP3   OH277353   1.344   3.925  15.640
18621TIP3    H177354   1.433   3.892  15.652
18621TIP3    H277355   1.351   4.020  15.645
18622TIP3   OH277356   1.637   2.103  16.756
18622TIP3    H177357   1.683   2.088  16.674
18622TIP3    H277358   1.704   2.098  16.823
18623TIP3   OH277359   2.324   3.496  15.222
18623TIP3    H177360   2.349   3.519  15.311
18623TIP3    H277361   2.252   3.434  15.233
18624TIP3   OH277362   0.182   3.599  13.000
18624TIP3    H177363   0.127   3.536  12.954
18624TIP3    H277364   0.196   3.670  12.937
18625TIP3   OH277365   4.110   2.855   5.624
18625TIP3    H177366   4.198   2.838   5.657
18625TIP3    H277367   4.106   2.808   5.541
18626TIP3   OH277368   2.223   4.947   5.937
18626TIP3    H177369   2.174   4.895   6.001
18626TIP3    H277370   2.308   4.961   5.978
18627TIP3   OH277371   0.871   1.637  14.190
18627TIP3    H177372   0.906   1.573  14.127
18627TIP3    H277373   0.814   1.694  14.139
18628TIP3   OH277374   4.277   1.087   6.342
18628TIP3    H177375   4.255   0.994   6.333
18628TIP3    H277376   4.203   1.132   6.302
18629TIP3   OH277377   5.158   2.293   4.758
18629TIP3    H177378   5.155   2.357   4.686
18629TIP3    H277379   5.086   2.232   4.739
18630TIP3   OH277380   0.012   5.245  16.181
18630TIP3    H177381  -0.022   5.333  16.202
18630TIP3    H277382  -0.020   5.228  16.093
18631TIP3   OH277383   0.030   4.410   2.282
18631TIP3    H177384  -0.063   4.434   2.285
18631TIP3    H277385   0.030   4.319   2.254
18632TIP3   OH277386   3.198   4.977  17.033
18632TIP3    H177387   3.199   5.005  16.942
18632TIP3    H277388   3.162   4.888  17.030
18633TIP3   OH277389   5.321   6.324   3.954
18633TIP3    H177390   5.391   6.311   3.890
18633TIP3    H277391   5.292   6.235   3.975
18634TIP3   OH277392   5.076   0.486  13.001
18634TIP3    H177393   5.141   0.510  13.067
18634TIP3    H277394   5.091   0.548  12.929
18635TIP3   OH277395   4.919   1.157  14.669
18635TIP3    H177396   4.873   1.221  14.616
18635TIP3    H277397   4.894   1.072  14.633
18636TIP3   OH277398   4.148   3.431   2.009
18636TIP3    H177399   4.220   3.370   2.027
18636TIP3    H277400   4.168   3.467   1.922
18637TIP3   OH277401   4.708   0.019   6.141
18637TIP3    H177402   4.694   0.099   6.091
18637TIP3    H277403   4.803   0.009   6.145
18638TIP3   OH277404   3.113   5.791   0.610
18638TIP3    H177405   3.122   5.729   0.538
18638TIP3    H277406   3.029   5.835   0.594
18639TIP3   OH277407   4.335   4.832  11.188
18639TIP3    H177408   4.279   4.906  11.163
18639TIP3    H277409   4.369   4.799  11.105
18640TIP3   OH277410   6.045   3.050  15.961
18640TIP3    H177411   5.952   3.029  15.955
18640TIP3    H277412   6.057   3.122  15.899
18641TIP3   OH277413   1.742   5.982   4.040
18641TIP3    H177414   1.706   6.070   4.047
18641TIP3    H277415   1.833   5.991   4.069
18642TIP3   OH277416   5.646   3.208  15.294
18642TIP3    H177417   5.706   3.210  15.369
18642TIP3    H277418   5.703   3.218  15.218
18643TIP3   OH277419   4.001   6.543   0.883
18643TIP3    H177420   3.932   6.582   0.937
18643TIP3    H277421   4.070   6.521   0.945
18644TIP3   OH277422   1.907   2.066   2.773
18644TIP3    H177423   1.898   2.161   2.776
18644TIP3    H277424   1.988   2.048   2.820
18645TIP3   OH277425   5.061   0.597  12.310
18645TIP3    H177426   5.022   0.642  12.234
18645TIP3    H277427   5.107   0.522  12.272
18646TIP3   OH277428   4.615   6.636   5.969
18646TIP3    H177429   4.529   6.669   5.944
18646TIP3    H277430   4.638   6.685   6.047
18647TIP3   OH277431   5.147   6.765  12.490
18647TIP3    H177432   5.098   6.843  12.516
18647TIP3    H277433   5.216   6.798  12.434
18648TIP3   OH277434   6.569   6.557   2.613
18648TIP3    H177435   6.590   6.580   2.703
18648TIP3    H277436   6.527   6.471   2.619
18649TIP3   OH277437   1.634   0.108   1.341
18649TIP3    H177438   1.650   0.202   1.332
18649TIP3    H277439   1.666   0.070   1.259
18650TIP3   OH277440   1.111   5.979   2.340
18650TIP3    H177441   1.016   5.988   2.331
18650TIP3    H277442   1.147   6.023   2.263
18651TIP3   OH277443   0.343   0.044  12.322
18651TIP3    H177444   0.405  -0.021  12.292
18651TIP3    H277445   0.389   0.090  12.393
18652TIP3   OH277446   4.238   0.904   4.801
18652TIP3    H177447   4.148   0.928   4.824
18652TIP3    H277448   4.279   0.882   4.884
18653TIP3   OH277449   2.055   0.095   5.527
18653TIP3    H177450   2.015   0.095   5.440
18653TIP3    H277451   2.109   0.016   5.528
18654TIP3   OH277452   0.605   0.930   3.233
18654TIP3    H177453   0.615   0.882   3.315
18654TIP3    H277454   0.629   0.867   3.165
18655TIP3   OH277455   5.436   3.517   5.382
18655TIP3    H177456   5.367   3.564   5.334
18655TIP3    H277457   5.398   3.499   5.468
18656TIP3   OH277458   6.022   5.733   5.255
18656TIP3    H177459   6.076   5.778   5.190
18656TIP3    H277460   5.995   5.653   5.211
18657TIP3   OH277461   5.733   1.034   2.174
18657TIP3    H177462   5.817   0.991   2.193
18657TIP3    H277463   5.719   1.092   2.249
18658TIP3   OH277464   3.589   3.815   3.248
18658TIP3    H177465   3.632   3.896   3.275
18658TIP3    H277466   3.502   3.844   3.218
18659TIP3   OH277467   2.798   0.048   5.851
18659TIP3    H177468   2.890   0.055   5.875
18659TIP3    H277469   2.754   0.018   5.931
18660TIP3   OH277470   6.198   6.309  14.096
18660TIP3    H177471   6.120   6.364  14.094
18660TIP3    H277472   6.221   6.303  14.189
18661TIP3   OH277473   4.659   4.220   0.783
18661TIP3    H177474   4.725   4.192   0.719
18661TIP3    H277475   4.576   4.185   0.749
18662TIP3   OH277476   2.349   4.613  11.637
18662TIP3    H177477   2.431   4.586  11.676
18662TIP3    H277478   2.294   4.639  11.711
18663TIP3   OH277479   5.641   5.390   1.988
18663TIP3    H177480   5.715   5.370   2.046
18663TIP3    H277481   5.627   5.310   1.938
18664TIP3   OH277482   3.244   6.125  11.241
18664TIP3    H177483   3.175   6.183  11.209
18664TIP3    H277484   3.236   6.128  11.336
18665TIP3   OH277485   0.966   5.843   3.468
18665TIP3    H177486   0.898   5.788   3.507
18665TIP3    H277487   0.935   5.932   3.483
18666TIP3   OH277488   4.206   4.782  14.942
18666TIP3    H177489   4.218   4.774  14.847
18666TIP3    H277490   4.229   4.873  14.962
18667TIP3   OH277491   2.612   1.532   2.938
18667TIP3    H177492   2.650   1.551   2.852
18667TIP3    H277493   2.677   1.477   2.982
18668TIP3   OH277494   5.186   4.939  13.021
18668TIP3    H177495   5.229   5.017  13.056
18668TIP3    H277496   5.098   4.941  13.058
18669TIP3   OH277497   3.576   4.600   2.165
18669TIP3    H177498   3.602   4.625   2.076
18669TIP3    H277499   3.485   4.628   2.173
18670TIP3   OH277500   6.233   3.195  11.551
18670TIP3    H177501   6.235   3.193  11.646
18670TIP3    H277502   6.273   3.280  11.528
18671TIP3   OH277503   1.190   4.756   3.139
18671TIP3    H177504   1.145   4.794   3.064
18671TIP3    H277505   1.211   4.831   3.194
18672TIP3   OH277506   3.435   0.857   0.237
18672TIP3    H177507   3.360   0.898   0.278
18672TIP3    H277508   3.468   0.922   0.174
18673TIP3   OH277509   3.480   3.661  13.457
18673TIP3    H177510   3.456   3.636  13.547
18673TIP3    H277511   3.543   3.594  13.430
18674TIP3   OH277512   2.561   1.779   2.552
18674TIP3    H177513   2.542   1.870   2.572
18674TIP3    H277514   2.557   1.774   2.456
18675TIP3   OH277515   3.899   5.969   1.650
18675TIP3    H177516   3.912   5.935   1.561
18675TIP3    H277517   3.967   6.036   1.660
18676TIP3   OH277518   5.051   0.504  15.512
18676TIP3    H177519   4.976   0.520  15.569
18676TIP3    H277520   5.060   0.584  15.461
18677TIP3   OH277521   1.118   4.465   5.056
18677TIP3    H177522   1.084   4.552   5.078
18677TIP3    H277523   1.207   4.481   5.026
18678TIP3   OH277524   4.654   3.831   0.764
18678TIP3    H177525   4.644   3.742   0.797
18678TIP3    H277526   4.585   3.840   0.699
18679TIP3   OH277527   2.904   3.836   1.643
18679TIP3    H177528   2.977   3.785   1.607
18679TIP3    H277529   2.871   3.886   1.569
18680TIP3   OH277530   4.416   3.611   5.247
18680TIP3    H177531   4.487   3.548   5.235
18680TIP3    H277532   4.460   3.694   5.264
18681TIP3   OH277533   5.206   2.958   6.779
18681TIP3    H177534   5.229   2.983   6.869
18681TIP3    H277535   5.252   3.021   6.724
18682TIP3   OH277536   6.007   2.192   5.363
18682TIP3    H177537   5.924   2.211   5.405
18682TIP3    H277538   5.988   2.117   5.306
18683TIP3   OH277539   5.481   6.182   0.801
18683TIP3    H177540   5.507   6.136   0.721
18683TIP3    H277541   5.415   6.125   0.841
18684TIP3   OH277542   2.762   4.430  14.886
18684TIP3    H177543   2.699   4.405  14.954
18684TIP3    H277544   2.709   4.460  14.813
18685TIP3   OH277545   3.294   0.411  12.352
18685TIP3    H177546   3.247   0.335  12.387
18685TIP3    H277547   3.383   0.403  12.386
18686TIP3   OH277548   3.778   0.531   0.664
18686TIP3    H177549   3.765   0.446   0.707
18686TIP3    H277550   3.701   0.543   0.610
18687TIP3   OH277551   2.080   4.510   2.341
18687TIP3    H177552   2.078   4.414   2.337
18687TIP3    H277553   2.162   4.530   2.385
18688TIP3   OH277554   2.747   0.263  14.322
18688TIP3    H177555   2.659   0.277  14.286
18688TIP3    H277556   2.735   0.196  14.389
18689TIP3   OH277557   5.291   4.080  13.819
18689TIP3    H177558   5.326   3.993  13.798
18689TIP3    H277559   5.318   4.095  13.910
18690TIP3   OH277560   6.395   0.289   0.993
18690TIP3    H177561   6.324   0.239   0.952
18690TIP3    H277562   6.363   0.379   0.994
18691TIP3   OH277563   6.133   5.052  16.333
18691TIP3    H177564   6.087   5.129  16.368
18691TIP3    H277565   6.182   5.086  16.258
18692TIP3   OH277566   4.386   1.862   4.111
18692TIP3    H177567   4.388   1.903   4.025
18692TIP3    H277568   4.420   1.774   4.097
18693TIP3   OH277569   3.506   5.274   2.963
18693TIP3    H177570   3.415   5.295   2.941
18693TIP3    H277571   3.516   5.300   3.054
18694TIP3   OH277572   6.283   2.266   5.298
18694TIP3    H177573   6.281   2.332   5.367
18694TIP3    H277574   6.199   2.221   5.306
18695TIP3   OH277575   4.591   0.431   0.583
18695TIP3    H177576   4.615   0.468   0.668
18695TIP3    H277577   4.673   0.400   0.545
18696TIP3   OH277578   3.690   4.087   0.202
18696TIP3    H177579   3.685   4.004   0.249
18696TIP3    H277580   3.721   4.150   0.268
18697TIP3   OH277581   4.823   6.424  11.624
18697TIP3    H177582   4.778   6.430  11.539
18697TIP3    H277583   4.890   6.492  11.620
18698TIP3   OH277584   6.385   1.373  12.446
18698TIP3    H177585   6.363   1.281  12.431
18698TIP3    H277586   6.310   1.422  12.413
18699TIP3   OH277587   5.302   5.233  14.418
18699TIP3    H177588   5.323   5.226  14.325
18699TIP3    H277589   5.208   5.219  14.423
18700TIP3   OH277590   5.916   5.565  13.416
18700TIP3    H177591   5.935   5.562  13.322
18700TIP3    H277592   5.952   5.649  13.445
18701TIP3   OH277593   4.802   3.122  13.548
18701TIP3    H177594   4.754   3.144  13.468
18701TIP3    H277595   4.892   3.150  13.530
18702TIP3   OH277596   6.653   3.666   6.339
18702TIP3    H177597   6.623   3.670   6.430
18702TIP3    H277598   6.733   3.613   6.343
18703TIP3   OH277599   5.001   3.408   1.735
18703TIP3    H177600   5.053   3.470   1.684
18703TIP3    H277601   4.928   3.461   1.769
18704TIP3   OH277602   0.499   6.587   1.202
18704TIP3    H177603   0.499   6.645   1.279
18704TIP3    H277604   0.589   6.555   1.197
18705TIP3   OH277605   4.540   2.923  15.614
18705TIP3    H177606   4.630   2.918  15.584
18705TIP3    H277607   4.541   2.992  15.681
18706TIP3   OH277608   0.909   5.484  15.476
18706TIP3    H177609   0.911   5.514  15.567
18706TIP3    H277610   0.986   5.525  15.436
18707TIP3   OH277611   0.833   5.864   5.548
18707TIP3    H177612   0.775   5.939   5.562
18707TIP3    H277613   0.787   5.810   5.483
18708TIP3   OH277614   2.880   2.315  16.084
18708TIP3    H177615   2.917   2.336  16.170
18708TIP3    H277616   2.828   2.393  16.061
18709TIP3   OH277617   3.053   2.672  14.375
18709TIP3    H177618   2.971   2.684  14.421
18709TIP3    H277619   3.028   2.631  14.292
18710TIP3   OH277620   5.375   3.275   4.675
18710TIP3    H177621   5.437   3.237   4.613
18710TIP3    H277622   5.427   3.337   4.726
18711TIP3   OH277623   1.477   0.321   2.576
18711TIP3    H177624   1.392   0.315   2.533
18711TIP3    H277625   1.479   0.410   2.613
18712TIP3   OH277626   3.042   0.791  11.638
18712TIP3    H177627   3.108   0.721  11.642
18712TIP3    H277628   3.093   0.872  11.634
18713TIP3   OH277629   4.646   2.179   1.767
18713TIP3    H177630   4.613   2.095   1.735
18713TIP3    H277631   4.740   2.176   1.749
18714TIP3   OH277632   2.530   3.309  15.138
18714TIP3    H177633   2.488   3.323  15.054
18714TIP3    H277634   2.485   3.368  15.198
18715TIP3   OH277635   1.605   2.308  15.088
18715TIP3    H177636   1.575   2.221  15.114
18715TIP3    H277637   1.621   2.353  15.171
18716TIP3   OH277638   0.509   3.563  15.063
18716TIP3    H177639   0.497   3.553  14.968
18716TIP3    H277640   0.556   3.485  15.090
18717TIP3   OH277641   0.263   4.038  12.962
18717TIP3    H177642   0.358   4.038  12.949
18717TIP3    H277643   0.252   4.060  13.054
18718TIP3   OH277644   2.970   5.195   1.776
18718TIP3    H177645   2.978   5.261   1.708
18718TIP3    H277646   2.935   5.118   1.730
18719TIP3   OH277647   4.552   0.860  14.279
18719TIP3    H177648   4.462   0.829  14.275
18719TIP3    H277649   4.598   0.792  14.329
18720TIP3   OH277650   1.062   1.869  11.915
18720TIP3    H177651   1.062   1.858  11.820
18720TIP3    H277652   1.070   1.963  11.928
18721TIP3   OH277653   0.138   3.833   4.970
18721TIP3    H177654   0.096   3.752   4.939
18721TIP3    H277655   0.203   3.804   5.034
18722TIP3   OH277656   4.937   5.050  15.707
18722TIP3    H177657   4.955   4.976  15.764
18722TIP3    H277658   5.018   5.101  15.708
18723TIP3   OH277659   2.233   3.955   4.461
18723TIP3    H177660   2.178   3.984   4.534
18723TIP3    H277661   2.184   3.980   4.383
18724TIP3   OH277662   2.009   4.907  13.703
18724TIP3    H177663   1.985   4.949  13.620
18724TIP3    H277664   2.102   4.885  13.692
18725TIP3   OH277665   0.817   3.281   2.557
18725TIP3    H177666   0.728   3.318   2.554
18725TIP3    H277667   0.867   3.335   2.497
18726TIP3   OH277668   3.623   6.589  13.581
18726TIP3    H177669   3.543   6.571  13.531
18726TIP3    H277670   3.592   6.626  13.663
18727TIP3   OH277671   3.116   5.104   4.557
18727TIP3    H177672   3.153   5.160   4.625
18727TIP3    H277673   3.163   5.128   4.477
18728TIP3   OH277674   4.910   5.052  12.236
18728TIP3    H177675   4.946   5.051  12.147
18728TIP3    H277676   4.978   5.010  12.290
18729TIP3   OH277677   1.318   0.540   2.657
18729TIP3    H177678   1.350   0.629   2.673
18729TIP3    H277679   1.307   0.536   2.562
18730TIP3   OH277680   5.168   1.815   1.004
18730TIP3    H177681   5.148   1.728   0.969
18730TIP3    H277682   5.104   1.873   0.962
18731TIP3   OH277683   4.886   4.689  13.072
18731TIP3    H177684   4.894   4.784  13.079
18731TIP3    H277685   4.817   4.666  13.134
18732TIP3   OH277686   5.553   1.431  14.107
18732TIP3    H177687   5.612   1.357  14.090
18732TIP3    H277688   5.610   1.501  14.138
18733TIP3   OH277689   5.395   0.841  13.169
18733TIP3    H177690   5.469   0.844  13.229
18733TIP3    H277691   5.379   0.932  13.145
18734TIP3   OH277692   0.540   4.616  11.486
18734TIP3    H177693   0.633   4.620  11.508
18734TIP3    H277694   0.495   4.624  11.570
18735TIP3   OH277695   0.075   5.695  13.724
18735TIP3    H177696   0.071   5.605  13.757
18735TIP3    H277697  -0.016   5.718  13.708
18736TIP3   OH277698   0.576   2.049   4.446
18736TIP3    H177699   0.609   2.088   4.364
18736TIP3    H277700   0.638   1.979   4.465
18737TIP3   OH277701   6.704   3.514   4.923
18737TIP3    H177702   6.639   3.505   4.993
18737TIP3    H277703   6.764   3.440   4.936
18738TIP3   OH277704   0.392   6.693  15.682
18738TIP3    H177705   0.412   6.654  15.767
18738TIP3    H277706   0.313   6.745  15.696
18739TIP3   OH277707   1.160   5.882  15.316
18739TIP3    H177708   1.143   5.789  15.332
18739TIP3    H277709   1.115   5.928  15.387
18740TIP3   OH277710   6.191   2.823  16.767
18740TIP3    H177711   6.264   2.769  16.798
18740TIP3    H277712   6.217   2.849  16.678
18741TIP3   OH277713   0.873   6.496   5.058
18741TIP3    H177714   0.782   6.469   5.074
18741TIP3    H277715   0.903   6.532   5.141
18742TIP3   OH277716   6.174   0.388   1.460
18742TIP3    H177717   6.112   0.316   1.466
18742TIP3    H277718   6.175   0.411   1.367
18743TIP3   OH277719   6.803   5.538  16.297
18743TIP3    H177720   6.893   5.564  16.276
18743TIP3    H277721   6.810   5.499  16.384
18744TIP3   OH277722   5.002   0.858  15.229
18744TIP3    H177723   5.061   0.846  15.155
18744TIP3    H277724   4.924   0.898  15.191
18745TIP3   OH277725   1.853   3.434  11.602
18745TIP3    H177726   1.888   3.376  11.535
18745TIP3    H277727   1.835   3.377  11.677
18746TIP3   OH277728   0.572   4.338  14.401
18746TIP3    H177729   0.656   4.319  14.442
18746TIP3    H277730   0.507   4.321  14.469
18747TIP3   OH277731   3.662   4.850  12.447
18747TIP3    H177732   3.728   4.919  12.461
18747TIP3    H277733   3.706   4.787  12.390
18748TIP3   OH277734   0.794   6.060   4.597
18748TIP3    H177735   0.790   5.966   4.578
18748TIP3    H277736   0.855   6.095   4.531
18749TIP3   OH277737   5.789   5.936  13.409
18749TIP3    H177738   5.794   5.884  13.330
18749TIP3    H277739   5.702   5.917  13.445
18750TIP3   OH277740   4.028   5.445   5.242
18750TIP3    H177741   4.102   5.463   5.299
18750TIP3    H277742   4.058   5.376   5.183
18751TIP3   OH277743   0.147   1.476  12.492
18751TIP3    H177744   0.083   1.445  12.428
18751TIP3    H277745   0.231   1.450  12.456
18752TIP3   OH277746   5.364   2.859   1.267
18752TIP3    H177747   5.286   2.806   1.281
18752TIP3    H277748   5.387   2.892   1.354
18753TIP3   OH277749   5.887   1.386   0.778
18753TIP3    H177750   5.810   1.442   0.787
18753TIP3    H277751   5.855   1.297   0.792
18754TIP3   OH277752   3.471   0.449  11.780
18754TIP3    H177753   3.472   0.494  11.696
18754TIP3    H277754   3.492   0.517  11.844
18755TIP3   OH277755   0.118   5.119   5.037
18755TIP3    H177756   0.212   5.123   5.022
18755TIP3    H277757   0.099   5.025   5.045
18756TIP3   OH277758   3.249   0.485   3.801
18756TIP3    H177759   3.284   0.413   3.748
18756TIP3    H277760   3.227   0.552   3.737
18757TIP3   OH277761   3.303   4.363   4.809
18757TIP3    H177762   3.350   4.336   4.888
18757TIP3    H277763   3.338   4.449   4.787
18758TIP3   OH277764   0.149   6.602   6.677
18758TIP3    H177765   0.152   6.662   6.602
18758TIP3    H277766   0.071   6.629   6.726
18759TIP3   OH277767   1.221   6.082   1.965
18759TIP3    H177768   1.139   6.096   1.917
18759TIP3    H277769   1.207   6.124   2.049
18760TIP3   OH277770   2.481   6.503  17.087
18760TIP3    H177771   2.401   6.499  17.035
18760TIP3    H277772   2.531   6.575  17.050
18761TIP3   OH277773   1.231   6.587   0.202
18761TIP3    H177774   1.243   6.567   0.109
18761TIP3    H277775   1.299   6.651   0.222
18762TIP3   OH277776   3.548   2.891   6.024
18762TIP3    H177777   3.621   2.944   6.056
18762TIP3    H277778   3.556   2.894   5.929
18763TIP3   OH277779   5.255   2.455  11.212
18763TIP3    H177780   5.307   2.506  11.275
18763TIP3    H277781   5.298   2.472  11.128
18764TIP3   OH277782   2.462   1.238   3.062
18764TIP3    H177783   2.433   1.329   3.065
18764TIP3    H277784   2.485   1.224   2.970
18765TIP3   OH277785   0.618   2.313  10.810
18765TIP3    H177786   0.648   2.403  10.824
18765TIP3    H277787   0.670   2.261  10.871
18766TIP3   OH277788   3.096   0.261   4.207
18766TIP3    H177789   3.096   0.324   4.134
18766TIP3    H277790   3.181   0.217   4.200
18767TIP3   OH277791   3.683   1.498  17.223
18767TIP3    H177792   3.716   1.460  17.305
18767TIP3    H277793   3.756   1.488  17.161
18768TIP3   OH277794   6.280   4.131   1.622
18768TIP3    H177795   6.352   4.069   1.624
18768TIP3    H277796   6.266   4.150   1.529
18769TIP3   OH277797   5.679   1.608   4.704
18769TIP3    H177798   5.762   1.574   4.738
18769TIP3    H277799   5.702   1.645   4.618
18770TIP3   OH277800   1.424   3.431   5.558
18770TIP3    H177801   1.404   3.512   5.606
18770TIP3    H277802   1.361   3.429   5.486
18771TIP3   OH277803   0.419   2.590   5.363
18771TIP3    H177804   0.446   2.673   5.403
18771TIP3    H277805   0.411   2.530   5.436
18772TIP3   OH277806   4.265   0.609  12.467
18772TIP3    H177807   4.314   0.692  12.466
18772TIP3    H277808   4.288   0.569  12.551
18773TIP3   OH277809   1.172   2.119  17.147
18773TIP3    H177810   1.244   2.100  17.086
18773TIP3    H277811   1.110   2.047  17.134
18774TIP3   OH277812   4.963   1.961  13.875
18774TIP3    H177813   4.969   1.901  13.950
18774TIP3    H277814   4.960   2.048  13.914
18775TIP3   OH277815   4.003   1.924  14.529
18775TIP3    H177816   4.063   1.921  14.604
18775TIP3    H277817   4.060   1.922  14.452
18776TIP3   OH277818   2.862   1.097  14.215
18776TIP3    H177819   2.793   1.148  14.258
18776TIP3    H277820   2.884   1.147  14.136
18777TIP3   OH277821   3.515   6.385   5.963
18777TIP3    H177822   3.583   6.451   5.973
18777TIP3    H277823   3.561   6.307   5.931
18778TIP3   OH277824   6.002   4.807  16.051
18778TIP3    H177825   6.022   4.882  15.996
18778TIP3    H277826   6.087   4.774  16.079
18779TIP3   OH277827   5.739   6.069  12.677
18779TIP3    H177828   5.809   6.126  12.645
18779TIP3    H277829   5.662   6.094  12.627
18780TIP3   OH277830   1.805   1.638  12.642
18780TIP3    H177831   1.899   1.656  12.642
18780TIP3    H277832   1.785   1.613  12.552
18781TIP3   OH277833   1.950   6.580   5.478
18781TIP3    H177834   2.014   6.646   5.452
18781TIP3    H277835   1.960   6.510   5.414
18782TIP3   OH277836   5.020   2.511  10.891
18782TIP3    H177837   4.994   2.460  10.815
18782TIP3    H277838   5.116   2.513  10.887
18783TIP3   OH277839   1.583   0.244   2.290
18783TIP3    H177840   1.632   0.233   2.209
18783TIP3    H277841   1.491   0.240   2.263
18784TIP3   OH277842   3.482   4.370   3.104
18784TIP3    H177843   3.577   4.361   3.102
18784TIP3    H277844   3.463   4.446   3.049
18785TIP3   OH277845   0.275   1.495  14.219
18785TIP3    H177846   0.359   1.538  14.201
18785TIP3    H277847   0.299   1.407  14.248
18786TIP3   OH277848   3.683   3.941  12.568
18786TIP3    H177849   3.694   3.990  12.487
18786TIP3    H277850   3.593   3.959  12.595
18787TIP3   OH277851   2.998   0.539  13.685
18787TIP3    H177852   3.024   0.454  13.721
18787TIP3    H277853   2.942   0.577  13.753
18788TIP3   OH277854   5.733   4.068   2.168
18788TIP3    H177855   5.795   4.064   2.095
18788TIP3    H277856   5.784   4.102   2.241
18789TIP3   OH277857   5.214   6.355  11.149
18789TIP3    H177858   5.127   6.335  11.185
18789TIP3    H277859   5.206   6.443  11.113
18790TIP3   OH277860   6.719   0.416   4.264
18790TIP3    H177861   6.730   0.336   4.212
18790TIP3    H277862   6.706   0.385   4.353
18791TIP3   OH277863   4.658   6.393  13.686
18791TIP3    H177864   4.743   6.349  13.681
18791TIP3    H277865   4.663   6.463  13.620
18792TIP3   OH277866   3.242   5.319  15.280
18792TIP3    H177867   3.242   5.269  15.362
18792TIP3    H277868   3.328   5.303  15.242
18793TIP3   OH277869   4.703   4.436  11.383
18793TIP3    H177870   4.630   4.458  11.441
18793TIP3    H277871   4.708   4.509  11.322
18794TIP3   OH277872   0.867   4.429  14.029
18794TIP3    H177873   0.882   4.460  14.119
18794TIP3    H277874   0.877   4.334  14.035
18795TIP3   OH277875   1.402   2.937  13.395
18795TIP3    H177876   1.336   2.868  13.388
18795TIP3    H277877   1.384   2.979  13.479
18796TIP3   OH277878   6.201   0.656   4.153
18796TIP3    H177879   6.184   0.676   4.245
18796TIP3    H277880   6.190   0.740   4.108
18797TIP3   OH277881   3.215   2.505   6.969
18797TIP3    H177882   3.232   2.595   6.941
18797TIP3    H277883   3.160   2.469   6.900
18798TIP3   OH277884   2.046   4.096  12.320
18798TIP3    H177885   1.956   4.103  12.353
18798TIP3    H277886   2.100   4.132  12.390
18799TIP3   OH277887   5.661   3.259   2.950
18799TIP3    H177888   5.719   3.256   3.026
18799TIP3    H277889   5.573   3.264   2.987
18800TIP3   OH277890   5.463   5.849  11.600
18800TIP3    H177891   5.382   5.900  11.597
18800TIP3    H277892   5.532   5.913  11.616
18801TIP3   OH277893   6.178   1.205  14.918
18801TIP3    H177894   6.260   1.158  14.902
18801TIP3    H277895   6.119   1.174  14.849
18802TIP3   OH277896   3.833   4.029   2.913
18802TIP3    H177897   3.750   4.024   2.960
18802TIP3    H277898   3.892   4.076   2.972
18803TIP3   OH277899   1.315   1.773  15.569
18803TIP3    H177900   1.277   1.741  15.487
18803TIP3    H277901   1.407   1.791  15.547
18804TIP3   OH277902   1.565   0.646   0.561
18804TIP3    H177903   1.659   0.642   0.550
18804TIP3    H277904   1.538   0.722   0.509
18805TIP3   OH277905   3.860   5.771   3.527
18805TIP3    H177906   3.939   5.732   3.489
18805TIP3    H277907   3.851   5.728   3.612
18806TIP3   OH277908   4.462   3.221  14.543
18806TIP3    H177909   4.440   3.152  14.480
18806TIP3    H277910   4.442   3.182  14.628
18807TIP3   OH277911   2.099   1.574  15.700
18807TIP3    H177912   2.027   1.618  15.655
18807TIP3    H277913   2.067   1.560  15.788
18808TIP3   OH277914   4.485   2.360   0.267
18808TIP3    H177915   4.479   2.275   0.311
18808TIP3    H277916   4.567   2.397   0.299
18809TIP3   OH277917   3.475   4.549  17.052
18809TIP3    H177918   3.420   4.564  17.130
18809TIP3    H277919   3.514   4.463  17.066
18810TIP3   OH277920   6.257   0.796   3.335
18810TIP3    H177921   6.315   0.835   3.401
18810TIP3    H277922   6.168   0.818   3.365
18811TIP3   OH277923   2.136   4.128   2.785
18811TIP3    H177924   2.180   4.200   2.832
18811TIP3    H277925   2.076   4.091   2.850
18812TIP3   OH277926   6.501   4.992   3.093
18812TIP3    H177927   6.444   4.959   3.163
18812TIP3    H277928   6.581   5.017   3.138
18813TIP3   OH277929   3.737   0.422   1.761
18813TIP3    H177930   3.826   0.390   1.776
18813TIP3    H277931   3.687   0.344   1.738
18814TIP3   OH277932   0.290   5.386  14.173
18814TIP3    H177933   0.297   5.481  14.175
18814TIP3    H277934   0.373   5.354  14.209
18815TIP3   OH277935   5.401   1.623  10.724
18815TIP3    H177936   5.353   1.642  10.643
18815TIP3    H277937   5.459   1.698  10.735
18816TIP3   OH277938   0.034   0.369  14.204
18816TIP3    H177939   0.114   0.392  14.155
18816TIP3    H277940   0.044   0.414  14.288
18817TIP3   OH277941   0.022   0.092   5.249
18817TIP3    H177942   0.079   0.071   5.323
18817TIP3    H277943   0.026   0.187   5.242
18818TIP3   OH277944   0.698   0.961   0.519
18818TIP3    H177945   0.717   0.867   0.509
18818TIP3    H277946   0.753   0.989   0.592
18819TIP3   OH277947   4.305   4.984  10.578
18819TIP3    H177948   4.377   4.921  10.583
18819TIP3    H277949   4.239   4.948  10.637
18820TIP3   OH277950   4.842   5.792   2.317
18820TIP3    H177951   4.798   5.877   2.312
18820TIP3    H277952   4.835   5.755   2.229
18821TIP3   OH277953   5.601   0.568   2.228
18821TIP3    H177954   5.516   0.606   2.206
18821TIP3    H277955   5.660   0.601   2.161
18822TIP3   OH277956   2.908   2.685   3.425
18822TIP3    H177957   2.859   2.607   3.452
18822TIP3    H277958   2.960   2.656   3.350
18823TIP3   OH277959   5.419   6.647   1.226
18823TIP3    H177960   5.424   6.558   1.261
18823TIP3    H277961   5.348   6.688   1.275
18824TIP3   OH277962   3.858   5.070  15.053
18824TIP3    H177963   3.795   4.999  15.059
18824TIP3    H277964   3.826   5.126  14.982
18825TIP3   OH277965   2.696   2.469   3.986
18825TIP3    H177966   2.786   2.467   4.018
18825TIP3    H277967   2.703   2.446   3.893
18826TIP3   OH277968   0.465   3.884   1.093
18826TIP3    H177969   0.526   3.915   1.026
18826TIP3    H277970   0.398   3.952   1.098
18827TIP3   OH277971   3.325   5.290   3.735
18827TIP3    H177972   3.309   5.287   3.829
18827TIP3    H277973   3.331   5.383   3.714
18828TIP3   OH277974   6.391   0.957  16.070
18828TIP3    H177975   6.316   1.002  16.030
18828TIP3    H277976   6.419   0.894  16.005
18829TIP3   OH277977   3.940   1.470  15.620
18829TIP3    H177978   3.887   1.452  15.542
18829TIP3    H277979   4.030   1.450  15.593
18830TIP3   OH277980   6.169   0.012   1.174
18830TIP3    H177981   6.095   0.056   1.216
18830TIP3    H277982   6.163   0.037   1.082
18831TIP3   OH277983   2.860   3.584  13.265
18831TIP3    H177984   2.855   3.609  13.357
18831TIP3    H277985   2.951   3.600  13.240
18832TIP3   OH277986   6.475   3.792   3.116
18832TIP3    H177987   6.486   3.846   3.195
18832TIP3    H277988   6.564   3.770   3.089
18833TIP3   OH277989   0.715   4.913   3.668
18833TIP3    H177990   0.729   4.987   3.608
18833TIP3    H277991   0.707   4.837   3.610
18834TIP3   OH277992   2.134   6.446   2.650
18834TIP3    H177993   2.190   6.510   2.693
18834TIP3    H277994   2.074   6.417   2.719
18835TIP3   OH277995   1.514   4.889   3.265
18835TIP3    H177996   1.539   4.982   3.264
18835TIP3    H277997   1.590   4.843   3.230
18836TIP3   OH277998   5.932   6.121  14.077
18836TIP3    H177999   5.893   6.066  14.145
18836TIP3    H278000   6.021   6.089  14.069
18837TIP3   OH278001   5.502   5.232  13.988
18837TIP3    H178002   5.531   5.140  13.982
18837TIP3    H278003   5.491   5.247  14.081
18838TIP3   OH278004   1.120   6.144  12.835
18838TIP3    H178005   1.120   6.061  12.883
18838TIP3    H278006   1.105   6.210  12.903
18839TIP3   OH278007   3.318   3.291  13.723
18839TIP3    H178008   3.392   3.232  13.736
18839TIP3    H278009   3.243   3.244  13.758
18840TIP3   OH278010   4.331   1.080   3.950
18840TIP3    H178011   4.258   1.100   4.009
18840TIP3    H278012   4.341   0.985   3.954
18841TIP3   OH278013   3.880   4.675  14.995
18841TIP3    H178014   3.865   4.582  15.012
18841TIP3    H278015   3.948   4.701  15.057
18842TIP3   OH278016   1.916   2.855   5.762
18842TIP3    H178017   1.976   2.784   5.738
18842TIP3    H278018   1.970   2.933   5.764
18843TIP3   OH278019   4.754   2.431   5.993
18843TIP3    H178020   4.664   2.401   5.979
18843TIP3    H278021   4.747   2.497   6.062
18844TIP3   OH278022   4.339   4.392   4.905
18844TIP3    H178023   4.417   4.360   4.860
18844TIP3    H278024   4.330   4.335   4.981
18845TIP3   OH278025   1.017   6.058   5.228
18845TIP3    H178026   1.079   6.121   5.192
18845TIP3    H278027   1.057   5.973   5.210
18846TIP3   OH278028   2.359   3.304  14.939
18846TIP3    H178029   2.290   3.246  14.970
18846TIP3    H278030   2.316   3.389  14.929
18847TIP3   OH278031   6.009   5.302   2.806
18847TIP3    H178032   5.987   5.256   2.887
18847TIP3    H278033   5.929   5.296   2.753
18848TIP3   OH278034   6.147   2.122  12.699
18848TIP3    H178035   6.062   2.163  12.685
18848TIP3    H278036   6.151   2.108  12.794
18849TIP3   OH278037   3.785   3.373   3.854
18849TIP3    H178038   3.695   3.394   3.878
18849TIP3    H278039   3.832   3.370   3.938
18850TIP3   OH278040   3.221   4.586  15.710
18850TIP3    H178041   3.183   4.605  15.624
18850TIP3    H278042   3.181   4.651  15.768
18851TIP3   OH278043   5.613   0.593   2.722
18851TIP3    H178044   5.528   0.598   2.678
18851TIP3    H278045   5.675   0.570   2.654
18852TIP3   OH278046   5.628   5.107  12.359
18852TIP3    H178047   5.707   5.138  12.316
18852TIP3    H278048   5.641   5.127  12.452
18853TIP3   OH278049   5.385   4.593   4.190
18853TIP3    H178050   5.341   4.654   4.250
18853TIP3    H278051   5.467   4.637   4.169
18854TIP3   OH278052   2.928   5.362   1.077
18854TIP3    H178053   2.922   5.321   0.991
18854TIP3    H278054   2.909   5.454   1.062
18855TIP3   OH278055   3.710   5.658  14.951
18855TIP3    H178056   3.668   5.691  14.872
18855TIP3    H278057   3.650   5.592  14.985
18856TIP3   OH278058   6.339   1.919  12.640
18856TIP3    H178059   6.279   1.993  12.653
18856TIP3    H278060   6.426   1.956  12.658
18857TIP3   OH278061   6.652   5.719   5.259
18857TIP3    H178062   6.644   5.659   5.184
18857TIP3    H278063   6.570   5.707   5.307
18858TIP3   OH278064   6.125   1.515   3.460
18858TIP3    H178065   6.123   1.444   3.525
18858TIP3    H278066   6.151   1.592   3.511
18859TIP3   OH278067   2.626   5.564  14.562
18859TIP3    H178068   2.532   5.578  14.558
18859TIP3    H278069   2.661   5.620  14.493
18860TIP3   OH278070   6.597   2.245   2.471
18860TIP3    H178071   6.686   2.276   2.459
18860TIP3    H278072   6.564   2.231   2.382
18861TIP3   OH278073   6.383   5.673  17.006
18861TIP3    H178074   6.461   5.652  17.058
18861TIP3    H278075   6.315   5.614  17.040
18862TIP3   OH278076   5.848   2.737  10.993
18862TIP3    H178077   5.808   2.664  10.947
18862TIP3    H278078   5.923   2.761  10.939
18863TIP3   OH278079   3.453   4.173   0.057
18863TIP3    H178080   3.394   4.100   0.043
18863TIP3    H278081   3.535   4.133   0.085
18864TIP3   OH278082   1.305   4.931  14.099
18864TIP3    H178083   1.304   4.990  14.175
18864TIP3    H278084   1.244   4.971  14.037
18865TIP3   OH278085   2.184   6.261  15.880
18865TIP3    H178086   2.148   6.342  15.917
18865TIP3    H278087   2.149   6.192  15.936
18866TIP3   OH278088   4.083   4.425   1.984
18866TIP3    H178089   4.148   4.424   1.913
18866TIP3    H278090   4.129   4.386   2.058
18867TIP3   OH278091   2.992   0.892  12.355
18867TIP3    H178092   3.070   0.888  12.411
18867TIP3    H278093   2.995   0.810  12.305
18868TIP3   OH278094   1.263   2.950   4.248
18868TIP3    H178095   1.302   2.870   4.283
18868TIP3    H278096   1.238   3.001   4.325
18869TIP3   OH278097   0.041   2.676  15.356
18869TIP3    H178098  -0.005   2.756  15.383
18869TIP3    H278099   0.122   2.707  15.317
18870TIP3   OH278100   2.125   5.054  12.277
18870TIP3    H178101   2.114   5.149  12.270
18870TIP3    H278102   2.219   5.040  12.265
18871TIP3   OH278103   2.262   0.857  15.149
18871TIP3    H178104   2.243   0.925  15.084
18871TIP3    H278105   2.196   0.871  15.217
18872TIP3   OH278106   2.833   5.062   1.146
18872TIP3    H178107   2.832   5.094   1.236
18872TIP3    H278108   2.925   5.064   1.121
18873TIP3   OH278109   5.229   6.316   4.935
18873TIP3    H178110   5.214   6.362   5.017
18873TIP3    H278111   5.156   6.342   4.879
18874TIP3   OH278112   2.423   5.141  11.034
18874TIP3    H178113   2.374   5.072  10.989
18874TIP3    H278114   2.412   5.121  11.127
18875TIP3   OH278115   5.271   2.988   3.945
18875TIP3    H178116   5.329   3.063   3.955
18875TIP3    H278117   5.255   2.957   4.034
18876TIP3   OH278118   2.847   4.539  13.981
18876TIP3    H178119   2.826   4.614  14.038
18876TIP3    H278120   2.770   4.482  13.988
18877TIP3   OH278121   3.605   0.898  11.974
18877TIP3    H178122   3.666   0.866  11.907
18877TIP3    H278123   3.581   0.819  12.023
18878TIP3   OH278124   6.644   1.349   2.399
18878TIP3    H178125   6.619   1.333   2.308
18878TIP3    H278126   6.735   1.321   2.403
18879TIP3   OH278127   6.125   3.252  15.116
18879TIP3    H178128   6.199   3.193  15.099
18879TIP3    H278129   6.063   3.200  15.167
18880TIP3   OH278130   1.566   3.131   1.305
18880TIP3    H178131   1.648   3.083   1.288
18880TIP3    H278132   1.570   3.207   1.247
18881TIP3   OH278133   2.387   6.170   5.300
18881TIP3    H178134   2.410   6.078   5.305
18881TIP3    H278135   2.328   6.176   5.225
18882TIP3   OH278136   0.224   1.167  17.095
18882TIP3    H178137   0.314   1.143  17.074
18882TIP3    H278138   0.202   1.234  17.031
18883TIP3   OH278139   0.787   1.821  11.076
18883TIP3    H178140   0.865   1.834  11.023
18883TIP3    H278141   0.714   1.840  11.017
18884TIP3   OH278142   0.470   2.207   5.473
18884TIP3    H178143   0.487   2.133   5.532
18884TIP3    H278144   0.555   2.224   5.432
18885TIP3   OH278145   3.493   0.270  13.253
18885TIP3    H178146   3.458   0.265  13.342
18885TIP3    H278147   3.420   0.301  13.200
18886TIP3   OH278148   0.755   4.464  15.343
18886TIP3    H178149   0.694   4.457  15.416
18886TIP3    H278150   0.705   4.509  15.275
18887TIP3   OH278151   0.007   6.792   5.750
18887TIP3    H178152  -0.034   6.752   5.826
18887TIP3    H278153  -0.049   6.867   5.730
18888TIP3   OH278154   1.701   1.444   4.645
18888TIP3    H178155   1.733   1.370   4.594
18888TIP3    H278156   1.642   1.405   4.710
18889TIP3   OH278157   0.802   6.151   5.398
18889TIP3    H178158   0.861   6.093   5.349
18889TIP3    H278159   0.717   6.108   5.393
18890TIP3   OH278160   3.447   6.103   1.734
18890TIP3    H178161   3.355   6.124   1.753
18890TIP3    H278162   3.497   6.162   1.790
18891TIP3   OH278163   5.053   0.442  15.899
18891TIP3    H178164   5.100   0.362  15.925
18891TIP3    H278165   5.118   0.493  15.850
18892TIP3   OH278166   5.322   1.619   2.027
18892TIP3    H178167   5.258   1.591   1.962
18892TIP3    H278168   5.295   1.707   2.052
18893TIP3   OH278169   5.751   5.779  15.198
18893TIP3    H178170   5.772   5.694  15.237
18893TIP3    H278171   5.754   5.840  15.272
18894TIP3   OH278172   2.909   3.918  14.820
18894TIP3    H178173   2.993   3.954  14.848
18894TIP3    H278174   2.931   3.845  14.763
18895TIP3   OH278175   1.617   3.554  11.590
18895TIP3    H178176   1.702   3.509  11.583
18895TIP3    H278177   1.640   3.646  11.604
18896TIP3   OH278178   3.285   4.260  14.523
18896TIP3    H178179   3.190   4.260  14.517
18896TIP3    H278180   3.304   4.289  14.612
18897TIP3   OH278181   2.363   0.166  13.589
18897TIP3    H178182   2.300   0.149  13.520
18897TIP3    H278183   2.324   0.128  13.668
18898TIP3   OH278184   0.901   0.300   3.312
18898TIP3    H178185   0.859   0.227   3.360
18898TIP3    H278186   0.983   0.315   3.359
18899TIP3   OH278187   2.173   3.082  15.013
18899TIP3    H178188   2.125   3.043  14.941
18899TIP3    H278189   2.152   3.028  15.089
18900TIP3   OH278190   5.458   4.102  14.733
18900TIP3    H178191   5.365   4.080  14.729
18900TIP3    H278192   5.499   4.045  14.668
18901TIP3   OH278193   5.572   5.210   4.654
18901TIP3    H178194   5.637   5.204   4.584
18901TIP3    H278195   5.500   5.259   4.615
18902TIP3   OH278196   4.834   1.199  16.427
18902TIP3    H178197   4.761   1.139  16.445
18902TIP3    H278198   4.876   1.211  16.513
18903TIP3   OH278199   1.022   3.292   5.481
18903TIP3    H178200   1.028   3.309   5.575
18903TIP3    H278201   0.938   3.332   5.455
18904TIP3   OH278202   3.860   2.058   0.453
18904TIP3    H178203   3.874   2.090   0.364
18904TIP3    H278204   3.768   2.076   0.470
18905TIP3   OH278205   1.500   1.627   0.595
18905TIP3    H178206   1.526   1.535   0.589
18905TIP3    H278207   1.409   1.627   0.566
18906TIP3   OH278208   2.977   5.114   3.423
18906TIP3    H178209   2.941   5.040   3.374
18906TIP3    H278210   3.071   5.112   3.405
18907TIP3   OH278211   6.613   5.443  17.117
18907TIP3    H178212   6.652   5.358  17.139
18907TIP3    H278213   6.666   5.507  17.165
18908TIP3   OH278214   0.478   2.825  16.889
18908TIP3    H178215   0.469   2.908  16.842
18908TIP3    H278216   0.411   2.829  16.958
18909TIP3   OH278217   1.188   0.396  15.679
18909TIP3    H178218   1.229   0.325  15.728
18909TIP3    H278219   1.226   0.391  15.592
18910TIP3   OH278220   3.675   4.456  11.426
18910TIP3    H178221   3.606   4.397  11.395
18910TIP3    H278222   3.684   4.520  11.355
18911TIP3   OH278223   3.386   2.436   5.475
18911TIP3    H178224   3.358   2.349   5.446
18911TIP3    H278225   3.363   2.493   5.402
18912TIP3   OH278226   6.797   0.152   4.203
18912TIP3    H178227   6.888   0.171   4.227
18912TIP3    H278228   6.803   0.090   4.131
18913TIP3   OH278229   0.568   0.081   6.455
18913TIP3    H178230   0.497   0.122   6.503
18913TIP3    H278231   0.627   0.153   6.433
18914TIP3   OH278232   2.165   3.807  16.733
18914TIP3    H178233   2.210   3.840  16.811
18914TIP3    H278234   2.137   3.885  16.687
18915TIP3   OH278235   4.383   1.979   2.011
18915TIP3    H178236   4.331   1.906   2.044
18915TIP3    H278237   4.449   1.939   1.956
18916TIP3   OH278238   1.900   4.622  12.648
18916TIP3    H178239   1.891   4.527  12.652
18916TIP3    H278240   1.992   4.636  12.628
18917TIP3   OH278241   4.658   4.922  12.290
18917TIP3    H178242   4.740   4.958  12.257
18917TIP3    H278243   4.601   4.998  12.302
18918TIP3   OH278244   0.241   3.549   3.095
18918TIP3    H178245   0.336   3.538   3.096
18918TIP3    H278246   0.224   3.623   3.154
18919TIP3   OH278247   1.780   6.246   2.431
18919TIP3    H178248   1.741   6.170   2.389
18919TIP3    H278249   1.780   6.314   2.363
18920TIP3   OH278250   4.713   1.636  12.472
18920TIP3    H178251   4.646   1.602  12.413
18920TIP3    H278252   4.686   1.727  12.489
18921TIP3   OH278253   1.705   5.179   3.639
18921TIP3    H178254   1.754   5.128   3.703
18921TIP3    H278255   1.613   5.161   3.659
18922TIP3   OH278256   1.723   1.181   1.100
18922TIP3    H178257   1.758   1.257   1.054
18922TIP3    H278258   1.678   1.130   1.033
18923TIP3   OH278259   1.862   1.446  16.490
18923TIP3    H178260   1.800   1.458  16.562
18923TIP3    H278261   1.806   1.431  16.413
18924TIP3   OH278262   1.319   6.729  13.609
18924TIP3    H178263   1.260   6.802  13.625
18924TIP3    H278264   1.306   6.707  13.516
18925TIP3   OH278265   4.723   2.623  13.224
18925TIP3    H178266   4.696   2.534  13.200
18925TIP3    H278267   4.770   2.612  13.307
18926TIP3   OH278268   1.994   2.036   3.233
18926TIP3    H178269   2.062   2.043   3.167
18926TIP3    H278270   1.986   1.942   3.250
18927TIP3   OH278271   1.371   1.148   6.046
18927TIP3    H178272   1.379   1.053   6.054
18927TIP3    H278273   1.402   1.168   5.958
18928TIP3   OH278274   6.489   1.824   2.616
18928TIP3    H178275   6.534   1.742   2.599
18928TIP3    H278276   6.458   1.816   2.707
18929TIP3   OH278277   1.267   5.271   3.342
18929TIP3    H178278   1.307   5.186   3.325
18929TIP3    H278279   1.271   5.317   3.258
18930TIP3   OH278280   2.392   4.600  10.087
18930TIP3    H178281   2.453   4.592  10.161
18930TIP3    H278282   2.320   4.540  10.110
18931TIP3   OH278283   5.787   4.162  10.436
18931TIP3    H178284   5.855   4.155  10.369
18931TIP3    H278285   5.794   4.080  10.486
18932TIP3   OH278286   1.005   4.931  11.841
18932TIP3    H178287   0.997   5.026  11.846
18932TIP3    H278288   1.041   4.906  11.926
18933TIP3   OH278289   1.888   3.582   0.475
18933TIP3    H178290   1.814   3.520   0.474
18933TIP3    H278291   1.850   3.664   0.445
18934TIP3   OH278292   4.699   4.384   3.960
18934TIP3    H178293   4.777   4.385   4.016
18934TIP3    H278294   4.729   4.422   3.877
18935TIP3   OH278295   3.234   1.096  12.649
18935TIP3    H178296   3.230   1.085  12.744
18935TIP3    H278297   3.221   1.009  12.613
18936TIP3   OH278298   4.965   4.153  14.946
18936TIP3    H178299   4.988   4.071  14.990
18936TIP3    H278300   4.872   4.143  14.924
18937TIP3   OH278301   4.729   4.535  13.632
18937TIP3    H178302   4.653   4.592  13.649
18937TIP3    H278303   4.702   4.450  13.666
18938TIP3   OH278304   6.068   3.450   5.342
18938TIP3    H178305   6.149   3.449   5.394
18938TIP3    H278306   5.998   3.439   5.406
18939TIP3   OH278307   5.786   2.764  15.691
18939TIP3    H178308   5.761   2.747  15.781
18939TIP3    H278309   5.750   2.691  15.641
18940TIP3   OH278310   4.379   3.859  11.150
18940TIP3    H178311   4.329   3.840  11.071
18940TIP3    H278312   4.449   3.794  11.151
18941TIP3   OH278313   5.220   0.642  11.932
18941TIP3    H178314   5.262   0.651  12.018
18941TIP3    H278315   5.263   0.566  11.892
18942TIP3   OH278316   1.663   3.613  15.435
18942TIP3    H178317   1.679   3.561  15.356
18942TIP3    H278318   1.713   3.694  15.421
18943TIP3   OH278319   4.448   5.040  11.840
18943TIP3    H178320   4.478   5.090  11.916
18943TIP3    H278321   4.446   4.949  11.869
18944TIP3   OH278322   5.098   0.614   5.697
18944TIP3    H178323   5.101   0.654   5.610
18944TIP3    H278324   5.004   0.605   5.716
18945TIP3   OH278325   5.938   0.198  16.452
18945TIP3    H178326   5.963   0.110  16.425
18945TIP3    H278327   5.890   0.184  16.534
18946TIP3   OH278328   3.355   5.628   4.971
18946TIP3    H178329   3.290   5.693   4.943
18946TIP3    H278330   3.436   5.655   4.928
18947TIP3   OH278331   5.272   2.268   1.799
18947TIP3    H178332   5.330   2.295   1.728
18947TIP3    H278333   5.199   2.329   1.796
18948TIP3   OH278334   1.021   3.068  11.628
18948TIP3    H178335   1.071   3.139  11.669
18948TIP3    H278336   1.078   3.036  11.558
18949TIP3   OH278337   0.779   2.297  12.530
18949TIP3    H178338   0.855   2.352  12.548
18949TIP3    H278339   0.707   2.358  12.518
18950TIP3   OH278340   6.296   2.556   6.587
18950TIP3    H178341   6.340   2.571   6.504
18950TIP3    H278342   6.239   2.481   6.570
18951TIP3   OH278343   3.115   0.805   2.971
18951TIP3    H178344   3.164   0.732   2.934
18951TIP3    H278345   3.038   0.813   2.915
18952TIP3   OH278346   2.755   6.476   0.847
18952TIP3    H178347   2.820   6.478   0.918
18952TIP3    H278348   2.783   6.402   0.792
18953TIP3   OH278349   1.027   3.808  14.294
18953TIP3    H178350   1.042   3.772  14.207
18953TIP3    H278351   0.933   3.800  14.307
18954TIP3   OH278352   2.915   5.921   5.860
18954TIP3    H178353   2.847   5.940   5.796
18954TIP3    H278354   2.976   5.995   5.853
18955TIP3   OH278355   2.962   2.641  13.418
18955TIP3    H178356   3.014   2.585  13.476
18955TIP3    H278357   2.903   2.688  13.477
18956TIP3   OH278358   1.816   2.291   1.547
18956TIP3    H178359   1.731   2.285   1.591
18956TIP3    H278360   1.811   2.228   1.476
18957TIP3   OH278361   3.223   0.099  15.211
18957TIP3    H178362   3.262   0.176  15.169
18957TIP3    H278363   3.130   0.105  15.191
18958TIP3   OH278364   3.582   2.610  16.766
18958TIP3    H178365   3.489   2.603  16.787
18958TIP3    H278366   3.626   2.609  16.851
18959TIP3   OH278367   4.688   6.732  12.534
18959TIP3    H178368   4.658   6.728  12.624
18959TIP3    H278369   4.609   6.742  12.482
18960TIP3   OH278370   3.518   4.647  14.134
18960TIP3    H178371   3.440   4.590  14.135
18960TIP3    H278372   3.486   4.729  14.097
18961TIP3   OH278373   1.348   1.334  16.649
18961TIP3    H178374   1.318   1.296  16.731
18961TIP3    H278375   1.384   1.419  16.673
18962TIP3   OH278376   3.667   5.018   3.039
18962TIP3    H178377   3.640   4.984   3.124
18962TIP3    H278378   3.594   5.071   3.009
18963TIP3   OH278379   4.992   6.276   1.783
18963TIP3    H178380   5.054   6.330   1.832
18963TIP3    H278381   5.023   6.187   1.797
18964TIP3   OH278382   0.820   2.029   0.541
18964TIP3    H178383   0.746   2.066   0.589
18964TIP3    H278384   0.827   2.083   0.462
18965TIP3   OH278385   5.309   2.157   5.832
18965TIP3    H178386   5.316   2.168   5.926
18965TIP3    H278387   5.378   2.211   5.795
18966TIP3   OH278388   5.771   3.097  16.143
18966TIP3    H178389   5.751   3.074  16.052
18966TIP3    H278390   5.851   3.049  16.162
18967TIP3   OH278391   2.035   3.683   5.496
18967TIP3    H178392   2.040   3.599   5.544
18967TIP3    H278393   2.055   3.749   5.562
18968TIP3   OH278394   0.794   3.390   6.382
18968TIP3    H178395   0.878   3.435   6.391
18968TIP3    H278396   0.816   3.306   6.342
18969TIP3   OH278397   2.510   3.972  16.752
18969TIP3    H178398   2.462   3.953  16.672
18969TIP3    H278399   2.504   3.892  16.804
18970TIP3   OH278400   2.613   2.681   6.024
18970TIP3    H178401   2.703   2.659   6.045
18970TIP3    H278402   2.601   2.770   6.058
18971TIP3   OH278403   2.043   0.909  17.044
18971TIP3    H178404   2.032   0.911  16.949
18971TIP3    H278405   1.958   0.882  17.078
18972TIP3   OH278406   1.553   4.888   1.249
18972TIP3    H178407   1.579   4.952   1.183
18972TIP3    H278408   1.464   4.915   1.274
18973TIP3   OH278409   6.806   0.526   1.630
18973TIP3    H178410   6.754   0.458   1.588
18973TIP3    H278411   6.790   0.514   1.724
18974TIP3   OH278412   0.126   3.768   3.259
18974TIP3    H178413   0.187   3.819   3.312
18974TIP3    H278414   0.040   3.805   3.281
18975TIP3   OH278415   4.552   0.648   5.747
18975TIP3    H178416   4.476   0.589   5.749
18975TIP3    H278417   4.561   0.677   5.837
18976TIP3   OH278418   5.188   3.389   0.515
18976TIP3    H178419   5.282   3.408   0.509
18976TIP3    H278420   5.150   3.469   0.550
18977TIP3   OH278421   6.342   0.863  16.932
18977TIP3    H178422   6.380   0.892  17.015
18977TIP3    H278423   6.383   0.919  16.866
18978TIP3   OH278424   2.991   5.747  11.306
18978TIP3    H178425   3.020   5.760  11.396
18978TIP3    H278426   2.993   5.834  11.267
18979TIP3   OH278427   2.675   5.607   1.888
18979TIP3    H178428   2.749   5.548   1.906
18979TIP3    H278429   2.716   5.691   1.867
18980TIP3   OH278430   6.476   3.818  11.772
18980TIP3    H178431   6.553   3.847  11.722
18980TIP3    H278432   6.450   3.736  11.729
18981TIP3   OH278433   2.081   6.532   1.712
18981TIP3    H178434   2.073   6.606   1.652
18981TIP3    H278435   2.055   6.456   1.660
18982TIP3   OH278436   3.133   3.078   3.880
18982TIP3    H178437   3.128   3.128   3.799
18982TIP3    H278438   3.073   3.005   3.867
18983TIP3   OH278439   5.244   3.362   2.739
18983TIP3    H178440   5.225   3.270   2.756
18983TIP3    H278441   5.271   3.364   2.647
18984TIP3   OH278442   5.164   1.553   4.980
18984TIP3    H178443   5.137   1.594   5.062
18984TIP3    H278444   5.258   1.536   4.992
18985TIP3   OH278445   4.330   3.177  15.528
18985TIP3    H178446   4.414   3.222  15.541
18985TIP3    H278447   4.283   3.231  15.465
18986TIP3   OH278448   0.961   0.624   2.346
18986TIP3    H178449   0.980   0.551   2.404
18986TIP3    H278450   0.899   0.678   2.395
18987TIP3   OH278451   6.638   6.550   2.865
18987TIP3    H178452   6.591   6.505   2.935
18987TIP3    H278453   6.729   6.523   2.875
18988TIP3   OH278454   1.180   1.794  14.419
18988TIP3    H178455   1.232   1.773  14.341
18988TIP3    H278456   1.101   1.834  14.386
18989TIP3   OH278457   4.703   4.272   4.623
18989TIP3    H178458   4.654   4.328   4.563
18989TIP3    H278459   4.686   4.183   4.593
18990TIP3   OH278460   6.361   0.704   0.116
18990TIP3    H178461   6.435   0.654   0.149
18990TIP3    H278462   6.330   0.755   0.191
18991TIP3   OH278463   2.383   5.423  15.798
18991TIP3    H178464   2.434   5.466  15.730
18991TIP3    H278465   2.444   5.360  15.837
18992TIP3   OH278466   6.276   3.480   3.694
18992TIP3    H178467   6.263   3.574   3.703
18992TIP3    H278468   6.270   3.463   3.600
18993TIP3   OH278469   0.132   5.399  11.445
18993TIP3    H178470   0.169   5.472  11.494
18993TIP3    H278471   0.038   5.402  11.465
18994TIP3   OH278472   6.751   2.456   6.145
18994TIP3    H178473   6.731   2.538   6.101
18994TIP3    H278474   6.846   2.455   6.154
18995TIP3   OH278475   5.959   4.215  15.143
18995TIP3    H178476   5.887   4.239  15.085
18995TIP3    H278477   6.027   4.279  15.124
18996TIP3   OH278478   2.708   4.759   3.915
18996TIP3    H178479   2.747   4.745   4.001
18996TIP3    H278480   2.774   4.726   3.854
18997TIP3   OH278481   4.162   2.632  10.556
18997TIP3    H178482   4.191   2.723  10.570
18997TIP3    H278483   4.120   2.634  10.470
18998TIP3   OH278484   6.415   2.088   5.839
18998TIP3    H178485   6.333   2.083   5.888
18998TIP3    H278486   6.390   2.122   5.754
18999TIP3   OH278487   5.265   0.454  16.132
18999TIP3    H178488   5.259   0.505  16.213
18999TIP3    H278489   5.218   0.506  16.067
19000TIP3   OH278490   0.167   0.783  14.480
19000TIP3    H178491   0.221   0.748  14.551
19000TIP3    H278492   0.109   0.846  14.523
19001TIP3   OH278493   1.096   1.996   2.974
19001TIP3    H178494   1.183   2.002   2.935
19001TIP3    H278495   1.078   1.902   2.978
19002TIP3   OH278496   4.688   6.557   3.143
19002TIP3    H178497   4.644   6.640   3.126
19002TIP3    H278498   4.638   6.518   3.215
19003TIP3   OH278499   2.376   3.008  15.760
19003TIP3    H178500   2.392   2.914  15.748
19003TIP3    H278501   2.363   3.019  15.854
19004TIP3   OH278502   4.350   1.445   4.014
19004TIP3    H178503   4.398   1.514   4.060
19004TIP3    H278504   4.330   1.482   3.928
19005TIP3   OH278505   3.472   6.591  15.765
19005TIP3    H178506   3.567   6.598  15.774
19005TIP3    H278507   3.439   6.677  15.789
19006TIP3   OH278508   5.742   0.030   1.689
19006TIP3    H178509   5.687   0.076   1.626
19006TIP3    H278510   5.743  -0.061   1.658
19007TIP3   OH278511   3.862   6.647  12.635
19007TIP3    H178512   3.921   6.670  12.564
19007TIP3    H278513   3.831   6.730  12.670
19008TIP3   OH278514   5.052   4.634  14.576
19008TIP3    H178515   5.076   4.722  14.603
19008TIP3    H278516   5.063   4.581  14.656
19009TIP3   OH278517   1.938   5.488   5.363
19009TIP3    H178518   1.977   5.468   5.448
19009TIP3    H278519   2.010   5.522   5.310
19010TIP3   OH278520   0.290   4.622   1.967
19010TIP3    H178521   0.292   4.551   2.031
19010TIP3    H278522   0.290   4.578   1.882
19011TIP3   OH278523   3.636   1.532  13.368
19011TIP3    H178524   3.579   1.569  13.435
19011TIP3    H278525   3.685   1.463  13.414
19012TIP3   OH278526   0.760   3.703   3.418
19012TIP3    H178527   0.853   3.684   3.429
19012TIP3    H278528   0.749   3.717   3.324
19013TIP3   OH278529   3.058   5.669  14.757
19013TIP3    H178530   3.043   5.681  14.663
19013TIP3    H278531   3.051   5.757  14.794
19014TIP3   OH278532   6.453   1.037   1.231
19014TIP3    H178533   6.492   0.991   1.157
19014TIP3    H278534   6.362   1.007   1.233
19015TIP3   OH278535   2.735   1.441   0.167
19015TIP3    H178536   2.798   1.511   0.185
19015TIP3    H278537   2.746   1.379   0.239
19016TIP3   OH278538   0.418   2.543   0.887
19016TIP3    H178539   0.356   2.511   0.953
19016TIP3    H278540   0.415   2.478   0.817
19017TIP3   OH278541   1.135   2.357  16.744
19017TIP3    H178542   1.100   2.393  16.662
19017TIP3    H278543   1.207   2.415  16.767
19018TIP3   OH278544   3.032   2.916   2.147
19018TIP3    H178545   2.965   2.950   2.207
19018TIP3    H278546   3.095   2.988   2.138
19019TIP3   OH278547   4.014   0.178  13.332
19019TIP3    H178548   3.978   0.265  13.348
19019TIP3    H278549   3.943   0.131  13.288
19020TIP3   OH278550   0.713   3.265   1.645
19020TIP3    H178551   0.750   3.290   1.561
19020TIP3    H278552   0.654   3.192   1.625
19021TIP3   OH278553   4.439   2.379   4.624
19021TIP3    H178554   4.424   2.433   4.546
19021TIP3    H278555   4.523   2.337   4.610
19022TIP3   OH278556   5.882   4.803   1.563
19022TIP3    H178557   5.853   4.861   1.493
19022TIP3    H278558   5.807   4.745   1.579
19023TIP3   OH278559   0.092   1.136   4.810
19023TIP3    H178560   0.186   1.123   4.826
19023TIP3    H278561   0.076   1.092   4.726
19024TIP3   OH278562   2.731   1.664  12.633
19024TIP3    H178563   2.734   1.748  12.678
19024TIP3    H278564   2.817   1.655  12.593
19025TIP3   OH278565   4.645   3.222  14.313
19025TIP3    H178566   4.640   3.228  14.408
19025TIP3    H278567   4.691   3.140  14.297
19026TIP3   OH278568   5.582   6.731   2.729
19026TIP3    H178569   5.511   6.764   2.785
19026TIP3    H278570   5.651   6.705   2.791
19027TIP3   OH278571   6.195   1.733  13.440
19027TIP3    H178572   6.176   1.695  13.526
19027TIP3    H278573   6.112   1.770  13.411
19028TIP3   OH278574   2.284   0.187   5.732
19028TIP3    H178575   2.204   0.236   5.745
19028TIP3    H278576   2.289   0.173   5.637
19029TIP3   OH278577   2.081   1.705  16.972
19029TIP3    H178578   2.070   1.797  16.950
19029TIP3    H278579   2.151   1.675  16.913
19030TIP3   OH278580   2.743   5.414   5.021
19030TIP3    H178581   2.762   5.508   5.025
19030TIP3    H278582   2.728   5.396   4.929
19031TIP3   OH278583   4.491   6.358   5.978
19031TIP3    H178584   4.470   6.265   5.985
19031TIP3    H278585   4.431   6.401   6.039
19032TIP3   OH278586   4.080   2.772   2.116
19032TIP3    H178587   4.031   2.843   2.157
19032TIP3    H278588   4.145   2.816   2.062
19033TIP3   OH278589   2.950   2.215  13.264
19033TIP3    H178590   2.919   2.298  13.228
19033TIP3    H278591   2.938   2.152  13.193
19034TIP3   OH278592   5.647   6.320  17.157
19034TIP3    H178593   5.614   6.235  17.129
19034TIP3    H278594   5.742   6.312  17.152
19035TIP3   OH278595   6.430   0.526   4.529
19035TIP3    H178596   6.520   0.543   4.556
19035TIP3    H278597   6.432   0.523   4.434
19036TIP3   OH278598   5.947   3.806   0.390
19036TIP3    H178599   5.988   3.835   0.309
19036TIP3    H278600   5.920   3.886   0.434
19037TIP3   OH278601   2.510   6.190   3.273
19037TIP3    H178602   2.446   6.126   3.304
19037TIP3    H278603   2.552   6.147   3.198
19038TIP3   OH278604   4.851   5.099  14.010
19038TIP3    H178605   4.930   5.119  14.062
19038TIP3    H278606   4.877   5.027  13.954
19039TIP3   OH278607   2.811   1.307   2.390
19039TIP3    H178608   2.796   1.213   2.390
19039TIP3    H278609   2.899   1.317   2.426
19040TIP3   OH278610   6.423   2.277  16.626
19040TIP3    H178611   6.470   2.266  16.709
19040TIP3    H278612   6.331   2.283  16.651
19041TIP3   OH278613   4.097   3.622  10.530
19041TIP3    H178614   4.112   3.538  10.488
19041TIP3    H278615   4.078   3.682  10.458
19042TIP3   OH278616   1.600   5.783  13.487
19042TIP3    H178617   1.516   5.739  13.474
19042TIP3    H278618   1.585   5.873  13.459
19043TIP3   OH278619   6.333   3.139  16.749
19043TIP3    H178620   6.374   3.068  16.699
19043TIP3    H278621   6.368   3.129  16.837
19044TIP3   OH278622   2.758   0.127  13.528
19044TIP3    H178623   2.674   0.154  13.491
19044TIP3    H278624   2.784   0.201  13.583
19045TIP3   OH278625   4.786   1.992   4.369
19045TIP3    H178626   4.868   2.039   4.383
19045TIP3    H278627   4.812   1.912   4.323
19046TIP3   OH278628   4.011   0.859   5.428
19046TIP3    H178629   4.101   0.861   5.460
19046TIP3    H278630   4.018   0.889   5.337
19047TIP3   OH278631   1.275   6.802   3.428
19047TIP3    H178632   1.183   6.824   3.444
19047TIP3    H278633   1.274   6.708   3.411
19048TIP3   OH278634   1.449   6.675  12.129
19048TIP3    H178635   1.410   6.632  12.205
19048TIP3    H278636   1.450   6.608  12.061
19049TIP3   OH278637   3.173   4.239   0.146
19049TIP3    H178638   3.231   4.168   0.118
19049TIP3    H278639   3.151   4.217   0.237
19050TIP3   OH278640   0.552   3.119  15.458
19050TIP3    H178641   0.637   3.109  15.502
19050TIP3    H278642   0.538   3.036  15.412
19051TIP3   OH278643   0.187   3.810  12.828
19051TIP3    H178644   0.236   3.788  12.749
19051TIP3    H278645   0.220   3.896  12.854
19052TIP3   OH278646   4.998   0.613   2.369
19052TIP3    H178647   4.926   0.593   2.428
19052TIP3    H278648   5.057   0.538   2.376
19053TIP3   OH278649   6.605   4.158   1.842
19053TIP3    H178650   6.587   4.068   1.868
19053TIP3    H278651   6.527   4.207   1.868
19054TIP3   OH278652   1.151   5.710  13.219
19054TIP3    H178653   1.155   5.615  13.211
19054TIP3    H278654   1.189   5.729  13.306
19055TIP3   OH278655   0.061   6.720  12.987
19055TIP3    H178656   0.116   6.784  12.942
19055TIP3    H278657  -0.027   6.756  12.983
19056TIP3   OH278658   4.825   0.314   5.296
19056TIP3    H178659   4.775   0.346   5.221
19056TIP3    H278660   4.916   0.317   5.267
19057TIP3   OH278661   2.265   4.519  14.359
19057TIP3    H178662   2.298   4.441  14.314
19057TIP3    H278663   2.184   4.491  14.400
19058TIP3   OH278664   0.203   6.433   1.269
19058TIP3    H178665   0.281   6.436   1.213
19058TIP3    H278666   0.227   6.374   1.340
19059TIP3   OH278667   2.254   1.357   6.094
19059TIP3    H178668   2.252   1.392   6.183
19059TIP3    H278669   2.305   1.421   6.045
19060TIP3   OH278670   2.966   1.754  12.446
19060TIP3    H178671   3.048   1.709  12.426
19060TIP3    H278672   2.986   1.847  12.434
19061TIP3   OH278673   1.777   2.131   4.597
19061TIP3    H178674   1.687   2.159   4.581
19061TIP3    H278675   1.805   2.183   4.672
19062TIP3   OH278676   3.625   6.337   1.877
19062TIP3    H178677   3.694   6.351   1.812
19062TIP3    H278678   3.658   6.266   1.932
19063TIP3   OH278679   2.382   0.241   0.061
19063TIP3    H178680   2.434   0.182   0.007
19063TIP3    H278681   2.292   0.208   0.052
19064TIP3   OH278682   2.992   5.860   2.996
19064TIP3    H178683   3.046   5.936   3.018
19064TIP3    H278684   2.917   5.897   2.949
19065TIP3   OH278685   5.280   0.455  15.376
19065TIP3    H178686   5.195   0.475  15.414
19065TIP3    H278687   5.280   0.500  15.291
19066TIP3   OH278688   0.941   5.372   4.933
19066TIP3    H178689   0.853   5.407   4.918
19066TIP3    H278690   1.000   5.439   4.900
19067TIP3   OH278691   2.117   3.581  12.587
19067TIP3    H178692   2.136   3.554  12.677
19067TIP3    H278693   2.081   3.502  12.546
19068TIP3   OH278694   4.777   5.875   2.737
19068TIP3    H178695   4.847   5.844   2.795
19068TIP3    H278696   4.791   5.970   2.732
19069TIP3   OH278697   6.181   1.695   3.799
19069TIP3    H178698   6.216   1.631   3.861
19069TIP3    H278699   6.122   1.646   3.743
19070TIP3   OH278700   0.324   3.274   1.478
19070TIP3    H178701   0.268   3.206   1.439
19070TIP3    H278702   0.317   3.348   1.417
19071TIP3   OH278703   0.332   3.212  11.169
19071TIP3    H178704   0.395   3.154  11.211
19071TIP3    H278705   0.379   3.295  11.158
19072TIP3   OH278706   3.832   6.387   4.600
19072TIP3    H178707   3.814   6.400   4.694
19072TIP3    H278708   3.905   6.326   4.598
19073TIP3   OH278709   2.669   5.903   6.206
19073TIP3    H178710   2.599   5.849   6.244
19073TIP3    H278711   2.625   5.955   6.139
19074TIP3   OH278712   2.146   4.746  11.794
19074TIP3    H178713   2.106   4.659  11.788
19074TIP3    H278714   2.113   4.782  11.876
19075TIP3   OH278715   6.048   5.743   4.151
19075TIP3    H178716   6.137   5.775   4.142
19075TIP3    H278717   6.007   5.804   4.213
19076TIP3   OH278718   4.200   4.243  11.595
19076TIP3    H178719   4.231   4.326  11.558
19076TIP3    H278720   4.127   4.217  11.539
19077TIP3   OH278721   2.323   5.336   2.676
19077TIP3    H178722   2.346   5.412   2.730
19077TIP3    H278723   2.265   5.370   2.609
19078TIP3   OH278724   3.389   1.506   3.977
19078TIP3    H178725   3.349   1.591   3.999
19078TIP3    H278726   3.314   1.447   3.967
19079TIP3   OH278727   5.969   5.929   6.191
19079TIP3    H178728   5.934   5.951   6.104
19079TIP3    H278729   5.901   5.957   6.252
19080TIP3   OH278730   0.662   6.435   0.428
19080TIP3    H178731   0.637   6.357   0.378
19080TIP3    H278732   0.638   6.415   0.518
19081TIP3   OH278733   6.199   5.665   3.081
19081TIP3    H178734   6.165   5.603   3.144
19081TIP3    H278735   6.152   5.646   3.000
19082TIP3   OH278736   0.712   0.857   4.113
19082TIP3    H178737   0.697   0.912   4.190
19082TIP3    H278738   0.690   0.768   4.143
19083TIP3   OH278739   0.807   4.066   2.101
19083TIP3    H178740   0.827   4.146   2.052
19083TIP3    H278741   0.747   4.093   2.170
19084TIP3   OH278742   6.603   6.379  17.014
19084TIP3    H178743   6.665   6.437  16.971
19084TIP3    H278744   6.551   6.343  16.942
19085TIP3   OH278745   1.235   0.503   0.919
19085TIP3    H178746   1.260   0.415   0.890
19085TIP3    H278747   1.289   0.562   0.866
19086TIP3   OH278748   6.491   4.985  13.670
19086TIP3    H178749   6.571   4.960  13.716
19086TIP3    H278750   6.499   4.946  13.583
19087TIP3   OH278751   4.912   1.086  10.719
19087TIP3    H178752   4.997   1.128  10.706
19087TIP3    H278753   4.923   1.031  10.797
19088TIP3   OH278754   5.088   2.004   4.451
19088TIP3    H178755   5.172   2.045   4.432
19088TIP3    H278756   5.107   1.943   4.523
19089TIP3   OH278757   5.054   3.060  12.400
19089TIP3    H178758   5.017   3.023  12.480
19089TIP3    H278759   5.119   3.123  12.430
19090TIP3   OH278760   3.331   0.267  16.937
19090TIP3    H178761   3.241   0.260  16.905
19090TIP3    H278762   3.386   0.249  16.860
19091TIP3   OH278763   2.564   0.400   2.345
19091TIP3    H178764   2.579   0.311   2.314
19091TIP3    H278765   2.619   0.454   2.288
19092TIP3   OH278766   0.826   6.819  11.556
19092TIP3    H178767   0.846   6.817  11.650
19092TIP3    H278768   0.910   6.807  11.513
19093TIP3   OH278769   0.572   3.527   4.134
19093TIP3    H178770   0.538   3.493   4.051
19093TIP3    H278771   0.617   3.608   4.110
19094TIP3   OH278772   1.179   4.207   1.197
19094TIP3    H178773   1.221   4.293   1.196
19094TIP3    H278774   1.235   4.152   1.143
19095TIP3   OH278775   0.899   2.757   0.448
19095TIP3    H178776   0.986   2.744   0.486
19095TIP3    H278777   0.907   2.835   0.394
19096TIP3   OH278778   5.539   3.461   0.845
19096TIP3    H178779   5.567   3.531   0.904
19096TIP3    H278780   5.613   3.399   0.844
19097TIP3   OH278781   2.287   5.558   4.484
19097TIP3    H178782   2.195   5.563   4.457
19097TIP3    H278783   2.291   5.608   4.566
19098TIP3   OH278784   6.314   4.066  12.653
19098TIP3    H178785   6.250   4.100  12.591
19098TIP3    H278786   6.373   4.140  12.670
19099TIP3   OH278787   5.235   3.119  12.677
19099TIP3    H178788   5.274   3.048  12.626
19099TIP3    H278789   5.227   3.084  12.766
19100TIP3   OH278790   2.208   1.829  16.486
19100TIP3    H178791   2.295   1.838  16.524
19100TIP3    H278792   2.160   1.773  16.547
19101TIP3   OH278793   5.767   1.886  15.537
19101TIP3    H178794   5.747   1.803  15.580
19101TIP3    H278795   5.689   1.907  15.486
19102TIP3   OH278796   6.684   3.432  16.534
19102TIP3    H178797   6.690   3.502  16.599
19102TIP3    H278798   6.731   3.358  16.573
19103TIP3   OH278799   1.488   0.881   5.483
19103TIP3    H178800   1.502   0.837   5.399
19103TIP3    H278801   1.433   0.956   5.462
19104TIP3   OH278802   3.229   5.472   2.006
19104TIP3    H178803   3.249   5.378   2.015
19104TIP3    H278804   3.291   5.515   2.064
19105TIP3   OH278805   0.395   3.481  11.045
19105TIP3    H178806   0.461   3.537  11.085
19105TIP3    H278807   0.425   3.469  10.955
19106TIP3   OH278808   1.738   0.818  12.010
19106TIP3    H178809   1.757   0.909  12.034
19106TIP3    H278810   1.810   0.768  12.049
19107TIP3   OH278811   3.672   1.679   2.453
19107TIP3    H178812   3.586   1.711   2.427
19107TIP3    H278813   3.725   1.686   2.374
19108TIP3   OH278814   5.259   3.696  17.229
19108TIP3    H178815   5.267   3.731  17.140
19108TIP3    H278816   5.278   3.603  17.220
19109TIP3   OH278817   3.017   3.258   0.407
19109TIP3    H178818   3.003   3.183   0.348
19109TIP3    H278819   3.001   3.223   0.494
19110TIP3   OH278820   6.529   6.148  14.411
19110TIP3    H178821   6.539   6.096  14.331
19110TIP3    H278822   6.618   6.171  14.436
19111TIP3   OH278823   2.086   3.208   6.525
19111TIP3    H178824   2.181   3.212   6.519
19111TIP3    H278825   2.066   3.115   6.522
19112TIP3   OH278826   2.962   3.468   0.202
19112TIP3    H178827   2.975   3.403   0.271
19112TIP3    H278828   3.038   3.526   0.208
19113TIP3   OH278829   4.644   4.153   2.151
19113TIP3    H178830   4.563   4.102   2.160
19113TIP3    H278831   4.614   4.238   2.119
19114TIP3   OH278832   4.143   1.074  12.358
19114TIP3    H178833   4.219   1.130  12.375
19114TIP3    H278834   4.069   1.135  12.355
19115TIP3   OH278835   3.002   1.994  11.995
19115TIP3    H178836   2.951   1.921  11.961
19115TIP3    H278837   3.058   1.955  12.062
19116TIP3   OH278838   2.332   4.849  10.158
19116TIP3    H178839   2.299   4.905  10.088
19116TIP3    H278840   2.385   4.783  10.114
19117TIP3   OH278841   3.317   2.930   1.038
19117TIP3    H178842   3.373   3.005   1.055
19117TIP3    H278843   3.344   2.865   1.103
19118TIP3   OH278844   6.589   1.516  13.208
19118TIP3    H178845   6.612   1.467  13.130
19118TIP3    H278846   6.673   1.531  13.253
19119TIP3   OH278847   5.627   0.356  11.631
19119TIP3    H178848   5.575   0.340  11.710
19119TIP3    H278849   5.703   0.405  11.662
19120TIP3   OH278850   3.043   3.695  11.099
19120TIP3    H178851   3.059   3.622  11.038
19120TIP3    H278852   3.048   3.655  11.186
19121TIP3   OH278853   6.794   6.686   0.120
19121TIP3    H178854   6.741   6.607   0.109
19121TIP3    H278855   6.854   6.685   0.046
19122TIP3   OH278856   3.462   6.290  15.197
19122TIP3    H178857   3.451   6.334  15.281
19122TIP3    H278858   3.453   6.197  15.217
19123TIP3   OH278859   4.197   5.564   4.285
19123TIP3    H178860   4.222   5.487   4.233
19123TIP3    H278861   4.271   5.624   4.275
19124TIP3   OH278862   4.392   4.929  13.381
19124TIP3    H178863   4.450   4.986  13.431
19124TIP3    H278864   4.359   4.866  13.445
19125TIP3   OH278865   2.573   4.705   5.687
19125TIP3    H178866   2.599   4.789   5.650
19125TIP3    H278867   2.643   4.682   5.747
19126TIP3   OH278868   5.250   5.085  13.927
19126TIP3    H178869   5.240   4.990  13.936
19126TIP3    H278870   5.316   5.096  13.858
19127TIP3   OH278871   2.190   4.760   3.798
19127TIP3    H178872   2.135   4.830   3.832
19127TIP3    H278873   2.276   4.775   3.838
19128TIP3   OH278874   3.399   3.013   1.681
19128TIP3    H178875   3.425   3.041   1.768
19128TIP3    H278876   3.334   3.078   1.653
19129TIP3   OH278877   1.207   6.407  16.673
19129TIP3    H178878   1.125   6.398  16.722
19129TIP3    H278879   1.193   6.355  16.593
19130TIP3   OH278880   3.547   1.928  16.455
19130TIP3    H178881   3.529   2.009  16.503
19130TIP3    H278882   3.643   1.923  16.453
19131TIP3   OH278883   0.277   4.912   4.009
19131TIP3    H178884   0.294   4.830   4.055
19131TIP3    H278885   0.318   4.901   3.923
19132TIP3   OH278886   1.510   2.879   5.718
19132TIP3    H178887   1.546   2.966   5.733
19132TIP3    H278888   1.501   2.872   5.623
19133TIP3   OH278889   4.503   2.394   0.961
19133TIP3    H178890   4.584   2.368   0.916
19133TIP3    H278891   4.474   2.314   1.005
19134TIP3   OH278892   5.527   4.667  13.390
19134TIP3    H178893   5.432   4.665  13.400
19134TIP3    H278894   5.541   4.714  13.308
19135TIP3   OH278895   3.675   6.445   5.391
19135TIP3    H178896   3.763   6.441   5.352
19135TIP3    H278897   3.691   6.440   5.486
19136TIP3   OH278898   2.356   3.833   2.618
19136TIP3    H178899   2.386   3.902   2.677
19136TIP3    H278900   2.349   3.876   2.533
19137TIP3   OH278901   1.167   3.756   1.778
19137TIP3    H178902   1.100   3.751   1.847
19137TIP3    H278903   1.248   3.729   1.821
19138TIP3   OH278904   4.834   4.229  13.532
19138TIP3    H178905   4.914   4.276  13.555
19138TIP3    H278906   4.841   4.146  13.579
19139TIP3   OH278907   5.288   4.507  16.919
19139TIP3    H178908   5.333   4.430  16.885
19139TIP3    H278909   5.287   4.494  17.014
19140TIP3   OH278910   3.972   6.463   1.427
19140TIP3    H178911   4.031   6.389   1.415
19140TIP3    H278912   3.974   6.481   1.521
19141TIP3   OH278913   3.425   4.446  16.256
19141TIP3    H178914   3.516   4.469  16.237
19141TIP3    H278915   3.374   4.505  16.202
19142TIP3   OH278916   4.550   6.449   3.372
19142TIP3    H178917   4.628   6.393   3.367
19142TIP3    H278918   4.496   6.409   3.440
19143TIP3   OH278919   3.790   5.155  12.040
19143TIP3    H178920   3.864   5.177  12.096
19143TIP3    H278921   3.829   5.118  11.961
19144TIP3   OH278922   1.835   1.983  16.599
19144TIP3    H178923   1.804   1.928  16.528
19144TIP3    H278924   1.880   1.923  16.659
19145TIP3   OH278925   1.274   3.419  16.584
19145TIP3    H178926   1.282   3.459  16.497
19145TIP3    H278927   1.212   3.476  16.630
19146TIP3   OH278928   0.819   1.785  13.130
19146TIP3    H178929   0.842   1.715  13.069
19146TIP3    H278930   0.778   1.852  13.075
19147TIP3   OH278931   4.368   6.015   0.971
19147TIP3    H178932   4.451   6.056   0.945
19147TIP3    H278933   4.310   6.089   0.989
19148TIP3   OH278934   0.690   6.472  14.565
19148TIP3    H178935   0.714   6.545  14.622
19148TIP3    H278936   0.639   6.512  14.494
19149TIP3   OH278937   4.503   4.364  16.914
19149TIP3    H178938   4.423   4.375  16.966
19149TIP3    H278939   4.551   4.295  16.960
19150TIP3   OH278940   4.868   2.961   1.987
19150TIP3    H178941   4.797   2.957   2.051
19150TIP3    H278942   4.880   3.055   1.970
19151TIP3   OH278943   2.716   2.707  12.047
19151TIP3    H178944   2.707   2.624  12.094
19151TIP3    H278945   2.748   2.769  12.114
19152TIP3   OH278946   6.121   0.466   2.692
19152TIP3    H178947   6.087   0.403   2.755
19152TIP3    H278948   6.204   0.497   2.730
19153TIP3   OH278949   0.431   2.549  15.731
19153TIP3    H178950   0.347   2.581  15.764
19153TIP3    H278951   0.434   2.579  15.640
19154TIP3   OH278952   3.898   5.111   2.213
19154TIP3    H178953   3.901   5.120   2.118
19154TIP3    H278954   3.857   5.025   2.227
19155TIP3   OH278955   6.045   0.822  13.199
19155TIP3    H178956   5.964   0.868  13.176
19155TIP3    H278957   6.113   0.889  13.192
19156TIP3   OH278958   0.243   3.347   0.582
19156TIP3    H178959   0.271   3.313   0.497
19156TIP3    H278960   0.168   3.293   0.606
19157TIP3   OH278961   4.808   5.812   2.031
19157TIP3    H178962   4.804   5.808   1.935
19157TIP3    H278963   4.901   5.820   2.051
19158TIP3   OH278964   0.096   0.523  12.759
19158TIP3    H178965   0.152   0.454  12.725
19158TIP3    H278966   0.008   0.484  12.760
19159TIP3   OH278967   0.618   6.411  12.262
19159TIP3    H178968   0.546   6.354  12.236
19159TIP3    H278969   0.577   6.482  12.311
19160TIP3   OH278970   0.747   6.559   4.772
19160TIP3    H178971   0.811   6.488   4.782
19160TIP3    H278972   0.671   6.516   4.734
19161TIP3   OH278973   2.740   0.441  13.320
19161TIP3    H178974   2.823   0.402  13.349
19161TIP3    H278975   2.675   0.372  13.333
19162TIP3   OH278976   4.360   6.384  15.592
19162TIP3    H178977   4.265   6.382  15.589
19162TIP3    H278978   4.382   6.335  15.672
19163TIP3   OH278979   1.956   0.291   1.140
19163TIP3    H178980   2.043   0.278   1.179
19163TIP3    H278981   1.959   0.380   1.105
19164TIP3   OH278982   4.455   3.292   4.214
19164TIP3    H178983   4.439   3.201   4.189
19164TIP3    H278984   4.389   3.342   4.165
19165TIP3   OH278985   1.789   2.584   6.209
19165TIP3    H178986   1.700   2.551   6.191
19165TIP3    H278987   1.779   2.680   6.208
19166TIP3   OH278988   3.827   0.208  11.652
19166TIP3    H178989   3.737   0.183  11.672
19166TIP3    H278990   3.865   0.130  11.611
19167TIP3   OH278991   0.383   0.889   4.783
19167TIP3    H178992   0.471   0.857   4.804
19167TIP3    H278993   0.337   0.813   4.747
19168TIP3   OH278994   6.071   1.127   3.794
19168TIP3    H178995   6.055   1.070   3.719
19168TIP3    H278996   5.989   1.124   3.844
19169TIP3   OH278997   5.413   3.587  12.510
19169TIP3    H178998   5.354   3.623  12.444
19169TIP3    H278999   5.355   3.563  12.583
19170TIP3   OH279000   6.553   0.574  13.256
19170TIP3    H179001   6.553   0.501  13.194
19170TIP3    H279002   6.511   0.646  13.209
19171TIP3   OH279003   2.613   4.872   4.335
19171TIP3    H179004   2.550   4.909   4.396
19171TIP3    H279005   2.586   4.905   4.249
19172TIP3   OH279006   2.798   4.294   2.191
19172TIP3    H179007   2.820   4.384   2.215
19172TIP3    H279008   2.726   4.270   2.249
19173TIP3   OH279009   6.411   3.222  13.686
19173TIP3    H179010   6.506   3.227  13.695
19173TIP3    H279011   6.396   3.188  13.598
19174TIP3   OH279012   0.293   4.234  14.179
19174TIP3    H179013   0.232   4.166  14.151
19174TIP3    H279014   0.358   4.188  14.232
19175TIP3   OH279015   1.494   0.409  12.881
19175TIP3    H179016   1.512   0.455  12.964
19175TIP3    H279017   1.529   0.467  12.814
19176TIP3   OH279018   1.163   3.071   4.491
19176TIP3    H179019   1.078   3.026   4.492
19176TIP3    H279020   1.144   3.157   4.452
19177TIP3   OH279021   2.102   2.466   5.568
19177TIP3    H179022   2.034   2.443   5.632
19177TIP3    H279023   2.119   2.559   5.583
19178TIP3   OH279024   4.717   1.202  12.376
19178TIP3    H179025   4.795   1.179  12.426
19178TIP3    H279026   4.645   1.160  12.423
19179TIP3   OH279027   5.607   2.596   1.845
19179TIP3    H179028   5.669   2.616   1.774
19179TIP3    H279029   5.596   2.501   1.841
19180TIP3   OH279030   4.854   1.143   2.149
19180TIP3    H179031   4.763   1.147   2.120
19180TIP3    H279032   4.904   1.178   2.075
19181TIP3   OH279033   5.379   0.699  12.191
19181TIP3    H179034   5.474   0.694  12.203
19181TIP3    H279035   5.364   0.785  12.152
19182TIP3   OH279036   3.425   1.118  17.005
19182TIP3    H179037   3.421   1.045  16.943
19182TIP3    H279038   3.370   1.089  17.078
19183TIP3   OH279039   4.561   5.409   0.204
19183TIP3    H179040   4.504   5.333   0.213
19183TIP3    H279041   4.548   5.439   0.114
19184TIP3   OH279042   4.642   1.319   3.966
19184TIP3    H179043   4.607   1.245   3.917
19184TIP3    H279044   4.567   1.353   4.015
19185TIP3   OH279045   6.173   3.631  14.334
19185TIP3    H179046   6.254   3.580  14.334
19185TIP3    H279047   6.149   3.638  14.242
19186TIP3   OH279048   0.160   5.918   2.117
19186TIP3    H179049   0.088   5.856   2.103
19186TIP3    H279050   0.231   5.864   2.152
19187TIP3   OH279051   2.706   1.537  17.184
19187TIP3    H179052   2.721   1.495  17.268
19187TIP3    H279053   2.789   1.527  17.136
19188TIP3   OH279054   0.945   6.212   4.417
19188TIP3    H179055   1.030   6.221   4.374
19188TIP3    H279056   0.884   6.259   4.361
19189TIP3   OH279057   1.008   2.204   1.690
19189TIP3    H179058   1.022   2.134   1.754
19189TIP3    H279059   1.084   2.201   1.633
19190TIP3   OH279060   4.894   3.894   5.876
19190TIP3    H179061   4.837   3.830   5.833
19190TIP3    H279062   4.839   3.971   5.887
19191TIP3   OH279063   2.209   5.771  12.984
19191TIP3    H179064   2.296   5.759  12.946
19191TIP3    H279065   2.209   5.862  13.015
19192TIP3   OH279066   2.357   3.406   5.886
19192TIP3    H179067   2.324   3.358   5.962
19192TIP3    H279068   2.280   3.450   5.850
19193TIP3   OH279069   6.333   1.489  13.390
19193TIP3    H179070   6.285   1.572  13.386
19193TIP3    H279071   6.397   1.495  13.319
19194TIP3   OH279072   5.183   2.767  14.281
19194TIP3    H179073   5.215   2.677  14.286
19194TIP3    H279074   5.247   2.812  14.226
19195TIP3   OH279075   2.714   6.634  11.227
19195TIP3    H179076   2.633   6.649  11.178
19195TIP3    H279077   2.760   6.566  11.177
19196TIP3   OH279078   6.625   3.443  14.132
19196TIP3    H179079   6.671   3.412  14.210
19196TIP3    H279080   6.658   3.532  14.119
19197TIP3   OH279081   5.395   3.112   3.744
19197TIP3    H179082   5.474   3.060   3.729
19197TIP3    H279083   5.338   3.056   3.797
19198TIP3   OH279084   0.396   6.791  11.142
19198TIP3    H179085   0.449   6.870  11.150
19198TIP3    H279086   0.319   6.818  11.092
19199TIP3   OH279087   0.718   2.678  12.278
19199TIP3    H179088   0.773   2.611  12.237
19199TIP3    H279089   0.770   2.758  12.274
19200TIP3   OH279090   0.511   4.198  15.712
19200TIP3    H179091   0.582   4.263  15.713
19200TIP3    H279092   0.432   4.249  15.699
19201TIP3   OH279093   0.177   0.350   4.688
19201TIP3    H179094   0.145   0.345   4.779
19201TIP3    H279095   0.154   0.266   4.650
19202TIP3   OH279096   0.901   4.202  15.995
19202TIP3    H179097   0.827   4.246  16.036
19202TIP3    H279098   0.941   4.269  15.939
19203TIP3   OH279099   3.834   5.241  13.840
19203TIP3    H179100   3.781   5.164  13.823
19203TIP3    H279101   3.798   5.309  13.784
19204TIP3   OH279102   6.418   2.516   2.205
19204TIP3    H179103   6.497   2.534   2.154
19204TIP3    H279104   6.346   2.545   2.149
19205TIP3   OH279105   1.783   5.018  14.479
19205TIP3    H179106   1.740   5.011  14.394
19205TIP3    H279107   1.869   4.977  14.465
19206TIP3   OH279108   4.404   3.621   3.033
19206TIP3    H179109   4.473   3.582   3.087
19206TIP3    H279110   4.434   3.610   2.943
19207TIP3   OH279111   3.095   3.298  14.114
19207TIP3    H179112   3.030   3.333  14.054
19207TIP3    H279113   3.046   3.275  14.193
19208TIP3   OH279114   6.374   0.624   2.546
19208TIP3    H179115   6.338   0.583   2.625
19208TIP3    H279116   6.468   0.605   2.550
19209TIP3   OH279117   2.103   1.759   5.809
19209TIP3    H179118   2.070   1.820   5.743
19209TIP3    H279119   2.145   1.815   5.874
19210TIP3   OH279120   1.044   1.440  11.972
19210TIP3    H179121   0.975   1.438  11.906
19210TIP3    H279122   1.050   1.350  12.004
19211TIP3   OH279123   4.311   0.629  10.964
19211TIP3    H179124   4.268   0.714  10.954
19211TIP3    H279125   4.263   0.571  10.905
19212TIP3   OH279126   3.696   5.899   4.143
19212TIP3    H179127   3.763   5.957   4.182
19212TIP3    H279128   3.722   5.811   4.170
19213TIP3   OH279129   4.092   0.068   1.371
19213TIP3    H179130   4.088  -0.015   1.324
19213TIP3    H279131   4.044   0.129   1.315
19214TIP3   OH279132   1.264   3.045   2.157
19214TIP3    H179133   1.263   2.949   2.151
19214TIP3    H279134   1.228   3.074   2.074
19215TIP3   OH279135   1.393   2.188   2.302
19215TIP3    H179136   1.402   2.095   2.319
19215TIP3    H279137   1.478   2.214   2.265
19216TIP3   OH279138   3.534   4.797  15.120
19216TIP3    H179139   3.545   4.861  15.191
19216TIP3    H279140   3.563   4.715  15.158
19217TIP3   OH279141   1.059   1.616  15.811
19217TIP3    H179142   1.047   1.637  15.904
19217TIP3    H279143   1.037   1.697  15.766
19218TIP3   OH279144   6.498   1.872  11.687
19218TIP3    H179145   6.446   1.907  11.760
19218TIP3    H279146   6.492   1.777  11.698
19219TIP3   OH279147   1.648   2.609   0.376
19219TIP3    H179148   1.615   2.546   0.441
19219TIP3    H279149   1.741   2.618   0.398
19220TIP3   OH279150   5.586   1.450  11.699
19220TIP3    H179151   5.673   1.476  11.728
19220TIP3    H279152   5.532   1.451  11.778
19221TIP3   OH279153   1.117   6.762  11.947
19221TIP3    H179154   1.157   6.760  11.860
19221TIP3    H279155   1.158   6.689  11.994
19222TIP3   OH279156   4.640   2.596  14.116
19222TIP3    H179157   4.593   2.513  14.117
19222TIP3    H279158   4.583   2.655  14.066
19223TIP3   OH279159   2.500   5.450  12.033
19223TIP3    H179160   2.513   5.373  11.978
19223TIP3    H279161   2.581   5.500  12.024
19224TIP3   OH279162   3.063   6.810   4.668
19224TIP3    H179163   3.092   6.723   4.697
19224TIP3    H279164   3.078   6.810   4.574
19225TIP3   OH279165   5.274   1.076  11.045
19225TIP3    H179166   5.286   1.163  11.007
19225TIP3    H279167   5.218   1.030  10.983
19226TIP3   OH279168   1.135   3.090   1.101
19226TIP3    H179169   1.125   3.144   1.180
19226TIP3    H279170   1.130   3.152   1.028
19227TIP3   OH279171   2.508   0.832  13.767
19227TIP3    H179172   2.501   0.860  13.858
19227TIP3    H279173   2.536   0.910  13.720
19228TIP3   OH279174   6.114   3.010   5.445
19228TIP3    H179175   6.023   3.040   5.443
19228TIP3    H279176   6.111   2.929   5.496
19229TIP3   OH279177   5.336   0.806   5.252
19229TIP3    H179178   5.382   0.793   5.169
19229TIP3    H279179   5.405   0.814   5.317
19230TIP3   OH279180   2.869   1.112   1.706
19230TIP3    H179181   2.879   1.133   1.613
19230TIP3    H279182   2.894   1.020   1.713
19231TIP3   OH279183   0.054   5.237  12.885
19231TIP3    H179184   0.096   5.170  12.940
19231TIP3    H279185   0.108   5.240  12.806
19232TIP3   OH279186   1.912   5.986   0.738
19232TIP3    H179187   1.847   6.030   0.794
19232TIP3    H279188   1.913   6.038   0.658
19233TIP3   OH279189   0.971   0.873   0.644
19233TIP3    H179190   1.066   0.878   0.657
19233TIP3    H279191   0.961   0.841   0.554
19234TIP3   OH279192   1.926   2.101  15.681
19234TIP3    H179193   2.021   2.108  15.671
19234TIP3    H279194   1.914   2.048  15.759
19235TIP3   OH279195   2.230   2.518   5.869
19235TIP3    H179196   2.276   2.536   5.951
19235TIP3    H279197   2.137   2.527   5.891
19236TIP3   OH279198   3.881   6.237  15.393
19236TIP3    H179199   3.941   6.220  15.321
19236TIP3    H279200   3.888   6.331  15.409
19237TIP3   OH279201   4.966   4.461   3.158
19237TIP3    H179202   4.897   4.522   3.182
19237TIP3    H279203   4.960   4.454   3.063
19238TIP3   OH279204   5.106   2.501  10.293
19238TIP3    H179205   5.182   2.450  10.266
19238TIP3    H279206   5.032   2.458  10.251
19239TIP3   OH279207   6.218   5.819   4.693
19239TIP3    H179208   6.256   5.904   4.715
19239TIP3    H279209   6.208   5.774   4.778
19240TIP3   OH279210   0.793   1.820   2.994
19240TIP3    H179211   0.728   1.764   3.036
19240TIP3    H279212   0.871   1.811   3.048
19241TIP3   OH279213   6.638   4.214  11.898
19241TIP3    H179214   6.560   4.184  11.852
19241TIP3    H279215   6.623   4.307  11.915
19242TIP3   OH279216   3.960   0.900   5.785
19242TIP3    H179217   3.958   0.847   5.866
19242TIP3    H279218   3.934   0.839   5.717
19243TIP3   OH279219   0.526   4.321  12.283
19243TIP3    H179220   0.508   4.415  12.290
19243TIP3    H279221   0.465   4.280  12.344
19244TIP3   OH279222   4.650   6.312   2.391
19244TIP3    H179223   4.603   6.346   2.467
19244TIP3    H279224   4.732   6.277   2.426
19245TIP3   OH279225   1.935   1.413  17.184
19245TIP3    H179226   1.927   1.336  17.240
19245TIP3    H279227   2.000   1.388  17.118
19246TIP3   OH279228   0.804   4.925   6.010
19246TIP3    H179229   0.759   5.004   6.042
19246TIP3    H279230   0.853   4.955   5.934
19247TIP3   OH279231   6.733   0.882   2.913
19247TIP3    H179232   6.826   0.859   2.913
19247TIP3    H279233   6.722   0.937   2.836
19248TIP3   OH279234   5.670   0.092   3.405
19248TIP3    H179235   5.714   0.017   3.445
19248TIP3    H279236   5.599   0.114   3.465
19249TIP3   OH279237   4.889   4.272   4.840
19249TIP3    H179238   4.852   4.342   4.893
19249TIP3    H279239   4.843   4.277   4.757
19250TIP3   OH279240   3.632   2.546   5.203
19250TIP3    H179241   3.637   2.460   5.161
19250TIP3    H279242   3.721   2.579   5.202
19251TIP3   OH279243   6.511   3.610   3.834
19251TIP3    H179244   6.509   3.527   3.786
19251TIP3    H279245   6.599   3.613   3.873
19252TIP3   OH279246   0.633   4.376  17.008
19252TIP3    H179247   0.591   4.363  16.923
19252TIP3    H279248   0.685   4.456  16.997
19253TIP3   OH279249   3.941   3.312  14.554
19253TIP3    H179250   3.866   3.352  14.510
19253TIP3    H279251   4.017   3.355  14.515
19254TIP3   OH279252   2.204   6.288  16.223
19254TIP3    H179253   2.247   6.282  16.308
19254TIP3    H279254   2.276   6.302  16.161
19255TIP3   OH279255   5.802   3.972  15.750
19255TIP3    H179256   5.840   3.911  15.814
19255TIP3    H279257   5.874   4.032  15.729
19256TIP3   OH279258   3.460   5.810   3.380
19256TIP3    H179259   3.506   5.786   3.300
19256TIP3    H279260   3.505   5.761   3.449
19257TIP3   OH279261   1.028   1.432  15.117
19257TIP3    H179262   1.059   1.396  15.034
19257TIP3    H279263   1.054   1.524  15.114
19258TIP3   OH279264   3.369   5.797  14.394
19258TIP3    H179265   3.385   5.798  14.300
19258TIP3    H279266   3.313   5.873  14.409
19259TIP3   OH279267   2.947   3.149  16.006
19259TIP3    H179268   2.864   3.147  15.959
19259TIP3    H279269   2.937   3.085  16.076
19260TIP3   OH279270   6.299   1.460   3.223
19260TIP3    H179271   6.395   1.467   3.230
19260TIP3    H279272   6.267   1.491   3.308
19261TIP3   OH279273   3.369   6.137   1.437
19261TIP3    H179274   3.285   6.093   1.452
19261TIP3    H279275   3.426   6.104   1.506
19262TIP3   OH279276   1.398   5.818  14.885
19262TIP3    H179277   1.465   5.842  14.949
19262TIP3    H279278   1.336   5.764  14.934
19263TIP3   OH279279   0.140   5.660  13.114
19263TIP3    H179280   0.166   5.642  13.204
19263TIP3    H279281   0.046   5.644  13.111
19264TIP3   OH279282   5.582   2.353   1.610
19264TIP3    H179283   5.576   2.448   1.611
19264TIP3    H279284   5.648   2.334   1.543
19265TIP3   OH279285   3.816   5.937  16.470
19265TIP3    H179286   3.860   6.007  16.518
19265TIP3    H279287   3.728   5.933  16.508
19266TIP3   OH279288   3.471   6.442   5.041
19266TIP3    H179289   3.503   6.532   5.054
19266TIP3    H279290   3.456   6.409   5.129
19267TIP3   OH279291   2.035   2.727   2.192
19267TIP3    H179292   2.074   2.801   2.144
19267TIP3    H279293   2.007   2.765   2.275
19268TIP3   OH279294   5.990   0.799   5.553
19268TIP3    H179295   6.068   0.745   5.565
19268TIP3    H279296   5.939   0.783   5.633
19269TIP3   OH279297   3.965   3.387   2.819
19269TIP3    H179298   3.914   3.451   2.769
19269TIP3    H279299   4.032   3.440   2.863
19270TIP3   OH279300   6.478   5.536   6.016
19270TIP3    H179301   6.423   5.473   5.970
19270TIP3    H279302   6.442   5.622   5.990
19271TIP3   OH279303   6.019   2.703  12.452
19271TIP3    H179304   6.034   2.704  12.357
19271TIP3    H279305   6.091   2.651  12.487
19272TIP3   OH279306   4.610   1.417  13.913
19272TIP3    H179307   4.564   1.336  13.934
19272TIP3    H279308   4.549   1.486  13.939
19273TIP3   OH279309   2.028   5.472   2.042
19273TIP3    H179310   1.942   5.430   2.042
19273TIP3    H279311   2.009   5.564   2.060
19274TIP3   OH279312   0.692   3.007   2.454
19274TIP3    H179313   0.704   3.066   2.379
19274TIP3    H279314   0.598   3.014   2.474
19275TIP3   OH279315   2.540   0.801  11.752
19275TIP3    H179316   2.623   0.764  11.723
19275TIP3    H279317   2.542   0.795  11.848
19276TIP3   OH279318   1.725   2.188  15.533
19276TIP3    H179319   1.712   2.094  15.546
19276TIP3    H279320   1.807   2.208  15.579
19277TIP3   OH279321   0.147   3.099  14.999
19277TIP3    H179322   0.171   3.170  14.939
19277TIP3    H279323   0.172   3.132  15.086
19278TIP3   OH279324   1.147   4.176  13.373
19278TIP3    H179325   1.069   4.141  13.415
19278TIP3    H279326   1.114   4.224  13.297
19279TIP3   OH279327   6.142   3.713   2.716
19279TIP3    H179328   6.084   3.778   2.677
19279TIP3    H279329   6.216   3.764   2.750
19280TIP3   OH279330   6.498   1.630   4.418
19280TIP3    H179331   6.554   1.558   4.446
19280TIP3    H279332   6.551   1.708   4.431
19281TIP3   OH279333   3.880   1.322   1.707
19281TIP3    H179334   3.929   1.241   1.691
19281TIP3    H279335   3.803   1.295   1.756
19282TIP3   OH279336   3.251   0.469  15.070
19282TIP3    H179337   3.323   0.528  15.047
19282TIP3    H279338   3.199   0.518  15.134
19283TIP3   OH279339   6.294   2.095   0.450
19283TIP3    H179340   6.202   2.096   0.424
19283TIP3    H279341   6.322   2.004   0.437
19284TIP3   OH279342   3.710   6.223   2.948
19284TIP3    H179343   3.802   6.210   2.928
19284TIP3    H279344   3.698   6.187   3.036
19285TIP3   OH279345   3.580   4.885  16.655
19285TIP3    H179346   3.543   4.847  16.734
19285TIP3    H279347   3.673   4.861  16.658
19286TIP3   OH279348   2.084   4.046   4.679
19286TIP3    H179349   2.147   4.059   4.749
19286TIP3    H279350   2.000   4.036   4.724
19287TIP3   OH279351   5.144   1.207   3.219
19287TIP3    H179352   5.127   1.292   3.178
19287TIP3    H279353   5.161   1.148   3.146
19288TIP3   OH279354   2.106   0.726  13.675
19288TIP3    H179355   2.036   0.737  13.612
19288TIP3    H279356   2.090   0.641  13.716
19289TIP3   OH279357   1.861   4.678  14.605
19289TIP3    H179358   1.827   4.687  14.516
19289TIP3    H279359   1.955   4.666  14.594
19290TIP3   OH279360   1.306   1.313   4.265
19290TIP3    H179361   1.264   1.380   4.320
19290TIP3    H279362   1.379   1.359   4.224
19291TIP3   OH279363   5.343   5.390  13.795
19291TIP3    H179364   5.363   5.337  13.718
19291TIP3    H279365   5.391   5.348  13.866
19292TIP3   OH279366   2.335   0.353  10.601
19292TIP3    H179367   2.420   0.348  10.557
19292TIP3    H279368   2.292   0.428  10.561
19293TIP3   OH279369   6.373   5.702  15.593
19293TIP3    H179370   6.311   5.639  15.556
19293TIP3    H279371   6.388   5.672  15.683
19294TIP3   OH279372   5.131   5.022   1.700
19294TIP3    H179373   5.211   4.971   1.698
19294TIP3    H279374   5.157   5.106   1.737
19295TIP3   OH279375   3.123   5.506  15.134
19295TIP3    H179376   3.158   5.421  15.159
19295TIP3    H279377   3.129   5.508  15.039
19296TIP3   OH279378   2.012   3.807  11.504
19296TIP3    H179379   1.997   3.778  11.414
19296TIP3    H279380   1.968   3.891  11.510
19297TIP3   OH279381   5.991   1.773   5.493
19297TIP3    H179382   5.987   1.710   5.565
19297TIP3    H279383   5.939   1.847   5.525
19298TIP3   OH279384   5.767   4.688   1.206
19298TIP3    H179385   5.743   4.601   1.237
19298TIP3    H279386   5.758   4.683   1.110
19299TIP3   OH279387   5.193   0.193  15.965
19299TIP3    H179388   5.240   0.118  15.930
19299TIP3    H279389   5.261   0.253  15.995
19300TIP3   OH279390   3.156   3.706   5.977
19300TIP3    H179391   3.121   3.782   6.023
19300TIP3    H279392   3.225   3.673   6.034
19301TIP3   OH279393   6.607   4.603   1.557
19301TIP3    H179394   6.528   4.583   1.508
19301TIP3    H279395   6.604   4.546   1.634
19302TIP3   OH279396   1.836   0.877  15.533
19302TIP3    H179397   1.817   0.969  15.551
19302TIP3    H279398   1.762   0.830  15.571
19303TIP3   OH279399   6.032   6.727  16.339
19303TIP3    H179400   6.043   6.697  16.429
19303TIP3    H279401   5.943   6.701  16.315
19304TIP3   OH279402   4.114   3.116   1.963
19304TIP3    H179403   4.132   3.181   1.895
19304TIP3    H279404   4.162   3.038   1.935
19305TIP3   OH279405   2.333   1.804   6.245
19305TIP3    H179406   2.279   1.728   6.267
19305TIP3    H279407   2.286   1.846   6.172
19306TIP3   OH279408   1.927   4.990  13.444
19306TIP3    H179409   1.935   4.956  13.355
19306TIP3    H279410   1.912   5.084  13.433
19307TIP3   OH279411   2.094   3.886   5.704
19307TIP3    H179412   2.041   3.886   5.784
19307TIP3    H279413   2.128   3.976   5.698
19308TIP3   OH279414   2.464   0.578   5.442
19308TIP3    H179415   2.525   0.536   5.381
19308TIP3    H279416   2.453   0.667   5.407
19309TIP3   OH279417   3.729   2.657   2.935
19309TIP3    H179418   3.704   2.723   2.999
19309TIP3    H279419   3.819   2.634   2.958
19310TIP3   OH279420   6.375   0.688  13.590
19310TIP3    H179421   6.359   0.675  13.497
19310TIP3    H279422   6.352   0.779  13.606
19311TIP3   OH279423   5.002   6.089   3.146
19311TIP3    H179424   5.019   5.998   3.121
19311TIP3    H279425   5.078   6.138   3.114
19312TIP3   OH279426   2.383   2.327  13.081
19312TIP3    H179427   2.365   2.421  13.093
19312TIP3    H279428   2.418   2.321  12.992
19313TIP3   OH279429   6.709   6.278   4.135
19313TIP3    H179430   6.734   6.186   4.124
19313TIP3    H279431   6.734   6.299   4.225
19314TIP3   OH279432   1.750   1.187  11.576
19314TIP3    H179433   1.785   1.178  11.487
19314TIP3    H279434   1.705   1.104  11.592
19315TIP3   OH279435   4.705   3.954  13.598
19315TIP3    H179436   4.640   3.949  13.527
19315TIP3    H279437   4.682   3.881  13.656
19316TIP3   OH279438   2.242   0.371  17.021
19316TIP3    H179439   2.283   0.448  17.061
19316TIP3    H279440   2.161   0.358  17.070
19317TIP3   OH279441   5.080   0.167   1.436
19317TIP3    H179442   5.105   0.205   1.521
19317TIP3    H279443   4.994   0.205   1.417
19318TIP3   OH279444   5.358   5.128  13.443
19318TIP3    H179445   5.440   5.083  13.425
19318TIP3    H279446   5.294   5.057  13.454
19319TIP3   OH279447   0.146   1.237   5.628
19319TIP3    H179448   0.183   1.171   5.687
19319TIP3    H279449   0.215   1.303   5.621
19320TIP3   OH279450   1.237   4.469  11.640
19320TIP3    H179451   1.235   4.504  11.551
19320TIP3    H279452   1.224   4.375  11.630
19321TIP3   OH279453   3.354   1.273  14.335
19321TIP3    H179454   3.351   1.183  14.369
19321TIP3    H279455   3.303   1.269  14.254
19322TIP3   OH279456   5.537   3.270  11.305
19322TIP3    H179457   5.561   3.263  11.397
19322TIP3    H279458   5.617   3.300  11.261
19323TIP3   OH279459   0.626   3.764   0.390
19323TIP3    H179460   0.678   3.800   0.461
19323TIP3    H279461   0.669   3.681   0.367
19324TIP3   OH279462   3.021   4.826  11.552
19324TIP3    H179463   3.045   4.739  11.521
19324TIP3    H279464   2.930   4.837  11.523
19325TIP3   OH279465   2.709   4.772   4.764
19325TIP3    H179466   2.661   4.738   4.839
19325TIP3    H279467   2.692   4.708   4.694
19326TIP3   OH279468   2.940   2.928  13.925
19326TIP3    H179469   2.864   2.986  13.924
19326TIP3    H279470   3.013   2.985  13.897
19327TIP3   OH279471   0.330   5.301   5.221
19327TIP3    H179472   0.249   5.294   5.272
19327TIP3    H279473   0.359   5.210   5.211
19328TIP3   OH279474   5.881   1.015  17.024
19328TIP3    H179475   5.880   0.947  17.090
19328TIP3    H279476   5.881   1.097  17.073
19329TIP3   OH279477   5.457   6.192   4.232
19329TIP3    H179478   5.375   6.191   4.282
19329TIP3    H279479   5.516   6.246   4.284
19330TIP3   OH279480   3.725   5.325   2.276
19330TIP3    H179481   3.644   5.274   2.277
19330TIP3    H279482   3.794   5.262   2.254
19331TIP3   OH279483   2.245   1.160   5.367
19331TIP3    H179484   2.247   1.115   5.451
19331TIP3    H279485   2.333   1.193   5.355
19332TIP3   OH279486   1.295   4.276   1.780
19332TIP3    H179487   1.200   4.291   1.780
19332TIP3    H279488   1.312   4.231   1.863
19333TIP3   OH279489   1.951   5.529  16.703
19333TIP3    H179490   1.929   5.521  16.796
19333TIP3    H279491   1.999   5.449  16.683
19334TIP3   OH279492   0.220   5.015  16.025
19334TIP3    H179493   0.140   5.062  16.002
19334TIP3    H279494   0.198   4.923  16.014
19335TIP3   OH279495   4.558   2.946   0.486
19335TIP3    H179496   4.488   2.997   0.527
19335TIP3    H279497   4.552   2.967   0.393
19336TIP3   OH279498   4.811   4.614  11.605
19336TIP3    H179499   4.764   4.648  11.529
19336TIP3    H279500   4.850   4.532  11.575
19337TIP3   OH279501   4.518   0.102  14.134
19337TIP3    H179502   4.603   0.061  14.152
19337TIP3    H279503   4.509   0.168  14.202
19338TIP3   OH279504   2.207   1.330   1.869
19338TIP3    H179505   2.277   1.375   1.821
19338TIP3    H279506   2.233   1.338   1.961
19339TIP3   OH279507   2.004   4.150  16.075
19339TIP3    H179508   2.012   4.095  15.997
19339TIP3    H279509   1.930   4.208  16.056
19340TIP3   OH279510   6.053   1.253  13.688
19340TIP3    H179511   6.052   1.186  13.757
19340TIP3    H279512   6.010   1.329  13.727
19341TIP3   OH279513   0.932   1.962  14.365
19341TIP3    H179514   0.934   2.030  14.433
19341TIP3    H279515   0.842   1.932  14.364
19342TIP3   OH279516   2.102   2.438   3.711
19342TIP3    H179517   2.085   2.458   3.618
19342TIP3    H279518   2.087   2.521   3.756
19343TIP3   OH279519   3.201   2.992  10.634
19343TIP3    H179520   3.144   2.953  10.700
19343TIP3    H279521   3.178   3.085  10.635
19344TIP3   OH279522   3.883   1.169  13.111
19344TIP3    H179523   3.881   1.265  13.112
19344TIP3    H279524   3.798   1.143  13.146
19345TIP3   OH279525   2.299   4.297   2.966
19345TIP3    H179526   2.261   4.253   3.042
19345TIP3    H279527   2.393   4.290   2.978
19346TIP3   OH279528   3.650   1.231  16.562
19346TIP3    H179529   3.623   1.194  16.478
19346TIP3    H279530   3.579   1.289  16.587
19347TIP3   OH279531   6.804   3.505   3.985
19347TIP3    H179532   6.899   3.498   3.975
19347TIP3    H279533   6.786   3.598   3.972
19348TIP3   OH279534   6.649   6.733   5.413
19348TIP3    H179535   6.732   6.736   5.366
19348TIP3    H279536   6.585   6.769   5.352
19349TIP3   OH279537   2.494   4.331  11.200
19349TIP3    H179538   2.547   4.377  11.265
19349TIP3    H279539   2.541   4.248  11.187
19350TIP3   OH279540   4.275   5.837  15.003
19350TIP3    H179541   4.325   5.790  15.070
19350TIP3    H279542   4.330   5.911  14.980
19351TIP3   OH279543   3.050   0.650  15.213
19351TIP3    H179544   3.055   0.617  15.302
19351TIP3    H279545   2.994   0.588  15.167
19352TIP3   OH279546   4.803   3.648  15.653
19352TIP3    H179547   4.861   3.714  15.613
19352TIP3    H279548   4.790   3.680  15.742
19353TIP3   OH279549   4.951   2.014   6.146
19353TIP3    H179550   4.918   2.086   6.092
19353TIP3    H279551   4.943   2.046   6.236
19354TIP3   OH279552   1.538   3.066   0.795
19354TIP3    H179553   1.633   3.056   0.809
19354TIP3    H279554   1.524   3.161   0.805
19355TIP3   OH279555   1.665   3.855   4.644
19355TIP3    H179556   1.728   3.850   4.573
19355TIP3    H279557   1.691   3.785   4.704
19356TIP3   OH279558   1.821   0.817  14.287
19356TIP3    H179559   1.894   0.858  14.241
19356TIP3    H279560   1.802   0.875  14.360
19357TIP3   OH279561   0.446   0.157  16.466
19357TIP3    H179562   0.458   0.190  16.377
19357TIP3    H279563   0.475   0.229  16.522
19358TIP3   OH279564   1.634   2.057  15.281
19358TIP3    H179565   1.644   2.117  15.355
19358TIP3    H279566   1.601   1.976  15.320
19359TIP3   OH279567   6.186   3.632  11.152
19359TIP3    H179568   6.172   3.626  11.057
19359TIP3    H279569   6.279   3.613  11.164
19360TIP3   OH279570   5.970   3.921   3.663
19360TIP3    H179571   6.000   3.915   3.573
19360TIP3    H279572   5.875   3.929   3.656
19361TIP3   OH279573   1.881   1.696   0.618
19361TIP3    H179574   1.861   1.671   0.527
19361TIP3    H279575   1.803   1.744   0.647
19362TIP3   OH279576   0.570   1.554  11.949
19362TIP3    H179577   0.550   1.474  11.997
19362TIP3    H279578   0.505   1.617  11.978
19363TIP3   OH279579   5.004   3.357  10.344
19363TIP3    H179580   5.015   3.265  10.321
19363TIP3    H279581   4.920   3.360  10.390
19364TIP3   OH279582   2.157   2.661   0.353
19364TIP3    H179583   2.179   2.660   0.446
19364TIP3    H279584   2.211   2.591   0.315
19365TIP3   OH279585   3.109   3.148  13.889
19365TIP3    H179586   3.023   3.179  13.863
19365TIP3    H279587   3.127   3.193  13.972
19366TIP3   OH279588   3.914   2.064   3.705
19366TIP3    H179589   3.933   2.104   3.621
19366TIP3    H279590   3.832   2.016   3.690
19367TIP3   OH279591   4.697   3.930   5.589
19367TIP3    H179592   4.789   3.915   5.568
19367TIP3    H279593   4.672   3.855   5.643
19368TIP3   OH279594   0.744   6.383   5.847
19368TIP3    H179595   0.818   6.432   5.811
19368TIP3    H279596   0.667   6.433   5.820
19369TIP3   OH279597   1.821   1.626  15.144
19369TIP3    H179598   1.797   1.643  15.235
19369TIP3    H279599   1.753   1.669  15.092
19370TIP3   OH279600   6.089   2.194   1.382
19370TIP3    H179601   6.115   2.114   1.335
19370TIP3    H279602   6.144   2.194   1.460
19371TIP3   OH279603   2.335   1.634   1.513
19371TIP3    H179604   2.403   1.680   1.464
19371TIP3    H279605   2.304   1.699   1.577
19372TIP3   OH279606   3.934   4.305   3.451
19372TIP3    H179607   4.006   4.342   3.400
19372TIP3    H279608   3.933   4.213   3.427
19373TIP3   OH279609   0.653   2.278  12.086
19373TIP3    H179610   0.619   2.367  12.083
19373TIP3    H279611   0.581   2.226  12.122
19374TIP3   OH279612   2.809   2.860   1.962
19374TIP3    H179613   2.763   2.943   1.973
19374TIP3    H279614   2.892   2.871   2.009
19375TIP3   OH279615   4.310   4.500  13.243
19375TIP3    H179616   4.249   4.514  13.315
19375TIP3    H279617   4.288   4.413  13.210
19376TIP3   OH279618   0.732   0.300  13.358
19376TIP3    H179619   0.671   0.373  13.346
19376TIP3    H279620   0.762   0.279  13.269
19377TIP3   OH279621   2.158   3.525  12.860
19377TIP3    H179622   2.199   3.598  12.905
19377TIP3    H279623   2.096   3.489  12.924
19378TIP3   OH279624   0.613   1.802  12.258
19378TIP3    H179625   0.696   1.754  12.255
19378TIP3    H279626   0.546   1.734  12.262
19379TIP3   OH279627   2.867   5.827   1.789
19379TIP3    H179628   2.833   5.911   1.822
19379TIP3    H279629   2.935   5.803   1.852
19380TIP3   OH279630   4.507   1.482   2.142
19380TIP3    H179631   4.545   1.536   2.212
19380TIP3    H279632   4.431   1.531   2.113
19381TIP3   OH279633   0.333   6.523   2.968
19381TIP3    H179634   0.358   6.615   2.966
19381TIP3    H279635   0.325   6.502   3.062
19382TIP3   OH279636   2.338   1.233   3.725
19382TIP3    H179637   2.402   1.175   3.684
19382TIP3    H279638   2.374   1.249   3.813
19383TIP3   OH279639   0.010   1.600  17.028
19383TIP3    H179640   0.071   1.619  17.099
19383TIP3    H279641  -0.052   1.537  17.065
19384TIP3   OH279642   4.525   4.185  16.231
19384TIP3    H179643   4.620   4.178  16.241
19384TIP3    H279644   4.499   4.101  16.194
19385TIP3   OH279645   0.131   5.628  14.731
19385TIP3    H179646   0.046   5.659  14.761
19385TIP3    H279647   0.113   5.585  14.648
19386TIP3   OH279648   4.972   0.872   2.284
19386TIP3    H179649   5.038   0.938   2.305
19386TIP3    H279650   5.007   0.791   2.320
19387TIP3   OH279651   4.562   0.882   5.937
19387TIP3    H179652   4.468   0.901   5.942
19387TIP3    H279653   4.602   0.939   6.002
19388TIP3   OH279654   5.413   3.297  16.731
19388TIP3    H179655   5.438   3.364  16.795
19388TIP3    H279656   5.426   3.340  16.646
19389TIP3   OH279657   6.580   4.397  17.119
19389TIP3    H179658   6.607   4.478  17.076
19389TIP3    H279659   6.661   4.351  17.137
19390TIP3   OH279660   0.632   0.666  11.717
19390TIP3    H179661   0.580   0.595  11.678
19390TIP3    H279662   0.675   0.708  11.642
19391TIP3   OH279663   6.731   1.798  12.403
19391TIP3    H179664   6.737   1.732  12.472
19391TIP3    H279665   6.749   1.750  12.322
19392TIP3   OH279666   6.672   2.026   3.553
19392TIP3    H179667   6.689   1.935   3.578
19392TIP3    H279668   6.757   2.068   3.557
19393TIP3   OH279669   0.131   3.941  16.081
19393TIP3    H179670   0.053   3.918  16.131
19393TIP3    H279671   0.155   3.859  16.037
19394TIP3   OH279672   3.349   2.192   2.236
19394TIP3    H179673   3.392   2.253   2.177
19394TIP3    H279674   3.278   2.153   2.185
19395TIP3   OH279675   1.939   2.442  13.013
19395TIP3    H179676   1.972   2.469  12.927
19395TIP3    H279677   1.891   2.519  13.044
19396TIP3   OH279678   5.129   3.259  17.200
19396TIP3    H179679   5.036   3.265  17.224
19396TIP3    H279680   5.170   3.214  17.274
19397TIP3   OH279681   3.865   6.470  16.384
19397TIP3    H179682   3.807   6.484  16.309
19397TIP3    H279683   3.895   6.557  16.408
19398TIP3   OH279684   4.137   2.754   2.909
19398TIP3    H179685   4.102   2.668   2.931
19398TIP3    H279686   4.139   2.802   2.992
19399TIP3   OH279687   1.236   5.460   5.452
19399TIP3    H179688   1.287   5.530   5.409
19399TIP3    H279689   1.261   5.466   5.544
19400TIP3   OH279690   3.186   1.199   3.871
19400TIP3    H179691   3.120   1.130   3.877
19400TIP3    H279692   3.143   1.277   3.906
19401TIP3   OH279693   3.561   2.525  12.427
19401TIP3    H179694   3.470   2.500  12.444
19401TIP3    H279695   3.560   2.621  12.430
19402TIP3   OH279696   0.427   2.098  12.730
19402TIP3    H179697   0.349   2.072  12.779
19402TIP3    H279698   0.449   2.022  12.677
19403TIP3   OH279699   6.438   1.551  14.795
19403TIP3    H179700   6.457   1.519  14.707
19403TIP3    H279701   6.496   1.500  14.852
19404TIP3   OH279702   4.346   6.080  11.836
19404TIP3    H179703   4.313   6.160  11.796
19404TIP3    H279704   4.398   6.110  11.910
19405TIP3   OH279705   6.000   4.769  15.276
19405TIP3    H179706   5.988   4.716  15.355
19405TIP3    H279707   6.069   4.724  15.227
19406TIP3   OH279708   6.432   4.302   2.007
19406TIP3    H179709   6.400   4.376   2.058
19406TIP3    H279710   6.421   4.226   2.064
19407TIP3   OH279711   1.007   5.863   4.005
19407TIP3    H179712   1.020   5.826   3.917
19407TIP3    H279713   1.043   5.952   3.998
19408TIP3   OH279714   3.003   4.127  16.699
19408TIP3    H179715   2.911   4.151  16.709
19408TIP3    H279716   3.003   4.061  16.630
19409TIP3   OH279717   3.626   6.261   0.116
19409TIP3    H179718   3.639   6.253   0.022
19409TIP3    H279719   3.554   6.201   0.136
19410TIP3   OH279720   3.299   0.707   3.314
19410TIP3    H179721   3.380   0.742   3.277
19410TIP3    H279722   3.233   0.773   3.292
19411TIP3   OH279723   1.356   1.383   6.547
19411TIP3    H179724   1.270   1.363   6.586
19411TIP3    H279725   1.419   1.348   6.609
19412TIP3   OH279726   1.125   3.905   4.341
19412TIP3    H179727   1.220   3.902   4.335
19412TIP3    H279728   1.101   3.830   4.396
19413TIP3   OH279729   4.906   4.677  15.456
19413TIP3    H179730   4.840   4.686  15.388
19413TIP3    H279731   4.859   4.696  15.538
19414TIP3   OH279732   5.480   4.139   1.344
19414TIP3    H179733   5.421   4.125   1.419
19414TIP3    H279734   5.428   4.187   1.281
19415TIP3   OH279735   2.159   5.098   5.484
19415TIP3    H179736   2.095   5.139   5.541
19415TIP3    H279737   2.197   5.028   5.537
19416TIP3   OH279738   3.570   2.599  11.576
19416TIP3    H179739   3.588   2.644  11.659
19416TIP3    H279740   3.653   2.558  11.553
19417TIP3   OH279741   3.868   2.980   3.113
19417TIP3    H179742   3.850   3.050   3.049
19417TIP3    H279743   3.963   2.969   3.109
19418TIP3   OH279744   0.681   2.943   1.870
19418TIP3    H179745   0.709   2.885   1.800
19418TIP3    H279746   0.720   2.907   1.949
19419TIP3   OH279747   4.045   1.030   5.216
19419TIP3    H179748   4.119   1.032   5.156
19419TIP3    H279749   4.067   1.097   5.282
19420TIP3   OH279750   5.883   5.766  14.098
19420TIP3    H179751   5.909   5.834  14.161
19420TIP3    H279752   5.817   5.809  14.043
19421TIP3   OH279753   4.660   1.294  10.677
19421TIP3    H179754   4.674   1.232  10.605
19421TIP3    H279755   4.602   1.361  10.639
19422TIP3   OH279756   5.327   5.662  13.847
19422TIP3    H179757   5.349   5.588  13.790
19422TIP3    H279758   5.297   5.621  13.928
19423TIP3   OH279759   5.007   5.211  14.636
19423TIP3    H179760   5.008   5.162  14.718
19423TIP3    H279761   5.052   5.293  14.657
19424TIP3   OH279762   0.201   4.368   5.189
19424TIP3    H179763   0.167   4.294   5.138
19424TIP3    H279764   0.125   4.406   5.231
19425TIP3   OH279765   5.435   0.717   6.041
19425TIP3    H179766   5.526   0.698   6.019
19425TIP3    H279767   5.427   0.694   6.134
19426TIP3   OH279768   5.279   0.221  11.591
19426TIP3    H179769   5.324   0.234  11.507
19426TIP3    H279770   5.315   0.289  11.648
19427TIP3   OH279771   1.603   3.639  15.976
19427TIP3    H179772   1.595   3.596  15.891
19427TIP3    H279773   1.692   3.673  15.977
19428TIP3   OH279774   0.787   3.722  14.810
19428TIP3    H179775   0.740   3.767  14.739
19428TIP3    H279776   0.771   3.776  14.887
19429TIP3   OH279777   0.143   1.704   4.232
19429TIP3    H179778   0.238   1.714   4.231
19429TIP3    H279779   0.119   1.713   4.324
19430TIP3   OH279780   3.871   0.339  15.838
19430TIP3    H179781   3.792   0.383  15.870
19430TIP3    H279782   3.939   0.405  15.842
19431TIP3   OH279783   0.311   1.362   1.882
19431TIP3    H179784   0.338   1.270   1.874
19431TIP3    H279785   0.216   1.360   1.877
19432TIP3   OH279786   6.172   6.312  16.899
19432TIP3    H179787   6.187   6.321  16.805
19432TIP3    H279788   6.163   6.402  16.930
19433TIP3   OH279789   3.920   3.552   2.365
19433TIP3    H179790   3.908   3.481   2.302
19433TIP3    H279791   3.998   3.598   2.334
19434TIP3   OH279792   1.606   6.664  16.080
19434TIP3    H179793   1.546   6.593  16.105
19434TIP3    H279794   1.693   6.623  16.084
19435TIP3   OH279795   3.813   3.578   3.272
19435TIP3    H179796   3.827   3.642   3.201
19435TIP3    H279797   3.839   3.494   3.234
19436TIP3   OH279798   4.216   6.667   0.117
19436TIP3    H179799   4.289   6.687   0.177
19436TIP3    H279800   4.217   6.739   0.054
19437TIP3   OH279801   4.570   3.718  16.425
19437TIP3    H179802   4.623   3.661  16.369
19437TIP3    H279803   4.483   3.678  16.426
19438TIP3   OH279804   2.900   2.512  12.340
19438TIP3    H179805   2.993   2.494  12.350
19438TIP3    H279806   2.860   2.425  12.329
19439TIP3   OH279807   2.653   4.063   3.058
19439TIP3    H179808   2.731   4.051   3.113
19439TIP3    H279809   2.660   3.995   2.991
19440TIP3   OH279810   2.815   2.034  14.853
19440TIP3    H179811   2.855   2.043  14.939
19440TIP3    H279812   2.889   2.037  14.792
19441TIP3   OH279813   5.623   1.339  13.004
19441TIP3    H179814   5.706   1.376  13.034
19441TIP3    H279815   5.592   1.285  13.076
19442TIP3   OH279816   3.236   6.135   0.980
19442TIP3    H179817   3.250   6.114   1.072
19442TIP3    H279818   3.321   6.162   0.948
19443TIP3   OH279819   1.894   5.299  15.655
19443TIP3    H179820   1.954   5.374  15.654
19443TIP3    H279821   1.879   5.281  15.748
19444TIP3   OH279822   0.401   0.562   2.245
19444TIP3    H179823   0.397   0.509   2.324
19444TIP3    H279824   0.389   0.652   2.275
19445TIP3   OH279825   3.473   0.941  13.418
19445TIP3    H179826   3.526   0.990  13.481
19445TIP3    H279827   3.384   0.949  13.450
19446TIP3   OH279828   5.883   2.469   4.313
19446TIP3    H179829   5.880   2.560   4.283
19446TIP3    H279830   5.925   2.422   4.241
19447TIP3   OH279831   3.675   1.402   5.079
19447TIP3    H179832   3.747   1.391   5.016
19447TIP3    H279833   3.651   1.313   5.105
19448TIP3   OH279834   4.371   2.682  14.854
19448TIP3    H179835   4.285   2.706  14.888
19448TIP3    H279836   4.363   2.590  14.829
19449TIP3   OH279837   5.693   5.018  15.837
19449TIP3    H179838   5.660   5.043  15.923
19449TIP3    H279839   5.785   4.995  15.851
19450TIP3   OH279840   0.749   4.632  14.620
19450TIP3    H179841   0.703   4.568  14.674
19450TIP3    H279842   0.786   4.580  14.548
19451TIP3   OH279843   1.681   6.325  15.575
19451TIP3    H179844   1.684   6.349  15.668
19451TIP3    H279845   1.761   6.275  15.560
19452TIP3   OH279846   1.640   5.758  11.397
19452TIP3    H179847   1.546   5.746  11.387
19452TIP3    H279848   1.671   5.677  11.437
19453TIP3   OH279849   1.012   6.469   1.027
19453TIP3    H179850   1.077   6.523   1.072
19453TIP3    H279851   0.951   6.532   0.989
19454TIP3   OH279852   3.626   5.445  13.278
19454TIP3    H179853   3.539   5.471  13.247
19454TIP3    H279854   3.658   5.384  13.211
19455TIP3   OH279855   1.736   4.201   4.206
19455TIP3    H179856   1.692   4.123   4.171
19455TIP3    H279857   1.799   4.166   4.270
19456TIP3   OH279858   4.807   1.488   1.051
19456TIP3    H179859   4.844   1.525   0.971
19456TIP3    H279860   4.798   1.562   1.111
19457TIP3   OH279861   5.683   2.309   3.671
19457TIP3    H179862   5.671   2.227   3.718
19457TIP3    H279863   5.778   2.319   3.663
19458TIP3   OH279864   4.284   5.419  15.595
19458TIP3    H179865   4.222   5.377  15.536
19458TIP3    H279866   4.247   5.407  15.682
19459TIP3   OH279867   5.101   1.333  11.235
19459TIP3    H179868   5.083   1.309  11.325
19459TIP3    H279869   5.035   1.286  11.184
19460TIP3   OH279870   3.663   1.809  13.719
19460TIP3    H179871   3.614   1.751  13.660
19460TIP3    H279872   3.631   1.788  13.806
19461TIP3   OH279873   1.162   1.147   1.109
19461TIP3    H179874   1.205   1.171   1.027
19461TIP3    H279875   1.135   1.057   1.097
19462TIP3   OH279876   1.350   3.844  13.149
19462TIP3    H179877   1.432   3.808  13.184
19462TIP3    H279878   1.291   3.768  13.145
19463TIP3   OH279879   5.066   0.921  10.903
19463TIP3    H179880   5.026   0.855  10.959
19463TIP3    H279881   5.139   0.876  10.861
19464TIP3   OH279882   6.633   2.436   1.097
19464TIP3    H179883   6.575   2.362   1.111
19464TIP3    H279884   6.721   2.401   1.111
19465TIP3   OH279885   5.359   1.921  13.131
19465TIP3    H179886   5.434   1.920  13.073
19465TIP3    H279887   5.326   2.011  13.126
19466TIP3   OH279888   4.052   1.006  12.856
19466TIP3    H179889   4.105   1.084  12.868
19466TIP3    H279890   4.114   0.933  12.861
19467TIP3   OH279891   3.086   4.134   2.918
19467TIP3    H179892   3.048   4.091   2.995
19467TIP3    H279893   3.180   4.114   2.924
19468TIP3   OH279894   6.243   4.264   0.865
19468TIP3    H179895   6.191   4.285   0.787
19468TIP3    H279896   6.193   4.299   0.938
19469TIP3   OH279897   2.237   4.526   3.514
19469TIP3    H179898   2.184   4.520   3.593
19469TIP3    H279899   2.246   4.436   3.483
19470TIP3   OH279900   5.839   6.299  14.941
19470TIP3    H179901   5.910   6.327  14.883
19470TIP3    H279902   5.878   6.228  14.993
19471TIP3   OH279903   3.482   4.931  13.953
19471TIP3    H179904   3.429   5.005  13.926
19471TIP3    H279905   3.438   4.854  13.917
19472TIP3   OH279906   3.261   4.779  16.582
19472TIP3    H179907   3.333   4.783  16.519
19472TIP3    H279908   3.241   4.871  16.601
19473TIP3   OH279909   3.343   0.505   3.143
19473TIP3    H179910   3.335   0.549   3.058
19473TIP3    H279911   3.326   0.573   3.207
19474TIP3   OH279912   1.989   3.823  15.635
19474TIP3    H179913   2.081   3.813  15.662
19474TIP3    H279914   1.940   3.770  15.697
19475TIP3   OH279915   2.714   0.006   3.138
19475TIP3    H179916   2.640   0.043   3.091
19475TIP3    H279917   2.790   0.056   3.108
19476TIP3   OH279918   1.893   5.748  15.585
19476TIP3    H179919   1.855   5.792  15.661
19476TIP3    H279920   1.827   5.757  15.517
19477TIP3   OH279921   0.768   2.635   4.865
19477TIP3    H179922   0.813   2.708   4.822
19477TIP3    H279923   0.767   2.566   4.799
19478TIP3   OH279924   5.084   4.032  14.554
19478TIP3    H179925   4.991   4.021  14.538
19478TIP3    H279926   5.119   3.943  14.556
19479TIP3   OH279927   1.749   3.619   3.000
19479TIP3    H179928   1.711   3.639   2.914
19479TIP3    H279929   1.684   3.563   3.043
19480TIP3   OH279930   2.917   2.350   5.573
19480TIP3    H179931   2.849   2.286   5.551
19480TIP3    H279932   2.954   2.318   5.656
19481TIP3   OH279933   1.589   5.952  15.970
19481TIP3    H179934   1.538   5.918  16.043
19481TIP3    H279935   1.589   6.047  15.982
19482TIP3   OH279936   0.912   3.686  11.858
19482TIP3    H179937   0.831   3.738  11.860
19482TIP3    H279938   0.973   3.735  11.913
19483TIP3   OH279939   3.308   5.845   0.293
19483TIP3    H179940   3.218   5.848   0.261
19483TIP3    H279941   3.358   5.803   0.223
19484TIP3   OH279942   0.349   2.445   5.579
19484TIP3    H179943   0.350   2.358   5.540
19484TIP3    H279944   0.259   2.476   5.568
19485TIP3   OH279945   1.359   4.319   3.595
19485TIP3    H179946   1.264   4.326   3.589
19485TIP3    H279947   1.385   4.391   3.653
19486TIP3   OH279948   2.173   0.806  14.089
19486TIP3    H179949   2.100   0.864  14.070
19486TIP3    H279950   2.250   0.852  14.057
19487TIP3   OH279951   3.664   2.009   0.002
19487TIP3    H179952   3.665   1.935  -0.059
19487TIP3    H279953   3.619   1.976   0.079
19488TIP3   OH279954   3.978   0.216  11.215
19488TIP3    H179955   4.001   0.309  11.206
19488TIP3    H279956   4.024   0.188  11.293
19489TIP3   OH279957   4.226   4.937   5.286
19489TIP3    H179958   4.133   4.931   5.266
19489TIP3    H279959   4.238   5.024   5.324
19490TIP3   OH279960   4.844   1.688   1.436
19490TIP3    H179961   4.885   1.604   1.458
19490TIP3    H279962   4.918   1.746   1.418
19491TIP3   OH279963   3.644   4.788  12.824
19491TIP3    H179964   3.739   4.798  12.822
19491TIP3    H279965   3.620   4.803  12.916
19492TIP3   OH279966   2.836   3.468   2.652
19492TIP3    H179967   2.802   3.413   2.581
19492TIP3    H279968   2.778   3.450   2.726
19493TIP3   OH279969   4.223   2.991   0.899
19493TIP3    H179970   4.218   2.934   0.822
19493TIP3    H279971   4.303   2.963   0.944
19494TIP3   OH279972   2.319   2.312   0.539
19494TIP3    H179973   2.408   2.339   0.561
19494TIP3    H279974   2.326   2.218   0.524
19495TIP3   OH279975   3.693   3.738   2.409
19495TIP3    H179976   3.653   3.682   2.475
19495TIP3    H279977   3.762   3.684   2.371
19496TIP3   OH279978   6.066   4.688  16.750
19496TIP3    H179979   6.040   4.766  16.701
19496TIP3    H279980   6.067   4.717  16.842
19497TIP3   OH279981   4.492   5.772   0.892
19497TIP3    H179982   4.546   5.840   0.851
19497TIP3    H279983   4.402   5.805   0.884
19498TIP3   OH279984   5.666   3.564  12.401
19498TIP3    H179985   5.588   3.573  12.457
19498TIP3    H279986   5.649   3.485  12.349
19499TIP3   OH279987   5.140   4.733   4.550
19499TIP3    H179988   5.233   4.752   4.542
19499TIP3    H279989   5.133   4.638   4.541
19500TIP3   OH279990   0.453   2.608  12.678
19500TIP3    H179991   0.391   2.657  12.624
19500TIP3    H279992   0.456   2.657  12.760
19501TIP3   OH279993   3.705   6.237  12.755
19501TIP3    H179994   3.785   6.280  12.726
19501TIP3    H279995   3.735   6.165  12.811
19502TIP3   OH279996   1.093   4.994  16.532
19502TIP3    H179997   1.173   5.044  16.519
19502TIP3    H279998   1.072   5.007  16.625
19503TIP3   OH279999   6.406   4.853  12.417
19503TIP3    H180000   6.348   4.780  12.395
19503TIP3    H280001   6.466   4.861  12.343
19504TIP3   OH280002   2.462   1.006  12.713
19504TIP3    H180003   2.522   1.071  12.748
19504TIP3    H280004   2.448   0.944  12.784
19505TIP3   OH280005   0.674   1.915   3.679
19505TIP3    H180006   0.688   1.911   3.585
19505TIP3    H280007   0.579   1.907   3.690
19506TIP3   OH280008   3.618   5.843  17.192
19506TIP3    H180009   3.673   5.772  17.224
19506TIP3    H280010   3.666   5.880  17.118
19507TIP3   OH280011   4.512   6.253   3.121
19507TIP3    H180012   4.589   6.285   3.167
19507TIP3    H280013   4.467   6.197   3.184
19508TIP3   OH280014   4.863   4.687  17.117
19508TIP3    H180015   4.819   4.723  17.194
19508TIP3    H280016   4.838   4.595  17.115
19509TIP3   OH280017   2.750   0.026   4.588
19509TIP3    H180018   2.677   0.022   4.526
19509TIP3    H280019   2.811   0.089   4.549
19510TIP3   OH280020   2.418   1.207  14.423
19510TIP3    H180021   2.423   1.285  14.478
19510TIP3    H280022   2.472   1.228  14.347
19511TIP3   OH280023   3.451   2.081   3.982
19511TIP3    H180024   3.396   2.064   4.058
19511TIP3    H280025   3.445   2.001   3.929
19512TIP3   OH280026   2.884   5.050  14.740
19512TIP3    H180027   2.802   5.098  14.754
19512TIP3    H280028   2.948   5.097  14.794
19513TIP3   OH280029   5.691   2.369   4.896
19513TIP3    H180030   5.679   2.369   4.801
19513TIP3    H280031   5.738   2.288   4.914
19514TIP3   OH280032   6.759   0.308   0.092
19514TIP3    H180033   6.717   0.244   0.150
19514TIP3    H280034   6.728   0.286   0.005
19515TIP3   OH280035   2.837   2.983   5.174
19515TIP3    H180036   2.801   2.997   5.262
19515TIP3    H280037   2.914   2.928   5.188
19516TIP3   OH280038   0.452   4.968  16.516
19516TIP3    H180039   0.449   4.985  16.422
19516TIP3    H280040   0.463   5.055  16.555
19517TIP3   OH280041   2.861   3.283  11.002
19517TIP3    H180042   2.779   3.329  11.019
19517TIP3    H280043   2.842   3.227  10.927
19518TIP3   OH280044   1.991   4.577   3.078
19518TIP3    H180045   2.072   4.538   3.111
19518TIP3    H280046   1.966   4.640   3.145
19519TIP3   OH280047   0.889   3.661   4.366
19519TIP3    H180048   0.825   3.728   4.342
19519TIP3    H280049   0.891   3.601   4.291
19520TIP3   OH280050   0.765   1.209  15.388
19520TIP3    H180051   0.785   1.134  15.443
19520TIP3    H280052   0.736   1.277  15.449
19521TIP3   OH280053   4.237   4.316  17.070
19521TIP3    H180054   4.266   4.226  17.060
19521TIP3    H280055   4.168   4.312  17.136
19522TIP3   OH280056   1.627   0.246   3.009
19522TIP3    H180057   1.710   0.252   3.055
19522TIP3    H280058   1.606   0.153   3.009
19523TIP3   OH280059   5.036   1.416  14.352
19523TIP3    H180060   5.067   1.351  14.415
19523TIP3    H280061   4.963   1.373  14.308
19524TIP3   OH280062   1.233   1.002   1.773
19524TIP3    H180063   1.180   0.929   1.740
19524TIP3    H280064   1.318   0.992   1.729
19525TIP3   OH280065   1.616   4.337  14.398
19525TIP3    H180066   1.536   4.290  14.422
19525TIP3    H280067   1.655   4.363  14.481
19526TIP3   OH280068   3.506   2.623  15.473
19526TIP3    H180069   3.583   2.668  15.508
19526TIP3    H280070   3.472   2.573  15.547
19527TIP3   OH280071   5.527   4.081   4.432
19527TIP3    H180072   5.527   4.129   4.515
19527TIP3    H280073   5.524   4.149   4.365
19528TIP3   OH280074   0.092   4.691   0.935
19528TIP3    H180075   0.107   4.643   0.854
19528TIP3    H280076   0.175   4.735   0.954
19529TIP3   OH280077   6.104   5.421  12.940
19529TIP3    H180078   6.200   5.419  12.935
19529TIP3    H280079   6.075   5.372  12.863
19530TIP3   OH280080   4.605   6.605   0.994
19530TIP3    H180081   4.538   6.640   0.935
19530TIP3    H280082   4.678   6.667   0.986
19531TIP3   OH280083   1.684   4.976  11.028
19531TIP3    H180084   1.630   4.995  10.952
19531TIP3    H280085   1.624   4.937  11.091
19532TIP3   OH280086   0.951   5.430  10.994
19532TIP3    H180087   0.925   5.354  10.942
19532TIP3    H280088   1.041   5.448  10.968
19533TIP3   OH280089   3.552   6.740   3.025
19533TIP3    H180090   3.554   6.653   3.064
19533TIP3    H280091   3.485   6.787   3.074
19534TIP3   OH280092   5.600   5.031  13.320
19534TIP3    H180093   5.664   4.973  13.360
19534TIP3    H280094   5.546   4.973  13.266
19535TIP3   OH280095   3.650   2.255   1.207
19535TIP3    H180096   3.745   2.250   1.198
19535TIP3    H280097   3.629   2.347   1.189
19536TIP3   OH280098   2.724   4.450   1.914
19536TIP3    H180099   2.633   4.479   1.925
19536TIP3    H280100   2.773   4.502   1.977
19537TIP3   OH280101   6.596   0.676  12.038
19537TIP3    H180102   6.611   0.616  11.965
19537TIP3    H280103   6.653   0.751  12.021
19538TIP3   OH280104   5.949   0.109   1.291
19538TIP3    H180105   5.883   0.178   1.284
19538TIP3    H280106   5.992   0.126   1.375
19539TIP3   OH280107   6.048   6.269   2.537
19539TIP3    H180108   6.097   6.224   2.468
19539TIP3    H280109   6.055   6.361   2.513
19540TIP3   OH280110   4.942   1.908  15.147
19540TIP3    H180111   5.016   1.948  15.193
19540TIP3    H280112   4.899   1.854  15.213
19541TIP3   OH280113   6.374   2.802  16.998
19541TIP3    H180114   6.403   2.893  16.992
19541TIP3    H280115   6.445   2.751  16.961
19542TIP3   OH280116   4.673   5.653   1.296
19542TIP3    H180117   4.728   5.730   1.285
19542TIP3    H280118   4.656   5.622   1.207
19543TIP3   OH280119   6.704   1.022   1.737
19543TIP3    H180120   6.617   1.050   1.765
19543TIP3    H280121   6.688   0.949   1.676
19544TIP3   OH280122   2.795   1.246  17.071
19544TIP3    H180123   2.846   1.326  17.062
19544TIP3    H280124   2.860   1.176  17.076
19545TIP3   OH280125   4.159   0.564   5.912
19545TIP3    H180126   4.097   0.493   5.924
19545TIP3    H280127   4.241   0.531   5.951
19546TIP3   OH280128   6.488   3.763   2.561
19546TIP3    H180129   6.462   3.768   2.653
19546TIP3    H280130   6.572   3.716   2.563
19547TIP3   OH280131   3.435   6.291   3.611
19547TIP3    H180132   3.421   6.198   3.590
19547TIP3    H280133   3.431   6.295   3.706
19548TIP3   OH280134   4.727   6.731  14.107
19548TIP3    H180135   4.738   6.648  14.154
19548TIP3    H280136   4.757   6.713  14.018
19549TIP3   OH280137   1.488   2.057   0.370
19549TIP3    H180138   1.403   2.019   0.392
19549TIP3    H280139   1.533   1.988   0.321
19550TIP3   OH280140   1.510   6.726  16.858
19550TIP3    H180141   1.428   6.682  16.835
19550TIP3    H280142   1.528   6.697  16.947
19551TIP3   OH280143   6.267   2.442   2.660
19551TIP3    H180144   6.334   2.482   2.604
19551TIP3    H280145   6.279   2.485   2.745
19552TIP3   OH280146   0.666   0.842   1.360
19552TIP3    H180147   0.597   0.902   1.334
19552TIP3    H280148   0.662   0.771   1.295
19553TIP3   OH280149   4.836   0.035  13.393
19553TIP3    H180150   4.847  -0.058  13.415
19553TIP3    H280151   4.844   0.038  13.298
19554TIP3   OH280152   1.719   5.442   0.828
19554TIP3    H180153   1.633   5.404   0.845
19554TIP3    H280154   1.720   5.460   0.734
19555TIP3   OH280155   0.696   3.975  11.311
19555TIP3    H180156   0.663   3.929  11.388
19555TIP3    H280157   0.658   3.927  11.237
19556TIP3   OH280158   5.699   5.714   1.282
19556TIP3    H180159   5.728   5.628   1.254
19556TIP3    H280160   5.647   5.698   1.361
19557TIP3   OH280161   1.003   2.194   3.178
19557TIP3    H180162   1.048   2.142   3.111
19557TIP3    H280163   0.989   2.133   3.250
19558TIP3   OH280164   5.271   0.764   0.803
19558TIP3    H180165   5.201   0.701   0.821
19558TIP3    H280166   5.342   0.712   0.766
19559TIP3   OH280167   1.353   0.438   6.471
19559TIP3    H180168   1.269   0.420   6.430
19559TIP3    H280169   1.338   0.426   6.565
19560TIP3   OH280170   4.598   4.315  12.546
19560TIP3    H180171   4.548   4.394  12.565
19560TIP3    H280172   4.535   4.243  12.559
19561TIP3   OH280173   6.783   2.190  10.313
19561TIP3    H180174   6.817   2.279  10.312
19561TIP3    H280175   6.821   2.150  10.391
19562TIP3   OH280176   6.546   1.310   6.110
19562TIP3    H180177   6.491   1.365   6.167
19562TIP3    H280178   6.630   1.305   6.156
19563TIP3   OH280179   4.366   4.735   2.000
19563TIP3    H180180   4.360   4.648   2.039
19563TIP3    H280181   4.384   4.793   2.073
19564TIP3   OH280182   4.053   6.046  15.264
19564TIP3    H180183   3.973   5.993  15.258
19564TIP3    H280184   4.074   6.070  15.174
19565TIP3   OH280185   3.036   2.099   1.368
19565TIP3    H180186   3.077   2.136   1.446
19565TIP3    H280187   2.942   2.102   1.386
19566TIP3   OH280188   1.400   5.210   5.711
19566TIP3    H180189   1.344   5.287   5.703
19566TIP3    H280190   1.381   5.159   5.632
19567TIP3   OH280191   4.625   0.081  12.910
19567TIP3    H180192   4.682   0.140  12.959
19567TIP3    H280193   4.684   0.012  12.877
19568TIP3   OH280194   2.950   2.859   3.910
19568TIP3    H180195   2.935   2.775   3.866
19568TIP3    H280196   2.874   2.912   3.888
19569TIP3   OH280197   4.747   4.585  11.882
19569TIP3    H180198   4.728   4.673  11.913
19569TIP3    H280199   4.775   4.597  11.791
19570TIP3   OH280200   2.714   4.096   3.848
19570TIP3    H180201   2.771   4.075   3.921
19570TIP3    H280202   2.667   4.175   3.876
19571TIP3   OH280203   0.553   0.932  10.806
19571TIP3    H180204   0.572   0.932  10.712
19571TIP3    H280205   0.484   0.866  10.815
19572TIP3   OH280206   0.698   1.046  11.954
19572TIP3    H180207   0.706   1.108  11.882
19572TIP3    H280208   0.729   1.095  12.031
19573TIP3   OH280209   2.586   5.026   1.407
19573TIP3    H180210   2.615   5.038   1.498
19573TIP3    H280211   2.637   5.090   1.357
19574TIP3   OH280212   2.389   0.417   4.370
19574TIP3    H180213   2.483   0.403   4.383
19574TIP3    H280214   2.383   0.494   4.313
19575TIP3   OH280215   2.182   0.571   5.254
19575TIP3    H180216   2.195   0.649   5.308
19575TIP3    H280217   2.255   0.572   5.192
19576TIP3   OH280218   5.946   1.972  10.960
19576TIP3    H180219   5.863   1.959  10.913
19576TIP3    H280220   6.010   1.923  10.910
19577TIP3   OH280221   1.142   3.404   0.428
19577TIP3    H180222   1.233   3.376   0.413
19577TIP3    H280223   1.150   3.491   0.467
19578TIP3   OH280224   3.005   1.810  11.204
19578TIP3    H180225   3.083   1.826  11.151
19578TIP3    H280226   2.932   1.839  11.150
19579TIP3   OH280227   3.238   4.842   2.878
19579TIP3    H180228   3.235   4.818   2.786
19579TIP3    H280229   3.170   4.790   2.920
19580TIP3   OH280230   4.470   2.170   4.273
19580TIP3    H180231   4.512   2.220   4.342
19580TIP3    H280232   4.543   2.130   4.225
19581TIP3   OH280233   4.415   2.051  13.190
19581TIP3    H180234   4.398   2.141  13.220
19581TIP3    H280235   4.354   2.038  13.117
19582TIP3   OH280236   2.848   5.850   0.579
19582TIP3    H180237   2.815   5.893   0.501
19582TIP3    H280238   2.771   5.828   0.631
19583TIP3   OH280239   3.780   0.386   2.086
19583TIP3    H180240   3.778   0.304   2.136
19583TIP3    H280241   3.773   0.455   2.152
19584TIP3   OH280242   4.340   5.401   1.485
19584TIP3    H180243   4.265   5.376   1.539
19584TIP3    H280244   4.396   5.323   1.483
19585TIP3   OH280245   4.866   3.132   4.704
19585TIP3    H180246   4.905   3.210   4.744
19585TIP3    H280247   4.910   3.059   4.747
19586TIP3   OH280248   5.974   2.122   3.158
19586TIP3    H180249   6.003   2.192   3.217
19586TIP3    H280250   5.981   2.043   3.211
19587TIP3   OH280251   5.124   5.005   5.122
19587TIP3    H180252   5.218   5.020   5.110
19587TIP3    H280253   5.097   5.072   5.185
19588TIP3   OH280254   4.237   2.229   0.460
19588TIP3    H180255   4.273   2.200   0.377
19588TIP3    H280256   4.250   2.154   0.519
19589TIP3   OH280257   2.371   3.905  12.851
19589TIP3    H180258   2.456   3.929  12.886
19589TIP3    H280259   2.331   3.852  12.919
19590TIP3   OH280260   4.274   2.725   4.830
19590TIP3    H180261   4.311   2.812   4.846
19590TIP3    H280262   4.259   2.723   4.736
19591TIP3   OH280263   5.525   3.671   1.609
19591TIP3    H180264   5.470   3.608   1.654
19591TIP3    H280265   5.481   3.686   1.525
19592TIP3   OH280266   5.146   4.817   5.746
19592TIP3    H180267   5.189   4.872   5.812
19592TIP3    H280268   5.080   4.874   5.707
19593TIP3   OH280269   6.212   1.355  15.463
19593TIP3    H180270   6.212   1.345  15.368
19593TIP3    H280271   6.131   1.402  15.482
19594TIP3   OH280272   6.682   0.062  14.959
19594TIP3    H180273   6.661   0.137  15.013
19594TIP3    H280274   6.771   0.037  14.986
19595TIP3   OH280275   1.103   1.977   3.648
19595TIP3    H180276   1.047   1.933   3.712
19595TIP3    H280277   1.192   1.955   3.676
19596TIP3   OH280278   1.017   1.148  12.965
19596TIP3    H180279   0.954   1.203  12.918
19596TIP3    H280280   1.102   1.171  12.927
19597TIP3   OH280281   0.423   4.683   2.402
19597TIP3    H180282   0.442   4.744   2.474
19597TIP3    H280283   0.329   4.692   2.388
19598TIP3   OH280284   5.665   6.491  12.552
19598TIP3    H180285   5.585   6.501  12.501
19598TIP3    H280286   5.731   6.541  12.504
19599TIP3   OH280287   4.855   1.961   1.270
19599TIP3    H180288   4.854   2.015   1.191
19599TIP3    H280289   4.913   2.007   1.330
19600TIP3   OH280290   6.284   2.299  14.324
19600TIP3    H180291   6.260   2.373  14.269
19600TIP3    H280292   6.362   2.328  14.371
19601TIP3   OH280293   0.880   0.615   1.312
19601TIP3    H180294   0.833   0.554   1.255
19601TIP3    H280295   0.900   0.690   1.256
19602TIP3   OH280296   5.071   5.826   1.217
19602TIP3    H180297   5.064   5.731   1.229
19602TIP3    H280298   5.071   5.837   1.122
19603TIP3   OH280299   1.283   4.761   0.952
19603TIP3    H180300   1.221   4.689   0.937
19603TIP3    H280301   1.351   4.747   0.886
19604TIP3   OH280302   2.171   0.523  12.738
19604TIP3    H180303   2.244   0.477  12.778
19604TIP3    H280304   2.122   0.560  12.811
19605TIP3   OH280305   4.395   3.397   0.137
19605TIP3    H180306   4.307   3.361   0.132
19605TIP3    H280307   4.433   3.378   0.051
19606TIP3   OH280308   5.531   3.181   0.434
19606TIP3    H180309   5.452   3.127   0.427
19606TIP3    H280310   5.538   3.224   0.349
19607TIP3   OH280311   4.335   1.420   3.420
19607TIP3    H180312   4.338   1.482   3.492
19607TIP3    H280313   4.425   1.388   3.412
19608TIP3   OH280314   6.676   0.228  11.670
19608TIP3    H180315   6.747   0.215  11.733
19608TIP3    H280316   6.637   0.141  11.660
19609TIP3   OH280317   3.040   3.518   2.452
19609TIP3    H180318   2.979   3.517   2.526
19609TIP3    H280319   3.030   3.433   2.411
19610TIP3   OH280320   3.250   5.406  10.372
19610TIP3    H180321   3.343   5.411  10.349
19610TIP3    H280322   3.215   5.492  10.347
19611TIP3   OH280323   2.045   2.489   2.345
19611TIP3    H180324   1.954   2.510   2.366
19611TIP3    H280325   2.069   2.551   2.276
19612TIP3   OH280326   4.767   0.017   1.016
19612TIP3    H180327   4.784   0.104   0.980
19612TIP3    H280328   4.803   0.021   1.105
19613TIP3   OH280329   0.976   0.807  11.489
19613TIP3    H180330   0.888   0.823  11.454
19613TIP3    H280331   0.980   0.859  11.569
19614TIP3   OH280332   5.841   4.470  15.393
19614TIP3    H180333   5.925   4.455  15.351
19614TIP3    H280334   5.856   4.450  15.485
19615TIP3   OH280335   1.766   5.398   2.028
19615TIP3    H180336   1.724   5.344   1.961
19615TIP3    H280337   1.804   5.336   2.089
19616TIP3   OH280338   6.109   0.220   2.510
19616TIP3    H180339   6.194   0.210   2.468
19616TIP3    H280340   6.120   0.297   2.566
19617TIP3   OH280341   4.371   2.125  15.044
19617TIP3    H180342   4.386   2.144  14.951
19617TIP3    H280343   4.369   2.211  15.086
19618TIP3   OH280344   3.833   4.902   1.515
19618TIP3    H180345   3.754   4.945   1.549
19618TIP3    H280346   3.802   4.852   1.439
19619TIP3   OH280347   6.173   4.273  16.406
19619TIP3    H180348   6.243   4.260  16.343
19619TIP3    H280349   6.202   4.347  16.460
19620TIP3   OH280350   3.472   1.507  14.446
19620TIP3    H180351   3.428   1.422  14.441
19620TIP3    H280352   3.465   1.531  14.539
19621TIP3   OH280353   2.480   2.442   1.455
19621TIP3    H180354   2.468   2.505   1.383
19621TIP3    H280355   2.556   2.476   1.503
19622TIP3   OH280356   6.648   2.803  12.124
19622TIP3    H180357   6.743   2.805  12.132
19622TIP3    H280358   6.620   2.892  12.148
19623TIP3   OH280359   4.074   4.862  13.155
19623TIP3    H180360   4.076   4.934  13.218
19623TIP3    H280361   4.161   4.821  13.161
19624TIP3   OH280362   4.536   3.577   4.097
19624TIP3    H180363   4.447   3.611   4.088
19624TIP3    H280364   4.541   3.507   4.031
19625TIP3   OH280365   3.594   6.640   3.534
19625TIP3    H180366   3.578   6.653   3.441
19625TIP3    H280367   3.637   6.721   3.563
19626TIP3   OH280368   2.321   0.726  16.629
19626TIP3    H180369   2.379   0.768  16.692
19626TIP3    H280370   2.282   0.653  16.676
19627TIP3   OH280371   1.856   4.844   5.386
19627TIP3    H180372   1.817   4.893   5.459
19627TIP3    H280373   1.942   4.818   5.419
19628TIP3   OH280374   1.402   5.129   1.451
19628TIP3    H180375   1.480   5.128   1.394
19628TIP3    H280376   1.423   5.191   1.520
19629TIP3   OH280377   4.301   5.906  14.034
19629TIP3    H180378   4.381   5.924  14.084
19629TIP3    H280379   4.246   5.983  14.049
19630TIP3   OH280380   4.513   0.735  15.360
19630TIP3    H180381   4.515   0.787  15.440
19630TIP3    H280382   4.435   0.681  15.367
19631TIP3   OH280383   1.246   1.884  14.714
19631TIP3    H180384   1.185   1.924  14.652
19631TIP3    H280385   1.221   1.791  14.715
19632TIP3   OH280386   6.103   2.469   4.967
19632TIP3    H180387   6.188   2.499   5.002
19632TIP3    H280388   6.043   2.477   5.042
19633TIP3   OH280389   0.530   4.150   3.485
19633TIP3    H180390   0.586   4.089   3.534
19633TIP3    H280391   0.539   4.122   3.394
19634TIP3   OH280392   5.774   2.587   4.545
19634TIP3    H180393   5.851   2.543   4.509
19634TIP3    H280394   5.786   2.679   4.521
19635TIP3   OH280395   0.761   2.096   5.692
19635TIP3    H180396   0.708   2.168   5.660
19635TIP3    H280397   0.790   2.124   5.779
19636TIP3   OH280398   5.088   5.216  15.168
19636TIP3    H180399   5.141   5.235  15.091
19636TIP3    H280400   5.147   5.231  15.242
19637TIP3   OH280401   6.274   1.456  11.714
19637TIP3    H180402   6.217   1.509  11.657
19637TIP3    H280403   6.232   1.460  11.800
19638TIP3   OH280404   4.592   4.016   4.566
19638TIP3    H180405   4.601   3.944   4.628
19638TIP3    H280406   4.509   4.058   4.589
19639TIP3   OH280407   4.223   2.680  10.249
19639TIP3    H180408   4.312   2.712  10.265
19639TIP3    H280409   4.229   2.585  10.259
19640TIP3   OH280410   5.937   5.956  14.298
19640TIP3    H180411   5.898   5.897  14.363
19640TIP3    H280412   6.030   5.957  14.318
19641TIP3   OH280413   4.409   6.375   3.594
19641TIP3    H180414   4.403   6.386   3.689
19641TIP3    H280415   4.374   6.288   3.577
19642TIP3   OH280416   6.441   5.178   1.322
19642TIP3    H180417   6.473   5.263   1.292
19642TIP3    H280418   6.434   5.125   1.243
19643TIP3   OH280419   2.122   3.958   4.204
19643TIP3    H180420   2.138   3.879   4.153
19643TIP3    H280421   2.027   3.971   4.198
19644TIP3   OH280422   2.864   0.705  13.059
19644TIP3    H180423   2.794   0.735  13.116
19644TIP3    H280424   2.872   0.773  12.993
19645TIP3   OH280425   1.133   5.753  12.278
19645TIP3    H180426   1.067   5.684  12.291
19645TIP3    H280427   1.101   5.826  12.330
19646TIP3   OH280428   5.297   1.244   4.516
19646TIP3    H180429   5.257   1.220   4.600
19646TIP3    H280430   5.361   1.312   4.539
19647TIP3   OH280431   1.378   4.043   1.111
19647TIP3    H180432   1.462   4.085   1.131
19647TIP3    H280433   1.355   3.995   1.191
19648TIP3   OH280434   0.966   4.048   1.056
19648TIP3    H180435   1.008   4.091   0.981
19648TIP3    H280436   1.021   4.071   1.131
19649TIP3   OH280437   2.036   1.670  16.620
19649TIP3    H180438   1.998   1.706  16.700
19649TIP3    H280439   1.990   1.587  16.606
19650TIP3   OH280440   6.015   6.453   1.399
19650TIP3    H180441   5.954   6.526   1.395
19650TIP3    H280442   6.102   6.494   1.402
19651TIP3   OH280443   5.073   6.283   0.541
19651TIP3    H180444   5.093   6.269   0.633
19651TIP3    H280445   5.159   6.294   0.500
19652TIP3   OH280446   1.491   3.319   0.924
19652TIP3    H180447   1.529   3.332   1.011
19652TIP3    H280448   1.416   3.379   0.921
19653TIP3   OH280449   0.619   6.058   5.600
19653TIP3    H180450   0.556   6.021   5.661
19653TIP3    H280451   0.585   6.146   5.582
19654TIP3   OH280452   5.450   6.725   5.245
19654TIP3    H180453   5.530   6.733   5.193
19654TIP3    H280454   5.386   6.685   5.186
19655TIP3   OH280455   2.414   4.977   5.386
19655TIP3    H180456   2.462   4.980   5.470
19655TIP3    H280457   2.390   4.885   5.376
19656TIP3   OH280458   4.475   6.360  14.705
19656TIP3    H180459   4.480   6.389  14.614
19656TIP3    H280460   4.384   6.334  14.718
19657TIP3   OH280461   3.751   3.739  11.681
19657TIP3    H180462   3.672   3.687  11.667
19657TIP3    H280463   3.821   3.675  11.685
19658TIP3   OH280464   3.853   2.304   2.083
19658TIP3    H180465   3.832   2.396   2.099
19658TIP3    H280466   3.946   2.297   2.104
19659TIP3   OH280467   4.984   2.849  16.522
19659TIP3    H180468   4.976   2.924  16.463
19659TIP3    H280469   4.985   2.773  16.464
19660TIP3   OH280470   1.154   4.843   5.100
19660TIP3    H180471   1.232   4.795   5.073
19660TIP3    H280472   1.131   4.806   5.185
19661TIP3   OH280473   6.152   4.790   3.556
19661TIP3    H180474   6.072   4.746   3.527
19661TIP3    H280475   6.130   4.825   3.643
19662TIP3   OH280476   1.398   1.642  14.921
19662TIP3    H180477   1.411   1.617  14.829
19662TIP3    H280478   1.474   1.696  14.943
19663TIP3   OH280479   5.637   5.601   1.778
19663TIP3    H180480   5.658   5.518   1.736
19663TIP3    H280481   5.695   5.605   1.854
19664TIP3   OH280482   4.506   0.764  13.035
19664TIP3    H180483   4.472   0.838  13.086
19664TIP3    H280484   4.578   0.801  12.985
19665TIP3   OH280485   1.649   5.386   0.529
19665TIP3    H180486   1.651   5.436   0.448
19665TIP3    H280487   1.556   5.378   0.550
19666TIP3   OH280488   0.393   3.299   4.608
19666TIP3    H180489   0.446   3.341   4.539
19666TIP3    H280490   0.335   3.368   4.640
19667TIP3   OH280491   1.994   0.061  11.544
19667TIP3    H180492   2.024   0.146  11.512
19667TIP3    H280493   1.999   0.068  11.640
19668TIP3   OH280494   4.810   3.903  15.146
19668TIP3    H180495   4.890   3.897  15.198
19668TIP3    H280496   4.819   3.834  15.080
19669TIP3   OH280497   6.354   0.676  12.404
19669TIP3    H180498   6.315   0.697  12.320
19669TIP3    H280499   6.314   0.593  12.430
19670TIP3   OH280500   6.090   1.765   4.709
19670TIP3    H180501   6.118   1.761   4.617
19670TIP3    H280502   6.168   1.794   4.757
19671TIP3   OH280503   3.165   6.588   4.802
19671TIP3    H180504   3.258   6.565   4.801
19671TIP3    H280505   3.147   6.611   4.893
19672TIP3   OH280506   1.167   3.363  14.040
19672TIP3    H180507   1.100   3.420  14.076
19672TIP3    H280508   1.214   3.418  13.977
19673TIP3   OH280509   4.525   0.962   2.856
19673TIP3    H180510   4.468   1.039   2.856
19673TIP3    H280511   4.611   0.996   2.882
19674TIP3   OH280512   6.428   4.149   6.805
19674TIP3    H180513   6.454   4.206   6.877
19674TIP3    H280514   6.503   4.089   6.794
19675TIP3   OH280515   1.871   2.872  15.331
19675TIP3    H180516   1.892   2.779  15.340
19675TIP3    H280517   1.885   2.909  15.418
19676TIP3   OH280518   3.041   5.261   2.678
19676TIP3    H180519   2.965   5.232   2.628
19676TIP3    H280520   3.059   5.350   2.646
19677TIP3   OH280521   3.308   3.320  10.823
19677TIP3    H180522   3.320   3.258  10.751
19677TIP3    H280523   3.381   3.381  10.814
19678TIP3   OH280524   6.091   0.975  12.607
19678TIP3    H180525   6.041   0.901  12.574
19678TIP3    H280526   6.029   1.048  12.607
19679TIP3   OH280527   0.049   4.465  14.653
19679TIP3    H180528   0.108   4.538  14.671
19679TIP3    H280529   0.062   4.446  14.560
19680TIP3   OH280530   1.181   2.683  14.499
19680TIP3    H180531   1.253   2.655  14.556
19680TIP3    H280532   1.103   2.639  14.535
19681TIP3   OH280533   2.188   1.764   5.156
19681TIP3    H180534   2.225   1.835   5.209
19681TIP3    H280535   2.199   1.685   5.210
19682TIP3   OH280536   2.034   0.768  11.604
19682TIP3    H180537   2.093   0.824  11.553
19682TIP3    H280538   2.087   0.737  11.677
19683TIP3   OH280539   6.630   0.035  15.848
19683TIP3    H180540   6.557   0.082  15.889
19683TIP3    H280541   6.653  -0.033  15.912
19684TIP3   OH280542   0.879   0.870  12.238
19684TIP3    H180543   0.833   0.898  12.317
19684TIP3    H280544   0.945   0.937  12.223
19685TIP3   OH280545   3.122   3.450  10.990
19685TIP3    H180546   3.053   3.397  11.031
19685TIP3    H280547   3.185   3.385  10.959
19686TIP3   OH280548   4.756   0.919  15.068
19686TIP3    H180549   4.683   0.856  15.065
19686TIP3    H280550   4.717   0.998  15.104
19687TIP3   OH280551   2.805   0.667   3.213
19687TIP3    H180552   2.814   0.624   3.298
19687TIP3    H280553   2.824   0.598   3.150
19688TIP3   OH280554   2.410   3.323   0.050
19688TIP3    H180555   2.451   3.296  -0.031
19688TIP3    H280556   2.350   3.393   0.025
19689TIP3   OH280557   1.140   1.448   5.589
19689TIP3    H180558   1.084   1.521   5.564
19689TIP3    H280559   1.225   1.468   5.549
19690TIP3   OH280560   5.441   1.615   2.300
19690TIP3    H180561   5.445   1.710   2.312
19690TIP3    H280562   5.425   1.603   2.207
19691TIP3   OH280563   2.390   3.955   1.066
19691TIP3    H180564   2.319   3.890   1.064
19691TIP3    H280565   2.366   4.014   1.137
19692TIP3   OH280566   1.840   2.132  13.874
19692TIP3    H180567   1.881   2.085  13.947
19692TIP3    H280568   1.783   2.197  13.916
19693TIP3   OH280569   1.609   5.175   1.244
19693TIP3    H180570   1.628   5.143   1.156
19693TIP3    H280571   1.540   5.240   1.232
19694TIP3   OH280572   6.195   1.279   0.301
19694TIP3    H180573   6.223   1.216   0.368
19694TIP3    H280574   6.264   1.345   0.300
19695TIP3   OH280575   5.190   3.988   5.171
19695TIP3    H180576   5.146   3.979   5.256
19695TIP3    H280577   5.208   4.082   5.162
19696TIP3   OH280578   4.992   3.260  11.383
19696TIP3    H180579   4.907   3.227  11.352
19696TIP3    H280580   5.047   3.183  11.391
19697TIP3   OH280581   3.306   1.328   1.180
19697TIP3    H180582   3.320   1.272   1.257
19697TIP3    H280583   3.274   1.411   1.216
19698TIP3   OH280584   1.046   0.450  16.541
19698TIP3    H180585   1.104   0.390  16.587
19698TIP3    H280586   1.078   0.450  16.450
19699TIP3   OH280587   6.116   5.741  15.341
19699TIP3    H180588   6.185   5.801  15.368
19699TIP3    H280589   6.041   5.797  15.321
19700TIP3   OH280590   4.149   5.778   2.312
19700TIP3    H180591   4.138   5.690   2.278
19700TIP3    H280592   4.231   5.809   2.272
19701TIP3   OH280593   4.448   2.632  12.087
19701TIP3    H180594   4.535   2.602  12.059
19701TIP3    H280595   4.456   2.642  12.182
19702TIP3   OH280596   3.939   3.071   4.407
19702TIP3    H180597   3.964   3.127   4.481
19702TIP3    H280598   3.996   3.099   4.336
19703TIP3   OH280599   2.906   1.022   6.106
19703TIP3    H180600   2.921   1.100   6.160
19703TIP3    H280601   2.980   1.021   6.045
19704TIP3   OH280602   5.989   4.855   0.269
19704TIP3    H180603   5.967   4.945   0.293
19704TIP3    H280604   5.921   4.802   0.312
19705TIP3   OH280605   3.916   5.429   1.087
19705TIP3    H180606   3.915   5.494   1.158
19705TIP3    H280607   3.963   5.473   1.016
19706TIP3   OH280608   0.602   0.096   1.453
19706TIP3    H180609   0.517   0.054   1.463
19706TIP3    H280610   0.657   0.055   1.520
19707TIP3   OH280611   0.311   0.889   4.265
19707TIP3    H180612   0.365   0.956   4.306
19707TIP3    H280613   0.235   0.881   4.323
19708TIP3   OH280614   0.002   3.547  16.984
19708TIP3    H180615  -0.053   3.579  16.913
19708TIP3    H280616  -0.042   3.467  17.013
19709TIP3   OH280617   4.988   3.147  15.098
19709TIP3    H180618   4.978   3.149  15.003
19709TIP3    H280619   4.910   3.192  15.131
19710TIP3   OH280620   1.448   3.957  11.742
19710TIP3    H180621   1.482   4.043  11.769
19710TIP3    H280622   1.525   3.902  11.734
19711TIP3   OH280623   6.391   3.767   2.854
19711TIP3    H180624   6.433   3.681   2.854
19711TIP3    H280625   6.413   3.804   2.940
19712TIP3   OH280626   6.212   5.562   5.400
19712TIP3    H180627   6.174   5.500   5.337
19712TIP3    H280628   6.136   5.602   5.443
19713TIP3   OH280629   1.977   3.990  12.982
19713TIP3    H180630   1.924   3.938  12.922
19713TIP3    H280631   2.027   4.049  12.926
19714TIP3   OH280632   6.160   1.154  14.065
19714TIP3    H180633   6.160   1.114  13.978
19714TIP3    H280634   6.129   1.084  14.123
19715TIP3   OH280635   2.073   3.476   0.973
19715TIP3    H180636   2.147   3.417   0.963
19715TIP3    H280637   2.075   3.530   0.895
19716TIP3   OH280638   5.376   4.885   0.600
19716TIP3    H180639   5.309   4.954   0.600
19716TIP3    H280640   5.327   4.805   0.576
19717TIP3   OH280641   1.239   5.551   0.955
19717TIP3    H180642   1.250   5.569   0.861
19717TIP3    H280643   1.242   5.637   0.996
19718TIP3   OH280644   2.295   3.114  13.708
19718TIP3    H180645   2.262   3.185  13.763
19718TIP3    H280646   2.295   3.149  13.619
19719TIP3   OH280647   2.325   1.284   2.470
19719TIP3    H180648   2.365   1.199   2.449
19719TIP3    H280649   2.395   1.334   2.511
19720TIP3   OH280650   1.283   4.562  13.527
19720TIP3    H180651   1.308   4.597  13.441
19720TIP3    H280652   1.346   4.602  13.588
19721TIP3   OH280653   2.843   0.699   1.702
19721TIP3    H180654   2.936   0.719   1.714
19721TIP3    H280655   2.825   0.725   1.612
19722TIP3   OH280656   4.798   6.176  16.215
19722TIP3    H180657   4.791   6.132  16.299
19722TIP3    H280658   4.750   6.119  16.154
19723TIP3   OH280659   0.957   4.732  11.161
19723TIP3    H180660   0.959   4.665  11.229
19723TIP3    H280661   0.928   4.686  11.082
19724TIP3   OH280662   4.586   0.188   0.159
19724TIP3    H180663   4.498   0.150   0.153
19724TIP3    H280664   4.599   0.202   0.253
19725TIP3   OH280665   1.878   1.440   3.935
19725TIP3    H180666   1.827   1.392   3.870
19725TIP3    H280667   1.969   1.433   3.905
19726TIP3   OH280668   0.850   4.654  15.025
19726TIP3    H180669   0.905   4.579  15.049
19726TIP3    H280670   0.912   4.719  14.993
19727TIP3   OH280671   3.829   0.709   6.630
19727TIP3    H180672   3.743   0.723   6.671
19727TIP3    H280673   3.863   0.797   6.617
19728TIP3   OH280674   3.001   2.465   3.961
19728TIP3    H180675   3.068   2.397   3.955
19728TIP3    H280676   3.009   2.514   3.879
19729TIP3   OH280677   4.750   0.838   2.120
19729TIP3    H180678   4.765   0.904   2.053
19729TIP3    H280679   4.827   0.842   2.176
19730TIP3   OH280680   0.178   3.373   4.369
19730TIP3    H180681   0.137   3.291   4.396
19730TIP3    H280682   0.105   3.431   4.348
19731TIP3   OH280683   4.588   3.248   6.287
19731TIP3    H180684   4.509   3.253   6.340
19731TIP3    H280685   4.604   3.338   6.258
19732TIP3   OH280686   1.582   5.278  11.731
19732TIP3    H180687   1.669   5.249  11.704
19732TIP3    H280688   1.532   5.197  11.741
19733TIP3   OH280689   4.554   4.275  10.392
19733TIP3    H180690   4.607   4.196  10.376
19733TIP3    H280691   4.482   4.268  10.330
19734TIP3   OH280692   5.621   0.472  13.713
19734TIP3    H180693   5.633   0.377  13.713
19734TIP3    H280694   5.586   0.492  13.626
19735TIP3   OH280695   6.122   3.863  11.440
19735TIP3    H180696   6.205   3.816  11.430
19735TIP3    H280697   6.137   3.923  11.513
19736TIP3   OH280698   1.658   6.770  16.571
19736TIP3    H180699   1.649   6.853  16.618
19736TIP3    H280700   1.695   6.710  16.635
19737TIP3   OH280701   5.940   3.069  14.461
19737TIP3    H180702   5.855   3.111  14.475
19737TIP3    H280703   6.004   3.137  14.479
19738TIP3   OH280704   2.885   5.259   0.833
19738TIP3    H180705   2.798   5.219   0.835
19738TIP3    H280706   2.891   5.298   0.746
19739TIP3   OH280707   4.724   2.264  14.202
19739TIP3    H180708   4.636   2.298  14.184
19739TIP3    H280709   4.780   2.342  14.200
19740TIP3   OH280710   2.584   1.572   0.453
19740TIP3    H180711   2.517   1.517   0.493
19740TIP3    H280712   2.650   1.511   0.421
19741TIP3   OH280713   5.167   3.757   4.894
19741TIP3    H180714   5.242   3.717   4.852
19741TIP3    H280715   5.134   3.821   4.830
19742TIP3   OH280716   3.260   0.491   6.121
19742TIP3    H180717   3.228   0.440   6.195
19742TIP3    H280718   3.305   0.566   6.161
19743TIP3   OH280719   3.582   4.302   4.719
19743TIP3    H180720   3.579   4.386   4.673
19743TIP3    H280721   3.647   4.251   4.672
19744TIP3   OH280722   3.696   6.769  13.375
19744TIP3    H180723   3.707   6.715  13.453
19744TIP3    H280724   3.639   6.718  13.317
19745TIP3   OH280725   1.356   1.050  12.645
19745TIP3    H180726   1.340   1.048  12.551
19745TIP3    H280727   1.436   1.000  12.657
19746TIP3   OH280728   1.810   6.798  13.592
19746TIP3    H180729   1.868   6.721  13.587
19746TIP3    H280730   1.731   6.766  13.636
19747TIP3   OH280731   6.018   2.829   1.587
19747TIP3    H180732   6.004   2.922   1.569
19747TIP3    H280733   6.042   2.792   1.502
19748TIP3   OH280734   4.715   0.391  14.145
19748TIP3    H180735   4.793   0.362  14.191
19748TIP3    H280736   4.724   0.486  14.136
19749TIP3   OH280737   6.254   2.301  10.838
19749TIP3    H180738   6.223   2.246  10.766
19749TIP3    H280739   6.314   2.245  10.887
19750TIP3   OH280740   0.026   4.925  12.294
19750TIP3    H180741   0.112   4.964  12.311
19750TIP3    H280742   0.042   4.863  12.223
19751TIP3   OH280743   1.866   3.252  16.955
19751TIP3    H180744   1.937   3.283  16.899
19751TIP3    H280745   1.897   3.266  17.044
19752TIP3   OH280746   3.572   6.392   5.652
19752TIP3    H180747   3.484   6.372   5.619
19752TIP3    H280748   3.568   6.370   5.746
19753TIP3   OH280749   3.217   6.165  11.512
19753TIP3    H180750   3.128   6.196  11.527
19753TIP3    H280751   3.273   6.229  11.556
19754TIP3   OH280752   5.614   3.964   3.114
19754TIP3    H180753   5.550   3.991   3.048
19754TIP3    H280754   5.683   3.921   3.063
19755TIP3   OH280755   2.162   4.422   5.445
19755TIP3    H180756   2.158   4.406   5.351
19755TIP3    H280757   2.245   4.468   5.458
19756TIP3   OH280758   1.503   1.672  17.059
19756TIP3    H180759   1.463   1.626  17.134
19756TIP3    H280760   1.469   1.762  17.066
19757TIP3   OH280761   4.831   4.197  10.570
19757TIP3    H180762   4.822   4.129  10.637
19757TIP3    H280763   4.822   4.151  10.487
19758TIP3   OH280764   6.551   2.066  15.678
19758TIP3    H180765   6.610   2.115  15.736
19758TIP3    H280766   6.578   1.974  15.690
19759TIP3   OH280767   4.965   5.268  12.399
19759TIP3    H180768   5.018   5.346  12.387
19759TIP3    H280769   4.959   5.228  12.312
19760TIP3   OH280770   5.989   6.415  12.367
19760TIP3    H180771   5.916   6.424  12.305
19760TIP3    H280772   6.007   6.505  12.395
19761TIP3   OH280773   2.008   3.112  14.787
19761TIP3    H180774   1.987   3.027  14.748
19761TIP3    H280775   2.013   3.172  14.712
19762TIP3   OH280776   3.719   1.150   2.599
19762TIP3    H180777   3.748   1.238   2.574
19762TIP3    H280778   3.799   1.098   2.604
19763TIP3   OH280779   0.695   3.766   6.061
19763TIP3    H180780   0.685   3.683   6.108
19763TIP3    H280781   0.614   3.813   6.077
19764TIP3   OH280782   0.492   1.601   4.609
19764TIP3    H180783   0.522   1.612   4.699
19764TIP3    H280784   0.473   1.690   4.578
19765TIP3   OH280785   2.416   1.306   3.982
19765TIP3    H180786   2.473   1.383   3.981
19765TIP3    H280787   2.371   1.310   4.066
19766TIP3   OH280788   2.898   2.081   6.339
19766TIP3    H180789   2.826   2.122   6.387
19766TIP3    H280790   2.909   1.995   6.381
19767TIP3   OH280791   5.922   2.751   2.069
19767TIP3    H180792   5.961   2.752   1.982
19767TIP3    H280793   5.864   2.675   2.069
19768TIP3   OH280794   1.275   6.193  16.095
19768TIP3    H180795   1.288   6.240  16.013
19768TIP3    H280796   1.183   6.168  16.095
19769TIP3   OH280797   6.787   2.993   1.492
19769TIP3    H180798   6.855   3.037   1.544
19769TIP3    H280799   6.716   2.978   1.554
19770TIP3   OH280800   1.256   0.758   2.460
19770TIP3    H180801   1.338   0.805   2.450
19770TIP3    H280802   1.267   0.677   2.410
19771TIP3   OH280803   5.363   5.308  11.958
19771TIP3    H180804   5.416   5.232  11.980
19771TIP3    H280805   5.290   5.273  11.907
19772TIP3   OH280806   3.911   2.188  15.267
19772TIP3    H180807   3.956   2.189  15.351
19772TIP3    H280808   3.826   2.229  15.284
19773TIP3   OH280809   5.232   3.335  11.786
19773TIP3    H180810   5.236   3.288  11.870
19773TIP3    H280811   5.316   3.380  11.779
19774TIP3   OH280812   6.127   0.763   4.405
19774TIP3    H180813   6.065   0.836   4.399
19774TIP3    H280814   6.084   0.700   4.462
19775TIP3   OH280815   0.832   1.253   2.405
19775TIP3    H180816   0.813   1.163   2.381
19775TIP3    H280817   0.761   1.304   2.365
19776TIP3   OH280818   5.966   2.676   0.897
19776TIP3    H180819   6.026   2.701   0.968
19776TIP3    H280820   5.896   2.627   0.941
19777TIP3   OH280821   3.983   6.720   5.564
19777TIP3    H180822   3.898   6.759   5.586
19777TIP3    H280823   3.965   6.627   5.554
19778TIP3   OH280824   2.475   0.712   0.852
19778TIP3    H180825   2.410   0.776   0.879
19778TIP3    H280826   2.429   0.628   0.855
19779TIP3   OH280827   2.993   4.161   1.595
19779TIP3    H180828   2.951   4.158   1.509
19779TIP3    H280829   2.924   4.189   1.655
19780TIP3   OH280830   3.617   2.176  10.388
19780TIP3    H180831   3.554   2.240  10.354
19780TIP3    H280832   3.564   2.114  10.438
19781TIP3   OH280833   3.715   2.665   6.101
19781TIP3    H180834   3.741   2.756   6.110
19781TIP3    H280835   3.695   2.655   6.007
19782TIP3   OH280836   4.696   1.076  10.526
19782TIP3    H180837   4.753   1.077  10.603
19782TIP3    H280838   4.681   0.983  10.508
19783TIP3   OH280839   6.244   0.902   3.615
19783TIP3    H180840   6.161   0.888   3.660
19783TIP3    H280841   6.310   0.869   3.675
19784TIP3   OH280842   5.938   3.404   5.619
19784TIP3    H180843   5.851   3.444   5.628
19784TIP3    H280844   5.920   3.314   5.592
19785TIP3   OH280845   3.153   6.664   0.036
19785TIP3    H180846   3.140   6.652   0.130
19785TIP3    H280847   3.225   6.726   0.030
19786TIP3   OH280848   1.291   2.962  16.149
19786TIP3    H180849   1.280   2.917  16.066
19786TIP3    H280850   1.323   3.049  16.125
19787TIP3   OH280851   1.898   4.103   0.022
19787TIP3    H180852   1.817   4.153   0.030
19787TIP3    H280853   1.964   4.168  -0.001
19788TIP3   OH280854   5.833   6.528   1.607
19788TIP3    H180855   5.798   6.441   1.627
19788TIP3    H280856   5.871   6.557   1.690
19789TIP3   OH280857   2.314   2.051   3.632
19789TIP3    H180858   2.375   2.109   3.677
19789TIP3    H280859   2.360   1.967   3.628
19790TIP3   OH280860   2.374   6.274   2.661
19790TIP3    H180861   2.383   6.199   2.721
19790TIP3    H280862   2.301   6.324   2.697
19791TIP3   OH280863   0.655   5.715   0.361
19791TIP3    H180864   0.686   5.625   0.346
19791TIP3    H280865   0.641   5.750   0.273
19792TIP3   OH280866   5.192   0.646  12.561
19792TIP3    H180867   5.263   0.591  12.531
19792TIP3    H280868   5.127   0.642  12.491
19793TIP3   OH280869   3.623   2.894   5.377
19793TIP3    H180870   3.575   2.879   5.296
19793TIP3    H280871   3.665   2.809   5.395
19794TIP3   OH280872   4.208   0.375   4.432
19794TIP3    H180873   4.187   0.329   4.351
19794TIP3    H280874   4.125   0.413   4.460
19795TIP3   OH280875   4.325   5.596   2.775
19795TIP3    H180876   4.255   5.637   2.725
19795TIP3    H280877   4.401   5.653   2.761
19796TIP3   OH280878   3.274   5.787   3.168
19796TIP3    H180879   3.299   5.873   3.202
19796TIP3    H280880   3.214   5.752   3.233
19797TIP3   OH280881   2.200   5.720  16.155
19797TIP3    H180882   2.105   5.731  16.169
19797TIP3    H280883   2.207   5.647  16.094
19798TIP3   OH280884   2.405   5.457   4.252
19798TIP3    H180885   2.398   5.524   4.184
19798TIP3    H280886   2.358   5.494   4.326
19799TIP3   OH280887   4.575   2.278  11.028
19799TIP3    H180888   4.566   2.373  11.040
19799TIP3    H280889   4.665   2.266  10.997
19800TIP3   OH280890   4.538   5.743  13.950
19800TIP3    H180891   4.516   5.836  13.947
19800TIP3    H280892   4.486   5.703  13.881
19801TIP3   OH280893   1.375   6.673   1.611
19801TIP3    H180894   1.429   6.750   1.594
19801TIP3    H280895   1.422   6.626   1.681
19802TIP3   OH280896   5.940   3.334  12.409
19802TIP3    H180897   6.008   3.400  12.414
19802TIP3    H280898   5.878   3.358  12.477
19803TIP3   OH280899   5.898   4.666  14.844
19803TIP3    H180900   5.982   4.648  14.801
19803TIP3    H280901   5.842   4.701  14.774
19804TIP3   OH280902   5.922   1.649   2.561
19804TIP3    H180903   5.883   1.699   2.633
19804TIP3    H280904   6.016   1.655   2.575
19805TIP3   OH280905   3.922   2.272  11.642
19805TIP3    H180906   3.986   2.256  11.711
19805TIP3    H280907   3.842   2.231  11.674
19806TIP3   OH280908   5.783   2.469   2.486
19806TIP3    H180909   5.766   2.401   2.421
19806TIP3    H280910   5.876   2.487   2.479
19807TIP3   OH280911   1.618   6.035   4.459
19807TIP3    H180912   1.566   5.958   4.439
19807TIP3    H280913   1.651   6.020   4.548
19808TIP3   OH280914   5.411   3.244   1.395
19808TIP3    H180915   5.477   3.238   1.464
19808TIP3    H280916   5.443   3.183   1.327
19809TIP3   OH280917   0.034   0.916   4.980
19809TIP3    H180918   0.086   0.966   4.918
19809TIP3    H280919   0.068   0.940   5.066
19810TIP3   OH280920   5.843   1.769   2.833
19810TIP3    H180921   5.806   1.767   2.921
19810TIP3    H280922   5.860   1.862   2.817
19811TIP3   OH280923   3.142   3.839  12.116
19811TIP3    H180924   3.067   3.782  12.098
19811TIP3    H280925   3.103   3.920  12.148
19812TIP3   OH280926   6.202   4.917  14.994
19812TIP3    H180927   6.265   4.848  15.016
19812TIP3    H280928   6.246   4.998  15.019
19813TIP3   OH280929   4.364   4.640  15.445
19813TIP3    H180930   4.282   4.592  15.446
19813TIP3    H280931   4.377   4.664  15.354
19814TIP3   OH280932   5.449   2.756   3.192
19814TIP3    H180933   5.430   2.823   3.127
19814TIP3    H280934   5.513   2.698   3.150
19815TIP3   OH280935   1.481   1.795  14.448
19815TIP3    H180936   1.448   1.883  14.428
19815TIP3    H280937   1.448   1.740  14.378
19816TIP3   OH280938   4.649   1.732  12.089
19816TIP3    H180939   4.645   1.706  11.997
19816TIP3    H280940   4.670   1.825  12.086
19817TIP3   OH280941   5.265   4.657  16.078
19817TIP3    H180942   5.330   4.727  16.074
19817TIP3    H280943   5.255   4.628  15.987
19818TIP3   OH280944   2.131   1.624   4.519
19818TIP3    H180945   2.099   1.647   4.432
19818TIP3    H280946   2.059   1.647   4.578
19819TIP3   OH280947   0.949   1.175  14.870
19819TIP3    H180948   0.954   1.170  14.966
19819TIP3    H280949   0.999   1.099  14.840
19820TIP3   OH280950   6.354   6.242  16.015
19820TIP3    H180951   6.431   6.190  15.993
19820TIP3    H280952   6.299   6.183  16.066
19821TIP3   OH280953   1.442   4.310   2.990
19821TIP3    H180954   1.391   4.246   3.040
19821TIP3    H280955   1.532   4.279   2.996
19822TIP3   OH280956   4.580   1.808   0.863
19822TIP3    H180957   4.649   1.743   0.876
19822TIP3    H280958   4.548   1.790   0.774
19823TIP3   OH280959   0.452   5.326   3.304
19823TIP3    H180960   0.425   5.242   3.266
19823TIP3    H280961   0.443   5.314   3.398
19824TIP3   OH280962   4.403   4.715  11.906
19824TIP3    H180963   4.420   4.631  11.864
19824TIP3    H280964   4.316   4.706  11.944
19825TIP3   OH280965   0.993   0.329  12.771
19825TIP3    H180966   0.980   0.254  12.830
19825TIP3    H280967   1.075   0.311  12.726
19826TIP3   OH280968   3.103   4.578   3.956
19826TIP3    H180969   3.156   4.615   4.027
19826TIP3    H280970   3.127   4.629   3.879
19827TIP3   OH280971   4.035   3.681  11.597
19827TIP3    H180972   3.992   3.754  11.643
19827TIP3    H280973   4.106   3.723  11.548
19828TIP3   OH280974   2.888   2.512   6.232
19828TIP3    H180975   2.842   2.550   6.307
19828TIP3    H280976   2.962   2.571   6.217
19829TIP3   OH280977   4.442   0.210   1.671
19829TIP3    H180978   4.405   0.230   1.585
19829TIP3    H280979   4.488   0.127   1.659
19830TIP3   OH280980   2.837   0.989   0.972
19830TIP3    H180981   2.779   0.945   1.034
19830TIP3    H280982   2.792   0.982   0.888
19831TIP3   OH280983   0.942   6.550   3.022
19831TIP3    H180984   0.981   6.556   3.109
19831TIP3    H280985   1.017   6.561   2.962
19832TIP3   OH280986   6.563   3.231  11.033
19832TIP3    H180987   6.601   3.190  10.956
19832TIP3    H280988   6.630   3.292  11.063
19833TIP3   OH280989   1.943   4.283   5.695
19833TIP3    H180990   1.903   4.298   5.781
19833TIP3    H280991   1.961   4.371   5.662
19834TIP3   OH280992   4.792   2.849   5.595
19834TIP3    H180993   4.766   2.757   5.602
19834TIP3    H280994   4.872   2.855   5.648
19835TIP3   OH280995   6.306   3.128  12.675
19835TIP3    H180996   6.257   3.113  12.595
19835TIP3    H280997   6.301   3.223  12.690
19836TIP3   OH280998   0.258   1.125  16.029
19836TIP3    H180999   0.353   1.117  16.018
19836TIP3    H281000   0.223   1.124  15.940
19837TIP3   OH281001   2.915   5.340  17.003
19837TIP3    H181002   2.972   5.297  17.066
19837TIP3    H281003   2.976   5.385  16.943
19838TIP3   OH281004   6.358   2.654  10.296
19838TIP3    H181005   6.364   2.580  10.235
19838TIP3    H281006   6.446   2.692  10.296
19839TIP3   OH281007   0.762   5.018  15.771
19839TIP3    H181008   0.807   5.082  15.826
19839TIP3    H281009   0.823   4.944  15.766
19840TIP3   OH281010   2.090   5.575   0.793
19840TIP3    H181011   2.158   5.542   0.852
19840TIP3    H281012   2.031   5.501   0.780
19841TIP3   OH281013   0.882   6.772  13.089
19841TIP3    H181014   0.918   6.706  13.148
19841TIP3    H281015   0.790   6.747  13.080
19842TIP3   OH281016   1.463   6.558  12.547
19842TIP3    H181017   1.447   6.502  12.471
19842TIP3    H281018   1.557   6.577  12.543
19843TIP3   OH281019   2.477   1.321   5.376
19843TIP3    H181020   2.517   1.283   5.298
19843TIP3    H281021   2.533   1.395   5.398
19844TIP3   OH281022   2.438   2.364   4.580
19844TIP3    H181023   2.444   2.282   4.628
19844TIP3    H281024   2.463   2.431   4.644
19845TIP3   OH281025   5.075   0.185  16.235
19845TIP3    H181026   5.157   0.233  16.239
19845TIP3    H281027   5.064   0.149  16.323
19846TIP3   OH281028   2.071   1.338   4.339
19846TIP3    H181029   2.120   1.267   4.381
19846TIP3    H281030   2.061   1.309   4.248
19847TIP3   OH281031   6.564   5.046   4.899
19847TIP3    H181032   6.614   5.114   4.944
19847TIP3    H281033   6.564   5.073   4.807
19848TIP3   OH281034   4.388   3.280  16.945
19848TIP3    H181035   4.357   3.362  16.908
19848TIP3    H281036   4.310   3.225  16.952
19849TIP3   OH281037   0.877   0.649   4.653
19849TIP3    H181038   0.889   0.713   4.722
19849TIP3    H281039   0.793   0.607   4.673
19850TIP3   OH281040   3.013   2.014  15.104
19850TIP3    H181041   2.989   2.087  15.161
19850TIP3    H281042   3.071   1.960  15.158
19851TIP3   OH281043   1.094   5.503   3.944
19851TIP3    H181044   1.082   5.536   3.855
19851TIP3    H281045   1.183   5.531   3.968
19852TIP3   OH281046   2.399   0.512   1.212
19852TIP3    H181047   2.336   0.559   1.266
19852TIP3    H281048   2.463   0.578   1.187
19853TIP3   OH281049   1.882   4.102  11.477
19853TIP3    H181050   1.930   4.136  11.552
19853TIP3    H281051   1.791   4.129  11.492
19854TIP3   OH281052   3.772   4.263   0.369
19854TIP3    H181053   3.755   4.340   0.315
19854TIP3    H281054   3.714   4.274   0.444
19855TIP3   OH281055   4.748   1.158   0.847
19855TIP3    H181056   4.658   1.152   0.816
19855TIP3    H281057   4.800   1.112   0.780
19856TIP3   OH281058   4.643   4.167  12.176
19856TIP3    H181059   4.677   4.250  12.144
19856TIP3    H281060   4.594   4.131  12.102
19857TIP3   OH281061   1.767   6.258  12.828
19857TIP3    H181062   1.753   6.163  12.833
19857TIP3    H281063   1.771   6.286  12.919
19858TIP3   OH281064   6.090   4.586  12.626
19858TIP3    H181065   6.059   4.548  12.544
19858TIP3    H281066   6.101   4.512  12.686
19859TIP3   OH281067   1.626   4.770  16.767
19859TIP3    H181068   1.642   4.785  16.860
19859TIP3    H281069   1.713   4.766  16.728
19860TIP3   OH281070   0.382   2.168   3.492
19860TIP3    H181071   0.413   2.077   3.489
19860TIP3    H281072   0.401   2.202   3.405
19861TIP3   OH281073   4.652   0.385   3.611
19861TIP3    H181074   4.709   0.310   3.596
19861TIP3    H281075   4.599   0.392   3.532
19862TIP3   OH281076   3.431   4.420  11.586
19862TIP3    H181077   3.523   4.427  11.562
19862TIP3    H281078   3.432   4.407  11.681
19863TIP3   OH281079   3.112   1.129   2.121
19863TIP3    H181080   3.198   1.151   2.155
19863TIP3    H281081   3.064   1.212   2.120
19864TIP3   OH281082   0.354   5.851  15.036
19864TIP3    H181083   0.289   5.879  15.101
19864TIP3    H281084   0.317   5.876  14.952
19865TIP3   OH281085   6.523   3.320   2.354
19865TIP3    H181086   6.494   3.350   2.441
19865TIP3    H281087   6.604   3.368   2.338
19866TIP3   OH281088   1.087   1.997  13.408
19866TIP3    H181089   0.997   2.019  13.433
19866TIP3    H281090   1.087   2.004  13.313
19867TIP3   OH281091   2.415   5.983  12.838
19867TIP3    H181092   2.364   5.933  12.775
19867TIP3    H281093   2.501   5.994  12.796
19868TIP3   OH281094   3.993   5.640  12.191
19868TIP3    H181095   3.949   5.651  12.107
19868TIP3    H281096   3.930   5.594  12.246
19869TIP3   OH281097   1.690   5.007  13.055
19869TIP3    H181098   1.629   5.068  13.096
19869TIP3    H281099   1.672   5.015  12.961
19870TIP3   OH281100   1.246   1.625   4.225
19870TIP3    H181101   1.270   1.578   4.146
19870TIP3    H281102   1.324   1.675   4.248
19871TIP3   OH281103   3.482   2.975  15.708
19871TIP3    H181104   3.563   2.925  15.700
19871TIP3    H281105   3.480   3.029  15.629
19872TIP3   OH281106   6.198   5.714   4.960
19872TIP3    H181107   6.173   5.633   5.005
19872TIP3    H281108   6.290   5.727   4.984
19873TIP3   OH281109   1.070   4.784  14.250
19873TIP3    H181110   1.031   4.872  14.252
19873TIP3    H281111   1.163   4.801  14.234
19874TIP3   OH281112   1.168   0.689   6.591
19874TIP3    H181113   1.093   0.739   6.560
19874TIP3    H281114   1.192   0.633   6.517
19875TIP3   OH281115   1.917   2.331   2.857
19875TIP3    H181116   1.884   2.407   2.810
19875TIP3    H281117   2.000   2.361   2.896
19876TIP3   OH281118   2.200   5.509   3.424
19876TIP3    H181119   2.123   5.557   3.395
19876TIP3    H281120   2.206   5.433   3.366
19877TIP3   OH281121   0.035   4.377   3.110
19877TIP3    H181122   0.088   4.312   3.064
19877TIP3    H281123   0.096   4.446   3.134
19878TIP3   OH281124   5.058   3.192   3.655
19878TIP3    H181125   5.087   3.214   3.744
19878TIP3    H281126   5.110   3.250   3.598
19879TIP3   OH281127   3.172   3.274   3.196
19879TIP3    H181128   3.231   3.221   3.142
19879TIP3    H281129   3.215   3.359   3.201
19880TIP3   OH281130   5.098   4.735   6.336
19880TIP3    H181131   5.062   4.773   6.416
19880TIP3    H281132   5.039   4.764   6.266
19881TIP3   OH281133   3.242   4.959   5.101
19881TIP3    H181134   3.168   4.970   5.161
19881TIP3    H281135   3.205   4.971   5.014
19882TIP3   OH281136   5.203   6.339  11.543
19882TIP3    H181137   5.132   6.397  11.515
19882TIP3    H281138   5.258   6.329  11.465
19883TIP3   OH281139   1.874   2.565  12.478
19883TIP3    H181140   1.928   2.538  12.404
19883TIP3    H281141   1.841   2.483  12.516
19884TIP3   OH281142   2.190   2.123   4.705
19884TIP3    H181143   2.126   2.076   4.758
19884TIP3    H281144   2.273   2.110   4.751
19885TIP3   OH281145   0.487   6.007  17.177
19885TIP3    H181146   0.576   5.977  17.159
19885TIP3    H281147   0.490   6.034  17.269
19886TIP3   OH281148   4.111   2.703   1.000
19886TIP3    H181149   4.041   2.745   1.050
19886TIP3    H281150   4.167   2.776   0.973
19887TIP3   OH281151   4.679   4.997  13.671
19887TIP3    H181152   4.618   5.039  13.733
19887TIP3    H281153   4.717   5.070  13.622
19888TIP3   OH281154   3.086   3.997  15.170
19888TIP3    H181155   3.181   4.000  15.159
19888TIP3    H281156   3.054   3.955  15.090
19889TIP3   OH281157   4.934   5.485   4.051
19889TIP3    H181158   4.994   5.559   4.064
19889TIP3    H281159   4.859   5.505   4.107
19890TIP3   OH281160   0.554   4.462  15.523
19890TIP3    H181161   0.555   4.533  15.459
19890TIP3    H281162   0.539   4.506  15.607
19891TIP3   OH281163   1.183   2.987  15.904
19891TIP3    H181164   1.097   3.029  15.908
19891TIP3    H281165   1.168   2.907  15.853
19892TIP3   OH281166   6.415   3.762   0.138
19892TIP3    H181167   6.369   3.709   0.072
19892TIP3    H281168   6.376   3.850   0.129
19893TIP3   OH281169   1.747   1.009  14.461
19893TIP3    H181170   1.710   0.965  14.538
19893TIP3    H281171   1.801   1.079  14.497
19894TIP3   OH281172   6.487   5.275   3.009
19894TIP3    H181173   6.466   5.184   2.989
19894TIP3    H281174   6.402   5.315   3.026
19895TIP3   OH281175   0.273   1.263  10.582
19895TIP3    H181176   0.229   1.177  10.576
19895TIP3    H281177   0.297   1.283  10.491
19896TIP3   OH281178   3.071   4.351  12.176
19896TIP3    H181179   3.030   4.405  12.242
19896TIP3    H281180   3.059   4.399  12.094
19897TIP3   OH281181   6.518   6.458  14.885
19897TIP3    H181182   6.529   6.439  14.978
19897TIP3    H281183   6.451   6.396  14.856
19898TIP3   OH281184   0.769   2.610   1.382
19898TIP3    H181185   0.680   2.645   1.383
19898TIP3    H281186   0.768   2.542   1.314
19899TIP3   OH281187   1.404   0.929   1.571
19899TIP3    H181188   1.435   0.952   1.483
19899TIP3    H281189   1.332   0.869   1.556
19900TIP3   OH281190   3.476   4.783  11.362
19900TIP3    H181191   3.428   4.702  11.381
19900TIP3    H281192   3.554   4.754  11.315
19901TIP3   OH281193   0.558   4.320  16.759
19901TIP3    H181194   0.521   4.312  16.671
19901TIP3    H281195   0.582   4.230  16.783
19902TIP3   OH281196   1.543   1.117  11.178
19902TIP3    H181197   1.623   1.069  11.155
19902TIP3    H281198   1.472   1.059  11.154
19903TIP3   OH281199   4.664   6.778  10.581
19903TIP3    H181200   4.683   6.688  10.605
19903TIP3    H281201   4.719   6.796  10.505
19904TIP3   OH281202   6.640   0.397   1.446
19904TIP3    H181203   6.670   0.306   1.439
19904TIP3    H281204   6.545   0.391   1.449
19905TIP3   OH281205   0.615   1.044   3.591
19905TIP3    H181206   0.613   1.070   3.683
19905TIP3    H281207   0.704   1.063   3.563
19906TIP3   OH281208   0.083   1.989  15.993
19906TIP3    H181209   0.131   2.013  16.072
19906TIP3    H281210   0.062   1.896  16.004
19907TIP3   OH281211   5.795   6.009   0.868
19907TIP3    H181212   5.832   6.046   0.948
19907TIP3    H281213   5.809   6.076   0.802
19908TIP3   OH281214   1.247   0.467  11.850
19908TIP3    H181215   1.197   0.385  11.857
19908TIP3    H281216   1.338   0.440  11.857
19909TIP3   OH281217   2.827   1.435   6.148
19909TIP3    H181218   2.836   1.358   6.205
19909TIP3    H281219   2.829   1.509   6.208
19910TIP3   OH281220   1.094   4.993   1.401
19910TIP3    H181221   1.138   4.965   1.321
19910TIP3    H281222   1.102   5.088   1.400
19911TIP3   OH281223   5.140   1.977  17.053
19911TIP3    H181224   5.048   1.974  17.026
19911TIP3    H281225   5.188   1.989  16.971
19912TIP3   OH281226   1.725   2.636   3.440
19912TIP3    H181227   1.709   2.716   3.390
19912TIP3    H281228   1.679   2.649   3.523
19913TIP3   OH281229   4.770   1.799  15.579
19913TIP3    H181230   4.689   1.755  15.607
19913TIP3    H281231   4.771   1.881  15.629
19914TIP3   OH281232   2.845   5.659   0.242
19914TIP3    H181233   2.792   5.648   0.321
19914TIP3    H281234   2.809   5.596   0.180
19915TIP3   OH281235   5.227   3.274  15.103
19915TIP3    H181236   5.276   3.259  15.183
19915TIP3    H281237   5.143   3.229  15.117
19916TIP3   OH281238   2.426   3.684  14.942
19916TIP3    H181239   2.366   3.664  15.014
19916TIP3    H281240   2.452   3.775  14.958
19917TIP3   OH281241   1.640   1.445  12.796
19917TIP3    H181242   1.726   1.413  12.825
19917TIP3    H281243   1.659   1.531  12.758
19918TIP3   OH281244   0.582   2.559  12.007
19918TIP3    H181245   0.633   2.550  11.926
19918TIP3    H281246   0.616   2.639  12.047
19919TIP3   OH281247   3.380   0.519   0.849
19919TIP3    H181248   3.362   0.613   0.849
19919TIP3    H281249   3.305   0.481   0.895
19920TIP3   OH281250   5.427   6.193  16.761
19920TIP3    H181251   5.332   6.195  16.770
19920TIP3    H281252   5.459   6.174  16.849
19921TIP3   OH281253   0.365   5.394   1.131
19921TIP3    H181254   0.269   5.396   1.120
19921TIP3    H281255   0.398   5.407   1.042
19922TIP3   OH281256   3.925   2.251   2.748
19922TIP3    H181257   4.001   2.308   2.758
19922TIP3    H281258   3.858   2.307   2.708
19923TIP3   OH281259   6.771   2.495  15.673
19923TIP3    H181260   6.694   2.451  15.637
19923TIP3    H281261   6.787   2.451  15.757
19924TIP3   OH281262   5.535   3.106  16.253
19924TIP3    H181263   5.514   3.064  16.169
19924TIP3    H281264   5.630   3.105  16.256
19925TIP3   OH281265   0.401   4.774   0.456
19925TIP3    H181266   0.389   4.839   0.387
19925TIP3    H281267   0.487   4.735   0.437
19926TIP3   OH281268   3.922   0.829   2.801
19926TIP3    H181269   3.873   0.749   2.785
19926TIP3    H281270   3.914   0.844   2.895
19927TIP3   OH281271   1.522   2.602  13.970
19927TIP3    H181272   1.429   2.605  13.991
19927TIP3    H281273   1.530   2.651  13.888
19928TIP3   OH281274   2.162   4.107  16.615
19928TIP3    H181275   2.068   4.093  16.628
19928TIP3    H281276   2.168   4.163  16.538
19929TIP3   OH281277   2.664   3.540   2.393
19929TIP3    H181278   2.709   3.457   2.381
19929TIP3    H281279   2.677   3.561   2.486
19930TIP3   OH281280   2.606   0.564  14.568
19930TIP3    H181281   2.539   0.563  14.500
19930TIP3    H281282   2.659   0.642  14.547
19931TIP3   OH281283   6.167   3.609  13.685
19931TIP3    H181284   6.143   3.535  13.629
19931TIP3    H281285   6.249   3.642  13.648
19932TIP3   OH281286   5.044   2.100   6.377
19932TIP3    H181287   5.063   2.191   6.403
19932TIP3    H281288   5.109   2.082   6.309
19933TIP3   OH281289   2.362   0.172  14.412
19933TIP3    H181290   2.394   0.180  14.322
19933TIP3    H281291   2.358   0.077  14.426
19934TIP3   OH281292   4.394   0.568   4.414
19934TIP3    H181293   4.352   0.648   4.445
19934TIP3    H281294   4.324   0.503   4.414
19935TIP3   OH281295   6.451   5.459   3.469
19935TIP3    H181296   6.507   5.416   3.404
19935TIP3    H281297   6.510   5.485   3.539
19936TIP3   OH281298   5.101   4.043   1.242
19936TIP3    H181299   5.131   4.097   1.169
19936TIP3    H281300   5.016   4.080   1.267
19937TIP3   OH281301   3.607   5.665   2.791
19937TIP3    H181302   3.542   5.623   2.846
19937TIP3    H281303   3.586   5.636   2.702
19938TIP3   OH281304   2.049   2.534  14.810
19938TIP3    H181305   2.120   2.470  14.817
19938TIP3    H281306   2.091   2.617  14.833
19939TIP3   OH281307   1.933   6.021   0.267
19939TIP3    H181308   1.951   6.007   0.174
19939TIP3    H281309   1.926   5.934   0.304
19940TIP3   OH281310   6.615   1.086   2.028
19940TIP3    H181311   6.709   1.085   2.044
19940TIP3    H281312   6.595   1.179   2.014
19941TIP3   OH281313   6.664   2.319  13.453
19941TIP3    H181314   6.699   2.384  13.515
19941TIP3    H281315   6.739   2.296  13.398
19942TIP3   OH281316   4.384   1.829  16.175
19942TIP3    H181317   4.406   1.776  16.099
19942TIP3    H281318   4.427   1.784  16.248
19943TIP3   OH281319   4.010   3.480  13.783
19943TIP3    H181320   3.991   3.514  13.696
19943TIP3    H281321   4.003   3.385  13.774
19944TIP3   OH281322   3.811   5.875   1.883
19944TIP3    H181323   3.864   5.804   1.919
19944TIP3    H281324   3.855   5.898   1.801
19945TIP3   OH281325   2.842   4.266  10.810
19945TIP3    H181326   2.881   4.315  10.882
19945TIP3    H281327   2.903   4.193  10.795
19946TIP3   OH281328   0.104   3.680  11.742
19946TIP3    H181329   0.132   3.598  11.701
19946TIP3    H281330   0.184   3.719  11.775
19947TIP3   OH281331   3.711   4.584  15.242
19947TIP3    H181332   3.761   4.634  15.306
19947TIP3    H281333   3.659   4.523  15.294
19948TIP3   OH281334   3.448   5.426   5.578
19948TIP3    H181335   3.465   5.472   5.660
19948TIP3    H281336   3.361   5.455   5.552
19949TIP3   OH281337   4.097   6.650  12.484
19949TIP3    H181338   4.092   6.576  12.423
19949TIP3    H281339   4.114   6.726  12.428
19950TIP3   OH281340   5.795   0.378  17.058
19950TIP3    H181341   5.823   0.428  17.134
19950TIP3    H281342   5.706   0.350  17.078
19951TIP3   OH281343   2.109   6.105   0.877
19951TIP3    H181344   2.013   6.107   0.872
19951TIP3    H281345   2.132   6.015   0.853
19952TIP3   OH281346   4.860   2.538  13.439
19952TIP3    H181347   4.954   2.520  13.451
19952TIP3    H281348   4.816   2.467  13.485
19953TIP3   OH281349   2.091   6.074   1.250
19953TIP3    H181350   2.052   6.140   1.193
19953TIP3    H281351   2.018   6.040   1.301
19954TIP3   OH281352   2.861   3.367  11.284
19954TIP3    H181353   2.827   3.454  11.260
19954TIP3    H281354   2.860   3.318  11.202
19955TIP3   OH281355   2.937   0.725   5.120
19955TIP3    H181356   3.013   0.772   5.154
19955TIP3    H281357   2.900   0.784   5.054
19956TIP3   OH281358   4.584   4.601   0.644
19956TIP3    H181359   4.522   4.674   0.637
19956TIP3    H281360   4.561   4.543   0.571
19957TIP3   OH281361   1.350   6.014  11.456
19957TIP3    H181362   1.328   5.927  11.423
19957TIP3    H281363   1.445   6.016  11.459
19958TIP3   OH281364   2.941   4.757   1.845
19958TIP3    H181365   2.888   4.831   1.814
19958TIP3    H281366   2.978   4.719   1.765
19959TIP3   OH281367   2.153   5.279   3.249
19959TIP3    H181368   2.082   5.229   3.209
19959TIP3    H281369   2.213   5.213   3.282
19960TIP3   OH281370   6.185   5.385   6.485
19960TIP3    H181371   6.184   5.315   6.420
19960TIP3    H281372   6.229   5.346   6.561
19961TIP3   OH281373   5.522   6.142  14.780
19961TIP3    H181374   5.447   6.122  14.835
19961TIP3    H281375   5.560   6.221  14.818
19962TIP3   OH281376   5.402   0.250   1.003
19962TIP3    H181377   5.332   0.305   0.968
19962TIP3    H281378   5.365   0.163   1.006
19963TIP3   OH281379   4.985   5.032  16.914
19963TIP3    H181380   5.061   5.090  16.902
19963TIP3    H281381   5.021   4.944  16.907
19964TIP3   OH281382   4.647   5.755  13.432
19964TIP3    H181383   4.730   5.777  13.474
19964TIP3    H281384   4.581   5.789  13.491
19965TIP3   OH281385   3.861   2.712  14.979
19965TIP3    H181386   3.829   2.634  15.023
19965TIP3    H281387   3.885   2.682  14.891
19966TIP3   OH281388   5.189   3.938  15.371
19966TIP3    H181389   5.243   3.995  15.425
19966TIP3    H281390   5.122   3.904  15.430
19967TIP3   OH281391   2.956   4.029   4.397
19967TIP3    H181392   2.988   3.962   4.457
19967TIP3    H281393   3.035   4.063   4.354
19968TIP3   OH281394   0.870   1.383  11.399
19968TIP3    H181395   0.961   1.388  11.428
19968TIP3    H281396   0.860   1.455  11.336
19969TIP3   OH281397   0.960   0.840   3.694
19969TIP3    H181398   0.924   0.911   3.642
19969TIP3    H281399   1.037   0.811   3.645
19970TIP3   OH281400   1.562   2.130   6.217
19970TIP3    H181401   1.472   2.163   6.223
19970TIP3    H281402   1.570   2.070   6.291
19971TIP3   OH281403   0.169   1.454   2.739
19971TIP3    H181404   0.229   1.431   2.810
19971TIP3    H281405   0.202   1.538   2.706
19972TIP3   OH281406   0.835   4.311   1.955
19972TIP3    H181407   0.805   4.401   1.970
19972TIP3    H281408   0.809   4.291   1.866
19973TIP3   OH281409   4.122   6.151   1.170
19973TIP3    H181410   4.058   6.081   1.172
19973TIP3    H281411   4.082   6.219   1.116
19974TIP3   OH281412   1.225   2.758   5.434
19974TIP3    H181413   1.314   2.761   5.399
19974TIP3    H281414   1.230   2.693   5.505
19975TIP3   OH281415   3.671   5.362   0.449
19975TIP3    H181416   3.579   5.346   0.471
19975TIP3    H281417   3.669   5.439   0.391
19976TIP3   OH281418   3.353   5.539  13.245
19976TIP3    H181419   3.325   5.599  13.314
19976TIP3    H281420   3.297   5.559  13.170
19977TIP3   OH281421   4.743   3.893  11.298
19977TIP3    H181422   4.719   3.936  11.215
19977TIP3    H281423   4.819   3.942  11.328
19978TIP3   OH281424   6.340   2.401   3.788
19978TIP3    H181425   6.371   2.318   3.753
19978TIP3    H281426   6.420   2.447   3.814
19979TIP3   OH281427   3.129   3.590   4.007
19979TIP3    H181428   3.057   3.549   3.958
19979TIP3    H281429   3.146   3.531   4.080
19980TIP3   OH281430   5.715   3.018   2.444
19980TIP3    H181431   5.680   3.057   2.523
19980TIP3    H281432   5.786   2.961   2.474
19981TIP3   OH281433   1.804   3.076   0.030
19981TIP3    H181434   1.721   3.104  -0.007
19981TIP3    H281435   1.802   2.981   0.024
19982TIP3   OH281436   5.396   5.940   3.450
19982TIP3    H181437   5.303   5.936   3.431
19982TIP3    H281438   5.402   5.943   3.546
19983TIP3   OH281439   5.859   2.305  11.710
19983TIP3    H181440   5.790   2.260  11.661
19983TIP3    H281441   5.823   2.392  11.727
19984TIP3   OH281442   2.746   2.122   1.379
19984TIP3    H181443   2.693   2.186   1.426
19984TIP3    H281444   2.692   2.099   1.302
19985TIP3   OH281445   5.079   3.073  11.123
19985TIP3    H181446   5.013   3.031  11.068
19985TIP3    H281447   5.075   3.165  11.099
19986TIP3   OH281448   6.500   2.939   1.636
19986TIP3    H181449   6.543   2.956   1.720
19986TIP3    H281450   6.431   3.005   1.631
19987TIP3   OH281451   2.409   0.819  16.373
19987TIP3    H181452   2.370   0.792  16.456
19987TIP3    H281453   2.478   0.880  16.398
19988TIP3   OH281454   5.833   0.628   5.768
19988TIP3    H181455   5.774   0.700   5.744
19988TIP3    H281456   5.900   0.669   5.822
19989TIP3   OH281457   1.992   2.053   2.382
19989TIP3    H181458   1.965   2.140   2.353
19989TIP3    H281459   1.930   1.993   2.340
19990TIP3   OH281460   3.717   1.699   0.257
19990TIP3    H181461   3.781   1.756   0.214
19990TIP3    H281462   3.770   1.643   0.314
19991TIP3   OH281463   2.244   4.060   1.437
19991TIP3    H181464   2.166   4.008   1.452
19991TIP3    H281465   2.259   4.106   1.520
19992TIP3   OH281466   2.934   3.263   1.840
19992TIP3    H181467   2.913   3.322   1.913
19992TIP3    H281468   2.978   3.319   1.776
19993TIP3   OH281469   6.075   2.152   4.614
19993TIP3    H181470   6.063   2.161   4.708
19993TIP3    H281471   5.992   2.115   4.583
19994TIP3   OH281472   4.417   5.075  16.205
19994TIP3    H181473   4.470   5.006  16.245
19994TIP3    H281474   4.377   5.033  16.128
19995TIP3   OH281475   3.822   0.674  15.427
19995TIP3    H181476   3.857   0.763  15.417
19995TIP3    H281477   3.896   0.622  15.459
19996TIP3   OH281478   4.849   5.260   3.266
19996TIP3    H181479   4.912   5.250   3.337
19996TIP3    H281480   4.885   5.330   3.211
19997TIP3   OH281481   3.852   2.903   2.262
19997TIP3    H181482   3.905   2.881   2.339
19997TIP3    H281483   3.762   2.905   2.294
19998TIP3   OH281484   5.000   2.139  15.428
19998TIP3    H181485   5.024   2.047  15.420
19998TIP3    H281486   4.926   2.150  15.369
19999TIP3   OH281487   4.318   6.772   3.774
19999TIP3    H181488   4.335   6.705   3.840
19999TIP3    H281489   4.229   6.803   3.793
20000TIP3   OH281490   6.664   2.511  13.651
20000TIP3    H181491   6.620   2.596  13.661
20000TIP3    H281492   6.745   2.520  13.702
20001TIP3   OH281493   1.698   6.281   3.207
20001TIP3    H181494   1.610   6.301   3.242
20001TIP3    H281495   1.705   6.186   3.213
20002TIP3   OH281496   3.603   5.428  16.121
20002TIP3    H181497   3.565   5.405  16.206
20002TIP3    H281498   3.656   5.505  16.138
20003TIP3   OH281499   2.870   6.630  12.906
20003TIP3    H181500   2.848   6.620  12.999
20003TIP3    H281501   2.797   6.680  12.870
20004TIP3   OH281502   2.055   5.370  14.992
20004TIP3    H181503   2.128   5.340  14.936
20004TIP3    H281504   2.060   5.465  14.988
20005TIP3   OH281505   0.218   3.830   5.535
20005TIP3    H181506   0.238   3.737   5.549
20005TIP3    H281507   0.226   3.869   5.622
20006TIP3   OH281508   5.901   0.546  13.970
20006TIP3    H181509   5.831   0.485  13.946
20006TIP3    H281510   5.964   0.491  14.018
20007TIP3   OH281511   0.199   2.830  11.775
20007TIP3    H181512   0.183   2.737  11.759
20007TIP3    H281513   0.170   2.874  11.695
20008TIP3   OH281514   2.934   2.656   3.725
20008TIP3    H181515   2.996   2.648   3.653
20008TIP3    H281516   2.868   2.589   3.707
20009TIP3   OH281517   4.253   1.785   0.785
20009TIP3    H181518   4.348   1.797   0.776
20009TIP3    H281519   4.231   1.829   0.867
20010TIP3   OH281520   1.943   4.153  14.507
20010TIP3    H181521   1.866   4.153  14.450
20010TIP3    H281522   1.981   4.066  14.496
20011TIP3   OH281523   0.971   5.696   0.401
20011TIP3    H181524   0.971   5.754   0.325
20011TIP3    H281525   0.914   5.623   0.376
20012TIP3   OH281526   0.188   4.961   1.367
20012TIP3    H181527   0.265   5.015   1.351
20012TIP3    H281528   0.150   4.948   1.280
20013TIP3   OH281529   0.088   2.113  15.269
20013TIP3    H181530   0.024   2.121  15.340
20013TIP3    H281531   0.064   2.032  15.224
20014TIP3   OH281532   4.267   4.195   0.618
20014TIP3    H181533   4.243   4.149   0.537
20014TIP3    H281534   4.341   4.146   0.653
20015TIP3   OH281535   3.518   6.554  16.388
20015TIP3    H181536   3.543   6.504  16.465
20015TIP3    H281537   3.430   6.522  16.366
20016TIP3   OH281538   5.217   4.127   4.282
20016TIP3    H181539   5.288   4.184   4.313
20016TIP3    H281540   5.233   4.118   4.189
20017TIP3   OH281541   6.052   5.493  11.826
20017TIP3    H181542   6.108   5.569  11.842
20017TIP3    H281543   5.965   5.523  11.853
20018TIP3   OH281544   5.068   6.595   2.660
20018TIP3    H181545   5.129   6.530   2.692
20018TIP3    H281546   5.061   6.658   2.732
20019TIP3   OH281547   1.980   0.749   2.340
20019TIP3    H181548   1.958   0.775   2.251
20019TIP3    H281549   1.991   0.654   2.335
20020TIP3   OH281550   0.110   1.965   1.582
20020TIP3    H181551   0.187   1.907   1.577
20020TIP3    H281552   0.130   2.024   1.655
20021TIP3   OH281553   3.638   5.998  15.082
20021TIP3    H181554   3.580   6.013  15.156
20021TIP3    H281555   3.589   5.940  15.024
20022TIP3   OH281556   4.477   2.033  16.505
20022TIP3    H181557   4.495   2.126  16.487
20022TIP3    H281558   4.494   1.989  16.422
20023TIP3   OH281559   0.083   0.503  14.437
20023TIP3    H181560   0.113   0.583  14.480
20023TIP3    H281561  -0.005   0.489  14.472
20024TIP3   OH281562   1.354   3.638  12.084
20024TIP3    H181563   1.279   3.661  12.029
20024TIP3    H281564   1.317   3.583  12.153
20025TIP3   OH281565   0.984   3.813  17.178
20025TIP3    H181566   1.010   3.843  17.266
20025TIP3    H281567   0.899   3.855  17.163
20026TIP3   OH281568   3.233   3.991   4.858
20026TIP3    H181569   3.310   4.039   4.828
20026TIP3    H281570   3.181   4.056   4.904
20027TIP3   OH281571   5.334   2.827  15.129
20027TIP3    H181572   5.246   2.824  15.166
20027TIP3    H281573   5.320   2.830  15.034
20028TIP3   OH281574   3.592   2.529   2.745
20028TIP3    H181575   3.627   2.576   2.820
20028TIP3    H281576   3.670   2.502   2.696
20029TIP3   OH281577   0.336   5.459   5.010
20029TIP3    H181578   0.328   5.411   4.928
20029TIP3    H281579   0.348   5.391   5.077
20030TIP3   OH281580   2.312   6.545  13.647
20030TIP3    H181581   2.295   6.522  13.738
20030TIP3    H281582   2.381   6.612  13.652
20031TIP3   OH281583   5.911   0.057  11.729
20031TIP3    H181584   5.899   0.143  11.770
20031TIP3    H281585   5.901   0.074  11.635
20032TIP3   OH281586   0.322   5.617   3.487
20032TIP3    H181587   0.371   5.634   3.567
20032TIP3    H281588   0.245   5.674   3.493
20033TIP3   OH281589   1.225   5.031  12.825
20033TIP3    H181590   1.281   5.006  12.898
20033TIP3    H281591   1.180   4.950  12.800
20034TIP3   OH281592   4.593   6.296  15.375
20034TIP3    H181593   4.665   6.295  15.437
20034TIP3    H281594   4.516   6.317  15.428
20035TIP3   OH281595   2.737   3.505   4.256
20035TIP3    H181596   2.696   3.538   4.176
20035TIP3    H281597   2.789   3.431   4.227
20036TIP3   OH281598   2.952   0.021  13.242
20036TIP3    H181599   2.948  -0.057  13.297
20036TIP3    H281600   3.036   0.061  13.263
20037TIP3   OH281601   1.941   5.332  10.911
20037TIP3    H181602   1.909   5.340  10.821
20037TIP3    H281603   2.035   5.322  10.902
20038TIP3   OH281604   1.202   5.866   5.172
20038TIP3    H181605   1.139   5.826   5.112
20038TIP3    H281606   1.284   5.866   5.123
20039TIP3   OH281607   4.638   1.365  15.611
20039TIP3    H181608   4.608   1.454  15.593
20039TIP3    H281609   4.660   1.365  15.704
20040TIP3   OH281610   5.250   0.058   5.861
20040TIP3    H181611   5.306  -0.018   5.845
20040TIP3    H281612   5.239   0.059   5.956
20041TIP3   OH281613   2.388   4.763  13.593
20041TIP3    H181614   2.388   4.668  13.601
20041TIP3    H281615   2.398   4.780  13.500
20042TIP3   OH281616   0.889   2.689   6.536
20042TIP3    H181617   0.862   2.733   6.455
20042TIP3    H281618   0.821   2.712   6.600
20043TIP3   OH281619   5.556   1.262  17.017
20043TIP3    H181620   5.613   1.279  16.942
20043TIP3    H281621   5.580   1.328  17.082
20044TIP3   OH281622   4.216   0.198   2.092
20044TIP3    H181623   4.207   0.129   2.158
20044TIP3    H281624   4.276   0.161   2.027
20045TIP3   OH281625   4.877   3.986   2.047
20045TIP3    H181626   4.864   3.952   1.958
20045TIP3    H281627   4.789   4.003   2.079
20046TIP3   OH281628   6.719   3.765   2.993
20046TIP3    H181629   6.798   3.734   2.948
20046TIP3    H281630   6.701   3.850   2.953
20047TIP3   OH281631   6.016   3.426   1.074
20047TIP3    H181632   6.007   3.521   1.071
20047TIP3    H281633   6.084   3.410   1.140
20048TIP3   OH281634   5.507   3.126   0.701
20048TIP3    H181635   5.530   3.139   0.609
20048TIP3    H281636   5.429   3.180   0.715
20049TIP3   OH281637   4.510   1.094  12.508
20049TIP3    H181638   4.447   1.161  12.535
20049TIP3    H281639   4.533   1.048  12.589
20050TIP3   OH281640   4.241   1.365   2.870
20050TIP3    H181641   4.274   1.386   2.958
20050TIP3    H281642   4.300   1.296   2.839
20051TIP3   OH281643   6.392   5.395   5.552
20051TIP3    H181644   6.394   5.326   5.486
20051TIP3    H281645   6.337   5.463   5.515
20052TIP3   OH281646   5.675   3.638   0.990
20052TIP3    H181647   5.640   3.727   0.990
20052TIP3    H281648   5.760   3.645   1.033
20053TIP3   OH281649   1.172   6.508   4.082
20053TIP3    H181650   1.094   6.513   4.137
20053TIP3    H281651   1.150   6.556   4.003
20054TIP3   OH281652   2.627   3.399  13.749
20054TIP3    H181653   2.666   3.465  13.692
20054TIP3    H281654   2.539   3.433  13.768
20055TIP3   OH281655   5.328   4.938  14.269
20055TIP3    H181656   5.322   4.929  14.364
20055TIP3    H281657   5.383   4.864  14.242
20056TIP3   OH281658   4.855   1.402  10.826
20056TIP3    H181659   4.814   1.480  10.863
20056TIP3    H281660   4.785   1.358  10.778
20057TIP3   OH281661   3.542   1.609   2.137
20057TIP3    H181662   3.458   1.613   2.090
20057TIP3    H281663   3.552   1.696   2.176
20058TIP3   OH281664   5.696   3.856   4.321
20058TIP3    H181665   5.601   3.857   4.335
20058TIP3    H281666   5.706   3.836   4.228
20059TIP3   OH281667   0.948   2.848   1.330
20059TIP3    H181668   0.872   2.903   1.313
20059TIP3    H281669   0.912   2.764   1.358
20060TIP3   OH281670   2.273   1.349   0.175
20060TIP3    H181671   2.250   1.415   0.240
20060TIP3    H281672   2.339   1.391   0.120
20061TIP3   OH281673   5.529   2.643  11.007
20061TIP3    H181674   5.592   2.628  10.937
20061TIP3    H281675   5.477   2.718  10.976
20062TIP3   OH281676   0.053   2.224   2.484
20062TIP3    H181677   0.148   2.222   2.481
20062TIP3    H281678   0.029   2.143   2.531
20063TIP3   OH281679   2.268   0.874   4.645
20063TIP3    H181680   2.320   0.903   4.570
20063TIP3    H281681   2.220   0.797   4.613
20064TIP3   OH281682   3.013   1.809   1.497
20064TIP3    H181683   3.013   1.836   1.588
20064TIP3    H281684   2.988   1.716   1.500
20065TIP3   OH281685   1.814   5.613  12.413
20065TIP3    H181686   1.895   5.564  12.427
20065TIP3    H281687   1.791   5.648  12.499
20066TIP3   OH281688   6.349   3.842   1.289
20066TIP3    H181689   6.395   3.801   1.362
20066TIP3    H281690   6.293   3.772   1.254
20067TIP3   OH281691   2.213   4.136   0.887
20067TIP3    H181692   2.211   4.043   0.911
20067TIP3    H281693   2.274   4.176   0.949
20068TIP3   OH281694   5.793   1.555  14.962
20068TIP3    H181695   5.776   1.483  14.901
20068TIP3    H281696   5.855   1.612  14.916
20069TIP3   OH281697   1.173   1.772  16.991
20069TIP3    H181698   1.141   1.841  16.932
20069TIP3    H281699   1.210   1.706  16.932
20070TIP3   OH281700   1.782   0.181   5.569
20070TIP3    H181701   1.869   0.144   5.551
20070TIP3    H281702   1.801   0.272   5.594
20071TIP3   OH281703   1.229   2.125   1.539
20071TIP3    H181704   1.301   2.071   1.572
20071TIP3    H281705   1.273   2.201   1.500
20072TIP3   OH281706   3.994   5.464   0.290
20072TIP3    H181707   4.045   5.438   0.367
20072TIP3    H281708   3.980   5.558   0.302
20073TIP3   OH281709   5.802   2.351  15.478
20073TIP3    H181710   5.894   2.339  15.502
20073TIP3    H281711   5.755   2.288  15.532
20074TIP3   OH281712   6.447   3.741  15.993
20074TIP3    H181713   6.530   3.693  15.991
20074TIP3    H281714   6.416   3.740  15.902
20075TIP3   OH281715   3.751   2.057  13.944
20075TIP3    H181716   3.725   2.038  13.853
20075TIP3    H281717   3.775   2.149  13.943
20076TIP3   OH281718   6.446   6.109   0.627
20076TIP3    H181719   6.478   6.035   0.678
20076TIP3    H281720   6.371   6.074   0.579
20077TIP3   OH281721   1.305   3.698  13.673
20077TIP3    H181722   1.365   3.632  13.707
20077TIP3    H281723   1.246   3.715  13.747
20078TIP3   OH281724   2.123   2.283  13.959
20078TIP3    H181725   2.029   2.297  13.945
20078TIP3    H281726   2.138   2.314  14.048
20079TIP3   OH281727   4.506   1.098  14.907
20079TIP3    H181728   4.497   1.189  14.879
20079TIP3    H281729   4.525   1.103  15.001
20080TIP3   OH281730   1.980   3.410  15.666
20080TIP3    H181731   2.056   3.372  15.710
20080TIP3    H281732   1.960   3.349  15.595
20081TIP3   OH281733   2.054   2.344  15.823
20081TIP3    H181734   2.081   2.330  15.914
20081TIP3    H281735   2.100   2.276  15.774
20082TIP3   OH281736   1.300   5.131   6.606
20082TIP3    H181737   1.237   5.072   6.565
20082TIP3    H281738   1.247   5.207   6.633
20083TIP3   OH281739   4.817   1.234  16.883
20083TIP3    H181740   4.753   1.295  16.919
20083TIP3    H281741   4.899   1.254  16.928
20084TIP3   OH281742   1.900   6.222  14.700
20084TIP3    H181743   1.893   6.276  14.622
20084TIP3    H281744   1.815   6.228  14.742
20085TIP3   OH281745   6.000   5.671   3.362
20085TIP3    H181746   6.055   5.595   3.381
20085TIP3    H281747   5.944   5.680   3.439
20086TIP3   OH281748   5.444   0.646  17.031
20086TIP3    H181749   5.362   0.695  17.035
20086TIP3    H281750   5.436   0.579  17.099
20087TIP3   OH281751   0.434   1.880   4.623
20087TIP3    H181752   0.515   1.929   4.610
20087TIP3    H281753   0.371   1.946   4.653
20088TIP3   OH281754   0.257   0.191   5.121
20088TIP3    H181755   0.202   0.211   5.045
20088TIP3    H281756   0.262   0.096   5.123
20089TIP3   OH281757   1.633   6.535   0.447
20089TIP3    H181758   1.618   6.556   0.539
20089TIP3    H281759   1.717   6.575   0.427
20090TIP3   OH281760   6.552   2.653   2.822
20090TIP3    H181761   6.584   2.674   2.909
20090TIP3    H281762   6.473   2.707   2.813
20091TIP3   OH281763   6.574   1.281   4.073
20091TIP3    H181764   6.667   1.301   4.082
20091TIP3    H281765   6.533   1.324   4.148
20092TIP3   OH281766   0.460   5.785   6.397
20092TIP3    H181767   0.384   5.731   6.422
20092TIP3    H281768   0.442   5.871   6.434
20093TIP3   OH281769   1.903   3.529  14.748
20093TIP3    H181770   1.990   3.545  14.787
20093TIP3    H281771   1.848   3.507  14.823
20094TIP3   OH281772   0.191   0.870   2.534
20094TIP3    H181773   0.264   0.920   2.570
20094TIP3    H281774   0.184   0.899   2.443
20095TIP3   OH281775   5.193   2.285   5.040
20095TIP3    H181776   5.187   2.298   4.946
20095TIP3    H281777   5.111   2.317   5.075
20096TIP3   OH281778   1.211   0.050   0.485
20096TIP3    H181779   1.152   0.126   0.479
20096TIP3    H281780   1.297   0.084   0.463
20097TIP3   OH281781   2.038   4.759   2.692
20097TIP3    H181782   2.083   4.792   2.614
20097TIP3    H281783   1.965   4.708   2.657
20098TIP3   OH281784   6.564   0.908   6.221
20098TIP3    H181785   6.549   0.817   6.195
20098TIP3    H281786   6.493   0.957   6.180
20099TIP3   OH281787   2.068   0.031   1.713
20099TIP3    H181788   1.980   0.027   1.752
20099TIP3    H281789   2.128   0.024   1.787
20100TIP3   OH281790   4.763   5.018   0.023
20100TIP3    H181791   4.772   4.928   0.054
20100TIP3    H281792   4.772   5.071   0.101
20101TIP3   OH281793   3.572   6.573   0.916
20101TIP3    H181794   3.536   6.640   0.859
20101TIP3    H281795   3.638   6.618   0.968
20102TIP3   OH281796   5.293   6.345  13.193
20102TIP3    H181797   5.308   6.439  13.185
20102TIP3    H281798   5.303   6.311  13.104
20103TIP3   OH281799   0.347   6.055   1.368
20103TIP3    H181800   0.349   6.038   1.274
20103TIP3    H281801   0.283   5.992   1.402
20104TIP3   OH281802   1.883   3.708   3.389
20104TIP3    H181803   1.908   3.649   3.459
20104TIP3    H281804   1.813   3.762   3.426
20105TIP3   OH281805   4.733   6.190  16.531
20105TIP3    H181806   4.644   6.199  16.497
20105TIP3    H281807   4.777   6.271  16.506
20106TIP3   OH281808   1.484   2.024   4.597
20106TIP3    H181809   1.470   1.960   4.667
20106TIP3    H281810   1.520   1.974   4.524
20107TIP3   OH281811   6.163   3.642  15.489
20107TIP3    H181812   6.182   3.551  15.511
20107TIP3    H281813   6.178   3.648  15.395
20108TIP3   OH281814   2.853   4.641   2.405
20108TIP3    H181815   2.898   4.580   2.463
20108TIP3    H281816   2.882   4.727   2.434
20109TIP3   OH281817   3.646   2.789   4.325
20109TIP3    H181818   3.694   2.783   4.242
20109TIP3    H281819   3.556   2.769   4.302
20110TIP3   OH281820   0.711   6.479  13.322
20110TIP3    H181821   0.664   6.510  13.399
20110TIP3    H281822   0.789   6.435  13.358
20111TIP3   OH281823   5.895   3.639   0.781
20111TIP3    H181824   5.842   3.584   0.839
20111TIP3    H281825   5.881   3.728   0.814
20112TIP3   OH281826   4.762   1.930   3.417
20112TIP3    H181827   4.710   1.852   3.434
20112TIP3    H281828   4.724   1.968   3.338
20113TIP3   OH281829   4.591   4.906   0.367
20113TIP3    H181830   4.600   4.855   0.287
20113TIP3    H281831   4.509   4.955   0.355
20114TIP3   OH281832   1.398   6.280   6.047
20114TIP3    H181833   1.423   6.195   6.011
20114TIP3    H281834   1.425   6.276   6.139
20115TIP3   OH281835   5.863   5.312  16.008
20115TIP3    H181836   5.891   5.238  15.955
20115TIP3    H281837   5.886   5.288  16.098
20116TIP3   OH281838   4.794   5.429   1.396
20116TIP3    H181839   4.745   5.503   1.360
20116TIP3    H281840   4.825   5.381   1.319
20117TIP3   OH281841   2.347   4.889  16.761
20117TIP3    H181842   2.276   4.878  16.697
20117TIP3    H281843   2.418   4.929  16.711
20118TIP3   OH281844   4.788   3.978   4.016
20118TIP3    H181845   4.706   4.021   4.037
20118TIP3    H281846   4.774   3.941   3.928
20119TIP3   OH281847   5.008   4.042  13.724
20119TIP3    H181848   4.943   4.079  13.784
20119TIP3    H281849   5.092   4.056  13.767
20120TIP3   OH281850   1.871   2.963  10.484
20120TIP3    H181851   1.858   3.037  10.425
20120TIP3    H281852   1.783   2.928  10.498
20121TIP3   OH281853   5.118   6.164  15.402
20121TIP3    H181854   5.081   6.104  15.338
20121TIP3    H281855   5.114   6.250  15.360
20122TIP3   OH281856   1.449   3.646  16.518
20122TIP3    H181857   1.490   3.605  16.594
20122TIP3    H281858   1.457   3.740  16.534
20123TIP3   OH281859   6.251   2.258  16.285
20123TIP3    H181860   6.181   2.320  16.306
20123TIP3    H281861   6.315   2.310  16.234
20124TIP3   OH281862   2.399   3.057   5.379
20124TIP3    H181863   2.358   3.112   5.312
20124TIP3    H281864   2.346   3.071   5.457
20125TIP3   OH281865   4.455   3.695   2.760
20125TIP3    H181866   4.478   3.772   2.813
20125TIP3    H281867   4.522   3.693   2.691
20126TIP3   OH281868   2.007   1.174  12.635
20126TIP3    H181869   1.977   1.113  12.568
20126TIP3    H281870   1.971   1.139  12.717
20127TIP3   OH281871   4.527   4.822  14.464
20127TIP3    H181872   4.445   4.811  14.512
20127TIP3    H281873   4.558   4.909  14.488
20128TIP3   OH281874   3.594   1.519   5.769
20128TIP3    H181875   3.543   1.593   5.737
20128TIP3    H281876   3.614   1.468   5.690
20129TIP3   OH281877   5.450   4.529  15.530
20129TIP3    H181878   5.470   4.477  15.451
20129TIP3    H281879   5.365   4.570  15.511
20130TIP3   OH281880   2.374   6.814   6.395
20130TIP3    H181881   2.341   6.889   6.445
20130TIP3    H281882   2.454   6.789   6.441
20131TIP3   OH281883   3.054   6.647   5.030
20131TIP3    H181884   2.983   6.591   5.061
20131TIP3    H281885   3.010   6.719   4.984
20132TIP3   OH281886   0.963   5.050   5.505
20132TIP3    H181887   1.040   5.108   5.499
20132TIP3    H281888   0.997   4.969   5.543
20133TIP3   OH281889   2.109   4.490  15.861
20133TIP3    H181890   2.038   4.430  15.886
20133TIP3    H281891   2.078   4.530  15.780
20134TIP3   OH281892   5.970   5.145   2.227
20134TIP3    H181893   5.917   5.092   2.167
20134TIP3    H281894   5.996   5.221   2.176
20135TIP3   OH281895   3.585   0.854   0.737
20135TIP3    H181896   3.614   0.870   0.648
20135TIP3    H281897   3.524   0.925   0.756
20136TIP3   OH281898   5.404   2.022   3.839
20136TIP3    H181899   5.393   1.971   3.920
20136TIP3    H281900   5.348   1.979   3.776
20137TIP3   OH281901   0.189   6.414  15.279
20137TIP3    H181902   0.204   6.371  15.195
20137TIP3    H281903   0.174   6.342  15.340
20138TIP3   OH281904   6.368   1.939   1.325
20138TIP3    H181905   6.412   1.933   1.409
20138TIP3    H281906   6.279   1.907   1.341
20139TIP3   OH281907   4.145   4.800   4.330
20139TIP3    H181908   4.181   4.713   4.343
20139TIP3    H281909   4.175   4.826   4.243
20140TIP3   OH281910   3.849   5.450   1.689
20140TIP3    H181911   3.820   5.538   1.664
20140TIP3    H281912   3.943   5.459   1.703
20141TIP3   OH281913   6.143   4.310  15.361
20141TIP3    H181914   6.161   4.312  15.267
20141TIP3    H281915   6.220   4.349  15.402
20142TIP3   OH281916   1.643   6.450  17.204
20142TIP3    H181917   1.710   6.518  17.198
20142TIP3    H281918   1.677   6.377  17.153
20143TIP3   OH281919   5.899   3.877   2.645
20143TIP3    H181920   5.842   3.819   2.595
20143TIP3    H281921   5.951   3.922   2.579
20144TIP3   OH281922   2.955   1.973  13.873
20144TIP3    H181923   2.909   2.052  13.843
20144TIP3    H281924   2.887   1.920  13.915
20145TIP3   OH281925   0.388   0.563  13.025
20145TIP3    H181926   0.389   0.641  13.082
20145TIP3    H281927   0.427   0.593  12.943
20146TIP3   OH281928   3.831   2.870  11.536
20146TIP3    H181929   3.748   2.903  11.501
20146TIP3    H281930   3.874   2.947  11.573
20147TIP3   OH281931   2.173   5.306  10.606
20147TIP3    H181932   2.085   5.269  10.608
20147TIP3    H281933   2.200   5.297  10.515
20148TIP3   OH281934   5.632   0.879  11.428
20148TIP3    H181935   5.574   0.806  11.450
20148TIP3    H281936   5.710   0.864  11.483
20149TIP3   OH281937   3.913   1.993   5.924
20149TIP3    H181938   3.824   2.026   5.940
20149TIP3    H281939   3.903   1.932   5.851
20150TIP3   OH281940   0.238   2.493  14.315
20150TIP3    H181941   0.231   2.416  14.371
20150TIP3    H281942   0.185   2.471  14.238
20151TIP3   OH281943   3.754   4.022  15.087
20151TIP3    H181944   3.693   4.042  15.015
20151TIP3    H281945   3.714   4.064  15.164
20152TIP3   OH281946   5.140   3.966   4.706
20152TIP3    H181947   5.187   3.898   4.658
20152TIP3    H281948   5.083   4.007   4.640
20153TIP3   OH281949   0.220   0.195   1.444
20153TIP3    H181950   0.277   0.240   1.381
20153TIP3    H281951   0.233   0.102   1.426
20154TIP3   OH281952   5.512   5.779  16.895
20154TIP3    H181953   5.556   5.763  16.812
20154TIP3    H281954   5.514   5.695  16.940
20155TIP3   OH281955   2.278   3.378  14.132
20155TIP3    H181956   2.332   3.439  14.181
20155TIP3    H281957   2.206   3.356  14.192
20156TIP3   OH281958   5.120   6.267  13.846
20156TIP3    H181959   5.191   6.233  13.902
20156TIP3    H281960   5.089   6.344  13.893
20157TIP3   OH281961   0.938   6.488  11.221
20157TIP3    H181962   0.875   6.527  11.161
20157TIP3    H281963   0.923   6.394  11.215
20158TIP3   OH281964   5.411   6.485   4.180
20158TIP3    H181965   5.392   6.459   4.089
20158TIP3    H281966   5.432   6.403   4.224
20159TIP3   OH281967   1.761   4.783  13.221
20159TIP3    H181968   1.734   4.857  13.167
20159TIP3    H281969   1.690   4.719  13.212
20160TIP3   OH281970   3.415   0.021   0.275
20160TIP3    H181971   3.403   0.035   0.181
20160TIP3    H281972   3.329   0.041   0.313
20161TIP3   OH281973   2.294   1.128  11.335
20161TIP3    H181974   2.265   1.071  11.263
20161TIP3    H281975   2.387   1.144  11.316
20162TIP3   OH281976   5.489   5.517  17.022
20162TIP3    H181977   5.532   5.459  17.085
20162TIP3    H281978   5.478   5.463  16.944
20163TIP3   OH281979   2.569   3.854   6.850
20163TIP3    H181980   2.662   3.873   6.863
20163TIP3    H281981   2.566   3.811   6.765
20164TIP3   OH281982   0.069   3.229  16.582
20164TIP3    H181983   0.060   3.145  16.538
20164TIP3    H281984   0.063   3.209  16.675
20165TIP3   OH281985   3.190   0.378   5.095
20165TIP3    H181986   3.197   0.462   5.049
20165TIP3    H281987   3.096   0.363   5.103
20166TIP3   OH281988   3.798   1.020   0.943
20166TIP3    H181989   3.875   0.975   0.909
20166TIP3    H281990   3.768   0.965   1.015
20167TIP3   OH281991   4.047   4.914  16.426
20167TIP3    H181992   4.052   4.825  16.462
20167TIP3    H281993   4.059   4.903  16.332
20168TIP3   OH281994   2.264   3.225   1.166
20168TIP3    H181995   2.230   3.248   1.253
20168TIP3    H281996   2.217   3.145   1.142
20169TIP3   OH281997   3.259   1.882  11.344
20169TIP3    H181998   3.165   1.875  11.365
20169TIP3    H281999   3.262   1.892  11.249
20170TIP3   OH282000   3.751   2.485  15.220
20170TIP3    H182001   3.716   2.402  15.253
20170TIP3    H282002   3.695   2.506  15.145
20171TIP3   OH282003   5.531   1.903   2.005
20171TIP3    H182004   5.437   1.896   1.992
20171TIP3    H282005   5.540   1.953   2.087
20172TIP3   OH282006   5.278   6.366   1.613
20172TIP3    H182007   5.221   6.326   1.547
20172TIP3    H282008   5.362   6.378   1.568
20173TIP3   OH282009   6.326   3.816  17.137
20173TIP3    H182010   6.362   3.864  17.062
20173TIP3    H282011   6.249   3.866  17.162
20174TIP3   OH282012   2.090   6.388  11.968
20174TIP3    H182013   2.058   6.421  11.884
20174TIP3    H282014   2.054   6.299  11.974
20175TIP3   OH282015   5.748   5.946   2.163
20175TIP3    H182016   5.812   5.953   2.093
20175TIP3    H282017   5.684   6.016   2.145
20176TIP3   OH282018   6.807   2.124  13.196
20176TIP3    H182019   6.878   2.086  13.248
20176TIP3    H282020   6.851   2.169  13.124
20177TIP3   OH282021   0.676   2.948   1.427
20177TIP3    H182022   0.582   2.935   1.414
20177TIP3    H282023   0.690   3.040   1.406
20178TIP3   OH282024   5.097   1.436  13.309
20178TIP3    H182025   5.070   1.527  13.316
20178TIP3    H282026   5.017   1.388  13.286
20179TIP3   OH282027   1.955   6.186  16.282
20179TIP3    H182028   2.039   6.227  16.260
20179TIP3    H282029   1.935   6.218  16.370
20180TIP3   OH282030   0.477   3.835  14.849
20180TIP3    H182031   0.438   3.836  14.937
20180TIP3    H282032   0.476   3.743  14.823
20181TIP3   OH282033   5.019   2.159  14.410
20181TIP3    H182034   5.098   2.117  14.374
20181TIP3    H282035   5.018   2.133  14.502
20182TIP3   OH282036   6.676   2.339   3.776
20182TIP3    H182037   6.611   2.273   3.751
20182TIP3    H282038   6.751   2.288   3.806
20183TIP3   OH282039   6.568   6.223  16.262
20183TIP3    H182040   6.499   6.183  16.314
20183TIP3    H282041   6.552   6.317  16.269
20184TIP3   OH282042   4.214   0.226  16.822
20184TIP3    H182043   4.263   0.301  16.855
20184TIP3    H282044   4.208   0.242  16.728
20185TIP3   OH282045   1.362   5.509  12.583
20185TIP3    H182046   1.387   5.483  12.672
20185TIP3    H282047   1.363   5.427  12.533
20186TIP3   OH282048   6.755   2.082  15.494
20186TIP3    H182049   6.813   2.056  15.566
20186TIP3    H282050   6.685   2.132  15.535
20187TIP3   OH282051   0.007   1.376  16.645
20187TIP3    H182052  -0.065   1.377  16.583
20187TIP3    H282053  -0.009   1.450  16.703
20188TIP3   OH282054   0.112   1.842   3.418
20188TIP3    H182055   0.143   1.769   3.364
20188TIP3    H282056   0.050   1.801   3.478
20189TIP3   OH282057   4.949   2.259  17.172
20189TIP3    H182058   5.037   2.285  17.200
20189TIP3    H282059   4.905   2.234  17.253
20190TIP3   OH282060   4.518   0.931  14.643
20190TIP3    H182061   4.496   0.974  14.725
20190TIP3    H282062   4.563   0.998  14.591
20191TIP3   OH282063   5.318   3.511  16.455
20191TIP3    H182064   5.401   3.542  16.491
20191TIP3    H282065   5.326   3.523  16.361
20192TIP3   OH282066   5.020   6.757   3.090
20192TIP3    H182067   4.952   6.773   3.156
20192TIP3    H282068   4.991   6.677   3.046
20193TIP3   OH282069   0.673   3.792   3.671
20193TIP3    H182070   0.725   3.774   3.592
20193TIP3    H282071   0.734   3.782   3.743
20194TIP3   OH282072   2.923   4.443  16.364
20194TIP3    H182073   2.860   4.378  16.396
20194TIP3    H282074   2.926   4.510  16.432
20195TIP3   OH282075   2.602   3.770  16.298
20195TIP3    H182076   2.564   3.720  16.225
20195TIP3    H282077   2.547   3.749  16.373
20196TIP3   OH282078   1.924   2.737  15.028
20196TIP3    H182079   1.990   2.783  15.080
20196TIP3    H282080   1.846   2.736  15.083
20197TIP3   OH282081   3.119   5.473  14.354
20197TIP3    H182082   3.109   5.567  14.370
20197TIP3    H282083   3.073   5.432  14.427
20198TIP3   OH282084   6.503   1.960   1.699
20198TIP3    H182085   6.504   1.875   1.654
20198TIP3    H282086   6.499   1.939   1.792
20199TIP3   OH282087   1.491   3.582   5.024
20199TIP3    H182088   1.399   3.557   5.016
20199TIP3    H282089   1.508   3.580   5.118
20200TIP3   OH282090   4.139   0.836  14.985
20200TIP3    H182091   4.113   0.914  15.034
20200TIP3    H282092   4.230   0.853  14.961
20201TIP3   OH282093   2.678   4.596  12.128
20201TIP3    H182094   2.759   4.576  12.081
20201TIP3    H282095   2.677   4.692  12.134
20202TIP3   OH282096   3.626   4.455  15.840
20202TIP3    H182097   3.543   4.408  15.833
20202TIP3    H282098   3.693   4.387  15.834
20203TIP3   OH282099   1.083   3.308  14.642
20203TIP3    H182100   1.050   3.398  14.638
20203TIP3    H282101   1.141   3.301  14.566
20204TIP3   OH282102   4.884   5.082   3.699
20204TIP3    H182103   4.941   5.016   3.660
20204TIP3    H282104   4.830   5.033   3.761
20205TIP3   OH282105   4.010   0.698   1.526
20205TIP3    H182106   3.915   0.696   1.542
20205TIP3    H282107   4.048   0.670   1.609
20206TIP3   OH282108   3.291   3.752  14.654
20206TIP3    H182109   3.260   3.843  14.653
20206TIP3    H282110   3.225   3.703  14.606
20207TIP3   OH282111   3.439   0.249   2.997
20207TIP3    H182112   3.403   0.332   3.029
20207TIP3    H282113   3.377   0.220   2.930
20208TIP3   OH282114   5.506   6.571   3.846
20208TIP3    H182115   5.584   6.514   3.844
20208TIP3    H282116   5.488   6.589   3.754
20209TIP3   OH282117   2.740   4.254  12.025
20209TIP3    H182118   2.836   4.253  12.014
20209TIP3    H282119   2.707   4.284  11.941
20210TIP3   OH282120   5.549   0.927   1.877
20210TIP3    H182121   5.520   0.847   1.833
20210TIP3    H282122   5.641   0.936   1.852
20211TIP3   OH282123   6.595   0.976   3.722
20211TIP3    H182124   6.559   0.907   3.666
20211TIP3    H282125   6.667   0.934   3.769
20212TIP3   OH282126   4.161   5.585   4.883
20212TIP3    H182127   4.145   5.492   4.896
20212TIP3    H282128   4.226   5.588   4.812
20213TIP3   OH282129   0.274   0.203  11.908
20213TIP3    H182130   0.211   0.158  11.965
20213TIP3    H282131   0.325   0.132  11.869
20214TIP3   OH282132   5.470   3.561   3.568
20214TIP3    H182133   5.479   3.641   3.620
20214TIP3    H282134   5.509   3.492   3.622
20215TIP3   OH282135   4.904   0.013   2.791
20215TIP3    H182136   4.888   0.005   2.885
20215TIP3    H282137   4.853  -0.058   2.752
20216TIP3   OH282138   4.422   4.972   3.127
20216TIP3    H182139   4.482   5.037   3.165
20216TIP3    H282140   4.335   5.009   3.140
20217TIP3   OH282141   3.769   6.640  11.716
20217TIP3    H182142   3.740   6.608  11.630
20217TIP3    H282143   3.688   6.648  11.766
20218TIP3   OH282144   4.187   3.941  16.507
20218TIP3    H182145   4.278   3.972  16.503
20218TIP3    H282146   4.160   3.935  16.416
20219TIP3   OH282147   0.125   3.364   2.963
20219TIP3    H182148   0.147   3.433   3.025
20219TIP3    H282149   0.176   3.289   2.991
20220TIP3   OH282150   3.174   2.806  16.381
20220TIP3    H182151   3.168   2.897  16.352
20220TIP3    H282152   3.240   2.807  16.450
20221TIP3   OH282153   1.104   4.148   1.476
20221TIP3    H182154   1.176   4.196   1.517
20221TIP3    H282155   1.117   4.160   1.382
20222TIP3   OH282156   0.429   5.033   6.292
20222TIP3    H182157   0.373   5.100   6.252
20222TIP3    H282158   0.516   5.051   6.258
20223TIP3   OH282159   2.501   0.991  13.062
20223TIP3    H182160   2.414   1.021  13.037
20223TIP3    H282161   2.485   0.925  13.130
20224TIP3   OH282162   1.806   6.417   3.797
20224TIP3    H182163   1.861   6.376   3.730
20224TIP3    H282164   1.805   6.354   3.869
20225TIP3   OH282165   5.099   5.703  14.113
20225TIP3    H182166   5.188   5.674  14.095
20225TIP3    H282167   5.045   5.659  14.047
20226TIP3   OH282168   5.112   2.625   3.574
20226TIP3    H182169   5.122   2.557   3.641
20226TIP3    H282170   5.200   2.635   3.538
20227TIP3   OH282171   5.178   1.807   1.764
20227TIP3    H182172   5.207   1.719   1.740
20227TIP3    H282173   5.083   1.803   1.761
20228TIP3   OH282174   5.795   3.117   2.721
20228TIP3    H182175   5.709   3.155   2.701
20228TIP3    H282176   5.781   3.066   2.801
20229TIP3   OH282177   2.613   3.219  10.700
20229TIP3    H182178   2.695   3.192  10.742
20229TIP3    H282179   2.640   3.251  10.614
20230TIP3   OH282180   5.839   0.900   1.403
20230TIP3    H182181   5.775   0.955   1.449
20230TIP3    H282182   5.822   0.916   1.310
20231TIP3   OH282183   0.846   1.938  12.096
20231TIP3    H182184   0.911   1.878  12.059
20231TIP3    H282185   0.787   1.882  12.146
20232TIP3   OH282186   4.681   6.363  13.033
20232TIP3    H182187   4.613   6.327  12.975
20232TIP3    H282188   4.657   6.330  13.120
20233TIP3   OH282189   1.291   2.699   1.655
20233TIP3    H182190   1.209   2.740   1.682
20233TIP3    H282191   1.305   2.729   1.565
20234TIP3   OH282192   3.912   0.567  16.833
20234TIP3    H182193   3.955   0.589  16.750
20234TIP3    H282194   3.941   0.635  16.893
20235TIP3   OH282195   5.389   4.855  14.526
20235TIP3    H182196   5.472   4.815  14.500
20235TIP3    H282197   5.358   4.801  14.599
20236TIP3   OH282198   1.465   5.575  14.444
20236TIP3    H182199   1.460   5.651  14.501
20236TIP3    H282200   1.435   5.607  14.359
20237TIP3   OH282201   3.423   3.971   4.524
20237TIP3    H182202   3.408   3.878   4.538
20237TIP3    H282203   3.431   4.008   4.612
20238TIP3   OH282204   4.883   0.808   4.566
20238TIP3    H182205   4.798   0.804   4.522
20238TIP3    H282206   4.887   0.727   4.617
20239TIP3   OH282207   2.129   0.677   4.112
20239TIP3    H182208   2.076   0.725   4.047
20239TIP3    H282209   2.159   0.599   4.065
20240TIP3   OH282210   3.621   4.007  15.594
20240TIP3    H182211   3.580   4.087  15.625
20240TIP3    H282212   3.699   3.997  15.650
20241TIP3   OH282213   6.233   1.702  12.758
20241TIP3    H182214   6.262   1.782  12.713
20241TIP3    H282215   6.307   1.678  12.814
20242TIP3   OH282216   6.564   4.988  15.522
20242TIP3    H182217   6.489   4.936  15.551
20242TIP3    H282218   6.551   5.074  15.563
20243TIP3   OH282219   4.522   2.391   1.648
20243TIP3    H182220   4.534   2.326   1.579
20243TIP3    H282221   4.574   2.357   1.721
20244TIP3   OH282222   0.172   1.631   5.143
20244TIP3    H182223   0.251   1.581   5.162
20244TIP3    H282224   0.115   1.614   5.218
20245TIP3   OH282225   0.324   6.398   3.257
20245TIP3    H182226   0.382   6.467   3.289
20245TIP3    H282227   0.241   6.412   3.303
20246TIP3   OH282228   4.574   1.771   4.878
20246TIP3    H182229   4.583   1.676   4.890
20246TIP3    H282230   4.486   1.791   4.908
20247TIP3   OH282231   4.526   5.040  16.953
20247TIP3    H182232   4.494   5.101  17.019
20247TIP3    H282233   4.613   5.073  16.929
20248TIP3   OH282234   6.547   6.589  11.498
20248TIP3    H182235   6.457   6.577  11.528
20248TIP3    H282236   6.555   6.534  11.420
20249LIG      S82237   3.422   3.612  16.742
20249LIG     N182238   3.440   3.270  16.281
20249LIG     N282239   3.332   3.394  16.537
20249LIG     C182240   3.510   3.209  16.399
20249LIG     C282241   3.558   3.315  16.499
20249LIG     C382242   3.471   3.404  16.567
20249LIG     C482243   3.391   3.168  16.186
20249LIG     C582244   3.520   3.375  16.214
20249LIG     C682245   3.422   3.105  16.474
20249LIG     C782246   3.525   3.500  16.656
20249LIG     C882247   3.696   3.325  16.520
20249LIG     C982248   3.231   3.471  16.601
20249LIG    C1082249   3.500   3.083  16.119
20249LIG    C1182250   3.451   3.447  16.097
20249LIG    C1282251   3.664   3.508  16.675
20249LIG    C1382252   3.749   3.421  16.607
20249LIG    C1482253   3.257   3.573  16.696
20249LIG    C1582254   3.098   3.443  16.565
20249LIG    C1682255   3.151   3.645  16.752
20249LIG    C1782256   2.993   3.515  16.622
20249LIG    C1882257   3.019   3.616  16.715
20249LIG     H182258   3.599   3.154  16.361
20249LIG     H282259   3.331   3.218  16.107
20249LIG     H382260   3.318   3.101  16.237
20249LIG     H482261   3.616   3.332  16.180
20249LIG     H582262   3.545   3.454  16.289
20249LIG     H682263   3.421   3.009  16.418
20249LIG     H782264   3.317   3.140  16.483
20249LIG     H882265   3.461   3.086  16.576
20249LIG     H982266   3.764   3.259  16.467
20249LIG    H1082267   3.308   3.337  16.456
20249LIG    H1182268   3.558   3.027  16.195
20249LIG    H1282269   3.569   3.147  16.061
20249LIG    H1382270   3.454   3.009  16.050
20249LIG    H1482271   3.348   3.477  16.126
20249LIG    H1582272   3.445   3.381  16.009
20249LIG    H1682273   3.508   3.538  16.069
20249LIG    H1782274   3.705   3.581  16.742
20249LIG    H1882275   3.856   3.428  16.620
20249LIG    H1982276   3.076   3.365  16.493
20249LIG    H2082277   3.171   3.723  16.824
20249LIG    H2182278   2.891   3.493  16.593
20249LIG    H2282279   2.937   3.672  16.759
   6.82013   6.82013  17.29240
